 Entering Gaussian System, Link 0=g16
 Initial command:
 /cluster/software/Gaussian/g16_C.01/l1.exe "/cluster/work/users/beto93/mol65/Gau-1833458.inp" -scrdir="/cluster/work/users/beto93/mol65/"
 Entering Link 1 = /cluster/software/Gaussian/g16_C.01/l1.exe PID=   1833459.
  
 Copyright (c) 1988-2019, Gaussian, Inc.  All Rights Reserved.
  
 This is part of the Gaussian(R) 16 program.  It is based on
 the Gaussian(R) 09 system (copyright 2009, Gaussian, Inc.),
 the Gaussian(R) 03 system (copyright 2003, Gaussian, Inc.),
 the Gaussian(R) 98 system (copyright 1998, Gaussian, Inc.),
 the Gaussian(R) 94 system (copyright 1995, Gaussian, Inc.),
 the Gaussian 92(TM) system (copyright 1992, Gaussian, Inc.),
 the Gaussian 90(TM) system (copyright 1990, Gaussian, Inc.),
 the Gaussian 88(TM) system (copyright 1988, Gaussian, Inc.),
 the Gaussian 86(TM) system (copyright 1986, Carnegie Mellon
 University), and the Gaussian 82(TM) system (copyright 1983,
 Carnegie Mellon University). Gaussian is a federally registered
 trademark of Gaussian, Inc.
  
 This software contains proprietary and confidential information,
 including trade secrets, belonging to Gaussian, Inc.
  
 This software is provided under written license and may be
 used, copied, transmitted, or stored only in accord with that
 written license.
  
 The following legend is applicable only to US Government
 contracts under FAR:
  
                    RESTRICTED RIGHTS LEGEND
  
 Use, reproduction and disclosure by the US Government is
 subject to restrictions as set forth in subparagraphs (a)
 and (c) of the Commercial Computer Software - Restricted
 Rights clause in FAR 52.227-19.
  
 Gaussian, Inc.
 340 Quinnipiac St., Bldg. 40, Wallingford CT 06492
  
  
 ---------------------------------------------------------------
 Warning -- This program may not be used in any manner that
 competes with the business of Gaussian, Inc. or will provide
 assistance to any competitor of Gaussian, Inc.  The licensee
 of this program is prohibited from giving any competitor of
 Gaussian, Inc. access to this program.  By using this program,
 the user acknowledges that Gaussian, Inc. is engaged in the
 business of creating and licensing software in the field of
 computational chemistry and represents and warrants to the
 licensee that it is not a competitor of Gaussian, Inc. and that
 it will not use this program in any manner prohibited above.
 ---------------------------------------------------------------
  

 Cite this work as:
 Gaussian 16, Revision C.01,
 M. J. Frisch, G. W. Trucks, H. B. Schlegel, G. E. Scuseria, 
 M. A. Robb, J. R. Cheeseman, G. Scalmani, V. Barone, 
 G. A. Petersson, H. Nakatsuji, X. Li, M. Caricato, A. V. Marenich, 
 J. Bloino, B. G. Janesko, R. Gomperts, B. Mennucci, H. P. Hratchian, 
 J. V. Ortiz, A. F. Izmaylov, J. L. Sonnenberg, D. Williams-Young, 
 F. Ding, F. Lipparini, F. Egidi, J. Goings, B. Peng, A. Petrone, 
 T. Henderson, D. Ranasinghe, V. G. Zakrzewski, J. Gao, N. Rega, 
 G. Zheng, W. Liang, M. Hada, M. Ehara, K. Toyota, R. Fukuda, 
 J. Hasegawa, M. Ishida, T. Nakajima, Y. Honda, O. Kitao, H. Nakai, 
 T. Vreven, K. Throssell, J. A. Montgomery, Jr., J. E. Peralta, 
 F. Ogliaro, M. J. Bearpark, J. J. Heyd, E. N. Brothers, K. N. Kudin, 
 V. N. Staroverov, T. A. Keith, R. Kobayashi, J. Normand, 
 K. Raghavachari, A. P. Rendell, J. C. Burant, S. S. Iyengar, 
 J. Tomasi, M. Cossi, J. M. Millam, M. Klene, C. Adamo, R. Cammi, 
 J. W. Ochterski, R. L. Martin, K. Morokuma, O. Farkas, 
 J. B. Foresman, and D. J. Fox, Gaussian, Inc., Wallingford CT, 2019.
 
 ******************************************
 Gaussian 16:  ES64L-G16RevC.01  3-Jul-2019
                18-Nov-2024 
 ******************************************
 %LindaWorkers=c1-43-ib
 %NProcShared=4
 Will use up to    4 processors via shared memory.
 %mem=25GB
 %chk=mol65.chk
 SetLPE:    new flags="-opt 'Tsnet.Node.lindarsharg: ssh'  -nodelist 'c1-43-ib.saga' -env GAUSS_MDEF=3355443200 -env GAUSS_EXEDIR="/cluster/software/Gaussian/g16_C.01/bsd:/cluster/software/Gaussian/g16_C.01""
 Will use up to    1 processors via Linda.
 -----------------------------------------------------------------
 #RHF/STO-3G int=nobasistransform Symmetry=None 5D 7F Pop=NBO7Read
 -----------------------------------------------------------------
 1/38=1,163=2,172=1/1;
 2/12=2,15=3,17=6,18=5,40=1/2;
 3/6=3,8=11,11=1,25=1,30=1,60=-1,116=1/1,2,3;
 4//1;
 5/5=2,38=5/2;
 6/7=2,8=2,9=2,10=2,28=1,40=2,113=1,114=1,124=2103/1,12;
 99/5=1,9=1/99;
 ---------
 mol65-NBO
 ---------
 Symbolic Z-matrix:
 Charge =  0 Multiplicity = 1
 Si                    0.        0.        0. 
 Cl                    1.16935   1.16935   1.16935 
 Cl                   -1.16935  -1.16935   1.16935 
 Cl                    1.16935  -1.16935  -1.16935 
 Cl                   -1.16935   1.16935  -1.16935 
 
                          Input orientation:                          
 ---------------------------------------------------------------------
 Center     Atomic      Atomic             Coordinates (Angstroms)
 Number     Number       Type             X           Y           Z
 ---------------------------------------------------------------------
      1         14           0        0.000000    0.000000    0.000000
      2         17           0        1.169349    1.169349    1.169349
      3         17           0       -1.169349   -1.169349    1.169349
      4         17           0        1.169349   -1.169349   -1.169349
      5         17           0       -1.169349    1.169349   -1.169349
 ---------------------------------------------------------------------
                    Distance matrix (angstroms):
                    1          2          3          4          5
     1  Si   0.000000
     2  Cl   2.025372   0.000000
     3  Cl   2.025372   3.307418   0.000000
     4  Cl   2.025372   3.307418   3.307418   0.000000
     5  Cl   2.025372   3.307418   3.307418   3.307418   0.000000
 Symmetry turned off by external request.
 Stoichiometry    Cl4Si
 Rotational constants (GHZ):           1.3211664           1.3211664           1.3211664
 Standard basis: STO-3G (5D, 7F)
    45 basis functions,   135 primitive gaussians,    45 cartesian basis functions
    41 alpha electrons       41 beta electrons
       nuclear repulsion energy       526.1678359289 Hartrees.
 NAtoms=    5 NActive=    5 NUniq=    5 SFac= 1.00D+00 NAtFMM=   60 NAOKFM=F Big=F
 Integral buffers will be    131072 words long.
 Raffenetti 1 integral format.
 Two-electron integral symmetry is turned off.
 One-electron integrals computed using PRISM.
 NBasis=    45 RedAO= T EigKep=  3.02D-01  NBF=    45
 NBsUse=    45 1.00D-06 EigRej= -1.00D+00 NBFU=    45
 ExpMin= 1.61D-01 ExpMax= 6.01D+02 ExpMxC= 6.01D+02 IAcc=3 IRadAn=         5 AccDes= 0.00D+00
 Harris functional with IExCor=  205 and IRadAn=       5 diagonalized for initial guess.
 HarFok:  IExCor=  205 AccDes= 0.00D+00 IRadAn=         5 IDoV= 1 UseB2=F ITyADJ=14
 ICtDFT=  3500011 ScaDFX=  1.000000  1.000000  1.000000  1.000000
 FoFCou: FMM=F IPFlag=           0 FMFlag=      100000 FMFlg1=           0
         NFxFlg=           0 DoJE=T BraDBF=F KetDBF=T FulRan=T
         wScrn=  0.000000 ICntrl=       500 IOpCl=  0 I1Cent=   200000004 NGrid=           0
         NMat0=    1 NMatS0=      1 NMatT0=    0 NMatD0=    1 NMtDS0=    0 NMtDT0=    0
 Symmetry not used in FoFCou.
 Keep R1 ints in memory in canonical form, NReq=1349821.
 Requested convergence on RMS density matrix=1.00D-08 within 128 cycles.
 Requested convergence on MAX density matrix=1.00D-06.
 Requested convergence on             energy=1.00D-06.
 No special actions if energy rises.
 SCF Done:  E(RHF) =  -2104.12272625     A.U. after    8 cycles
            NFock=  8  Conv=0.14D-08     -V/T= 2.0177

 **********************************************************************

            Population analysis using the SCF Density.

 **********************************************************************

 Alpha  occ. eigenvalues -- -103.73594-103.73593-103.73593-103.73593 -68.27594
 Alpha  occ. eigenvalues --  -10.42367 -10.42337 -10.42337 -10.42337  -7.86774
 Alpha  occ. eigenvalues --   -7.86737  -7.86737  -7.86737  -7.86143  -7.86143
 Alpha  occ. eigenvalues --   -7.86143  -7.86140  -7.86140  -7.86140  -7.86119
 Alpha  occ. eigenvalues --   -7.86119  -6.23736  -4.26268  -4.26268  -4.26268
 Alpha  occ. eigenvalues --   -1.14484  -1.06588  -1.06588  -1.06588  -0.68789
 Alpha  occ. eigenvalues --   -0.55764  -0.55764  -0.55764  -0.47201  -0.47201
 Alpha  occ. eigenvalues --   -0.44515  -0.44515  -0.44515  -0.44482  -0.44482
 Alpha  occ. eigenvalues --   -0.44482
 Alpha virt. eigenvalues --    0.18315   0.30979   0.30979   0.30979
          Condensed to atoms (all electrons):
               1          2          3          4          5
     1  Si  12.035546   0.208456   0.208456   0.208456   0.208456
     2  Cl   0.208456  17.107150  -0.010983  -0.010983  -0.010983
     3  Cl   0.208456  -0.010983  17.107150  -0.010983  -0.010983
     4  Cl   0.208456  -0.010983  -0.010983  17.107150  -0.010983
     5  Cl   0.208456  -0.010983  -0.010983  -0.010983  17.107150
 Mulliken charges:
               1
     1  Si   1.130630
     2  Cl  -0.282658
     3  Cl  -0.282658
     4  Cl  -0.282658
     5  Cl  -0.282658
 Sum of Mulliken charges =  -0.00000
 Mulliken charges with hydrogens summed into heavy atoms:
               1
     1  Si   1.130630
     2  Cl  -0.282658
     3  Cl  -0.282658
     4  Cl  -0.282658
     5  Cl  -0.282658
 Electronic spatial extent (au):  <R**2>=           1137.8507
 Charge=              0.0000 electrons
 Dipole moment (field-independent basis, Debye):
    X=              0.0000    Y=             -0.0000    Z=             -0.0000  Tot=              0.0000
 Quadrupole moment (field-independent basis, Debye-Ang):
   XX=            -63.5395   YY=            -63.5395   ZZ=            -63.5395
   XY=             -0.0000   XZ=             -0.0000   YZ=              0.0000
 Traceless Quadrupole moment (field-independent basis, Debye-Ang):
   XX=             -0.0000   YY=             -0.0000   ZZ=              0.0000
   XY=             -0.0000   XZ=             -0.0000   YZ=              0.0000
 Octapole moment (field-independent basis, Debye-Ang**2):
  XXX=              0.0000  YYY=             -0.0000  ZZZ=             -0.0000  XYY=              0.0000
  XXY=             -0.0000  XXZ=             -0.0000  XZZ=              0.0000  YZZ=             -0.0000
  YYZ=             -0.0000  XYZ=             -8.0391
 Hexadecapole moment (field-independent basis, Debye-Ang**3):
 XXXX=           -444.6655 YYYY=           -444.6655 ZZZZ=           -444.6655 XXXY=             -0.0000
 XXXZ=             -0.0000 YYYX=             -0.0000 YYYZ=              0.0000 ZZZX=              0.0000
 ZZZY=              0.0000 XXYY=           -151.6882 XXZZ=           -151.6882 YYZZ=           -151.6882
 XXYZ=              0.0000 YYXZ=             -0.0000 ZZXY=             -0.0000
 N-N= 5.261678359289D+02 E-N=-6.030929774854D+03  KE= 2.067582248624D+03
 Running external command "gaunbo7 R"
         input file       "/cluster/work/users/beto93/mol65/Gau-1833459.EIn"
         output file      "/cluster/work/users/beto93/mol65/Gau-1833459.EOu"
         message file     "/cluster/work/users/beto93/mol65/Gau-1833459.EMs"
         fchk file        "/cluster/work/users/beto93/mol65/Gau-1833459.EFC"
         mat. el file     "/cluster/work/users/beto93/mol65/Gau-1833459.EUF"

 Writing WrtUnf unformatted file "/cluster/work/users/beto93/mol65/Gau-1833459.EUF"
 Gaussian matrix elements                                         Version   2 NLab=11 Len12L=8 Len4L=8
 Write SHELL TO ATOM MAP                   from file      0 offset           0 length                  15 to matrix element file.
 Write SHELL TYPES                         from file      0 offset           0 length                  15 to matrix element file.
 Write NUMBER OF PRIMITIVES PER SHELL      from file      0 offset           0 length                  15 to matrix element file.
 Write PRIMITIVE EXPONENTS                 from file      0 offset           0 length                  45 to matrix element file.
 Write CONTRACTION COEFFICIENTS            from file      0 offset           0 length                  45 to matrix element file.
 Write P(S=P) CONTRACTION COEFFICIENTS     from file      0 offset           0 length                  45 to matrix element file.
 Write COORDINATES OF EACH SHELL           from file      0 offset           0 length                  45 to matrix element file.
 Write BONDS PER ATOM                      from file      0 offset           0 length                   5 to matrix element file.
 Write BONDED ATOMS                        from file      0 offset           0 length                   8 to matrix element file.
 Write BOND TYPES                          from file      0 offset           0 length                   8 to matrix element file.
 Write ONIOM CHARGE/MULT                   from file      0 offset           0 length                  32 to matrix element file.
 Write ONIOM ATOM LAYERS                   from file      0 offset           0 length                   5 to matrix element file.
 Write ONIOM ATOM MODIFIERS                from file      0 offset           0 length                   5 to matrix element file.
 Write ONIOM ATOM TYPES                    from file      0 offset           0 length                   5 to matrix element file.
 Write ONIOM LINK ATOMS                    from file      0 offset           0 length                   5 to matrix element file.
 Write ONIOM LINK CHARGES                  from file      0 offset           0 length                   5 to matrix element file.
 Write ONIOM LINK DISTANCES                from file      0 offset           0 length                  20 to matrix element file.
 Write SYMINF INTS                         from file      0 offset           0 length                  26 to matrix element file.
 Write ROTTR TO SO                         from file      0 offset           0 length                  12 to matrix element file.
 Write GAUSSIAN SCALARS                    from file    501 offset           0 to matrix element file.
 Write OPTIMIZATION FLAGS                  from file      0 offset           0 length                   5 to matrix element file.
 Write INTEGER ISO                         from file      0 offset           0 length                   5 to matrix element file.
 Write INTEGER SPIN                        from file      0 offset           0 length                   5 to matrix element file.
 Write REAL ZEFFECTIVE                     from file      0 offset           0 length                   5 to matrix element file.
 Write REAL QUADRUPOLEMOMENT               from file      0 offset           0 length                   5 to matrix element file.
 Write REAL GFACTOR                        from file      0 offset           0 length                   5 to matrix element file.
 Write REAL ZNUCLEAR                       from file      0 offset           0 length                   5 to matrix element file.
 Write MULLIKEN CHARGES                    from file      0 offset           0 length                   5 to matrix element file.
 Write NUCLEAR GRADIENT                    from file  10584 offset           0 length                  15 to matrix element file.
 Array NUCLEAR FORCE CONSTANTS              on  file  10585 does not exist.
 Write ELECTRIC DIPOLE MOMENT              from file      0 offset           0 length                   3 to matrix element file.
 Write NON-ADIABATIC COUPLING              from file  10810 offset           0 length                  15 to matrix element file.
 Write FINITE EM FIELD                     from file  10521 offset           0 length                  35 to matrix element file.
 Write OVERLAP                             from file  10514 offset           0 length                1035 to matrix element file.
 Write CORE HAMILTONIAN ALPHA              from file  10515 offset           0 length                1035 to matrix element file.
 Write CORE HAMILTONIAN BETA               from file  10515 offset        1035 length                1035 to matrix element file.
 Write KINETIC ENERGY                      from file  10516 offset           0 length                1035 to matrix element file.
 Write ORTHOGONAL BASIS                    from file  10685 offset           0 length                2025 to matrix element file.
 Write DIPOLE INTEGRALS                    from file  10518 offset           0 length                3105 to matrix element file.
 Array DIP VEL INTEGRALS                    on  file  10572 does not exist.
 Array R X DEL INTEGRALS                    on  file  10572 does not exist.
 Write ALPHA ORBITAL ENERGIES              from file      0 offset           0 length                  45 to matrix element file.
 Write ALPHA MO COEFFICIENTS               from file  10524 offset           0 length                2025 to matrix element file.
 Write ALPHA DENSITY MATRIX                from file      0 offset           0 length                1035 to matrix element file.
 Write ALPHA FOCK MATRIX                   from file  10536 offset           0 length                1035 to matrix element file.
 Write ENERGY-WEIGHTED DENSITY             from file  10571 offset           0 length                1035 to matrix element file.
 Write ALPHA SCF DENSITY MATRIX            from file      0 offset           0 length                1035 to matrix element file.
 No 2e integrals to process.
 Perform NBO analysis...executing G16NBO...

 *********************************** NBO 7.0 ***********************************
             N A T U R A L   A T O M I C   O R B I T A L   A N D
          N A T U R A L   B O N D   O R B I T A L   A N A L Y S I S
 **************************** Espen Tangen (S101595) ***************************
  (c) Copyright 1996-2021 Board of Regents of the University of Wisconsin System
      on behalf of the Theoretical Chemistry Institute.  All rights reserved.

          Cite this program [NBO 7.0.10 (8-Feb-2021)] as:

          NBO 7.0.  E. D. Glendening, J. K. Badenhoop, A. E. Reed,
          J. E. Carpenter, J. A. Bohmann, C. M. Morales, P. Karafiloglou,
          C. R. Landis, and F. Weinhold, Theoretical Chemistry Institute,
          University of Wisconsin, Madison, WI (2018)

       /NPA    / : Natural Population Analysis
       /AOPNAO / : Print the AO to PNAO transformation
       /AONAO  / : Print the AO to NAO transformation
       /AOMO   / : Print the MOs in the AO basis
       /BOAO   / : Print the AO bond-order matrix
       /DMAO   / : Print the AO density matrix
       /DMPNAO / : Print the PNAO density matrix
       /DMNAO  / : Print the NAO density matrix
       /DMMO   / : Print the MO density matrix
       /SAO    / : Print the AO overlap matrix
       /SPNAO  / : Print the PNAO overlap matrix
       /DETAIL / : Write details of NBO search
       /ARCHIVE/ : Write the archive file to lfn47
       /AOINFO / : Write AO information to lfn31
       /FILE   / : Set to mol65.gen*

 Filename set to mol65.gen1

 Job title: mol65-NBO


 MOs in the AO basis:

           AO          1       2       3       4       5       6       7       8
      ------------ ------- ------- ------- ------- ------- ------- ------- -------
   1. Si 1 (s)      0.0000  0.0000  0.0000  0.0000  0.9940 -0.0006  0.0000  0.0000
   2. Si 1 (s)     -0.0001  0.0000  0.0000  0.0000  0.0189  0.0016  0.0000  0.0000
   3. Si 1 (px)     0.0000  0.0001  0.0000  0.0000  0.0000  0.0000 -0.0006 -0.0014
   4. Si 1 (py)     0.0000  0.0000 -0.0001  0.0000  0.0000  0.0000 -0.0014  0.0006
   5. Si 1 (pz)     0.0000  0.0000  0.0000  0.0001  0.0000  0.0000  0.0002 -0.0002
   6. Si 1 (s)      0.0008  0.0000  0.0000  0.0000 -0.0039 -0.0163  0.0000  0.0000
   7. Si 1 (px)     0.0000 -0.0005  0.0000  0.0002  0.0000  0.0000  0.0041  0.0088
   8. Si 1 (py)     0.0000  0.0000  0.0005  0.0000  0.0000  0.0000  0.0087 -0.0039
   9. Si 1 (pz)     0.0000 -0.0002  0.0000 -0.0005  0.0000  0.0000 -0.0015  0.0016
  10. Cl 2 (s)      0.4972 -0.5819  0.5508 -0.3159  0.0000 -0.1885  0.2197  0.1249
  11. Cl 2 (s)      0.0079 -0.0092  0.0087 -0.0050 -0.0001  0.5267 -0.6138 -0.3491
  12. Cl 2 (px)     0.0000  0.0000  0.0000  0.0000  0.0001 -0.0033  0.0039  0.0022
  13. Cl 2 (py)     0.0000  0.0000  0.0000  0.0000  0.0001 -0.0033  0.0039  0.0022
  14. Cl 2 (pz)     0.0000  0.0000  0.0000  0.0000  0.0001 -0.0033  0.0038  0.0022
  15. Cl 2 (s)     -0.0010  0.0011 -0.0010  0.0006  0.0007  0.0234 -0.0261 -0.0148
  16. Cl 2 (px)     0.0001 -0.0001  0.0001 -0.0001 -0.0004 -0.0022  0.0019  0.0007
  17. Cl 2 (py)     0.0001 -0.0001  0.0000  0.0000 -0.0004 -0.0022  0.0016  0.0015
  18. Cl 2 (pz)     0.0001 -0.0001  0.0001  0.0000 -0.0004 -0.0022  0.0022  0.0011
  19. Cl 3 (s)      0.4972  0.2536 -0.5382 -0.6228  0.0000 -0.1885 -0.2768 -0.0640
  20. Cl 3 (s)      0.0079  0.0040 -0.0085 -0.0099 -0.0001  0.5267  0.7734  0.1790
  21. Cl 3 (px)     0.0000  0.0000  0.0000  0.0000 -0.0001  0.0033  0.0049  0.0012
  22. Cl 3 (py)     0.0000  0.0000  0.0000  0.0000 -0.0001  0.0033  0.0049  0.0011
  23. Cl 3 (pz)     0.0000  0.0000  0.0000  0.0000  0.0001 -0.0033 -0.0048 -0.0011
  24. Cl 3 (s)     -0.0010 -0.0005  0.0010  0.0011  0.0007  0.0234  0.0329  0.0076
  25. Cl 3 (px)    -0.0001  0.0000  0.0001  0.0001  0.0004  0.0022  0.0024  0.0001
  26. Cl 3 (py)    -0.0001  0.0000  0.0000  0.0001  0.0004  0.0022  0.0022  0.0009
  27. Cl 3 (pz)     0.0001  0.0000 -0.0001 -0.0001 -0.0004 -0.0022 -0.0026 -0.0007
  28. Cl 4 (s)      0.4972 -0.3517 -0.4513  0.6437  0.0000 -0.1885 -0.0599  0.2151
  29. Cl 4 (s)      0.0079 -0.0056 -0.0071  0.0102 -0.0001  0.5267  0.1673 -0.6011
  30. Cl 4 (px)     0.0000  0.0000  0.0000  0.0000  0.0001 -0.0033 -0.0010  0.0038
  31. Cl 4 (py)     0.0000  0.0000  0.0000  0.0000 -0.0001  0.0033  0.0011 -0.0038
  32. Cl 4 (pz)     0.0000  0.0000  0.0000  0.0000 -0.0001  0.0033  0.0010 -0.0037
  33. Cl 4 (s)     -0.0010  0.0006  0.0008 -0.0012  0.0007  0.0234  0.0071 -0.0255
  34. Cl 4 (px)     0.0001  0.0000 -0.0001  0.0001 -0.0004 -0.0022 -0.0008  0.0016
  35. Cl 4 (py)    -0.0001  0.0000  0.0000 -0.0001  0.0004  0.0022  0.0001 -0.0019
  36. Cl 4 (pz)    -0.0001  0.0001  0.0001 -0.0001  0.0004  0.0022  0.0007 -0.0022
  37. Cl 5 (s)      0.4972  0.6800  0.4386  0.2949  0.0000 -0.1885  0.1170 -0.2760
  38. Cl 5 (s)      0.0079  0.0108  0.0069  0.0047 -0.0001  0.5267 -0.3269  0.7712
  39. Cl 5 (px)     0.0000  0.0000  0.0000  0.0000 -0.0001  0.0033 -0.0020  0.0049
  40. Cl 5 (py)     0.0000  0.0000  0.0000  0.0000  0.0001 -0.0033  0.0021 -0.0048
  41. Cl 5 (pz)     0.0000  0.0000  0.0000  0.0000 -0.0001  0.0033 -0.0020  0.0048
  42. Cl 5 (s)     -0.0010 -0.0012 -0.0008 -0.0005  0.0007  0.0234 -0.0139  0.0328
  43. Cl 5 (px)    -0.0001 -0.0001 -0.0001 -0.0001  0.0004  0.0022 -0.0014  0.0021
  44. Cl 5 (py)     0.0001  0.0001  0.0000  0.0000 -0.0004 -0.0022  0.0006 -0.0024
  45. Cl 5 (pz)    -0.0001 -0.0001 -0.0001  0.0000  0.0004  0.0022 -0.0010  0.0026

           AO          9      10      11      12      13      14      15      16
      ------------ ------- ------- ------- ------- ------- ------- ------- -------
   1. Si 1 (s)      0.0000  0.0005  0.0000  0.0000  0.0000  0.0000  0.0000  0.0000
   2. Si 1 (s)      0.0000 -0.0011  0.0000  0.0000  0.0000  0.0000  0.0000  0.0000
   3. Si 1 (px)     0.0001  0.0000 -0.0002  0.0015  0.0007  0.0000  0.0000  0.0000
   4. Si 1 (py)    -0.0003  0.0000 -0.0017 -0.0002 -0.0002  0.0000  0.0000  0.0000
   5. Si 1 (pz)    -0.0015  0.0000 -0.0001 -0.0008  0.0015  0.0000  0.0000  0.0000
   6. Si 1 (s)      0.0000  0.0213  0.0000  0.0000  0.0000  0.0000  0.0000  0.0000
   7. Si 1 (px)    -0.0008  0.0000  0.0016 -0.0112 -0.0055  0.0000  0.0000  0.0000
   8. Si 1 (py)     0.0020  0.0000  0.0125  0.0012  0.0012  0.0000  0.0000  0.0000
   9. Si 1 (pz)     0.0095  0.0000  0.0005  0.0056 -0.0113  0.0000  0.0000  0.0000
  10. Cl 2 (s)      0.2068 -0.0026 -0.0029  0.0009  0.0031  0.0000  0.0000  0.0000
  11. Cl 2 (s)     -0.5777  0.0074  0.0083 -0.0025 -0.0089  0.0000  0.0000  0.0000
  12. Cl 2 (px)     0.0036  0.2852  0.3367 -0.0845 -0.3518 -0.2380 -0.3761  0.2167
  13. Cl 2 (py)     0.0036  0.2852  0.3191 -0.1048 -0.3627  0.4940 -0.0045 -0.0305
  14. Cl 2 (pz)     0.0037  0.2852  0.3386 -0.1119 -0.3423 -0.2560  0.3805 -0.1862
  15. Cl 2 (s)     -0.0245 -0.0043 -0.0035  0.0010  0.0037  0.0000  0.0000  0.0000
  16. Cl 2 (px)     0.0021  0.0141  0.0160 -0.0035 -0.0165 -0.0096 -0.0151  0.0087
  17. Cl 2 (py)     0.0019  0.0141  0.0146 -0.0051 -0.0173  0.0199 -0.0002 -0.0012
  18. Cl 2 (pz)     0.0014  0.0141  0.0161 -0.0056 -0.0157 -0.0103  0.0153 -0.0075
  19. Cl 3 (s)      0.1609 -0.0026  0.0027 -0.0031  0.0014  0.0000  0.0000  0.0000
  20. Cl 3 (s)     -0.4496  0.0074 -0.0077  0.0089 -0.0040  0.0000  0.0000  0.0000
  21. Cl 3 (px)    -0.0028 -0.2852  0.3125 -0.3422  0.1718  0.2263 -0.3184 -0.3040
  22. Cl 3 (py)    -0.0028 -0.2852  0.2948 -0.3626  0.1609  0.0297 -0.0621  0.4902
  23. Cl 3 (pz)     0.0029  0.2852 -0.3160  0.3515 -0.1445  0.2560 -0.3805  0.1862
  24. Cl 3 (s)     -0.0191 -0.0043  0.0032 -0.0037  0.0017  0.0000  0.0000  0.0000
  25. Cl 3 (px)    -0.0015 -0.0141  0.0148 -0.0157  0.0085  0.0091 -0.0128 -0.0122
  26. Cl 3 (py)    -0.0017 -0.0141  0.0134 -0.0173  0.0076  0.0012 -0.0025  0.0197
  27. Cl 3 (pz)     0.0010  0.0141 -0.0151  0.0165 -0.0063  0.0103 -0.0153  0.0075
  28. Cl 4 (s)     -0.2382 -0.0026  0.0023  0.0036 -0.0009  0.0000  0.0000  0.0000
  29. Cl 4 (s)      0.6657  0.0074 -0.0065 -0.0103  0.0026  0.0000  0.0000  0.0000
  30. Cl 4 (px)    -0.0042  0.2852 -0.2661 -0.3998  0.1167  0.2380  0.3761 -0.2167
  31. Cl 4 (py)     0.0042 -0.2852  0.2431  0.4162 -0.1097 -0.0297  0.0621 -0.4902
  32. Cl 4 (pz)     0.0042 -0.2852  0.2626  0.4091 -0.0893  0.2677  0.3139  0.2735
  33. Cl 4 (s)      0.0283 -0.0043  0.0027  0.0043 -0.0011  0.0000  0.0000  0.0000
  34. Cl 4 (px)    -0.0023  0.0141 -0.0128 -0.0185  0.0058  0.0096  0.0151 -0.0087
  35. Cl 4 (py)     0.0022 -0.0141  0.0109  0.0198 -0.0053 -0.0012  0.0025 -0.0197
  36. Cl 4 (pz)     0.0017 -0.0141  0.0125  0.0192 -0.0037  0.0108  0.0126  0.0110
  37. Cl 5 (s)     -0.1294 -0.0026 -0.0021 -0.0014 -0.0036  0.0000  0.0000  0.0000
  38. Cl 5 (s)      0.3617  0.0074  0.0059  0.0039  0.0102  0.0000  0.0000  0.0000
  39. Cl 5 (px)     0.0023 -0.2852 -0.2419 -0.1421 -0.4069 -0.2263  0.3184  0.3040
  40. Cl 5 (py)    -0.0022  0.2852  0.2189  0.1584  0.4139 -0.4940  0.0045  0.0305
  41. Cl 5 (pz)     0.0023 -0.2852 -0.2401 -0.1695 -0.3974 -0.2677 -0.3139 -0.2735
  42. Cl 5 (s)      0.0154 -0.0043 -0.0024 -0.0016 -0.0042  0.0000  0.0000  0.0000
  43. Cl 5 (px)     0.0013 -0.0141 -0.0116 -0.0062 -0.0191 -0.0091  0.0128  0.0122
  44. Cl 5 (py)    -0.0014  0.0141  0.0098  0.0075  0.0197 -0.0199  0.0002  0.0012
  45. Cl 5 (pz)     0.0007 -0.0141 -0.0115 -0.0084 -0.0184 -0.0108 -0.0126 -0.0110

           AO         17      18      19      20      21      22      23      24
      ------------ ------- ------- ------- ------- ------- ------- ------- -------
   1. Si 1 (s)      0.0000  0.0000  0.0000  0.0000  0.0000 -0.3435  0.0000  0.0000
   2. Si 1 (s)      0.0000  0.0000  0.0000  0.0000  0.0000  1.0374  0.0000  0.0000
   3. Si 1 (px)    -0.0005  0.0004  0.0009  0.0000  0.0000  0.0000  0.0203  0.8221
   4. Si 1 (py)     0.0009 -0.0001  0.0005  0.0000  0.0000  0.0000  0.2333 -0.5146
   5. Si 1 (pz)     0.0003  0.0010 -0.0002  0.0000  0.0000  0.0000  0.9475  0.1091
   6. Si 1 (s)      0.0000  0.0000  0.0000  0.0000  0.0000  0.0593  0.0000  0.0000
   7. Si 1 (px)     0.0027 -0.0020 -0.0050  0.0000  0.0000  0.0000  0.0017  0.0701
   8. Si 1 (py)    -0.0051  0.0007 -0.0031  0.0000  0.0000  0.0000  0.0199 -0.0439
   9. Si 1 (pz)    -0.0016 -0.0056  0.0014  0.0000  0.0000  0.0000  0.0808  0.0093
  10. Cl 2 (s)      0.0000 -0.0001 -0.0001  0.0000  0.0000 -0.0003 -0.0003 -0.0001
  11. Cl 2 (s)      0.0001  0.0002  0.0002  0.0000  0.0000  0.0007  0.0003  0.0001
  12. Cl 2 (px)    -0.4005 -0.0167  0.2904  0.4007 -0.0537 -0.0008 -0.0011  0.0007
  13. Cl 2 (py)     0.3867 -0.2937  0.0961 -0.1539  0.3738 -0.0008 -0.0009 -0.0011
  14. Cl 2 (pz)     0.0338  0.3443 -0.3540 -0.2468 -0.3202 -0.0008  0.0001 -0.0003
  15. Cl 2 (s)      0.0005  0.0008  0.0008  0.0000  0.0000 -0.0084 -0.0117 -0.0041
  16. Cl 2 (px)    -0.0164 -0.0011  0.0113  0.0157 -0.0021  0.0040  0.0074 -0.0023
  17. Cl 2 (py)     0.0154 -0.0123  0.0034 -0.0060  0.0147  0.0040  0.0061  0.0057
  18. Cl 2 (pz)     0.0011  0.0135 -0.0147 -0.0097 -0.0126  0.0040  0.0018  0.0020
  19. Cl 3 (s)      0.0000  0.0000  0.0001  0.0000  0.0000 -0.0003 -0.0002  0.0000
  20. Cl 3 (s)      0.0000  0.0001 -0.0003  0.0000  0.0000  0.0007  0.0002  0.0000
  21. Cl 3 (px)    -0.2966  0.3421  0.2001 -0.4007  0.0537  0.0008  0.0007  0.0009
  22. Cl 3 (py)     0.4907  0.0651  0.0058  0.1539 -0.3738  0.0008  0.0010 -0.0009
  23. Cl 3 (pz)     0.1901  0.4283  0.1597 -0.2468 -0.3202 -0.0008  0.0006  0.0003
  24. Cl 3 (s)     -0.0001  0.0005 -0.0011  0.0000  0.0000 -0.0084 -0.0068  0.0019
  25. Cl 3 (px)    -0.0120  0.0141  0.0075 -0.0157  0.0021 -0.0040 -0.0045 -0.0037
  26. Cl 3 (py)     0.0198  0.0029 -0.0004  0.0060 -0.0147 -0.0040 -0.0058  0.0043
  27. Cl 3 (pz)     0.0077  0.0170  0.0071 -0.0097 -0.0126  0.0040 -0.0014 -0.0019
  28. Cl 4 (s)      0.0001  0.0000  0.0000  0.0000  0.0000 -0.0003  0.0003 -0.0003
  29. Cl 4 (s)     -0.0003 -0.0001  0.0001  0.0000  0.0000  0.0007 -0.0003  0.0003
  30. Cl 4 (px)     0.0313  0.2962  0.3954  0.4007 -0.0537 -0.0008  0.0012 -0.0001
  31. Cl 4 (py)     0.2152 -0.1639  0.4146  0.1539 -0.3738  0.0008 -0.0008  0.0005
  32. Cl 4 (pz)    -0.1377  0.4741 -0.0356  0.2468  0.3202  0.0008  0.0001  0.0013
  33. Cl 4 (s)     -0.0011 -0.0003  0.0004  0.0000  0.0000 -0.0084  0.0113 -0.0120
  34. Cl 4 (px)     0.0019  0.0122  0.0157  0.0157 -0.0021  0.0040 -0.0074  0.0027
  35. Cl 4 (py)     0.0081 -0.0068  0.0170  0.0060 -0.0147 -0.0040  0.0059 -0.0046
  36. Cl 4 (pz)    -0.0062  0.0190 -0.0012  0.0097  0.0126 -0.0040  0.0016 -0.0084
  37. Cl 5 (s)     -0.0001  0.0001  0.0000  0.0000  0.0000 -0.0003  0.0002  0.0003
  38. Cl 5 (s)      0.0002 -0.0002  0.0000  0.0000  0.0000  0.0007 -0.0002 -0.0003
  39. Cl 5 (px)    -0.0727 -0.0626  0.4856 -0.4007  0.0537  0.0008 -0.0007 -0.0003
  40. Cl 5 (py)     0.3192  0.1949  0.3243 -0.1539  0.3738 -0.0008  0.0010  0.0007
  41. Cl 5 (pz)     0.3616  0.2984 -0.1588  0.2468  0.3202  0.0008  0.0005 -0.0013
  42. Cl 5 (s)      0.0007 -0.0010 -0.0001  0.0000  0.0000 -0.0084  0.0072  0.0141
  43. Cl 5 (px)    -0.0025 -0.0031  0.0196 -0.0157  0.0021 -0.0040  0.0045  0.0041
  44. Cl 5 (py)     0.0125  0.0084  0.0131 -0.0060  0.0147  0.0040 -0.0060 -0.0060
  45. Cl 5 (pz)     0.0150  0.0115 -0.0064  0.0097  0.0126 -0.0040 -0.0011  0.0084

           AO         25      26      27      28      29      30      31      32
      ------------ ------- ------- ------- ------- ------- ------- ------- -------
   1. Si 1 (s)      0.0000  0.0405  0.0000  0.0000  0.0000  0.0600  0.0000  0.0000
   2. Si 1 (s)      0.0000 -0.1518  0.0000  0.0000  0.0000 -0.2154  0.0000  0.0000
   3. Si 1 (px)     0.5257  0.0000 -0.0569 -0.0352  0.0163  0.0000 -0.0187  0.1389
   4. Si 1 (py)     0.7959  0.0000  0.0254 -0.0556 -0.0316  0.0000 -0.1573 -0.0168
   5. Si 1 (pz)    -0.2072  0.0000  0.0293 -0.0201  0.0590  0.0000 -0.0006  0.0743
   6. Si 1 (s)      0.0000  0.2948  0.0000  0.0000  0.0000  0.6417  0.0000  0.0000
   7. Si 1 (px)     0.0448  0.0000  0.0865  0.0536 -0.0247  0.0000  0.0481 -0.3579
   8. Si 1 (py)     0.0679  0.0000 -0.0386  0.0846  0.0480  0.0000  0.4054  0.0432
   9. Si 1 (pz)    -0.0177  0.0000 -0.0446  0.0305 -0.0896  0.0000  0.0015 -0.1914
  10. Cl 2 (s)     -0.0003  0.0368  0.0013  0.0690 -0.0271 -0.0249 -0.0129  0.0143
  11. Cl 2 (s)      0.0003 -0.1225 -0.0044 -0.2277  0.0896  0.0780  0.0397 -0.0442
  12. Cl 2 (px)    -0.0004  0.0172 -0.0029  0.0208 -0.0080  0.0444  0.0765 -0.0186
  13. Cl 2 (py)     0.0000  0.0172  0.0019  0.0196 -0.0108  0.0444 -0.0016 -0.1062
  14. Cl 2 (pz)    -0.0014  0.0172  0.0021  0.0216 -0.0056  0.0444  0.0867 -0.0549
  15. Cl 2 (s)     -0.0109  0.3983  0.0150  0.7840 -0.3084 -0.3467 -0.1903  0.2118
  16. Cl 2 (px)     0.0038 -0.0528  0.0087 -0.0696  0.0270 -0.1441 -0.2673  0.0572
  17. Cl 2 (py)     0.0022 -0.0528 -0.0060 -0.0660  0.0355 -0.1441  0.0145  0.3736
  18. Cl 2 (pz)     0.0082 -0.0528 -0.0067 -0.0723  0.0193 -0.1441 -0.3040  0.1885
  19. Cl 3 (s)      0.0004  0.0368 -0.0378 -0.0440 -0.0462 -0.0249  0.0128 -0.0035
  20. Cl 3 (s)     -0.0004 -0.1225  0.1247  0.1452  0.1524  0.0780 -0.0395  0.0108
  21. Cl 3 (px)    -0.0008 -0.0172  0.0092  0.0125  0.0162 -0.0444  0.0759  0.0546
  22. Cl 3 (py)    -0.0005 -0.0172  0.0140  0.0113  0.0134 -0.0444 -0.0022 -0.0330
  23. Cl 3 (pz)     0.0012  0.0172 -0.0108 -0.0157 -0.0118  0.0444 -0.0867  0.0654
  24. Cl 3 (s)      0.0149  0.3983 -0.4294 -0.5001 -0.5249 -0.3467  0.1891 -0.0516
  25. Cl 3 (px)     0.0064  0.0528 -0.0314 -0.0421 -0.0537  0.1441 -0.2652 -0.1997
  26. Cl 3 (py)     0.0048  0.0528 -0.0461 -0.0385 -0.0452  0.1441  0.0166  0.1168
  27. Cl 3 (pz)    -0.0083 -0.0528  0.0363  0.0520  0.0403 -0.1441  0.3044 -0.2337
  28. Cl 4 (s)      0.0000  0.0368  0.0694 -0.0252  0.0069 -0.0249  0.0102  0.0059
  29. Cl 4 (s)      0.0000 -0.1225 -0.2290  0.0831 -0.0228  0.0780 -0.0313 -0.0183
  30. Cl 4 (px)     0.0008  0.0172  0.0196 -0.0104  0.0032  0.0444 -0.0791  0.0381
  31. Cl 4 (py)     0.0010 -0.0172 -0.0215  0.0051 -0.0041 -0.0444 -0.0200  0.0306
  32. Cl 4 (pz)    -0.0003 -0.0172 -0.0212  0.0072  0.0011 -0.0444  0.0683  0.0819
  33. Cl 4 (s)      0.0006  0.3983  0.7887 -0.2862  0.0784 -0.3467  0.1501  0.0877
  34. Cl 4 (px)    -0.0036 -0.0528 -0.0662  0.0340 -0.0105 -0.1441  0.2786 -0.1417
  35. Cl 4 (py)    -0.0044  0.0528  0.0718 -0.0178  0.0132  0.1441  0.0791 -0.1066
  36. Cl 4 (pz)     0.0016  0.0528  0.0711 -0.0241 -0.0029  0.1441 -0.2395 -0.2917
  37. Cl 5 (s)     -0.0001  0.0368 -0.0329  0.0002  0.0664 -0.0249 -0.0101 -0.0168
  38. Cl 5 (s)      0.0001 -0.1225  0.1087 -0.0007 -0.2192  0.0780  0.0311  0.0517
  39. Cl 5 (px)     0.0012 -0.0172  0.0076 -0.0021 -0.0210 -0.0444 -0.0785 -0.0351
  40. Cl 5 (py)     0.0006  0.0172 -0.0094 -0.0032  0.0201  0.0444 -0.0206  0.1038
  41. Cl 5 (pz)     0.0002 -0.0172  0.0126 -0.0012 -0.0185 -0.0444 -0.0683 -0.0714
  42. Cl 5 (s)     -0.0047  0.3983 -0.3743  0.0023  0.7550 -0.3467 -0.1488 -0.2479
  43. Cl 5 (px)    -0.0062  0.0528 -0.0261  0.0065  0.0702  0.1441  0.2766  0.1152
  44. Cl 5 (py)    -0.0018 -0.0528  0.0317  0.0097 -0.0675 -0.1441  0.0811 -0.3635
  45. Cl 5 (pz)    -0.0017  0.0528 -0.0415  0.0038  0.0626  0.1441  0.2398  0.2465

           AO         33      34      35      36      37      38      39      40
      ------------ ------- ------- ------- ------- ------- ------- ------- -------
   1. Si 1 (s)      0.0000  0.0000  0.0000  0.0000  0.0000  0.0000  0.0000  0.0000
   2. Si 1 (s)      0.0000  0.0000  0.0000  0.0000  0.0000  0.0000  0.0000  0.0000
   3. Si 1 (px)     0.0738  0.0000  0.0000  0.0324 -0.0264  0.0159  0.0000  0.0000
   4. Si 1 (py)    -0.0082  0.0000  0.0000  0.0274  0.0352  0.0027  0.0000  0.0000
   5. Si 1 (pz)    -0.1399  0.0000  0.0000 -0.0141  0.0078  0.0417  0.0000  0.0000
   6. Si 1 (s)      0.0000  0.0000  0.0000  0.0000  0.0000  0.0000  0.0000  0.0000
   7. Si 1 (px)    -0.1903  0.0000  0.0000 -0.0684  0.0557 -0.0336  0.0000  0.0000
   8. Si 1 (py)     0.0212  0.0000  0.0000 -0.0579 -0.0744 -0.0056  0.0000  0.0000
   9. Si 1 (pz)     0.3605  0.0000  0.0000  0.0298 -0.0165 -0.0880  0.0000  0.0000
  10. Cl 2 (s)     -0.0054  0.0000  0.0000  0.0036  0.0013  0.0048  0.0000  0.0000
  11. Cl 2 (s)      0.0167  0.0000  0.0000 -0.0113 -0.0041 -0.0150  0.0000  0.0000
  12. Cl 2 (px)     0.0782 -0.1035  0.0443 -0.1010  0.0802 -0.0511 -0.0591 -0.0749
  13. Cl 2 (py)     0.0320  0.0901  0.0675 -0.0857 -0.1086 -0.0105 -0.0423 -0.0164
  14. Cl 2 (pz)    -0.0422  0.0134 -0.1117  0.0414 -0.0246 -0.1301  0.1014  0.0913
  15. Cl 2 (s)     -0.0801  0.0000  0.0000  0.0507  0.0185  0.0669  0.0000  0.0000
  16. Cl 2 (px)    -0.2786  0.3833 -0.1640  0.3720 -0.3000  0.1849  0.2195  0.2777
  17. Cl 2 (py)    -0.1117 -0.3337 -0.2499  0.3150  0.4027  0.0337  0.1569  0.0609
  18. Cl 2 (pz)     0.1559 -0.0496  0.4140 -0.1583  0.0902  0.4789 -0.3764 -0.3387
  19. Cl 3 (s)     -0.0150  0.0000  0.0000 -0.0058 -0.0001  0.0018  0.0000  0.0000
  20. Cl 3 (s)      0.0462  0.0000  0.0000  0.0184  0.0003 -0.0057  0.0000  0.0000
  21. Cl 3 (px)    -0.0597  0.1035 -0.0443 -0.1022  0.0808 -0.0478 -0.1260  0.0460
  22. Cl 3 (py)    -0.1059 -0.0901 -0.0675 -0.0869 -0.1080 -0.0072  0.0245 -0.1373
  23. Cl 3 (pz)     0.0225  0.0134 -0.1117  0.0461 -0.0239 -0.1286 -0.1014 -0.0913
  24. Cl 3 (s)     -0.2215  0.0000  0.0000 -0.0820 -0.0011  0.0257  0.0000  0.0000
  25. Cl 3 (px)     0.2052 -0.3833  0.1640  0.3736 -0.3009  0.1802  0.4674 -0.1706
  26. Cl 3 (py)     0.3720  0.3337  0.2499  0.3166  0.4018  0.0290 -0.0910  0.5093
  27. Cl 3 (pz)    -0.0709 -0.0496  0.4140 -0.1651  0.0892  0.4768  0.3764  0.3387
  28. Cl 4 (s)      0.0162  0.0000  0.0000  0.0015 -0.0055 -0.0022  0.0000  0.0000
  29. Cl 4 (s)     -0.0500  0.0000  0.0000 -0.0047  0.0172  0.0071  0.0000  0.0000
  30. Cl 4 (px)    -0.0678 -0.1035  0.0443 -0.1000  0.0836 -0.0476  0.0591  0.0749
  31. Cl 4 (py)     0.1047 -0.0901 -0.0675 -0.0832 -0.1107 -0.0093 -0.0245  0.1373
  32. Cl 4 (pz)     0.0306 -0.0134  0.1117  0.0440 -0.0267 -0.1289  0.0837 -0.0624
  33. Cl 4 (s)      0.2393  0.0000  0.0000  0.0212 -0.0771 -0.0316  0.0000  0.0000
  34. Cl 4 (px)     0.2337  0.3833 -0.1640  0.3705 -0.3049  0.1799 -0.2195 -0.2777
  35. Cl 4 (py)    -0.3670  0.3337  0.2499  0.3114  0.4057  0.0319  0.0910 -0.5093
  36. Cl 4 (pz)    -0.0993  0.0496 -0.4140 -0.1620  0.0932  0.4771 -0.3105  0.2315
  37. Cl 5 (s)      0.0042  0.0000  0.0000  0.0007  0.0042 -0.0043  0.0000  0.0000
  38. Cl 5 (s)     -0.0130  0.0000  0.0000 -0.0023 -0.0134  0.0136  0.0000  0.0000
  39. Cl 5 (px)     0.0701  0.1035 -0.0443 -0.0989  0.0830 -0.0509  0.1260 -0.0460
  40. Cl 5 (py)    -0.0331  0.0901  0.0675 -0.0843 -0.1101 -0.0060  0.0423  0.0164
  41. Cl 5 (pz)    -0.0503 -0.0134  0.1117  0.0436 -0.0219 -0.1299 -0.0837  0.0624
  42. Cl 5 (s)      0.0623  0.0000  0.0000  0.0101  0.0597 -0.0610  0.0000  0.0000
  43. Cl 5 (px)    -0.2501 -0.3833  0.1640  0.3689 -0.3040  0.1846 -0.4674  0.1706
  44. Cl 5 (py)     0.1167 -0.3337 -0.2499  0.3130  0.4048  0.0271 -0.1569 -0.0609
  45. Cl 5 (pz)     0.1844  0.0496 -0.4140 -0.1614  0.0862  0.4786  0.3105 -0.2315

           AO         41      42      43      44      45
      ------------ ------- ------- ------- ------- -------
   1. Si 1 (s)      0.0000  0.0791  0.0000  0.0000  0.0000
   2. Si 1 (s)      0.0000 -0.2623  0.0000  0.0000  0.0000
   3. Si 1 (px)     0.0000  0.0000 -0.2683 -0.1488 -0.1464
   4. Si 1 (py)     0.0000  0.0000  0.1544  0.0189 -0.3023
   5. Si 1 (pz)     0.0000  0.0000  0.1405 -0.3051  0.0527
   6. Si 1 (s)      0.0000  1.2049  0.0000  0.0000  0.0000
   7. Si 1 (px)     0.0000  0.0000  0.9295  0.5156  0.5071
   8. Si 1 (py)     0.0000  0.0000 -0.5350 -0.0654  1.0471
   9. Si 1 (pz)     0.0000  0.0000 -0.4866  1.0568 -0.1826
  10. Cl 2 (s)      0.0000 -0.0134  0.0008 -0.0136 -0.0124
  11. Cl 2 (s)      0.0000  0.0368 -0.0022  0.0358  0.0326
  12. Cl 2 (px)     0.1021 -0.0741  0.0464 -0.0648 -0.0574
  13. Cl 2 (py)    -0.1322 -0.0741 -0.0183 -0.0905 -0.0335
  14. Cl 2 (pz)     0.0301 -0.0741 -0.0161 -0.0410 -0.0878
  15. Cl 2 (s)      0.0000 -0.2598  0.0176 -0.2878 -0.2620
  16. Cl 2 (px)    -0.3788  0.3106 -0.1942  0.2826  0.2503
  17. Cl 2 (py)     0.4904  0.3106  0.0754  0.3896  0.1509
  18. Cl 2 (pz)    -0.1115  0.3106  0.0665  0.1830  0.3772
  19. Cl 3 (s)      0.0000 -0.0134  0.0080 -0.0055  0.0157
  20. Cl 3 (s)      0.0000  0.0368 -0.0209  0.0144 -0.0412
  21. Cl 3 (px)    -0.0393  0.0741 -0.0102  0.0580 -0.0786
  22. Cl 3 (py)     0.0092  0.0741 -0.0748  0.0324 -0.0547
  23. Cl 3 (pz)    -0.0301 -0.0741  0.0297  0.0114  0.0929
  24. Cl 3 (s)      0.0000 -0.2598  0.1683 -0.1159  0.3317
  25. Cl 3 (px)     0.1457 -0.3106  0.0497 -0.2469  0.3418
  26. Cl 3 (py)    -0.0341 -0.3106  0.3192 -0.1399  0.2424
  27. Cl 3 (pz)     0.1115  0.3106 -0.1312 -0.0426 -0.4015
  28. Cl 4 (s)      0.0000 -0.0134 -0.0177  0.0043  0.0032
  29. Cl 4 (s)      0.0000  0.0368  0.0463 -0.0113 -0.0085
  30. Cl 4 (px)    -0.1021 -0.0741 -0.0724  0.0504  0.0432
  31. Cl 4 (py)    -0.0092  0.0741  0.0898 -0.0305  0.0254
  32. Cl 4 (pz)    -0.0929  0.0741  0.0919  0.0190 -0.0288
  33. Cl 4 (s)      0.0000 -0.2598 -0.3727  0.0909  0.0683
  34. Cl 4 (px)     0.3788  0.3106  0.3177 -0.2141 -0.1829
  35. Cl 4 (py)     0.0341 -0.3106 -0.3903  0.1312 -0.1032
  36. Cl 4 (pz)     0.3447 -0.3106 -0.3992 -0.0753  0.1232
  37. Cl 5 (s)      0.0000 -0.0134  0.0089  0.0148 -0.0065
  38. Cl 5 (s)      0.0000  0.0368 -0.0232 -0.0389  0.0172
  39. Cl 5 (px)     0.0393  0.0741 -0.0158 -0.0724  0.0644
  40. Cl 5 (py)     0.1322 -0.0741  0.0332  0.0923  0.0042
  41. Cl 5 (pz)     0.0929  0.0741 -0.0783 -0.0486  0.0340
  42. Cl 5 (s)      0.0000 -0.2598  0.1868  0.3128 -0.1380
  43. Cl 5 (px)    -0.1457 -0.3106  0.0739  0.3154 -0.2744
  44. Cl 5 (py)    -0.4904  0.3106 -0.1465 -0.3983 -0.0117
  45. Cl 5 (pz)    -0.3447 -0.3106  0.3345  0.2158 -0.1474


 AO overlap matrix:

           AO          1       2       3       4       5       6       7       8
      ------------ ------- ------- ------- ------- ------- ------- ------- -------
   1. Si 1 (s)      1.0000  0.3142  0.0000  0.0000  0.0000  0.0136  0.0000  0.0000
   2. Si 1 (s)      0.3142  1.0000  0.0000  0.0000  0.0000  0.2542  0.0000  0.0000
   3. Si 1 (px)     0.0000  0.0000  1.0000  0.0000  0.0000  0.0000  0.2685  0.0000
   4. Si 1 (py)     0.0000  0.0000  0.0000  1.0000  0.0000  0.0000  0.0000  0.2685
   5. Si 1 (pz)     0.0000  0.0000  0.0000  0.0000  1.0000  0.0000  0.0000  0.0000
   6. Si 1 (s)      0.0136  0.2542  0.0000  0.0000  0.0000  1.0000  0.0000  0.0000
   7. Si 1 (px)     0.0000  0.0000  0.2685  0.0000  0.0000  0.0000  1.0000  0.0000
   8. Si 1 (py)     0.0000  0.0000  0.0000  0.2685  0.0000  0.0000  0.0000  1.0000
   9. Si 1 (pz)     0.0000  0.0000  0.0000  0.0000  0.2685  0.0000  0.0000  0.0000
  10. Cl 2 (s)      0.0000  0.0000  0.0000  0.0000  0.0000  0.0032  0.0032  0.0032
  11. Cl 2 (s)      0.0000  0.0000  0.0000  0.0000  0.0000  0.0246  0.0242  0.0242
  12. Cl 2 (px)     0.0000  0.0000  0.0000  0.0000  0.0000 -0.0064 -0.0032 -0.0073
  13. Cl 2 (py)     0.0000  0.0000  0.0000  0.0000  0.0000 -0.0064 -0.0073 -0.0032
  14. Cl 2 (pz)     0.0000  0.0000  0.0000  0.0000  0.0000 -0.0064 -0.0073 -0.0073
  15. Cl 2 (s)      0.0020  0.0195  0.0087  0.0087  0.0087  0.2281  0.1789  0.1789
  16. Cl 2 (px)    -0.0022 -0.0203 -0.0053 -0.0097 -0.0097 -0.1472 -0.0289 -0.1436
  17. Cl 2 (py)    -0.0022 -0.0203 -0.0097 -0.0053 -0.0097 -0.1472 -0.1436 -0.0289
  18. Cl 2 (pz)    -0.0022 -0.0203 -0.0097 -0.0097 -0.0053 -0.1472 -0.1436 -0.1436
  19. Cl 3 (s)      0.0000  0.0000  0.0000  0.0000  0.0000  0.0032 -0.0032 -0.0032
  20. Cl 3 (s)      0.0000  0.0000  0.0000  0.0000  0.0000  0.0246 -0.0242 -0.0242
  21. Cl 3 (px)     0.0000  0.0000  0.0000  0.0000  0.0000  0.0064 -0.0032 -0.0073
  22. Cl 3 (py)     0.0000  0.0000  0.0000  0.0000  0.0000  0.0064 -0.0073 -0.0032
  23. Cl 3 (pz)     0.0000  0.0000  0.0000  0.0000  0.0000 -0.0064  0.0073  0.0073
  24. Cl 3 (s)      0.0020  0.0195 -0.0087 -0.0087  0.0087  0.2281 -0.1789 -0.1789
  25. Cl 3 (px)     0.0022  0.0203 -0.0053 -0.0097  0.0097  0.1472 -0.0289 -0.1436
  26. Cl 3 (py)     0.0022  0.0203 -0.0097 -0.0053  0.0097  0.1472 -0.1436 -0.0289
  27. Cl 3 (pz)    -0.0022 -0.0203  0.0097  0.0097 -0.0053 -0.1472  0.1436  0.1436
  28. Cl 4 (s)      0.0000  0.0000  0.0000  0.0000  0.0000  0.0032  0.0032 -0.0032
  29. Cl 4 (s)      0.0000  0.0000  0.0000  0.0000  0.0000  0.0246  0.0242 -0.0242
  30. Cl 4 (px)     0.0000  0.0000  0.0000  0.0000  0.0000 -0.0064 -0.0032  0.0073
  31. Cl 4 (py)     0.0000  0.0000  0.0000  0.0000  0.0000  0.0064  0.0073 -0.0032
  32. Cl 4 (pz)     0.0000  0.0000  0.0000  0.0000  0.0000  0.0064  0.0073 -0.0073
  33. Cl 4 (s)      0.0020  0.0195  0.0087 -0.0087 -0.0087  0.2281  0.1789 -0.1789
  34. Cl 4 (px)    -0.0022 -0.0203 -0.0053  0.0097  0.0097 -0.1472 -0.0289  0.1436
  35. Cl 4 (py)     0.0022  0.0203  0.0097 -0.0053 -0.0097  0.1472  0.1436 -0.0289
  36. Cl 4 (pz)     0.0022  0.0203  0.0097 -0.0097 -0.0053  0.1472  0.1436 -0.1436
  37. Cl 5 (s)      0.0000  0.0000  0.0000  0.0000  0.0000  0.0032 -0.0032  0.0032
  38. Cl 5 (s)      0.0000  0.0000  0.0000  0.0000  0.0000  0.0246 -0.0242  0.0242
  39. Cl 5 (px)     0.0000  0.0000  0.0000  0.0000  0.0000  0.0064 -0.0032  0.0073
  40. Cl 5 (py)     0.0000  0.0000  0.0000  0.0000  0.0000 -0.0064  0.0073 -0.0032
  41. Cl 5 (pz)     0.0000  0.0000  0.0000  0.0000  0.0000  0.0064 -0.0073  0.0073
  42. Cl 5 (s)      0.0020  0.0195 -0.0087  0.0087 -0.0087  0.2281 -0.1789  0.1789
  43. Cl 5 (px)     0.0022  0.0203 -0.0053  0.0097 -0.0097  0.1472 -0.0289  0.1436
  44. Cl 5 (py)    -0.0022 -0.0203  0.0097 -0.0053  0.0097 -0.1472  0.1436 -0.0289
  45. Cl 5 (pz)     0.0022  0.0203 -0.0097  0.0097 -0.0053  0.1472 -0.1436  0.1436

           AO          9      10      11      12      13      14      15      16
      ------------ ------- ------- ------- ------- ------- ------- ------- -------
   1. Si 1 (s)      0.0000  0.0000  0.0000  0.0000  0.0000  0.0000  0.0020 -0.0022
   2. Si 1 (s)      0.0000  0.0000  0.0000  0.0000  0.0000  0.0000  0.0195 -0.0203
   3. Si 1 (px)     0.0000  0.0000  0.0000  0.0000  0.0000  0.0000  0.0087 -0.0053
   4. Si 1 (py)     0.0000  0.0000  0.0000  0.0000  0.0000  0.0000  0.0087 -0.0097
   5. Si 1 (pz)     0.2685  0.0000  0.0000  0.0000  0.0000  0.0000  0.0087 -0.0097
   6. Si 1 (s)      0.0000  0.0032  0.0246 -0.0064 -0.0064 -0.0064  0.2281 -0.1472
   7. Si 1 (px)     0.0000  0.0032  0.0242 -0.0032 -0.0073 -0.0073  0.1789 -0.0289
   8. Si 1 (py)     0.0000  0.0032  0.0242 -0.0073 -0.0032 -0.0073  0.1789 -0.1436
   9. Si 1 (pz)     1.0000  0.0032  0.0242 -0.0073 -0.0073 -0.0032  0.1789 -0.1436
  10. Cl 2 (s)      0.0032  1.0000  0.3438  0.0000  0.0000  0.0000  0.0133  0.0000
  11. Cl 2 (s)      0.0242  0.3438  1.0000  0.0000  0.0000  0.0000  0.2185  0.0000
  12. Cl 2 (px)    -0.0073  0.0000  0.0000  1.0000  0.0000  0.0000  0.0000  0.2326
  13. Cl 2 (py)    -0.0073  0.0000  0.0000  0.0000  1.0000  0.0000  0.0000  0.0000
  14. Cl 2 (pz)    -0.0032  0.0000  0.0000  0.0000  0.0000  1.0000  0.0000  0.0000
  15. Cl 2 (s)      0.1789  0.0133  0.2185  0.0000  0.0000  0.0000  1.0000  0.0000
  16. Cl 2 (px)    -0.1436  0.0000  0.0000  0.2326  0.0000  0.0000  0.0000  1.0000
  17. Cl 2 (py)    -0.1436  0.0000  0.0000  0.0000  0.2326  0.0000  0.0000  0.0000
  18. Cl 2 (pz)    -0.0289  0.0000  0.0000  0.0000  0.0000  0.2326  0.0000  0.0000
  19. Cl 3 (s)      0.0032  0.0000  0.0000  0.0000  0.0000  0.0000  0.0000  0.0000
  20. Cl 3 (s)      0.0242  0.0000  0.0000  0.0000  0.0000  0.0000  0.0001 -0.0001
  21. Cl 3 (px)     0.0073  0.0000  0.0000  0.0000  0.0000  0.0000  0.0000 -0.0001
  22. Cl 3 (py)     0.0073  0.0000  0.0000  0.0000  0.0000  0.0000  0.0000 -0.0001
  23. Cl 3 (pz)    -0.0032  0.0000  0.0000  0.0000  0.0000  0.0000  0.0000  0.0000
  24. Cl 3 (s)      0.1789  0.0000  0.0001  0.0000  0.0000  0.0000  0.0091 -0.0111
  25. Cl 3 (px)     0.1436  0.0000  0.0001 -0.0001 -0.0001  0.0000  0.0111 -0.0115
  26. Cl 3 (py)     0.1436  0.0000  0.0001 -0.0001 -0.0001  0.0000  0.0111 -0.0144
  27. Cl 3 (pz)    -0.0289  0.0000  0.0000  0.0000  0.0000  0.0000  0.0000  0.0000
  28. Cl 4 (s)     -0.0032  0.0000  0.0000  0.0000  0.0000  0.0000  0.0000  0.0000
  29. Cl 4 (s)     -0.0242  0.0000  0.0000  0.0000  0.0000  0.0000  0.0001  0.0000
  30. Cl 4 (px)     0.0073  0.0000  0.0000  0.0000  0.0000  0.0000  0.0000  0.0000
  31. Cl 4 (py)    -0.0073  0.0000  0.0000  0.0000  0.0000  0.0000  0.0000  0.0000
  32. Cl 4 (pz)    -0.0032  0.0000  0.0000  0.0000  0.0000  0.0000  0.0000  0.0000
  33. Cl 4 (s)     -0.1789  0.0000  0.0001  0.0000  0.0000  0.0000  0.0091  0.0000
  34. Cl 4 (px)     0.1436  0.0000  0.0000  0.0000  0.0000  0.0000  0.0000  0.0029
  35. Cl 4 (py)    -0.1436  0.0000  0.0001  0.0000 -0.0001 -0.0001  0.0111  0.0000
  36. Cl 4 (pz)    -0.0289  0.0000  0.0001  0.0000 -0.0001 -0.0001  0.0111  0.0000
  37. Cl 5 (s)     -0.0032  0.0000  0.0000  0.0000  0.0000  0.0000  0.0000  0.0000
  38. Cl 5 (s)     -0.0242  0.0000  0.0000  0.0000  0.0000  0.0000  0.0001 -0.0001
  39. Cl 5 (px)    -0.0073  0.0000  0.0000  0.0000  0.0000  0.0000  0.0000 -0.0001
  40. Cl 5 (py)     0.0073  0.0000  0.0000  0.0000  0.0000  0.0000  0.0000  0.0000
  41. Cl 5 (pz)    -0.0032  0.0000  0.0000  0.0000  0.0000  0.0000  0.0000 -0.0001
  42. Cl 5 (s)     -0.1789  0.0000  0.0001  0.0000  0.0000  0.0000  0.0091 -0.0111
  43. Cl 5 (px)    -0.1436  0.0000  0.0001 -0.0001  0.0000 -0.0001  0.0111 -0.0115
  44. Cl 5 (py)     0.1436  0.0000  0.0000  0.0000  0.0000  0.0000  0.0000  0.0000
  45. Cl 5 (pz)    -0.0289  0.0000  0.0001 -0.0001  0.0000 -0.0001  0.0111 -0.0144

           AO         17      18      19      20      21      22      23      24
      ------------ ------- ------- ------- ------- ------- ------- ------- -------
   1. Si 1 (s)     -0.0022 -0.0022  0.0000  0.0000  0.0000  0.0000  0.0000  0.0020
   2. Si 1 (s)     -0.0203 -0.0203  0.0000  0.0000  0.0000  0.0000  0.0000  0.0195
   3. Si 1 (px)    -0.0097 -0.0097  0.0000  0.0000  0.0000  0.0000  0.0000 -0.0087
   4. Si 1 (py)    -0.0053 -0.0097  0.0000  0.0000  0.0000  0.0000  0.0000 -0.0087
   5. Si 1 (pz)    -0.0097 -0.0053  0.0000  0.0000  0.0000  0.0000  0.0000  0.0087
   6. Si 1 (s)     -0.1472 -0.1472  0.0032  0.0246  0.0064  0.0064 -0.0064  0.2281
   7. Si 1 (px)    -0.1436 -0.1436 -0.0032 -0.0242 -0.0032 -0.0073  0.0073 -0.1789
   8. Si 1 (py)    -0.0289 -0.1436 -0.0032 -0.0242 -0.0073 -0.0032  0.0073 -0.1789
   9. Si 1 (pz)    -0.1436 -0.0289  0.0032  0.0242  0.0073  0.0073 -0.0032  0.1789
  10. Cl 2 (s)      0.0000  0.0000  0.0000  0.0000  0.0000  0.0000  0.0000  0.0000
  11. Cl 2 (s)      0.0000  0.0000  0.0000  0.0000  0.0000  0.0000  0.0000  0.0001
  12. Cl 2 (px)     0.0000  0.0000  0.0000  0.0000  0.0000  0.0000  0.0000  0.0000
  13. Cl 2 (py)     0.2326  0.0000  0.0000  0.0000  0.0000  0.0000  0.0000  0.0000
  14. Cl 2 (pz)     0.0000  0.2326  0.0000  0.0000  0.0000  0.0000  0.0000  0.0000
  15. Cl 2 (s)      0.0000  0.0000  0.0000  0.0001  0.0000  0.0000  0.0000  0.0091
  16. Cl 2 (px)     0.0000  0.0000  0.0000 -0.0001 -0.0001 -0.0001  0.0000 -0.0111
  17. Cl 2 (py)     1.0000  0.0000  0.0000 -0.0001 -0.0001 -0.0001  0.0000 -0.0111
  18. Cl 2 (pz)     0.0000  1.0000  0.0000  0.0000  0.0000  0.0000  0.0000  0.0000
  19. Cl 3 (s)      0.0000  0.0000  1.0000  0.3438  0.0000  0.0000  0.0000  0.0133
  20. Cl 3 (s)     -0.0001  0.0000  0.3438  1.0000  0.0000  0.0000  0.0000  0.2185
  21. Cl 3 (px)    -0.0001  0.0000  0.0000  0.0000  1.0000  0.0000  0.0000  0.0000
  22. Cl 3 (py)    -0.0001  0.0000  0.0000  0.0000  0.0000  1.0000  0.0000  0.0000
  23. Cl 3 (pz)     0.0000  0.0000  0.0000  0.0000  0.0000  0.0000  1.0000  0.0000
  24. Cl 3 (s)     -0.0111  0.0000  0.0133  0.2185  0.0000  0.0000  0.0000  1.0000
  25. Cl 3 (px)    -0.0144  0.0000  0.0000  0.0000  0.2326  0.0000  0.0000  0.0000
  26. Cl 3 (py)    -0.0115  0.0000  0.0000  0.0000  0.0000  0.2326  0.0000  0.0000
  27. Cl 3 (pz)     0.0000  0.0029  0.0000  0.0000  0.0000  0.0000  0.2326  0.0000
  28. Cl 4 (s)      0.0000  0.0000  0.0000  0.0000  0.0000  0.0000  0.0000  0.0000
  29. Cl 4 (s)     -0.0001 -0.0001  0.0000  0.0000  0.0000  0.0000  0.0000  0.0001
  30. Cl 4 (px)     0.0000  0.0000  0.0000  0.0000  0.0000  0.0000  0.0000  0.0000
  31. Cl 4 (py)    -0.0001 -0.0001  0.0000  0.0000  0.0000  0.0000  0.0000  0.0000
  32. Cl 4 (pz)    -0.0001 -0.0001  0.0000  0.0000  0.0000  0.0000  0.0000  0.0000
  33. Cl 4 (s)     -0.0111 -0.0111  0.0000  0.0001  0.0000  0.0000  0.0000  0.0091
  34. Cl 4 (px)     0.0000  0.0000  0.0000 -0.0001 -0.0001  0.0000  0.0001 -0.0111
  35. Cl 4 (py)    -0.0115 -0.0144  0.0000  0.0000  0.0000  0.0000  0.0000  0.0000
  36. Cl 4 (pz)    -0.0144 -0.0115  0.0000  0.0001  0.0001  0.0000 -0.0001  0.0111
  37. Cl 5 (s)      0.0000  0.0000  0.0000  0.0000  0.0000  0.0000  0.0000  0.0000
  38. Cl 5 (s)      0.0000 -0.0001  0.0000  0.0000  0.0000  0.0000  0.0000  0.0001
  39. Cl 5 (px)     0.0000 -0.0001  0.0000  0.0000  0.0000  0.0000  0.0000  0.0000
  40. Cl 5 (py)     0.0000  0.0000  0.0000  0.0000  0.0000  0.0000  0.0000  0.0000
  41. Cl 5 (pz)     0.0000 -0.0001  0.0000  0.0000  0.0000  0.0000  0.0000  0.0000
  42. Cl 5 (s)      0.0000 -0.0111  0.0000  0.0001  0.0000  0.0000  0.0000  0.0091
  43. Cl 5 (px)     0.0000 -0.0144  0.0000  0.0000  0.0000  0.0000  0.0000  0.0000
  44. Cl 5 (py)     0.0029  0.0000  0.0000 -0.0001  0.0000 -0.0001  0.0001 -0.0111
  45. Cl 5 (pz)     0.0000 -0.0115  0.0000  0.0001  0.0000  0.0001 -0.0001  0.0111

           AO         25      26      27      28      29      30      31      32
      ------------ ------- ------- ------- ------- ------- ------- ------- -------
   1. Si 1 (s)      0.0022  0.0022 -0.0022  0.0000  0.0000  0.0000  0.0000  0.0000
   2. Si 1 (s)      0.0203  0.0203 -0.0203  0.0000  0.0000  0.0000  0.0000  0.0000
   3. Si 1 (px)    -0.0053 -0.0097  0.0097  0.0000  0.0000  0.0000  0.0000  0.0000
   4. Si 1 (py)    -0.0097 -0.0053  0.0097  0.0000  0.0000  0.0000  0.0000  0.0000
   5. Si 1 (pz)     0.0097  0.0097 -0.0053  0.0000  0.0000  0.0000  0.0000  0.0000
   6. Si 1 (s)      0.1472  0.1472 -0.1472  0.0032  0.0246 -0.0064  0.0064  0.0064
   7. Si 1 (px)    -0.0289 -0.1436  0.1436  0.0032  0.0242 -0.0032  0.0073  0.0073
   8. Si 1 (py)    -0.1436 -0.0289  0.1436 -0.0032 -0.0242  0.0073 -0.0032 -0.0073
   9. Si 1 (pz)     0.1436  0.1436 -0.0289 -0.0032 -0.0242  0.0073 -0.0073 -0.0032
  10. Cl 2 (s)      0.0000  0.0000  0.0000  0.0000  0.0000  0.0000  0.0000  0.0000
  11. Cl 2 (s)      0.0001  0.0001  0.0000  0.0000  0.0000  0.0000  0.0000  0.0000
  12. Cl 2 (px)    -0.0001 -0.0001  0.0000  0.0000  0.0000  0.0000  0.0000  0.0000
  13. Cl 2 (py)    -0.0001 -0.0001  0.0000  0.0000  0.0000  0.0000  0.0000  0.0000
  14. Cl 2 (pz)     0.0000  0.0000  0.0000  0.0000  0.0000  0.0000  0.0000  0.0000
  15. Cl 2 (s)      0.0111  0.0111  0.0000  0.0000  0.0001  0.0000  0.0000  0.0000
  16. Cl 2 (px)    -0.0115 -0.0144  0.0000  0.0000  0.0000  0.0000  0.0000  0.0000
  17. Cl 2 (py)    -0.0144 -0.0115  0.0000  0.0000 -0.0001  0.0000 -0.0001 -0.0001
  18. Cl 2 (pz)     0.0000  0.0000  0.0029  0.0000 -0.0001  0.0000 -0.0001 -0.0001
  19. Cl 3 (s)      0.0000  0.0000  0.0000  0.0000  0.0000  0.0000  0.0000  0.0000
  20. Cl 3 (s)      0.0000  0.0000  0.0000  0.0000  0.0000  0.0000  0.0000  0.0000
  21. Cl 3 (px)     0.2326  0.0000  0.0000  0.0000  0.0000  0.0000  0.0000  0.0000
  22. Cl 3 (py)     0.0000  0.2326  0.0000  0.0000  0.0000  0.0000  0.0000  0.0000
  23. Cl 3 (pz)     0.0000  0.0000  0.2326  0.0000  0.0000  0.0000  0.0000  0.0000
  24. Cl 3 (s)      0.0000  0.0000  0.0000  0.0000  0.0001  0.0000  0.0000  0.0000
  25. Cl 3 (px)     1.0000  0.0000  0.0000  0.0000  0.0001 -0.0001  0.0000  0.0001
  26. Cl 3 (py)     0.0000  1.0000  0.0000  0.0000  0.0000  0.0000  0.0000  0.0000
  27. Cl 3 (pz)     0.0000  0.0000  1.0000  0.0000 -0.0001  0.0001  0.0000 -0.0001
  28. Cl 4 (s)      0.0000  0.0000  0.0000  1.0000  0.3438  0.0000  0.0000  0.0000
  29. Cl 4 (s)      0.0001  0.0000 -0.0001  0.3438  1.0000  0.0000  0.0000  0.0000
  30. Cl 4 (px)    -0.0001  0.0000  0.0001  0.0000  0.0000  1.0000  0.0000  0.0000
  31. Cl 4 (py)     0.0000  0.0000  0.0000  0.0000  0.0000  0.0000  1.0000  0.0000
  32. Cl 4 (pz)     0.0001  0.0000 -0.0001  0.0000  0.0000  0.0000  0.0000  1.0000
  33. Cl 4 (s)      0.0111  0.0000 -0.0111  0.0133  0.2185  0.0000  0.0000  0.0000
  34. Cl 4 (px)    -0.0115  0.0000  0.0144  0.0000  0.0000  0.2326  0.0000  0.0000
  35. Cl 4 (py)     0.0000  0.0029  0.0000  0.0000  0.0000  0.0000  0.2326  0.0000
  36. Cl 4 (pz)     0.0144  0.0000 -0.0115  0.0000  0.0000  0.0000  0.0000  0.2326
  37. Cl 5 (s)      0.0000  0.0000  0.0000  0.0000  0.0000  0.0000  0.0000  0.0000
  38. Cl 5 (s)      0.0000  0.0001 -0.0001  0.0000  0.0000  0.0000  0.0000  0.0000
  39. Cl 5 (px)     0.0000  0.0000  0.0000  0.0000  0.0000  0.0000  0.0000  0.0000
  40. Cl 5 (py)     0.0000 -0.0001  0.0001  0.0000  0.0000  0.0000  0.0000  0.0000
  41. Cl 5 (pz)     0.0000  0.0001 -0.0001  0.0000  0.0000  0.0000  0.0000  0.0000
  42. Cl 5 (s)      0.0000  0.0111 -0.0111  0.0000  0.0001  0.0000  0.0000  0.0000
  43. Cl 5 (px)     0.0029  0.0000  0.0000  0.0000  0.0001 -0.0001  0.0001  0.0000
  44. Cl 5 (py)     0.0000 -0.0115  0.0144  0.0000 -0.0001  0.0001 -0.0001  0.0000
  45. Cl 5 (pz)     0.0000  0.0144 -0.0115  0.0000  0.0000  0.0000  0.0000  0.0000

           AO         33      34      35      36      37      38      39      40
      ------------ ------- ------- ------- ------- ------- ------- ------- -------
   1. Si 1 (s)      0.0020 -0.0022  0.0022  0.0022  0.0000  0.0000  0.0000  0.0000
   2. Si 1 (s)      0.0195 -0.0203  0.0203  0.0203  0.0000  0.0000  0.0000  0.0000
   3. Si 1 (px)     0.0087 -0.0053  0.0097  0.0097  0.0000  0.0000  0.0000  0.0000
   4. Si 1 (py)    -0.0087  0.0097 -0.0053 -0.0097  0.0000  0.0000  0.0000  0.0000
   5. Si 1 (pz)    -0.0087  0.0097 -0.0097 -0.0053  0.0000  0.0000  0.0000  0.0000
   6. Si 1 (s)      0.2281 -0.1472  0.1472  0.1472  0.0032  0.0246  0.0064 -0.0064
   7. Si 1 (px)     0.1789 -0.0289  0.1436  0.1436 -0.0032 -0.0242 -0.0032  0.0073
   8. Si 1 (py)    -0.1789  0.1436 -0.0289 -0.1436  0.0032  0.0242  0.0073 -0.0032
   9. Si 1 (pz)    -0.1789  0.1436 -0.1436 -0.0289 -0.0032 -0.0242 -0.0073  0.0073
  10. Cl 2 (s)      0.0000  0.0000  0.0000  0.0000  0.0000  0.0000  0.0000  0.0000
  11. Cl 2 (s)      0.0001  0.0000  0.0001  0.0001  0.0000  0.0000  0.0000  0.0000
  12. Cl 2 (px)     0.0000  0.0000  0.0000  0.0000  0.0000  0.0000  0.0000  0.0000
  13. Cl 2 (py)     0.0000  0.0000 -0.0001 -0.0001  0.0000  0.0000  0.0000  0.0000
  14. Cl 2 (pz)     0.0000  0.0000 -0.0001 -0.0001  0.0000  0.0000  0.0000  0.0000
  15. Cl 2 (s)      0.0091  0.0000  0.0111  0.0111  0.0000  0.0001  0.0000  0.0000
  16. Cl 2 (px)     0.0000  0.0029  0.0000  0.0000  0.0000 -0.0001 -0.0001  0.0000
  17. Cl 2 (py)    -0.0111  0.0000 -0.0115 -0.0144  0.0000  0.0000  0.0000  0.0000
  18. Cl 2 (pz)    -0.0111  0.0000 -0.0144 -0.0115  0.0000 -0.0001 -0.0001  0.0000
  19. Cl 3 (s)      0.0000  0.0000  0.0000  0.0000  0.0000  0.0000  0.0000  0.0000
  20. Cl 3 (s)      0.0001 -0.0001  0.0000  0.0001  0.0000  0.0000  0.0000  0.0000
  21. Cl 3 (px)     0.0000 -0.0001  0.0000  0.0001  0.0000  0.0000  0.0000  0.0000
  22. Cl 3 (py)     0.0000  0.0000  0.0000  0.0000  0.0000  0.0000  0.0000  0.0000
  23. Cl 3 (pz)     0.0000  0.0001  0.0000 -0.0001  0.0000  0.0000  0.0000  0.0000
  24. Cl 3 (s)      0.0091 -0.0111  0.0000  0.0111  0.0000  0.0001  0.0000  0.0000
  25. Cl 3 (px)     0.0111 -0.0115  0.0000  0.0144  0.0000  0.0000  0.0000  0.0000
  26. Cl 3 (py)     0.0000  0.0000  0.0029  0.0000  0.0000  0.0001  0.0000 -0.0001
  27. Cl 3 (pz)    -0.0111  0.0144  0.0000 -0.0115  0.0000 -0.0001  0.0000  0.0001
  28. Cl 4 (s)      0.0133  0.0000  0.0000  0.0000  0.0000  0.0000  0.0000  0.0000
  29. Cl 4 (s)      0.2185  0.0000  0.0000  0.0000  0.0000  0.0000  0.0000  0.0000
  30. Cl 4 (px)     0.0000  0.2326  0.0000  0.0000  0.0000  0.0000  0.0000  0.0000
  31. Cl 4 (py)     0.0000  0.0000  0.2326  0.0000  0.0000  0.0000  0.0000  0.0000
  32. Cl 4 (pz)     0.0000  0.0000  0.0000  0.2326  0.0000  0.0000  0.0000  0.0000
  33. Cl 4 (s)      1.0000  0.0000  0.0000  0.0000  0.0000  0.0001  0.0000  0.0000
  34. Cl 4 (px)     0.0000  1.0000  0.0000  0.0000  0.0000 -0.0001 -0.0001  0.0001
  35. Cl 4 (py)     0.0000  0.0000  1.0000  0.0000  0.0000  0.0001  0.0001 -0.0001
  36. Cl 4 (pz)     0.0000  0.0000  0.0000  1.0000  0.0000  0.0000  0.0000  0.0000
  37. Cl 5 (s)      0.0000  0.0000  0.0000  0.0000  1.0000  0.3438  0.0000  0.0000
  38. Cl 5 (s)      0.0001 -0.0001  0.0001  0.0000  0.3438  1.0000  0.0000  0.0000
  39. Cl 5 (px)     0.0000 -0.0001  0.0001  0.0000  0.0000  0.0000  1.0000  0.0000
  40. Cl 5 (py)     0.0000  0.0001 -0.0001  0.0000  0.0000  0.0000  0.0000  1.0000
  41. Cl 5 (pz)     0.0000  0.0000  0.0000  0.0000  0.0000  0.0000  0.0000  0.0000
  42. Cl 5 (s)      0.0091 -0.0111  0.0111  0.0000  0.0133  0.2185  0.0000  0.0000
  43. Cl 5 (px)     0.0111 -0.0115  0.0144  0.0000  0.0000  0.0000  0.2326  0.0000
  44. Cl 5 (py)    -0.0111  0.0144 -0.0115  0.0000  0.0000  0.0000  0.0000  0.2326
  45. Cl 5 (pz)     0.0000  0.0000  0.0000  0.0029  0.0000  0.0000  0.0000  0.0000

           AO         41      42      43      44      45
      ------------ ------- ------- ------- ------- -------
   1. Si 1 (s)      0.0000  0.0020  0.0022 -0.0022  0.0022
   2. Si 1 (s)      0.0000  0.0195  0.0203 -0.0203  0.0203
   3. Si 1 (px)     0.0000 -0.0087 -0.0053  0.0097 -0.0097
   4. Si 1 (py)     0.0000  0.0087  0.0097 -0.0053  0.0097
   5. Si 1 (pz)     0.0000 -0.0087 -0.0097  0.0097 -0.0053
   6. Si 1 (s)      0.0064  0.2281  0.1472 -0.1472  0.1472
   7. Si 1 (px)    -0.0073 -0.1789 -0.0289  0.1436 -0.1436
   8. Si 1 (py)     0.0073  0.1789  0.1436 -0.0289  0.1436
   9. Si 1 (pz)    -0.0032 -0.1789 -0.1436  0.1436 -0.0289
  10. Cl 2 (s)      0.0000  0.0000  0.0000  0.0000  0.0000
  11. Cl 2 (s)      0.0000  0.0001  0.0001  0.0000  0.0001
  12. Cl 2 (px)     0.0000  0.0000 -0.0001  0.0000 -0.0001
  13. Cl 2 (py)     0.0000  0.0000  0.0000  0.0000  0.0000
  14. Cl 2 (pz)     0.0000  0.0000 -0.0001  0.0000 -0.0001
  15. Cl 2 (s)      0.0000  0.0091  0.0111  0.0000  0.0111
  16. Cl 2 (px)    -0.0001 -0.0111 -0.0115  0.0000 -0.0144
  17. Cl 2 (py)     0.0000  0.0000  0.0000  0.0029  0.0000
  18. Cl 2 (pz)    -0.0001 -0.0111 -0.0144  0.0000 -0.0115
  19. Cl 3 (s)      0.0000  0.0000  0.0000  0.0000  0.0000
  20. Cl 3 (s)      0.0000  0.0001  0.0000 -0.0001  0.0001
  21. Cl 3 (px)     0.0000  0.0000  0.0000  0.0000  0.0000
  22. Cl 3 (py)     0.0000  0.0000  0.0000 -0.0001  0.0001
  23. Cl 3 (pz)     0.0000  0.0000  0.0000  0.0001 -0.0001
  24. Cl 3 (s)      0.0000  0.0091  0.0000 -0.0111  0.0111
  25. Cl 3 (px)     0.0000  0.0000  0.0029  0.0000  0.0000
  26. Cl 3 (py)     0.0001  0.0111  0.0000 -0.0115  0.0144
  27. Cl 3 (pz)    -0.0001 -0.0111  0.0000  0.0144 -0.0115
  28. Cl 4 (s)      0.0000  0.0000  0.0000  0.0000  0.0000
  29. Cl 4 (s)      0.0000  0.0001  0.0001 -0.0001  0.0000
  30. Cl 4 (px)     0.0000  0.0000 -0.0001  0.0001  0.0000
  31. Cl 4 (py)     0.0000  0.0000  0.0001 -0.0001  0.0000
  32. Cl 4 (pz)     0.0000  0.0000  0.0000  0.0000  0.0000
  33. Cl 4 (s)      0.0000  0.0091  0.0111 -0.0111  0.0000
  34. Cl 4 (px)     0.0000 -0.0111 -0.0115  0.0144  0.0000
  35. Cl 4 (py)     0.0000  0.0111  0.0144 -0.0115  0.0000
  36. Cl 4 (pz)     0.0000  0.0000  0.0000  0.0000  0.0029
  37. Cl 5 (s)      0.0000  0.0133  0.0000  0.0000  0.0000
  38. Cl 5 (s)      0.0000  0.2185  0.0000  0.0000  0.0000
  39. Cl 5 (px)     0.0000  0.0000  0.2326  0.0000  0.0000
  40. Cl 5 (py)     0.0000  0.0000  0.0000  0.2326  0.0000
  41. Cl 5 (pz)     1.0000  0.0000  0.0000  0.0000  0.2326
  42. Cl 5 (s)      0.0000  1.0000  0.0000  0.0000  0.0000
  43. Cl 5 (px)     0.0000  0.0000  1.0000  0.0000  0.0000
  44. Cl 5 (py)     0.0000  0.0000  0.0000  1.0000  0.0000
  45. Cl 5 (pz)     0.2326  0.0000  0.0000  0.0000  1.0000


 AO bond-order matrix:

           AO          1       2       3       4       5       6       7       8
      ------------ ------- ------- ------- ------- ------- ------- ------- -------
   1. Si 1 (s)      2.2224 -0.7133  0.0000  0.0000  0.0000  0.0524  0.0000  0.0000
   2. Si 1 (s)     -0.7133  2.2919  0.0000  0.0000  0.0000 -0.2431  0.0000  0.0000
   3. Si 1 (px)     0.0000  0.0000  1.9690  0.0000  0.0000  0.0000  0.0102  0.0000
   4. Si 1 (py)     0.0000  0.0000  0.0000  1.9690  0.0000  0.0000  0.0000  0.0102
   5. Si 1 (pz)     0.0000  0.0000  0.0000  0.0000  1.9690  0.0000  0.0000  0.0000
   6. Si 1 (s)      0.0524 -0.2431  0.0000  0.0000  0.0000  1.0058  0.0000  0.0000
   7. Si 1 (px)     0.0000  0.0000  0.0102  0.0000  0.0000  0.0000  0.3874  0.0000
   8. Si 1 (py)     0.0000  0.0000  0.0000  0.0102  0.0000  0.0000  0.0000  0.3874
   9. Si 1 (pz)     0.0000  0.0000  0.0000  0.0000  0.0102  0.0000  0.0000  0.0000
  10. Cl 2 (s)      0.0005 -0.0019 -0.0030 -0.0030 -0.0030 -0.0035  0.0029  0.0029
  11. Cl 2 (s)     -0.0018  0.0068  0.0092  0.0092  0.0092  0.0111 -0.0084 -0.0084
  12. Cl 2 (px)     0.0077 -0.0266 -0.0097 -0.0301 -0.0301  0.0793  0.0212  0.0766
  13. Cl 2 (py)     0.0077 -0.0266 -0.0301 -0.0097 -0.0301  0.0793  0.0766  0.0212
  14. Cl 2 (pz)     0.0077 -0.0266 -0.0301 -0.0301 -0.0097  0.0793  0.0766  0.0766
  15. Cl 2 (s)     -0.0022  0.0111 -0.0270 -0.0270 -0.0270 -0.2120 -0.0491 -0.0491
  16. Cl 2 (px)    -0.0250  0.0863  0.0358  0.1054  0.1054 -0.2149 -0.0645 -0.2324
  17. Cl 2 (py)    -0.0250  0.0863  0.1054  0.0358  0.1054 -0.2149 -0.2324 -0.0645
  18. Cl 2 (pz)    -0.0250  0.0863  0.1054  0.1054  0.0358 -0.2149 -0.2324 -0.2324
  19. Cl 3 (s)      0.0005 -0.0019  0.0030  0.0030 -0.0030 -0.0035 -0.0029 -0.0029
  20. Cl 3 (s)     -0.0018  0.0068 -0.0092 -0.0092  0.0092  0.0111  0.0084  0.0084
  21. Cl 3 (px)    -0.0077  0.0266 -0.0097 -0.0301  0.0301 -0.0793  0.0212  0.0766
  22. Cl 3 (py)    -0.0077  0.0266 -0.0301 -0.0097  0.0301 -0.0793  0.0766  0.0212
  23. Cl 3 (pz)     0.0077 -0.0266  0.0301  0.0301 -0.0097  0.0793 -0.0766 -0.0766
  24. Cl 3 (s)     -0.0022  0.0111  0.0270  0.0270 -0.0270 -0.2120  0.0491  0.0491
  25. Cl 3 (px)     0.0250 -0.0863  0.0358  0.1054 -0.1054  0.2149 -0.0645 -0.2324
  26. Cl 3 (py)     0.0250 -0.0863  0.1054  0.0358 -0.1054  0.2149 -0.2324 -0.0645
  27. Cl 3 (pz)    -0.0250  0.0863 -0.1054 -0.1054  0.0358 -0.2149  0.2324  0.2324
  28. Cl 4 (s)      0.0005 -0.0019 -0.0030  0.0030  0.0030 -0.0035  0.0029 -0.0029
  29. Cl 4 (s)     -0.0018  0.0068  0.0092 -0.0092 -0.0092  0.0111 -0.0084  0.0084
  30. Cl 4 (px)     0.0077 -0.0266 -0.0097  0.0301  0.0301  0.0793  0.0212 -0.0766
  31. Cl 4 (py)    -0.0077  0.0266  0.0301 -0.0097 -0.0301 -0.0793 -0.0766  0.0212
  32. Cl 4 (pz)    -0.0077  0.0266  0.0301 -0.0301 -0.0097 -0.0793 -0.0766  0.0766
  33. Cl 4 (s)     -0.0022  0.0111 -0.0270  0.0270  0.0270 -0.2120 -0.0491  0.0491
  34. Cl 4 (px)    -0.0250  0.0863  0.0358 -0.1054 -0.1054 -0.2149 -0.0645  0.2324
  35. Cl 4 (py)     0.0250 -0.0863 -0.1054  0.0358  0.1054  0.2149  0.2324 -0.0645
  36. Cl 4 (pz)     0.0250 -0.0863 -0.1054  0.1054  0.0358  0.2149  0.2324 -0.2324
  37. Cl 5 (s)      0.0005 -0.0019  0.0030 -0.0030  0.0030 -0.0035 -0.0029  0.0029
  38. Cl 5 (s)     -0.0018  0.0068 -0.0092  0.0092 -0.0092  0.0111  0.0084 -0.0084
  39. Cl 5 (px)    -0.0077  0.0266 -0.0097  0.0301 -0.0301 -0.0793  0.0212 -0.0766
  40. Cl 5 (py)     0.0077 -0.0266  0.0301 -0.0097  0.0301  0.0793 -0.0766  0.0212
  41. Cl 5 (pz)    -0.0077  0.0266 -0.0301  0.0301 -0.0097 -0.0793  0.0766 -0.0766
  42. Cl 5 (s)     -0.0022  0.0111  0.0270 -0.0270  0.0270 -0.2120  0.0491 -0.0491
  43. Cl 5 (px)     0.0250 -0.0863  0.0358 -0.1054  0.1054  0.2149 -0.0645  0.2324
  44. Cl 5 (py)    -0.0250  0.0863 -0.1054  0.0358 -0.1054 -0.2149  0.2324 -0.0645
  45. Cl 5 (pz)     0.0250 -0.0863  0.1054 -0.1054  0.0358  0.2149 -0.2324  0.2324

           AO          9      10      11      12      13      14      15      16
      ------------ ------- ------- ------- ------- ------- ------- ------- -------
   1. Si 1 (s)      0.0000  0.0005 -0.0018  0.0077  0.0077  0.0077 -0.0022 -0.0250
   2. Si 1 (s)      0.0000 -0.0019  0.0068 -0.0266 -0.0266 -0.0266  0.0111  0.0863
   3. Si 1 (px)     0.0000 -0.0030  0.0092 -0.0097 -0.0301 -0.0301 -0.0270  0.0358
   4. Si 1 (py)     0.0000 -0.0030  0.0092 -0.0301 -0.0097 -0.0301 -0.0270  0.1054
   5. Si 1 (pz)     0.0102 -0.0030  0.0092 -0.0301 -0.0301 -0.0097 -0.0270  0.1054
   6. Si 1 (s)      0.0000 -0.0035  0.0111  0.0793  0.0793  0.0793 -0.2120 -0.2149
   7. Si 1 (px)     0.0000  0.0029 -0.0084  0.0212  0.0766  0.0766 -0.0491 -0.0645
   8. Si 1 (py)     0.0000  0.0029 -0.0084  0.0766  0.0212  0.0766 -0.0491 -0.2324
   9. Si 1 (pz)     0.3874  0.0029 -0.0084  0.0766  0.0766  0.0212 -0.0491 -0.2324
  10. Cl 2 (s)      0.0029  2.2782 -0.8151 -0.0030 -0.0030 -0.0030  0.1467  0.0101
  11. Cl 2 (s)     -0.0084 -0.8151  2.3907  0.0079  0.0079  0.0079 -0.5088 -0.0269
  12. Cl 2 (px)     0.0766 -0.0030  0.0079  2.0914 -0.0190 -0.0190 -0.0513 -0.4021
  13. Cl 2 (py)     0.0766 -0.0030  0.0079 -0.0190  2.0914 -0.0190 -0.0513  0.0746
  14. Cl 2 (pz)     0.0212 -0.0030  0.0079 -0.0190 -0.0190  2.0914 -0.0513  0.0746
  15. Cl 2 (s)     -0.0491  0.1467 -0.5088 -0.0513 -0.0513 -0.0513  2.1725  0.1533
  16. Cl 2 (px)    -0.2324  0.0101 -0.0269 -0.4021  0.0746  0.0746  0.1533  1.7772
  17. Cl 2 (py)    -0.2324  0.0101 -0.0269  0.0746 -0.4021  0.0746  0.1533 -0.2816
  18. Cl 2 (pz)    -0.0645  0.0101 -0.0269  0.0746  0.0746 -0.4021  0.1533 -0.2816
  19. Cl 3 (s)      0.0029  0.0000  0.0002 -0.0012 -0.0012  0.0005  0.0002  0.0042
  20. Cl 3 (s)     -0.0084  0.0002 -0.0007  0.0036  0.0036 -0.0011  0.0001 -0.0124
  21. Cl 3 (px)    -0.0766  0.0012 -0.0036  0.0093  0.0136  0.0013  0.0184 -0.0362
  22. Cl 3 (py)    -0.0766  0.0012 -0.0036  0.0136  0.0093  0.0013  0.0184 -0.0528
  23. Cl 3 (pz)     0.0212  0.0005 -0.0011 -0.0013 -0.0013  0.0050  0.0095  0.0038
  24. Cl 3 (s)     -0.0491  0.0002  0.0001 -0.0184 -0.0184  0.0095  0.0211  0.0571
  25. Cl 3 (px)     0.2324 -0.0042  0.0124 -0.0362 -0.0528 -0.0038 -0.0571  0.1372
  26. Cl 3 (py)     0.2324 -0.0042  0.0124 -0.0528 -0.0362 -0.0038 -0.0571  0.1999
  27. Cl 3 (pz)    -0.0645 -0.0019  0.0051  0.0045  0.0045 -0.0205 -0.0373 -0.0124
  28. Cl 4 (s)     -0.0029  0.0000  0.0002  0.0005 -0.0012 -0.0012  0.0002 -0.0019
  29. Cl 4 (s)      0.0084  0.0002 -0.0007 -0.0011  0.0036  0.0036  0.0001  0.0051
  30. Cl 4 (px)    -0.0766  0.0005 -0.0011  0.0050 -0.0013 -0.0013  0.0095 -0.0205
  31. Cl 4 (py)     0.0766  0.0012 -0.0036  0.0013  0.0093  0.0136  0.0184 -0.0045
  32. Cl 4 (pz)     0.0212  0.0012 -0.0036  0.0013  0.0136  0.0093  0.0184 -0.0045
  33. Cl 4 (s)      0.0491  0.0002  0.0001  0.0095 -0.0184 -0.0184  0.0211 -0.0373
  34. Cl 4 (px)     0.2324 -0.0019  0.0051 -0.0205  0.0045  0.0045 -0.0373  0.0802
  35. Cl 4 (py)    -0.2324 -0.0042  0.0124 -0.0038 -0.0362 -0.0528 -0.0571  0.0124
  36. Cl 4 (pz)    -0.0645 -0.0042  0.0124 -0.0038 -0.0528 -0.0362 -0.0571  0.0124
  37. Cl 5 (s)     -0.0029  0.0000  0.0002 -0.0012  0.0005 -0.0012  0.0002  0.0042
  38. Cl 5 (s)      0.0084  0.0002 -0.0007  0.0036 -0.0011  0.0036  0.0001 -0.0124
  39. Cl 5 (px)     0.0766  0.0012 -0.0036  0.0093  0.0013  0.0136  0.0184 -0.0362
  40. Cl 5 (py)    -0.0766  0.0005 -0.0011 -0.0013  0.0050 -0.0013  0.0095  0.0038
  41. Cl 5 (pz)     0.0212  0.0012 -0.0036  0.0136  0.0013  0.0093  0.0184 -0.0528
  42. Cl 5 (s)      0.0491  0.0002  0.0001 -0.0184  0.0095 -0.0184  0.0211  0.0571
  43. Cl 5 (px)    -0.2324 -0.0042  0.0124 -0.0362 -0.0038 -0.0528 -0.0571  0.1372
  44. Cl 5 (py)     0.2324 -0.0019  0.0051  0.0045 -0.0205  0.0045 -0.0373 -0.0124
  45. Cl 5 (pz)    -0.0645 -0.0042  0.0124 -0.0528 -0.0038 -0.0362 -0.0571  0.1999

           AO         17      18      19      20      21      22      23      24
      ------------ ------- ------- ------- ------- ------- ------- ------- -------
   1. Si 1 (s)     -0.0250 -0.0250  0.0005 -0.0018 -0.0077 -0.0077  0.0077 -0.0022
   2. Si 1 (s)      0.0863  0.0863 -0.0019  0.0068  0.0266  0.0266 -0.0266  0.0111
   3. Si 1 (px)     0.1054  0.1054  0.0030 -0.0092 -0.0097 -0.0301  0.0301  0.0270
   4. Si 1 (py)     0.0358  0.1054  0.0030 -0.0092 -0.0301 -0.0097  0.0301  0.0270
   5. Si 1 (pz)     0.1054  0.0358 -0.0030  0.0092  0.0301  0.0301 -0.0097 -0.0270
   6. Si 1 (s)     -0.2149 -0.2149 -0.0035  0.0111 -0.0793 -0.0793  0.0793 -0.2120
   7. Si 1 (px)    -0.2324 -0.2324 -0.0029  0.0084  0.0212  0.0766 -0.0766  0.0491
   8. Si 1 (py)    -0.0645 -0.2324 -0.0029  0.0084  0.0766  0.0212 -0.0766  0.0491
   9. Si 1 (pz)    -0.2324 -0.0645  0.0029 -0.0084 -0.0766 -0.0766  0.0212 -0.0491
  10. Cl 2 (s)      0.0101  0.0101  0.0000  0.0002  0.0012  0.0012  0.0005  0.0002
  11. Cl 2 (s)     -0.0269 -0.0269  0.0002 -0.0007 -0.0036 -0.0036 -0.0011  0.0001
  12. Cl 2 (px)     0.0746  0.0746 -0.0012  0.0036  0.0093  0.0136 -0.0013 -0.0184
  13. Cl 2 (py)    -0.4021  0.0746 -0.0012  0.0036  0.0136  0.0093 -0.0013 -0.0184
  14. Cl 2 (pz)     0.0746 -0.4021  0.0005 -0.0011  0.0013  0.0013  0.0050  0.0095
  15. Cl 2 (s)      0.1533  0.1533  0.0002  0.0001  0.0184  0.0184  0.0095  0.0211
  16. Cl 2 (px)    -0.2816 -0.2816  0.0042 -0.0124 -0.0362 -0.0528  0.0038  0.0571
  17. Cl 2 (py)     1.7772 -0.2816  0.0042 -0.0124 -0.0528 -0.0362  0.0038  0.0571
  18. Cl 2 (pz)    -0.2816  1.7772 -0.0019  0.0051 -0.0045 -0.0045 -0.0205 -0.0373
  19. Cl 3 (s)      0.0042 -0.0019  2.2782 -0.8151  0.0030  0.0030 -0.0030  0.1467
  20. Cl 3 (s)     -0.0124  0.0051 -0.8151  2.3907 -0.0079 -0.0079  0.0079 -0.5088
  21. Cl 3 (px)    -0.0528 -0.0045  0.0030 -0.0079  2.0914 -0.0190  0.0190  0.0513
  22. Cl 3 (py)    -0.0362 -0.0045  0.0030 -0.0079 -0.0190  2.0914  0.0190  0.0513
  23. Cl 3 (pz)     0.0038 -0.0205 -0.0030  0.0079  0.0190  0.0190  2.0914 -0.0513
  24. Cl 3 (s)      0.0571 -0.0373  0.1467 -0.5088  0.0513  0.0513 -0.0513  2.1725
  25. Cl 3 (px)     0.1999  0.0124 -0.0101  0.0269 -0.4021  0.0746 -0.0746 -0.1533
  26. Cl 3 (py)     0.1372  0.0124 -0.0101  0.0269  0.0746 -0.4021 -0.0746 -0.1533
  27. Cl 3 (pz)    -0.0124  0.0802  0.0101 -0.0269 -0.0746 -0.0746 -0.4021  0.1533
  28. Cl 4 (s)      0.0042  0.0042  0.0000  0.0002  0.0012 -0.0005 -0.0012  0.0002
  29. Cl 4 (s)     -0.0124 -0.0124  0.0002 -0.0007 -0.0036  0.0011  0.0036  0.0001
  30. Cl 4 (px)     0.0038  0.0038 -0.0012  0.0036  0.0093  0.0013 -0.0136 -0.0184
  31. Cl 4 (py)    -0.0362 -0.0528 -0.0005  0.0011 -0.0013  0.0050  0.0013 -0.0095
  32. Cl 4 (pz)    -0.0528 -0.0362  0.0012 -0.0036 -0.0136 -0.0013  0.0093  0.0184
  33. Cl 4 (s)      0.0571  0.0571  0.0002  0.0001  0.0184 -0.0095 -0.0184  0.0211
  34. Cl 4 (px)    -0.0124 -0.0124  0.0042 -0.0124 -0.0362 -0.0038  0.0528  0.0571
  35. Cl 4 (py)     0.1372  0.1999  0.0019 -0.0051  0.0045 -0.0205 -0.0045  0.0373
  36. Cl 4 (pz)     0.1999  0.1372 -0.0042  0.0124  0.0528  0.0038 -0.0362 -0.0571
  37. Cl 5 (s)     -0.0019  0.0042  0.0000  0.0002 -0.0005  0.0012 -0.0012  0.0002
  38. Cl 5 (s)      0.0051 -0.0124  0.0002 -0.0007  0.0011 -0.0036  0.0036  0.0001
  39. Cl 5 (px)    -0.0045 -0.0528 -0.0005  0.0011  0.0050 -0.0013  0.0013 -0.0095
  40. Cl 5 (py)    -0.0205  0.0038 -0.0012  0.0036  0.0013  0.0093 -0.0136 -0.0184
  41. Cl 5 (pz)    -0.0045 -0.0362  0.0012 -0.0036 -0.0013 -0.0136  0.0093  0.0184
  42. Cl 5 (s)     -0.0373  0.0571  0.0002  0.0001 -0.0095  0.0184 -0.0184  0.0211
  43. Cl 5 (px)     0.0124  0.1999  0.0019 -0.0051 -0.0205  0.0045 -0.0045  0.0373
  44. Cl 5 (py)     0.0802 -0.0124  0.0042 -0.0124 -0.0038 -0.0362  0.0528  0.0571
  45. Cl 5 (pz)     0.0124  0.1372 -0.0042  0.0124  0.0038  0.0528 -0.0362 -0.0571

           AO         25      26      27      28      29      30      31      32
      ------------ ------- ------- ------- ------- ------- ------- ------- -------
   1. Si 1 (s)      0.0250  0.0250 -0.0250  0.0005 -0.0018  0.0077 -0.0077 -0.0077
   2. Si 1 (s)     -0.0863 -0.0863  0.0863 -0.0019  0.0068 -0.0266  0.0266  0.0266
   3. Si 1 (px)     0.0358  0.1054 -0.1054 -0.0030  0.0092 -0.0097  0.0301  0.0301
   4. Si 1 (py)     0.1054  0.0358 -0.1054  0.0030 -0.0092  0.0301 -0.0097 -0.0301
   5. Si 1 (pz)    -0.1054 -0.1054  0.0358  0.0030 -0.0092  0.0301 -0.0301 -0.0097
   6. Si 1 (s)      0.2149  0.2149 -0.2149 -0.0035  0.0111  0.0793 -0.0793 -0.0793
   7. Si 1 (px)    -0.0645 -0.2324  0.2324  0.0029 -0.0084  0.0212 -0.0766 -0.0766
   8. Si 1 (py)    -0.2324 -0.0645  0.2324 -0.0029  0.0084 -0.0766  0.0212  0.0766
   9. Si 1 (pz)     0.2324  0.2324 -0.0645 -0.0029  0.0084 -0.0766  0.0766  0.0212
  10. Cl 2 (s)     -0.0042 -0.0042 -0.0019  0.0000  0.0002  0.0005  0.0012  0.0012
  11. Cl 2 (s)      0.0124  0.0124  0.0051  0.0002 -0.0007 -0.0011 -0.0036 -0.0036
  12. Cl 2 (px)    -0.0362 -0.0528  0.0045  0.0005 -0.0011  0.0050  0.0013  0.0013
  13. Cl 2 (py)    -0.0528 -0.0362  0.0045 -0.0012  0.0036 -0.0013  0.0093  0.0136
  14. Cl 2 (pz)    -0.0038 -0.0038 -0.0205 -0.0012  0.0036 -0.0013  0.0136  0.0093
  15. Cl 2 (s)     -0.0571 -0.0571 -0.0373  0.0002  0.0001  0.0095  0.0184  0.0184
  16. Cl 2 (px)     0.1372  0.1999 -0.0124 -0.0019  0.0051 -0.0205 -0.0045 -0.0045
  17. Cl 2 (py)     0.1999  0.1372 -0.0124  0.0042 -0.0124  0.0038 -0.0362 -0.0528
  18. Cl 2 (pz)     0.0124  0.0124  0.0802  0.0042 -0.0124  0.0038 -0.0528 -0.0362
  19. Cl 3 (s)     -0.0101 -0.0101  0.0101  0.0000  0.0002 -0.0012 -0.0005  0.0012
  20. Cl 3 (s)      0.0269  0.0269 -0.0269  0.0002 -0.0007  0.0036  0.0011 -0.0036
  21. Cl 3 (px)    -0.4021  0.0746 -0.0746  0.0012 -0.0036  0.0093 -0.0013 -0.0136
  22. Cl 3 (py)     0.0746 -0.4021 -0.0746 -0.0005  0.0011  0.0013  0.0050 -0.0013
  23. Cl 3 (pz)    -0.0746 -0.0746 -0.4021 -0.0012  0.0036 -0.0136  0.0013  0.0093
  24. Cl 3 (s)     -0.1533 -0.1533  0.1533  0.0002  0.0001 -0.0184 -0.0095  0.0184
  25. Cl 3 (px)     1.7772 -0.2816  0.2816 -0.0042  0.0124 -0.0362  0.0038  0.0528
  26. Cl 3 (py)    -0.2816  1.7772  0.2816  0.0019 -0.0051 -0.0045 -0.0205  0.0045
  27. Cl 3 (pz)     0.2816  0.2816  1.7772  0.0042 -0.0124  0.0528 -0.0038 -0.0362
  28. Cl 4 (s)     -0.0042  0.0019  0.0042  2.2782 -0.8151 -0.0030  0.0030  0.0030
  29. Cl 4 (s)      0.0124 -0.0051 -0.0124 -0.8151  2.3907  0.0079 -0.0079 -0.0079
  30. Cl 4 (px)    -0.0362 -0.0045  0.0528 -0.0030  0.0079  2.0914  0.0190  0.0190
  31. Cl 4 (py)     0.0038 -0.0205 -0.0038  0.0030 -0.0079  0.0190  2.0914 -0.0190
  32. Cl 4 (pz)     0.0528  0.0045 -0.0362  0.0030 -0.0079  0.0190 -0.0190  2.0914
  33. Cl 4 (s)     -0.0571  0.0373  0.0571  0.1467 -0.5088 -0.0513  0.0513  0.0513
  34. Cl 4 (px)     0.1372  0.0124 -0.1999  0.0101 -0.0269 -0.4021 -0.0746 -0.0746
  35. Cl 4 (py)    -0.0124  0.0802  0.0124 -0.0101  0.0269 -0.0746 -0.4021  0.0746
  36. Cl 4 (pz)    -0.1999 -0.0124  0.1372 -0.0101  0.0269 -0.0746  0.0746 -0.4021
  37. Cl 5 (s)      0.0019 -0.0042  0.0042  0.0000  0.0002 -0.0012  0.0012 -0.0005
  38. Cl 5 (s)     -0.0051  0.0124 -0.0124  0.0002 -0.0007  0.0036 -0.0036  0.0011
  39. Cl 5 (px)    -0.0205  0.0038 -0.0038  0.0012 -0.0036  0.0093 -0.0136 -0.0013
  40. Cl 5 (py)    -0.0045 -0.0362  0.0528 -0.0012  0.0036 -0.0136  0.0093  0.0013
  41. Cl 5 (pz)     0.0045  0.0528 -0.0362 -0.0005  0.0011  0.0013 -0.0013  0.0050
  42. Cl 5 (s)      0.0373 -0.0571  0.0571  0.0002  0.0001 -0.0184  0.0184 -0.0095
  43. Cl 5 (px)     0.0802 -0.0124  0.0124 -0.0042  0.0124 -0.0362  0.0528  0.0038
  44. Cl 5 (py)     0.0124  0.1372 -0.1999  0.0042 -0.0124  0.0528 -0.0362 -0.0038
  45. Cl 5 (pz)    -0.0124 -0.1999  0.1372  0.0019 -0.0051 -0.0045  0.0045 -0.0205

           AO         33      34      35      36      37      38      39      40
      ------------ ------- ------- ------- ------- ------- ------- ------- -------
   1. Si 1 (s)     -0.0022 -0.0250  0.0250  0.0250  0.0005 -0.0018 -0.0077  0.0077
   2. Si 1 (s)      0.0111  0.0863 -0.0863 -0.0863 -0.0019  0.0068  0.0266 -0.0266
   3. Si 1 (px)    -0.0270  0.0358 -0.1054 -0.1054  0.0030 -0.0092 -0.0097  0.0301
   4. Si 1 (py)     0.0270 -0.1054  0.0358  0.1054 -0.0030  0.0092  0.0301 -0.0097
[...]
                                         0.0000  1.0000  0.0000  0.0000  0.0000
                                         0.0000  0.0000  0.0000  0.0000
   8. (2.00000) CR ( 3)Cl  2            s(  0.00%)p 1.00(100.00%)
                                         0.0000  0.0000  0.0000  1.0000  0.0000
                                         0.0000  0.0000  0.0000  0.0000
   9. (2.00000) CR ( 4)Cl  2            s(  0.00%)p 1.00(100.00%)
                                         0.0000  0.0000  0.0000  0.0000  0.0000
                                         1.0000  0.0000  0.0000  0.0000
  10. (2.00000) CR ( 5)Cl  2            s(  0.00%)p 1.00(100.00%)
                                         0.0000  0.0000  0.0000  0.0000  0.0000
                                         0.0000  0.0000  1.0000  0.0000
  11. (2.00000) CR ( 1)Cl  3            s(100.00%)
                                         1.0000  0.0000  0.0000  0.0000  0.0000
                                         0.0000  0.0000  0.0000  0.0000
  12. (2.00000) CR ( 2)Cl  3            s(100.00%)
                                         0.0000  1.0000  0.0000  0.0000  0.0000
                                         0.0000  0.0000  0.0000  0.0000
  13. (2.00000) CR ( 3)Cl  3            s(  0.00%)p 1.00(100.00%)
                                         0.0000  0.0000  0.0000  1.0000  0.0000
                                         0.0000  0.0000  0.0000  0.0000
  14. (2.00000) CR ( 4)Cl  3            s(  0.00%)p 1.00(100.00%)
                                         0.0000  0.0000  0.0000  0.0000  0.0000
                                         1.0000  0.0000  0.0000  0.0000
  15. (2.00000) CR ( 5)Cl  3            s(  0.00%)p 1.00(100.00%)
                                         0.0000  0.0000  0.0000  0.0000  0.0000
                                         0.0000  0.0000  1.0000  0.0000
  16. (2.00000) CR ( 1)Cl  4            s(100.00%)
                                         1.0000  0.0000  0.0000  0.0000  0.0000
                                         0.0000  0.0000  0.0000  0.0000
  17. (2.00000) CR ( 2)Cl  4            s(100.00%)
                                         0.0000  1.0000  0.0000  0.0000  0.0000
                                         0.0000  0.0000  0.0000  0.0000
  18. (2.00000) CR ( 3)Cl  4            s(  0.00%)p 1.00(100.00%)
                                         0.0000  0.0000  0.0000  1.0000  0.0000
                                         0.0000  0.0000  0.0000  0.0000
  19. (2.00000) CR ( 4)Cl  4            s(  0.00%)p 1.00(100.00%)
                                         0.0000  0.0000  0.0000  0.0000  0.0000
                                         1.0000  0.0000  0.0000  0.0000
  20. (2.00000) CR ( 5)Cl  4            s(  0.00%)p 1.00(100.00%)
                                         0.0000  0.0000  0.0000  0.0000  0.0000
                                         0.0000  0.0000  1.0000  0.0000
  21. (2.00000) CR ( 1)Cl  5            s(100.00%)
                                         1.0000  0.0000  0.0000  0.0000  0.0000
                                         0.0000  0.0000  0.0000  0.0000
  22. (2.00000) CR ( 2)Cl  5            s(100.00%)
                                         0.0000  1.0000  0.0000  0.0000  0.0000
                                         0.0000  0.0000  0.0000  0.0000
  23. (2.00000) CR ( 3)Cl  5            s(  0.00%)p 1.00(100.00%)
                                         0.0000  0.0000  0.0000  1.0000  0.0000
                                         0.0000  0.0000  0.0000  0.0000
  24. (2.00000) CR ( 4)Cl  5            s(  0.00%)p 1.00(100.00%)
                                         0.0000  0.0000  0.0000  0.0000  0.0000
                                         1.0000  0.0000  0.0000  0.0000
  25. (2.00000) CR ( 5)Cl  5            s(  0.00%)p 1.00(100.00%)
                                         0.0000  0.0000  0.0000  0.0000  0.0000
                                         0.0000  0.0000  1.0000  0.0000
  26. (1.99960) LP ( 1)Cl  2            s( 93.44%)p 0.07(  6.56%)
                                         0.0000  0.0000  0.9666  0.0000  0.1479
                                         0.0000  0.1479  0.0000  0.1479
  27. (1.96571) LP ( 2)Cl  2            s(  0.00%)p 1.00(100.00%)
                                         0.0000  0.0000  0.0000  0.0000 -0.3210
                                         0.0000  0.8107  0.0000 -0.4897
  28. (1.96571) LP ( 3)Cl  2            s(  0.00%)p 1.00(100.00%)
                                         0.0000  0.0000  0.0000  0.0000  0.7508
                                         0.0000 -0.0974  0.0000 -0.6533
  29. (1.99960) LP ( 1)Cl  3            s( 93.44%)p 0.07(  6.56%)
                                         0.0000  0.0000  0.9666  0.0000 -0.1479
                                         0.0000 -0.1479  0.0000  0.1479
  30. (1.96571) LP ( 2)Cl  3            s(  0.00%)p 1.00(100.00%)
                                         0.0000  0.0000  0.0000  0.0000 -0.4911
                                         0.0000  0.8105  0.0000  0.3193
  31. (1.96571) LP ( 3)Cl  3            s(  0.00%)p 1.00(100.00%)
                                         0.0000  0.0000  0.0000  0.0000  0.6523
                                         0.0000  0.0992  0.0000  0.7515
  32. (1.99960) LP ( 1)Cl  4            s( 93.44%)p 0.07(  6.56%)
                                         0.0000  0.0000  0.9666  0.0000  0.1479
                                         0.0000 -0.1479  0.0000 -0.1479
  33. (1.96571) LP ( 2)Cl  4            s(  0.00%)p 1.00(100.00%)
                                         0.0000  0.0000  0.0000  0.0000  0.7987
                                         0.0000  0.5462  0.0000  0.2525
  34. (1.96571) LP ( 3)Cl  4            s(  0.00%)p 1.00(100.00%)
                                         0.0000  0.0000  0.0000  0.0000  0.1695
                                         0.0000 -0.6069  0.0000  0.7765
  35. (1.99960) LP ( 1)Cl  5            s( 93.44%)p 0.07(  6.56%)
                                         0.0000  0.0000  0.9666  0.0000 -0.1479
                                         0.0000  0.1479  0.0000 -0.1479
  36. (1.96571) LP ( 2)Cl  5            s(  0.00%)p 1.00(100.00%)
                                         0.0000  0.0000  0.0000  0.0000  0.7391
                                         0.0000  0.6701  0.0000 -0.0690
  37. (1.96571) LP ( 3)Cl  5            s(  0.00%)p 1.00(100.00%)
                                         0.0000  0.0000  0.0000  0.0000 -0.3470
                                         0.0000  0.4666  0.0000  0.8136
  38. (1.96669) BD ( 1)Si  1-Cl  2
               ( 30.37%)   0.5511*Si  1 s( 25.00%)p 3.00( 75.00%)
                                         0.0000  0.0000  0.5000  0.0000  0.5000
                                         0.0000  0.5000  0.0000  0.5000
               ( 69.63%)   0.8344*Cl  2 s(  6.56%)p14.24( 93.44%)
                                         0.0000  0.0000  0.2561  0.0000 -0.5581
                                         0.0000 -0.5581  0.0000 -0.5581
  39. (1.96669) BD ( 1)Si  1-Cl  3
               ( 30.37%)   0.5511*Si  1 s( 25.00%)p 3.00( 75.00%)
                                         0.0000  0.0000  0.5000  0.0000 -0.5000
                                         0.0000 -0.5000  0.0000  0.5000
               ( 69.63%)   0.8344*Cl  3 s(  6.56%)p14.24( 93.44%)
                                         0.0000  0.0000  0.2561  0.0000  0.5581
                                         0.0000  0.5581  0.0000 -0.5581
  40. (1.96669) BD ( 1)Si  1-Cl  4
               ( 30.37%)   0.5511*Si  1 s( 25.00%)p 3.00( 75.00%)
                                         0.0000  0.0000  0.5000  0.0000  0.5000
                                         0.0000 -0.5000  0.0000 -0.5000
               ( 69.63%)   0.8344*Cl  4 s(  6.56%)p14.24( 93.44%)
                                         0.0000  0.0000  0.2561  0.0000 -0.5581
                                         0.0000  0.5581  0.0000  0.5581
  41. (1.96669) BD ( 1)Si  1-Cl  5
               ( 30.37%)   0.5511*Si  1 s( 25.00%)p 3.00( 75.00%)
                                         0.0000  0.0000  0.5000  0.0000 -0.5000
                                         0.0000  0.5000  0.0000 -0.5000
               ( 69.63%)   0.8344*Cl  5 s(  6.56%)p14.24( 93.44%)
                                         0.0000  0.0000  0.2561  0.0000  0.5581
                                         0.0000 -0.5581  0.0000  0.5581
 ---------------- non-Lewis ----------------------------------------------------
  42. (0.10230) BD*( 1)Si  1-Cl  2
               ( 69.63%)   0.8344*Si  1 s( 25.00%)p 3.00( 75.00%)
                                         0.0000  0.0000  0.5000  0.0000  0.5000
                                         0.0000  0.5000  0.0000  0.5000
               ( 30.37%)  -0.5511*Cl  2 s(  6.56%)p14.24( 93.44%)
                                         0.0000  0.0000  0.2561  0.0000 -0.5581
                                         0.0000 -0.5581  0.0000 -0.5581
  43. (0.10230) BD*( 1)Si  1-Cl  3
               ( 69.63%)   0.8344*Si  1 s( 25.00%)p 3.00( 75.00%)
                                         0.0000  0.0000  0.5000  0.0000 -0.5000
                                         0.0000 -0.5000  0.0000  0.5000
               ( 30.37%)  -0.5511*Cl  3 s(  6.56%)p14.24( 93.44%)
                                         0.0000  0.0000  0.2561  0.0000  0.5581
                                         0.0000  0.5581  0.0000 -0.5581
  44. (0.10230) BD*( 1)Si  1-Cl  4
               ( 69.63%)   0.8344*Si  1 s( 25.00%)p 3.00( 75.00%)
                                         0.0000  0.0000  0.5000  0.0000  0.5000
                                         0.0000 -0.5000  0.0000 -0.5000
               ( 30.37%)  -0.5511*Cl  4 s(  6.56%)p14.24( 93.44%)
                                         0.0000  0.0000  0.2561  0.0000 -0.5581
                                         0.0000  0.5581  0.0000  0.5581
  45. (0.10230) BD*( 1)Si  1-Cl  5
               ( 69.63%)   0.8344*Si  1 s( 25.00%)p 3.00( 75.00%)
                                         0.0000  0.0000  0.5000  0.0000 -0.5000
                                         0.0000  0.5000  0.0000 -0.5000
               ( 30.37%)  -0.5511*Cl  5 s(  6.56%)p14.24( 93.44%)
                                         0.0000  0.0000  0.2561  0.0000  0.5581
                                         0.0000 -0.5581  0.0000  0.5581


 NHO DIRECTIONALITY AND BOND BENDING (deviation from line of nuclear centers at
                                      the position of maximum hybrid amplitude)

         [Thresholds for printing:  angular deviation  >  1.0 degree]
                                    p- or d-character  > 25.0%
                                    orbital occupancy  >  0.10e

                        Line of Centers        Hybrid 1             Hybrid 2
                        ---------------  -------------------  ------------------
           NBO            Theta   Phi    Theta   Phi    Dev   Theta   Phi    Dev
 ===============================================================================
  27. LP ( 2)Cl  2          --     --     60.6  291.7   --      --     --    --
  28. LP ( 3)Cl  2          --     --     49.1  172.5   --      --     --    --
  30. LP ( 2)Cl  3          --     --    108.6  301.1   --      --     --    --
  31. LP ( 3)Cl  3          --     --     41.2    8.6   --      --     --    --
  33. LP ( 2)Cl  4          --     --    104.7  214.4   --      --     --    --
  34. LP ( 3)Cl  4          --     --    141.0  105.5   --      --     --    --
  36. LP ( 2)Cl  5          --     --     94.0   42.3   --      --     --    --
  37. LP ( 3)Cl  5          --     --     35.7  126.7   --      --     --    --


 SECOND ORDER PERTURBATION THEORY ANALYSIS OF FOCK MATRIX IN NBO BASIS

     Threshold for printing:   0.50 kcal/mol
                                                          E(2) E(NL)-E(L) F(L,NL)
      Donor (L) NBO              Acceptor (NL) NBO      kcal/mol   a.u.    a.u.
 ===============================================================================

 within unit  1
   27. LP ( 2)Cl  2            43. BD*( 1)Si  1-Cl  3      4.28    0.69   0.049
   27. LP ( 2)Cl  2            44. BD*( 1)Si  1-Cl  4      1.84    0.69   0.032
   27. LP ( 2)Cl  2            45. BD*( 1)Si  1-Cl  5     11.73    0.69   0.080
   28. LP ( 3)Cl  2            43. BD*( 1)Si  1-Cl  3      7.62    0.69   0.065
   28. LP ( 3)Cl  2            44. BD*( 1)Si  1-Cl  4     10.06    0.69   0.075
   30. LP ( 2)Cl  3            42. BD*( 1)Si  1-Cl  2      1.82    0.69   0.032
   30. LP ( 2)Cl  3            44. BD*( 1)Si  1-Cl  4     11.73    0.69   0.080
   30. LP ( 2)Cl  3            45. BD*( 1)Si  1-Cl  5      4.31    0.69   0.049
   31. LP ( 3)Cl  3            42. BD*( 1)Si  1-Cl  2     10.08    0.69   0.075
   31. LP ( 3)Cl  3            45. BD*( 1)Si  1-Cl  5      7.60    0.69   0.065
   33. LP ( 2)Cl  4            42. BD*( 1)Si  1-Cl  2     11.39    0.69   0.079
   33. LP ( 2)Cl  4            43. BD*( 1)Si  1-Cl  3      5.33    0.69   0.054
   33. LP ( 2)Cl  4            45. BD*( 1)Si  1-Cl  5      1.14    0.69   0.025
   34. LP ( 3)Cl  4            42. BD*( 1)Si  1-Cl  2      0.51    0.69   0.017
   34. LP ( 3)Cl  4            43. BD*( 1)Si  1-Cl  3      6.58    0.69   0.060
   34. LP ( 3)Cl  4            45. BD*( 1)Si  1-Cl  5     10.76    0.69   0.077
   36. LP ( 2)Cl  5            42. BD*( 1)Si  1-Cl  2      8.02    0.69   0.067
   36. LP ( 2)Cl  5            43. BD*( 1)Si  1-Cl  3      9.75    0.69   0.073
   37. LP ( 3)Cl  5            42. BD*( 1)Si  1-Cl  2      3.89    0.69   0.046
   37. LP ( 3)Cl  5            43. BD*( 1)Si  1-Cl  3      2.15    0.69   0.034
   37. LP ( 3)Cl  5            44. BD*( 1)Si  1-Cl  4     11.82    0.69   0.081
   38. BD ( 1)Si  1-Cl  2      43. BD*( 1)Si  1-Cl  3      7.30    1.03   0.078
   38. BD ( 1)Si  1-Cl  2      44. BD*( 1)Si  1-Cl  4      7.30    1.03   0.078
   38. BD ( 1)Si  1-Cl  2      45. BD*( 1)Si  1-Cl  5      7.30    1.03   0.078
   39. BD ( 1)Si  1-Cl  3      42. BD*( 1)Si  1-Cl  2      7.30    1.03   0.078
   39. BD ( 1)Si  1-Cl  3      44. BD*( 1)Si  1-Cl  4      7.30    1.03   0.078
   39. BD ( 1)Si  1-Cl  3      45. BD*( 1)Si  1-Cl  5      7.30    1.03   0.078
   40. BD ( 1)Si  1-Cl  4      42. BD*( 1)Si  1-Cl  2      7.30    1.03   0.078
   40. BD ( 1)Si  1-Cl  4      43. BD*( 1)Si  1-Cl  3      7.30    1.03   0.078
   40. BD ( 1)Si  1-Cl  4      45. BD*( 1)Si  1-Cl  5      7.30    1.03   0.078
   41. BD ( 1)Si  1-Cl  5      42. BD*( 1)Si  1-Cl  2      7.30    1.03   0.078
   41. BD ( 1)Si  1-Cl  5      43. BD*( 1)Si  1-Cl  3      7.30    1.03   0.078
   41. BD ( 1)Si  1-Cl  5      44. BD*( 1)Si  1-Cl  4      7.30    1.03   0.078


 NATURAL BOND ORBITALS (Summary):

                                                     Principal Delocalizations
           NBO                 Occupancy    Energy   (geminal,vicinal,remote)
 ===============================================================================
 Molecular unit  1  (SiCl4)
 ------ Lewis --------------------------------------
    1. CR ( 1)Si  1             2.00000   -48.35229
    2. CR ( 2)Si  1             2.00000   -26.15545
    3. CR ( 3)Si  1             2.00000    -4.26034
    4. CR ( 4)Si  1             2.00000    -4.26034
    5. CR ( 5)Si  1             2.00000    -4.26034
    6. CR ( 1)Cl  2             2.00000  -101.87344
    7. CR ( 2)Cl  2             2.00000   -10.84508
    8. CR ( 3)Cl  2             2.00000    -7.85745
    9. CR ( 4)Cl  2             2.00000    -7.85745
   10. CR ( 5)Cl  2             2.00000    -7.85745
   11. CR ( 1)Cl  3             2.00000  -101.87344
   12. CR ( 2)Cl  3             2.00000   -10.84508
   13. CR ( 3)Cl  3             2.00000    -7.85745
   14. CR ( 4)Cl  3             2.00000    -7.85745
   15. CR ( 5)Cl  3             2.00000    -7.85745
   16. CR ( 1)Cl  4             2.00000  -101.87345
   17. CR ( 2)Cl  4             2.00000   -10.84508
   18. CR ( 3)Cl  4             2.00000    -7.85745
   19. CR ( 4)Cl  4             2.00000    -7.85745
   20. CR ( 5)Cl  4             2.00000    -7.85745
   21. CR ( 1)Cl  5             2.00000  -101.87344
   22. CR ( 2)Cl  5             2.00000   -10.84509
   23. CR ( 3)Cl  5             2.00000    -7.85745
   24. CR ( 4)Cl  5             2.00000    -7.85745
   25. CR ( 5)Cl  5             2.00000    -7.85745
   26. LP ( 1)Cl  2             1.99960    -2.28186
   27. LP ( 2)Cl  2             1.96571    -0.45849  45(v),43(v),44(v)
   28. LP ( 3)Cl  2             1.96571    -0.45849  44(v),43(v)
   29. LP ( 1)Cl  3             1.99960    -2.28186
   30. LP ( 2)Cl  3             1.96571    -0.45849  44(v),45(v),42(v)
   31. LP ( 3)Cl  3             1.96571    -0.45849  42(v),45(v)
   32. LP ( 1)Cl  4             1.99960    -2.28186
   33. LP ( 2)Cl  4             1.96571    -0.45849  42(v),43(v),45(v)
   34. LP ( 3)Cl  4             1.96571    -0.45849  45(v),43(v),42(v)
   35. LP ( 1)Cl  5             1.99960    -2.28186
   36. LP ( 2)Cl  5             1.96571    -0.45849  43(v),42(v)
   37. LP ( 3)Cl  5             1.96571    -0.45849  44(v),42(v),43(v)
   38. BD ( 1)Si  1-Cl  2       1.96669    -0.79850  43(g),44(g),45(g)
   39. BD ( 1)Si  1-Cl  3       1.96669    -0.79850  42(g),44(g),45(g)
   40. BD ( 1)Si  1-Cl  4       1.96669    -0.79850  42(g),43(g),45(g)
   41. BD ( 1)Si  1-Cl  5       1.96669    -0.79850  42(g),43(g),44(g)
 ------ non-Lewis ----------------------------------
   42. BD*( 1)Si  1-Cl  2       0.10230     0.23434
   43. BD*( 1)Si  1-Cl  3       0.10230     0.23434
   44. BD*( 1)Si  1-Cl  4       0.10230     0.23434
   45. BD*( 1)Si  1-Cl  5       0.10230     0.23434
          -------------------------------
                 Total Lewis   81.59080  ( 99.5010%)
           Valence non-Lewis    0.40920  (  0.4990%)
           Rydberg non-Lewis    0.00000  (  0.0000%)
          -------------------------------
               Total unit  1   82.00000  (100.0000%)
              Charge unit  1    0.00000

 $CHOOSE
   LONE 2 3 3 3 4 3 5 3 END
   BOND S 1 2 S 1 3 S 1 4 S 1 5 END
 $END

 NBO analysis completed in 0.53 CPU seconds (1 wall second)
 Maximum scratch memory used by NBO was 278986 words (2.13 MB)
 Maximum scratch memory used by G16NBO was 11475 words (0.09 MB)

 Opening RunExU unformatted file "/cluster/work/users/beto93/mol65/Gau-1833459.EUF"
 Read unf file /cluster/work/users/beto93/mol65/Gau-1833459.EUF:
 Label Gaussian matrix elements                                         IVers= 2 NLab= 2 Version=ES64L-G16RevC.01
 Title mol65-NBO                                                       
 NAtoms=     5 NBasis=    45 NBsUse=    45 ICharg=     0 Multip=     1 NE=    82 Len12L=8 Len4L=8 IOpCl= 0 ICGU=111
 GAUSSIAN SCALARS                    NI= 1 NR= 1 NTot=       1 LenBuf=    2 NRI=1 N=    1000
 NPA CHARGES                         NI= 0 NR= 1 NTot=       5 LenBuf= 4000 NRI=1 N=       5
 Recovered energy= -2104.12272625     dipole=      0.000000000000     -0.000000000000     -0.000000000000
 Unable to Open any file for archive entry.
 1\1\GINC-C1-43\SP\RHF\STO-3G\Cl4Si1\BETO93\18-Nov-2024\0\\#RHF/STO-3G 
 int=nobasistransform Symmetry=None 5D 7F Pop=NBO7Read\\mol65-NBO\\0,1\
 Si,0,0.,0.,0.\Cl,0,1.169349,1.169349,1.169349\Cl,0,-1.169349,-1.169349
 ,1.169349\Cl,0,1.169349,-1.169349,-1.169349\Cl,0,-1.169349,1.169349,-1
 .169349\\Version=ES64L-G16RevC.01\HF=-2104.1227263\RMSD=1.429e-09\Dipo
 le=0.,0.,0.\Quadrupole=0.,0.,0.,0.,0.,0.\PG=Unknown\\@
 The archive entry for this job was punched.


 Statistics are no substitute for judgment.
                            -- Henry Clay
 Job cpu time:       0 days  0 hours  0 minutes 11.2 seconds.
 Elapsed time:       0 days  0 hours  0 minutes  3.5 seconds.
 File lengths (MBytes):  RWF=     10 Int=      0 D2E=      0 Chk=      1 Scr=      1
 Normal termination of Gaussian 16 at Mon Nov 18 15:41:20 2024.
