 Entering Gaussian System, Link 0=g16
 Initial command:
 /cluster/software/Gaussian/g16_C.01/l1.exe "/cluster/work/users/beto93/mol00/Gau-4165229.inp" -scrdir="/cluster/work/users/beto93/mol00/"
 Entering Link 1 = /cluster/software/Gaussian/g16_C.01/l1.exe PID=   4165230.
  
 Copyright (c) 1988-2019, Gaussian, Inc.  All Rights Reserved.
  
 This is part of the Gaussian(R) 16 program.  It is based on
 the Gaussian(R) 09 system (copyright 2009, Gaussian, Inc.),
 the Gaussian(R) 03 system (copyright 2003, Gaussian, Inc.),
 the Gaussian(R) 98 system (copyright 1998, Gaussian, Inc.),
 the Gaussian(R) 94 system (copyright 1995, Gaussian, Inc.),
 the Gaussian 92(TM) system (copyright 1992, Gaussian, Inc.),
 the Gaussian 90(TM) system (copyright 1990, Gaussian, Inc.),
 the Gaussian 88(TM) system (copyright 1988, Gaussian, Inc.),
 the Gaussian 86(TM) system (copyright 1986, Carnegie Mellon
 University), and the Gaussian 82(TM) system (copyright 1983,
 Carnegie Mellon University). Gaussian is a federally registered
 trademark of Gaussian, Inc.
  
 This software contains proprietary and confidential information,
 including trade secrets, belonging to Gaussian, Inc.
  
 This software is provided under written license and may be
 used, copied, transmitted, or stored only in accord with that
 written license.
  
 The following legend is applicable only to US Government
 contracts under FAR:
  
                    RESTRICTED RIGHTS LEGEND
  
 Use, reproduction and disclosure by the US Government is
 subject to restrictions as set forth in subparagraphs (a)
 and (c) of the Commercial Computer Software - Restricted
 Rights clause in FAR 52.227-19.
  
 Gaussian, Inc.
 340 Quinnipiac St., Bldg. 40, Wallingford CT 06492
  
  
 ---------------------------------------------------------------
 Warning -- This program may not be used in any manner that
 competes with the business of Gaussian, Inc. or will provide
 assistance to any competitor of Gaussian, Inc.  The licensee
 of this program is prohibited from giving any competitor of
 Gaussian, Inc. access to this program.  By using this program,
 the user acknowledges that Gaussian, Inc. is engaged in the
 business of creating and licensing software in the field of
 computational chemistry and represents and warrants to the
 licensee that it is not a competitor of Gaussian, Inc. and that
 it will not use this program in any manner prohibited above.
 ---------------------------------------------------------------
  

 Cite this work as:
 Gaussian 16, Revision C.01,
 M. J. Frisch, G. W. Trucks, H. B. Schlegel, G. E. Scuseria, 
 M. A. Robb, J. R. Cheeseman, G. Scalmani, V. Barone, 
 G. A. Petersson, H. Nakatsuji, X. Li, M. Caricato, A. V. Marenich, 
 J. Bloino, B. G. Janesko, R. Gomperts, B. Mennucci, H. P. Hratchian, 
 J. V. Ortiz, A. F. Izmaylov, J. L. Sonnenberg, D. Williams-Young, 
 F. Ding, F. Lipparini, F. Egidi, J. Goings, B. Peng, A. Petrone, 
 T. Henderson, D. Ranasinghe, V. G. Zakrzewski, J. Gao, N. Rega, 
 G. Zheng, W. Liang, M. Hada, M. Ehara, K. Toyota, R. Fukuda, 
 J. Hasegawa, M. Ishida, T. Nakajima, Y. Honda, O. Kitao, H. Nakai, 
 T. Vreven, K. Throssell, J. A. Montgomery, Jr., J. E. Peralta, 
 F. Ogliaro, M. J. Bearpark, J. J. Heyd, E. N. Brothers, K. N. Kudin, 
 V. N. Staroverov, T. A. Keith, R. Kobayashi, J. Normand, 
 K. Raghavachari, A. P. Rendell, J. C. Burant, S. S. Iyengar, 
 J. Tomasi, M. Cossi, J. M. Millam, M. Klene, C. Adamo, R. Cammi, 
 J. W. Ochterski, R. L. Martin, K. Morokuma, O. Farkas, 
 J. B. Foresman, and D. J. Fox, Gaussian, Inc., Wallingford CT, 2019.
 
 ******************************************
 Gaussian 16:  ES64L-G16RevC.01  3-Jul-2019
                 8-Jan-2025 
 ******************************************
 %LindaWorkers=c1-7-ib
 %NProcShared=4
 Will use up to    4 processors via shared memory.
 %mem=25GB
 %chk=Si.chk
 SetLPE:    new flags="-opt 'Tsnet.Node.lindarsharg: ssh'  -nodelist 'c1-7-ib.saga' -env GAUSS_MDEF=3355443200 -env GAUSS_EXEDIR="/cluster/software/Gaussian/g16_C.01/bsd:/cluster/software/Gaussian/g16_C.01""
 Will use up to    1 processors via Linda.
 --------------------------------------------------------------
 #RHF/Gen 5D 7F int=nobasistransform Symmetry=NONE Pop=NBO7Read
 --------------------------------------------------------------
 1/38=1,163=2,172=1/1;
 2/12=2,15=3,17=6,18=5,40=1/2;
 3/5=7,8=11,11=1,25=1,30=1,60=-1,116=1/1,2,3;
 4//1;
 5/5=2,38=5/2;
 6/7=2,8=2,9=2,10=2,28=1,40=2,113=1,114=1,124=2103/1,12;
 99/5=1,9=1/99;
 ------
 NBO-Si
 ------
 Symbolic Z-matrix:
 Charge =  0 Multiplicity = 1
 Si                    0.        0.        0. 
 
                          Input orientation:                          
 ---------------------------------------------------------------------
 Center     Atomic      Atomic             Coordinates (Angstroms)
 Number     Number       Type             X           Y           Z
 ---------------------------------------------------------------------
      1         14           0        0.000000    0.000000    0.000000
 ---------------------------------------------------------------------
 Symmetry turned off by external request.
 Stoichiometry    Si
 General basis read from cards:  (5D, 7F)
     9 basis functions,    27 primitive gaussians,     9 cartesian basis functions
     7 alpha electrons        7 beta electrons
       nuclear repulsion energy         0.0000000000 Hartrees.
 NAtoms=    1 NActive=    1 NUniq=    1 SFac= 1.00D+00 NAtFMM=   60 NAOKFM=F Big=F
 Integral buffers will be    131072 words long.
 Raffenetti 1 integral format.
 Two-electron integral symmetry is turned off.
 One-electron integrals computed using PRISM.
 NBasis=     9 RedAO= T EigKep=  6.02D-01  NBF=     9
 NBsUse=     9 1.00D-06 EigRej= -1.00D+00 NBFU=     9
 ExpMin= 1.61D-01 ExpMax= 4.08D+02 ExpMxC= 4.08D+02 IAcc=3 IRadAn=         5 AccDes= 0.00D+00
 Harris functional with IExCor=  205 and IRadAn=       5 diagonalized for initial guess.
 HarFok:  IExCor=  205 AccDes= 0.00D+00 IRadAn=         5 IDoV= 1 UseB2=F ITyADJ=14
 ICtDFT=  3500011 ScaDFX=  1.000000  1.000000  1.000000  1.000000
 FoFCou: FMM=F IPFlag=           0 FMFlag=      100000 FMFlg1=           0
         NFxFlg=           0 DoJE=T BraDBF=F KetDBF=T FulRan=T
         wScrn=  0.000000 ICntrl=       500 IOpCl=  0 I1Cent=   200000004 NGrid=           0
         NMat0=    1 NMatS0=      1 NMatT0=    0 NMatD0=    1 NMtDS0=    0 NMtDT0=    0
 Symmetry not used in FoFCou.
 Keep R1 ints in memory in canonical form, NReq=804049.
 Requested convergence on RMS density matrix=1.00D-08 within 128 cycles.
 Requested convergence on MAX density matrix=1.00D-06.
 Requested convergence on             energy=1.00D-06.
 No special actions if energy rises.
 SCF Done:  E(RHF) =  -285.383974201     A.U. after    4 cycles
            NFock=  4  Conv=0.92D-08     -V/T= 2.0097

 **********************************************************************

            Population analysis using the SCF Density.

 **********************************************************************

 Alpha  occ. eigenvalues --  -67.71576  -5.75127  -3.76675  -3.76675  -3.76558
 Alpha  occ. eigenvalues --   -0.40510  -0.05496
 Alpha virt. eigenvalues --    0.28658   0.28658
          Condensed to atoms (all electrons):
               1
     1  Si  14.000000
 Mulliken charges:
               1
     1  Si   0.000000
 Sum of Mulliken charges =   0.00000
 Mulliken charges with hydrogens summed into heavy atoms:
               1
     1  Si   0.000000
 Electronic spatial extent (au):  <R**2>=             22.0828
 Charge=              0.0000 electrons
 Dipole moment (field-independent basis, Debye):
    X=             -0.0000    Y=             -0.0000    Z=              0.0000  Tot=              0.0000
 Quadrupole moment (field-independent basis, Debye-Ang):
   XX=            -12.5377   YY=             -8.9384   ZZ=             -8.2260
   XY=             -1.8019   XZ=             -0.3876   YZ=             -0.1607
 Traceless Quadrupole moment (field-independent basis, Debye-Ang):
   XX=             -2.6370   YY=              0.9623   ZZ=              1.6747
   XY=             -1.8019   XZ=             -0.3876   YZ=             -0.1607
 Octapole moment (field-independent basis, Debye-Ang**2):
  XXX=             -0.0000  YYY=             -0.0000  ZZZ=              0.0000  XYY=             -0.0000
  XXY=             -0.0000  XXZ=              0.0000  XZZ=             -0.0000  YZZ=             -0.0000
  YYZ=              0.0000  XYZ=              0.0000
 Hexadecapole moment (field-independent basis, Debye-Ang**3):
 XXXX=            -15.7253 YYYY=             -9.2256 ZZZZ=             -7.9390 XXXY=             -1.6269
 XXXZ=             -0.3500 YYYX=             -1.6269 YYYZ=             -0.1451 ZZZX=             -0.3500
 ZZZY=             -0.1451 XXYY=             -4.1585 XXZZ=             -3.9440 YYZZ=             -2.8608
 XXYZ=             -0.0484 YYXZ=             -0.1167 ZZXY=             -0.5423
 N-N= 0.000000000000D+00 E-N=-6.829566454380D+02  KE= 2.826410280336D+02
 Running external command "gaunbo7 R"
         input file       "/cluster/work/users/beto93/mol00/Gau-4165230.EIn"
         output file      "/cluster/work/users/beto93/mol00/Gau-4165230.EOu"
         message file     "/cluster/work/users/beto93/mol00/Gau-4165230.EMs"
         fchk file        "/cluster/work/users/beto93/mol00/Gau-4165230.EFC"
         mat. el file     "/cluster/work/users/beto93/mol00/Gau-4165230.EUF"

 Writing WrtUnf unformatted file "/cluster/work/users/beto93/mol00/Gau-4165230.EUF"
 Gaussian matrix elements                                         Version   2 NLab=11 Len12L=8 Len4L=8
 Write SHELL TO ATOM MAP                   from file      0 offset           0 length                   5 to matrix element file.
 Write SHELL TYPES                         from file      0 offset           0 length                   5 to matrix element file.
 Write NUMBER OF PRIMITIVES PER SHELL      from file      0 offset           0 length                   5 to matrix element file.
 Write PRIMITIVE EXPONENTS                 from file      0 offset           0 length                  15 to matrix element file.
 Write CONTRACTION COEFFICIENTS            from file      0 offset           0 length                  15 to matrix element file.
 Write P(S=P) CONTRACTION COEFFICIENTS     from file      0 offset           0 length                  15 to matrix element file.
 Write COORDINATES OF EACH SHELL           from file      0 offset           0 length                  15 to matrix element file.
 Write ONIOM CHARGE/MULT                   from file      0 offset           0 length                  32 to matrix element file.
 Write ONIOM ATOM LAYERS                   from file      0 offset           0 length                   1 to matrix element file.
 Write ONIOM ATOM MODIFIERS                from file      0 offset           0 length                   1 to matrix element file.
 Write ONIOM ATOM TYPES                    from file      0 offset           0 length                   1 to matrix element file.
 Write ONIOM LINK ATOMS                    from file      0 offset           0 length                   1 to matrix element file.
 Write ONIOM LINK CHARGES                  from file      0 offset           0 length                   1 to matrix element file.
 Write ONIOM LINK DISTANCES                from file      0 offset           0 length                   4 to matrix element file.
 Write SYMINF INTS                         from file      0 offset           0 length                  26 to matrix element file.
 Write ROTTR TO SO                         from file      0 offset           0 length                  12 to matrix element file.
 Write GAUSSIAN SCALARS                    from file    501 offset           0 to matrix element file.
 Write OPTIMIZATION FLAGS                  from file      0 offset           0 length                   1 to matrix element file.
 Write INTEGER ISO                         from file      0 offset           0 length                   1 to matrix element file.
 Write REAL ZEFFECTIVE                     from file      0 offset           0 length                   1 to matrix element file.
 Write REAL ZNUCLEAR                       from file      0 offset           0 length                   1 to matrix element file.
 Write MULLIKEN CHARGES                    from file      0 offset           0 length                   1 to matrix element file.
 Write NUCLEAR GRADIENT                    from file  10584 offset           0 length                   3 to matrix element file.
 Array NUCLEAR FORCE CONSTANTS              on  file  10585 does not exist.
 Write ELECTRIC DIPOLE MOMENT              from file      0 offset           0 length                   3 to matrix element file.
 Write NON-ADIABATIC COUPLING              from file  10810 offset           0 length                   3 to matrix element file.
 Write FINITE EM FIELD                     from file  10521 offset           0 length                  35 to matrix element file.
 Write OVERLAP                             from file  10514 offset           0 length                  45 to matrix element file.
 Write CORE HAMILTONIAN ALPHA              from file  10515 offset           0 length                  45 to matrix element file.
 Write CORE HAMILTONIAN BETA               from file  10515 offset          45 length                  45 to matrix element file.
 Write KINETIC ENERGY                      from file  10516 offset           0 length                  45 to matrix element file.
 Write ORTHOGONAL BASIS                    from file  10685 offset           0 length                  81 to matrix element file.
 Write DIPOLE INTEGRALS                    from file  10518 offset           0 length                 135 to matrix element file.
 Array DIP VEL INTEGRALS                    on  file  10572 does not exist.
 Array R X DEL INTEGRALS                    on  file  10572 does not exist.
 Write ALPHA ORBITAL ENERGIES              from file      0 offset           0 length                   9 to matrix element file.
 Write ALPHA MO COEFFICIENTS               from file  10524 offset           0 length                  81 to matrix element file.
 Write ALPHA DENSITY MATRIX                from file      0 offset           0 length                  45 to matrix element file.
 Write ALPHA FOCK MATRIX                   from file  10536 offset           0 length                  45 to matrix element file.
 Write ENERGY-WEIGHTED DENSITY             from file  10571 offset           0 length                  45 to matrix element file.
 Write ALPHA SCF DENSITY MATRIX            from file      0 offset           0 length                  45 to matrix element file.
 No 2e integrals to process.
 Perform NBO analysis...executing G16NBO...

 *********************************** NBO 7.0 ***********************************
             N A T U R A L   A T O M I C   O R B I T A L   A N D
          N A T U R A L   B O N D   O R B I T A L   A N A L Y S I S
 **************************** Espen Tangen (S101595) ***************************
  (c) Copyright 1996-2021 Board of Regents of the University of Wisconsin System
      on behalf of the Theoretical Chemistry Institute.  All rights reserved.

          Cite this program [NBO 7.0.10 (8-Feb-2021)] as:

          NBO 7.0.  E. D. Glendening, J. K. Badenhoop, A. E. Reed,
          J. E. Carpenter, J. A. Bohmann, C. M. Morales, P. Karafiloglou,
          C. R. Landis, and F. Weinhold, Theoretical Chemistry Institute,
          University of Wisconsin, Madison, WI (2018)

       /NPA    / : Natural Population Analysis
       /AOPNAO / : Print the AO to PNAO transformation
       /AONAO  / : Print the AO to NAO transformation
       /AONO   / : Print the NOs in the AO basis
       /AOMO   / : Print the MOs in the AO basis
       /BOAO   / : Print the AO bond-order matrix
       /DMAO   / : Print the AO density matrix
       /DMPNAO / : Print the PNAO density matrix
       /DMNAO  / : Print the NAO density matrix
       /DMMO   / : Print the MO density matrix
       /SAO    / : Print the AO overlap matrix
       /SPNAO  / : Print the PNAO overlap matrix
       /DETAIL / : Write details of NBO search
       /ARCHIVE/ : Write the archive file to lfn47
       /AOINFO / : Write AO information to lfn31
       /FILE   / : Set to Si

 Filename set to Si

 Job title: NBO-Si


 MOs in the AO basis:

           AO          1       2       3       4       5       6       7       8
      ------------ ------- ------- ------- ------- ------- ------- ------- -------
   1. Si 1 (s)      0.9940 -0.3443  0.0000  0.0000  0.0000  0.0941  0.0000  0.0000
   2. Si 1 (s)      0.0188  1.0394  0.0000  0.0000  0.0000 -0.3338  0.0000  0.0000
   3. Si 1 (s)     -0.0026  0.0459  0.0000  0.0000  0.0000  1.0357  0.0000  0.0000
   4. Si 1 (px)     0.0000  0.0000 -0.3734 -0.0761  0.9016  0.0000 -0.3172  0.0226
   5. Si 1 (py)     0.0000  0.0000  0.9018 -0.0257  0.3738  0.0000 -0.1315  0.0211
   6. Si 1 (pz)     0.0000  0.0000 -0.0054  0.9728  0.0804  0.0000 -0.0283 -0.3521
   7. Si 1 (px)     0.0000  0.0000 -0.0300 -0.0061  0.0634  0.0000  0.9536 -0.0663
   8. Si 1 (py)     0.0000  0.0000  0.0724 -0.0021  0.0263  0.0000  0.3954 -0.0619
   9. Si 1 (pz)     0.0000  0.0000 -0.0004  0.0781  0.0057  0.0000  0.0850  1.0312

           AO          9
      ------------ -------
   1. Si 1 (s)      0.0000
   2. Si 1 (s)      0.0000
   3. Si 1 (s)      0.0000
   4. Si 1 (px)     0.1361
   5. Si 1 (py)    -0.3260
   6. Si 1 (pz)    -0.0108
   7. Si 1 (px)    -0.3987
   8. Si 1 (py)     0.9548
   9. Si 1 (pz)     0.0317


 NOs in the AO basis:

           AO          1       2       3       4       5       6       7       8
      ------------ ------- ------- ------- ------- ------- ------- ------- -------
   1. Si 1 (s)      0.6572  0.4697  0.2015 -0.5441 -0.3395  0.0998  0.0309  0.0000
   2. Si 1 (s)      0.2280 -0.3520  0.4545  0.7310 -0.0171 -0.4938 -0.1768  0.0000
   3. Si 1 (s)     -0.3031 -0.2650  0.1855 -0.7129 -0.0082 -0.3968  0.4609  0.0000
   4. Si 1 (px)    -0.1905  0.1141  0.6251  0.2237  0.0106  0.5537  0.5116 -0.0916
   5. Si 1 (py)    -0.4272  0.0998  0.4863 -0.2265 -0.0728  0.0936 -0.6904  0.1556
   6. Si 1 (pz)     0.2985 -0.7625  0.0250 -0.1964 -0.0234  0.4692 -0.1525  0.3039
   7. Si 1 (px)    -0.1388 -0.1157 -0.3513  0.1155 -0.8536 -0.1200  0.0438  0.2683
   8. Si 1 (py)    -0.0855 -0.0438 -0.1274  0.0223 -0.3601 -0.0607 -0.0543 -0.4556
   9. Si 1 (pz)     0.0130 -0.0723 -0.0338 -0.0071 -0.0781  0.0230 -0.0120 -0.8899

           AO          9
      ------------ -------
   1. Si 1 (s)      0.0000
   2. Si 1 (s)      0.0000
   3. Si 1 (s)      0.0000
   4. Si 1 (px)     0.1032
   5. Si 1 (py)    -0.2873
   6. Si 1 (pz)     0.1782
   7. Si 1 (px)    -0.3023
   8. Si 1 (py)     0.8413
   9. Si 1 (pz)    -0.5219


 AO overlap matrix:

           AO          1       2       3       4       5       6       7       8
      ------------ ------- ------- ------- ------- ------- ------- ------- -------
   1. Si 1 (s)      1.0000  0.3142  0.0136  0.0000  0.0000  0.0000  0.0000  0.0000
   2. Si 1 (s)      0.3142  1.0000  0.2542  0.0000  0.0000  0.0000  0.0000  0.0000
   3. Si 1 (s)      0.0136  0.2542  1.0000  0.0000  0.0000  0.0000  0.0000  0.0000
   4. Si 1 (px)     0.0000  0.0000  0.0000  1.0000  0.0000  0.0000  0.2685  0.0000
   5. Si 1 (py)     0.0000  0.0000  0.0000  0.0000  1.0000  0.0000  0.0000  0.2685
   6. Si 1 (pz)     0.0000  0.0000  0.0000  0.0000  0.0000  1.0000  0.0000  0.0000
   7. Si 1 (px)     0.0000  0.0000  0.0000  0.2685  0.0000  0.0000  1.0000  0.0000
   8. Si 1 (py)     0.0000  0.0000  0.0000  0.0000  0.2685  0.0000  0.0000  1.0000
   9. Si 1 (pz)     0.0000  0.0000  0.0000  0.0000  0.0000  0.2685  0.0000  0.0000

           AO          9
      ------------ -------
   1. Si 1 (s)      0.0000
   2. Si 1 (s)      0.0000
   3. Si 1 (s)      0.0000
   4. Si 1 (px)     0.0000
   5. Si 1 (py)     0.0000
   6. Si 1 (pz)     0.2685
   7. Si 1 (px)     0.0000
   8. Si 1 (py)     0.0000
   9. Si 1 (pz)     1.0000


 AO bond-order matrix:

           AO          1       2       3       4       5       6       7       8
      ------------ ------- ------- ------- ------- ------- ------- ------- -------
   1. Si 1 (s)      2.2308 -0.7412  0.1581  0.0000  0.0000  0.0000  0.0000  0.0000
   2. Si 1 (s)     -0.7412  2.3844 -0.5961  0.0000  0.0000  0.0000  0.0000  0.0000
   3. Si 1 (s)      0.1581 -0.5961  2.1494  0.0000  0.0000  0.0000  0.0000  0.0000
   4. Si 1 (px)     0.0000  0.0000  0.0000  2.1173  0.0878  0.0189 -0.4672 -0.2571
   5. Si 1 (py)     0.0000  0.0000  0.0000  0.0878  1.9420  0.0078 -0.2571  0.0464
   6. Si 1 (pz)     0.0000  0.0000  0.0000  0.0189  0.0078  1.9073 -0.0553 -0.0229
   7. Si 1 (px)     0.0000  0.0000  0.0000 -0.4672 -0.2571 -0.0553  1.8288  0.7531
   8. Si 1 (py)     0.0000  0.0000  0.0000 -0.2571  0.0464 -0.0229  0.7531  0.3245
   9. Si 1 (pz)     0.0000  0.0000  0.0000 -0.0553 -0.0229  0.1480  0.1620  0.0672

           AO          9
      ------------ -------
   1. Si 1 (s)      0.0000
   2. Si 1 (s)      0.0000
   3. Si 1 (s)      0.0000
   4. Si 1 (px)    -0.0553
   5. Si 1 (py)    -0.0229
   6. Si 1 (pz)     0.1480
   7. Si 1 (px)     0.1620
   8. Si 1 (py)     0.0672
   9. Si 1 (pz)     0.0267


 AO density matrix:

           AO          1       2       3       4       5       6       7       8
      ------------ ------- ------- ------- ------- ------- ------- ------- -------
   1. Si 1 (s)      2.0000  0.6285  0.0272  0.0000  0.0000  0.0000  0.0000  0.0000
   2. Si 1 (s)      0.6285  2.0000  0.5084  0.0000  0.0000  0.0000  0.0000  0.0000
   3. Si 1 (s)      0.0272  0.5084  2.0000  0.0000  0.0000  0.0000  0.0000  0.0000
   4. Si 1 (px)     0.0000  0.0000  0.0000  1.9983  0.0040  0.0009  0.5587 -0.0499
   5. Si 1 (py)     0.0000  0.0000  0.0000  0.0040  1.9903  0.0004 -0.0499  0.6583
   6. Si 1 (pz)     0.0000  0.0000  0.0000  0.0009  0.0004  1.9887 -0.0107 -0.0044
   7. Si 1 (px)     0.0000  0.0000  0.0000  0.5587 -0.0499 -0.0107  1.7305  0.6213
   8. Si 1 (py)     0.0000  0.0000  0.0000 -0.0499  0.6583 -0.0044  0.6213  0.4894
   9. Si 1 (pz)     0.0000  0.0000  0.0000 -0.0107 -0.0044  0.6780  0.1336  0.0554

           AO          9
      ------------ -------
   1. Si 1 (s)      0.0000
   2. Si 1 (s)      0.0000
   3. Si 1 (s)      0.0000
   4. Si 1 (px)    -0.0107
   5. Si 1 (py)    -0.0044
   6. Si 1 (pz)     0.6780
   7. Si 1 (px)     0.1336
   8. Si 1 (py)     0.0554
   9. Si 1 (pz)     0.2437


 MO density matrix:

      MO     1       2       3       4       5       6       7       8       9
     ---- ------  ------  ------  ------  ------  ------  ------  ------  ------
   1.     2.0000  0.0000  0.0000  0.0000  0.0000  0.0000  0.0000  0.0000  0.0000
   2.     0.0000  2.0000  0.0000  0.0000  0.0000  0.0000  0.0000  0.0000  0.0000
   3.     0.0000  0.0000  2.0000  0.0000  0.0000  0.0000  0.0000  0.0000  0.0000
   4.     0.0000  0.0000  0.0000  2.0000  0.0000  0.0000  0.0000  0.0000  0.0000
   5.     0.0000  0.0000  0.0000  0.0000  2.0000  0.0000  0.0000  0.0000  0.0000
   6.     0.0000  0.0000  0.0000  0.0000  0.0000  2.0000  0.0000  0.0000  0.0000
   7.     0.0000  0.0000  0.0000  0.0000  0.0000  0.0000  2.0000  0.0000  0.0000
   8.     0.0000  0.0000  0.0000  0.0000  0.0000  0.0000  0.0000  0.0000  0.0000
   9.     0.0000  0.0000  0.0000  0.0000  0.0000  0.0000  0.0000  0.0000  0.0000


 NATURAL POPULATIONS:  Natural atomic orbital occupancies

  NAO Atom No lang   Type(AO)    Occupancy      Energy
 -------------------------------------------------------
   1   Si  1  s      Val( 3s)     2.00000      -3.55291
   2   Si  1  s      Cor( 2s)     2.00000     -10.93207
   3   Si  1  s      Cor( 1s)     2.00000     -59.38716
   4   Si  1  px     Cor( 2p)     2.00000      -3.76549
   5   Si  1  px     Val( 3p)     1.69516      -0.00316
   6   Si  1  py     Cor( 2p)     2.00000      -3.76653
   7   Si  1  py     Val( 3p)     0.29136       0.23678
   8   Si  1  pz     Cor( 2p)     2.00000      -3.76674
   9   Si  1  pz     Val( 3p)     0.01348       0.28427


 Summary of Natural Population Analysis:

                                     Natural Population
             Natural    ---------------------------------------------
  Atom No    Charge        Core      Valence    Rydberg      Total
 --------------------------------------------------------------------
   Si  1    0.00000     10.00000     4.00000    0.00000    14.00000
 ====================================================================
 * Total *  0.00000     10.00000     4.00000    0.00000    14.00000

                                 Natural Population
 ---------------------------------------------------------
   Core                      10.00000 (100.0000% of   10)
   Valence                    4.00000 (100.0000% of    4)
   Natural Minimal Basis     14.00000 (100.0000% of   14)
   Natural Rydberg Basis      0.00000 (  0.0000% of   14)
 ---------------------------------------------------------

    Atom No         Natural Electron Configuration
 ----------------------------------------------------------------------------
     Si  1      [core]3s( 2.00)3p( 2.00)


 PNAOs in the AO basis:

           AO          1       2       3       4       5       6       7       8
      ------------ ------- ------- ------- ------- ------- ------- ------- -------
   1. Si 1 (s)     -0.5355 -0.4164  0.8095  0.0000  0.0000  0.0000  0.0000  0.0000
   2. Si 1 (s)      0.5763  0.8536  0.3625  0.0000  0.0000  0.0000  0.0000  0.0000
   3. Si 1 (s)      0.6318 -0.8163  0.0957  0.0000  0.0000  0.0000  0.0000  0.0000
   4. Si 1 (px)     0.0000  0.0000  0.0000  0.9761 -0.3534  0.0000  0.0000  0.0000
   5. Si 1 (py)     0.0000  0.0000  0.0000  0.0000  0.0000  0.9761 -0.3534  0.0000
   6. Si 1 (pz)     0.0000  0.0000  0.0000  0.0000  0.0000  0.0000  0.0000  0.9761
   7. Si 1 (px)     0.0000  0.0000  0.0000  0.0784  1.0352  0.0000  0.0000  0.0000
   8. Si 1 (py)     0.0000  0.0000  0.0000  0.0000  0.0000  0.0784  1.0352  0.0000
   9. Si 1 (pz)     0.0000  0.0000  0.0000  0.0000  0.0000  0.0000  0.0000  0.0784

           AO          9
      ------------ -------
   1. Si 1 (s)      0.0000
   2. Si 1 (s)      0.0000
   3. Si 1 (s)      0.0000
   4. Si 1 (px)     0.0000
   5. Si 1 (py)     0.0000
   6. Si 1 (pz)    -0.3534
   7. Si 1 (px)     0.0000
   8. Si 1 (py)     0.0000
   9. Si 1 (pz)     1.0352


 PNAO overlap matrix:

           NAO         1       2       3       4       5       6       7       8
      ------------ ------- ------- ------- ------- ------- ------- ------- -------
   1. Si 1( 3s )    1.0000  0.0000  0.0000  0.0000  0.0000  0.0000  0.0000  0.0000
   2. Si 1( 2s )    0.0000  1.0000  0.0000  0.0000  0.0000  0.0000  0.0000  0.0000
   3. Si 1( 1s )    0.0000  0.0000  1.0000  0.0000  0.0000  0.0000  0.0000  0.0000
   4. Si 1( 2px)    0.0000  0.0000  0.0000  1.0000  0.0000  0.0000  0.0000  0.0000
   5. Si 1( 3px)    0.0000  0.0000  0.0000  0.0000  1.0000  0.0000  0.0000  0.0000
   6. Si 1( 2py)    0.0000  0.0000  0.0000  0.0000  0.0000  1.0000  0.0000  0.0000
   7. Si 1( 3py)    0.0000  0.0000  0.0000  0.0000  0.0000  0.0000  1.0000  0.0000
   8. Si 1( 2pz)    0.0000  0.0000  0.0000  0.0000  0.0000  0.0000  0.0000  1.0000
   9. Si 1( 3pz)    0.0000  0.0000  0.0000  0.0000  0.0000  0.0000  0.0000  0.0000

           NAO         9
      ------------ -------
   1. Si 1( 3s )    0.0000
   2. Si 1( 2s )    0.0000
   3. Si 1( 1s )    0.0000
   4. Si 1( 2px)    0.0000
   5. Si 1( 3px)    0.0000
   6. Si 1( 2py)    0.0000
   7. Si 1( 3py)    0.0000
   8. Si 1( 2pz)    0.0000
   9. Si 1( 3pz)    1.0000


 PNAO density matrix:

           NAO         1       2       3       4       5       6       7       8
      ------------ ------- ------- ------- ------- ------- ------- ------- -------
   1. Si 1( 3s )    2.0000  0.0000  0.0000  0.0000  0.0000  0.0000  0.0000  0.0000
   2. Si 1( 2s )    0.0000  2.0000  0.0000  0.0000  0.0000  0.0000  0.0000  0.0000
   3. Si 1( 1s )    0.0000  0.0000  2.0000  0.0000  0.0000  0.0000  0.0000  0.0000
   4. Si 1( 2px)    0.0000  0.0000  0.0000  2.0000  0.0000  0.0000  0.0000  0.0000
   5. Si 1( 3px)    0.0000  0.0000  0.0000  0.0000  1.6952  0.0000  0.7028  0.0000
   6. Si 1( 2py)    0.0000  0.0000  0.0000  0.0000  0.0000  2.0000  0.0000  0.0000
   7. Si 1( 3py)    0.0000  0.0000  0.0000  0.0000  0.7028  0.0000  0.2914  0.0000
   8. Si 1( 2pz)    0.0000  0.0000  0.0000  0.0000  0.0000  0.0000  0.0000  2.0000
   9. Si 1( 3pz)    0.0000  0.0000  0.0000  0.0000  0.1512  0.0000  0.0627  0.0000

           NAO         9
      ------------ -------
   1. Si 1( 3s )    0.0000
   2. Si 1( 2s )    0.0000
   3. Si 1( 1s )    0.0000
   4. Si 1( 2px)    0.0000
   5. Si 1( 3px)    0.1512
   6. Si 1( 2py)    0.0000
   7. Si 1( 3py)    0.0627
   8. Si 1( 2pz)    0.0000
   9. Si 1( 3pz)    0.0135


 NAOs in the AO basis:

           AO          1       2       3       4       5       6       7       8
      ------------ ------- ------- ------- ------- ------- ------- ------- -------
   1. Si 1 (s)     -0.4164 -0.5355  0.8095  0.0000  0.0000  0.0000  0.0000  0.0000
   2. Si 1 (s)      0.8536  0.5763  0.3625  0.0000  0.0000  0.0000  0.0000  0.0000
   3. Si 1 (s)     -0.8163  0.6318  0.0957  0.0000  0.0000  0.0000  0.0000  0.0000
   4. Si 1 (px)     0.0000  0.0000  0.0000  0.9761 -0.3534  0.0000  0.0000  0.0000
   5. Si 1 (py)     0.0000  0.0000  0.0000  0.0000  0.0000  0.9761 -0.3534  0.0000
   6. Si 1 (pz)     0.0000  0.0000  0.0000  0.0000  0.0000  0.0000  0.0000  0.9761
   7. Si 1 (px)     0.0000  0.0000  0.0000  0.0784  1.0352  0.0000  0.0000  0.0000
   8. Si 1 (py)     0.0000  0.0000  0.0000  0.0000  0.0000  0.0784  1.0352  0.0000
   9. Si 1 (pz)     0.0000  0.0000  0.0000  0.0000  0.0000  0.0000  0.0000  0.0784

           AO          9
      ------------ -------
   1. Si 1 (s)      0.0000
   2. Si 1 (s)      0.0000
   3. Si 1 (s)      0.0000
   4. Si 1 (px)     0.0000
   5. Si 1 (py)     0.0000
   6. Si 1 (pz)    -0.3534
   7. Si 1 (px)     0.0000
   8. Si 1 (py)     0.0000
   9. Si 1 (pz)     1.0352


 NAO density matrix:

           NAO         1       2       3       4       5       6       7       8
      ------------ ------- ------- ------- ------- ------- ------- ------- -------
   1. Si 1( 3s )    2.0000  0.0000  0.0000  0.0000  0.0000  0.0000  0.0000  0.0000
   2. Si 1( 2s )    0.0000  2.0000  0.0000  0.0000  0.0000  0.0000  0.0000  0.0000
   3. Si 1( 1s )    0.0000  0.0000  2.0000  0.0000  0.0000  0.0000  0.0000  0.0000
   4. Si 1( 2px)    0.0000  0.0000  0.0000  2.0000  0.0000  0.0000  0.0000  0.0000
   5. Si 1( 3px)    0.0000  0.0000  0.0000  0.0000  1.6952  0.0000  0.7028  0.0000
   6. Si 1( 2py)    0.0000  0.0000  0.0000  0.0000  0.0000  2.0000  0.0000  0.0000
   7. Si 1( 3py)    0.0000  0.0000  0.0000  0.0000  0.7028  0.0000  0.2914  0.0000
   8. Si 1( 2pz)    0.0000  0.0000  0.0000  0.0000  0.0000  0.0000  0.0000  2.0000
   9. Si 1( 3pz)    0.0000  0.0000  0.0000  0.0000  0.1512  0.0000  0.0627  0.0000

           NAO         9
      ------------ -------
   1. Si 1( 3s )    0.0000
   2. Si 1( 2s )    0.0000
   3. Si 1( 1s )    0.0000
   4. Si 1( 2px)    0.0000
   5. Si 1( 3px)    0.1512
   6. Si 1( 2py)    0.0000
   7. Si 1( 3py)    0.0627
   8. Si 1( 2pz)    0.0000
   9. Si 1( 3pz)    0.0135


 NATURAL BOND ORBITAL ANALYSIS:

 Initiate 1-center NBO search using THRESH = 1.000 and PRJTHR = 0.300

 Search of NAO DM block for core orbitals on atom:   1
      Eigenvector ( 1) has occupancy 2.00000
            0.0000 1.0000 0.0000 0.0000 0.0000 0.0000 0.0000 0.0000
            0.0000
      Eigenvector ( 2) has occupancy 2.00000
            0.0000 0.0000 1.0000 0.0000 0.0000 0.0000 0.0000 0.0000
            0.0000
      Eigenvector ( 3) has occupancy 2.00000
            0.0000 0.0000 0.0000 1.0000 0.0000 0.0000 0.0000 0.0000
            0.0000
      Eigenvector ( 4) has occupancy 2.00000
            0.0000 0.0000 0.0000 0.0000 0.0000 1.0000 0.0000 0.0000
            0.0000
      Eigenvector ( 5) has occupancy 2.00000
            0.0000 0.0000 0.0000 0.0000 0.0000 0.0000 0.0000 1.0000
            0.0000
        5 eigenvector(s) stashed in permanent list

 Core orbitals projected from the NAO density matrix
       4.000 electrons remain (>1.000); search continues

 Search of NAO DM block for the following atom(s):   1
      Select eigenvectors with eigenvalue > 1.000
       2.000 2.000 0.000 0.000 0.000 0.000 0.000 0.000 0.000
      Eigenvector ( 1) has occupancy 2.00000
           -0.0239 0.0000 0.0000 0.0000 0.9204 0.0000 0.3816 0.0000
            0.0821
      Eigenvector ( 2) has occupancy 2.00000
            0.9997 0.0000 0.0000 0.0000 0.0220 0.0000 0.0091 0.0000
            0.0020
      2 hybrids on atom 1 stashed in prospective list

 Stash prospective hybrids having projection expectation value > 0.300
       1.000 1.000
      0 hybrids eliminated in 1 pass
      2 hybrids moved from prospective to permanent list

 NHOs of 1-center eigenvectors projected from the NAO density matrix
       0.000 electrons remain in the fully projected matrix

 Search of NHO DM block for the following atom(s):   1
      Select eigenvectors with eigenvalue > 1.000
       2.000 2.000 2.000 2.000 2.000 2.000 2.000 0.000 0.000
      Eigenvector ( 1) has occupancy 2.00000
            1.0000 0.0000 0.0000 0.0000 0.0000 0.0000 0.0000 0.0000
            0.0000
           NBO accepted:    1. Label:CR ( 1)   1
      Eigenvector ( 2) has occupancy 2.00000
            0.0000 1.0000 0.0000 0.0000 0.0000 0.0000 0.0000 0.0000
            0.0000
           NBO accepted:    2. Label:CR ( 2)   1
      Eigenvector ( 3) has occupancy 2.00000
            0.0000 0.0000 1.0000 0.0000 0.0000 0.0000 0.0000 0.0000
            0.0000
           NBO accepted:    3. Label:CR ( 3)   1
      Eigenvector ( 4) has occupancy 2.00000
            0.0000 0.0000 0.0000 1.0000 0.0000 0.0000 0.0000 0.0000
            0.0000
           NBO accepted:    4. Label:CR ( 4)   1
      Eigenvector ( 5) has occupancy 2.00000
            0.0000 0.0000 0.0000 0.0000 1.0000 0.0000 0.0000 0.0000
            0.0000
           NBO accepted:    5. Label:CR ( 5)   1
      Eigenvector ( 6) has occupancy 2.00000
            0.0000 0.0000 0.0000 0.0000 0.0000 1.0000 0.0000 0.0000
            0.0000
           NBO accepted:    6. Label:LP ( 1)   1
      Eigenvector ( 7) has occupancy 2.00000
            0.0000 0.0000 0.0000 0.0000 0.0000 0.0000 1.0000 0.0000
            0.0000
           NBO accepted:    7. Label:LP ( 2)   1
        7 eigenvector(s) stashed in permanent list

  1-center NBOs projected from the NHO density matrix
       0.000 electrons remain in the fully projected matrix

                            Occupancies       Lewis Structure    Low   High
         Max    Occ     -------------------  -----------------   occ   occ
  Cycle  Ctr   Thresh    Lewis   non-Lewis     CR  BD  nC  LP    (L)   (NL)
 ============================================================================
    1     1     1.00    14.00000   0.00000      5   0   0   2     0      0
 ----------------------------------------------------------------------------

 Structure accepted: No low occupancy Lewis orbitals

 -------------------------------------------------------
   Core                     10.00000 (100.000% of  10)
   Valence Lewis             4.00000 (100.000% of   4)
  ==================      =============================
   Total Lewis              14.00000 (100.000% of  14)
  -----------------------------------------------------
   Valence non-Lewis         0.00000 (  0.000% of  14)
   Rydberg non-Lewis         0.00000 (  0.000% of  14)
  ==================      =============================
   Total non-Lewis           0.00000 (  0.000% of  14)
 -------------------------------------------------------


     (Occupancy)   Bond orbital / Coefficients / Hybrids
 ------------------ Lewis ------------------------------------------------------
   1. (2.00000) CR ( 1)Si  1            s(100.00%)
                                         0.0000  1.0000  0.0000  0.0000  0.0000
                                         0.0000  0.0000  0.0000  0.0000
   2. (2.00000) CR ( 2)Si  1            s(100.00%)
                                         0.0000  0.0000  1.0000  0.0000  0.0000
                                         0.0000  0.0000  0.0000  0.0000
   3. (2.00000) CR ( 3)Si  1            s(  0.00%)p 1.00(100.00%)
                                         0.0000  0.0000  0.0000  1.0000  0.0000
                                         0.0000  0.0000  0.0000  0.0000
   4. (2.00000) CR ( 4)Si  1            s(  0.00%)p 1.00(100.00%)
                                         0.0000  0.0000  0.0000  0.0000  0.0000
                                         1.0000  0.0000  0.0000  0.0000
   5. (2.00000) CR ( 5)Si  1            s(  0.00%)p 1.00(100.00%)
                                         0.0000  0.0000  0.0000  0.0000  0.0000
                                         0.0000  0.0000  1.0000  0.0000
   6. (2.00000) LP ( 1)Si  1            s(  0.06%)p99.99( 99.94%)
                                         0.0239  0.0000  0.0000  0.0000 -0.9204
                                         0.0000 -0.3816  0.0000 -0.0821
   7. (2.00000) LP ( 2)Si  1            s( 99.94%)p 0.00(  0.06%)
                                         0.9997  0.0000  0.0000  0.0000  0.0220
                                         0.0000  0.0091  0.0000  0.0020
 ---------------- non-Lewis ----------------------------------------------------
   8. (0.00000) LV ( 1)Si  1            s(  0.00%)p 1.00(100.00%)
   9. (0.00000) LV ( 2)Si  1            s(  0.00%)p 1.00(100.00%)


 NHO DIRECTIONALITY AND BOND BENDING (deviation from line of nuclear centers at
                                      the position of maximum hybrid amplitude)

         [Thresholds for printing:  angular deviation  >  1.0 degree]
                                    p- or d-character  > 25.0%
                                    orbital occupancy  >  0.10e

                        Line of Centers        Hybrid 1             Hybrid 2
                        ---------------  -------------------  ------------------
           NBO            Theta   Phi    Theta   Phi    Dev   Theta   Phi    Dev
 ===============================================================================
   6. LP ( 1)Si  1          --     --     85.3   22.5   --      --     --    --


 SECOND ORDER PERTURBATION THEORY ANALYSIS OF FOCK MATRIX IN NBO BASIS

     Threshold for printing:   0.50 kcal/mol
                                                          E(2) E(NL)-E(L) F(L,NL)
      Donor (L) NBO              Acceptor (NL) NBO      kcal/mol   a.u.    a.u.
 ===============================================================================

 within unit  1
       None above threshold


 NATURAL BOND ORBITALS (Summary):

                                                     Principal Delocalizations
           NBO                 Occupancy    Energy   (geminal,vicinal,remote)
 ===============================================================================
 Molecular unit  1  (Si)
 ------ Lewis --------------------------------------
    1. CR ( 1)Si  1             2.00000   -10.93207
    2. CR ( 2)Si  1             2.00000   -59.38716
    3. CR ( 3)Si  1             2.00000    -3.76549
    4. CR ( 4)Si  1             2.00000    -3.76653
    5. CR ( 5)Si  1             2.00000    -3.76674
    6. LP ( 1)Si  1             2.00000    -0.05726
    7. LP ( 2)Si  1             2.00000    -3.55091
 ------ non-Lewis ----------------------------------
    8. LV ( 1)Si  1             0.00000     0.28658
    9. LV ( 2)Si  1             0.00000     0.28658
          -------------------------------
                 Total Lewis   14.00000  (100.0000%)
           Valence non-Lewis    0.00000  (  0.0000%)
           Rydberg non-Lewis    0.00000  (  0.0000%)
          -------------------------------
               Total unit  1   14.00000  (100.0000%)
              Charge unit  1    0.00000

 $CHOOSE
   LONE 1 2 END
 $END

 NBO analysis completed in 0.10 CPU seconds (1 wall second)
 Maximum scratch memory used by NBO was 261530 words (2.00 MB)
 Maximum scratch memory used by G16NBO was 8216 words (0.06 MB)

 Opening RunExU unformatted file "/cluster/work/users/beto93/mol00/Gau-4165230.EUF"
 Read unf file /cluster/work/users/beto93/mol00/Gau-4165230.EUF:
 Label Gaussian matrix elements                                         IVers= 2 NLab= 2 Version=ES64L-G16RevC.01
 Title NBO-Si                                                          
 NAtoms=     1 NBasis=     9 NBsUse=     9 ICharg=     0 Multip=     1 NE=    14 Len12L=8 Len4L=8 IOpCl= 0 ICGU=111
 GAUSSIAN SCALARS                    NI= 1 NR= 1 NTot=       1 LenBuf=    2 NRI=1 N=    1000
 NPA CHARGES                         NI= 0 NR= 1 NTot=       1 LenBuf= 4000 NRI=1 N=       1
 Recovered energy= -285.383974201     dipole=     -0.000000000000     -0.000000000000      0.000000000000
 Unable to Open any file for archive entry.
 1\1\GINC-C1-7\SP\RHF\Gen\Si1\BETO93\08-Jan-2025\0\\#RHF/Gen 5D 7F int=
 nobasistransform Symmetry=NONE Pop=NBO7Read\\NBO-Si\\0,1\Si,0,0.,0.,0.
 \\Version=ES64L-G16RevC.01\HF=-285.3839742\RMSD=9.196e-09\Dipole=0.,0.
 ,0.\Quadrupole=-1.9605346,0.715423,1.2451116,-1.3396428,-0.2881612,-0.
 1194652\PG=Unknown\\@
 The archive entry for this job was punched.


 THE FIRST MORNING OF CREATION WROTE WHAT THE LAST DAWN OF
 RECKONING SHALL READ. -- OMAR KHAYYAM
 Job cpu time:       0 days  0 hours  0 minutes 12.8 seconds.
 Elapsed time:       0 days  0 hours  0 minutes  4.3 seconds.
 File lengths (MBytes):  RWF=     10 Int=      0 D2E=      0 Chk=      1 Scr=      1
 Normal termination of Gaussian 16 at Wed Jan  8 08:57:52 2025.
