 Entering Gaussian System, Link 0=g16
 Initial command:
 /cluster/software/Gaussian/g16_C.01/l1.exe "/cluster/work/users/beto93/LiH/Gau-3739908.inp" -scrdir="/cluster/work/users/beto93/LiH/"
 Entering Link 1 = /cluster/software/Gaussian/g16_C.01/l1.exe PID=   3739909.
  
 Copyright (c) 1988-2019, Gaussian, Inc.  All Rights Reserved.
  
 This is part of the Gaussian(R) 16 program.  It is based on
 the Gaussian(R) 09 system (copyright 2009, Gaussian, Inc.),
 the Gaussian(R) 03 system (copyright 2003, Gaussian, Inc.),
 the Gaussian(R) 98 system (copyright 1998, Gaussian, Inc.),
 the Gaussian(R) 94 system (copyright 1995, Gaussian, Inc.),
 the Gaussian 92(TM) system (copyright 1992, Gaussian, Inc.),
 the Gaussian 90(TM) system (copyright 1990, Gaussian, Inc.),
 the Gaussian 88(TM) system (copyright 1988, Gaussian, Inc.),
 the Gaussian 86(TM) system (copyright 1986, Carnegie Mellon
 University), and the Gaussian 82(TM) system (copyright 1983,
 Carnegie Mellon University). Gaussian is a federally registered
 trademark of Gaussian, Inc.
  
 This software contains proprietary and confidential information,
 including trade secrets, belonging to Gaussian, Inc.
  
 This software is provided under written license and may be
 used, copied, transmitted, or stored only in accord with that
 written license.
  
 The following legend is applicable only to US Government
 contracts under FAR:
  
                    RESTRICTED RIGHTS LEGEND
  
 Use, reproduction and disclosure by the US Government is
 subject to restrictions as set forth in subparagraphs (a)
 and (c) of the Commercial Computer Software - Restricted
 Rights clause in FAR 52.227-19.
  
 Gaussian, Inc.
 340 Quinnipiac St., Bldg. 40, Wallingford CT 06492
  
  
 ---------------------------------------------------------------
 Warning -- This program may not be used in any manner that
 competes with the business of Gaussian, Inc. or will provide
 assistance to any competitor of Gaussian, Inc.  The licensee
 of this program is prohibited from giving any competitor of
 Gaussian, Inc. access to this program.  By using this program,
 the user acknowledges that Gaussian, Inc. is engaged in the
 business of creating and licensing software in the field of
 computational chemistry and represents and warrants to the
 licensee that it is not a competitor of Gaussian, Inc. and that
 it will not use this program in any manner prohibited above.
 ---------------------------------------------------------------
  

 Cite this work as:
 Gaussian 16, Revision C.01,
 M. J. Frisch, G. W. Trucks, H. B. Schlegel, G. E. Scuseria, 
 M. A. Robb, J. R. Cheeseman, G. Scalmani, V. Barone, 
 G. A. Petersson, H. Nakatsuji, X. Li, M. Caricato, A. V. Marenich, 
 J. Bloino, B. G. Janesko, R. Gomperts, B. Mennucci, H. P. Hratchian, 
 J. V. Ortiz, A. F. Izmaylov, J. L. Sonnenberg, D. Williams-Young, 
 F. Ding, F. Lipparini, F. Egidi, J. Goings, B. Peng, A. Petrone, 
 T. Henderson, D. Ranasinghe, V. G. Zakrzewski, J. Gao, N. Rega, 
 G. Zheng, W. Liang, M. Hada, M. Ehara, K. Toyota, R. Fukuda, 
 J. Hasegawa, M. Ishida, T. Nakajima, Y. Honda, O. Kitao, H. Nakai, 
 T. Vreven, K. Throssell, J. A. Montgomery, Jr., J. E. Peralta, 
 F. Ogliaro, M. J. Bearpark, J. J. Heyd, E. N. Brothers, K. N. Kudin, 
 V. N. Staroverov, T. A. Keith, R. Kobayashi, J. Normand, 
 K. Raghavachari, A. P. Rendell, J. C. Burant, S. S. Iyengar, 
 J. Tomasi, M. Cossi, J. M. Millam, M. Klene, C. Adamo, R. Cammi, 
 J. W. Ochterski, R. L. Martin, K. Morokuma, O. Farkas, 
 J. B. Foresman, and D. J. Fox, Gaussian, Inc., Wallingford CT, 2019.
 
 ******************************************
 Gaussian 16:  ES64L-G16RevC.01  3-Jul-2019
                29-Jul-2024 
 ******************************************
 %LindaWorkers=c2-16-ib
 %NProcShared=4
 Will use up to    4 processors via shared memory.
 %mem=25GB
 %chk=LiH.chk
 SetLPE:    new flags="-opt 'Tsnet.Node.lindarsharg: ssh'  -nodelist 'c2-16-ib.saga' -env GAUSS_MDEF=3355443200 -env GAUSS_EXEDIR="/cluster/software/Gaussian/g16_C.01/bsd:/cluster/software/Gaussian/g16_C.01""
 Will use up to    1 processors via Linda.
 ----------------------------------------------------
 #OPT=VeryTight Int=UltraFine RHF/STO-3G Pop=NBO7Read
 ----------------------------------------------------
 1/7=1,18=20,19=15,38=1,163=2/1,3;
 2/9=110,12=2,17=6,18=5,40=1/2;
 3/6=3,11=1,25=1,30=1,71=1,75=-5,116=1/1,2,3;
 4//1;
 5/5=2,38=5/2;
 6/7=2,8=2,9=2,10=2,28=1,40=2,113=1,114=1,124=2103/1,12;
 7//1,2,3,16;
 1/7=1,18=20,19=15/3(2);
 2/9=110/2;
 99//99;
 2/9=110/2;
 3/6=3,11=1,25=1,30=1,71=1,75=-5,116=1/1,2,3;
 4/5=5,16=3,69=1/1;
 5/5=2,38=5/2;
 7//1,2,3,16;
 1/7=1,18=20,19=15/3(-5);
 2/9=110/2;
 6/7=2,8=2,9=2,10=2,19=2,28=1,40=2,113=1,114=1,124=2103/1,12;
 99/9=1/99;
 -------
 NBO-LiH
 -------
 Symbolic Z-matrix:
 Charge =  0 Multiplicity = 1
 Li                    0.        0.        0. 
 H                     0.        0.        1.59 
 

 GradGradGradGradGradGradGradGradGradGradGradGradGradGradGradGradGradGrad
 Berny optimization.
 Initialization pass.
                           ----------------------------
                           !    Initial Parameters    !
                           ! (Angstroms and Degrees)  !
 --------------------------                            --------------------------
 ! Name  Definition              Value          Derivative Info.                !
 --------------------------------------------------------------------------------
 ! R1    R(1,2)                  1.59           estimate D2E/DX2                !
 --------------------------------------------------------------------------------
 Trust Radius=3.00D-01 FncErr=1.00D-07 GrdErr=1.00D-07 EigMax=2.50D+02 EigMin=1.00D-04
 Number of steps in this run=     20 maximum allowed number of steps=    100.
 GradGradGradGradGradGradGradGradGradGradGradGradGradGradGradGradGradGrad

                          Input orientation:                          
 ---------------------------------------------------------------------
 Center     Atomic      Atomic             Coordinates (Angstroms)
 Number     Number       Type             X           Y           Z
 ---------------------------------------------------------------------
      1          3           0        0.000000    0.000000    0.000000
      2          1           0        0.000000    0.000000    1.590000
 ---------------------------------------------------------------------
 Stoichiometry    HLi
 Framework group  C*V[C*(HLi)]
 Deg. of freedom     1
 Full point group                 C*V     NOp   4
 Largest Abelian subgroup         C2V     NOp   4
 Largest concise Abelian subgroup C1      NOp   1
                         Standard orientation:                         
 ---------------------------------------------------------------------
 Center     Atomic      Atomic             Coordinates (Angstroms)
 Number     Number       Type             X           Y           Z
 ---------------------------------------------------------------------
      1          3           0        0.000000    0.000000    0.397500
      2          1           0        0.000000    0.000000   -1.192500
 ---------------------------------------------------------------------
 Rotational constants (GHZ):           0.0000000         226.8452253         226.8452253
 Standard basis: STO-3G (5D, 7F)
 There are     4 symmetry adapted cartesian basis functions of A1  symmetry.
 There are     0 symmetry adapted cartesian basis functions of A2  symmetry.
 There are     1 symmetry adapted cartesian basis functions of B1  symmetry.
 There are     1 symmetry adapted cartesian basis functions of B2  symmetry.
 There are     4 symmetry adapted basis functions of A1  symmetry.
 There are     0 symmetry adapted basis functions of A2  symmetry.
 There are     1 symmetry adapted basis functions of B1  symmetry.
 There are     1 symmetry adapted basis functions of B2  symmetry.
     6 basis functions,    18 primitive gaussians,     6 cartesian basis functions
     2 alpha electrons        2 beta electrons
       nuclear repulsion energy         0.9984475678 Hartrees.
 NAtoms=    2 NActive=    2 NUniq=    2 SFac= 1.00D+00 NAtFMM=   60 NAOKFM=F Big=F
 Integral buffers will be    131072 words long.
 Raffenetti 1 integral format.
 Two-electron integral symmetry is turned on.
 One-electron integrals computed using PRISM.
 NBasis=     6 RedAO= T EigKep=  3.44D-01  NBF=     4     0     1     1
 NBsUse=     6 1.00D-06 EigRej= -1.00D+00 NBFU=     4     0     1     1
 ExpMin= 4.81D-02 ExpMax= 1.61D+01 ExpMxC= 1.61D+01 IAcc=3 IRadAn=         5 AccDes= 0.00D+00
 Harris functional with IExCor=  205 and IRadAn=       5 diagonalized for initial guess.
 HarFok:  IExCor=  205 AccDes= 0.00D+00 IRadAn=         5 IDoV= 1 UseB2=F ITyADJ=14
 ICtDFT=  3500011 ScaDFX=  1.000000  1.000000  1.000000  1.000000
 FoFCou: FMM=F IPFlag=           0 FMFlag=      100000 FMFlg1=           0
         NFxFlg=           0 DoJE=T BraDBF=F KetDBF=T FulRan=T
         wScrn=  0.000000 ICntrl=       500 IOpCl=  0 I1Cent=   200000004 NGrid=           0
         NMat0=    1 NMatS0=      1 NMatT0=    0 NMatD0=    1 NMtDS0=    0 NMtDT0=    0
 Petite list used in FoFCou.
 Initial guess orbital symmetries:
       Occupied  (SG) (SG)
       Virtual   (SG) (PI) (PI) (SG)
 The electronic state of the initial guess is 1-SG.
 Keep R1 ints in memory in symmetry-blocked form, NReq=802321.
 Requested convergence on RMS density matrix=1.00D-08 within 128 cycles.
 Requested convergence on MAX density matrix=1.00D-06.
 Requested convergence on             energy=1.00D-06.
 No special actions if energy rises.
 SCF Done:  E(RHF) =  -7.86217483352     A.U. after    8 cycles
            NFock=  8  Conv=0.36D-08     -V/T= 1.9880

 **********************************************************************

            Population analysis using the SCF Density.

 **********************************************************************

 Orbital symmetries:
       Occupied  (SG) (SG)
       Virtual   (SG) (PI) (PI) (SG)
 The electronic state is 1-SG.
 Alpha  occ. eigenvalues --   -2.34853  -0.28612
 Alpha virt. eigenvalues --    0.07830   0.16393   0.16393   0.55049
          Condensed to atoms (all electrons):
               1          2
     1  Li   2.634138   0.382060
     2  H    0.382060   0.601742
 Mulliken charges:
               1
     1  Li  -0.016198
     2  H    0.016198
 Sum of Mulliken charges =  -0.00000
 Mulliken charges with hydrogens summed into heavy atoms:
               1
     1  Li  -0.000000
 Electronic spatial extent (au):  <R**2>=             18.3079
 Charge=             -0.0000 electrons
 Dipole moment (field-independent basis, Debye):
    X=              0.0000    Y=              0.0000    Z=              4.8563  Tot=              4.8563
 Quadrupole moment (field-independent basis, Debye-Ang):
   XX=             -5.2758   YY=             -5.2758   ZZ=             -4.9660
   XY=              0.0000   XZ=              0.0000   YZ=              0.0000
 Traceless Quadrupole moment (field-independent basis, Debye-Ang):
   XX=             -0.1033   YY=             -0.1033   ZZ=              0.2065
   XY=              0.0000   XZ=              0.0000   YZ=              0.0000
 Octapole moment (field-independent basis, Debye-Ang**2):
  XXX=              0.0000  YYY=              0.0000  ZZZ=              9.6472  XYY=              0.0000
  XXY=              0.0000  XXZ=              3.3410  XZZ=              0.0000  YZZ=              0.0000
  YYZ=              3.3410  XYZ=              0.0000
 Hexadecapole moment (field-independent basis, Debye-Ang**3):
 XXXX=            -12.4496 YYYY=            -12.4496 ZZZZ=            -23.1218 XXXY=              0.0000
 XXXZ=              0.0000 YYYX=              0.0000 YYYZ=              0.0000 ZZZX=              0.0000
 ZZZY=              0.0000 XXYY=             -4.1499 XXZZ=             -5.9281 YYZZ=             -5.9281
 XXYZ=              0.0000 YYXZ=              0.0000 ZZXY=              0.0000
 N-N= 9.984475677736D-01 E-N=-2.040925098681D+01  KE= 7.957313411310D+00
 Symmetry A1   KE= 7.957313411310D+00
 Symmetry A2   KE= 0.000000000000D+00
 Symmetry B1   KE= 0.000000000000D+00
 Symmetry B2   KE= 0.000000000000D+00
 Running external command "gaunbo7 R"
         input file       "/cluster/work/users/beto93/LiH/Gau-3739909.EIn"
         output file      "/cluster/work/users/beto93/LiH/Gau-3739909.EOu"
         message file     "/cluster/work/users/beto93/LiH/Gau-3739909.EMs"
         fchk file        "/cluster/work/users/beto93/LiH/Gau-3739909.EFC"
         mat. el file     "/cluster/work/users/beto93/LiH/Gau-3739909.EUF"

 Writing WrtUnf unformatted file "/cluster/work/users/beto93/LiH/Gau-3739909.EUF"
 Gaussian matrix elements                                         Version   2 NLab=11 Len12L=8 Len4L=8
 Write SHELL TO ATOM MAP                   from file      0 offset           0 length                   3 to matrix element file.
 Write SHELL TYPES                         from file      0 offset           0 length                   3 to matrix element file.
 Write NUMBER OF PRIMITIVES PER SHELL      from file      0 offset           0 length                   3 to matrix element file.
 Write PRIMITIVE EXPONENTS                 from file      0 offset           0 length                   9 to matrix element file.
 Write CONTRACTION COEFFICIENTS            from file      0 offset           0 length                   9 to matrix element file.
 Write P(S=P) CONTRACTION COEFFICIENTS     from file      0 offset           0 length                   9 to matrix element file.
 Write COORDINATES OF EACH SHELL           from file      0 offset           0 length                   9 to matrix element file.
 Write BONDS PER ATOM                      from file      0 offset           0 length                   2 to matrix element file.
 Write BONDED ATOMS                        from file      0 offset           0 length                   2 to matrix element file.
 Write BOND TYPES                          from file      0 offset           0 length                   2 to matrix element file.
 Write ONIOM CHARGE/MULT                   from file      0 offset           0 length                  32 to matrix element file.
 Write ONIOM ATOM LAYERS                   from file      0 offset           0 length                   2 to matrix element file.
 Write ONIOM ATOM MODIFIERS                from file      0 offset           0 length                   2 to matrix element file.
 Write ONIOM ATOM TYPES                    from file      0 offset           0 length                   2 to matrix element file.
 Write ONIOM LINK ATOMS                    from file      0 offset           0 length                   2 to matrix element file.
 Write ONIOM LINK CHARGES                  from file      0 offset           0 length                   2 to matrix element file.
 Write ONIOM LINK DISTANCES                from file      0 offset           0 length                   8 to matrix element file.
 Write SYMINF INTS                         from file      0 offset           0 length                  26 to matrix element file.
 Write ROTTR TO SO                         from file      0 offset           0 length                  12 to matrix element file.
 Write GAUSSIAN SCALARS                    from file    501 offset           0 to matrix element file.
 Write OPTIMIZATION FLAGS                  from file      0 offset           0 length                   2 to matrix element file.
 Write INTEGER ISO                         from file      0 offset           0 length                   2 to matrix element file.
 Write INTEGER SPIN                        from file      0 offset           0 length                   2 to matrix element file.
 Write REAL ZEFFECTIVE                     from file      0 offset           0 length                   2 to matrix element file.
 Write REAL QUADRUPOLEMOMENT               from file      0 offset           0 length                   2 to matrix element file.
 Write REAL GFACTOR                        from file      0 offset           0 length                   2 to matrix element file.
 Write REAL ZNUCLEAR                       from file      0 offset           0 length                   2 to matrix element file.
 Write MULLIKEN CHARGES                    from file      0 offset           0 length                   2 to matrix element file.
 Write NUCLEAR GRADIENT                    from file  10584 offset           0 length                   6 to matrix element file.
 Array NUCLEAR FORCE CONSTANTS              on  file  10585 does not exist.
 Write ELECTRIC DIPOLE MOMENT              from file      0 offset           0 length                   3 to matrix element file.
 Write NON-ADIABATIC COUPLING              from file  10810 offset           0 length                   6 to matrix element file.
 Write RED INT COORD DIMS                  from file      0 offset           0 length                   4 to matrix element file.
 Write RED INT COORD ATOMS                 from file      0 offset           0 length                   4 to matrix element file.
 Write RED INT COORD VALS                  from file      0 offset           0 length                   1 to matrix element file.
 Write RED INT COORD IFLAGS                from file      0 offset           0 length                   1 to matrix element file.
 Write RED INT COORD RFLAGS                from file      0 offset           0 length                   1 to matrix element file.
 Write RED INT COORD CONSTRAINT            from file      0 offset           0 length                   2 to matrix element file.
 Write FINITE EM FIELD                     from file  10521 offset           0 length                  35 to matrix element file.
 Write OVERLAP                             from file  10514 offset           0 length                  21 to matrix element file.
 Write CORE HAMILTONIAN ALPHA              from file  10515 offset           0 length                  21 to matrix element file.
 Write CORE HAMILTONIAN BETA               from file  10515 offset          21 length                  21 to matrix element file.
 Write KINETIC ENERGY                      from file  10516 offset           0 length                  21 to matrix element file.
 Write ORTHOGONAL BASIS                    from file  10685 offset           0 length                  36 to matrix element file.
 Write DIPOLE INTEGRALS                    from file  10518 offset           0 length                  63 to matrix element file.
 Array DIP VEL INTEGRALS                    on  file  10572 does not exist.
 Array R X DEL INTEGRALS                    on  file  10572 does not exist.
 Write ALPHA ORBITAL ENERGIES              from file      0 offset           0 length                   6 to matrix element file.
 Write ALPHA MO COEFFICIENTS               from file  10524 offset           0 length                  36 to matrix element file.
 Write ALPHA DENSITY MATRIX                from file      0 offset           0 length                  21 to matrix element file.
 Write ALPHA FOCK MATRIX                   from file  10536 offset           0 length                  21 to matrix element file.
 Write ENERGY-WEIGHTED DENSITY             from file  10571 offset           0 length                  21 to matrix element file.
 Write ALPHA SCF DENSITY MATRIX            from file      0 offset           0 length                  21 to matrix element file.
 No 2e integrals to process.
 Perform NBO analysis...executing G16NBO...

 *********************************** NBO 7.0 ***********************************

   Unrecognized $NBO keyword: SNAO
   Unrecognized $NBO keyword: AR
   Unrecognized $NBO keyword: CHIVE

 *********************************** NBO 7.0 ***********************************
             N A T U R A L   A T O M I C   O R B I T A L   A N D
          N A T U R A L   B O N D   O R B I T A L   A N A L Y S I S
 **************************** Espen Tangen (S101595) ***************************
  (c) Copyright 1996-2021 Board of Regents of the University of Wisconsin System
      on behalf of the Theoretical Chemistry Institute.  All rights reserved.

          Cite this program [NBO 7.0.10 (8-Feb-2021)] as:

          NBO 7.0.  E. D. Glendening, J. K. Badenhoop, A. E. Reed,
          J. E. Carpenter, J. A. Bohmann, C. M. Morales, P. Karafiloglou,
          C. R. Landis, and F. Weinhold, Theoretical Chemistry Institute,
          University of Wisconsin, Madison, WI (2018)

       /NPA    / : Natural Population Analysis
       /AOPNAO / : Print the AO to PNAO transformation
       /AONAO  / : Print the AO to NAO transformation
       /AONO   / : Print the NOs in the AO basis
       /AOMO   / : Print the MOs in the AO basis
       /BOAO   / : Print the AO bond-order matrix
       /DMAO   / : Print the AO density matrix
       /DMPNAO / : Print the PNAO density matrix
       /DMNAO  / : Print the NAO density matrix
       /DMMO   / : Print the MO density matrix
       /SAO    / : Print the AO overlap matrix
       /SPNAO  / : Print the PNAO overlap matrix
       /DETAIL / : Write details of NBO search
       /AOINFO / : Write AO information to lfn31
       /FILE   / : Set to LiH

 Filename set to LiH

 Job title: NBO-LiH


 MOs in the AO basis:

           AO          1       2       3       4       5       6
      ------------ ------- ------- ------- ------- ------- -------
   1. Li 1 (s)      0.9912 -0.1677 -0.2099  0.0000  0.0000  0.0922
   2. Li 1 (s)      0.0327  0.4544  0.7997  0.0000  0.0000 -0.7067
   3. Li 1 (px)     0.0000  0.0000  0.0000  1.0000  0.0000  0.0000
   4. Li 1 (py)     0.0000  0.0000  0.0000  0.0000  1.0000  0.0000
   5. Li 1 (pz)     0.0064 -0.3464  0.6122  0.0000  0.0000  0.9825
   6.  H 2 (s)      0.0046  0.5485 -0.1394  0.0000  0.0000  1.1899


 NOs in the AO basis:

           AO          1       2       3       4       5       6
      ------------ ------- ------- ------- ------- ------- -------
   1. Li 1 (s)      1.0001  0.1028  0.2139  0.0000 -0.0105 -0.0820
   2. Li 1 (s)     -0.0898  0.4466 -0.8387  0.0000 -0.0335  0.6591
   3. Li 1 (px)     0.0000  0.0000  0.1295  0.0000  0.9682  0.2140
   4. Li 1 (py)     0.0000  0.0000  0.0000 -1.0000  0.0000  0.0000
   5. Li 1 (pz)     0.0986 -0.3321 -0.5395  0.0000  0.2893 -0.9825
   6.  H 2 (s)     -0.1419  0.5298  0.2180  0.0000  0.2263 -1.1561


 AO overlap matrix:

           AO          1       2       3       4       5       6
      ------------ ------- ------- ------- ------- ------- -------
   1. Li 1 (s)      1.0000  0.2411  0.0000  0.0000  0.0000  0.0680
   2. Li 1 (s)      0.2411  1.0000  0.0000  0.0000  0.0000  0.3978
   3. Li 1 (px)     0.0000  0.0000  1.0000  0.0000  0.0000  0.0000
   4. Li 1 (py)     0.0000  0.0000  0.0000  1.0000  0.0000  0.0000
   5. Li 1 (pz)     0.0000  0.0000  0.0000  0.0000  1.0000 -0.5148
   6.  H 2 (s)      0.0680  0.3978  0.0000  0.0000 -0.5148  1.0000


 AO bond-order matrix:

           AO          1       2       3       4       5       6
      ------------ ------- ------- ------- ------- ------- -------
   1. Li 1 (s)      2.0214 -0.0877  0.0000  0.0000  0.1289 -0.1749
   2. Li 1 (s)     -0.0877  0.4150  0.0000  0.0000 -0.3143  0.4987
   3. Li 1 (px)     0.0000  0.0000  0.0000  0.0000  0.0000  0.0000
   4. Li 1 (py)     0.0000  0.0000  0.0000  0.0000  0.0000  0.0000
   5. Li 1 (pz)     0.1289 -0.3143  0.0000  0.0000  0.2400 -0.3799
   6.  H 2 (s)     -0.1749  0.4987  0.0000  0.0000 -0.3799  0.6017


 AO density matrix:

           AO          1       2       3       4       5       6
      ------------ ------- ------- ------- ------- ------- -------
   1. Li 1 (s)      1.9986  0.5202  0.0000  0.0000  0.0343  0.1257
   2. Li 1 (s)      0.5202  0.9487  0.0000  0.0000 -0.7926  1.1775
   3. Li 1 (px)     0.0000  0.0000  0.0000  0.0000  0.0000  0.0000
   4. Li 1 (py)     0.0000  0.0000  0.0000  0.0000  0.0000  0.0000
   5. Li 1 (pz)     0.0343 -0.7926  0.0000  0.0000  0.7906 -1.1262
   6.  H 2 (s)      0.1257  1.1775  0.0000  0.0000 -1.1262  1.6194


 MO density matrix:

      MO     1       2       3       4       5       6
     ---- ------  ------  ------  ------  ------  ------
   1.     2.0000  0.0000  0.0000  0.0000  0.0000  0.0000
   2.     0.0000  2.0000  0.0000  0.0000  0.0000  0.0000
   3.     0.0000  0.0000  0.0000  0.0000  0.0000  0.0000
   4.     0.0000  0.0000  0.0000  0.0000  0.0000  0.0000
   5.     0.0000  0.0000  0.0000  0.0000  0.0000  0.0000
   6.     0.0000  0.0000  0.0000  0.0000  0.0000  0.0000


 NATURAL POPULATIONS:  Natural atomic orbital occupancies

  NAO Atom No lang   Type(AO)    Occupancy      Energy
 -------------------------------------------------------
   1   Li  1  s      Cor( 1s)     1.99995      -2.34845
   2   Li  1  s      Val( 2s)     0.41026       0.06172
   3   Li  1  px     Ryd( 2p)     0.00000       0.16393
   4   Li  1  py     Ryd( 2p)     0.00000       0.16393
   5   Li  1  pz     Ryd( 2p)     0.16439       0.36046

   6    H  2  s      Val( 1s)     1.42540      -0.07959


 Summary of Natural Population Analysis:

                                     Natural Population
             Natural    ---------------------------------------------
  Atom No    Charge        Core      Valence    Rydberg      Total
 --------------------------------------------------------------------
   Li  1    0.42540      1.99995     0.41026    0.16439     2.57460
    H  2   -0.42540      0.00000     1.42540    0.00000     1.42540
 ====================================================================
 * Total *  0.00000      1.99995     1.83566    0.16439     4.00000

                                 Natural Population
 ---------------------------------------------------------
   Core                       1.99995 ( 99.9974% of    2)
   Valence                    1.83566 ( 91.7830% of    2)
   Natural Minimal Basis      3.83561 ( 95.8902% of    4)
   Natural Rydberg Basis      0.16439 (  4.1098% of    4)
 ---------------------------------------------------------

    Atom No         Natural Electron Configuration
 ----------------------------------------------------------------------------
     Li  1      [core]2s( 0.41)2p( 0.16)
      H  2            1s( 1.43)


 PNAOs in the AO basis:

           AO          1       2       3       4       5       6
      ------------ ------- ------- ------- ------- ------- -------
   1. Li 1 (s)      0.9908 -0.2831  0.0000  0.0000  0.0000  0.0000
   2. Li 1 (s)      0.0358  1.0298  0.0000  0.0000  0.0000  0.0000
   3. Li 1 (px)     0.0000  0.0000  1.0000  0.0000  0.0000  0.0000
   4. Li 1 (py)     0.0000  0.0000  0.0000  1.0000  0.0000  0.0000
   5. Li 1 (pz)     0.0000  0.0000  0.0000  0.0000  1.0000  0.0000
   6.  H 2 (s)      0.0000  0.0000  0.0000  0.0000  0.0000  1.0000


 PNAO overlap matrix:

           NAO         1       2       3       4       5       6
      ------------ ------- ------- ------- ------- ------- -------
   1. Li 1( 1s )    1.0000  0.0000  0.0000  0.0000  0.0000  0.0816
   2. Li 1( 2s )    0.0000  1.0000  0.0000  0.0000  0.0000  0.3904
   3. Li 1( 2px)    0.0000  0.0000  1.0000  0.0000  0.0000  0.0000
   4. Li 1( 2py)    0.0000  0.0000  0.0000  1.0000  0.0000  0.0000
   5. Li 1( 2pz)    0.0000  0.0000  0.0000  0.0000  1.0000 -0.5148
   6.  H 2( 1s )    0.0816  0.3904  0.0000  0.0000 -0.5148  1.0000


 PNAO density matrix:

           NAO         1       2       3       4       5       6
      ------------ ------- ------- ------- ------- ------- -------
   1. Li 1( 1s )    1.9999  0.0000  0.0000  0.0000  0.0057  0.1667
   2. Li 1( 2s )    0.0000  0.8629  0.0000  0.0000 -0.8259  1.1770
   3. Li 1( 2px)    0.0000  0.0000  0.0000  0.0000  0.0000  0.0000
   4. Li 1( 2py)    0.0000  0.0000  0.0000  0.0000  0.0000  0.0000
   5. Li 1( 2pz)    0.0057 -0.8259  0.0000  0.0000  0.7906 -1.1262
   6.  H 2( 1s )    0.1667  1.1770  0.0000  0.0000 -1.1262  1.6194


 NAOs in the AO basis:

           AO          1       2       3       4       5       6
      ------------ ------- ------- ------- ------- ------- -------
   1. Li 1 (s)      0.9908 -0.2817  0.0000  0.0000  0.0220 -0.0423
   2. Li 1 (s)      0.0358  1.1092  0.0000  0.0000 -0.2995 -0.1586
   3. Li 1 (px)     0.0000  0.0000  1.0000  0.0000  0.0000  0.0000
   4. Li 1 (py)     0.0000  0.0000  0.0000  1.0000  0.0000  0.0000
   5. Li 1 (pz)     0.0000  0.0000  0.0000  0.0000  1.2083  0.0000
   6.  H 2 (s)      0.0000 -0.2835  0.0000  0.0000  0.7397  1.0530


 NAO density matrix:

           NAO         1       2       3       4       5       6
      ------------ ------- ------- ------- ------- ------- -------
   1. Li 1( 1s )    1.9999 -0.0010  0.0000  0.0000  0.0095  0.0038
   2. Li 1( 2s )   -0.0010  0.4103  0.0000  0.0000 -0.2597  0.7647
   3. Li 1( 2px)    0.0000  0.0000  0.0000  0.0000  0.0000  0.0000
   4. Li 1( 2py)    0.0000  0.0000  0.0000  0.0000  0.0000  0.0000
   5. Li 1( 2pz)    0.0095 -0.2597  0.0000  0.0000  0.1644 -0.4840
   6.  H 2( 1s )    0.0038  0.7647  0.0000  0.0000 -0.4840  1.4254


 NATURAL BOND ORBITAL ANALYSIS:

 Initiate 2-center NBO search using THRESH = 1.900 and PRJTHR = 0.300

 Search of NAO DM block for core orbitals on atom:   1
      Eigenvector ( 1) has occupancy 1.99995
            1.0000 0.0000 0.0000 0.0000 0.0000
        1 eigenvector(s) stashed in permanent list

 Core orbitals projected from the NAO density matrix
       2.000 electrons remain (>1.900); search continues

 No NHOs identified in the 1-center search of the NAO density matrix
       2.000 electrons remain (>1.900); search continues

 Search of NAO DM block for the following atom(s):   1   2
      Select eigenvectors with eigenvalue > 1.900
       2.000 0.000 0.000 0.000 0.000 0.000
      Eigenvector ( 1) has occupancy 2.00000
            0.0000 0.4529 0.0000 0.0000-0.2867 0.8442
      1 hybrid on atom 1 stashed in prospective list
      1 hybrid on atom 2 stashed in prospective list

 Stash prospective hybrids having projection expectation value > 0.300
       1.000 1.000
      0 hybrids eliminated in 1 pass
      2 hybrids moved from prospective to permanent list

 NHOs of 2-center eigenvectors projected from the NAO density matrix
       0.000 electrons remain in the fully projected matrix

 Search of NHO DM block for the following atom(s):   1
      Select eigenvectors with eigenvalue > 1.900
       2.000 0.000 0.000 0.000 0.000
      Eigenvector ( 1) has occupancy 1.99995
            1.0000 0.0000 0.0000 0.0000 0.0000
           NBO accepted:    1. Label:CR ( 1)   1
        1 eigenvector(s) stashed in permanent list

  1-center NBOs projected from the NHO density matrix
       2.000 electrons remain (>1.900); search continues

 Search of NHO DM block for the following atom(s):   1   2
      Select eigenvectors with eigenvalue > 1.900
       2.000 0.000 0.000 0.000 0.000 0.000
      Eigenvector ( 1) has occupancy 2.00000
            0.0000 0.5360 0.0000 0.0000 0.0000 0.8442
      Occupancy is 2.000 after deleting minor hybrid components
            0.0000 0.5360 0.0000 0.0000 0.0000 0.8442
           NBO accepted:    2. Label:BD ( 1)   1   2
      Occupancy is 0.000 for antibonding component
            0.0000 0.8442 0.0000 0.0000 0.0000-0.5360
           NBO accepted:    3. Label:BD*( 1)   1   2
        2 eigenvector(s) stashed in permanent list

  2-center NBOs projected from the NHO density matrix
       0.000 electrons remain in the fully projected matrix

                            Occupancies       Lewis Structure    Low   High
         Max    Occ     -------------------  -----------------   occ   occ
  Cycle  Ctr   Thresh    Lewis   non-Lewis     CR  BD  nC  LP    (L)   (NL)
 ============================================================================
    1     2     1.90     3.99995   0.00005      1   1   0   0     0      0
 ----------------------------------------------------------------------------

 Structure accepted: No low occupancy Lewis orbitals

 -------------------------------------------------------
   Core                      1.99995 ( 99.997% of   2)
   Valence Lewis             2.00000 (100.000% of   2)
  ==================      =============================
   Total Lewis               3.99995 ( 99.999% of   4)
  -----------------------------------------------------
   Valence non-Lewis         0.00002 (  0.001% of   4)
   Rydberg non-Lewis         0.00003 (  0.001% of   4)
  ==================      =============================
   Total non-Lewis           0.00005 (  0.001% of   4)
 -------------------------------------------------------


     (Occupancy)   Bond orbital / Coefficients / Hybrids
 ------------------ Lewis ------------------------------------------------------
   1. (1.99995) CR ( 1)Li  1            s(100.00%)
                                         1.0000  0.0000  0.0000  0.0000  0.0000
   2. (2.00000) BD ( 1)Li  1- H  2
               ( 28.73%)   0.5360*Li  1 s( 71.40%)p 0.40( 28.60%)
                                         0.0000  0.8450  0.0000  0.0000 -0.5348
               ( 71.27%)   0.8442* H  2 s(100.00%)
                                         1.0000
 ---------------- non-Lewis ----------------------------------------------------
   3. (0.00002) BD*( 1)Li  1- H  2
               ( 71.27%)   0.8442*Li  1 s( 71.40%)p 0.40( 28.60%)
               ( 28.73%)  -0.5360* H  2 s(100.00%)
   4. (0.00003) RY ( 1)Li  1            s( 28.60%)p 2.50( 71.40%)
   5. (0.00000) RY ( 2)Li  1            s(  0.00%)p 1.00(100.00%)
   6. (0.00000) RY ( 3)Li  1            s(  0.00%)p 1.00(100.00%)


 NHO DIRECTIONALITY AND BOND BENDING (deviation from line of nuclear centers at
                                      the position of maximum hybrid amplitude)

         [Thresholds for printing:  angular deviation  >  1.0 degree]
                                    p- or d-character  > 25.0%
                                    orbital occupancy  >  0.10e

                        Line of Centers        Hybrid 1             Hybrid 2
                        ---------------  -------------------  ------------------
           NBO            Theta   Phi    Theta   Phi    Dev   Theta   Phi    Dev
 ===============================================================================
 Failed to locate density maximum for hybrid 2 on center 1


 SECOND ORDER PERTURBATION THEORY ANALYSIS OF FOCK MATRIX IN NBO BASIS

     Threshold for printing:   0.50 kcal/mol
                                                          E(2) E(NL)-E(L) F(L,NL)
      Donor (L) NBO              Acceptor (NL) NBO      kcal/mol   a.u.    a.u.
 ===============================================================================

 within unit  1
       None above threshold


 NATURAL BOND ORBITALS (Summary):

                                                     Principal Delocalizations
           NBO                 Occupancy    Energy   (geminal,vicinal,remote)
 ===============================================================================
 Molecular unit  1  (HLi)
 ------ Lewis --------------------------------------
    1. CR ( 1)Li  1             1.99995    -2.34845
    2. BD ( 1)Li  1- H  2       2.00000    -0.28613
 ------ non-Lewis ----------------------------------
    3. BD*( 1)Li  1- H  2       0.00002     0.43272
    4. RY ( 1)Li  1             0.00003     0.19600
    5. RY ( 2)Li  1             0.00000     0.16393
    6. RY ( 3)Li  1             0.00000     0.16393
          -------------------------------
                 Total Lewis    3.99995  ( 99.9987%)
           Valence non-Lewis    0.00002  (  0.0006%)
           Rydberg non-Lewis    0.00003  (  0.0007%)
          -------------------------------
               Total unit  1    4.00000  (100.0000%)
              Charge unit  1    0.00000

 $CHOOSE
   BOND S 1 2 END
 $END

 NBO analysis completed in 0.10 CPU seconds (0 wall seconds)
 Maximum scratch memory used by NBO was 220858 words (1.69 MB)
 Maximum scratch memory used by G16NBO was 8130 words (0.06 MB)

 Opening RunExU unformatted file "/cluster/work/users/beto93/LiH/Gau-3739909.EUF"
 Read unf file /cluster/work/users/beto93/LiH/Gau-3739909.EUF:
 Label Gaussian matrix elements                                         IVers= 2 NLab= 2 Version=ES64L-G16RevC.01
 Title NBO-LiH                                                         
 NAtoms=     2 NBasis=     6 NBsUse=     6 ICharg=     0 Multip=     1 NE=     4 Len12L=8 Len4L=8 IOpCl= 0 ICGU=111
 GAUSSIAN SCALARS                    NI= 1 NR= 1 NTot=       1 LenBuf=    2 NRI=1 N=    1000
 NPA CHARGES                         NI= 0 NR= 1 NTot=       2 LenBuf= 4000 NRI=1 N=       2
 Recovered energy= -7.86217483352     dipole=      0.000000000000      0.000000000000      1.910604988540
 Calling FoFJK, ICntrl=      2127 FMM=F ISym2X=1 I1Cent= 0 IOpClX= 0 NMat=1 NMatS=1 NMatT=0.
 ***** Axes restored to original set *****
 -------------------------------------------------------------------
 Center     Atomic                   Forces (Hartrees/Bohr)
 Number     Number              X              Y              Z
 -------------------------------------------------------------------
      1        3          -0.000000000   -0.000000000    0.015542426
      2        1          -0.000000000   -0.000000000   -0.015542426
 -------------------------------------------------------------------
 Cartesian Forces:  Max     0.015542426 RMS     0.008973424

 GradGradGradGradGradGradGradGradGradGradGradGradGradGradGradGradGradGrad
 Berny optimization.
 FormGI is forming the generalized inverse of G from B-inverse, IUseBI=4.
 Internal  Forces:  Max     0.015542426 RMS     0.015542426
 Search for a local minimum.
 Step number   1 out of a maximum of   20
 All quantities printed in internal units (Hartrees-Bohrs-Radians)
 Mixed Optimization -- RFO/linear search
 Second derivative matrix not updated -- first step.
 The second derivative matrix:
                          R1
           R1           0.09290
 ITU=  0
     Eigenvalues ---    0.09290
 RFO step:  Lambda=-2.53139314D-03 EMin= 9.28970875D-02
 Linear search not attempted -- first point.
 Iteration  1 RMS(Cart)=  0.11516640 RMS(Int)=  0.00000000
 Iteration  2 RMS(Cart)=  0.00000000 RMS(Int)=  0.00000000
 ClnCor:  largest displacement from symmetrization is 0.00D+00 for atom     0.
 Variable       Old X    -DE/DX   Delta X   Delta X   Delta X     New X
                                 (Linear)    (Quad)   (Total)
    R1        3.00466  -0.01554   0.00000  -0.16287  -0.16287   2.84179
         Item               Value     Threshold  Converged?
 Maximum Force            0.015542     0.000002     NO 
 RMS     Force            0.015542     0.000001     NO 
 Maximum Displacement     0.081435     0.000006     NO 
 RMS     Displacement     0.115166     0.000004     NO 
 Predicted change in Energy=-1.299271D-03
 GradGradGradGradGradGradGradGradGradGradGradGradGradGradGradGradGradGrad

                          Input orientation:                          
 ---------------------------------------------------------------------
 Center     Atomic      Atomic             Coordinates (Angstroms)
 Number     Number       Type             X           Y           Z
 ---------------------------------------------------------------------
      1          3           0        0.000000    0.000000    0.043094
      2          1           0        0.000000    0.000000    1.546906
 ---------------------------------------------------------------------
 Stoichiometry    HLi
 Framework group  C*V[C*(HLi)]
 Deg. of freedom     1
 Full point group                 C*V     NOp   4
 Largest Abelian subgroup         C2V     NOp   4
 Largest concise Abelian subgroup C1      NOp   1
                         Standard orientation:                         
 ---------------------------------------------------------------------
 Center     Atomic      Atomic             Coordinates (Angstroms)
 Number     Number       Type             X           Y           Z
 ---------------------------------------------------------------------
      1          3           0        0.000000    0.000000    0.375953
      2          1           0        0.000000    0.000000   -1.127860
 ---------------------------------------------------------------------
 Rotational constants (GHZ):           0.0000000         253.5924038         253.5924038
 Standard basis: STO-3G (5D, 7F)
 There are     4 symmetry adapted cartesian basis functions of A1  symmetry.
 There are     0 symmetry adapted cartesian basis functions of A2  symmetry.
 There are     1 symmetry adapted cartesian basis functions of B1  symmetry.
 There are     1 symmetry adapted cartesian basis functions of B2  symmetry.
 There are     4 symmetry adapted basis functions of A1  symmetry.
 There are     0 symmetry adapted basis functions of A2  symmetry.
 There are     1 symmetry adapted basis functions of B1  symmetry.
 There are     1 symmetry adapted basis functions of B2  symmetry.
     6 basis functions,    18 primitive gaussians,     6 cartesian basis functions
     2 alpha electrons        2 beta electrons
       nuclear repulsion energy         1.0556709292 Hartrees.
 NAtoms=    2 NActive=    2 NUniq=    2 SFac= 1.00D+00 NAtFMM=   60 NAOKFM=F Big=F
 Integral buffers will be    131072 words long.
 Raffenetti 1 integral format.
 Two-electron integral symmetry is turned on.
 One-electron integrals computed using PRISM.
 NBasis=     6 RedAO= T EigKep=  3.21D-01  NBF=     4     0     1     1
 NBsUse=     6 1.00D-06 EigRej= -1.00D+00 NBFU=     4     0     1     1
 Initial guess from the checkpoint file:  "LiH.chk"
 B after Tr=     0.000000    0.000000    0.000000
         Rot=    1.000000    0.000000    0.000000    0.000000 Ang=   0.00 deg.
 Initial guess orbital symmetries:
       Occupied  (SG) (SG)
       Virtual   (SG) (PI) (PI) (SG)
 ExpMin= 4.81D-02 ExpMax= 1.61D+01 ExpMxC= 1.61D+01 IAcc=3 IRadAn=         5 AccDes= 0.00D+00
 Harris functional with IExCor=  205 and IRadAn=       5 diagonalized for initial guess.
 HarFok:  IExCor=  205 AccDes= 0.00D+00 IRadAn=         5 IDoV= 1 UseB2=F ITyADJ=14
 ICtDFT=  3500011 ScaDFX=  1.000000  1.000000  1.000000  1.000000
 FoFCou: FMM=F IPFlag=           0 FMFlag=      100000 FMFlg1=           0
         NFxFlg=           0 DoJE=T BraDBF=F KetDBF=T FulRan=T
         wScrn=  0.000000 ICntrl=       500 IOpCl=  0 I1Cent=   200000004 NGrid=           0
         NMat0=    1 NMatS0=      1 NMatT0=    0 NMatD0=    1 NMtDS0=    0 NMtDT0=    0
 Petite list used in FoFCou.
 Keep R1 ints in memory in symmetry-blocked form, NReq=802321.
 Requested convergence on RMS density matrix=1.00D-08 within 128 cycles.
 Requested convergence on MAX density matrix=1.00D-06.
 Requested convergence on             energy=1.00D-06.
 No special actions if energy rises.
 SCF Done:  E(RHF) =  -7.86337190909     A.U. after    6 cycles
            NFock=  6  Conv=0.25D-09     -V/T= 1.9854
 Calling FoFJK, ICntrl=      2127 FMM=F ISym2X=1 I1Cent= 0 IOpClX= 0 NMat=1 NMatS=1 NMatT=0.
 ***** Axes restored to original set *****
 -------------------------------------------------------------------
 Center     Atomic                   Forces (Hartrees/Bohr)
 Number     Number              X              Y              Z
 -------------------------------------------------------------------
      1        3          -0.000000000   -0.000000000   -0.001552519
      2        1          -0.000000000   -0.000000000    0.001552519
 -------------------------------------------------------------------
 Cartesian Forces:  Max     0.001552519 RMS     0.000896347

 GradGradGradGradGradGradGradGradGradGradGradGradGradGradGradGradGradGrad
 Berny optimization.
 Using GEDIIS/GDIIS optimizer.
 Internal  Forces:  Max     0.001552519 RMS     0.001552519
 Search for a local minimum.
 Step number   2 out of a maximum of   20
 All quantities printed in internal units (Hartrees-Bohrs-Radians)
 Mixed Optimization -- RFO/linear search
 Update second derivatives using D2CorX and points    1    2
 DE= -1.20D-03 DEPred=-1.30D-03 R= 9.21D-01
 TightC=F SS=  1.41D+00  RLast= 1.63D-01 DXNew= 5.0454D-01 4.8861D-01
 Trust test= 9.21D-01 RLast= 1.63D-01 DXMaxT set to 4.89D-01
 The second derivative matrix:
                          R1
           R1           0.10496
 ITU=  1  0
 Use linear search instead of GDIIS.
     Eigenvalues ---    0.10496
 RFO step:  Lambda= 0.00000000D+00 EMin= 1.04960748D-01
 Quartic linear search produced a step of -0.08135.
 Iteration  1 RMS(Cart)=  0.00936833 RMS(Int)=  0.00000000
 Iteration  2 RMS(Cart)=  0.00000000 RMS(Int)=  0.00000000
 ClnCor:  largest displacement from symmetrization is 0.00D+00 for atom     0.
 Variable       Old X    -DE/DX   Delta X   Delta X   Delta X     New X
                                 (Linear)    (Quad)   (Total)
    R1        2.84179   0.00155   0.01325   0.00000   0.01325   2.85504
         Item               Value     Threshold  Converged?
 Maximum Force            0.001553     0.000002     NO 
 RMS     Force            0.001553     0.000001     NO 
 Maximum Displacement     0.006624     0.000006     NO 
 RMS     Displacement     0.009368     0.000004     NO 
 Predicted change in Energy=-1.135710D-05
 GradGradGradGradGradGradGradGradGradGradGradGradGradGradGradGradGradGrad

                          Input orientation:                          
 ---------------------------------------------------------------------
 Center     Atomic      Atomic             Coordinates (Angstroms)
 Number     Number       Type             X           Y           Z
 ---------------------------------------------------------------------
      1          3           0        0.000000    0.000000    0.039588
      2          1           0        0.000000    0.000000    1.550412
 ---------------------------------------------------------------------
 Stoichiometry    HLi
 Framework group  C*V[C*(HLi)]
 Deg. of freedom     1
 Full point group                 C*V     NOp   4
 Largest Abelian subgroup         C2V     NOp   4
 Largest concise Abelian subgroup C1      NOp   1
                         Standard orientation:                         
 ---------------------------------------------------------------------
 Center     Atomic      Atomic             Coordinates (Angstroms)
 Number     Number       Type             X           Y           Z
 ---------------------------------------------------------------------
      1          3           0        0.000000    0.000000    0.377706
      2          1           0        0.000000    0.000000   -1.133118
 ---------------------------------------------------------------------
 Rotational constants (GHZ):           0.0000000         251.2442761         251.2442761
 Standard basis: STO-3G (5D, 7F)
 There are     4 symmetry adapted cartesian basis functions of A1  symmetry.
 There are     0 symmetry adapted cartesian basis functions of A2  symmetry.
 There are     1 symmetry adapted cartesian basis functions of B1  symmetry.
 There are     1 symmetry adapted cartesian basis functions of B2  symmetry.
 There are     4 symmetry adapted basis functions of A1  symmetry.
 There are     0 symmetry adapted basis functions of A2  symmetry.
 There are     1 symmetry adapted basis functions of B1  symmetry.
 There are     1 symmetry adapted basis functions of B2  symmetry.
     6 basis functions,    18 primitive gaussians,     6 cartesian basis functions
     2 alpha electrons        2 beta electrons
       nuclear repulsion energy         1.0507720935 Hartrees.
 NAtoms=    2 NActive=    2 NUniq=    2 SFac= 1.00D+00 NAtFMM=   60 NAOKFM=F Big=F
 Integral buffers will be    131072 words long.
 Raffenetti 1 integral format.
 Two-electron integral symmetry is turned on.
 One-electron integrals computed using PRISM.
 NBasis=     6 RedAO= T EigKep=  3.23D-01  NBF=     4     0     1     1
 NBsUse=     6 1.00D-06 EigRej= -1.00D+00 NBFU=     4     0     1     1
 Initial guess from the checkpoint file:  "LiH.chk"
 B after Tr=     0.000000    0.000000    0.000000
         Rot=    1.000000    0.000000    0.000000    0.000000 Ang=   0.00 deg.
 Initial guess orbital symmetries:
       Occupied  (SG) (SG)
       Virtual   (SG) (PI) (PI) (SG)
 Keep R1 ints in memory in symmetry-blocked form, NReq=802321.
 Requested convergence on RMS density matrix=1.00D-08 within 128 cycles.
 Requested convergence on MAX density matrix=1.00D-06.
 Requested convergence on             energy=1.00D-06.
 No special actions if energy rises.
 SCF Done:  E(RHF) =  -7.86338214038     A.U. after    5 cycles
            NFock=  5  Conv=0.25D-08     -V/T= 1.9856
 Calling FoFJK, ICntrl=      2127 FMM=F ISym2X=1 I1Cent= 0 IOpClX= 0 NMat=1 NMatS=1 NMatT=0.
 ***** Axes restored to original set *****
 -------------------------------------------------------------------
 Center     Atomic                   Forces (Hartrees/Bohr)
 Number     Number              X              Y              Z
 -------------------------------------------------------------------
      1        3          -0.000000000   -0.000000000    0.000002782
      2        1          -0.000000000   -0.000000000   -0.000002782
 -------------------------------------------------------------------
 Cartesian Forces:  Max     0.000002782 RMS     0.000001606

 GradGradGradGradGradGradGradGradGradGradGradGradGradGradGradGradGradGrad
 Berny optimization.
 Using GEDIIS/GDIIS optimizer.
 Internal  Forces:  Max     0.000002782 RMS     0.000002782
 Search for a local minimum.
 Step number   3 out of a maximum of   20
 All quantities printed in internal units (Hartrees-Bohrs-Radians)
 Mixed Optimization -- En-DIIS/RFO-DIIS
 Update second derivatives using D2CorX and points    2    3
 DE= -1.02D-05 DEPred=-1.14D-05 R= 9.01D-01
 TightC=F SS=  1.41D+00  RLast= 1.32D-02 DXNew= 8.2174D-01 3.9746D-02
 Trust test= 9.01D-01 RLast= 1.32D-02 DXMaxT set to 4.89D-01
 The second derivative matrix:
                          R1
           R1           0.11739
 ITU=  1  1
 Use linear search instead of GDIIS.
     Eigenvalues ---    0.11739
 RFO step:  Lambda= 0.00000000D+00 EMin= 1.17391706D-01
 Quartic linear search produced a step of -0.00181.
 Iteration  1 RMS(Cart)=  0.00001693 RMS(Int)=  0.00000000
 Iteration  2 RMS(Cart)=  0.00000000 RMS(Int)=  0.00000000
 ClnCor:  largest displacement from symmetrization is 0.00D+00 for atom     0.
 Variable       Old X    -DE/DX   Delta X   Delta X   Delta X     New X
                                 (Linear)    (Quad)   (Total)
    R1        2.85504  -0.00000  -0.00002   0.00000  -0.00002   2.85502
         Item               Value     Threshold  Converged?
 Maximum Force            0.000003     0.000002     NO 
 RMS     Force            0.000003     0.000001     NO 
 Maximum Displacement     0.000012     0.000006     NO 
 RMS     Displacement     0.000017     0.000004     NO 
 Predicted change in Energy=-3.295300D-11
 GradGradGradGradGradGradGradGradGradGradGradGradGradGradGradGradGradGrad

                          Input orientation:                          
 ---------------------------------------------------------------------
 Center     Atomic      Atomic             Coordinates (Angstroms)
 Number     Number       Type             X           Y           Z
 ---------------------------------------------------------------------
      1          3           0        0.000000    0.000000    0.039594
      2          1           0        0.000000    0.000000    1.550406
 ---------------------------------------------------------------------
 Stoichiometry    HLi
 Framework group  C*V[C*(HLi)]
 Deg. of freedom     1
 Full point group                 C*V     NOp   4
 Largest Abelian subgroup         C2V     NOp   4
 Largest concise Abelian subgroup C1      NOp   1
                         Standard orientation:                         
 ---------------------------------------------------------------------
 Center     Atomic      Atomic             Coordinates (Angstroms)
 Number     Number       Type             X           Y           Z
 ---------------------------------------------------------------------
      1          3           0        0.000000    0.000000    0.377703
      2          1           0        0.000000    0.000000   -1.133108
 ---------------------------------------------------------------------
 Rotational constants (GHZ):           0.0000000         251.2484891         251.2484891
 Standard basis: STO-3G (5D, 7F)
 There are     4 symmetry adapted cartesian basis functions of A1  symmetry.
 There are     0 symmetry adapted cartesian basis functions of A2  symmetry.
 There are     1 symmetry adapted cartesian basis functions of B1  symmetry.
 There are     1 symmetry adapted cartesian basis functions of B2  symmetry.
 There are     4 symmetry adapted basis functions of A1  symmetry.
 There are     0 symmetry adapted basis functions of A2  symmetry.
 There are     1 symmetry adapted basis functions of B1  symmetry.
 There are     1 symmetry adapted basis functions of B2  symmetry.
     6 basis functions,    18 primitive gaussians,     6 cartesian basis functions
     2 alpha electrons        2 beta electrons
       nuclear repulsion energy         1.0507809034 Hartrees.
 NAtoms=    2 NActive=    2 NUniq=    2 SFac= 1.00D+00 NAtFMM=   60 NAOKFM=F Big=F
 Integral buffers will be    131072 words long.
 Raffenetti 1 integral format.
 Two-electron integral symmetry is turned on.
 One-electron integrals computed using PRISM.
 NBasis=     6 RedAO= T EigKep=  3.23D-01  NBF=     4     0     1     1
 NBsUse=     6 1.00D-06 EigRej= -1.00D+00 NBFU=     4     0     1     1
 Initial guess from the checkpoint file:  "LiH.chk"
 B after Tr=     0.000000    0.000000    0.000000
         Rot=    1.000000    0.000000    0.000000    0.000000 Ang=   0.00 deg.
 Initial guess orbital symmetries:
       Occupied  (SG) (SG)
       Virtual   (SG) (PI) (PI) (SG)
 Keep R1 ints in memory in symmetry-blocked form, NReq=802321.
 Requested convergence on RMS density matrix=1.00D-08 within 128 cycles.
 Requested convergence on MAX density matrix=1.00D-06.
 Requested convergence on             energy=1.00D-06.
 No special actions if energy rises.
 SCF Done:  E(RHF) =  -7.86338214042     A.U. after    4 cycles
            NFock=  4  Conv=0.43D-10     -V/T= 1.9856
 Calling FoFJK, ICntrl=      2127 FMM=F ISym2X=1 I1Cent= 0 IOpClX= 0 NMat=1 NMatS=1 NMatT=0.
 ***** Axes restored to original set *****
 -------------------------------------------------------------------
 Center     Atomic                   Forces (Hartrees/Bohr)
 Number     Number              X              Y              Z
 -------------------------------------------------------------------
      1        3          -0.000000000   -0.000000000   -0.000000000
      2        1          -0.000000000   -0.000000000    0.000000000
 -------------------------------------------------------------------
 Cartesian Forces:  Max     0.000000000 RMS     0.000000000

 GradGradGradGradGradGradGradGradGradGradGradGradGradGradGradGradGradGrad
 Berny optimization.
 Using GEDIIS/GDIIS optimizer.
 Internal  Forces:  Max     0.000000000 RMS     0.000000000
 Search for a local minimum.
 Step number   4 out of a maximum of   20
 All quantities printed in internal units (Hartrees-Bohrs-Radians)
 Mixed Optimization -- En-DIIS/RFO-DIIS
 Swapping is turned off.
 Update second derivatives using D2CorX and points    3    4
 DE= -3.33D-11 DEPred=-3.30D-11 R= 1.01D+00
 Trust test= 1.01D+00 RLast= 2.39D-05 DXMaxT set to 4.89D-01
 The second derivative matrix:
                          R1
           R1           0.11621
 ITU=  0  1
     Eigenvalues ---    0.11621
 En-DIIS/RFO-DIIS/Sim-DIIS IScMMF=       -3 using points:     4    3
 RFO step:  Lambda= 0.00000000D+00.
 DIIS inversion failure, remove point   2.
 Use linear search instead of GDIIS.
 RFO step:  Lambda= 0.00000000D+00 EMin= 1.16208785D-01
 Skip linear search -- no minimum in search direction.
 Iteration  1 RMS(Cart)=  0.00000000 RMS(Int)=  0.00000000
 ClnCor:  largest displacement from symmetrization is 0.00D+00 for atom     0.
 Variable       Old X    -DE/DX   Delta X   Delta X   Delta X     New X
                                 (Linear)    (Quad)   (Total)
    R1        2.85502   0.00000   0.00000   0.00000   0.00000   2.85502
         Item               Value     Threshold  Converged?
 Maximum Force            0.000000     0.000002     YES
 RMS     Force            0.000000     0.000001     YES
 Maximum Displacement     0.000000     0.000006     YES
 RMS     Displacement     0.000000     0.000004     YES
 Predicted change in Energy=-1.322494D-20
 Optimization completed.
    -- Stationary point found.
                           ----------------------------
                           !   Optimized Parameters   !
                           ! (Angstroms and Degrees)  !
 --------------------------                            --------------------------
 ! Name  Definition              Value          Derivative Info.                !
 --------------------------------------------------------------------------------
 ! R1    R(1,2)                  1.5108         -DE/DX =    0.0                 !
 --------------------------------------------------------------------------------
 GradGradGradGradGradGradGradGradGradGradGradGradGradGradGradGradGradGrad

                          Input orientation:                          
 ---------------------------------------------------------------------
 Center     Atomic      Atomic             Coordinates (Angstroms)
 Number     Number       Type             X           Y           Z
 ---------------------------------------------------------------------
      1          3           0        0.000000    0.000000    0.039594
      2          1           0        0.000000    0.000000    1.550406
 ---------------------------------------------------------------------
 Stoichiometry    HLi
 Framework group  C*V[C*(HLi)]
 Deg. of freedom     1
 Full point group                 C*V     NOp   4
 Largest Abelian subgroup         C2V     NOp   4
 Largest concise Abelian subgroup C1      NOp   1
                         Standard orientation:                         
 ---------------------------------------------------------------------
 Center     Atomic      Atomic             Coordinates (Angstroms)
 Number     Number       Type             X           Y           Z
 ---------------------------------------------------------------------
      1          3           0        0.000000    0.000000    0.377703
      2          1           0        0.000000    0.000000   -1.133108
 ---------------------------------------------------------------------
 Rotational constants (GHZ):           0.0000000         251.2484891         251.2484891

 **********************************************************************

            Population analysis using the SCF Density.

 **********************************************************************

 Orbital symmetries:
       Occupied  (SG) (SG)
       Virtual   (SG) (PI) (PI) (SG)
 The electronic state is 1-SG.
 Alpha  occ. eigenvalues --   -2.34700  -0.29269
 Alpha virt. eigenvalues --    0.07892   0.16378   0.16378   0.57158
          Condensed to atoms (all electrons):
               1          2
     1  Li   2.626533   0.390223
     2  H    0.390223   0.593021
 Mulliken charges:
               1
     1  Li  -0.016756
     2  H    0.016756
 Sum of Mulliken charges =  -0.00000
 Mulliken charges with hydrogens summed into heavy atoms:
               1
     1  Li  -0.000000
 Electronic spatial extent (au):  <R**2>=             17.7065
 Charge=              0.0000 electrons
 Dipole moment (field-independent basis, Debye):
    X=              0.0000    Y=              0.0000    Z=              4.8390  Tot=              4.8390
 Quadrupole moment (field-independent basis, Debye-Ang):
   XX=             -5.2344   YY=             -5.2344   ZZ=             -5.1243
   XY=              0.0000   XZ=              0.0000   YZ=              0.0000
 Traceless Quadrupole moment (field-independent basis, Debye-Ang):
   XX=             -0.0367   YY=             -0.0367   ZZ=              0.0734
   XY=              0.0000   XZ=              0.0000   YZ=              0.0000
 Octapole moment (field-independent basis, Debye-Ang**2):
  XXX=              0.0000  YYY=              0.0000  ZZZ=              9.6326  XYY=              0.0000
  XXY=              0.0000  XXZ=              3.3424  XZZ=              0.0000  YZZ=              0.0000
  YYZ=              3.3424  XYZ=              0.0000
 Hexadecapole moment (field-independent basis, Debye-Ang**3):
 XXXX=            -12.2541 YYYY=            -12.2541 ZZZZ=            -22.6582 XXXY=              0.0000
 XXXZ=              0.0000 YYYX=              0.0000 YYYZ=              0.0000 ZZZX=              0.0000
 ZZZY=              0.0000 XXYY=             -4.0847 XXZZ=             -5.7880 YYZZ=             -5.7880
 XXYZ=              0.0000 YYXZ=              0.0000 ZZXY=              0.0000
 N-N= 1.050780903403D+00 E-N=-2.052684892662D+01  KE= 7.977905230212D+00
 Symmetry A1   KE= 7.977905230212D+00
 Symmetry A2   KE= 0.000000000000D+00
 Symmetry B1   KE= 0.000000000000D+00
 Symmetry B2   KE= 0.000000000000D+00
 Running external command "gaunbo7 R"
         input file       "/cluster/work/users/beto93/LiH/Gau-3739909.EIn"
         output file      "/cluster/work/users/beto93/LiH/Gau-3739909.EOu"
         message file     "/cluster/work/users/beto93/LiH/Gau-3739909.EMs"
         fchk file        "/cluster/work/users/beto93/LiH/Gau-3739909.EFC"
         mat. el file     "/cluster/work/users/beto93/LiH/Gau-3739909.EUF"

 Writing WrtUnf unformatted file "/cluster/work/users/beto93/LiH/Gau-3739909.EUF"
 Gaussian matrix elements                                         Version   2 NLab=11 Len12L=8 Len4L=8
 Write SHELL TO ATOM MAP                   from file      0 offset           0 length                   3 to matrix element file.
 Write SHELL TYPES                         from file      0 offset           0 length                   3 to matrix element file.
 Write NUMBER OF PRIMITIVES PER SHELL      from file      0 offset           0 length                   3 to matrix element file.
 Write PRIMITIVE EXPONENTS                 from file      0 offset           0 length                   9 to matrix element file.
 Write CONTRACTION COEFFICIENTS            from file      0 offset           0 length                   9 to matrix element file.
 Write P(S=P) CONTRACTION COEFFICIENTS     from file      0 offset           0 length                   9 to matrix element file.
 Write COORDINATES OF EACH SHELL           from file      0 offset           0 length                   9 to matrix element file.
 Write BONDS PER ATOM                      from file      0 offset           0 length                   2 to matrix element file.
 Write BONDED ATOMS                        from file      0 offset           0 length                   2 to matrix element file.
 Write BOND TYPES                          from file      0 offset           0 length                   2 to matrix element file.
 Write ONIOM CHARGE/MULT                   from file      0 offset           0 length                  32 to matrix element file.
 Write ONIOM ATOM LAYERS                   from file      0 offset           0 length                   2 to matrix element file.
 Write ONIOM ATOM MODIFIERS                from file      0 offset           0 length                   2 to matrix element file.
 Write ONIOM ATOM TYPES                    from file      0 offset           0 length                   2 to matrix element file.
 Write ONIOM LINK ATOMS                    from file      0 offset           0 length                   2 to matrix element file.
 Write ONIOM LINK CHARGES                  from file      0 offset           0 length                   2 to matrix element file.
 Write ONIOM LINK DISTANCES                from file      0 offset           0 length                   8 to matrix element file.
 Write SYMINF INTS                         from file      0 offset           0 length                  26 to matrix element file.
 Write ROTTR TO SO                         from file      0 offset           0 length                  12 to matrix element file.
 Write GAUSSIAN SCALARS                    from file    501 offset           0 to matrix element file.
 Write OPTIMIZATION FLAGS                  from file      0 offset           0 length                   2 to matrix element file.
 Write INTEGER ISO                         from file      0 offset           0 length                   2 to matrix element file.
 Write INTEGER SPIN                        from file      0 offset           0 length                   2 to matrix element file.
 Write REAL ZEFFECTIVE                     from file      0 offset           0 length                   2 to matrix element file.
 Write REAL QUADRUPOLEMOMENT               from file      0 offset           0 length                   2 to matrix element file.
 Write REAL GFACTOR                        from file      0 offset           0 length                   2 to matrix element file.
 Write REAL ZNUCLEAR                       from file      0 offset           0 length                   2 to matrix element file.
 Write MULLIKEN CHARGES                    from file      0 offset           0 length                   2 to matrix element file.
 Write NUCLEAR GRADIENT                    from file  10584 offset           0 length                   6 to matrix element file.
 Array NUCLEAR FORCE CONSTANTS              on  file  10585 does not exist.
 Write ELECTRIC DIPOLE MOMENT              from file      0 offset           0 length                   3 to matrix element file.
 Write NON-ADIABATIC COUPLING              from file  10810 offset           0 length                   6 to matrix element file.
 Write TRAJ SCALARS                        from file      0 offset           0 length                  16 to matrix element file.
 Write TRAJ NSTEP                          from file      0 offset           0 length                   1 to matrix element file.
 Write TRAJ RESULTS                        from file      0 offset           0 length                  56 to matrix element file.
 Write RED INT COORD DIMS                  from file      0 offset           0 length                   4 to matrix element file.
 Write RED INT COORD ATOMS                 from file      0 offset           0 length                   4 to matrix element file.
 Write RED INT COORD VALS                  from file      0 offset           0 length                   1 to matrix element file.
 Write RED INT COORD IFLAGS                from file      0 offset           0 length                   1 to matrix element file.
 Write RED INT COORD RFLAGS                from file      0 offset           0 length                   1 to matrix element file.
 Write RED INT COORD CONSTRAINT            from file      0 offset           0 length                   2 to matrix element file.
 Write FINITE EM FIELD                     from file  10521 offset           0 length                  35 to matrix element file.
 Write OVERLAP                             from file  10514 offset           0 length                  21 to matrix element file.
 Write CORE HAMILTONIAN ALPHA              from file  10515 offset           0 length                  21 to matrix element file.
 Write CORE HAMILTONIAN BETA               from file  10515 offset          21 length                  21 to matrix element file.
 Write KINETIC ENERGY                      from file  10516 offset           0 length                  21 to matrix element file.
 Write ORTHOGONAL BASIS                    from file  10685 offset           0 length                  36 to matrix element file.
 Write DIPOLE INTEGRALS                    from file  10518 offset           0 length                  63 to matrix element file.
 Array DIP VEL INTEGRALS                    on  file  10572 does not exist.
 Array R X DEL INTEGRALS                    on  file  10572 does not exist.
 Write ALPHA ORBITAL ENERGIES              from file      0 offset           0 length                   6 to matrix element file.
 Write ALPHA MO COEFFICIENTS               from file  10524 offset           0 length                  36 to matrix element file.
 Write ALPHA DENSITY MATRIX                from file      0 offset           0 length                  21 to matrix element file.
 Write ALPHA FOCK MATRIX                   from file  10536 offset           0 length                  21 to matrix element file.
 Write ENERGY-WEIGHTED DENSITY             from file  10571 offset           0 length                  21 to matrix element file.
 Write ALPHA SCF DENSITY MATRIX            from file      0 offset           0 length                  21 to matrix element file.
 No 2e integrals to process.
 Perform NBO analysis...executing G16NBO...

 *********************************** NBO 7.0 ***********************************

   Unrecognized $NBO keyword: SNAO
   Unrecognized $NBO keyword: AR
   Unrecognized $NBO keyword: CHIVE

 *********************************** NBO 7.0 ***********************************
             N A T U R A L   A T O M I C   O R B I T A L   A N D
          N A T U R A L   B O N D   O R B I T A L   A N A L Y S I S
 **************************** Espen Tangen (S101595) ***************************
  (c) Copyright 1996-2021 Board of Regents of the University of Wisconsin System
      on behalf of the Theoretical Chemistry Institute.  All rights reserved.

          Cite this program [NBO 7.0.10 (8-Feb-2021)] as:

          NBO 7.0.  E. D. Glendening, J. K. Badenhoop, A. E. Reed,
          J. E. Carpenter, J. A. Bohmann, C. M. Morales, P. Karafiloglou,
          C. R. Landis, and F. Weinhold, Theoretical Chemistry Institute,
          University of Wisconsin, Madison, WI (2018)

       /NPA    / : Natural Population Analysis
       /AOPNAO / : Print the AO to PNAO transformation
       /AONAO  / : Print the AO to NAO transformation
       /AONO   / : Print the NOs in the AO basis
       /AOMO   / : Print the MOs in the AO basis
       /BOAO   / : Print the AO bond-order matrix
       /DMAO   / : Print the AO density matrix
       /DMPNAO / : Print the PNAO density matrix
       /DMNAO  / : Print the NAO density matrix
       /DMMO   / : Print the MO density matrix
       /SAO    / : Print the AO overlap matrix
       /SPNAO  / : Print the PNAO overlap matrix
       /DETAIL / : Write details of NBO search
       /AOINFO / : Write AO information to lfn31
       /FILE   / : Set to LiH

 Filename set to LiH

 Job title: NBO-LiH


 MOs in the AO basis:

           AO          1       2       3       4       5       6
      ------------ ------- ------- ------- ------- ------- -------
   1. Li 1 (s)      0.9911 -0.1736 -0.2088  0.0000  0.0000  0.0806
   2. Li 1 (s)      0.0321  0.4471  0.8012  0.0000  0.0000 -0.7391
   3. Li 1 (px)     0.0000  0.0000  0.0000  1.0000  0.0000  0.0000
   4. Li 1 (py)     0.0000  0.0000  0.0000  0.0000  1.0000  0.0000
   5. Li 1 (pz)     0.0071 -0.3492  0.6128  0.0000  0.0000  1.0070
   6.  H 2 (s)      0.0067  0.5445 -0.1344  0.0000  0.0000  1.2317


 NOs in the AO basis:

           AO          1       2       3       4       5       6
      ------------ ------- ------- ------- ------- ------- -------
   1. Li 1 (s)      0.9856  0.2024  0.0124  0.0000  0.1030 -0.1984
   2. Li 1 (s)     -0.1343  0.4276 -0.0482  0.0000 -0.1106  1.0833
   3. Li 1 (px)     0.0000  0.0000  0.9983  0.0000 -0.0435  0.0399
   4. Li 1 (py)     0.0000  0.0000  0.0000 -1.0000  0.0000  0.0000
   5. Li 1 (pz)     0.1348 -0.3222 -0.0350  0.0000 -1.1250 -0.3503
   6.  H 2 (s)     -0.1937  0.5089  0.0093  0.0000 -0.7144 -1.0123


 AO overlap matrix:

           AO          1       2       3       4       5       6
      ------------ ------- ------- ------- ------- ------- -------
   1. Li 1 (s)      1.0000  0.2411  0.0000  0.0000  0.0000  0.0804
   2. Li 1 (s)      0.2411  1.0000  0.0000  0.0000  0.0000  0.4176
   3. Li 1 (px)     0.0000  0.0000  1.0000  0.0000  0.0000  0.0000
   4. Li 1 (py)     0.0000  0.0000  0.0000  1.0000  0.0000  0.0000
   5. Li 1 (pz)     0.0000  0.0000  0.0000  0.0000  1.0000 -0.5284
   6.  H 2 (s)      0.0804  0.4176  0.0000  0.0000 -0.5284  1.0000


 AO bond-order matrix:

           AO          1       2       3       4       5       6
      ------------ ------- ------- ------- ------- ------- -------
   1. Li 1 (s)      2.0250 -0.0916  0.0000  0.0000  0.1353 -0.1758
   2. Li 1 (s)     -0.0916  0.4018  0.0000  0.0000 -0.3118  0.4873
   3. Li 1 (px)     0.0000  0.0000  0.0000  0.0000  0.0000  0.0000
   4. Li 1 (py)     0.0000  0.0000  0.0000  0.0000  0.0000  0.0000
   5. Li 1 (pz)     0.1353 -0.3118  0.0000  0.0000  0.2439 -0.3801
   6.  H 2 (s)     -0.1758  0.4873  0.0000  0.0000 -0.3801  0.5930


 AO density matrix:

           AO          1       2       3       4       5       6
      ------------ ------- ------- ------- ------- ------- -------
   1. Li 1 (s)      1.9986  0.5196  0.0000  0.0000  0.0351  0.1523
   2. Li 1 (s)      0.5196  0.9504  0.0000  0.0000 -0.8038  1.1935
   3. Li 1 (px)     0.0000  0.0000  0.0000  0.0000  0.0000  0.0000
   4. Li 1 (py)     0.0000  0.0000  0.0000  0.0000  0.0000  0.0000
   5. Li 1 (pz)     0.0351 -0.8038  0.0000  0.0000  0.8113 -1.1479
   6.  H 2 (s)      0.1523  1.1935  0.0000  0.0000 -1.1479  1.6447


 MO density matrix:

      MO     1       2       3       4       5       6
     ---- ------  ------  ------  ------  ------  ------
   1.     2.0000  0.0000  0.0000  0.0000  0.0000  0.0000
   2.     0.0000  2.0000  0.0000  0.0000  0.0000  0.0000
   3.     0.0000  0.0000  0.0000  0.0000  0.0000  0.0000
   4.     0.0000  0.0000  0.0000  0.0000  0.0000  0.0000
   5.     0.0000  0.0000  0.0000  0.0000  0.0000  0.0000
   6.     0.0000  0.0000  0.0000  0.0000  0.0000  0.0000


 NATURAL POPULATIONS:  Natural atomic orbital occupancies

  NAO Atom No lang   Type(AO)    Occupancy      Energy
 -------------------------------------------------------
   1   Li  1  s      Cor( 1s)     1.99993      -2.34689
   2   Li  1  s      Val( 2s)     0.39085       0.06645
   3   Li  1  px     Ryd( 2p)     0.00000       0.16378
   4   Li  1  py     Ryd( 2p)     0.00000       0.16378
   5   Li  1  pz     Ryd( 2p)     0.16137       0.37939

   6    H  2  s      Val( 1s)     1.44786      -0.08814


 Summary of Natural Population Analysis:

                                     Natural Population
             Natural    ---------------------------------------------
  Atom No    Charge        Core      Valence    Rydberg      Total
 --------------------------------------------------------------------
   Li  1    0.44786      1.99993     0.39085    0.16137     2.55214
    H  2   -0.44786      0.00000     1.44786    0.00000     1.44786
 ====================================================================
 * Total *  0.00000      1.99993     1.83870    0.16137     4.00000

                                 Natural Population
 ---------------------------------------------------------
   Core                       1.99993 ( 99.9963% of    2)
   Valence                    1.83870 ( 91.9352% of    2)
   Natural Minimal Basis      3.83863 ( 95.9658% of    4)
   Natural Rydberg Basis      0.16137 (  4.0342% of    4)
 ---------------------------------------------------------

    Atom No         Natural Electron Configuration
 ----------------------------------------------------------------------------
     Li  1      [core]2s( 0.39)2p( 0.16)
      H  2            1s( 1.45)


 PNAOs in the AO basis:

           AO          1       2       3       4       5       6
      ------------ ------- ------- ------- ------- ------- -------
   1. Li 1 (s)      0.9909 -0.2825  0.0000  0.0000  0.0000  0.0000
   2. Li 1 (s)      0.0352  1.0298  0.0000  0.0000  0.0000  0.0000
   3. Li 1 (px)     0.0000  0.0000  1.0000  0.0000  0.0000  0.0000
   4. Li 1 (py)     0.0000  0.0000  0.0000  1.0000  0.0000  0.0000
   5. Li 1 (pz)     0.0000  0.0000  0.0000  0.0000  1.0000  0.0000
   6.  H 2 (s)      0.0000  0.0000  0.0000  0.0000  0.0000  1.0000


 PNAO overlap matrix:

           NAO         1       2       3       4       5       6
      ------------ ------- ------- ------- ------- ------- -------
   1. Li 1( 1s )    1.0000  0.0000  0.0000  0.0000  0.0000  0.0944
   2. Li 1( 2s )    0.0000  1.0000  0.0000  0.0000  0.0000  0.4073
   3. Li 1( 2px)    0.0000  0.0000  1.0000  0.0000  0.0000  0.0000
   4. Li 1( 2py)    0.0000  0.0000  0.0000  1.0000  0.0000  0.0000
   5. Li 1( 2pz)    0.0000  0.0000  0.0000  0.0000  1.0000 -0.5284
   6.  H 2( 1s )    0.0944  0.4073  0.0000  0.0000 -0.5284  1.0000


 PNAO density matrix:

           NAO         1       2       3       4       5       6
      ------------ ------- ------- ------- ------- ------- -------
   1. Li 1( 1s )    1.9999  0.0000  0.0000  0.0000  0.0065  0.1929
   2. Li 1( 2s )    0.0000  0.8650  0.0000  0.0000 -0.8377  1.1860
   3. Li 1( 2px)    0.0000  0.0000  0.0000  0.0000  0.0000  0.0000
   4. Li 1( 2py)    0.0000  0.0000  0.0000  0.0000  0.0000  0.0000
   5. Li 1( 2pz)    0.0065 -0.8377  0.0000  0.0000  0.8113 -1.1479
   6.  H 2( 1s )    0.1929  1.1860  0.0000  0.0000 -1.1479  1.6447


 NAOs in the AO basis:

           AO          1       2       3       4       5       6
      ------------ ------- ------- ------- ------- ------- -------
   1. Li 1 (s)      0.9909 -0.2783  0.0000  0.0000  0.0170 -0.0544
   2. Li 1 (s)      0.0352  1.1178  0.0000  0.0000 -0.3328 -0.1664
   3. Li 1 (px)     0.0000  0.0000  1.0000  0.0000  0.0000  0.0000
   4. Li 1 (py)     0.0000  0.0000  0.0000  1.0000  0.0000  0.0000
   5. Li 1 (pz)     0.0000  0.0000  0.0000  0.0000  1.2294  0.0000
   6.  H 2 (s)      0.0000 -0.3007  0.0000  0.0000  0.7873  1.0590


 NAO density matrix:

           NAO         1       2       3       4       5       6
      ------------ ------- ------- ------- ------- ------- -------
   1. Li 1( 1s )    1.9999 -0.0013  0.0000  0.0000  0.0112  0.0044
   2. Li 1( 2s )   -0.0013  0.3908  0.0000  0.0000 -0.2511  0.7523
   3. Li 1( 2px)    0.0000  0.0000  0.0000  0.0000  0.0000  0.0000
   4. Li 1( 2py)    0.0000  0.0000  0.0000  0.0000  0.0000  0.0000
   5. Li 1( 2pz)    0.0112 -0.2511  0.0000  0.0000  0.1614 -0.4832
   6.  H 2( 1s )    0.0044  0.7523  0.0000  0.0000 -0.4832  1.4479


 NATURAL BOND ORBITAL ANALYSIS:

 Initiate 2-center NBO search using THRESH = 1.900 and PRJTHR = 0.300

 Search of NAO DM block for core orbitals on atom:   1
      Eigenvector ( 1) has occupancy 1.99993
            1.0000 0.0000 0.0000 0.0000 0.0000
        1 eigenvector(s) stashed in permanent list

 Core orbitals projected from the NAO density matrix
       2.000 electrons remain (>1.900); search continues

 No NHOs identified in the 1-center search of the NAO density matrix
       2.000 electrons remain (>1.900); search continues

 Search of NAO DM block for the following atom(s):   1   2
      Select eigenvectors with eigenvalue > 1.900
       2.000 0.000 0.000 0.000 0.000 0.000
      Eigenvector ( 1) has occupancy 2.00000
            0.0000 0.4421 0.0000 0.0000-0.2840 0.8508
      1 hybrid on atom 1 stashed in prospective list
      1 hybrid on atom 2 stashed in prospective list

 Stash prospective hybrids having projection expectation value > 0.300
       1.000 1.000
      0 hybrids eliminated in 1 pass
      2 hybrids moved from prospective to permanent list

 NHOs of 2-center eigenvectors projected from the NAO density matrix
       0.000 electrons remain in the fully projected matrix

 Search of NHO DM block for the following atom(s):   1
      Select eigenvectors with eigenvalue > 1.900
       2.000 0.000 0.000 0.000 0.000
      Eigenvector ( 1) has occupancy 1.99993
            1.0000 0.0000 0.0000 0.0000 0.0000
           NBO accepted:    1. Label:CR ( 1)   1
        1 eigenvector(s) stashed in permanent list

  1-center NBOs projected from the NHO density matrix
       2.000 electrons remain (>1.900); search continues

 Search of NHO DM block for the following atom(s):   1   2
      Select eigenvectors with eigenvalue > 1.900
       2.000 0.000 0.000 0.000 0.000 0.000
      Eigenvector ( 1) has occupancy 2.00000
            0.0000 0.5254 0.0000 0.0000 0.0000 0.8508
      Occupancy is 2.000 after deleting minor hybrid components
            0.0000 0.5254 0.0000 0.0000 0.0000 0.8508
           NBO accepted:    2. Label:BD ( 1)   1   2
      Occupancy is 0.000 for antibonding component
            0.0000 0.8508 0.0000 0.0000 0.0000-0.5254
           NBO accepted:    3. Label:BD*( 1)   1   2
        2 eigenvector(s) stashed in permanent list

  2-center NBOs projected from the NHO density matrix
       0.000 electrons remain in the fully projected matrix

                            Occupancies       Lewis Structure    Low   High
         Max    Occ     -------------------  -----------------   occ   occ
  Cycle  Ctr   Thresh    Lewis   non-Lewis     CR  BD  nC  LP    (L)   (NL)
 ============================================================================
    1     2     1.90     3.99993   0.00007      1   1   0   0     0      0
 ----------------------------------------------------------------------------

 Structure accepted: No low occupancy Lewis orbitals

 -------------------------------------------------------
   Core                      1.99993 ( 99.996% of   2)
   Valence Lewis             2.00000 (100.000% of   2)
  ==================      =============================
   Total Lewis               3.99993 ( 99.998% of   4)
  -----------------------------------------------------
   Valence non-Lewis         0.00004 (  0.001% of   4)
   Rydberg non-Lewis         0.00004 (  0.001% of   4)
  ==================      =============================
   Total non-Lewis           0.00007 (  0.002% of   4)
 -------------------------------------------------------


     (Occupancy)   Bond orbital / Coefficients / Hybrids
 ------------------ Lewis ------------------------------------------------------
   1. (1.99993) CR ( 1)Li  1            s(100.00%)
                                         1.0000  0.0000  0.0000  0.0000  0.0000
   2. (2.00000) BD ( 1)Li  1- H  2
               ( 27.61%)   0.5254*Li  1 s( 70.79%)p 0.41( 29.21%)
                                         0.0000  0.8413  0.0000  0.0000 -0.5405
               ( 72.39%)   0.8508* H  2 s(100.00%)
                                         1.0000
 ---------------- non-Lewis ----------------------------------------------------
   3. (0.00004) BD*( 1)Li  1- H  2
               ( 72.39%)   0.8508*Li  1 s( 70.79%)p 0.41( 29.21%)
               ( 27.61%)  -0.5254* H  2 s(100.00%)
   4. (0.00004) RY ( 1)Li  1            s( 29.21%)p 2.42( 70.79%)
   5. (0.00000) RY ( 2)Li  1            s(  0.00%)p 1.00(100.00%)
   6. (0.00000) RY ( 3)Li  1            s(  0.00%)p 1.00(100.00%)


 NHO DIRECTIONALITY AND BOND BENDING (deviation from line of nuclear centers at
                                      the position of maximum hybrid amplitude)

         [Thresholds for printing:  angular deviation  >  1.0 degree]
                                    p- or d-character  > 25.0%
                                    orbital occupancy  >  0.10e

                        Line of Centers        Hybrid 1             Hybrid 2
                        ---------------  -------------------  ------------------
           NBO            Theta   Phi    Theta   Phi    Dev   Theta   Phi    Dev
 ===============================================================================
 Failed to locate density maximum for hybrid 2 on center 1


 SECOND ORDER PERTURBATION THEORY ANALYSIS OF FOCK MATRIX IN NBO BASIS

     Threshold for printing:   0.50 kcal/mol
                                                          E(2) E(NL)-E(L) F(L,NL)
      Donor (L) NBO              Acceptor (NL) NBO      kcal/mol   a.u.    a.u.
 ===============================================================================

 within unit  1
       None above threshold


 NATURAL BOND ORBITALS (Summary):

                                                     Principal Delocalizations
           NBO                 Occupancy    Energy   (geminal,vicinal,remote)
 ===============================================================================
 Molecular unit  1  (HLi)
 ------ Lewis --------------------------------------
    1. CR ( 1)Li  1             1.99993    -2.34689
    2. BD ( 1)Li  1- H  2       2.00000    -0.29269
 ------ non-Lewis ----------------------------------
    3. BD*( 1)Li  1- H  2       0.00004     0.44822
    4. RY ( 1)Li  1             0.00004     0.20217
    5. RY ( 2)Li  1             0.00000     0.16378
    6. RY ( 3)Li  1             0.00000     0.16378
          -------------------------------
                 Total Lewis    3.99993  ( 99.9982%)
           Valence non-Lewis    0.00004  (  0.0009%)
           Rydberg non-Lewis    0.00004  (  0.0010%)
          -------------------------------
               Total unit  1    4.00000  (100.0000%)
              Charge unit  1    0.00000

 $CHOOSE
   BOND S 1 2 END
 $END

 NBO analysis completed in 0.09 CPU seconds (0 wall seconds)
 Maximum scratch memory used by NBO was 220858 words (1.69 MB)
 Maximum scratch memory used by G16NBO was 8130 words (0.06 MB)

 Opening RunExU unformatted file "/cluster/work/users/beto93/LiH/Gau-3739909.EUF"
 Read unf file /cluster/work/users/beto93/LiH/Gau-3739909.EUF:
 Label Gaussian matrix elements                                         IVers= 2 NLab= 2 Version=ES64L-G16RevC.01
 Title NBO-LiH                                                         
 NAtoms=     2 NBasis=     6 NBsUse=     6 ICharg=     0 Multip=     1 NE=     4 Len12L=8 Len4L=8 IOpCl= 0 ICGU=111
 GAUSSIAN SCALARS                    NI= 1 NR= 1 NTot=       1 LenBuf=    2 NRI=1 N=    1000
 NPA CHARGES                         NI= 0 NR= 1 NTot=       2 LenBuf= 4000 NRI=1 N=       2
 Recovered energy= -7.86338214042     dipole=      0.000000000000      0.000000000000      1.903828721476
 Unable to Open any file for archive entry.
 1\1\GINC-C2-16\FOpt\RHF\STO-3G\H1Li1\BETO93\29-Jul-2024\0\\#OPT=VeryTi
 ght Int=UltraFine RHF/STO-3G Pop=NBO7Read\\NBO-LiH\\0,1\Li,0.,0.,0.039
 5943642\H,0.,0.,1.5504056358\\Version=ES64L-G16RevC.01\State=1-SG\HF=-
 7.8633821\RMSD=4.286e-11\RMSF=3.201e-11\Dipole=0.,0.,-1.9038287\Quadru
 pole=-0.0273,-0.0273,0.0546,0.,0.,0.\PG=C*V [C*(H1Li1)]\\@
 The archive entry for this job was punched.


 You can't act like a skunk without someone's getting wind of it.
 -- Lorene Workman
 Job cpu time:       0 days  0 hours  0 minutes 31.3 seconds.
 Elapsed time:       0 days  0 hours  0 minutes 10.6 seconds.
 File lengths (MBytes):  RWF=     10 Int=      0 D2E=      0 Chk=      1 Scr=      1
 Normal termination of Gaussian 16 at Mon Jul 29 11:44:01 2024.
