 Entering Gaussian System, Link 0=g16
 Initial command:
 /cluster/software/Gaussian/g16_C.01/l1.exe "/cluster/work/users/beto93/CH3BH2/Gau-1555055.inp" -scrdir="/cluster/work/users/beto93/CH3BH2/"
 Entering Link 1 = /cluster/software/Gaussian/g16_C.01/l1.exe PID=   1555060.
  
 Copyright (c) 1988-2019, Gaussian, Inc.  All Rights Reserved.
  
 This is part of the Gaussian(R) 16 program.  It is based on
 the Gaussian(R) 09 system (copyright 2009, Gaussian, Inc.),
 the Gaussian(R) 03 system (copyright 2003, Gaussian, Inc.),
 the Gaussian(R) 98 system (copyright 1998, Gaussian, Inc.),
 the Gaussian(R) 94 system (copyright 1995, Gaussian, Inc.),
 the Gaussian 92(TM) system (copyright 1992, Gaussian, Inc.),
 the Gaussian 90(TM) system (copyright 1990, Gaussian, Inc.),
 the Gaussian 88(TM) system (copyright 1988, Gaussian, Inc.),
 the Gaussian 86(TM) system (copyright 1986, Carnegie Mellon
 University), and the Gaussian 82(TM) system (copyright 1983,
 Carnegie Mellon University). Gaussian is a federally registered
 trademark of Gaussian, Inc.
  
 This software contains proprietary and confidential information,
 including trade secrets, belonging to Gaussian, Inc.
  
 This software is provided under written license and may be
 used, copied, transmitted, or stored only in accord with that
 written license.
  
 The following legend is applicable only to US Government
 contracts under FAR:
  
                    RESTRICTED RIGHTS LEGEND
  
 Use, reproduction and disclosure by the US Government is
 subject to restrictions as set forth in subparagraphs (a)
 and (c) of the Commercial Computer Software - Restricted
 Rights clause in FAR 52.227-19.
  
 Gaussian, Inc.
 340 Quinnipiac St., Bldg. 40, Wallingford CT 06492
  
  
 ---------------------------------------------------------------
 Warning -- This program may not be used in any manner that
 competes with the business of Gaussian, Inc. or will provide
 assistance to any competitor of Gaussian, Inc.  The licensee
 of this program is prohibited from giving any competitor of
 Gaussian, Inc. access to this program.  By using this program,
 the user acknowledges that Gaussian, Inc. is engaged in the
 business of creating and licensing software in the field of
 computational chemistry and represents and warrants to the
 licensee that it is not a competitor of Gaussian, Inc. and that
 it will not use this program in any manner prohibited above.
 ---------------------------------------------------------------
  

 Cite this work as:
 Gaussian 16, Revision C.01,
 M. J. Frisch, G. W. Trucks, H. B. Schlegel, G. E. Scuseria, 
 M. A. Robb, J. R. Cheeseman, G. Scalmani, V. Barone, 
 G. A. Petersson, H. Nakatsuji, X. Li, M. Caricato, A. V. Marenich, 
 J. Bloino, B. G. Janesko, R. Gomperts, B. Mennucci, H. P. Hratchian, 
 J. V. Ortiz, A. F. Izmaylov, J. L. Sonnenberg, D. Williams-Young, 
 F. Ding, F. Lipparini, F. Egidi, J. Goings, B. Peng, A. Petrone, 
 T. Henderson, D. Ranasinghe, V. G. Zakrzewski, J. Gao, N. Rega, 
 G. Zheng, W. Liang, M. Hada, M. Ehara, K. Toyota, R. Fukuda, 
 J. Hasegawa, M. Ishida, T. Nakajima, Y. Honda, O. Kitao, H. Nakai, 
 T. Vreven, K. Throssell, J. A. Montgomery, Jr., J. E. Peralta, 
 F. Ogliaro, M. J. Bearpark, J. J. Heyd, E. N. Brothers, K. N. Kudin, 
 V. N. Staroverov, T. A. Keith, R. Kobayashi, J. Normand, 
 K. Raghavachari, A. P. Rendell, J. C. Burant, S. S. Iyengar, 
 J. Tomasi, M. Cossi, J. M. Millam, M. Klene, C. Adamo, R. Cammi, 
 J. W. Ochterski, R. L. Martin, K. Morokuma, O. Farkas, 
 J. B. Foresman, and D. J. Fox, Gaussian, Inc., Wallingford CT, 2019.
 
 ******************************************
 Gaussian 16:  ES64L-G16RevC.01  3-Jul-2019
                24-Jul-2024 
 ******************************************
 %LindaWorkers=c1-1-ib
 %NProcShared=4
 Will use up to    4 processors via shared memory.
 %mem=25GB
 %chk=CH3BH2.chk
 SetLPE:    new flags="-opt 'Tsnet.Node.lindarsharg: ssh'  -nodelist 'c1-1-ib.saga' -env GAUSS_MDEF=3355443200 -env GAUSS_EXEDIR="/cluster/software/Gaussian/g16_C.01/bsd:/cluster/software/Gaussian/g16_C.01""
 Will use up to    1 processors via Linda.
 ----------------------------------------------------
 #OPT=VeryTight Int=UltraFine RHF/STO-3G Pop=NBO7Read
 ----------------------------------------------------
 1/7=1,18=20,19=15,38=1,163=2/1,3;
 2/9=110,12=2,17=6,18=5,40=1/2;
 3/6=3,11=1,25=1,30=1,71=1,75=-5,116=1/1,2,3;
 4//1;
 5/5=2,38=5/2;
 6/7=2,8=2,9=2,10=2,28=1,40=2,113=1,114=1,124=2103/1,12;
 7//1,2,3,16;
 1/7=1,18=20,19=15/3(2);
 2/9=110/2;
 99//99;
 2/9=110/2;
 3/6=3,11=1,25=1,30=1,71=1,75=-5,116=1/1,2,3;
 4/5=5,16=3,69=1/1;
 5/5=2,38=5/2;
 7//1,2,3,16;
 1/7=1,18=20,19=15/3(-5);
 2/9=110/2;
 6/7=2,8=2,9=2,10=2,19=2,28=1,40=2,113=1,114=1,124=2103/1,12;
 99/9=1/99;
 ----------
 NBO-CH3BH2
 ----------
 Symbolic Z-matrix:
 Charge =  0 Multiplicity = 1
 C                     0.        0.        0. 
 H                     0.        0.        1.07 
 H                     1.00881   0.       -0.35666 
 H                    -0.5044    0.87365  -0.35667 
 B                    -0.68825  -1.19209  -0.48667 
 H                    -1.65934  -1.19209  -0.14334 
 H                    -0.68825  -1.19209  -1.51667 
 

 GradGradGradGradGradGradGradGradGradGradGradGradGradGradGradGradGradGrad
 Berny optimization.
 Initialization pass.
                           ----------------------------
                           !    Initial Parameters    !
                           ! (Angstroms and Degrees)  !
 --------------------------                            --------------------------
 ! Name  Definition              Value          Derivative Info.                !
 --------------------------------------------------------------------------------
 ! R1    R(1,2)                  1.07           estimate D2E/DX2                !
 ! R2    R(1,3)                  1.07           estimate D2E/DX2                !
 ! R3    R(1,4)                  1.07           estimate D2E/DX2                !
 ! R4    R(1,5)                  1.46           estimate D2E/DX2                !
 ! R5    R(5,6)                  1.03           estimate D2E/DX2                !
 ! R6    R(5,7)                  1.03           estimate D2E/DX2                !
 ! A1    A(2,1,3)              109.471          estimate D2E/DX2                !
 ! A2    A(2,1,4)              109.4714         estimate D2E/DX2                !
 ! A3    A(2,1,5)              109.4713         estimate D2E/DX2                !
 ! A4    A(3,1,4)              109.4712         estimate D2E/DX2                !
 ! A5    A(3,1,5)              109.4712         estimate D2E/DX2                !
 ! A6    A(4,1,5)              109.4712         estimate D2E/DX2                !
 ! A7    A(1,5,6)              109.4712         estimate D2E/DX2                !
 ! A8    A(1,5,7)              109.4712         estimate D2E/DX2                !
 ! A9    A(6,5,7)              109.4712         estimate D2E/DX2                !
 ! D1    D(2,1,5,6)             60.0002         estimate D2E/DX2                !
 ! D2    D(2,1,5,7)           -179.9998         estimate D2E/DX2                !
 ! D3    D(3,1,5,6)           -180.0            estimate D2E/DX2                !
 ! D4    D(3,1,5,7)            -60.0            estimate D2E/DX2                !
 ! D5    D(4,1,5,6)            -60.0            estimate D2E/DX2                !
 ! D6    D(4,1,5,7)             60.0            estimate D2E/DX2                !
 --------------------------------------------------------------------------------
 Trust Radius=3.00D-01 FncErr=1.00D-07 GrdErr=1.00D-07 EigMax=2.50D+02 EigMin=1.00D-04
 Number of steps in this run=     31 maximum allowed number of steps=    100.
 GradGradGradGradGradGradGradGradGradGradGradGradGradGradGradGradGradGrad

                          Input orientation:                          
 ---------------------------------------------------------------------
 Center     Atomic      Atomic             Coordinates (Angstroms)
 Number     Number       Type             X           Y           Z
 ---------------------------------------------------------------------
      1          6           0        0.000000    0.000000    0.000000
      2          1           0        0.000000    0.000000    1.070000
      3          1           0        1.008807    0.000000   -0.356663
      4          1           0       -0.504401    0.873651   -0.356669
      5          5           0       -0.688249   -1.192085   -0.486669
      6          1           0       -1.659343   -1.192085   -0.143340
      7          1           0       -0.688245   -1.192085   -1.516669
 ---------------------------------------------------------------------
                    Distance matrix (angstroms):
                    1          2          3          4          5
     1  C    0.000000
     2  H    1.070000   0.000000
     3  H    1.070000   1.747300   0.000000
     4  H    1.070000   1.747304   1.747302   0.000000
     5  B    1.460000   2.077973   2.077972   2.077971   0.000000
     6  H    2.048178   2.376274   2.930119   2.376271   1.029999
     7  H    2.048178   2.930120   2.376271   2.376271   1.030000
                    6          7
     6  H    0.000000
     7  H    1.681982   0.000000
 Stoichiometry    CH5B
 Framework group  C1[X(CH5B)]
 Deg. of freedom    15
 Full point group                 C1      NOp   1
 Largest Abelian subgroup         C1      NOp   1
 Largest concise Abelian subgroup C1      NOp   1
                         Standard orientation:                         
 ---------------------------------------------------------------------
 Center     Atomic      Atomic             Coordinates (Angstroms)
 Number     Number       Type             X           Y           Z
 ---------------------------------------------------------------------
      1          6           0        0.617655   -0.000000    0.012414
      2          1           0        1.031454   -0.873650   -0.446287
      3          1           0        1.031452    0.873650   -0.446287
      4          1           0        0.852558    0.000002    1.056311
      5          5           0       -0.832106   -0.000001   -0.160189
      6          1           0       -1.230434   -0.840990    0.281364
      7          1           0       -1.230433    0.840992    0.281361
 ---------------------------------------------------------------------
 Rotational constants (GHZ):         103.8474307          25.2535826          23.9814254
 Standard basis: STO-3G (5D, 7F)
 There are    15 symmetry adapted cartesian basis functions of A   symmetry.
 There are    15 symmetry adapted basis functions of A   symmetry.
    15 basis functions,    45 primitive gaussians,    15 cartesian basis functions
     8 alpha electrons        8 beta electrons
       nuclear repulsion energy        34.3086249677 Hartrees.
 NAtoms=    7 NActive=    7 NUniq=    7 SFac= 1.00D+00 NAtFMM=   60 NAOKFM=F Big=F
 Integral buffers will be    131072 words long.
 Raffenetti 1 integral format.
 Two-electron integral symmetry is turned on.
 One-electron integrals computed using PRISM.
 NBasis=    15 RedAO= T EigKep=  1.46D-01  NBF=    15
 NBsUse=    15 1.00D-06 EigRej= -1.00D+00 NBFU=    15
 ExpMin= 1.69D-01 ExpMax= 7.16D+01 ExpMxC= 7.16D+01 IAcc=3 IRadAn=         5 AccDes= 0.00D+00
 Harris functional with IExCor=  205 and IRadAn=       5 diagonalized for initial guess.
 HarFok:  IExCor=  205 AccDes= 0.00D+00 IRadAn=         5 IDoV= 1 UseB2=F ITyADJ=14
 ICtDFT=  3500011 ScaDFX=  1.000000  1.000000  1.000000  1.000000
 FoFCou: FMM=F IPFlag=           0 FMFlag=      100000 FMFlg1=           0
         NFxFlg=           0 DoJE=T BraDBF=F KetDBF=T FulRan=T
         wScrn=  0.000000 ICntrl=       500 IOpCl=  0 I1Cent=   200000004 NGrid=           0
         NMat0=    1 NMatS0=      1 NMatT0=    0 NMatD0=    1 NMtDS0=    0 NMtDT0=    0
 Petite list used in FoFCou.
 Keep R1 ints in memory in canonical form, NReq=814892.
 Requested convergence on RMS density matrix=1.00D-08 within 128 cycles.
 Requested convergence on MAX density matrix=1.00D-06.
 Requested convergence on             energy=1.00D-06.
 No special actions if energy rises.
 SCF Done:  E(RHF) =  -64.5776684936     A.U. after   10 cycles
            NFock= 10  Conv=0.58D-08     -V/T= 1.9930

 **********************************************************************

            Population analysis using the SCF Density.

 **********************************************************************

 Orbital symmetries:
       Occupied  (A) (A) (A) (A) (A) (A) (A) (A)
       Virtual   (A) (A) (A) (A) (A) (A) (A)
 The electronic state is 1-A.
 Alpha  occ. eigenvalues --  -10.99565  -7.39381  -0.93032  -0.66842  -0.56404
 Alpha  occ. eigenvalues --   -0.53179  -0.43211  -0.42518
 Alpha virt. eigenvalues --    0.20786   0.71477   0.74524   0.77270   0.83359
 Alpha virt. eigenvalues --    0.93042   1.08669
          Condensed to atoms (all electrons):
               1          2          3          4          5          6
     1  C    4.810959   0.385639   0.385639   0.380196   0.402067  -0.024859
     2  H    0.385639   0.631508  -0.023405  -0.017679  -0.029694  -0.005280
     3  H    0.385639  -0.023405   0.631508  -0.017679  -0.029694   0.002610
     4  H    0.380196  -0.017679  -0.017679   0.579487  -0.013107  -0.001519
     5  B    0.402067  -0.029694  -0.029694  -0.013107   3.617601   0.419588
     6  H   -0.024859  -0.005280   0.002610  -0.001519   0.419588   0.685092
     7  H   -0.024859   0.002610  -0.005280  -0.001519   0.419588  -0.023986
               7
     1  C   -0.024859
     2  H    0.002610
     3  H   -0.005280
     4  H   -0.001519
     5  B    0.419588
     6  H   -0.023986
     7  H    0.685093
 Mulliken charges:
               1
     1  C   -0.314782
     2  H    0.056301
     3  H    0.056301
     4  H    0.091820
     5  B    0.213651
     6  H   -0.051645
     7  H   -0.051645
 Sum of Mulliken charges =  -0.00000
 Mulliken charges with hydrogens summed into heavy atoms:
               1
     1  C   -0.110360
     5  B    0.110360
 Electronic spatial extent (au):  <R**2>=             89.0315
 Charge=             -0.0000 electrons
 Dipole moment (field-independent basis, Debye):
    X=              0.0810    Y=             -0.0000    Z=             -0.9621  Tot=              0.9655
 Quadrupole moment (field-independent basis, Debye-Ang):
   XX=            -14.7613   YY=            -14.4727   ZZ=            -11.8576
   XY=              0.0000   XZ=              1.5596   YZ=              0.0000
 Traceless Quadrupole moment (field-independent basis, Debye-Ang):
   XX=             -1.0641   YY=             -0.7755   ZZ=              1.8396
   XY=              0.0000   XZ=              1.5596   YZ=              0.0000
 Octapole moment (field-independent basis, Debye-Ang**2):
  XXX=              3.8030  YYY=              0.0000  ZZZ=             -0.4188  XYY=              2.2697
  XXY=             -0.0000  XXZ=             -1.5024  XZZ=             -0.0216  YZZ=              0.0000
  YYZ=             -0.4476  XYZ=             -0.0000
 Hexadecapole moment (field-independent basis, Debye-Ang**3):
 XXXX=            -77.9649 YYYY=            -27.4993 ZZZZ=            -17.2460 XXXY=              0.0000
 XXXZ=              2.3612 YYYX=             -0.0000 YYYZ=              0.0000 ZZZX=              2.1682
 ZZZY=              0.0000 XXYY=            -17.7957 XXZZ=            -13.7213 YYZZ=             -7.5514
 XXYZ=              0.0000 YYXZ=             -0.2961 ZZXY=              0.0000
 N-N= 3.430862496769D+01 E-N=-2.189228722566D+02  KE= 6.503293720033D+01
 Running external command "gaunbo7 R"
         input file       "/cluster/work/users/beto93/CH3BH2/Gau-1555060.EIn"
         output file      "/cluster/work/users/beto93/CH3BH2/Gau-1555060.EOu"
         message file     "/cluster/work/users/beto93/CH3BH2/Gau-1555060.EMs"
         fchk file        "/cluster/work/users/beto93/CH3BH2/Gau-1555060.EFC"
         mat. el file     "/cluster/work/users/beto93/CH3BH2/Gau-1555060.EUF"

 Writing WrtUnf unformatted file "/cluster/work/users/beto93/CH3BH2/Gau-1555060.EUF"
 Gaussian matrix elements                                         Version   2 NLab=11 Len12L=8 Len4L=8
 Write SHELL TO ATOM MAP                   from file      0 offset           0 length                   9 to matrix element file.
 Write SHELL TYPES                         from file      0 offset           0 length                   9 to matrix element file.
 Write NUMBER OF PRIMITIVES PER SHELL      from file      0 offset           0 length                   9 to matrix element file.
 Write PRIMITIVE EXPONENTS                 from file      0 offset           0 length                  27 to matrix element file.
 Write CONTRACTION COEFFICIENTS            from file      0 offset           0 length                  27 to matrix element file.
 Write P(S=P) CONTRACTION COEFFICIENTS     from file      0 offset           0 length                  27 to matrix element file.
 Write COORDINATES OF EACH SHELL           from file      0 offset           0 length                  27 to matrix element file.
 Write BONDS PER ATOM                      from file      0 offset           0 length                   7 to matrix element file.
 Write BONDED ATOMS                        from file      0 offset           0 length                  12 to matrix element file.
 Write BOND TYPES                          from file      0 offset           0 length                  12 to matrix element file.
 Write ONIOM CHARGE/MULT                   from file      0 offset           0 length                  32 to matrix element file.
 Write ONIOM ATOM LAYERS                   from file      0 offset           0 length                   7 to matrix element file.
 Write ONIOM ATOM MODIFIERS                from file      0 offset           0 length                   7 to matrix element file.
 Write ONIOM ATOM TYPES                    from file      0 offset           0 length                   7 to matrix element file.
 Write ONIOM LINK ATOMS                    from file      0 offset           0 length                   7 to matrix element file.
 Write ONIOM LINK CHARGES                  from file      0 offset           0 length                   7 to matrix element file.
 Write ONIOM LINK DISTANCES                from file      0 offset           0 length                  28 to matrix element file.
 Write SYMINF INTS                         from file      0 offset           0 length                  26 to matrix element file.
 Write ROTTR TO SO                         from file      0 offset           0 length                  12 to matrix element file.
 Write GAUSSIAN SCALARS                    from file    501 offset           0 to matrix element file.
 Write OPTIMIZATION FLAGS                  from file      0 offset           0 length                   7 to matrix element file.
 Write INTEGER ISO                         from file      0 offset           0 length                   7 to matrix element file.
 Write INTEGER SPIN                        from file      0 offset           0 length                   7 to matrix element file.
 Write REAL ZEFFECTIVE                     from file      0 offset           0 length                   7 to matrix element file.
 Write REAL QUADRUPOLEMOMENT               from file      0 offset           0 length                   7 to matrix element file.
 Write REAL GFACTOR                        from file      0 offset           0 length                   7 to matrix element file.
 Write REAL ZNUCLEAR                       from file      0 offset           0 length                   7 to matrix element file.
 Write MULLIKEN CHARGES                    from file      0 offset           0 length                   7 to matrix element file.
 Write NUCLEAR GRADIENT                    from file  10584 offset           0 length                  21 to matrix element file.
 Array NUCLEAR FORCE CONSTANTS              on  file  10585 does not exist.
 Write ELECTRIC DIPOLE MOMENT              from file      0 offset           0 length                   3 to matrix element file.
 Write NON-ADIABATIC COUPLING              from file  10810 offset           0 length                  21 to matrix element file.
 Write RED INT COORD DIMS                  from file      0 offset           0 length                   4 to matrix element file.
 Write RED INT COORD ATOMS                 from file      0 offset           0 length                  84 to matrix element file.
 Write RED INT COORD VALS                  from file      0 offset           0 length                  21 to matrix element file.
 Write RED INT COORD IFLAGS                from file      0 offset           0 length                  21 to matrix element file.
 Write RED INT COORD RFLAGS                from file      0 offset           0 length                  21 to matrix element file.
 Write RED INT COORD CONSTRAINT            from file      0 offset           0 length                  42 to matrix element file.
 Write FINITE EM FIELD                     from file  10521 offset           0 length                  35 to matrix element file.
 Write OVERLAP                             from file  10514 offset           0 length                 120 to matrix element file.
 Write CORE HAMILTONIAN ALPHA              from file  10515 offset           0 length                 120 to matrix element file.
 Write CORE HAMILTONIAN BETA               from file  10515 offset         120 length                 120 to matrix element file.
 Write KINETIC ENERGY                      from file  10516 offset           0 length                 120 to matrix element file.
 Write ORTHOGONAL BASIS                    from file  10685 offset           0 length                 225 to matrix element file.
 Write DIPOLE INTEGRALS                    from file  10518 offset           0 length                 360 to matrix element file.
 Array DIP VEL INTEGRALS                    on  file  10572 does not exist.
 Array R X DEL INTEGRALS                    on  file  10572 does not exist.
 Write ALPHA ORBITAL ENERGIES              from file      0 offset           0 length                  15 to matrix element file.
 Write ALPHA MO COEFFICIENTS               from file  10524 offset           0 length                 225 to matrix element file.
 Write ALPHA DENSITY MATRIX                from file      0 offset           0 length                 120 to matrix element file.
 Write ALPHA FOCK MATRIX                   from file  10536 offset           0 length                 120 to matrix element file.
 Write ENERGY-WEIGHTED DENSITY             from file  10571 offset           0 length                 120 to matrix element file.
 Write ALPHA SCF DENSITY MATRIX            from file      0 offset           0 length                 120 to matrix element file.
 No 2e integrals to process.
 Perform NBO analysis...executing G16NBO...

 *********************************** NBO 7.0 ***********************************
             N A T U R A L   A T O M I C   O R B I T A L   A N D
          N A T U R A L   B O N D   O R B I T A L   A N A L Y S I S
 **************************** Espen Tangen (S101595) ***************************
  (c) Copyright 1996-2021 Board of Regents of the University of Wisconsin System
      on behalf of the Theoretical Chemistry Institute.  All rights reserved.

          Cite this program [NBO 7.0.10 (8-Feb-2021)] as:

          NBO 7.0.  E. D. Glendening, J. K. Badenhoop, A. E. Reed,
          J. E. Carpenter, J. A. Bohmann, C. M. Morales, P. Karafiloglou,
          C. R. Landis, and F. Weinhold, Theoretical Chemistry Institute,
          University of Wisconsin, Madison, WI (2018)

       /NPA    / : Natural Population Analysis
       /AOPNAO / : Print the AO to PNAO transformation
       /AONAO  / : Print the AO to NAO transformation
       /AONO   / : Print the NOs in the AO basis
       /AOMO   / : Print the MOs in the AO basis
       /BOAO   / : Print the AO bond-order matrix
       /DMAO   / : Print the AO density matrix
       /DMPNAO / : Print the PNAO density matrix
       /DMNAO  / : Print the NAO density matrix
       /DMMO   / : Print the MO density matrix
       /SAO    / : Print the AO overlap matrix
       /SPNAO  / : Print the PNAO overlap matrix
       /DETAIL / : Write details of NBO search
       /ARCHIVE/ : Write the archive file to lfn47
       /AOINFO / : Write AO information to lfn31
       /FILE   / : Set to CH3BH2

 Filename set to CH3BH2

 Job title: NBO-CH3BH2


 MOs in the AO basis:

           AO          1       2       3       4       5       6       7       8
      ------------ ------- ------- ------- ------- ------- ------- ------- -------
   1.  C 1 (s)      0.9916  0.0000 -0.2151  0.0582  0.0000 -0.0017  0.0306  0.0000
   2.  C 1 (s)      0.0412 -0.0067  0.5943 -0.1830  0.0000  0.0077 -0.0994  0.0000
   3.  C 1 (px)    -0.0012  0.0038 -0.0275 -0.2357  0.0000  0.0506  0.5746  0.0000
   4.  C 1 (py)     0.0000  0.0000  0.0000  0.0000  0.4469  0.0000  0.0000 -0.3478
   5.  C 1 (pz)    -0.0001  0.0001 -0.0002  0.0290  0.0000  0.5578 -0.0399  0.0000
   6.  H 2 (s)     -0.0072 -0.0009  0.1656 -0.1438 -0.3109 -0.1914  0.2006  0.3067
   7.  H 3 (s)     -0.0072 -0.0009  0.1656 -0.1438  0.3109 -0.1914  0.2006 -0.3067
   8.  H 4 (s)     -0.0072 -0.0008  0.1737 -0.0798  0.0000  0.5022  0.0308  0.0000
   9.  B 5 (s)      0.0005  0.9903 -0.1057 -0.2052  0.0000  0.0414  0.0209  0.0000
  10.  B 5 (s)     -0.0085  0.0424  0.1819  0.4474  0.0000 -0.1053 -0.0611  0.0000
  11.  B 5 (px)    -0.0056  0.0011  0.0945 -0.1068  0.0000 -0.0658 -0.4815  0.0000
  12.  B 5 (py)     0.0000  0.0000  0.0000  0.0000  0.3145  0.0000  0.0000  0.4258
  13.  B 5 (pz)    -0.0011  0.0040  0.0141  0.0987  0.0000  0.1008  0.0785  0.0000
  14.  H 6 (s)      0.0008 -0.0079  0.0660  0.3076 -0.2192 -0.0107  0.2039 -0.3921
  15.  H 7 (s)      0.0008 -0.0079  0.0660  0.3076  0.2192 -0.0107  0.2039  0.3921

           AO          9      10      11      12      13      14      15
      ------------ ------- ------- ------- ------- ------- ------- -------
   1.  C 1 (s)     -0.0174  0.0000 -0.0437 -0.1838  0.1517  0.0000  0.0883
   2.  C 1 (s)      0.0682  0.0000  0.2994  1.1915 -1.0660  0.0000 -0.6483
   3.  C 1 (px)    -0.0894  0.0000 -0.2108  0.7717  0.6673  0.0000  0.4937
   4.  C 1 (py)     0.0000  0.9628  0.0000  0.0000  0.0000 -0.6270  0.0000
   5.  C 1 (pz)    -0.0383  0.0000  1.0485  0.0215  0.4383  0.0000 -0.1707
   6.  H 2 (s)      0.1086  0.8057  0.3896 -0.7764  0.2798 -0.3427  0.0134
   7.  H 3 (s)      0.1086 -0.8057  0.3896 -0.7764  0.2798  0.3427  0.0134
   8.  H 4 (s)     -0.2659  0.0000 -1.0328 -0.6740 -0.1159  0.0000  0.1801
   9.  B 5 (s)      0.1013  0.0000 -0.0362 -0.0247 -0.0469  0.0000 -0.2474
  10.  B 5 (s)     -0.4667  0.0000  0.2519  0.1438  0.2407  0.0000  1.8019
  11.  B 5 (px)     0.1879  0.0000 -0.3392  0.2191  1.1774  0.0000 -0.0184
  12.  B 5 (py)     0.0000  0.4599  0.0000  0.0000  0.0000  1.2312  0.0000
  13.  B 5 (pz)     0.8673  0.0000 -0.0550  0.0057 -0.2261  0.0000  0.7376
  14.  H 6 (s)      0.1218  0.4418 -0.2665  0.0415  0.3857  0.8943 -0.9978
  15.  H 7 (s)      0.1218 -0.4418 -0.2665  0.0415  0.3857 -0.8943 -0.9978


 NOs in the AO basis:

           AO          1       2       3       4       5       6       7       8
      ------------ ------- ------- ------- ------- ------- ------- ------- -------
   1.  C 1 (s)     -0.0501  0.7171 -0.5130  0.3623 -0.1550  0.3079 -0.0250  0.0562
   2.  C 1 (s)     -0.0359  0.1440  0.0413  0.0261  0.0285 -0.5775  0.1284 -0.1521
   3.  C 1 (px)    -0.0581  0.2420  0.1003 -0.4967 -0.2450  0.0827 -0.0545 -0.0234
   4.  C 1 (py)    -0.0190  0.0264  0.0152  0.0259  0.1184  0.0263 -0.4013 -0.3781
   5.  C 1 (pz)     0.0007 -0.1513 -0.4591 -0.2376  0.1270 -0.0585  0.0378 -0.0497
   6.  H 2 (s)     -0.0121  0.1459  0.2209 -0.1065 -0.2356 -0.1245  0.3387  0.2201
   7.  H 3 (s)     -0.0547  0.1962  0.2415 -0.0734 -0.0317 -0.1127 -0.3373 -0.2883
   8.  H 4 (s)     -0.0162 -0.0583 -0.3624 -0.2966  0.0884 -0.2142  0.0650 -0.0942
   9.  B 5 (s)      0.9825  0.1147 -0.0383 -0.1471 -0.1057 -0.0344 -0.1372  0.0572
  10.  B 5 (s)     -0.0513 -0.2323 -0.0523  0.3054 -0.2683 -0.1324 -0.0881  0.0054
  11.  B 5 (px)     0.0980 -0.0298  0.0340  0.2888  0.3466 -0.1617  0.1222 -0.0183
  12.  B 5 (py)     0.0704 -0.0517  0.0136  0.0338 -0.1197  0.1465  0.3269 -0.3586
  13.  B 5 (pz)    -0.0305 -0.0603 -0.1005 -0.0529 -0.0884 -0.0033 -0.0306 -0.0058
  14.  H 6 (s)     -0.1700 -0.0729 -0.0687 -0.0012 -0.2040 -0.1219 -0.4175  0.2698
  15.  H 7 (s)     -0.0480 -0.1649 -0.0489  0.0503 -0.4285  0.1186  0.2114 -0.2563

           AO          9      10      11      12      13      14      15
      ------------ ------- ------- ------- ------- ------- ------- -------
   1.  C 1 (s)     -0.0023 -0.0091  0.0124 -0.0454  0.2374  0.0767 -0.0474
   2.  C 1 (s)     -0.0256  0.0456 -0.0946  0.3666 -1.5766 -0.5580  0.3570
   3.  C 1 (px)    -0.0236 -0.2529  0.2575 -0.6477 -0.3895  0.7253 -0.3300
   4.  C 1 (py)    -0.4232  0.4458 -0.8871  0.0004 -0.0790  0.3774 -0.0818
   5.  C 1 (pz)     0.5514 -0.7565 -0.6613 -0.0692  0.0260 -0.0257  0.0514
   6.  H 2 (s)     -0.0605  0.1941 -1.0184 -0.0272  0.7218  0.0674 -0.0814
   7.  H 3 (s)      0.6870 -0.4501  0.3505  0.1793  0.8246 -0.3126  0.0651
   8.  H 4 (s)     -0.6947  0.5320  0.5831  0.1700  0.7011  0.1039 -0.0264
   9.  B 5 (s)      0.0252  0.0839 -0.0247  0.0228 -0.0198 -0.0798  0.2450
  10.  B 5 (s)     -0.0231 -0.3907  0.1709 -0.1908  0.1303  0.4811 -1.7719
  11.  B 5 (px)     0.1462 -0.1550  0.1458 -0.8343  0.2534  0.8120  0.3141
  12.  B 5 (py)    -0.3666 -0.2158  0.0635 -0.8710  0.0859 -0.8776 -0.0797
  13.  B 5 (pz)     0.5724  0.7211  0.1087 -0.2539 -0.0443 -0.1026 -0.6433
  14.  H 6 (s)     -0.3800 -0.1328 -0.0567 -0.8664  0.0837 -0.5231  1.0151
  15.  H 7 (s)      0.2624  0.1203  0.0048  0.4787 -0.0348  0.7643  1.1529


 AO overlap matrix:

           AO          1       2       3       4       5       6       7       8
      ------------ ------- ------- ------- ------- ------- ------- ------- -------
   1.  C 1 (s)      1.0000  0.2484  0.0000  0.0000  0.0000  0.0653  0.0653  0.0653
   2.  C 1 (s)      0.2484  1.0000  0.0000  0.0000  0.0000  0.5023  0.5023  0.5023
   3.  C 1 (px)     0.0000  0.0000  1.0000  0.0000  0.0000  0.1833  0.1833  0.1041
   4.  C 1 (py)     0.0000  0.0000  0.0000  1.0000  0.0000 -0.3871  0.3871  0.0000
   5.  C 1 (pz)     0.0000  0.0000  0.0000  0.0000  1.0000 -0.2032 -0.2032  0.4625
   6.  H 2 (s)      0.0653  0.5023  0.1833 -0.3871 -0.2032  1.0000  0.1780  0.1780
   7.  H 3 (s)      0.0653  0.5023  0.1833  0.3871 -0.2032  0.1780  1.0000  0.1780
   8.  H 4 (s)      0.0653  0.5023  0.1041  0.0000  0.4625  0.1780  0.1780  1.0000
   9.  B 5 (s)      0.0000  0.0438 -0.0720  0.0000 -0.0086  0.0090  0.0090  0.0090
  10.  B 5 (s)      0.0410  0.3810 -0.3631  0.0000 -0.0432  0.1439  0.1439  0.1439
  11.  B 5 (px)     0.0679  0.4276 -0.3169  0.0000 -0.0646  0.1688  0.1688  0.1526
  12.  B 5 (py)     0.0000  0.0000  0.0000  0.2254  0.0000 -0.0792  0.0792  0.0000
  13.  B 5 (pz)     0.0081  0.0509 -0.0646  0.0000  0.2177 -0.0259 -0.0259  0.1102
  14.  H 6 (s)      0.0071  0.1180 -0.1339 -0.0609  0.0195  0.0622  0.0211  0.0622
  15.  H 7 (s)      0.0071  0.1180 -0.1339  0.0609  0.0195  0.0211  0.0622  0.0622

           AO          9      10      11      12      13      14      15
      ------------ ------- ------- ------- ------- ------- ------- -------
   1.  C 1 (s)      0.0000  0.0410  0.0679  0.0000  0.0081  0.0071  0.0071
   2.  C 1 (s)      0.0438  0.3810  0.4276  0.0000  0.0509  0.1180  0.1180
   3.  C 1 (px)    -0.0720 -0.3631 -0.3169  0.0000 -0.0646 -0.1339 -0.1339
   4.  C 1 (py)     0.0000  0.0000  0.0000  0.2254  0.0000 -0.0609  0.0609
   5.  C 1 (pz)    -0.0086 -0.0432 -0.0646  0.0000  0.2177  0.0195  0.0195
   6.  H 2 (s)      0.0090  0.1439  0.1688 -0.0792 -0.0259  0.0622  0.0211
   7.  H 3 (s)      0.0090  0.1439  0.1688  0.0792 -0.0259  0.0211  0.0622
   8.  H 4 (s)      0.0090  0.1439  0.1526  0.0000  0.1102  0.0622  0.0622
   9.  B 5 (s)      1.0000  0.2693  0.0000  0.0000  0.0000  0.0959  0.0959
  10.  B 5 (s)      0.2693  1.0000  0.0000  0.0000  0.0000  0.5610  0.5610
  11.  B 5 (px)     0.0000  0.0000  1.0000  0.0000  0.0000 -0.2072 -0.2072
  12.  B 5 (py)     0.0000  0.0000  0.0000  1.0000  0.0000 -0.4374  0.4374
  13.  B 5 (pz)     0.0000  0.0000  0.0000  0.0000  1.0000  0.2297  0.2297
  14.  H 6 (s)      0.0959  0.5610 -0.2072 -0.4374  0.2297  1.0000  0.1966
  15.  H 7 (s)      0.0959  0.5610 -0.2072  0.4374  0.2297  0.1966  1.0000


 AO bond-order matrix:

           AO          1       2       3       4       5       6       7       8
      ------------ ------- ------- ------- ------- ------- ------- ------- -------
   1.  C 1 (s)      2.0675 -0.2013  0.0170  0.0000 -0.0010 -0.0893 -0.0893 -0.0982
   2.  C 1 (s)     -0.2013  0.7968 -0.0600  0.0000  0.0056  0.2061  0.2061  0.2367
   3.  C 1 (px)     0.0170 -0.0600  0.7781  0.0000 -0.0030  0.2698  0.2698  0.1142
   4.  C 1 (py)     0.0000  0.0000  0.0000  0.6413  0.0000 -0.4913  0.4913  0.0000
   5.  C 1 (pz)    -0.0010  0.0056 -0.0030  0.0000  0.6271 -0.2379 -0.2379  0.5531
   6.  H 2 (s)     -0.0893  0.2061  0.2698 -0.4913 -0.2379  0.6315 -0.1315 -0.0993
   7.  H 3 (s)     -0.0893  0.2061  0.2698  0.4913 -0.2379 -0.1315  0.6315 -0.0993
   8.  H 4 (s)     -0.0982  0.2367  0.1142  0.0000  0.5531 -0.0993 -0.0993  0.5795
   9.  B 5 (s)      0.0237 -0.0672  0.1382  0.0000  0.0329  0.0147  0.0147  0.0373
  10.  B 5 (s)     -0.0464  0.0617 -0.3014  0.0000 -0.0868 -0.0526 -0.0526 -0.1177
  11.  B 5 (px)    -0.0934  0.2457 -0.5149  0.0000 -0.0413 -0.1058 -0.1058 -0.0458
  12.  B 5 (py)     0.0000  0.0000  0.0000 -0.0151  0.0000  0.0655 -0.0655  0.0000
  13.  B 5 (pz)     0.0076 -0.0336  0.0531  0.0000  0.1119 -0.0308 -0.0308  0.0952
  14.  H 6 (s)      0.0215 -0.0746  0.0845  0.0768 -0.0105 -0.0849  0.1235 -0.0244
  15.  H 7 (s)      0.0215 -0.0746  0.0845 -0.0768 -0.0105  0.1235 -0.0849 -0.0244

           AO          9      10      11      12      13      14      15
      ------------ ------- ------- ------- ------- ------- ------- -------
   1.  C 1 (s)      0.0237 -0.0464 -0.0934  0.0000  0.0076  0.0215  0.0215
   2.  C 1 (s)     -0.0672  0.0617  0.2457  0.0000 -0.0336 -0.0746 -0.0746
   3.  C 1 (px)     0.1382 -0.3014 -0.5149  0.0000  0.0531  0.0845  0.0845
   4.  C 1 (py)     0.0000  0.0000  0.0000 -0.0151  0.0000  0.0768 -0.0768
   5.  C 1 (pz)     0.0329 -0.0868 -0.0413  0.0000  0.1119 -0.0105 -0.0105
   6.  H 2 (s)      0.0147 -0.0526 -0.1058  0.0655 -0.0308 -0.0849  0.1235
   7.  H 3 (s)      0.0147 -0.0526 -0.1058 -0.0655 -0.0308  0.1235 -0.0849
   8.  H 4 (s)      0.0373 -0.1177 -0.0458  0.0000  0.0952 -0.0244 -0.0244
   9.  B 5 (s)      2.0721 -0.1494  0.0004  0.0000 -0.0239 -0.1483 -0.1483
  10.  B 5 (s)     -0.1494  0.4999  0.0117  0.0000  0.0630  0.2760  0.2760
  11.  B 5 (px)     0.0004  0.0117  0.5132  0.0000 -0.1072 -0.2482 -0.2482
  12.  B 5 (py)     0.0000  0.0000  0.0000  0.5604  0.0000 -0.4718  0.4718
  13.  B 5 (pz)    -0.0239  0.0630 -0.1072  0.0000  0.0525  0.0923  0.0923
  14.  H 6 (s)     -0.1483  0.2760 -0.2482 -0.4718  0.0923  0.6851 -0.1220
  15.  H 7 (s)     -0.1483  0.2760 -0.2482  0.4718  0.0923 -0.1220  0.6851


 AO density matrix:

           AO          1       2       3       4       5       6       7       8
      ------------ ------- ------- ------- ------- ------- ------- ------- -------
   1.  C 1 (s)      1.9995  0.5044  0.0010  0.0000  0.0001  0.1238  0.1238  0.1233
   2.  C 1 (s)      0.5044  1.8862 -0.0283  0.0000 -0.0035  1.1071  1.1071  1.1162
   3.  C 1 (px)     0.0010 -0.0283  1.7030  0.0000  0.0064  0.4998  0.4998  0.2597
   4.  C 1 (py)     0.0000  0.0000  0.0000  1.6229  0.0000 -1.0237  1.0237  0.0000
   5.  C 1 (pz)     0.0001 -0.0035  0.0064  0.0000  1.6279 -0.5313 -0.5313  1.2133
   6.  H 2 (s)      0.1238  1.1071  0.4998 -1.0237 -0.5313  1.6523  0.3427  0.3587
   7.  H 3 (s)      0.1238  1.1071  0.4998  1.0237 -0.5313  0.3427  1.6523  0.3587
   8.  H 4 (s)      0.1233  1.1162  0.2597  0.0000  1.2133  0.3587  0.3587  1.6284
   9.  B 5 (s)      0.0002  0.0859 -0.1384  0.0000 -0.0156  0.0174  0.0174  0.0193
  10.  B 5 (s)      0.0787  0.7977 -0.8418  0.0000 -0.1275  0.3050  0.3050  0.2416
  11.  B 5 (px)     0.1299  0.9368 -0.8567  0.0000 -0.1462  0.3211  0.3211  0.3370
  12.  B 5 (py)     0.0000  0.0000  0.0000  0.4639  0.0000 -0.1745  0.1745  0.0000
  13.  B 5 (pz)     0.0176  0.0709 -0.0376  0.0000  0.5288 -0.1274 -0.1274  0.4242
  14.  H 6 (s)      0.0140  0.2457 -0.2888 -0.1428  0.0494  0.0961  0.0717  0.1245
  15.  H 7 (s)      0.0140  0.2457 -0.2888  0.1428  0.0494  0.0717  0.0961  0.1245

           AO          9      10      11      12      13      14      15
      ------------ ------- ------- ------- ------- ------- ------- -------
   1.  C 1 (s)      0.0002  0.0787  0.1299  0.0000  0.0176  0.0140  0.0140
   2.  C 1 (s)      0.0859  0.7977  0.9368  0.0000  0.0709  0.2457  0.2457
   3.  C 1 (px)    -0.1384 -0.8418 -0.8567  0.0000 -0.0376 -0.2888 -0.2888
   4.  C 1 (py)     0.0000  0.0000  0.0000  0.4639  0.0000 -0.1428  0.1428
   5.  C 1 (pz)    -0.0156 -0.1275 -0.1462  0.0000  0.5288  0.0494  0.0494
   6.  H 2 (s)      0.0174  0.3050  0.3211 -0.1745 -0.1274  0.0961  0.0717
   7.  H 3 (s)      0.0174  0.3050  0.3211  0.1745 -0.1274  0.0717  0.0961
   8.  H 4 (s)      0.0193  0.2416  0.3370  0.0000  0.4242  0.1245  0.1245
   9.  B 5 (s)      1.9994  0.5500 -0.0010  0.0000 -0.0099  0.1862  0.1862
  10.  B 5 (s)      0.5500  1.7538  0.0477  0.0000  0.3694  1.2244  1.2244
  11.  B 5 (px)    -0.0010  0.0477  1.5417  0.0000 -0.2982 -0.5445 -0.5445
  12.  B 5 (py)     0.0000  0.0000  0.0000  1.6852  0.0000 -1.0643  1.0643
  13.  B 5 (pz)    -0.0099  0.3694 -0.2982  0.0000  0.3236  0.4169  0.4169
  14.  H 6 (s)      0.1862  1.2244 -0.5445 -1.0643  0.4169  1.7863  0.4119
  15.  H 7 (s)      0.1862  1.2244 -0.5445  1.0643  0.4169  0.4119  1.7863


 MO density matrix:

      MO     1       2       3       4       5       6       7       8       9
     ---- ------  ------  ------  ------  ------  ------  ------  ------  ------
   1.     2.0000  0.0000  0.0000  0.0000  0.0000  0.0000  0.0000  0.0000  0.0000
   2.     0.0000  2.0000  0.0000  0.0000  0.0000  0.0000  0.0000  0.0000  0.0000
   3.     0.0000  0.0000  2.0000  0.0000  0.0000  0.0000  0.0000  0.0000  0.0000
   4.     0.0000  0.0000  0.0000  2.0000  0.0000  0.0000  0.0000  0.0000  0.0000
   5.     0.0000  0.0000  0.0000  0.0000  2.0000  0.0000  0.0000  0.0000  0.0000
   6.     0.0000  0.0000  0.0000  0.0000  0.0000  2.0000  0.0000  0.0000  0.0000
   7.     0.0000  0.0000  0.0000  0.0000  0.0000  0.0000  2.0000  0.0000  0.0000
   8.     0.0000  0.0000  0.0000  0.0000  0.0000  0.0000  0.0000  2.0000  0.0000
   9.     0.0000  0.0000  0.0000  0.0000  0.0000  0.0000  0.0000  0.0000  0.0000
  10.     0.0000  0.0000  0.0000  0.0000  0.0000  0.0000  0.0000  0.0000  0.0000
  11.     0.0000  0.0000  0.0000  0.0000  0.0000  0.0000  0.0000  0.0000  0.0000
  12.     0.0000  0.0000  0.0000  0.0000  0.0000  0.0000  0.0000  0.0000  0.0000
  13.     0.0000  0.0000  0.0000  0.0000  0.0000  0.0000  0.0000  0.0000  0.0000
  14.     0.0000  0.0000  0.0000  0.0000  0.0000  0.0000  0.0000  0.0000  0.0000
  15.     0.0000  0.0000  0.0000  0.0000  0.0000  0.0000  0.0000  0.0000  0.0000

      MO    10      11      12      13      14      15
     ---- ------  ------  ------  ------  ------  ------
   1.     0.0000  0.0000  0.0000  0.0000  0.0000  0.0000
   2.     0.0000  0.0000  0.0000  0.0000  0.0000  0.0000
   3.     0.0000  0.0000  0.0000  0.0000  0.0000  0.0000
   4.     0.0000  0.0000  0.0000  0.0000  0.0000  0.0000
   5.     0.0000  0.0000  0.0000  0.0000  0.0000  0.0000
   6.     0.0000  0.0000  0.0000  0.0000  0.0000  0.0000
   7.     0.0000  0.0000  0.0000  0.0000  0.0000  0.0000
   8.     0.0000  0.0000  0.0000  0.0000  0.0000  0.0000
   9.     0.0000  0.0000  0.0000  0.0000  0.0000  0.0000
  10.     0.0000  0.0000  0.0000  0.0000  0.0000  0.0000
  11.     0.0000  0.0000  0.0000  0.0000  0.0000  0.0000
  12.     0.0000  0.0000  0.0000  0.0000  0.0000  0.0000
  13.     0.0000  0.0000  0.0000  0.0000  0.0000  0.0000
  14.     0.0000  0.0000  0.0000  0.0000  0.0000  0.0000
  15.     0.0000  0.0000  0.0000  0.0000  0.0000  0.0000


 NATURAL POPULATIONS:  Natural atomic orbital occupancies

  NAO Atom No lang   Type(AO)    Occupancy      Energy
 -------------------------------------------------------
   1    C  1  s      Cor( 1s)     1.99999     -10.97783
   2    C  1  s      Val( 2s)     1.07829      -0.12231
   3    C  1  px     Val( 2p)     1.18955       0.04502
   4    C  1  py     Val( 2p)     1.03798       0.09643
   5    C  1  pz     Val( 2p)     1.04132       0.08785

   6    H  2  s      Val( 1s)     0.94942       0.10400

   7    H  3  s      Val( 1s)     0.94942       0.10400

   8    H  4  s      Val( 1s)     0.90870       0.10405

   9    B  5  s      Cor( 1s)     1.99996      -7.39165
  10    B  5  s      Val( 2s)     0.81916       0.22448
  11    B  5  px     Val( 2p)     0.76634       0.29273
  12    B  5  py     Val( 2p)     0.84283       0.31691
  13    B  5  pz     Val( 2p)     0.11274       0.31531

  14    H  6  s      Val( 1s)     1.15214       0.07547

  15    H  7  s      Val( 1s)     1.15214       0.07547


 Summary of Natural Population Analysis:

                                     Natural Population
             Natural    ---------------------------------------------
  Atom No    Charge        Core      Valence    Rydberg      Total
 --------------------------------------------------------------------
    C  1   -0.34714      1.99999     4.34715    0.00000     6.34714
    H  2    0.05058      0.00000     0.94942    0.00000     0.94942
    H  3    0.05058      0.00000     0.94942    0.00000     0.94942
    H  4    0.09130      0.00000     0.90870    0.00000     0.90870
    B  5    0.45897      1.99996     2.54107    0.00000     4.54103
    H  6   -0.15214      0.00000     1.15214    0.00000     1.15214
    H  7   -0.15214      0.00000     1.15214    0.00000     1.15214
 ====================================================================
 * Total *  0.00000      3.99995    12.00005    0.00000    16.00000

                                 Natural Population
 ---------------------------------------------------------
   Core                       3.99995 ( 99.9987% of    4)
   Valence                   12.00005 (100.0004% of   12)
   Natural Minimal Basis     16.00000 (100.0000% of   16)
   Natural Rydberg Basis      0.00000 (  0.0000% of   16)
 ---------------------------------------------------------

    Atom No         Natural Electron Configuration
 ----------------------------------------------------------------------------
      C  1      [core]2s( 1.08)2p( 3.27)
      H  2            1s( 0.95)
      H  3            1s( 0.95)
      H  4            1s( 0.91)
      B  5      [core]2s( 0.82)2p( 1.72)
      H  6            1s( 1.15)
      H  7            1s( 1.15)


 PNAOs in the AO basis:

           AO          1       2       3       4       5       6       7       8
      ------------ ------- ------- ------- ------- ------- ------- ------- -------
   1.  C 1 (s)      0.9814 -0.3202  0.0000  0.0000  0.0000  0.0000  0.0000  0.0000
   2.  C 1 (s)      0.0664  1.0302  0.0000  0.0000  0.0000  0.0000  0.0000  0.0000
   3.  C 1 (px)     0.0000  0.0000  1.0000  0.0000  0.0000  0.0000  0.0000  0.0000
   4.  C 1 (py)     0.0000  0.0000  0.0000  1.0000  0.0000  0.0000  0.0000  0.0000
   5.  C 1 (pz)     0.0000  0.0000  0.0000  0.0000  1.0000  0.0000  0.0000  0.0000
   6.  H 2 (s)      0.0000  0.0000  0.0000  0.0000  0.0000  1.0000  0.0000  0.0000
   7.  H 3 (s)      0.0000  0.0000  0.0000  0.0000  0.0000  0.0000  1.0000  0.0000
   8.  H 4 (s)      0.0000  0.0000  0.0000  0.0000  0.0000  0.0000  0.0000  1.0000
   9.  B 5 (s)      0.0000  0.0000  0.0000  0.0000  0.0000  0.0000  0.0000  0.0000
  10.  B 5 (s)      0.0000  0.0000  0.0000  0.0000  0.0000  0.0000  0.0000  0.0000
  11.  B 5 (px)     0.0000  0.0000  0.0000  0.0000  0.0000  0.0000  0.0000  0.0000
  12.  B 5 (py)     0.0000  0.0000  0.0000  0.0000  0.0000  0.0000  0.0000  0.0000
  13.  B 5 (pz)     0.0000  0.0000  0.0000  0.0000  0.0000  0.0000  0.0000  0.0000
  14.  H 6 (s)      0.0000  0.0000  0.0000  0.0000  0.0000  0.0000  0.0000  0.0000
  15.  H 7 (s)      0.0000  0.0000  0.0000  0.0000  0.0000  0.0000  0.0000  0.0000

           AO          9      10      11      12      13      14      15
      ------------ ------- ------- ------- ------- ------- ------- -------
   1.  C 1 (s)      0.0000  0.0000  0.0000  0.0000  0.0000  0.0000  0.0000
   2.  C 1 (s)      0.0000  0.0000  0.0000  0.0000  0.0000  0.0000  0.0000
   3.  C 1 (px)     0.0000  0.0000  0.0000  0.0000  0.0000  0.0000  0.0000
   4.  C 1 (py)     0.0000  0.0000  0.0000  0.0000  0.0000  0.0000  0.0000
   5.  C 1 (pz)     0.0000  0.0000  0.0000  0.0000  0.0000  0.0000  0.0000
   6.  H 2 (s)      0.0000  0.0000  0.0000  0.0000  0.0000  0.0000  0.0000
   7.  H 3 (s)      0.0000  0.0000  0.0000  0.0000  0.0000  0.0000  0.0000
   8.  H 4 (s)      0.0000  0.0000  0.0000  0.0000  0.0000  0.0000  0.0000
   9.  B 5 (s)      0.9868 -0.3231  0.0000  0.0000  0.0000  0.0000  0.0000
  10.  B 5 (s)      0.0454  1.0374  0.0000  0.0000  0.0000  0.0000  0.0000
  11.  B 5 (px)     0.0000  0.0000  1.0000  0.0000  0.0000  0.0000  0.0000
  12.  B 5 (py)     0.0000  0.0000  0.0000  1.0000  0.0000  0.0000  0.0000
  13.  B 5 (pz)     0.0000  0.0000  0.0000  0.0000  1.0000  0.0000  0.0000
  14.  H 6 (s)      0.0000  0.0000  0.0000  0.0000  0.0000  1.0000  0.0000
  15.  H 7 (s)      0.0000  0.0000  0.0000  0.0000  0.0000  0.0000  1.0000


 PNAO overlap matrix:

           NAO         1       2       3       4       5       6       7       8
      ------------ ------- ------- ------- ------- ------- ------- ------- -------
   1.  C 1( 1s )    1.0000  0.0000  0.0000  0.0000  0.0000  0.0974  0.0974  0.0974
   2.  C 1( 2s )    0.0000  1.0000  0.0000  0.0000  0.0000  0.4966  0.4966  0.4966
   3.  C 1( 2px)    0.0000  0.0000  1.0000  0.0000  0.0000  0.1833  0.1833  0.1041
   4.  C 1( 2py)    0.0000  0.0000  0.0000  1.0000  0.0000 -0.3871  0.3871  0.0000
   5.  C 1( 2pz)    0.0000  0.0000  0.0000  0.0000  1.0000 -0.2032 -0.2032  0.4625
   6.  H 2( 1s )    0.0974  0.4966  0.1833 -0.3871 -0.2032  1.0000  0.1780  0.1780
   7.  H 3( 1s )    0.0974  0.4966  0.1833  0.3871 -0.2032  0.1780  1.0000  0.1780
   8.  H 4( 1s )    0.0974  0.4966  0.1041  0.0000  0.4625  0.1780  0.1780  1.0000
   9.  B 5( 1s )    0.0059  0.0617 -0.0876  0.0000 -0.0104  0.0154  0.0154  0.0154
  10.  B 5( 2s )    0.0671  0.3790 -0.3534  0.0000 -0.0421  0.1464  0.1464  0.1464
  11.  B 5( 2px)    0.0951  0.4188 -0.3169  0.0000 -0.0646  0.1688  0.1688  0.1526
  12.  B 5( 2py)    0.0000  0.0000  0.0000  0.2254  0.0000 -0.0792  0.0792  0.0000
  13.  B 5( 2pz)    0.0113  0.0499 -0.0646  0.0000  0.2177 -0.0259 -0.0259  0.1102
  14.  H 6( 1s )    0.0148  0.1193 -0.1339 -0.0609  0.0195  0.0622  0.0211  0.0622
  15.  H 7( 1s )    0.0148  0.1193 -0.1339  0.0609  0.0195  0.0211  0.0622  0.0622

           NAO         9      10      11      12      13      14      15
      ------------ ------- ------- ------- ------- ------- ------- -------
   1.  C 1( 1s )    0.0059  0.0671  0.0951  0.0000  0.0113  0.0148  0.0148
   2.  C 1( 2s )    0.0617  0.3790  0.4188  0.0000  0.0499  0.1193  0.1193
   3.  C 1( 2px)   -0.0876 -0.3534 -0.3169  0.0000 -0.0646 -0.1339 -0.1339
   4.  C 1( 2py)    0.0000  0.0000  0.0000  0.2254  0.0000 -0.0609  0.0609
   5.  C 1( 2pz)   -0.0104 -0.0421 -0.0646  0.0000  0.2177  0.0195  0.0195
   6.  H 2( 1s )    0.0154  0.1464  0.1688 -0.0792 -0.0259  0.0622  0.0211
   7.  H 3( 1s )    0.0154  0.1464  0.1688  0.0792 -0.0259  0.0211  0.0622
   8.  H 4( 1s )    0.0154  0.1464  0.1526  0.0000  0.1102  0.0622  0.0622
   9.  B 5( 1s )    1.0000  0.0000  0.0000  0.0000  0.0000  0.1201  0.1201
  10.  B 5( 2s )    0.0000  1.0000  0.0000  0.0000  0.0000  0.5510  0.5510
  11.  B 5( 2px)    0.0000  0.0000  1.0000  0.0000  0.0000 -0.2072 -0.2072
  12.  B 5( 2py)    0.0000  0.0000  0.0000  1.0000  0.0000 -0.4374  0.4374
  13.  B 5( 2pz)    0.0000  0.0000  0.0000  0.0000  1.0000  0.2297  0.2297
  14.  H 6( 1s )    0.1201  0.5510 -0.2072 -0.4374  0.2297  1.0000  0.1966
  15.  H 7( 1s )    0.1201  0.5510 -0.2072  0.4374  0.2297  0.1966  1.0000


 PNAO density matrix:

           NAO         1       2       3       4       5       6       7       8
      ------------ ------- ------- ------- ------- ------- ------- ------- -------
   1.  C 1( 1s )    2.0000  0.0000 -0.0009  0.0000 -0.0002  0.1950  0.1950  0.1952
   2.  C 1( 2s )    0.0000  1.8741 -0.0295  0.0000 -0.0036  1.1009  1.1009  1.1104
   3.  C 1( 2px)   -0.0009 -0.0295  1.7030  0.0000  0.0064  0.4998  0.4998  0.2597
   4.  C 1( 2py)    0.0000  0.0000  0.0000  1.6229  0.0000 -1.0237  1.0237  0.0000
   5.  C 1( 2pz)   -0.0002 -0.0036  0.0064  0.0000  1.6279 -0.5313 -0.5313  1.2133
   6.  H 2( 1s )    0.1950  1.1009  0.4998 -1.0237 -0.5313  1.6523  0.3427  0.3587
   7.  H 3( 1s )    0.1950  1.1009  0.4998  1.0237 -0.5313  0.3427  1.6523  0.3587
   8.  H 4( 1s )    0.1952  1.1104  0.2597  0.0000  1.2133  0.3587  0.3587  1.6284
   9.  B 5( 1s )    0.0117  0.1234 -0.1748  0.0000 -0.0212  0.0310  0.0310  0.0300
  10.  B 5( 2s )    0.1333  0.7978 -0.8286  0.0000 -0.1272  0.3108  0.3108  0.2444
  11.  B 5( 2px)    0.1898  0.9235 -0.8567  0.0000 -0.1462  0.3211  0.3211  0.3370
  12.  B 5( 2py)    0.0000  0.0000  0.0000  0.4639  0.0000 -0.1745  0.1745  0.0000
  13.  B 5( 2pz)    0.0220  0.0674 -0.0376  0.0000  0.5288 -0.1274 -0.1274  0.4242
  14.  H 6( 1s )    0.0301  0.2487 -0.2888 -0.1428  0.0494  0.0961  0.0717  0.1245
  15.  H 7( 1s )    0.0301  0.2487 -0.2888  0.1428  0.0494  0.0717  0.0961  0.1245

           NAO         9      10      11      12      13      14      15
      ------------ ------- ------- ------- ------- ------- ------- -------
   1.  C 1( 1s )    0.0117  0.1333  0.1898  0.0000  0.0220  0.0301  0.0301
   2.  C 1( 2s )    0.1234  0.7978  0.9235  0.0000  0.0674  0.2487  0.2487
   3.  C 1( 2px)   -0.1748 -0.8286 -0.8567  0.0000 -0.0376 -0.2888 -0.2888
   4.  C 1( 2py)    0.0000  0.0000  0.0000  0.4639  0.0000 -0.1428  0.1428
   5.  C 1( 2pz)   -0.0212 -0.1272 -0.1462  0.0000  0.5288  0.0494  0.0494
   6.  H 2( 1s )    0.0310  0.3108  0.3211 -0.1745 -0.1274  0.0961  0.0717
   7.  H 3( 1s )    0.0310  0.3108  0.3211  0.1745 -0.1274  0.0717  0.0961
   8.  H 4( 1s )    0.0300  0.2444  0.3370  0.0000  0.4242  0.1245  0.1245
   9.  B 5( 1s )    2.0000  0.0000  0.0012  0.0000  0.0070  0.2394  0.2394
  10.  B 5( 2s )    0.0000  1.7274  0.0499  0.0000  0.3864  1.2100  1.2100
  11.  B 5( 2px)    0.0012  0.0499  1.5417  0.0000 -0.2982 -0.5445 -0.5445
  12.  B 5( 2py)    0.0000  0.0000  0.0000  1.6852  0.0000 -1.0643  1.0643
  13.  B 5( 2pz)    0.0070  0.3864 -0.2982  0.0000  0.3236  0.4169  0.4169
  14.  H 6( 1s )    0.2394  1.2100 -0.5445 -1.0643  0.4169  1.7863  0.4119
  15.  H 7( 1s )    0.2394  1.2100 -0.5445  1.0643  0.4169  0.4119  1.7863


 NAOs in the AO basis:

           AO          1       2       3       4       5       6       7       8
      ------------ ------- ------- ------- ------- ------- ------- ------- -------
   1.  C 1 (s)      0.9814 -0.3703  0.0039  0.0000  0.0004  0.0020  0.0020  0.0027
   2.  C 1 (s)      0.0664  1.6435 -0.0408  0.0000 -0.0044 -0.3901 -0.3901 -0.3927
   3.  C 1 (px)     0.0000 -0.0344  1.2108  0.0000  0.0003 -0.1450 -0.1450 -0.0850
   4.  C 1 (py)     0.0000  0.0000  0.0000  1.2011  0.0000  0.2959 -0.2959  0.0000
   5.  C 1 (pz)     0.0000 -0.0037  0.0003  0.0000  1.1996  0.1546  0.1546 -0.3568
   6.  H 2 (s)      0.0000 -0.3271 -0.1451  0.2961  0.1547  1.2982 -0.0206 -0.0206
   7.  H 3 (s)      0.0000 -0.3271 -0.1451 -0.2961  0.1547 -0.0206  1.2982 -0.0206
   8.  H 4 (s)      0.0000 -0.3245 -0.0839  0.0000 -0.3519 -0.0203 -0.0203  1.2996
   9.  B 5 (s)     -0.0029  0.0082  0.0112  0.0000  0.0029  0.0022  0.0022  0.0024
  10.  B 5 (s)     -0.0001 -0.3205  0.3365  0.0000  0.0291 -0.0233 -0.0233 -0.0231
  11.  B 5 (px)     0.0000 -0.2526  0.2398  0.0000  0.0431 -0.0187 -0.0187 -0.0179
  12.  B 5 (py)     0.0000  0.0000  0.0000 -0.1085  0.0000  0.0044 -0.0044  0.0000
  13.  B 5 (pz)     0.0000 -0.0422  0.0475  0.0000 -0.0950  0.0027  0.0027 -0.0048
  14.  H 6 (s)      0.0000  0.0199 -0.0070 -0.0101  0.0063 -0.0081 -0.0062 -0.0081
  15.  H 7 (s)      0.0000  0.0199 -0.0070  0.0101  0.0063 -0.0062 -0.0081 -0.0081

           AO          9      10      11      12      13      14      15
      ------------ ------- ------- ------- ------- ------- ------- -------
   1.  C 1 (s)     -0.0029  0.0110  0.0061  0.0000  0.0019 -0.0034 -0.0034
   2.  C 1 (s)     -0.0002 -0.3473 -0.4203  0.0000 -0.0701  0.0217  0.0217
   3.  C 1 (px)     0.0000  0.3053  0.3346  0.0000  0.0662 -0.0064 -0.0064
   4.  C 1 (py)     0.0000  0.0000  0.0000 -0.1514  0.0000 -0.0093  0.0093
   5.  C 1 (pz)     0.0000  0.0263  0.0601  0.0000 -0.1325  0.0058  0.0058
   6.  H 2 (s)      0.0000 -0.0213 -0.0262  0.0061  0.0038 -0.0075 -0.0057
   7.  H 3 (s)      0.0000 -0.0213 -0.0262 -0.0061  0.0038 -0.0057 -0.0075
   8.  H 4 (s)      0.0000 -0.0208 -0.0246  0.0000 -0.0066 -0.0074 -0.0074
   9.  B 5 (s)      0.9868 -0.3698 -0.0093  0.0000 -0.0223 -0.0110 -0.0110
  10.  B 5 (s)      0.0454  1.7352  0.0461  0.0000  0.3031 -0.5154 -0.5154
  11.  B 5 (px)     0.0000  0.0303  1.2936  0.0000 -0.0517  0.1421  0.1421
  12.  B 5 (py)     0.0000  0.0000  0.0000  1.3421  0.0000  0.3119 -0.3119
  13.  B 5 (pz)     0.0000  0.1980 -0.0517  0.0000  1.1228 -0.1748 -0.1748
  14.  H 6 (s)      0.0000 -0.5060  0.2145  0.4707 -0.2638  1.4055  0.0090
  15.  H 7 (s)      0.0000 -0.5060  0.2145 -0.4707 -0.2638  0.0090  1.4055


 NAO density matrix:

           NAO         1       2       3       4       5       6       7       8
      ------------ ------- ------- ------- ------- ------- ------- ------- -------
   1.  C 1( 1s )    2.0000  0.0002 -0.0016  0.0000 -0.0002  0.0004  0.0004  0.0006
   2.  C 1( 2s )    0.0002  1.0783 -0.0579  0.0000  0.0002  0.4841  0.4841  0.5030
   3.  C 1( 2px)   -0.0016 -0.0579  1.1896  0.0000  0.0091  0.3622  0.3622  0.1743
   4.  C 1( 2py)    0.0000  0.0000  0.0000  1.0380  0.0000 -0.7008  0.7008  0.0000
   5.  C 1( 2pz)   -0.0002  0.0002  0.0091  0.0000  1.0413 -0.3546 -0.3546  0.8178
   6.  H 2( 1s )    0.0004  0.4841  0.3622 -0.7008 -0.3546  0.9494 -0.0131  0.0110
   7.  H 3( 1s )    0.0004  0.4841  0.3622  0.7008 -0.3546 -0.0131  0.9494  0.0110
   8.  H 4( 1s )    0.0006  0.5030  0.1743  0.0000  0.8178  0.0110  0.0110  0.9087
   9.  B 5( 1s )    0.0000 -0.0007  0.0011  0.0000 -0.0007  0.0003  0.0003 -0.0009
  10.  B 5( 2s )   -0.0025  0.2785 -0.4631  0.0000 -0.1088  0.0367  0.0367 -0.0389
  11.  B 5( 2px)   -0.0007  0.4366 -0.6718  0.0000 -0.0762 -0.0058 -0.0058  0.0442
  12.  B 5( 2py)    0.0000  0.0000  0.0000  0.1273  0.0000 -0.0041  0.0041  0.0000
  13.  B 5( 2pz)   -0.0013 -0.0146  0.0440  0.0000  0.2448 -0.0696 -0.0696  0.1891
  14.  H 6( 1s )    0.0012 -0.0122 -0.0018 -0.0069  0.0136 -0.0526  0.0751 -0.0056
  15.  H 7( 1s )    0.0012 -0.0122 -0.0018  0.0069  0.0136  0.0751 -0.0526 -0.0056

           NAO         9      10      11      12      13      14      15
      ------------ ------- ------- ------- ------- ------- ------- -------
   1.  C 1( 1s )    0.0000 -0.0025 -0.0007  0.0000 -0.0013  0.0012  0.0012
   2.  C 1( 2s )   -0.0007  0.2785  0.4366  0.0000 -0.0146 -0.0122 -0.0122
   3.  C 1( 2px)    0.0011 -0.4631 -0.6718  0.0000  0.0440 -0.0018 -0.0018
   4.  C 1( 2py)    0.0000  0.0000  0.0000  0.1273  0.0000 -0.0069  0.0069
   5.  C 1( 2pz)   -0.0007 -0.1088 -0.0762  0.0000  0.2448  0.0136  0.0136
   6.  H 2( 1s )    0.0003  0.0367 -0.0058 -0.0041 -0.0696 -0.0526  0.0751
   7.  H 3( 1s )    0.0003  0.0367 -0.0058  0.0041 -0.0696  0.0751 -0.0526
   8.  H 4( 1s )   -0.0009 -0.0389  0.0442  0.0000  0.1891 -0.0056 -0.0056
   9.  B 5( 1s )    2.0000  0.0023  0.0010  0.0000  0.0083 -0.0021 -0.0021
  10.  B 5( 2s )    0.0023  0.8192  0.0034  0.0000  0.1294  0.5668  0.5668
  11.  B 5( 2px)    0.0010  0.0034  0.7663  0.0000 -0.1573 -0.3680 -0.3680
  12.  B 5( 2py)    0.0000  0.0000  0.0000  0.8428  0.0000 -0.6925  0.6925
  13.  B 5( 2pz)    0.0083  0.1294 -0.1573  0.0000  0.1127  0.1785  0.1785
  14.  H 6( 1s )   -0.0021  0.5668 -0.3680 -0.6925  0.1785  1.1521 -0.0045
  15.  H 7( 1s )   -0.0021  0.5668 -0.3680  0.6925  0.1785 -0.0045  1.1521


 NATURAL BOND ORBITAL ANALYSIS:

 Initiate 2-center NBO search using THRESH = 1.900 and PRJTHR = 0.300

 Search of NAO DM block for core orbitals on atom:   1
      Eigenvector ( 1) has occupancy 1.99999
            1.0000 0.0000 0.0000 0.0000 0.0000
        1 eigenvector(s) stashed in permanent list

 Search of NAO DM block for core orbitals on atom:   5
      Eigenvector ( 1) has occupancy 1.99996
            1.0000 0.0000 0.0000 0.0000 0.0000
        1 eigenvector(s) stashed in permanent list

 Core orbitals projected from the NAO density matrix
      12.000 electrons remain (>1.900); search continues

 Search of NAO DM block for the following atom(s):   1
      Select eigenvectors with eigenvalue > 1.900
       1.215 1.055 1.040 1.038 0.000

 Search of NAO DM block for the following atom(s):   5
      Select eigenvectors with eigenvalue > 1.900
       0.853 0.843 0.790 0.056 0.000

 No NHOs identified in the 1-center search of the NAO density matrix
      12.000 electrons remain (>1.900); search continues

 Search of NAO DM block for the following atom(s):   1   2
      Select eigenvectors with eigenvalue > 1.900
       1.990 1.212 1.051 1.039 0.005 0.000
      Eigenvector ( 1) has occupancy 1.99000
            0.0000 0.3481 0.2840-0.5076-0.2550 0.6896
      1 hybrid on atom 1 stashed in prospective list
      1 hybrid on atom 2 stashed in prospective list

 Search of NAO DM block for the following atom(s):   1   3
      Select eigenvectors with eigenvalue > 1.900
       1.990 1.212 1.051 1.039 0.005 0.000
      Eigenvector ( 1) has occupancy 1.99000
            0.0000 0.3481 0.2840 0.5076-0.2550 0.6896
      1 hybrid on atom 1 stashed in prospective list
      1 hybrid on atom 3 stashed in prospective list

 Search of NAO DM block for the following atom(s):   1   4
      Select eigenvectors with eigenvalue > 1.900
       1.957 1.215 1.046 1.038 0.000 0.000
      Eigenvector ( 1) has occupancy 1.95667
            0.0000 0.3816 0.1332 0.0000 0.6102 0.6814
      1 hybrid on atom 1 stashed in prospective list
      1 hybrid on atom 4 stashed in prospective list

 Search of NAO DM block for the following atom(s):   1   5
      Select eigenvectors with eigenvalue > 1.900
       2.000 1.101 1.099 1.058 0.850 0.780 0.000 0.000 0.000 0.000
      Eigenvector ( 1) has occupancy 2.00000
            0.0000-0.3942 0.6629 0.0000 0.1005 0.0000-0.3582-0.5141
            0.0000 0.0498
      1 hybrid on atom 1 stashed in prospective list
      1 hybrid on atom 5 stashed in prospective list

 Search of NAO DM block for the following atom(s):   5   6
      Select eigenvectors with eigenvalue > 1.900
       1.995 0.848 0.790 0.056 0.004 0.000
      Eigenvector ( 1) has occupancy 1.99529
            0.0000 0.3782-0.2414-0.4563 0.1181 0.7593
      1 hybrid on atom 5 stashed in prospective list
      1 hybrid on atom 6 stashed in prospective list

 Search of NAO DM block for the following atom(s):   5   7
      Select eigenvectors with eigenvalue > 1.900
       1.995 0.848 0.790 0.056 0.004 0.000
      Eigenvector ( 1) has occupancy 1.99529
            0.0000 0.3782-0.2414 0.4563 0.1181 0.7593
      1 hybrid on atom 5 stashed in prospective list
      1 hybrid on atom 7 stashed in prospective list

 Stash prospective hybrids having projection expectation value > 0.300
       1.000 1.000 1.000 1.000 0.998 0.998 0.997 0.997 0.997 0.997 0.996 0.996
      0 hybrids eliminated in 1 pass
      12 hybrids moved from prospective to permanent list

 NHOs of 2-center eigenvectors projected from the NAO density matrix
       0.056 electrons remain in the fully projected matrix

 Search of NHO DM block for the following atom(s):   1
      Select eigenvectors with eigenvalue > 1.900
       2.000 0.000 0.000 0.000 0.000
      Eigenvector ( 1) has occupancy 1.99999
            1.0000 0.0000 0.0000 0.0000 0.0000
           NBO accepted:    1. Label:CR ( 1)   1
        1 eigenvector(s) stashed in permanent list

 Search of NHO DM block for the following atom(s):   5
      Select eigenvectors with eigenvalue > 1.900
       2.000 0.056 0.000 0.000 0.000
      Eigenvector ( 1) has occupancy 1.99996
            1.0000 0.0000 0.0000 0.0000 0.0000
           NBO accepted:    2. Label:CR ( 1)   5
        1 eigenvector(s) stashed in permanent list

  1-center NBOs projected from the NHO density matrix
      12.000 electrons remain (>1.900); search continues

 Search of NHO DM block for the following atom(s):   1   2
      Select eigenvectors with eigenvalue > 1.900
       1.990 0.005 0.000 0.000 0.000 0.000
      Eigenvector ( 1) has occupancy 1.98964
            0.0000 0.0000 0.7240 0.0000 0.0000 0.6898
      Occupancy is 1.990 after deleting minor hybrid components
            0.0000 0.0000 0.7240 0.0000 0.0000 0.6898
           NBO accepted:    3. Label:BD ( 1)   1   2
      Occupancy is 0.005 for antibonding component
            0.0000 0.0000-0.6898 0.0000 0.0000 0.7240
           NBO accepted:    4. Label:BD*( 1)   1   2
        2 eigenvector(s) stashed in permanent list

 Search of NHO DM block for the following atom(s):   1   3
      Select eigenvectors with eigenvalue > 1.900
       1.990 0.005 0.000 0.000 0.000 0.000
      Eigenvector ( 1) has occupancy 1.98964
            0.0000 0.0000 0.0000 0.7240 0.0000 0.6898
      Occupancy is 1.990 after deleting minor hybrid components
            0.0000 0.0000 0.0000 0.7240 0.0000 0.6898
           NBO accepted:    5. Label:BD ( 1)   1   3
      Occupancy is 0.005 for antibonding component
            0.0000 0.0000 0.0000-0.6898 0.0000 0.7240
           NBO accepted:    6. Label:BD*( 1)   1   3
        2 eigenvector(s) stashed in permanent list

 Search of NHO DM block for the following atom(s):   1   4
      Select eigenvectors with eigenvalue > 1.900
       1.956 0.000 0.000 0.000 0.000 0.000
      Eigenvector ( 1) has occupancy 1.95648
            0.0000 0.7318 0.0000 0.0000 0.0000 0.6815
      Occupancy is 1.956 after deleting minor hybrid components
            0.0000 0.7318 0.0000 0.0000 0.0000 0.6815
           NBO accepted:    7. Label:BD ( 1)   1   4
      Occupancy is 0.000 for antibonding component
            0.0000-0.6815 0.0000 0.0000 0.0000 0.7318
           NBO accepted:    8. Label:BD*( 1)   1   4
        2 eigenvector(s) stashed in permanent list

 Search of NHO DM block for the following atom(s):   1   5
      Select eigenvectors with eigenvalue > 1.900
       1.999 0.001 0.000 0.000 0.000 0.000 0.000 0.000 0.000 0.000
      Eigenvector ( 1) has occupancy 1.99946
            0.0000 0.0000 0.0000 0.0000 0.7775 0.0000 0.0000 0.0000
            0.6289 0.0000
      Occupancy is 1.999 after deleting minor hybrid components
            0.0000 0.0000 0.0000 0.0000 0.7775 0.0000 0.0000 0.0000
            0.6289 0.0000
           NBO accepted:    9. Label:BD ( 1)   1   5
      Occupancy is 0.001 for antibonding component
            0.0000 0.0000 0.0000 0.0000-0.6289 0.0000 0.0000 0.0000
            0.7775 0.0000
           NBO accepted:   10. Label:BD*( 1)   1   5
        2 eigenvector(s) stashed in permanent list

 Search of NHO DM block for the following atom(s):   5   6
      Select eigenvectors with eigenvalue > 1.900
       1.995 0.004 0.000 0.000 0.000 0.000
      Eigenvector ( 1) has occupancy 1.99523
            0.0000 0.6507 0.0000 0.0000 0.0000 0.7593
      Occupancy is 1.995 after deleting minor hybrid components
            0.0000 0.6507 0.0000 0.0000 0.0000 0.7593
           NBO accepted:   11. Label:BD ( 1)   5   6
      Occupancy is 0.004 for antibonding component
            0.0000 0.7593 0.0000 0.0000 0.0000-0.6507
           NBO accepted:   12. Label:BD*( 1)   5   6
        2 eigenvector(s) stashed in permanent list

 Search of NHO DM block for the following atom(s):   5   7
      Select eigenvectors with eigenvalue > 1.900
       1.995 0.004 0.000 0.000 0.000 0.000
      Eigenvector ( 1) has occupancy 1.99523
            0.0000 0.0000 0.6507 0.0000 0.0000 0.7593
      Occupancy is 1.995 after deleting minor hybrid components
            0.0000 0.0000 0.6507 0.0000 0.0000 0.7593
           NBO accepted:   13. Label:BD ( 1)   5   7
      Occupancy is 0.004 for antibonding component
            0.0000 0.0000 0.7593 0.0000 0.0000-0.6507
           NBO accepted:   14. Label:BD*( 1)   5   7
        2 eigenvector(s) stashed in permanent list

  2-center NBOs projected from the NHO density matrix
       0.056 electrons remain in the fully projected matrix

                            Occupancies       Lewis Structure    Low   High
         Max    Occ     -------------------  -----------------   occ   occ
  Cycle  Ctr   Thresh    Lewis   non-Lewis     CR  BD  nC  LP    (L)   (NL)
 ============================================================================
    1     2     1.90    15.92563   0.07437      2   6   0   0     0      0
 ----------------------------------------------------------------------------

 Structure accepted: No low occupancy Lewis orbitals

 -------------------------------------------------------
   Core                      3.99995 ( 99.999% of   4)
   Valence Lewis            11.92568 ( 99.381% of  12)
  ==================      =============================
   Total Lewis              15.92563 ( 99.535% of  16)
  -----------------------------------------------------
   Valence non-Lewis         0.07437 (  0.465% of  16)
   Rydberg non-Lewis         0.00000 (  0.000% of  16)
  ==================      =============================
   Total non-Lewis           0.07437 (  0.465% of  16)
 -------------------------------------------------------


     (Occupancy)   Bond orbital / Coefficients / Hybrids
 ------------------ Lewis ------------------------------------------------------
   1. (1.99999) CR ( 1) C  1            s(100.00%)
                                         1.0000  0.0000  0.0000  0.0000  0.0000
   2. (1.99996) CR ( 1) B  5            s(100.00%)
                                         1.0000  0.0000  0.0000  0.0000  0.0000
   3. (1.98964) BD ( 1) C  1- H  2
               ( 52.41%)   0.7240* C  1 s( 23.26%)p 3.30( 76.74%)
                                         0.0000  0.4823  0.3666 -0.7071 -0.3647
               ( 47.59%)   0.6898* H  2 s(100.00%)
                                         1.0000
   4. (1.98964) BD ( 1) C  1- H  3
               ( 52.41%)   0.7240* C  1 s( 23.26%)p 3.30( 76.74%)
                                         0.0000  0.4823  0.3666  0.7071 -0.3647
               ( 47.59%)   0.6898* H  3 s(100.00%)
                                         1.0000
   5. (1.95648) BD ( 1) C  1- H  4
               ( 53.56%)   0.7318* C  1 s( 25.73%)p 2.89( 74.27%)
                                         0.0000  0.5072  0.1726  0.0000  0.8444
               ( 46.44%)   0.6815* H  4 s(100.00%)
                                         1.0000
   6. (1.99946) BD ( 1) C  1- B  5
               ( 60.45%)   0.7775* C  1 s( 27.74%)p 2.60( 72.26%)
                                         0.0000  0.5267 -0.8376  0.0000 -0.1452
               ( 39.55%)   0.6289* B  5 s( 31.59%)p 2.17( 68.41%)
                                         0.0000  0.5621  0.8231  0.0000 -0.0818
   7. (1.99523) BD ( 1) B  5- H  6
               ( 42.34%)   0.6507* B  5 s( 32.81%)p 2.05( 67.19%)
                                         0.0000  0.5728 -0.3732 -0.7071  0.1806
               ( 57.66%)   0.7593* H  6 s(100.00%)
                                         1.0000
   8. (1.99523) BD ( 1) B  5- H  7
               ( 42.34%)   0.6507* B  5 s( 32.81%)p 2.05( 67.19%)
                                         0.0000  0.5728 -0.3732  0.7071  0.1806
               ( 57.66%)   0.7593* H  7 s(100.00%)
                                         1.0000
 ---------------- non-Lewis ----------------------------------------------------
   9. (0.05575) LV ( 1) B  5            s(  2.79%)p34.84( 97.21%)
                                         0.0000  0.1670 -0.2098  0.0000 -0.9634
  10. (0.00499) BD*( 1) C  1- H  2
               ( 47.59%)   0.6898* C  1 s( 23.26%)p 3.30( 76.74%)
                                         0.0000 -0.4823 -0.3666  0.7071  0.3647
               ( 52.41%)  -0.7240* H  2 s(100.00%)
                                        -1.0000
  11. (0.00498) BD*( 1) C  1- H  3
               ( 47.59%)   0.6898* C  1 s( 23.26%)p 3.30( 76.74%)
                                         0.0000 -0.4823 -0.3666 -0.7071  0.3647
               ( 52.41%)  -0.7240* H  3 s(100.00%)
                                        -1.0000
  12. (0.00011) BD*( 1) C  1- H  4
               ( 46.44%)   0.6815* C  1 s( 25.73%)p 2.89( 74.27%)
                                         0.0000 -0.5072 -0.1726  0.0000 -0.8444
               ( 53.56%)  -0.7318* H  4 s(100.00%)
                                        -1.0000
  13. (0.00052) BD*( 1) C  1- B  5
               ( 39.55%)   0.6289* C  1 s( 27.74%)p 2.60( 72.26%)
                                         0.0000 -0.5267  0.8376  0.0000  0.1452
               ( 60.45%)  -0.7775* B  5 s( 31.59%)p 2.17( 68.41%)
                                         0.0000 -0.5621 -0.8231  0.0000  0.0818
  14. (0.00401) BD*( 1) B  5- H  6
               ( 57.66%)   0.7593* B  5 s( 32.81%)p 2.05( 67.19%)
                                         0.0000 -0.5728  0.3732  0.7071 -0.1806
               ( 42.34%)  -0.6507* H  6 s(100.00%)
                                        -1.0000
  15. (0.00401) BD*( 1) B  5- H  7
               ( 57.66%)   0.7593* B  5 s( 32.81%)p 2.05( 67.19%)
                                         0.0000 -0.5728  0.3732 -0.7071 -0.1806
               ( 42.34%)  -0.6507* H  7 s(100.00%)
                                        -1.0000


 NHO DIRECTIONALITY AND BOND BENDING (deviation from line of nuclear centers at
                                      the position of maximum hybrid amplitude)

         [Thresholds for printing:  angular deviation  >  1.0 degree]
                                    p- or d-character  > 25.0%
                                    orbital occupancy  >  0.10e

                        Line of Centers        Hybrid 1             Hybrid 2
                        ---------------  -------------------  ------------------
           NBO            Theta   Phi    Theta   Phi    Dev   Theta   Phi    Dev
 ===============================================================================
   3. BD ( 1) C  1- H  2  115.4  295.3   114.6  297.1   1.8     --     --    --
   4. BD ( 1) C  1- H  3  115.4   64.7   114.6   62.9   1.8     --     --    --
   5. BD ( 1) C  1- H  4   12.7    0.0    10.7    0.0   2.0     --     --    --
   6. BD ( 1) C  1- B  5   96.8  180.0   100.1  180.0   3.4    94.9    0.0  11.7
   7. BD ( 1) B  5- H  6   64.6  244.7    77.4  242.5  12.9     --     --    --
   8. BD ( 1) B  5- H  7   64.6  115.3    77.4  117.5  12.9     --     --    --


 SECOND ORDER PERTURBATION THEORY ANALYSIS OF FOCK MATRIX IN NBO BASIS

     Threshold for printing:   0.50 kcal/mol
                                                          E(2) E(NL)-E(L) F(L,NL)
      Donor (L) NBO              Acceptor (NL) NBO      kcal/mol   a.u.    a.u.
 ===============================================================================

 within unit  1
    3. BD ( 1) C  1- H  2       9. LV ( 1) B  5            2.14    0.87   0.038
    3. BD ( 1) C  1- H  2      14. BD*( 1) B  5- H  6      1.24    1.54   0.039
    3. BD ( 1) C  1- H  2      15. BD*( 1) B  5- H  7      2.00    1.54   0.050
    4. BD ( 1) C  1- H  3       9. LV ( 1) B  5            2.14    0.87   0.038
    4. BD ( 1) C  1- H  3      14. BD*( 1) B  5- H  6      2.00    1.54   0.050
    4. BD ( 1) C  1- H  3      15. BD*( 1) B  5- H  7      1.24    1.54   0.039
    5. BD ( 1) C  1- H  4       9. LV ( 1) B  5           21.44    0.87   0.122
    7. BD ( 1) B  5- H  6      10. BD*( 1) C  1- H  2      0.54    1.31   0.024
    7. BD ( 1) B  5- H  6      11. BD*( 1) C  1- H  3      2.97    1.31   0.056
    8. BD ( 1) B  5- H  7      10. BD*( 1) C  1- H  2      2.97    1.31   0.056
    8. BD ( 1) B  5- H  7      11. BD*( 1) C  1- H  3      0.54    1.31   0.024


 NATURAL BOND ORBITALS (Summary):

                                                     Principal Delocalizations
           NBO                 Occupancy    Energy   (geminal,vicinal,remote)
 ===============================================================================
 Molecular unit  1  (CH5B)
 ------ Lewis --------------------------------------
    1. CR ( 1) C  1             1.99999   -10.97783
    2. CR ( 1) B  5             1.99996    -7.39165
    3. BD ( 1) C  1- H  2       1.98964    -0.60915  9(v),15(v),14(v)
    4. BD ( 1) C  1- H  3       1.98964    -0.60915  9(v),14(v),15(v)
    5. BD ( 1) C  1- H  4       1.95648    -0.61477  9(v)
    6. BD ( 1) C  1- B  5       1.99946    -0.59521
    7. BD ( 1) B  5- H  6       1.99523    -0.55426  11(v),10(v)
    8. BD ( 1) B  5- H  7       1.99523    -0.55426  10(v),11(v)
 ------ non-Lewis ----------------------------------
    9. LV ( 1) B  5             0.05575     0.25933
   10. BD*( 1) C  1- H  2       0.00499     0.75773
   11. BD*( 1) C  1- H  3       0.00498     0.75773
   12. BD*( 1) C  1- H  4       0.00011     0.75103
   13. BD*( 1) C  1- B  5       0.00052     0.86413
   14. BD*( 1) B  5- H  6       0.00401     0.93314
   15. BD*( 1) B  5- H  7       0.00401     0.93314
          -------------------------------
                 Total Lewis   15.92563  ( 99.5352%)
           Valence non-Lewis    0.07437  (  0.4648%)
           Rydberg non-Lewis    0.00000  (  0.0000%)
          -------------------------------
               Total unit  1   16.00000  (100.0000%)
              Charge unit  1    0.00000

 $CHOOSE
   BOND S 1 2 S 1 3 S 1 4 S 1 5 S 5 6 S 5 7 END
 $END

 NBO analysis completed in 0.18 CPU seconds (0 wall seconds)
 Maximum scratch memory used by NBO was 223010 words (1.70 MB)
 Maximum scratch memory used by G16NBO was 8554 words (0.07 MB)

 Opening RunExU unformatted file "/cluster/work/users/beto93/CH3BH2/Gau-1555060.EUF"
 Read unf file /cluster/work/users/beto93/CH3BH2/Gau-1555060.EUF:
 Label Gaussian matrix elements                                         IVers= 2 NLab= 2 Version=ES64L-G16RevC.01
 Title NBO-CH3BH2                                                      
 NAtoms=     7 NBasis=    15 NBsUse=    15 ICharg=     0 Multip=     1 NE=    16 Len12L=8 Len4L=8 IOpCl= 0 ICGU=111
 GAUSSIAN SCALARS                    NI= 1 NR= 1 NTot=       1 LenBuf=    2 NRI=1 N=    1000
 NPA CHARGES                         NI= 0 NR= 1 NTot=       7 LenBuf= 4000 NRI=1 N=       7
 Recovered energy= -64.5776684936     dipole=      0.031864251572     -0.000000506280     -0.378503939030
 Calling FoFJK, ICntrl=      2127 FMM=F ISym2X=0 I1Cent= 0 IOpClX= 0 NMat=1 NMatS=1 NMatT=0.
 ***** Axes restored to original set *****
 -------------------------------------------------------------------
 Center     Atomic                   Forces (Hartrees/Bohr)
 Number     Number              X              Y              Z
 -------------------------------------------------------------------
      1        6           0.078122130    0.014650282    0.055240648
      2        1           0.005608783    0.015773005    0.014098153
      3        1           0.015161565    0.015772872    0.000588900
      4        1          -0.010740478    0.006631486   -0.007594464
      5        5          -0.001298015    0.043509028   -0.000918699
      6        1          -0.109297047   -0.048168365    0.062445823
      7        1           0.022443062   -0.048168307   -0.123860361
 -------------------------------------------------------------------
 Cartesian Forces:  Max     0.123860361 RMS     0.048191380

 GradGradGradGradGradGradGradGradGradGradGradGradGradGradGradGradGradGrad
 Berny optimization.
 FormGI is forming the generalized inverse of G from B-inverse, IUseBI=4.
 Internal  Forces:  Max     0.123861425 RMS     0.051382700
 Search for a local minimum.
 Step number   1 out of a maximum of   31
 All quantities printed in internal units (Hartrees-Bohrs-Radians)
 Mixed Optimization -- RFO/linear search
 Second derivative matrix not updated -- first step.
 ITU=  0
     Eigenvalues ---    0.01824   0.05065   0.08125   0.08125   0.16000
     Eigenvalues ---    0.16000   0.16000   0.16000   0.16000   0.36964
     Eigenvalues ---    0.37230   0.37230   0.37230   0.42780   0.42780
 RFO step:  Lambda=-1.35152512D-01 EMin= 1.82437119D-02
 Linear search not attempted -- first point.
 Maximum step size (   0.300) exceeded in Quadratic search.
    -- Step size scaled by   0.586
 Iteration  1 RMS(Cart)=  0.10450153 RMS(Int)=  0.00717212
 Iteration  2 RMS(Cart)=  0.00294270 RMS(Int)=  0.00612128
 Iteration  3 RMS(Cart)=  0.00003342 RMS(Int)=  0.00612120
 Iteration  4 RMS(Cart)=  0.00000061 RMS(Int)=  0.00612120
 Variable       Old X    -DE/DX   Delta X   Delta X   Delta X     New X
                                 (Linear)    (Quad)   (Total)
    R1        2.02201   0.01410   0.00000   0.01628   0.01628   2.03828
    R2        2.02201   0.01410   0.00000   0.01628   0.01628   2.03828
    R3        2.02201   0.01301   0.00000   0.01502   0.01502   2.03702
    R4        2.75900   0.10547   0.00000   0.12239   0.12239   2.88139
    R5        1.94642   0.12386   0.00000   0.12889   0.12889   2.07531
    R6        1.94642   0.12386   0.00000   0.12889   0.12889   2.07531
    A1        1.91063  -0.01367   0.00000  -0.02158  -0.02327   1.88736
    A2        1.91064  -0.00631   0.00000  -0.01531  -0.01482   1.89581
    A3        1.91063   0.02330   0.00000   0.04763   0.04691   1.95755
    A4        1.91063  -0.00631   0.00000  -0.01531  -0.01482   1.89581
    A5        1.91063   0.02330   0.00000   0.04763   0.04691   1.95755
    A6        1.91063  -0.02029   0.00000  -0.04305  -0.04254   1.86809
    A7        1.91063   0.05527   0.00000   0.12804   0.11511   2.02575
    A8        1.91063   0.05527   0.00000   0.12804   0.11511   2.02574
    A9        1.91063  -0.00817   0.00000   0.02047   0.00182   1.91245
    D1        1.04720  -0.03474   0.00000  -0.10690  -0.11177   0.93543
    D2       -3.14159   0.02295   0.00000   0.07499   0.07817  -3.06342
    D3       -3.14159  -0.02295   0.00000  -0.07499  -0.07817   3.06342
    D4       -1.04720   0.03474   0.00000   0.10689   0.11177  -0.93543
    D5       -1.04720  -0.02884   0.00000  -0.09094  -0.09497  -1.14217
    D6        1.04720   0.02884   0.00000   0.09094   0.09497   1.14217
         Item               Value     Threshold  Converged?
 Maximum Force            0.123861     0.000002     NO 
 RMS     Force            0.051383     0.000001     NO 
 Maximum Displacement     0.188904     0.000006     NO 
 RMS     Displacement     0.103416     0.000004     NO 
 Predicted change in Energy=-6.537144D-02
 GradGradGradGradGradGradGradGradGradGradGradGradGradGradGradGradGradGrad

                          Input orientation:                          
 ---------------------------------------------------------------------
 Center     Atomic      Atomic             Coordinates (Angstroms)
 Number     Number       Type             X           Y           Z
 ---------------------------------------------------------------------
[...]
      Eigenvector ( 1) has occupancy 2.00000
            1.0000 0.0000 0.0000 0.0000 0.0000
        1 eigenvector(s) stashed in permanent list

 Search of NAO DM block for core orbitals on atom:   5
      Eigenvector ( 1) has occupancy 2.00000
            1.0000 0.0000 0.0000 0.0000 0.0000
        1 eigenvector(s) stashed in permanent list

 Core orbitals projected from the NAO density matrix
      12.000 electrons remain (>1.900); search continues

 Search of NAO DM block for the following atom(s):   1
      Select eigenvectors with eigenvalue > 1.900
       1.217 1.057 1.036 1.032 0.000

 Search of NAO DM block for the following atom(s):   5
      Select eigenvectors with eigenvalue > 1.900
       0.951 0.773 0.731 0.041 0.000

 No NHOs identified in the 1-center search of the NAO density matrix
      12.000 electrons remain (>1.900); search continues

 Search of NAO DM block for the following atom(s):   1   2
      Select eigenvectors with eigenvalue > 1.900
       1.991 1.217 1.047 1.032 0.003 0.000
      Eigenvector ( 1) has occupancy 1.99054
            0.0000 0.3735 0.2317-0.5070-0.2726 0.6895
      1 hybrid on atom 1 stashed in prospective list
      1 hybrid on atom 2 stashed in prospective list

 Search of NAO DM block for the following atom(s):   1   3
      Select eigenvectors with eigenvalue > 1.900
       1.991 1.217 1.047 1.032 0.003 0.000
      Eigenvector ( 1) has occupancy 1.99054
            0.0000 0.3735 0.2317 0.5070-0.2726 0.6895
      1 hybrid on atom 1 stashed in prospective list
      1 hybrid on atom 3 stashed in prospective list

 Search of NAO DM block for the following atom(s):   1   4
      Select eigenvectors with eigenvalue > 1.900
       1.971 1.217 1.053 1.036 0.000 0.000
      Eigenvector ( 1) has occupancy 1.97113
            0.0000 0.3569 0.1904 0.0000 0.6012 0.6892
      1 hybrid on atom 1 stashed in prospective list
      1 hybrid on atom 4 stashed in prospective list

 Search of NAO DM block for the following atom(s):   1   5
      Select eigenvectors with eigenvalue > 1.900
       2.000 1.076 1.076 1.056 0.896 0.732 0.000 0.000 0.000 0.000
      Eigenvector ( 1) has occupancy 2.00000
            0.0000-0.4106 0.6590 0.0000 0.0357 0.0000-0.4130-0.4745
            0.0000 0.0140
      1 hybrid on atom 1 stashed in prospective list
      1 hybrid on atom 5 stashed in prospective list

 Search of NAO DM block for the following atom(s):   5   6
      Select eigenvectors with eigenvalue > 1.900
       1.998 0.880 0.738 0.041 0.004 0.000
      Eigenvector ( 1) has occupancy 1.99754
            0.0000 0.4246-0.2448-0.4249 0.0065 0.7611
      1 hybrid on atom 5 stashed in prospective list
      1 hybrid on atom 6 stashed in prospective list

 Search of NAO DM block for the following atom(s):   5   7
      Select eigenvectors with eigenvalue > 1.900
       1.998 0.880 0.738 0.041 0.004 0.000
      Eigenvector ( 1) has occupancy 1.99754
            0.0000 0.4246-0.2448 0.4249 0.0065 0.7611
      1 hybrid on atom 5 stashed in prospective list
      1 hybrid on atom 7 stashed in prospective list

 Stash prospective hybrids having projection expectation value > 0.300
       0.999 0.999 0.999 0.999 0.999 0.999 0.964 0.964 0.964 0.964 0.963 0.963
      0 hybrids eliminated in 1 pass
      12 hybrids moved from prospective to permanent list

 NHOs of 2-center eigenvectors projected from the NAO density matrix
       0.041 electrons remain in the fully projected matrix

 Search of NHO DM block for the following atom(s):   1
      Select eigenvectors with eigenvalue > 1.900
       2.000 0.000 0.000 0.000 0.000
      Eigenvector ( 1) has occupancy 2.00000
            1.0000 0.0000 0.0000 0.0000 0.0000
           NBO accepted:    1. Label:CR ( 1)   1
        1 eigenvector(s) stashed in permanent list

 Search of NHO DM block for the following atom(s):   5
      Select eigenvectors with eigenvalue > 1.900
       2.000 0.041 0.000 0.000 0.000
      Eigenvector ( 1) has occupancy 2.00000
            1.0000 0.0000 0.0000 0.0000 0.0000
           NBO accepted:    2. Label:CR ( 1)   5
        1 eigenvector(s) stashed in permanent list

  1-center NBOs projected from the NHO density matrix
      12.000 electrons remain (>1.900); search continues

 Search of NHO DM block for the following atom(s):   1   2
      Select eigenvectors with eigenvalue > 1.900
       1.990 0.003 0.000 0.000 0.000 0.000
      Eigenvector ( 1) has occupancy 1.99037
            0.0000 0.0000 0.7242 0.0000 0.0000 0.6896
      Occupancy is 1.990 after deleting minor hybrid components
            0.0000 0.0000 0.7242 0.0000 0.0000 0.6896
           NBO accepted:    3. Label:BD ( 1)   1   2
      Occupancy is 0.003 for antibonding component
            0.0000 0.0000-0.6896 0.0000 0.0000 0.7242
           NBO accepted:    4. Label:BD*( 1)   1   2
        2 eigenvector(s) stashed in permanent list

 Search of NHO DM block for the following atom(s):   1   3
      Select eigenvectors with eigenvalue > 1.900
       1.990 0.003 0.000 0.000 0.000 0.000
      Eigenvector ( 1) has occupancy 1.99037
            0.0000 0.0000 0.0000 0.7242 0.0000 0.6896
      Occupancy is 1.990 after deleting minor hybrid components
            0.0000 0.0000 0.0000 0.7242 0.0000 0.6896
           NBO accepted:    5. Label:BD ( 1)   1   3
      Occupancy is 0.003 for antibonding component
            0.0000 0.0000 0.0000-0.6896 0.0000 0.7242
           NBO accepted:    6. Label:BD*( 1)   1   3
        2 eigenvector(s) stashed in permanent list

 Search of NHO DM block for the following atom(s):   1   4
      Select eigenvectors with eigenvalue > 1.900
       1.971 0.000 0.000 0.000 0.000 0.000
      Eigenvector ( 1) has occupancy 1.97097
            0.0000 0.7246 0.0000 0.0000 0.0000 0.6892
      Occupancy is 1.971 after deleting minor hybrid components
            0.0000 0.7246 0.0000 0.0000 0.0000 0.6892
           NBO accepted:    7. Label:BD ( 1)   1   4
      Occupancy is 0.000 for antibonding component
            0.0000-0.6892 0.0000 0.0000 0.0000 0.7246
           NBO accepted:    8. Label:BD*( 1)   1   4
        2 eigenvector(s) stashed in permanent list

 Search of NHO DM block for the following atom(s):   1   5
      Select eigenvectors with eigenvalue > 1.900
       1.995 0.005 0.000 0.000 0.000 0.000 0.000 0.000 0.000 0.000
      Eigenvector ( 1) has occupancy 1.99532
            0.0000 0.0000 0.0000 0.0000 0.7801 0.0000 0.0000 0.0000
            0.6257 0.0000
      Occupancy is 1.995 after deleting minor hybrid components
            0.0000 0.0000 0.0000 0.0000 0.7801 0.0000 0.0000 0.0000
            0.6257 0.0000
           NBO accepted:    9. Label:BD ( 1)   1   5
      Occupancy is 0.005 for antibonding component
            0.0000 0.0000 0.0000 0.0000-0.6257 0.0000 0.0000 0.0000
            0.7801 0.0000
           NBO accepted:   10. Label:BD*( 1)   1   5
        2 eigenvector(s) stashed in permanent list

 Search of NHO DM block for the following atom(s):   5   6
      Select eigenvectors with eigenvalue > 1.900
       1.993 0.008 0.000 0.000 0.000 0.000
      Eigenvector ( 1) has occupancy 1.99309
            0.0000 0.6455 0.0000 0.0000 0.0000 0.7638
      Occupancy is 1.993 after deleting minor hybrid components
            0.0000 0.6455 0.0000 0.0000 0.0000 0.7638
           NBO accepted:   11. Label:BD ( 1)   5   6
      Occupancy is 0.008 for antibonding component
            0.0000 0.7638 0.0000 0.0000 0.0000-0.6455
           NBO accepted:   12. Label:BD*( 1)   5   6
        2 eigenvector(s) stashed in permanent list

 Search of NHO DM block for the following atom(s):   5   7
      Select eigenvectors with eigenvalue > 1.900
       1.993 0.008 0.000 0.000 0.000 0.000
      Eigenvector ( 1) has occupancy 1.99309
            0.0000 0.0000 0.6455 0.0000 0.0000 0.7638
      Occupancy is 1.993 after deleting minor hybrid components
            0.0000 0.0000 0.6455 0.0000 0.0000 0.7638
           NBO accepted:   13. Label:BD ( 1)   5   7
      Occupancy is 0.008 for antibonding component
            0.0000 0.0000 0.7638 0.0000 0.0000-0.6455
           NBO accepted:   14. Label:BD*( 1)   5   7
        2 eigenvector(s) stashed in permanent list

  2-center NBOs projected from the NHO density matrix
       0.041 electrons remain in the fully projected matrix

                            Occupancies       Lewis Structure    Low   High
         Max    Occ     -------------------  -----------------   occ   occ
  Cycle  Ctr   Thresh    Lewis   non-Lewis     CR  BD  nC  LP    (L)   (NL)
 ============================================================================
    1     2     1.90    15.93321   0.06679      2   6   0   0     0      0
 ----------------------------------------------------------------------------

 Structure accepted: No low occupancy Lewis orbitals

 -------------------------------------------------------
   Core                      4.00000 (100.000% of   4)
   Valence Lewis            11.93321 ( 99.443% of  12)
  ==================      =============================
   Total Lewis              15.93321 ( 99.583% of  16)
  -----------------------------------------------------
   Valence non-Lewis         0.06679 (  0.417% of  16)
   Rydberg non-Lewis         0.00000 (  0.000% of  16)
  ==================      =============================
   Total non-Lewis           0.06679 (  0.417% of  16)
 -------------------------------------------------------


     (Occupancy)   Bond orbital / Coefficients / Hybrids
 ------------------ Lewis ------------------------------------------------------
   1. (2.00000) CR ( 1) C  1            s(100.00%)
                                         1.0000  0.0000  0.0000  0.0000  0.0000
   2. (2.00000) CR ( 1) B  5            s(100.00%)
                                         1.0000  0.0000  0.0000  0.0000  0.0000
   3. (1.99037) BD ( 1) C  1- H  2
               ( 52.44%)   0.7242* C  1 s( 24.96%)p 3.01( 75.04%)
                                         0.0000  0.4996  0.3220 -0.7071 -0.3830
               ( 47.56%)   0.6896* H  2 s(100.00%)
                                         1.0000
   4. (1.99037) BD ( 1) C  1- H  3
               ( 52.44%)   0.7242* C  1 s( 24.96%)p 3.01( 75.04%)
                                         0.0000  0.4996  0.3220  0.7071 -0.3830
               ( 47.56%)   0.6896* H  3 s(100.00%)
                                         1.0000
   5. (1.97097) BD ( 1) C  1- H  4
               ( 52.50%)   0.7246* C  1 s( 23.04%)p 3.34( 76.96%)
                                         0.0000  0.4800  0.2541  0.0000  0.8397
               ( 47.50%)   0.6892* H  4 s(100.00%)
                                         1.0000
   6. (1.99532) BD ( 1) C  1- B  5
               ( 60.86%)   0.7801* C  1 s( 27.04%)p 2.70( 72.96%)
                                         0.0000  0.5200 -0.8533  0.0000 -0.0391
               ( 39.14%)   0.6257* B  5 s( 33.15%)p 2.02( 66.85%)
                                         0.0000  0.5757  0.8173  0.0000 -0.0239
   7. (1.99309) BD ( 1) B  5- H  6
               ( 41.66%)   0.6455* B  5 s( 33.43%)p 1.99( 66.57%)
                                         0.0000  0.5782 -0.4070 -0.7071  0.0109
               ( 58.34%)   0.7638* H  6 s(100.00%)
                                         1.0000
   8. (1.99309) BD ( 1) B  5- H  7
               ( 41.66%)   0.6455* B  5 s( 33.43%)p 1.99( 66.57%)
                                         0.0000  0.5782 -0.4070  0.7071  0.0109
               ( 58.34%)   0.7638* H  7 s(100.00%)
                                         1.0000
 ---------------- non-Lewis ----------------------------------------------------
   9. (0.04058) LV ( 1) B  5            s(  0.00%)p 1.00(100.00%)
                                         0.0000  0.0012  0.0285  0.0000  0.9996
  10. (0.00270) BD*( 1) C  1- H  2
               ( 47.56%)   0.6896* C  1 s( 24.96%)p 3.01( 75.04%)
                                         0.0000 -0.4996 -0.3220  0.7071  0.3830
               ( 52.44%)  -0.7242* H  2 s(100.00%)
                                        -1.0000
  11. (0.00270) BD*( 1) C  1- H  3
               ( 47.56%)   0.6896* C  1 s( 24.96%)p 3.01( 75.04%)
                                         0.0000 -0.4996 -0.3220 -0.7071  0.3830
               ( 52.44%)  -0.7242* H  3 s(100.00%)
                                        -1.0000
  12. (0.00005) BD*( 1) C  1- H  4
               ( 47.50%)   0.6892* C  1 s( 23.04%)p 3.34( 76.96%)
               ( 52.50%)  -0.7246* H  4 s(100.00%)
  13. (0.00453) BD*( 1) C  1- B  5
               ( 39.14%)   0.6257* C  1 s( 27.04%)p 2.70( 72.96%)
                                         0.0000 -0.5200  0.8533  0.0000  0.0391
               ( 60.86%)  -0.7801* B  5 s( 33.15%)p 2.02( 66.85%)
                                         0.0000 -0.5757 -0.8173  0.0000  0.0239
  14. (0.00812) BD*( 1) B  5- H  6
               ( 58.34%)   0.7638* B  5 s( 33.43%)p 1.99( 66.57%)
                                         0.0000 -0.5782  0.4070  0.7071 -0.0109
               ( 41.66%)  -0.6455* H  6 s(100.00%)
                                        -1.0000
  15. (0.00812) BD*( 1) B  5- H  7
               ( 58.34%)   0.7638* B  5 s( 33.43%)p 1.99( 66.57%)
                                         0.0000 -0.5782  0.4070 -0.7071 -0.0109
               ( 41.66%)  -0.6455* H  7 s(100.00%)
                                        -1.0000


 NHO DIRECTIONALITY AND BOND BENDING (deviation from line of nuclear centers at
                                      the position of maximum hybrid amplitude)

         [Thresholds for printing:  angular deviation  >  1.0 degree]
                                    p- or d-character  > 25.0%
                                    orbital occupancy  >  0.10e

                        Line of Centers        Hybrid 1             Hybrid 2
                        ---------------  -------------------  ------------------
           NBO            Theta   Phi    Theta   Phi    Dev   Theta   Phi    Dev
 ===============================================================================
   3. BD ( 1) C  1- H  2  115.3  295.8   116.0  294.7   1.2     --     --    --
   4. BD ( 1) C  1- H  3  115.3   64.2   116.0   65.3   1.2     --     --    --
   6. BD ( 1) C  1- B  5   90.2  180.0    92.3  180.0   2.1    91.7    0.0   1.9
   7. BD ( 1) B  5- H  6   89.1  239.3    89.2  240.4   1.1     --     --    --
   8. BD ( 1) B  5- H  7   89.1  120.7    89.2  119.6   1.1     --     --    --


 SECOND ORDER PERTURBATION THEORY ANALYSIS OF FOCK MATRIX IN NBO BASIS

     Threshold for printing:   0.50 kcal/mol
                                                          E(2) E(NL)-E(L) F(L,NL)
      Donor (L) NBO              Acceptor (NL) NBO      kcal/mol   a.u.    a.u.
 ===============================================================================

 within unit  1
    3. BD ( 1) C  1- H  2       9. LV ( 1) B  5            2.35    0.86   0.040
    3. BD ( 1) C  1- H  2      14. BD*( 1) B  5- H  6      1.40    1.39   0.039
    3. BD ( 1) C  1- H  2      15. BD*( 1) B  5- H  7      1.44    1.39   0.040
    4. BD ( 1) C  1- H  3       9. LV ( 1) B  5            2.35    0.86   0.040
    4. BD ( 1) C  1- H  3      14. BD*( 1) B  5- H  6      1.44    1.39   0.040
    4. BD ( 1) C  1- H  3      15. BD*( 1) B  5- H  7      1.40    1.39   0.039
    5. BD ( 1) C  1- H  4       9. LV ( 1) B  5           13.19    0.86   0.095
    6. BD ( 1) C  1- B  5      14. BD*( 1) B  5- H  6      2.04    1.34   0.047
    6. BD ( 1) C  1- B  5      15. BD*( 1) B  5- H  7      2.04    1.34   0.047
    7. BD ( 1) B  5- H  6      10. BD*( 1) C  1- H  2      0.55    1.27   0.024
    7. BD ( 1) B  5- H  6      11. BD*( 1) C  1- H  3      1.46    1.27   0.038
    7. BD ( 1) B  5- H  6      13. BD*( 1) C  1- B  5      1.95    1.27   0.044
    7. BD ( 1) B  5- H  6      15. BD*( 1) B  5- H  7      1.95    1.30   0.045
    8. BD ( 1) B  5- H  7      10. BD*( 1) C  1- H  2      1.46    1.27   0.038
    8. BD ( 1) B  5- H  7      11. BD*( 1) C  1- H  3      0.55    1.27   0.024
    8. BD ( 1) B  5- H  7      13. BD*( 1) C  1- B  5      1.95    1.27   0.044
    8. BD ( 1) B  5- H  7      14. BD*( 1) B  5- H  6      1.95    1.30   0.045


 NATURAL BOND ORBITALS (Summary):

                                                     Principal Delocalizations
           NBO                 Occupancy    Energy   (geminal,vicinal,remote)
 ===============================================================================
 Molecular unit  1  (CH5B)
 ------ Lewis --------------------------------------
    1. CR ( 1) C  1             2.00000   -10.98827
    2. CR ( 1) B  5             2.00000    -7.40418
    3. BD ( 1) C  1- H  2       1.99037    -0.61254  9(v),15(v),14(v)
    4. BD ( 1) C  1- H  3       1.99037    -0.61254  9(v),14(v),15(v)
    5. BD ( 1) C  1- H  4       1.97097    -0.60817  9(v)
    6. BD ( 1) C  1- B  5       1.99532    -0.56898  14(g),15(g)
    7. BD ( 1) B  5- H  6       1.99309    -0.52836  13(g),15(g),11(v),10(v)
    8. BD ( 1) B  5- H  7       1.99309    -0.52836  13(g),14(g),10(v),11(v)
 ------ non-Lewis ----------------------------------
    9. LV ( 1) B  5             0.04058     0.25246
   10. BD*( 1) C  1- H  2       0.00270     0.74140
   11. BD*( 1) C  1- H  3       0.00270     0.74140
   12. BD*( 1) C  1- H  4       0.00005     0.72642
   13. BD*( 1) C  1- B  5       0.00453     0.74502
   14. BD*( 1) B  5- H  6       0.00812     0.77531
   15. BD*( 1) B  5- H  7       0.00812     0.77531
          -------------------------------
                 Total Lewis   15.93321  ( 99.5826%)
           Valence non-Lewis    0.06679  (  0.4174%)
           Rydberg non-Lewis    0.00000  (  0.0000%)
          -------------------------------
               Total unit  1   16.00000  (100.0000%)
              Charge unit  1    0.00000

 $CHOOSE
   BOND S 1 2 S 1 3 S 1 4 S 1 5 S 5 6 S 5 7 END
 $END

 NBO analysis completed in 0.20 CPU seconds (5 wall seconds)
 Maximum scratch memory used by NBO was 223010 words (1.70 MB)
 Maximum scratch memory used by G16NBO was 8554 words (0.07 MB)

 Opening RunExU unformatted file "/cluster/work/users/beto93/CH3BH2/Gau-1555060.EUF"
 Read unf file /cluster/work/users/beto93/CH3BH2/Gau-1555060.EUF:
 Label Gaussian matrix elements                                         IVers= 2 NLab= 2 Version=ES64L-G16RevC.01
 Title NBO-CH3BH2                                                      
 NAtoms=     7 NBasis=    15 NBsUse=    15 ICharg=     0 Multip=     1 NE=    16 Len12L=8 Len4L=8 IOpCl= 0 ICGU=111
 GAUSSIAN SCALARS                    NI= 1 NR= 1 NTot=       1 LenBuf=    2 NRI=1 N=    1000
 NPA CHARGES                         NI= 0 NR= 1 NTot=       7 LenBuf= 4000 NRI=1 N=       7
 Recovered energy= -64.6676866006     dipole=      0.121015165014     -0.000000074891      0.028780122026
 Unable to Open any file for archive entry.
 1\1\GINC-C1-1\FOpt\RHF\STO-3G\C1H5B1\BETO93\24-Jul-2024\0\\#OPT=VeryTi
 ght Int=UltraFine RHF/STO-3G Pop=NBO7Read\\NBO-CH3BH2\\0,1\C,0.0417523
 486,0.074123577,0.0295226607\H,0.0458207494,0.043096164,1.1127451212\H
 ,1.0643825103,0.0430967076,-0.3277097889\H,-0.367936307,1.0405837793,-
 0.2601723459\B,-0.8682003949,-1.0315463473,-0.6139153705\H,-1.80038809
 8,-1.435978572,-0.0495798034\H,-0.6468618175,-1.4359793087,-1.68090046
 05\\Version=ES64L-G16RevC.01\State=1-A\HF=-64.6676866\RMSD=6.849e-09\R
 MSF=1.256e-07\Dipole=0.0538531,0.1054642,0.0380802\Quadrupole=-0.07098
 55,0.3025455,-0.23156,-0.7925444,0.2270931,-0.5604178\PG=C01 [X(C1H5B1
 )]\\@
 The archive entry for this job was punched.


 Age does not diminish the extreme disappointment of
 having a scoop of ice cream fall from the cone.
 -- Jim Fiebig
 Job cpu time:       0 days  0 hours  1 minutes 18.3 seconds.
 Elapsed time:       0 days  0 hours  0 minutes 26.7 seconds.
 File lengths (MBytes):  RWF=     10 Int=      0 D2E=      0 Chk=      1 Scr=      1
 Normal termination of Gaussian 16 at Wed Jul 24 11:04:51 2024.
