 Entering Gaussian System, Link 0=g16
 Initial command:
 /cluster/software/Gaussian/g16_C.01/l1.exe "/cluster/work/users/beto93/mol22/Gau-2074195.inp" -scrdir="/cluster/work/users/beto93/mol22/"
 Entering Link 1 = /cluster/software/Gaussian/g16_C.01/l1.exe PID=   2074196.
  
 Copyright (c) 1988-2019, Gaussian, Inc.  All Rights Reserved.
  
 This is part of the Gaussian(R) 16 program.  It is based on
 the Gaussian(R) 09 system (copyright 2009, Gaussian, Inc.),
 the Gaussian(R) 03 system (copyright 2003, Gaussian, Inc.),
 the Gaussian(R) 98 system (copyright 1998, Gaussian, Inc.),
 the Gaussian(R) 94 system (copyright 1995, Gaussian, Inc.),
 the Gaussian 92(TM) system (copyright 1992, Gaussian, Inc.),
 the Gaussian 90(TM) system (copyright 1990, Gaussian, Inc.),
 the Gaussian 88(TM) system (copyright 1988, Gaussian, Inc.),
 the Gaussian 86(TM) system (copyright 1986, Carnegie Mellon
 University), and the Gaussian 82(TM) system (copyright 1983,
 Carnegie Mellon University). Gaussian is a federally registered
 trademark of Gaussian, Inc.
  
 This software contains proprietary and confidential information,
 including trade secrets, belonging to Gaussian, Inc.
  
 This software is provided under written license and may be
 used, copied, transmitted, or stored only in accord with that
 written license.
  
 The following legend is applicable only to US Government
 contracts under FAR:
  
                    RESTRICTED RIGHTS LEGEND
  
 Use, reproduction and disclosure by the US Government is
 subject to restrictions as set forth in subparagraphs (a)
 and (c) of the Commercial Computer Software - Restricted
 Rights clause in FAR 52.227-19.
  
 Gaussian, Inc.
 340 Quinnipiac St., Bldg. 40, Wallingford CT 06492
  
  
 ---------------------------------------------------------------
 Warning -- This program may not be used in any manner that
 competes with the business of Gaussian, Inc. or will provide
 assistance to any competitor of Gaussian, Inc.  The licensee
 of this program is prohibited from giving any competitor of
 Gaussian, Inc. access to this program.  By using this program,
 the user acknowledges that Gaussian, Inc. is engaged in the
 business of creating and licensing software in the field of
 computational chemistry and represents and warrants to the
 licensee that it is not a competitor of Gaussian, Inc. and that
 it will not use this program in any manner prohibited above.
 ---------------------------------------------------------------
  

 Cite this work as:
 Gaussian 16, Revision C.01,
 M. J. Frisch, G. W. Trucks, H. B. Schlegel, G. E. Scuseria, 
 M. A. Robb, J. R. Cheeseman, G. Scalmani, V. Barone, 
 G. A. Petersson, H. Nakatsuji, X. Li, M. Caricato, A. V. Marenich, 
 J. Bloino, B. G. Janesko, R. Gomperts, B. Mennucci, H. P. Hratchian, 
 J. V. Ortiz, A. F. Izmaylov, J. L. Sonnenberg, D. Williams-Young, 
 F. Ding, F. Lipparini, F. Egidi, J. Goings, B. Peng, A. Petrone, 
 T. Henderson, D. Ranasinghe, V. G. Zakrzewski, J. Gao, N. Rega, 
 G. Zheng, W. Liang, M. Hada, M. Ehara, K. Toyota, R. Fukuda, 
 J. Hasegawa, M. Ishida, T. Nakajima, Y. Honda, O. Kitao, H. Nakai, 
 T. Vreven, K. Throssell, J. A. Montgomery, Jr., J. E. Peralta, 
 F. Ogliaro, M. J. Bearpark, J. J. Heyd, E. N. Brothers, K. N. Kudin, 
 V. N. Staroverov, T. A. Keith, R. Kobayashi, J. Normand, 
 K. Raghavachari, A. P. Rendell, J. C. Burant, S. S. Iyengar, 
 J. Tomasi, M. Cossi, J. M. Millam, M. Klene, C. Adamo, R. Cammi, 
 J. W. Ochterski, R. L. Martin, K. Morokuma, O. Farkas, 
 J. B. Foresman, and D. J. Fox, Gaussian, Inc., Wallingford CT, 2019.
 
 ******************************************
 Gaussian 16:  ES64L-G16RevC.01  3-Jul-2019
                18-Nov-2024 
 ******************************************
 %LindaWorkers=c3-9-ib
 %NProcShared=4
 Will use up to    4 processors via shared memory.
 %mem=25GB
 %chk=mol22.chk
 SetLPE:    new flags="-opt 'Tsnet.Node.lindarsharg: ssh'  -nodelist 'c3-9-ib.saga' -env GAUSS_MDEF=3355443200 -env GAUSS_EXEDIR="/cluster/software/Gaussian/g16_C.01/bsd:/cluster/software/Gaussian/g16_C.01""
 Will use up to    1 processors via Linda.
 -----------------------------------------------------------------
 #RHF/6-31G* int=nobasistransform Symmetry=None 5D 7F Pop=NBO7Read
 -----------------------------------------------------------------
 1/38=1,163=2,172=1/1;
 2/12=2,15=3,17=6,18=5,40=1/2;
 3/5=1,6=6,7=1,8=11,11=1,25=1,30=1,60=-1,116=1/1,2,3;
 4//1;
 5/5=2,38=5/2;
 6/7=2,8=2,9=2,10=2,28=1,40=2,113=1,114=1,124=2103/1,12;
 99/5=1,9=1/99;
 ---------
 mol22-NBO
 ---------
 Symbolic Z-matrix:
 Charge =  0 Multiplicity = 1
 Li                    0.        0.       -1.17497 
 F                     0.        0.        0.39166 
 
                          Input orientation:                          
 ---------------------------------------------------------------------
 Center     Atomic      Atomic             Coordinates (Angstroms)
 Number     Number       Type             X           Y           Z
 ---------------------------------------------------------------------
      1          3           0        0.000000    0.000000   -1.174965
      2          9           0        0.000000    0.000000    0.391655
 ---------------------------------------------------------------------
 Symmetry turned off by external request.
 Stoichiometry    FLi
 Rotational constants (GHZ):           0.0000000          40.1880422          40.1880422
 Standard basis: 6-31G(d) (5D, 7F)
    28 basis functions,    56 primitive gaussians,    30 cartesian basis functions
     6 alpha electrons        6 beta electrons
       nuclear repulsion energy         9.1201342347 Hartrees.
 NAtoms=    2 NActive=    2 NUniq=    2 SFac= 1.00D+00 NAtFMM=   60 NAOKFM=F Big=F
 Integral buffers will be    131072 words long.
 Raffenetti 1 integral format.
 Two-electron integral symmetry is turned off.
 One-electron integrals computed using PRISM.
 NBasis=    28 RedAO= T EigKep=  3.78D-02  NBF=    28
 NBsUse=    28 1.00D-06 EigRej= -1.00D+00 NBFU=    28
 ExpMin= 3.60D-02 ExpMax= 7.00D+03 ExpMxC= 1.05D+03 IAcc=3 IRadAn=         5 AccDes= 0.00D+00
 Harris functional with IExCor=  205 and IRadAn=       5 diagonalized for initial guess.
 HarFok:  IExCor=  205 AccDes= 0.00D+00 IRadAn=         5 IDoV= 1 UseB2=F ITyADJ=14
 ICtDFT=  3500011 ScaDFX=  1.000000  1.000000  1.000000  1.000000
 FoFCou: FMM=F IPFlag=           0 FMFlag=      100000 FMFlg1=           0
         NFxFlg=           0 DoJE=T BraDBF=F KetDBF=T FulRan=T
         wScrn=  0.000000 ICntrl=       500 IOpCl=  0 I1Cent=   200000004 NGrid=           0
         NMat0=    1 NMatS0=      1 NMatT0=    0 NMatD0=    1 NMtDS0=    0 NMtDT0=    0
 Symmetry not used in FoFCou.
 Keep R1 ints in memory in canonical form, NReq=910006.
 Requested convergence on RMS density matrix=1.00D-08 within 128 cycles.
 Requested convergence on MAX density matrix=1.00D-06.
 Requested convergence on             energy=1.00D-06.
 No special actions if energy rises.
 SCF Done:  E(RHF) =  -106.933175990     A.U. after   10 cycles
            NFock= 10  Conv=0.18D-08     -V/T= 2.0001

 **********************************************************************

            Population analysis using the SCF Density.

 **********************************************************************

 Alpha  occ. eigenvalues --  -26.09954  -2.43154  -1.35982  -0.47999  -0.45692
 Alpha  occ. eigenvalues --   -0.45692
 Alpha virt. eigenvalues --    0.00652   0.07392   0.07392   0.12477   0.20509
 Alpha virt. eigenvalues --    0.24129   0.24129   0.38759   0.58365   0.58365
 Alpha virt. eigenvalues --    0.66897   0.66897   0.75036   1.74872   1.80471
 Alpha virt. eigenvalues --    1.80471   2.25451   2.31490   2.31490   2.41061
 Alpha virt. eigenvalues --    2.41241   2.41241
          Condensed to atoms (all electrons):
               1          2
     1  Li   2.118495   0.189203
     2  F    0.189203   9.503100
 Mulliken charges:
               1
     1  Li   0.692303
     2  F   -0.692303
 Sum of Mulliken charges =   0.00000
 Mulliken charges with hydrogens summed into heavy atoms:
               1
     1  Li   0.692303
     2  F   -0.692303
 Electronic spatial extent (au):  <R**2>=             30.4695
 Charge=              0.0000 electrons
 Dipole moment (field-independent basis, Debye):
    X=              0.0000    Y=             -0.0000    Z=             -6.2162  Tot=              6.2162
 Quadrupole moment (field-independent basis, Debye-Ang):
   XX=             -6.9600   YY=             -6.9600   ZZ=             -0.5384
   XY=             -0.0000   XZ=             -0.0000   YZ=              0.0000
 Traceless Quadrupole moment (field-independent basis, Debye-Ang):
   XX=             -2.1405   YY=             -2.1405   ZZ=              4.2810
   XY=             -0.0000   XZ=             -0.0000   YZ=              0.0000
 Octapole moment (field-independent basis, Debye-Ang**2):
  XXX=              0.0000  YYY=             -0.0000  ZZZ=            -11.4211  XYY=              0.0000
  XXY=             -0.0000  XXZ=             -1.0995  XZZ=              0.0000  YZZ=             -0.0000
  YYZ=             -1.0995  XYZ=              0.0000
 Hexadecapole moment (field-independent basis, Debye-Ang**3):
 XXXX=             -6.5101 YYYY=             -6.5101 ZZZZ=             -7.7216 XXXY=             -0.0000
 XXXZ=             -0.0000 YYYX=             -0.0000 YYYZ=              0.0000 ZZZX=             -0.0000
 ZZZY=              0.0000 XXYY=             -2.1700 XXZZ=             -3.8252 YYZZ=             -3.8252
 XXYZ=              0.0000 YYXZ=             -0.0000 ZZXY=             -0.0000
 N-N= 9.120134234747D+00 E-N=-2.764602937041D+02  KE= 1.069231137386D+02
 Running external command "gaunbo7 R"
         input file       "/cluster/work/users/beto93/mol22/Gau-2074196.EIn"
         output file      "/cluster/work/users/beto93/mol22/Gau-2074196.EOu"
         message file     "/cluster/work/users/beto93/mol22/Gau-2074196.EMs"
         fchk file        "/cluster/work/users/beto93/mol22/Gau-2074196.EFC"
         mat. el file     "/cluster/work/users/beto93/mol22/Gau-2074196.EUF"

 Writing WrtUnf unformatted file "/cluster/work/users/beto93/mol22/Gau-2074196.EUF"
 Gaussian matrix elements                                         Version   2 NLab=11 Len12L=8 Len4L=8
 Write SHELL TO ATOM MAP                   from file      0 offset           0 length                   8 to matrix element file.
 Write SHELL TYPES                         from file      0 offset           0 length                   8 to matrix element file.
 Write NUMBER OF PRIMITIVES PER SHELL      from file      0 offset           0 length                   8 to matrix element file.
 Write PRIMITIVE EXPONENTS                 from file      0 offset           0 length                  22 to matrix element file.
 Write CONTRACTION COEFFICIENTS            from file      0 offset           0 length                  22 to matrix element file.
 Write P(S=P) CONTRACTION COEFFICIENTS     from file      0 offset           0 length                  22 to matrix element file.
 Write COORDINATES OF EACH SHELL           from file      0 offset           0 length                  24 to matrix element file.
 Write BONDS PER ATOM                      from file      0 offset           0 length                   2 to matrix element file.
 Write BONDED ATOMS                        from file      0 offset           0 length                   2 to matrix element file.
 Write BOND TYPES                          from file      0 offset           0 length                   2 to matrix element file.
 Write ONIOM CHARGE/MULT                   from file      0 offset           0 length                  32 to matrix element file.
 Write ONIOM ATOM LAYERS                   from file      0 offset           0 length                   2 to matrix element file.
 Write ONIOM ATOM MODIFIERS                from file      0 offset           0 length                   2 to matrix element file.
 Write ONIOM ATOM TYPES                    from file      0 offset           0 length                   2 to matrix element file.
 Write ONIOM LINK ATOMS                    from file      0 offset           0 length                   2 to matrix element file.
 Write ONIOM LINK CHARGES                  from file      0 offset           0 length                   2 to matrix element file.
 Write ONIOM LINK DISTANCES                from file      0 offset           0 length                   8 to matrix element file.
 Write SYMINF INTS                         from file      0 offset           0 length                  26 to matrix element file.
 Write ROTTR TO SO                         from file      0 offset           0 length                  12 to matrix element file.
 Write GAUSSIAN SCALARS                    from file    501 offset           0 to matrix element file.
 Write OPTIMIZATION FLAGS                  from file      0 offset           0 length                   2 to matrix element file.
 Write INTEGER ISO                         from file      0 offset           0 length                   2 to matrix element file.
 Write INTEGER SPIN                        from file      0 offset           0 length                   2 to matrix element file.
 Write REAL ZEFFECTIVE                     from file      0 offset           0 length                   2 to matrix element file.
 Write REAL QUADRUPOLEMOMENT               from file      0 offset           0 length                   2 to matrix element file.
 Write REAL GFACTOR                        from file      0 offset           0 length                   2 to matrix element file.
 Write REAL ZNUCLEAR                       from file      0 offset           0 length                   2 to matrix element file.
 Write MULLIKEN CHARGES                    from file      0 offset           0 length                   2 to matrix element file.
 Write NUCLEAR GRADIENT                    from file  10584 offset           0 length                   6 to matrix element file.
 Array NUCLEAR FORCE CONSTANTS              on  file  10585 does not exist.
 Write ELECTRIC DIPOLE MOMENT              from file      0 offset           0 length                   3 to matrix element file.
 Write NON-ADIABATIC COUPLING              from file  10810 offset           0 length                   6 to matrix element file.
 Write FINITE EM FIELD                     from file  10521 offset           0 length                  35 to matrix element file.
 Write OVERLAP                             from file  10514 offset           0 length                 406 to matrix element file.
 Write CORE HAMILTONIAN ALPHA              from file  10515 offset           0 length                 406 to matrix element file.
 Write CORE HAMILTONIAN BETA               from file  10515 offset         406 length                 406 to matrix element file.
 Write KINETIC ENERGY                      from file  10516 offset           0 length                 406 to matrix element file.
 Write ORTHOGONAL BASIS                    from file  10685 offset           0 length                 784 to matrix element file.
 Write DIPOLE INTEGRALS                    from file  10518 offset           0 length                1218 to matrix element file.
 Array DIP VEL INTEGRALS                    on  file  10572 does not exist.
 Array R X DEL INTEGRALS                    on  file  10572 does not exist.
 Write ALPHA ORBITAL ENERGIES              from file      0 offset           0 length                  28 to matrix element file.
 Write ALPHA MO COEFFICIENTS               from file  10524 offset           0 length                 784 to matrix element file.
 Write ALPHA DENSITY MATRIX                from file      0 offset           0 length                 406 to matrix element file.
 Write ALPHA FOCK MATRIX                   from file  10536 offset           0 length                 406 to matrix element file.
 Write ENERGY-WEIGHTED DENSITY             from file  10571 offset           0 length                 406 to matrix element file.
 Write ALPHA SCF DENSITY MATRIX            from file      0 offset           0 length                 406 to matrix element file.
 No 2e integrals to process.
 Perform NBO analysis...executing G16NBO...

 *********************************** NBO 7.0 ***********************************
             N A T U R A L   A T O M I C   O R B I T A L   A N D
          N A T U R A L   B O N D   O R B I T A L   A N A L Y S I S
 **************************** Espen Tangen (S101595) ***************************
  (c) Copyright 1996-2021 Board of Regents of the University of Wisconsin System
      on behalf of the Theoretical Chemistry Institute.  All rights reserved.

          Cite this program [NBO 7.0.10 (8-Feb-2021)] as:

          NBO 7.0.  E. D. Glendening, J. K. Badenhoop, A. E. Reed,
          J. E. Carpenter, J. A. Bohmann, C. M. Morales, P. Karafiloglou,
          C. R. Landis, and F. Weinhold, Theoretical Chemistry Institute,
          University of Wisconsin, Madison, WI (2018)

       /NPA    / : Natural Population Analysis
       /AOPNAO / : Print the AO to PNAO transformation
       /AONAO  / : Print the AO to NAO transformation
       /AOMO   / : Print the MOs in the AO basis
       /BOAO   / : Print the AO bond-order matrix
       /DMAO   / : Print the AO density matrix
       /DMPNAO / : Print the PNAO density matrix
       /DMNAO  / : Print the NAO density matrix
       /DMMO   / : Print the MO density matrix
       /SAO    / : Print the AO overlap matrix
       /SPNAO  / : Print the PNAO overlap matrix
       /DETAIL / : Write details of NBO search
       /ARCHIVE/ : Write the archive file to lfn47
       /AOINFO / : Write AO information to lfn31
       /FILE   / : Set to mol22.gen*

 Filename set to mol22.gen1

 Job title: mol22-NBO


 MOs in the AO basis:

           AO          1       2       3       4       5       6       7       8
      ------------ ------- ------- ------- ------- ------- ------- ------- -------
   1. Li 1 (s)      0.0004  0.9966 -0.0759  0.1095  0.0000  0.0000 -0.1556  0.0000
   2. Li 1 (s)      0.0025  0.0161  0.0051 -0.1253  0.0000  0.0000 -0.1335  0.0000
   3. Li 1 (px)     0.0000  0.0000  0.0000  0.0000 -0.0980  0.0989  0.0000 -0.0880
   4. Li 1 (py)     0.0000  0.0000  0.0000  0.0000  0.0989  0.0980  0.0000 -0.1197
   5. Li 1 (pz)     0.0030 -0.0133  0.0157 -0.1262  0.0000  0.0000 -0.1252  0.0000
   6. Li 1 (s)     -0.0007 -0.0081  0.0080  0.0784  0.0000  0.0000  0.9824  0.0000
   7. Li 1 (px)     0.0000  0.0000  0.0000  0.0000  0.0106 -0.0107  0.0000  0.6601
   8. Li 1 (py)     0.0000  0.0000  0.0000  0.0000 -0.0107 -0.0106  0.0000  0.8984
   9. Li 1 (pz)    -0.0011  0.0079 -0.0009  0.1066  0.0000  0.0000 -0.4310  0.0000
  10. Li 1 (d5)     0.0013 -0.0021 -0.0032  0.0180  0.0000  0.0000  0.0368  0.0000
  11. Li 1 (d2)     0.0000  0.0000  0.0000  0.0000 -0.0333  0.0336  0.0000 -0.0361
  12. Li 1 (d3)     0.0000  0.0000  0.0000  0.0000  0.0336  0.0333  0.0000 -0.0492
  13. Li 1 (d4)     0.0000  0.0000  0.0000  0.0000  0.0000  0.0000  0.0000  0.0000
  14. Li 1 (d1)     0.0000  0.0000  0.0000  0.0000  0.0000  0.0000  0.0000  0.0000
  15.  F 2 (s)      0.9956 -0.0061 -0.2374 -0.0147  0.0000  0.0000  0.0067  0.0000
  16.  F 2 (s)      0.0218  0.0116  0.5010  0.0415  0.0000  0.0000 -0.0096  0.0000
  17.  F 2 (px)     0.0000  0.0000  0.0000  0.0000 -0.4381  0.4420  0.0000 -0.0554
  18.  F 2 (py)     0.0000  0.0000  0.0000  0.0000  0.4420  0.4381  0.0000 -0.0754
  19.  F 2 (pz)    -0.0005 -0.0100 -0.0183  0.6243  0.0000  0.0000  0.0233  0.0000
  20.  F 2 (s)     -0.0076  0.0152  0.5802  0.0436  0.0000  0.0000 -0.0503  0.0000
  21.  F 2 (px)     0.0000  0.0000  0.0000  0.0000 -0.3325  0.3354  0.0000 -0.0568
  22.  F 2 (py)     0.0000  0.0000  0.0000  0.0000  0.3354  0.3325  0.0000 -0.0773
  23.  F 2 (pz)     0.0011 -0.0045 -0.0324  0.5002  0.0000  0.0000  0.0571  0.0000
  24.  F 2 (d5)    -0.0001  0.0004  0.0085 -0.0207  0.0000  0.0000 -0.0057  0.0000
  25.  F 2 (d2)     0.0000  0.0000  0.0000  0.0000  0.0086 -0.0087  0.0000 -0.0027
  26.  F 2 (d3)     0.0000  0.0000  0.0000  0.0000 -0.0087 -0.0086  0.0000 -0.0037
  27.  F 2 (d4)     0.0000  0.0000  0.0000  0.0000  0.0000  0.0000  0.0000  0.0000
  28.  F 2 (d1)     0.0000  0.0000  0.0000  0.0000  0.0000  0.0000  0.0000  0.0000

           AO          9      10      11      12      13      14      15      16
      ------------ ------- ------- ------- ------- ------- ------- ------- -------
   1. Li 1 (s)      0.0000 -0.1115  0.0642  0.0000  0.0000  0.0372  0.0000  0.0000
   2. Li 1 (s)      0.0000 -0.0941  1.9732  0.0000  0.0000  1.4235  0.0000  0.0000
   3. Li 1 (px)    -0.1197  0.0000  0.0000 -1.1377  1.2024  0.0000  0.0000  0.0000
   4. Li 1 (py)     0.0880  0.0000  0.0000  1.2024  1.1377  0.0000  0.0000  0.0000
   5. Li 1 (pz)     0.0000 -0.5870 -0.8691  0.0000  0.0000  1.2708  0.0000  0.0000
   6. Li 1 (s)      0.0000  0.5838 -1.8753  0.0000  0.0000 -1.0098  0.0000  0.0000
   7. Li 1 (px)     0.8984  0.0000  0.0000  0.8542 -0.9029  0.0000  0.0000  0.0000
   8. Li 1 (py)    -0.6601  0.0000  0.0000 -0.9029 -0.8542  0.0000  0.0000  0.0000
   9. Li 1 (pz)     0.0000  1.2916  0.5568  0.0000  0.0000 -0.8464  0.0000  0.0000
  10. Li 1 (d5)     0.0000 -0.1063  0.1271  0.0000  0.0000 -0.3853  0.0000  0.0000
  11. Li 1 (d2)    -0.0492  0.0000  0.0000  0.1062 -0.1122  0.0000  0.0000  0.0000
  12. Li 1 (d3)     0.0361  0.0000  0.0000 -0.1122 -0.1062  0.0000  0.0000  0.0000
  13. Li 1 (d4)     0.0000  0.0000  0.0000  0.0000  0.0000  0.0000 -0.3655  0.9294
  14. Li 1 (d1)     0.0000  0.0000  0.0000  0.0000  0.0000  0.0000  0.9294  0.3655
  15.  F 2 (s)      0.0000  0.0292 -0.0104  0.0000  0.0000  0.0428  0.0000  0.0000
  16.  F 2 (s)      0.0000 -0.0675  0.0204  0.0000  0.0000 -0.0739  0.0000  0.0000
  17.  F 2 (px)    -0.0754  0.0000  0.0000  0.0728 -0.0770  0.0000  0.0000  0.0000
  18.  F 2 (py)     0.0554  0.0000  0.0000 -0.0770 -0.0728  0.0000  0.0000  0.0000
  19.  F 2 (pz)     0.0000 -0.0174  0.0168  0.0000  0.0000  0.1704  0.0000  0.0000
  20.  F 2 (s)      0.0000 -0.1182  0.0165  0.0000  0.0000 -0.2858  0.0000  0.0000
  21.  F 2 (px)    -0.0773  0.0000  0.0000  0.0776 -0.0820  0.0000  0.0000  0.0000
  22.  F 2 (py)     0.0568  0.0000  0.0000 -0.0820 -0.0776  0.0000  0.0000  0.0000
  23.  F 2 (pz)     0.0000 -0.1179  0.0734  0.0000  0.0000  0.1843  0.0000  0.0000
  24.  F 2 (d5)     0.0000  0.0062 -0.0020  0.0000  0.0000 -0.0102  0.0000  0.0000
  25.  F 2 (d2)    -0.0037  0.0000  0.0000  0.0110 -0.0116  0.0000  0.0000  0.0000
  26.  F 2 (d3)     0.0027  0.0000  0.0000 -0.0116 -0.0110  0.0000  0.0000  0.0000
  27.  F 2 (d4)     0.0000  0.0000  0.0000  0.0000  0.0000  0.0000 -0.0041  0.0104
  28.  F 2 (d1)     0.0000  0.0000  0.0000  0.0000  0.0000  0.0000  0.0104  0.0041

           AO         17      18      19      20      21      22      23      24
      ------------ ------- ------- ------- ------- ------- ------- ------- -------
   1. Li 1 (s)      0.0000  0.0000  0.1259  0.1656  0.0000  0.0000 -0.1148  0.0000
   2. Li 1 (s)      0.0000  0.0000  1.3211  0.3712  0.0000  0.0000 -0.2143  0.0000
   3. Li 1 (px)     0.2282  0.3137  0.0000  0.0000  0.1051 -0.3134  0.0000  0.0000
   4. Li 1 (py)     0.3137 -0.2282  0.0000  0.0000 -0.3134 -0.1051  0.0000  0.0000
   5. Li 1 (pz)     0.0000  0.0000  1.7024  0.1864  0.0000  0.0000 -0.3058  0.0000
   6. Li 1 (s)      0.0000  0.0000 -0.5747 -0.3249  0.0000  0.0000  0.0835  0.0000
   7. Li 1 (px)    -0.1005 -0.1381  0.0000  0.0000 -0.0285  0.0851  0.0000  0.0000
   8. Li 1 (py)    -0.1381  0.1005  0.0000  0.0000  0.0851  0.0285  0.0000  0.0000
   9. Li 1 (pz)     0.0000  0.0000 -0.7726 -0.2449  0.0000  0.0000  0.1513  0.0000
  10. Li 1 (d5)     0.0000  0.0000  1.4022 -0.1738  0.0000  0.0000 -0.0635  0.0000
  11. Li 1 (d2)     0.6556  0.9011  0.0000  0.0000  0.1067 -0.3183  0.0000  0.0000
  12. Li 1 (d3)     0.9011 -0.6556  0.0000  0.0000 -0.3183 -0.1067  0.0000  0.0000
  13. Li 1 (d4)     0.0000  0.0000  0.0000  0.0000  0.0000  0.0000  0.0000  0.0621
  14. Li 1 (d1)     0.0000  0.0000  0.0000  0.0000  0.0000  0.0000  0.0000 -0.1079
  15.  F 2 (s)      0.0000  0.0000  0.0797  0.0207  0.0000  0.0000  0.0225  0.0000
  16.  F 2 (s)      0.0000  0.0000 -0.0564 -0.2351  0.0000  0.0000 -0.3899  0.0000
  17.  F 2 (px)    -0.1131 -0.1554  0.0000  0.0000  0.2998 -0.8942  0.0000  0.0000
  18.  F 2 (py)    -0.1554  0.1131  0.0000  0.0000 -0.8942 -0.2998  0.0000  0.0000
  19.  F 2 (pz)     0.0000  0.0000 -0.0290 -0.9572  0.0000  0.0000  0.0717  0.0000
  20.  F 2 (s)      0.0000  0.0000 -1.5103  0.2657  0.0000  0.0000  0.5504  0.0000
  21.  F 2 (px)    -0.2334 -0.3208  0.0000  0.0000 -0.3903  1.1641  0.0000  0.0000
  22.  F 2 (py)    -0.3208  0.2334  0.0000  0.0000  1.1641  0.3903  0.0000  0.0000
  23.  F 2 (pz)     0.0000  0.0000  0.5751  1.0897  0.0000  0.0000 -0.1315  0.0000
  24.  F 2 (d5)     0.0000  0.0000 -0.0623  0.0021  0.0000  0.0000  0.9836  0.0000
  25.  F 2 (d2)     0.0123  0.0169  0.0000  0.0000 -0.0542  0.1618  0.0000  0.0000
  26.  F 2 (d3)     0.0169 -0.0123  0.0000  0.0000  0.1618  0.0542  0.0000  0.0000
  27.  F 2 (d4)     0.0000  0.0000  0.0000  0.0000  0.0000  0.0000  0.0000 -0.5024
  28.  F 2 (d1)     0.0000  0.0000  0.0000  0.0000  0.0000  0.0000  0.0000  0.8720

           AO         25      26      27      28
      ------------ ------- ------- ------- -------
   1. Li 1 (s)      0.0000 -0.1615  0.0000  0.0000
   2. Li 1 (s)      0.0000 -1.1102  0.0000  0.0000
   3. Li 1 (px)     0.0000  0.0000 -0.2423  0.2457
   4. Li 1 (py)     0.0000  0.0000  0.2457  0.2423
   5. Li 1 (pz)     0.0000 -1.3343  0.0000  0.0000
   6. Li 1 (s)      0.0000  0.3769  0.0000  0.0000
   7. Li 1 (px)     0.0000  0.0000  0.1269 -0.1286
   8. Li 1 (py)     0.0000  0.0000 -0.1286 -0.1269
   9. Li 1 (pz)     0.0000  0.5129  0.0000  0.0000
  10. Li 1 (d5)     0.0000 -0.5855  0.0000  0.0000
  11. Li 1 (d2)     0.0000  0.0000 -0.2515  0.2551
  12. Li 1 (d3)     0.0000  0.0000  0.2551  0.2515
  13. Li 1 (d4)    -0.1079  0.0000  0.0000  0.0000
  14. Li 1 (d1)    -0.0621  0.0000  0.0000  0.0000
  15.  F 2 (s)      0.0000  0.0838  0.0000  0.0000
  16.  F 2 (s)      0.0000 -1.7003  0.0000  0.0000
  17.  F 2 (px)     0.0000  0.0000 -0.1605  0.1628
  18.  F 2 (py)     0.0000  0.0000  0.1628  0.1605
  19.  F 2 (pz)     0.0000  0.1922  0.0000  0.0000
  20.  F 2 (s)      0.0000  2.6750  0.0000  0.0000
  21.  F 2 (px)     0.0000  0.0000  0.3071 -0.3114
  22.  F 2 (py)     0.0000  0.0000 -0.3114 -0.3071
  23.  F 2 (pz)     0.0000 -0.5783  0.0000  0.0000
  24.  F 2 (d5)     0.0000 -0.1947  0.0000  0.0000
  25.  F 2 (d2)     0.0000  0.0000 -0.7217  0.7317
  26.  F 2 (d3)     0.0000  0.0000  0.7317  0.7217
  27.  F 2 (d4)     0.8720  0.0000  0.0000  0.0000
  28.  F 2 (d1)     0.5024  0.0000  0.0000  0.0000


 AO overlap matrix:

           AO          1       2       3       4       5       6       7       8
      ------------ ------- ------- ------- ------- ------- ------- ------- -------
   1. Li 1 (s)      1.0000  0.1453  0.0000  0.0000  0.0000  0.1857  0.0000  0.0000
   2. Li 1 (s)      0.1453  1.0000  0.0000  0.0000  0.0000  0.9055  0.0000  0.0000
   3. Li 1 (px)     0.0000  0.0000  1.0000  0.0000  0.0000  0.0000  0.8021  0.0000
   4. Li 1 (py)     0.0000  0.0000  0.0000  1.0000  0.0000  0.0000  0.0000  0.8021
   5. Li 1 (pz)     0.0000  0.0000  0.0000  0.0000  1.0000  0.0000  0.0000  0.0000
   6. Li 1 (s)      0.1857  0.9055  0.0000  0.0000  0.0000  1.0000  0.0000  0.0000
   7. Li 1 (px)     0.0000  0.0000  0.8021  0.0000  0.0000  0.0000  1.0000  0.0000
   8. Li 1 (py)     0.0000  0.0000  0.0000  0.8021  0.0000  0.0000  0.0000  1.0000
   9. Li 1 (pz)     0.0000  0.0000  0.0000  0.0000  0.8021  0.0000  0.0000  0.0000
  10. Li 1 (d5)     0.0000  0.0000  0.0000  0.0000  0.0000  0.0000  0.0000  0.0000
  11. Li 1 (d2)     0.0000  0.0000  0.0000  0.0000  0.0000  0.0000  0.0000  0.0000
  12. Li 1 (d3)     0.0000  0.0000  0.0000  0.0000  0.0000  0.0000  0.0000  0.0000
  13. Li 1 (d4)     0.0000  0.0000  0.0000  0.0000  0.0000  0.0000  0.0000  0.0000
  14. Li 1 (d1)     0.0000  0.0000  0.0000  0.0000  0.0000  0.0000  0.0000  0.0000
  15.  F 2 (s)      0.0005  0.0310  0.0000  0.0000  0.0460  0.0234  0.0000  0.0000
  16.  F 2 (s)      0.0083  0.1801  0.0000  0.0000  0.2624  0.1398  0.0000  0.0000
  17.  F 2 (px)     0.0000  0.0000  0.0580  0.0000  0.0000  0.0000  0.0337  0.0000
  18.  F 2 (py)     0.0000  0.0000  0.0000  0.0580  0.0000  0.0000  0.0000  0.0337
  19.  F 2 (pz)    -0.0133 -0.0466  0.0000  0.0000 -0.0316 -0.0189  0.0000  0.0000
  20.  F 2 (s)      0.0685  0.3894  0.0000  0.0000  0.5244  0.3282  0.0000  0.0000
  21.  F 2 (px)     0.0000  0.0000  0.2960  0.0000  0.0000  0.0000  0.1890  0.0000
  22.  F 2 (py)     0.0000  0.0000  0.0000  0.2960  0.0000  0.0000  0.0000  0.1890
  23.  F 2 (pz)    -0.1750 -0.2070  0.0000  0.0000 -0.0904 -0.1061  0.0000  0.0000
  24.  F 2 (d5)     0.0753  0.0043  0.0000  0.0000  0.0108  0.0057  0.0000  0.0000
  25.  F 2 (d2)     0.0000  0.0000 -0.0741  0.0000  0.0000  0.0000 -0.0177  0.0000
  26.  F 2 (d3)     0.0000  0.0000  0.0000 -0.0741  0.0000  0.0000  0.0000 -0.0177
  27.  F 2 (d4)     0.0000  0.0000  0.0000  0.0000  0.0000  0.0000  0.0000  0.0000
  28.  F 2 (d1)     0.0000  0.0000  0.0000  0.0000  0.0000  0.0000  0.0000  0.0000

           AO          9      10      11      12      13      14      15      16
      ------------ ------- ------- ------- ------- ------- ------- ------- -------
   1. Li 1 (s)      0.0000  0.0000  0.0000  0.0000  0.0000  0.0000  0.0005  0.0083
   2. Li 1 (s)      0.0000  0.0000  0.0000  0.0000  0.0000  0.0000  0.0310  0.1801
   3. Li 1 (px)     0.0000  0.0000  0.0000  0.0000  0.0000  0.0000  0.0000  0.0000
   4. Li 1 (py)     0.0000  0.0000  0.0000  0.0000  0.0000  0.0000  0.0000  0.0000
   5. Li 1 (pz)     0.8021  0.0000  0.0000  0.0000  0.0000  0.0000  0.0460  0.2624
   6. Li 1 (s)      0.0000  0.0000  0.0000  0.0000  0.0000  0.0000  0.0234  0.1398
   7. Li 1 (px)     0.0000  0.0000  0.0000  0.0000  0.0000  0.0000  0.0000  0.0000
   8. Li 1 (py)     0.0000  0.0000  0.0000  0.0000  0.0000  0.0000  0.0000  0.0000
   9. Li 1 (pz)     1.0000  0.0000  0.0000  0.0000  0.0000  0.0000  0.0262  0.1527
  10. Li 1 (d5)     0.0000  1.0000  0.0000  0.0000  0.0000  0.0000  0.0791  0.3829
  11. Li 1 (d2)     0.0000  0.0000  1.0000  0.0000  0.0000  0.0000  0.0000  0.0000
  12. Li 1 (d3)     0.0000  0.0000  0.0000  1.0000  0.0000  0.0000  0.0000  0.0000
  13. Li 1 (d4)     0.0000  0.0000  0.0000  0.0000  1.0000  0.0000  0.0000  0.0000
  14. Li 1 (d1)     0.0000  0.0000  0.0000  0.0000  0.0000  1.0000  0.0000  0.0000
  15.  F 2 (s)      0.0262  0.0791  0.0000  0.0000  0.0000  0.0000  1.0000  0.2443
  16.  F 2 (s)      0.1527  0.3829  0.0000  0.0000  0.0000  0.0000  0.2443  1.0000
  17.  F 2 (px)     0.0000  0.0000  0.1501  0.0000  0.0000  0.0000  0.0000  0.0000
  18.  F 2 (py)     0.0000  0.0000  0.0000  0.1501  0.0000  0.0000  0.0000  0.0000
  19.  F 2 (pz)     0.0130 -0.0941  0.0000  0.0000  0.0000  0.0000  0.0000  0.0000
  20.  F 2 (s)      0.3349  0.5083  0.0000  0.0000  0.0000  0.0000  0.1716  0.7635
  21.  F 2 (px)     0.0000  0.0000  0.4969  0.0000  0.0000  0.0000  0.0000  0.0000
  22.  F 2 (py)     0.0000  0.0000  0.0000  0.4969  0.0000  0.0000  0.0000  0.0000
  23.  F 2 (pz)     0.0807 -0.0716  0.0000  0.0000  0.0000  0.0000  0.0000  0.0000
  24.  F 2 (d5)    -0.0143 -0.0132  0.0000  0.0000  0.0000  0.0000  0.0000  0.0000
  25.  F 2 (d2)     0.0000  0.0000 -0.2033  0.0000  0.0000  0.0000  0.0000  0.0000
  26.  F 2 (d3)     0.0000  0.0000  0.0000 -0.2033  0.0000  0.0000  0.0000  0.0000
  27.  F 2 (d4)     0.0000  0.0000  0.0000  0.0000  0.1127  0.0000  0.0000  0.0000
  28.  F 2 (d1)     0.0000  0.0000  0.0000  0.0000  0.0000  0.1127  0.0000  0.0000

           AO         17      18      19      20      21      22      23      24
      ------------ ------- ------- ------- ------- ------- ------- ------- -------
   1. Li 1 (s)      0.0000  0.0000 -0.0133  0.0685  0.0000  0.0000 -0.1750  0.0753
   2. Li 1 (s)      0.0000  0.0000 -0.0466  0.3894  0.0000  0.0000 -0.2070  0.0043
   3. Li 1 (px)     0.0580  0.0000  0.0000  0.0000  0.2960  0.0000  0.0000  0.0000
   4. Li 1 (py)     0.0000  0.0580  0.0000  0.0000  0.0000  0.2960  0.0000  0.0000
   5. Li 1 (pz)     0.0000  0.0000 -0.0316  0.5244  0.0000  0.0000 -0.0904  0.0108
   6. Li 1 (s)      0.0000  0.0000 -0.0189  0.3282  0.0000  0.0000 -0.1061  0.0057
   7. Li 1 (px)     0.0337  0.0000  0.0000  0.0000  0.1890  0.0000  0.0000  0.0000
   8. Li 1 (py)     0.0000  0.0337  0.0000  0.0000  0.0000  0.1890  0.0000  0.0000
   9. Li 1 (pz)     0.0000  0.0000  0.0130  0.3349  0.0000  0.0000  0.0807 -0.0143
  10. Li 1 (d5)     0.0000  0.0000 -0.0941  0.5083  0.0000  0.0000 -0.0716 -0.0132
  11. Li 1 (d2)     0.1501  0.0000  0.0000  0.0000  0.4969  0.0000  0.0000  0.0000
  12. Li 1 (d3)     0.0000  0.1501  0.0000  0.0000  0.0000  0.4969  0.0000  0.0000
  13. Li 1 (d4)     0.0000  0.0000  0.0000  0.0000  0.0000  0.0000  0.0000  0.0000
  14. Li 1 (d1)     0.0000  0.0000  0.0000  0.0000  0.0000  0.0000  0.0000  0.0000
  15.  F 2 (s)      0.0000  0.0000  0.0000  0.1716  0.0000  0.0000  0.0000  0.0000
  16.  F 2 (s)      0.0000  0.0000  0.0000  0.7635  0.0000  0.0000  0.0000  0.0000
  17.  F 2 (px)     1.0000  0.0000  0.0000  0.0000  0.4995  0.0000  0.0000  0.0000
  18.  F 2 (py)     0.0000  1.0000  0.0000  0.0000  0.0000  0.4995  0.0000  0.0000
  19.  F 2 (pz)     0.0000  0.0000  1.0000  0.0000  0.0000  0.0000  0.4995  0.0000
  20.  F 2 (s)      0.0000  0.0000  0.0000  1.0000  0.0000  0.0000  0.0000  0.0000
  21.  F 2 (px)     0.4995  0.0000  0.0000  0.0000  1.0000  0.0000  0.0000  0.0000
  22.  F 2 (py)     0.0000  0.4995  0.0000  0.0000  0.0000  1.0000  0.0000  0.0000
  23.  F 2 (pz)     0.0000  0.0000  0.4995  0.0000  0.0000  0.0000  1.0000  0.0000
  24.  F 2 (d5)     0.0000  0.0000  0.0000  0.0000  0.0000  0.0000  0.0000  1.0000
  25.  F 2 (d2)     0.0000  0.0000  0.0000  0.0000  0.0000  0.0000  0.0000  0.0000
  26.  F 2 (d3)     0.0000  0.0000  0.0000  0.0000  0.0000  0.0000  0.0000  0.0000
  27.  F 2 (d4)     0.0000  0.0000  0.0000  0.0000  0.0000  0.0000  0.0000  0.0000
  28.  F 2 (d1)     0.0000  0.0000  0.0000  0.0000  0.0000  0.0000  0.0000  0.0000

           AO         25      26      27      28
      ------------ ------- ------- ------- -------
   1. Li 1 (s)      0.0000  0.0000  0.0000  0.0000
   2. Li 1 (s)      0.0000  0.0000  0.0000  0.0000
   3. Li 1 (px)    -0.0741  0.0000  0.0000  0.0000
   4. Li 1 (py)     0.0000 -0.0741  0.0000  0.0000
   5. Li 1 (pz)     0.0000  0.0000  0.0000  0.0000
   6. Li 1 (s)      0.0000  0.0000  0.0000  0.0000
   7. Li 1 (px)    -0.0177  0.0000  0.0000  0.0000
   8. Li 1 (py)     0.0000 -0.0177  0.0000  0.0000
   9. Li 1 (pz)     0.0000  0.0000  0.0000  0.0000
  10. Li 1 (d5)     0.0000  0.0000  0.0000  0.0000
  11. Li 1 (d2)    -0.2033  0.0000  0.0000  0.0000
  12. Li 1 (d3)     0.0000 -0.2033  0.0000  0.0000
  13. Li 1 (d4)     0.0000  0.0000  0.1127  0.0000
  14. Li 1 (d1)     0.0000  0.0000  0.0000  0.1127
  15.  F 2 (s)      0.0000  0.0000  0.0000  0.0000
  16.  F 2 (s)      0.0000  0.0000  0.0000  0.0000
  17.  F 2 (px)     0.0000  0.0000  0.0000  0.0000
  18.  F 2 (py)     0.0000  0.0000  0.0000  0.0000
  19.  F 2 (pz)     0.0000  0.0000  0.0000  0.0000
  20.  F 2 (s)      0.0000  0.0000  0.0000  0.0000
  21.  F 2 (px)     0.0000  0.0000  0.0000  0.0000
  22.  F 2 (py)     0.0000  0.0000  0.0000  0.0000
  23.  F 2 (pz)     0.0000  0.0000  0.0000  0.0000
  24.  F 2 (d5)     0.0000  0.0000  0.0000  0.0000
  25.  F 2 (d2)     1.0000  0.0000  0.0000  0.0000
  26.  F 2 (d3)     0.0000  1.0000  0.0000  0.0000
  27.  F 2 (d4)     0.0000  0.0000  1.0000  0.0000
  28.  F 2 (d1)     0.0000  0.0000  0.0000  1.0000


 AO bond-order matrix:

           AO          1       2       3       4       5       6       7       8
      ------------ ------- ------- ------- ------- ------- ------- ------- -------
   1. Li 1 (s)      2.0221  0.0039  0.0000  0.0000 -0.0565 -0.0002  0.0000  0.0000
   2. Li 1 (s)      0.0039  0.0320  0.0000  0.0000  0.0314 -0.0198  0.0000  0.0000
   3. Li 1 (px)     0.0000  0.0000  0.0388  0.0000  0.0000  0.0000 -0.0042  0.0000
   4. Li 1 (py)     0.0000  0.0000  0.0000  0.0388  0.0000  0.0000  0.0000 -0.0042
   5. Li 1 (pz)    -0.0565  0.0314  0.0000  0.0000  0.0327 -0.0193  0.0000  0.0000
   6. Li 1 (s)     -0.0002 -0.0198  0.0000  0.0000 -0.0193  0.0125  0.0000  0.0000
   7. Li 1 (px)     0.0000  0.0000 -0.0042  0.0000  0.0000  0.0000  0.0005  0.0000
   8. Li 1 (py)     0.0000  0.0000  0.0000 -0.0042  0.0000  0.0000  0.0000  0.0005
   9. Li 1 (pz)     0.0392 -0.0265  0.0000  0.0000 -0.0271  0.0166  0.0000  0.0000
  10. Li 1 (d5)     0.0003 -0.0046  0.0000  0.0000 -0.0046  0.0028  0.0000  0.0000
  11. Li 1 (d2)     0.0000  0.0000  0.0132  0.0000  0.0000  0.0000 -0.0014  0.0000
  12. Li 1 (d3)     0.0000  0.0000  0.0000  0.0132  0.0000  0.0000  0.0000 -0.0014
  13. Li 1 (d4)     0.0000  0.0000  0.0000  0.0000  0.0000  0.0000  0.0000  0.0000
  14. Li 1 (d1)     0.0000  0.0000  0.0000  0.0000  0.0000  0.0000  0.0000  0.0000
  15.  F 2 (s)      0.0215  0.0060  0.0000  0.0000  0.0025 -0.0075  0.0000  0.0000
  16.  F 2 (s)     -0.0439 -0.0048  0.0000  0.0000  0.0051  0.0143  0.0000  0.0000
  17.  F 2 (px)     0.0000  0.0000  0.1733  0.0000  0.0000  0.0000 -0.0187  0.0000
  18.  F 2 (py)     0.0000  0.0000  0.0000  0.1733  0.0000  0.0000  0.0000 -0.0187
  19.  F 2 (pz)     0.1195 -0.1570  0.0000  0.0000 -0.1578  0.0977  0.0000  0.0000
  20.  F 2 (s)     -0.0483 -0.0046  0.0000  0.0000  0.0068  0.0159  0.0000  0.0000
  21.  F 2 (px)     0.0000  0.0000  0.1315  0.0000  0.0000  0.0000 -0.0142  0.0000
  22.  F 2 (py)     0.0000  0.0000  0.0000  0.1315  0.0000  0.0000  0.0000 -0.0142
  23.  F 2 (pz)     0.1053 -0.1258  0.0000  0.0000 -0.1271  0.0780  0.0000  0.0000
  24.  F 2 (d5)    -0.0051  0.0053  0.0000  0.0000  0.0055 -0.0031  0.0000  0.0000
  25.  F 2 (d2)     0.0000  0.0000 -0.0034  0.0000  0.0000  0.0000  0.0004  0.0000
  26.  F 2 (d3)     0.0000  0.0000  0.0000 -0.0034  0.0000  0.0000  0.0000  0.0004
  27.  F 2 (d4)     0.0000  0.0000  0.0000  0.0000  0.0000  0.0000  0.0000  0.0000
  28.  F 2 (d1)     0.0000  0.0000  0.0000  0.0000  0.0000  0.0000  0.0000  0.0000

           AO          9      10      11      12      13      14      15      16
      ------------ ------- ------- ------- ------- ------- ------- ------- -------
   1. Li 1 (s)      0.0392  0.0003  0.0000  0.0000  0.0000  0.0000  0.0215 -0.0439
   2. Li 1 (s)     -0.0265 -0.0046  0.0000  0.0000  0.0000  0.0000  0.0060 -0.0048
   3. Li 1 (px)     0.0000  0.0000  0.0132  0.0000  0.0000  0.0000  0.0000  0.0000
   4. Li 1 (py)     0.0000  0.0000  0.0000  0.0132  0.0000  0.0000  0.0000  0.0000
   5. Li 1 (pz)    -0.0271 -0.0046  0.0000  0.0000  0.0000  0.0000  0.0025  0.0051
   6. Li 1 (s)      0.0166  0.0028  0.0000  0.0000  0.0000  0.0000 -0.0075  0.0143
   7. Li 1 (px)     0.0000  0.0000 -0.0014  0.0000  0.0000  0.0000  0.0000  0.0000
   8. Li 1 (py)     0.0000  0.0000  0.0000 -0.0014  0.0000  0.0000  0.0000  0.0000
   9. Li 1 (pz)     0.0229  0.0038  0.0000  0.0000  0.0000  0.0000 -0.0050  0.0080
  10. Li 1 (d5)     0.0038  0.0007  0.0000  0.0000  0.0000  0.0000  0.0036 -0.0017
  11. Li 1 (d2)     0.0000  0.0000  0.0045  0.0000  0.0000  0.0000  0.0000  0.0000
  12. Li 1 (d3)     0.0000  0.0000  0.0000  0.0045  0.0000  0.0000  0.0000  0.0000
  13. Li 1 (d4)     0.0000  0.0000  0.0000  0.0000  0.0000  0.0000  0.0000  0.0000
  14. Li 1 (d1)     0.0000  0.0000  0.0000  0.0000  0.0000  0.0000  0.0000  0.0000
  15.  F 2 (s)     -0.0050  0.0036  0.0000  0.0000  0.0000  0.0000  2.0955 -0.1958
  16.  F 2 (s)      0.0080 -0.0017  0.0000  0.0000  0.0000  0.0000 -0.1958  0.5067
  17.  F 2 (px)     0.0000  0.0000  0.0590  0.0000  0.0000  0.0000  0.0000  0.0000
  18.  F 2 (py)     0.0000  0.0000  0.0000  0.0590  0.0000  0.0000  0.0000  0.0000
  19.  F 2 (pz)     0.1330  0.0226  0.0000  0.0000  0.0000  0.0000 -0.0105  0.0332
  20.  F 2 (s)      0.0085 -0.0022  0.0000  0.0000  0.0000  0.0000 -0.2920  0.5850
  21.  F 2 (px)     0.0000  0.0000  0.0447  0.0000  0.0000  0.0000  0.0000  0.0000
  22.  F 2 (py)     0.0000  0.0000  0.0000  0.0447  0.0000  0.0000  0.0000  0.0000
  23.  F 2 (pz)     0.1066  0.0182  0.0000  0.0000  0.0000  0.0000  0.0030  0.0090
  24.  F 2 (d5)    -0.0044 -0.0008  0.0000  0.0000  0.0000  0.0000 -0.0036  0.0068
  25.  F 2 (d2)     0.0000  0.0000 -0.0012  0.0000  0.0000  0.0000  0.0000  0.0000
  26.  F 2 (d3)     0.0000  0.0000  0.0000 -0.0012  0.0000  0.0000  0.0000  0.0000
  27.  F 2 (d4)     0.0000  0.0000  0.0000  0.0000  0.0000  0.0000  0.0000  0.0000
  28.  F 2 (d1)     0.0000  0.0000  0.0000  0.0000  0.0000  0.0000  0.0000  0.0000

           AO         17      18      19      20      21      22      23      24
      ------------ ------- ------- ------- ------- ------- ------- ------- -------
   1. Li 1 (s)      0.0000  0.0000  0.1195 -0.0483  0.0000  0.0000  0.1053 -0.0051
   2. Li 1 (s)      0.0000  0.0000 -0.1570 -0.0046  0.0000  0.0000 -0.1258  0.0053
   3. Li 1 (px)     0.1733  0.0000  0.0000  0.0000  0.1315  0.0000  0.0000  0.0000
   4. Li 1 (py)     0.0000  0.1733  0.0000  0.0000  0.0000  0.1315  0.0000  0.0000
   5. Li 1 (pz)     0.0000  0.0000 -0.1578  0.0068  0.0000  0.0000 -0.1271  0.0055
   6. Li 1 (s)      0.0000  0.0000  0.0977  0.0159  0.0000  0.0000  0.0780 -0.0031
   7. Li 1 (px)    -0.0187  0.0000  0.0000  0.0000 -0.0142  0.0000  0.0000  0.0000
   8. Li 1 (py)     0.0000 -0.0187  0.0000  0.0000  0.0000 -0.0142  0.0000  0.0000
   9. Li 1 (pz)     0.0000  0.0000  0.1330  0.0085  0.0000  0.0000  0.1066 -0.0044
  10. Li 1 (d5)     0.0000  0.0000  0.0226 -0.0022  0.0000  0.0000  0.0182 -0.0008
  11. Li 1 (d2)     0.0590  0.0000  0.0000  0.0000  0.0447  0.0000  0.0000  0.0000
  12. Li 1 (d3)     0.0000  0.0590  0.0000  0.0000  0.0000  0.0447  0.0000  0.0000
  13. Li 1 (d4)     0.0000  0.0000  0.0000  0.0000  0.0000  0.0000  0.0000  0.0000
  14. Li 1 (d1)     0.0000  0.0000  0.0000  0.0000  0.0000  0.0000  0.0000  0.0000
  15.  F 2 (s)      0.0000  0.0000 -0.0105 -0.2920  0.0000  0.0000  0.0030 -0.0036
  16.  F 2 (s)      0.0000  0.0000  0.0332  0.5850  0.0000  0.0000  0.0090  0.0068
  17.  F 2 (px)     0.7748  0.0000  0.0000  0.0000  0.5879  0.0000  0.0000  0.0000
  18.  F 2 (py)     0.0000  0.7748  0.0000  0.0000  0.0000  0.5879  0.0000  0.0000
  19.  F 2 (pz)     0.0000  0.0000  0.7803  0.0330  0.0000  0.0000  0.6258 -0.0261
  20.  F 2 (s)      0.0000  0.0000  0.0330  0.6776  0.0000  0.0000  0.0059  0.0081
  21.  F 2 (px)     0.5879  0.0000  0.0000  0.0000  0.4461  0.0000  0.0000  0.0000
  22.  F 2 (py)     0.0000  0.5879  0.0000  0.0000  0.0000  0.4461  0.0000  0.0000
  23.  F 2 (pz)     0.0000  0.0000  0.6258  0.0059  0.0000  0.0000  0.5025 -0.0212
  24.  F 2 (d5)     0.0000  0.0000 -0.0261  0.0081  0.0000  0.0000 -0.0212  0.0010
  25.  F 2 (d2)    -0.0153  0.0000  0.0000  0.0000 -0.0116  0.0000  0.0000  0.0000
  26.  F 2 (d3)     0.0000 -0.0153  0.0000  0.0000  0.0000 -0.0116  0.0000  0.0000
  27.  F 2 (d4)     0.0000  0.0000  0.0000  0.0000  0.0000  0.0000  0.0000  0.0000
  28.  F 2 (d1)     0.0000  0.0000  0.0000  0.0000  0.0000  0.0000  0.0000  0.0000

           AO         25      26      27      28
      ------------ ------- ------- ------- -------
   1. Li 1 (s)      0.0000  0.0000  0.0000  0.0000
   2. Li 1 (s)      0.0000  0.0000  0.0000  0.0000
   3. Li 1 (px)    -0.0034  0.0000  0.0000  0.0000
   4. Li 1 (py)     0.0000 -0.0034  0.0000  0.0000
   5. Li 1 (pz)     0.0000  0.0000  0.0000  0.0000
   6. Li 1 (s)      0.0000  0.0000  0.0000  0.0000
   7. Li 1 (px)     0.0004  0.0000  0.0000  0.0000
   8. Li 1 (py)     0.0000  0.0004  0.0000  0.0000
   9. Li 1 (pz)     0.0000  0.0000  0.0000  0.0000
  10. Li 1 (d5)     0.0000  0.0000  0.0000  0.0000
  11. Li 1 (d2)    -0.0012  0.0000  0.0000  0.0000
  12. Li 1 (d3)     0.0000 -0.0012  0.0000  0.0000
  13. Li 1 (d4)     0.0000  0.0000  0.0000  0.0000
  14. Li 1 (d1)     0.0000  0.0000  0.0000  0.0000
  15.  F 2 (s)      0.0000  0.0000  0.0000  0.0000
  16.  F 2 (s)      0.0000  0.0000  0.0000  0.0000
  17.  F 2 (px)    -0.0153  0.0000  0.0000  0.0000
  18.  F 2 (py)     0.0000 -0.0153  0.0000  0.0000
  19.  F 2 (pz)     0.0000  0.0000  0.0000  0.0000
  20.  F 2 (s)      0.0000  0.0000  0.0000  0.0000
  21.  F 2 (px)    -0.0116  0.0000  0.0000  0.0000
  22.  F 2 (py)     0.0000 -0.0116  0.0000  0.0000
  23.  F 2 (pz)     0.0000  0.0000  0.0000  0.0000
  24.  F 2 (d5)     0.0000  0.0000  0.0000  0.0000
  25.  F 2 (d2)     0.0003  0.0000  0.0000  0.0000
  26.  F 2 (d3)     0.0000  0.0003  0.0000  0.0000
  27.  F 2 (d4)     0.0000  0.0000  0.0000  0.0000
  28.  F 2 (d1)     0.0000  0.0000  0.0000  0.0000


 AO density matrix:

           AO          1       2       3       4       5       6       7       8
      ------------ ------- ------- ------- ------- ------- ------- ------- -------
   1. Li 1 (s)      1.9997  0.3071  0.0000  0.0000 -0.0134  0.3839  0.0000  0.0000
   2. Li 1 (s)      0.3071  0.3004  0.0000  0.0000  0.3079  0.2476  0.0000  0.0000
   3. Li 1 (px)     0.0000  0.0000  0.1848  0.0000  0.0000  0.0000  0.1259  0.0000
   4. Li 1 (py)     0.0000  0.0000  0.0000  0.1848  0.0000  0.0000  0.0000  0.1259
   5. Li 1 (pz)    -0.0134  0.3079  0.0000  0.0000  0.4087  0.2412  0.0000  0.0000
   6. Li 1 (s)      0.3839  0.2476  0.0000  0.0000  0.2412  0.2199  0.0000  0.0000
   7. Li 1 (px)     0.0000  0.0000  0.1259  0.0000  0.0000  0.0000  0.0858  0.0000
   8. Li 1 (py)     0.0000  0.0000  0.0000  0.1259  0.0000  0.0000  0.0000  0.0858
   9. Li 1 (pz)    -0.0041  0.1547  0.0000  0.0000  0.2343  0.1345  0.0000  0.0000
  10. Li 1 (d5)    -0.0010  0.3186  0.0000  0.0000  0.4298  0.2545  0.0000  0.0000
  11. Li 1 (d2)     0.0000  0.0000  0.2298  0.0000  0.0000  0.0000  0.1565  0.0000
  12. Li 1 (d3)     0.0000  0.0000  0.0000  0.2298  0.0000  0.0000  0.0000  0.1565
  13. Li 1 (d4)     0.0000  0.0000  0.0000  0.0000  0.0000  0.0000  0.0000  0.0000
  14. Li 1 (d1)     0.0000  0.0000  0.0000  0.0000  0.0000  0.0000  0.0000  0.0000
  15.  F 2 (s)      0.0009  0.0578  0.0000  0.0000  0.0862  0.0430  0.0000  0.0000
  16.  F 2 (s)      0.0171  0.5776  0.0000  0.0000  0.8081  0.4766  0.0000  0.0000
  17.  F 2 (px)     0.0000  0.0000  0.5308  0.0000  0.0000  0.0000  0.3616  0.0000
  18.  F 2 (py)     0.0000  0.0000  0.0000  0.5308  0.0000  0.0000  0.0000  0.3616
  19.  F 2 (pz)    -0.0285 -0.2891  0.0000  0.0000 -0.1586 -0.1333  0.0000  0.0000
  20.  F 2 (s)      0.1366  0.6203  0.0000  0.0000  0.8363  0.5179  0.0000  0.0000
  21.  F 2 (px)     0.0000  0.0000  0.5138  0.0000  0.0000  0.0000  0.3500  0.0000
  22.  F 2 (py)     0.0000  0.0000  0.0000  0.5138  0.0000  0.0000  0.0000  0.3500
  23.  F 2 (pz)    -0.3478 -0.3240  0.0000  0.0000 -0.1502 -0.1890  0.0000  0.0000
  24.  F 2 (d5)     0.1499  0.0311  0.0000  0.0000  0.0057  0.0334  0.0000  0.0000
  25.  F 2 (d2)     0.0000  0.0000 -0.0194  0.0000  0.0000  0.0000 -0.0132  0.0000
  26.  F 2 (d3)     0.0000  0.0000  0.0000 -0.0194  0.0000  0.0000  0.0000 -0.0132
  27.  F 2 (d4)     0.0000  0.0000  0.0000  0.0000  0.0000  0.0000  0.0000  0.0000
  28.  F 2 (d1)     0.0000  0.0000  0.0000  0.0000  0.0000  0.0000  0.0000  0.0000

           AO          9      10      11      12      13      14      15      16
      ------------ ------- ------- ------- ------- ------- ------- ------- -------
   1. Li 1 (s)     -0.0041 -0.0010  0.0000  0.0000  0.0000  0.0000  0.0009  0.0171
   2. Li 1 (s)      0.1547  0.3186  0.0000  0.0000  0.0000  0.0000  0.0578  0.5776
   3. Li 1 (px)     0.0000  0.0000  0.2298  0.0000  0.0000  0.0000  0.0000  0.0000
   4. Li 1 (py)     0.0000  0.0000  0.0000  0.2298  0.0000  0.0000  0.0000  0.0000
   5. Li 1 (pz)     0.2343  0.4298  0.0000  0.0000  0.0000  0.0000  0.0862  0.8081
   6. Li 1 (s)      0.1345  0.2545  0.0000  0.0000  0.0000  0.0000  0.0430  0.4766
   7. Li 1 (px)     0.0000  0.0000  0.1565  0.0000  0.0000  0.0000  0.0000  0.0000
   8. Li 1 (py)     0.0000  0.0000  0.0000  0.1565  0.0000  0.0000  0.0000  0.0000
   9. Li 1 (pz)     0.1621  0.2551  0.0000  0.0000  0.0000  0.0000  0.0484  0.5090
  10. Li 1 (d5)     0.2551  0.4570  0.0000  0.0000  0.0000  0.0000  0.1552  0.8751
  11. Li 1 (d2)     0.0000  0.0000  0.2857  0.0000  0.0000  0.0000  0.0000  0.0000
  12. Li 1 (d3)     0.0000  0.0000  0.0000  0.2857  0.0000  0.0000  0.0000  0.0000
  13. Li 1 (d4)     0.0000  0.0000  0.0000  0.0000  0.0000  0.0000  0.0000  0.0000
  14. Li 1 (d1)     0.0000  0.0000  0.0000  0.0000  0.0000  0.0000  0.0000  0.0000
  15.  F 2 (s)      0.0484  0.1552  0.0000  0.0000  0.0000  0.0000  1.9998  0.4951
  16.  F 2 (s)      0.5090  0.8751  0.0000  0.0000  0.0000  0.0000  0.4951  1.7274
  17.  F 2 (px)     0.0000  0.0000  0.6599  0.0000  0.0000  0.0000  0.0000  0.0000
  18.  F 2 (py)     0.0000  0.0000  0.0000  0.6599  0.0000  0.0000  0.0000  0.0000
  19.  F 2 (pz)     0.1128 -0.1019  0.0000  0.0000  0.0000  0.0000 -0.0007  0.0269
  20.  F 2 (s)      0.5233  0.8996  0.0000  0.0000  0.0000  0.0000  0.3378  1.7555
  21.  F 2 (px)     0.0000  0.0000  0.6388  0.0000  0.0000  0.0000  0.0000  0.0000
  22.  F 2 (py)     0.0000  0.0000  0.0000  0.6388  0.0000  0.0000  0.0000  0.0000
  23.  F 2 (pz)     0.1055 -0.0988  0.0000  0.0000  0.0000  0.0000 -0.0002  0.0173
  24.  F 2 (d5)    -0.0001  0.0058  0.0000  0.0000  0.0000  0.0000 -0.0001  0.0083
  25.  F 2 (d2)     0.0000  0.0000 -0.0242  0.0000  0.0000  0.0000  0.0000  0.0000
  26.  F 2 (d3)     0.0000  0.0000  0.0000 -0.0242  0.0000  0.0000  0.0000  0.0000
  27.  F 2 (d4)     0.0000  0.0000  0.0000  0.0000  0.0000  0.0000  0.0000  0.0000
  28.  F 2 (d1)     0.0000  0.0000  0.0000  0.0000  0.0000  0.0000  0.0000  0.0000

           AO         17      18      19      20      21      22      23      24
      ------------ ------- ------- ------- ------- ------- ------- ------- -------
   1. Li 1 (s)      0.0000  0.0000 -0.0285  0.1366  0.0000  0.0000 -0.3478  0.1499
   2. Li 1 (s)      0.0000  0.0000 -0.2891  0.6203  0.0000  0.0000 -0.3240  0.0311
   3. Li 1 (px)     0.5308  0.0000  0.0000  0.0000  0.5138  0.0000  0.0000  0.0000
   4. Li 1 (py)     0.0000  0.5308  0.0000  0.0000  0.0000  0.5138  0.0000  0.0000
   5. Li 1 (pz)     0.0000  0.0000 -0.1586  0.8363  0.0000  0.0000 -0.1502  0.0057
   6. Li 1 (s)      0.0000  0.0000 -0.1333  0.5179  0.0000  0.0000 -0.1890  0.0334
   7. Li 1 (px)     0.3616  0.0000  0.0000  0.0000  0.3500  0.0000  0.0000  0.0000
   8. Li 1 (py)     0.0000  0.3616  0.0000  0.0000  0.0000  0.3500  0.0000  0.0000
   9. Li 1 (pz)     0.0000  0.0000  0.1128  0.5233  0.0000  0.0000  0.1055 -0.0001
  10. Li 1 (d5)     0.0000  0.0000 -0.1019  0.8996  0.0000  0.0000 -0.0988  0.0058
  11. Li 1 (d2)     0.6599  0.0000  0.0000  0.0000  0.6388  0.0000  0.0000  0.0000
  12. Li 1 (d3)     0.0000  0.6599  0.0000  0.0000  0.0000  0.6388  0.0000  0.0000
  13. Li 1 (d4)     0.0000  0.0000  0.0000  0.0000  0.0000  0.0000  0.0000  0.0000
  14. Li 1 (d1)     0.0000  0.0000  0.0000  0.0000  0.0000  0.0000  0.0000  0.0000
  15.  F 2 (s)      0.0000  0.0000 -0.0007  0.3378  0.0000  0.0000 -0.0002 -0.0001
  16.  F 2 (s)      0.0000  0.0000  0.0269  1.7555  0.0000  0.0000  0.0173  0.0083
  17.  F 2 (px)     1.5242  0.0000  0.0000  0.0000  1.4755  0.0000  0.0000  0.0000
  18.  F 2 (py)     0.0000  1.5242  0.0000  0.0000  0.0000  1.4755  0.0000  0.0000
  19.  F 2 (pz)     0.0000  0.0000  1.5549 -0.0046  0.0000  0.0000  1.4721 -0.0316
  20.  F 2 (s)      0.0000  0.0000 -0.0046  1.8064  0.0000  0.0000 -0.0318  0.0181
  21.  F 2 (px)     1.4755  0.0000  0.0000  0.0000  1.4284  0.0000  0.0000  0.0000
  22.  F 2 (py)     0.0000  1.4755  0.0000  0.0000  0.0000  1.4284  0.0000  0.0000
  23.  F 2 (pz)     0.0000  0.0000  1.4721 -0.0318  0.0000  0.0000  1.4452 -0.0539
  24.  F 2 (d5)     0.0000  0.0000 -0.0316  0.0181  0.0000  0.0000 -0.0539  0.0118
  25.  F 2 (d2)    -0.0558  0.0000  0.0000  0.0000 -0.0540  0.0000  0.0000  0.0000
  26.  F 2 (d3)     0.0000 -0.0558  0.0000  0.0000  0.0000 -0.0540  0.0000  0.0000
  27.  F 2 (d4)     0.0000  0.0000  0.0000  0.0000  0.0000  0.0000  0.0000  0.0000
  28.  F 2 (d1)     0.0000  0.0000  0.0000  0.0000  0.0000  0.0000  0.0000  0.0000

           AO         25      26      27      28
      ------------ ------- ------- ------- -------
   1. Li 1 (s)      0.0000  0.0000  0.0000  0.0000
   2. Li 1 (s)      0.0000  0.0000  0.0000  0.0000
   3. Li 1 (px)    -0.0194  0.0000  0.0000  0.0000
   4. Li 1 (py)     0.0000 -0.0194  0.0000  0.0000
   5. Li 1 (pz)     0.0000  0.0000  0.0000  0.0000
   6. Li 1 (s)      0.0000  0.0000  0.0000  0.0000
   7. Li 1 (px)    -0.0132  0.0000  0.0000  0.0000
   8. Li 1 (py)     0.0000 -0.0132  0.0000  0.0000
   9. Li 1 (pz)     0.0000  0.0000  0.0000  0.0000
  10. Li 1 (d5)     0.0000  0.0000  0.0000  0.0000
  11. Li 1 (d2)    -0.0242  0.0000  0.0000  0.0000
  12. Li 1 (d3)     0.0000 -0.0242  0.0000  0.0000
  13. Li 1 (d4)     0.0000  0.0000  0.0000  0.0000
  14. Li 1 (d1)     0.0000  0.0000  0.0000  0.0000
  15.  F 2 (s)      0.0000  0.0000  0.0000  0.0000
  16.  F 2 (s)      0.0000  0.0000  0.0000  0.0000
  17.  F 2 (px)    -0.0558  0.0000  0.0000  0.0000
  18.  F 2 (py)     0.0000 -0.0558  0.0000  0.0000
  19.  F 2 (pz)     0.0000  0.0000  0.0000  0.0000
  20.  F 2 (s)      0.0000  0.0000  0.0000  0.0000
  21.  F 2 (px)    -0.0540  0.0000  0.0000  0.0000
  22.  F 2 (py)     0.0000 -0.0540  0.0000  0.0000
  23.  F 2 (pz)     0.0000  0.0000  0.0000  0.0000
  24.  F 2 (d5)     0.0000  0.0000  0.0000  0.0000
  25.  F 2 (d2)     0.0020  0.0000  0.0000  0.0000
  26.  F 2 (d3)     0.0000  0.0020  0.0000  0.0000
  27.  F 2 (d4)     0.0000  0.0000  0.0000  0.0000
  28.  F 2 (d1)     0.0000  0.0000  0.0000  0.0000


 MO density matrix:

      MO     1       2       3       4       5       6       7       8       9
     ---- ------  ------  ------  ------  ------  ------  ------  ------  ------
   1.     2.0000  0.0000  0.0000  0.0000  0.0000  0.0000  0.0000  0.0000  0.0000
   2.     0.0000  2.0000  0.0000  0.0000  0.0000  0.0000  0.0000  0.0000  0.0000
   3.     0.0000  0.0000  2.0000  0.0000  0.0000  0.0000  0.0000  0.0000  0.0000
   4.     0.0000  0.0000  0.0000  2.0000  0.0000  0.0000  0.0000  0.0000  0.0000
   5.     0.0000  0.0000  0.0000  0.0000  2.0000  0.0000  0.0000  0.0000  0.0000
   6.     0.0000  0.0000  0.0000  0.0000  0.0000  2.0000  0.0000  0.0000  0.0000
   7.     0.0000  0.0000  0.0000  0.0000  0.0000  0.0000  0.0000  0.0000  0.0000
   8.     0.0000  0.0000  0.0000  0.0000  0.0000  0.0000  0.0000  0.0000  0.0000
   9.     0.0000  0.0000  0.0000  0.0000  0.0000  0.0000  0.0000  0.0000  0.0000
  10.     0.0000  0.0000  0.0000  0.0000  0.0000  0.0000  0.0000  0.0000  0.0000
  11.     0.0000  0.0000  0.0000  0.0000  0.0000  0.0000  0.0000  0.0000  0.0000
  12.     0.0000  0.0000  0.0000  0.0000  0.0000  0.0000  0.0000  0.0000  0.0000
  13.     0.0000  0.0000  0.0000  0.0000  0.0000  0.0000  0.0000  0.0000  0.0000
  14.     0.0000  0.0000  0.0000  0.0000  0.0000  0.0000  0.0000  0.0000  0.0000
  15.     0.0000  0.0000  0.0000  0.0000  0.0000  0.0000  0.0000  0.0000  0.0000
  16.     0.0000  0.0000  0.0000  0.0000  0.0000  0.0000  0.0000  0.0000  0.0000
  17.     0.0000  0.0000  0.0000  0.0000  0.0000  0.0000  0.0000  0.0000  0.0000
  18.     0.0000  0.0000  0.0000  0.0000  0.0000  0.0000  0.0000  0.0000  0.0000
  19.     0.0000  0.0000  0.0000  0.0000  0.0000  0.0000  0.0000  0.0000  0.0000
  20.     0.0000  0.0000  0.0000  0.0000  0.0000  0.0000  0.0000  0.0000  0.0000
  21.     0.0000  0.0000  0.0000  0.0000  0.0000  0.0000  0.0000  0.0000  0.0000
  22.     0.0000  0.0000  0.0000  0.0000  0.0000  0.0000  0.0000  0.0000  0.0000
  23.     0.0000  0.0000  0.0000  0.0000  0.0000  0.0000  0.0000  0.0000  0.0000
  24.     0.0000  0.0000  0.0000  0.0000  0.0000  0.0000  0.0000  0.0000  0.0000
  25.     0.0000  0.0000  0.0000  0.0000  0.0000  0.0000  0.0000  0.0000  0.0000
  26.     0.0000  0.0000  0.0000  0.0000  0.0000  0.0000  0.0000  0.0000  0.0000
  27.     0.0000  0.0000  0.0000  0.0000  0.0000  0.0000  0.0000  0.0000  0.0000
  28.     0.0000  0.0000  0.0000  0.0000  0.0000  0.0000  0.0000  0.0000  0.0000

      MO    10      11      12      13      14      15      16      17      18
     ---- ------  ------  ------  ------  ------  ------  ------  ------  ------
   1.     0.0000  0.0000  0.0000  0.0000  0.0000  0.0000  0.0000  0.0000  0.0000
   2.     0.0000  0.0000  0.0000  0.0000  0.0000  0.0000  0.0000  0.0000  0.0000
   3.     0.0000  0.0000  0.0000  0.0000  0.0000  0.0000  0.0000  0.0000  0.0000
   4.     0.0000  0.0000  0.0000  0.0000  0.0000  0.0000  0.0000  0.0000  0.0000
   5.     0.0000  0.0000  0.0000  0.0000  0.0000  0.0000  0.0000  0.0000  0.0000
   6.     0.0000  0.0000  0.0000  0.0000  0.0000  0.0000  0.0000  0.0000  0.0000
   7.     0.0000  0.0000  0.0000  0.0000  0.0000  0.0000  0.0000  0.0000  0.0000
   8.     0.0000  0.0000  0.0000  0.0000  0.0000  0.0000  0.0000  0.0000  0.0000
   9.     0.0000  0.0000  0.0000  0.0000  0.0000  0.0000  0.0000  0.0000  0.0000
  10.     0.0000  0.0000  0.0000  0.0000  0.0000  0.0000  0.0000  0.0000  0.0000
  11.     0.0000  0.0000  0.0000  0.0000  0.0000  0.0000  0.0000  0.0000  0.0000
  12.     0.0000  0.0000  0.0000  0.0000  0.0000  0.0000  0.0000  0.0000  0.0000
  13.     0.0000  0.0000  0.0000  0.0000  0.0000  0.0000  0.0000  0.0000  0.0000
  14.     0.0000  0.0000  0.0000  0.0000  0.0000  0.0000  0.0000  0.0000  0.0000
  15.     0.0000  0.0000  0.0000  0.0000  0.0000  0.0000  0.0000  0.0000  0.0000
  16.     0.0000  0.0000  0.0000  0.0000  0.0000  0.0000  0.0000  0.0000  0.0000
  17.     0.0000  0.0000  0.0000  0.0000  0.0000  0.0000  0.0000  0.0000  0.0000
  18.     0.0000  0.0000  0.0000  0.0000  0.0000  0.0000  0.0000  0.0000  0.0000
  19.     0.0000  0.0000  0.0000  0.0000  0.0000  0.0000  0.0000  0.0000  0.0000
  20.     0.0000  0.0000  0.0000  0.0000  0.0000  0.0000  0.0000  0.0000  0.0000
  21.     0.0000  0.0000  0.0000  0.0000  0.0000  0.0000  0.0000  0.0000  0.0000
  22.     0.0000  0.0000  0.0000  0.0000  0.0000  0.0000  0.0000  0.0000  0.0000
  23.     0.0000  0.0000  0.0000  0.0000  0.0000  0.0000  0.0000  0.0000  0.0000
  24.     0.0000  0.0000  0.0000  0.0000  0.0000  0.0000  0.0000  0.0000  0.0000
  25.     0.0000  0.0000  0.0000  0.0000  0.0000  0.0000  0.0000  0.0000  0.0000
  26.     0.0000  0.0000  0.0000  0.0000  0.0000  0.0000  0.0000  0.0000  0.0000
  27.     0.0000  0.0000  0.0000  0.0000  0.0000  0.0000  0.0000  0.0000  0.0000
  28.     0.0000  0.0000  0.0000  0.0000  0.0000  0.0000  0.0000  0.0000  0.0000

      MO    19      20      21      22      23      24      25      26      27
     ---- ------  ------  ------  ------  ------  ------  ------  ------  ------
   1.     0.0000  0.0000  0.0000  0.0000  0.0000  0.0000  0.0000  0.0000  0.0000
   2.     0.0000  0.0000  0.0000  0.0000  0.0000  0.0000  0.0000  0.0000  0.0000
   3.     0.0000  0.0000  0.0000  0.0000  0.0000  0.0000  0.0000  0.0000  0.0000
   4.     0.0000  0.0000  0.0000  0.0000  0.0000  0.0000  0.0000  0.0000  0.0000
   5.     0.0000  0.0000  0.0000  0.0000  0.0000  0.0000  0.0000  0.0000  0.0000
   6.     0.0000  0.0000  0.0000  0.0000  0.0000  0.0000  0.0000  0.0000  0.0000
   7.     0.0000  0.0000  0.0000  0.0000  0.0000  0.0000  0.0000  0.0000  0.0000
   8.     0.0000  0.0000  0.0000  0.0000  0.0000  0.0000  0.0000  0.0000  0.0000
   9.     0.0000  0.0000  0.0000  0.0000  0.0000  0.0000  0.0000  0.0000  0.0000
  10.     0.0000  0.0000  0.0000  0.0000  0.0000  0.0000  0.0000  0.0000  0.0000
  11.     0.0000  0.0000  0.0000  0.0000  0.0000  0.0000  0.0000  0.0000  0.0000
  12.     0.0000  0.0000  0.0000  0.0000  0.0000  0.0000  0.0000  0.0000  0.0000
  13.     0.0000  0.0000  0.0000  0.0000  0.0000  0.0000  0.0000  0.0000  0.0000
  14.     0.0000  0.0000  0.0000  0.0000  0.0000  0.0000  0.0000  0.0000  0.0000
  15.     0.0000  0.0000  0.0000  0.0000  0.0000  0.0000  0.0000  0.0000  0.0000
  16.     0.0000  0.0000  0.0000  0.0000  0.0000  0.0000  0.0000  0.0000  0.0000
  17.     0.0000  0.0000  0.0000  0.0000  0.0000  0.0000  0.0000  0.0000  0.0000
  18.     0.0000  0.0000  0.0000  0.0000  0.0000  0.0000  0.0000  0.0000  0.0000
  19.     0.0000  0.0000  0.0000  0.0000  0.0000  0.0000  0.0000  0.0000  0.0000
  20.     0.0000  0.0000  0.0000  0.0000  0.0000  0.0000  0.0000  0.0000  0.0000
  21.     0.0000  0.0000  0.0000  0.0000  0.0000  0.0000  0.0000  0.0000  0.0000
  22.     0.0000  0.0000  0.0000  0.0000  0.0000  0.0000  0.0000  0.0000  0.0000
  23.     0.0000  0.0000  0.0000  0.0000  0.0000  0.0000  0.0000  0.0000  0.0000
  24.     0.0000  0.0000  0.0000  0.0000  0.0000  0.0000  0.0000  0.0000  0.0000
  25.     0.0000  0.0000  0.0000  0.0000  0.0000  0.0000  0.0000  0.0000  0.0000
  26.     0.0000  0.0000  0.0000  0.0000  0.0000  0.0000  0.0000  0.0000  0.0000
  27.     0.0000  0.0000  0.0000  0.0000  0.0000  0.0000  0.0000  0.0000  0.0000
  28.     0.0000  0.0000  0.0000  0.0000  0.0000  0.0000  0.0000  0.0000  0.0000

      MO    28
     ---- ------
   1.     0.0000
   2.     0.0000
   3.     0.0000
   4.     0.0000
   5.     0.0000
   6.     0.0000
   7.     0.0000
   8.     0.0000
   9.     0.0000
  10.     0.0000
  11.     0.0000
  12.     0.0000
  13.     0.0000
  14.     0.0000
  15.     0.0000
  16.     0.0000
  17.     0.0000
  18.     0.0000
  19.     0.0000
  20.     0.0000
  21.     0.0000
  22.     0.0000
  23.     0.0000
  24.     0.0000
  25.     0.0000
  26.     0.0000
  27.     0.0000
  28.     0.0000


 NATURAL POPULATIONS:  Natural atomic orbital occupancies

  NAO Atom No lang   Type(AO)    Occupancy      Energy
 -------------------------------------------------------
   1   Li  1  s      Cor( 1s)     1.99986      -2.43075
   2   Li  1  s      Ryd( 3s)     0.01373       0.20697
   3   Li  1  s      Val( 2s)     0.00024       0.14495
   4   Li  1  px     Ryd( 3p)     0.02429       0.17390
   5   Li  1  px     Ryd( 2p)     0.00018       0.14796
   6   Li  1  py     Ryd( 3p)     0.02429       0.17390
   7   Li  1  py     Ryd( 2p)     0.00018       0.14796
   8   Li  1  pz     Ryd( 3p)     0.00370       0.29674
   9   Li  1  pz     Ryd( 2p)     0.00524       0.17932
  10   Li  1  dxy    Ryd( 3d)     0.00000       0.59433
  11   Li  1  dxz    Ryd( 3d)     0.00161       0.68560
  12   Li  1  dyz    Ryd( 3d)     0.00161       0.68560
  13   Li  1  dx2y2  Ryd( 3d)     0.00000       0.59433
  14   Li  1  dz2    Ryd( 3d)     0.00076       0.77174

  15    F  2  s      Cor( 1s)     2.00000     -26.08270
  16    F  2  s      Val( 2s)     1.99507      -1.37089
  17    F  2  s      Ryd( 3s)     0.00003       2.26016
  18    F  2  px     Val( 2p)     1.97302      -0.44710
  19    F  2  px     Ryd( 3p)     0.00002       1.84708
  20    F  2  py     Val( 2p)     1.97302      -0.44710
  21    F  2  py     Ryd( 3p)     0.00002       1.84708
  22    F  2  pz     Val( 2p)     1.98000      -0.47184
  23    F  2  pz     Ryd( 3p)     0.00024       1.75728
  24    F  2  dxy    Ryd( 3d)     0.00000       2.30422
  25    F  2  dxz    Ryd( 3d)     0.00087       2.33693
  26    F  2  dyz    Ryd( 3d)     0.00087       2.33693
  27    F  2  dx2y2  Ryd( 3d)     0.00000       2.30422
  28    F  2  dz2    Ryd( 3d)     0.00113       2.25631


 Summary of Natural Population Analysis:

                                     Natural Population
             Natural    ---------------------------------------------
  Atom No    Charge        Core      Valence    Rydberg      Total
 --------------------------------------------------------------------
   Li  1    0.92429      1.99986     0.00024    0.07560     2.07571
    F  2   -0.92429      2.00000     7.92112    0.00318     9.92429
 ====================================================================
 * Total *  0.00000      3.99986     7.92136    0.07878    12.00000

                                 Natural Population
 ---------------------------------------------------------
   Core                       3.99986 ( 99.9965% of    4)
   Valence                    7.92136 ( 99.0170% of    8)
   Natural Minimal Basis     11.92122 ( 99.3435% of   12)
   Natural Rydberg Basis      0.07878 (  0.6565% of   12)
 ---------------------------------------------------------

    Atom No         Natural Electron Configuration
 ----------------------------------------------------------------------------
     Li  1      [core]2p( 0.01)3s( 0.01)3p( 0.05)
      F  2      [core]2s( 2.00)2p( 5.93)


 PNAOs in the AO basis:

           AO          1       2       3       4       5       6       7       8
      ------------ ------- ------- ------- ------- ------- ------- ------- -------
   1. Li 1 (s)      0.9990 -0.0973 -0.1774  0.0000  0.0000  0.0000  0.0000  0.0000
   2. Li 1 (s)      0.0174  1.7355 -1.5996  0.0000  0.0000  0.0000  0.0000  0.0000
   3. Li 1 (px)     0.0000  0.0000  0.0000  1.3703 -0.9621  0.0000  0.0000  0.0000
   4. Li 1 (py)     0.0000  0.0000  0.0000  0.0000  0.0000  1.3703 -0.9621  0.0000
   5. Li 1 (pz)     0.0000  0.0000  0.0000  0.0000  0.0000  0.0000  0.0000  1.3703
   6. Li 1 (s)     -0.0083 -0.8895  2.2039  0.0000  0.0000  0.0000  0.0000  0.0000
   7. Li 1 (px)     0.0000  0.0000  0.0000 -0.5245  1.5901  0.0000  0.0000  0.0000
   8. Li 1 (py)     0.0000  0.0000  0.0000  0.0000  0.0000 -0.5245  1.5901  0.0000
   9. Li 1 (pz)     0.0000  0.0000  0.0000  0.0000  0.0000  0.0000  0.0000 -0.5245
  10. Li 1 (d5)     0.0000  0.0000  0.0000  0.0000  0.0000  0.0000  0.0000  0.0000
  11. Li 1 (d2)     0.0000  0.0000  0.0000  0.0000  0.0000  0.0000  0.0000  0.0000
  12. Li 1 (d3)     0.0000  0.0000  0.0000  0.0000  0.0000  0.0000  0.0000  0.0000
  13. Li 1 (d4)     0.0000  0.0000  0.0000  0.0000  0.0000  0.0000  0.0000  0.0000
  14. Li 1 (d1)     0.0000  0.0000  0.0000  0.0000  0.0000  0.0000  0.0000  0.0000
  15.  F 2 (s)      0.0000  0.0000  0.0000  0.0000  0.0000  0.0000  0.0000  0.0000
  16.  F 2 (s)      0.0000  0.0000  0.0000  0.0000  0.0000  0.0000  0.0000  0.0000
  17.  F 2 (px)     0.0000  0.0000  0.0000  0.0000  0.0000  0.0000  0.0000  0.0000
  18.  F 2 (py)     0.0000  0.0000  0.0000  0.0000  0.0000  0.0000  0.0000  0.0000
  19.  F 2 (pz)     0.0000  0.0000  0.0000  0.0000  0.0000  0.0000  0.0000  0.0000
  20.  F 2 (s)      0.0000  0.0000  0.0000  0.0000  0.0000  0.0000  0.0000  0.0000
  21.  F 2 (px)     0.0000  0.0000  0.0000  0.0000  0.0000  0.0000  0.0000  0.0000
  22.  F 2 (py)     0.0000  0.0000  0.0000  0.0000  0.0000  0.0000  0.0000  0.0000
  23.  F 2 (pz)     0.0000  0.0000  0.0000  0.0000  0.0000  0.0000  0.0000  0.0000
  24.  F 2 (d5)     0.0000  0.0000  0.0000  0.0000  0.0000  0.0000  0.0000  0.0000
  25.  F 2 (d2)     0.0000  0.0000  0.0000  0.0000  0.0000  0.0000  0.0000  0.0000
  26.  F 2 (d3)     0.0000  0.0000  0.0000  0.0000  0.0000  0.0000  0.0000  0.0000
  27.  F 2 (d4)     0.0000  0.0000  0.0000  0.0000  0.0000  0.0000  0.0000  0.0000
  28.  F 2 (d1)     0.0000  0.0000  0.0000  0.0000  0.0000  0.0000  0.0000  0.0000

           AO          9      10      11      12      13      14      15      16
      ------------ ------- ------- ------- ------- ------- ------- ------- -------
   1. Li 1 (s)      0.0000  0.0000  0.0000  0.0000  0.0000  0.0000  0.0000  0.0000
   2. Li 1 (s)      0.0000  0.0000  0.0000  0.0000  0.0000  0.0000  0.0000  0.0000
   3. Li 1 (px)     0.0000  0.0000  0.0000  0.0000  0.0000  0.0000  0.0000  0.0000
   4. Li 1 (py)     0.0000  0.0000  0.0000  0.0000  0.0000  0.0000  0.0000  0.0000
   5. Li 1 (pz)    -0.9621  0.0000  0.0000  0.0000  0.0000  0.0000  0.0000  0.0000
   6. Li 1 (s)      0.0000  0.0000  0.0000  0.0000  0.0000  0.0000  0.0000  0.0000
   7. Li 1 (px)     0.0000  0.0000  0.0000  0.0000  0.0000  0.0000  0.0000  0.0000
   8. Li 1 (py)     0.0000  0.0000  0.0000  0.0000  0.0000  0.0000  0.0000  0.0000
   9. Li 1 (pz)     1.5901  0.0000  0.0000  0.0000  0.0000  0.0000  0.0000  0.0000
  10. Li 1 (d5)     0.0000  0.0000  0.0000  0.0000  0.0000  1.0000  0.0000  0.0000
  11. Li 1 (d2)     0.0000  0.0000  1.0000  0.0000  0.0000  0.0000  0.0000  0.0000
  12. Li 1 (d3)     0.0000  0.0000  0.0000  1.0000  0.0000  0.0000  0.0000  0.0000
  13. Li 1 (d4)     0.0000  0.0000  0.0000  0.0000  1.0000  0.0000  0.0000  0.0000
  14. Li 1 (d1)     0.0000  1.0000  0.0000  0.0000  0.0000  0.0000  0.0000  0.0000
  15.  F 2 (s)      0.0000  0.0000  0.0000  0.0000  0.0000  0.0000  1.0014 -0.2118
  16.  F 2 (s)      0.0000  0.0000  0.0000  0.0000  0.0000  0.0000  0.0076  0.4958
  17.  F 2 (px)     0.0000  0.0000  0.0000  0.0000  0.0000  0.0000  0.0000  0.0000
  18.  F 2 (py)     0.0000  0.0000  0.0000  0.0000  0.0000  0.0000  0.0000  0.0000
  19.  F 2 (pz)     0.0000  0.0000  0.0000  0.0000  0.0000  0.0000  0.0000  0.0000
  20.  F 2 (s)      0.0000  0.0000  0.0000  0.0000  0.0000  0.0000 -0.0195  0.5947
  21.  F 2 (px)     0.0000  0.0000  0.0000  0.0000  0.0000  0.0000  0.0000  0.0000
  22.  F 2 (py)     0.0000  0.0000  0.0000  0.0000  0.0000  0.0000  0.0000  0.0000
  23.  F 2 (pz)     0.0000  0.0000  0.0000  0.0000  0.0000  0.0000  0.0000  0.0000
  24.  F 2 (d5)     0.0000  0.0000  0.0000  0.0000  0.0000  0.0000  0.0000  0.0000
  25.  F 2 (d2)     0.0000  0.0000  0.0000  0.0000  0.0000  0.0000  0.0000  0.0000
  26.  F 2 (d3)     0.0000  0.0000  0.0000  0.0000  0.0000  0.0000  0.0000  0.0000
  27.  F 2 (d4)     0.0000  0.0000  0.0000  0.0000  0.0000  0.0000  0.0000  0.0000
  28.  F 2 (d1)     0.0000  0.0000  0.0000  0.0000  0.0000  0.0000  0.0000  0.0000

           AO         17      18      19      20      21      22      23      24
      ------------ ------- ------- ------- ------- ------- ------- ------- -------
   1. Li 1 (s)      0.0000  0.0000  0.0000  0.0000  0.0000  0.0000  0.0000  0.0000
   2. Li 1 (s)      0.0000  0.0000  0.0000  0.0000  0.0000  0.0000  0.0000  0.0000
   3. Li 1 (px)     0.0000  0.0000  0.0000  0.0000  0.0000  0.0000  0.0000  0.0000
   4. Li 1 (py)     0.0000  0.0000  0.0000  0.0000  0.0000  0.0000  0.0000  0.0000
   5. Li 1 (pz)     0.0000  0.0000  0.0000  0.0000  0.0000  0.0000  0.0000  0.0000
   6. Li 1 (s)      0.0000  0.0000  0.0000  0.0000  0.0000  0.0000  0.0000  0.0000
   7. Li 1 (px)     0.0000  0.0000  0.0000  0.0000  0.0000  0.0000  0.0000  0.0000
   8. Li 1 (py)     0.0000  0.0000  0.0000  0.0000  0.0000  0.0000  0.0000  0.0000
   9. Li 1 (pz)     0.0000  0.0000  0.0000  0.0000  0.0000  0.0000  0.0000  0.0000
  10. Li 1 (d5)     0.0000  0.0000  0.0000  0.0000  0.0000  0.0000  0.0000  0.0000
  11. Li 1 (d2)     0.0000  0.0000  0.0000  0.0000  0.0000  0.0000  0.0000  0.0000
  12. Li 1 (d3)     0.0000  0.0000  0.0000  0.0000  0.0000  0.0000  0.0000  0.0000
  13. Li 1 (d4)     0.0000  0.0000  0.0000  0.0000  0.0000  0.0000  0.0000  0.0000
  14. Li 1 (d1)     0.0000  0.0000  0.0000  0.0000  0.0000  0.0000  0.0000  0.0000
  15.  F 2 (s)     -0.1283  0.0000  0.0000  0.0000  0.0000  0.0000  0.0000  0.0000
  16.  F 2 (s)      1.4935  0.0000  0.0000  0.0000  0.0000  0.0000  0.0000  0.0000
  17.  F 2 (px)     0.0000  0.6068 -0.9820  0.0000  0.0000  0.0000  0.0000  0.0000
  18.  F 2 (py)     0.0000  0.0000  0.0000  0.6068 -0.9820  0.0000  0.0000  0.0000
  19.  F 2 (pz)     0.0000  0.0000  0.0000  0.0000  0.0000  0.6068 -0.9820  0.0000
  20.  F 2 (s)     -1.4301  0.0000  0.0000  0.0000  0.0000  0.0000  0.0000  0.0000
  21.  F 2 (px)     0.0000  0.5476  1.0162  0.0000  0.0000  0.0000  0.0000  0.0000
  22.  F 2 (py)     0.0000  0.0000  0.0000  0.5476  1.0162  0.0000  0.0000  0.0000
  23.  F 2 (pz)     0.0000  0.0000  0.0000  0.0000  0.0000  0.5476  1.0162  0.0000
  24.  F 2 (d5)     0.0000  0.0000  0.0000  0.0000  0.0000  0.0000  0.0000  0.0000
  25.  F 2 (d2)     0.0000  0.0000  0.0000  0.0000  0.0000  0.0000  0.0000  0.0000
  26.  F 2 (d3)     0.0000  0.0000  0.0000  0.0000  0.0000  0.0000  0.0000  0.0000
  27.  F 2 (d4)     0.0000  0.0000  0.0000  0.0000  0.0000  0.0000  0.0000  0.0000
  28.  F 2 (d1)     0.0000  0.0000  0.0000  0.0000  0.0000  0.0000  0.0000  1.0000

           AO         25      26      27      28
      ------------ ------- ------- ------- -------
   1. Li 1 (s)      0.0000  0.0000  0.0000  0.0000
   2. Li 1 (s)      0.0000  0.0000  0.0000  0.0000
   3. Li 1 (px)     0.0000  0.0000  0.0000  0.0000
   4. Li 1 (py)     0.0000  0.0000  0.0000  0.0000
   5. Li 1 (pz)     0.0000  0.0000  0.0000  0.0000
   6. Li 1 (s)      0.0000  0.0000  0.0000  0.0000
   7. Li 1 (px)     0.0000  0.0000  0.0000  0.0000
   8. Li 1 (py)     0.0000  0.0000  0.0000  0.0000
   9. Li 1 (pz)     0.0000  0.0000  0.0000  0.0000
  10. Li 1 (d5)     0.0000  0.0000  0.0000  0.0000
  11. Li 1 (d2)     0.0000  0.0000  0.0000  0.0000
  12. Li 1 (d3)     0.0000  0.0000  0.0000  0.0000
  13. Li 1 (d4)     0.0000  0.0000  0.0000  0.0000
  14. Li 1 (d1)     0.0000  0.0000  0.0000  0.0000
  15.  F 2 (s)      0.0000  0.0000  0.0000  0.0000
  16.  F 2 (s)      0.0000  0.0000  0.0000  0.0000
  17.  F 2 (px)     0.0000  0.0000  0.0000  0.0000
  18.  F 2 (py)     0.0000  0.0000  0.0000  0.0000
  19.  F 2 (pz)     0.0000  0.0000  0.0000  0.0000
  20.  F 2 (s)      0.0000  0.0000  0.0000  0.0000
  21.  F 2 (px)     0.0000  0.0000  0.0000  0.0000
  22.  F 2 (py)     0.0000  0.0000  0.0000  0.0000
  23.  F 2 (pz)     0.0000  0.0000  0.0000  0.0000
  24.  F 2 (d5)     0.0000  0.0000  0.0000  1.0000
  25.  F 2 (d2)     1.0000  0.0000  0.0000  0.0000
  26.  F 2 (d3)     0.0000  1.0000  0.0000  0.0000
  27.  F 2 (d4)     0.0000  0.0000  1.0000  0.0000
  28.  F 2 (d1)     0.0000  0.0000  0.0000  0.0000


 PNAO overlap matrix:

           NAO         1       2       3       4       5       6       7       8
      ------------ ------- ------- ------- ------- ------- ------- ------- -------
   1. Li 1( 1s )    1.0000  0.0000  0.0000  0.0000  0.0000  0.0000  0.0000  0.0000
   2. Li 1( 3s )    0.0000  1.0000  0.0000  0.0000  0.0000  0.0000  0.0000  0.0000
   3. Li 1( 2s )    0.0000  0.0000  1.0000  0.0000  0.0000  0.0000  0.0000  0.0000
   4. Li 1( 3px)    0.0000  0.0000  0.0000  1.0000  0.0000  0.0000  0.0000  0.0000
   5. Li 1( 2px)    0.0000  0.0000  0.0000  0.0000  1.0000  0.0000  0.0000  0.0000
   6. Li 1( 3py)    0.0000  0.0000  0.0000  0.0000  0.0000  1.0000  0.0000  0.0000
   7. Li 1( 2py)    0.0000  0.0000  0.0000  0.0000  0.0000  0.0000  1.0000  0.0000
   8. Li 1( 3pz)    0.0000  0.0000  0.0000  0.0000  0.0000  0.0000  0.0000  1.0000
   9. Li 1( 2pz)    0.0000  0.0000  0.0000  0.0000  0.0000  0.0000  0.0000  0.0000
  10. Li 1( 3d1)    0.0000  0.0000  0.0000  0.0000  0.0000  0.0000  0.0000  0.0000
  11. Li 1( 3d2)    0.0000  0.0000  0.0000  0.0000  0.0000  0.0000  0.0000  0.0000
  12. Li 1( 3d3)    0.0000  0.0000  0.0000  0.0000  0.0000  0.0000  0.0000  0.0000
  13. Li 1( 3d4)    0.0000  0.0000  0.0000  0.0000  0.0000  0.0000  0.0000  0.0000
  14. Li 1( 3d5)    0.0000  0.0000  0.0000  0.0000  0.0000  0.0000  0.0000  0.0000
  15.  F 2( 1s )   -0.0005  0.0271  0.0002  0.0000  0.0000  0.0000  0.0000  0.0409
  16.  F 2( 2s )    0.0480  0.3102  0.0614  0.0000  0.0000  0.0000  0.0000  0.4511
  17.  F 2( 3s )   -0.0885 -0.2639 -0.0986  0.0000  0.0000  0.0000  0.0000 -0.3655
  18.  F 2( 2px)    0.0000  0.0000  0.0000  0.2053  0.0072  0.0000  0.0000  0.0000
  19.  F 2( 3px)    0.0000  0.0000  0.0000  0.2507  0.0183  0.0000  0.0000  0.0000
  20.  F 2( 2py)    0.0000  0.0000  0.0000  0.0000  0.0000  0.2053  0.0072  0.0000
  21.  F 2( 3py)    0.0000  0.0000  0.0000  0.0000  0.0000  0.2507  0.0183  0.0000
  22.  F 2( 2pz)   -0.1057 -0.1738  0.0916  0.0000  0.0000  0.0000  0.0000 -0.1214
  23.  F 2( 3pz)   -0.1667 -0.1902  0.0957  0.0000  0.0000  0.0000  0.0000 -0.1197
  24.  F 2( 3d1)    0.0000  0.0000  0.0000  0.0000  0.0000  0.0000  0.0000  0.0000
  25.  F 2( 3d2)    0.0000  0.0000  0.0000 -0.0923  0.0432  0.0000  0.0000  0.0000
  26.  F 2( 3d3)    0.0000  0.0000  0.0000  0.0000  0.0000 -0.0923  0.0432  0.0000
  27.  F 2( 3d4)    0.0000  0.0000  0.0000  0.0000  0.0000  0.0000  0.0000  0.0000
  28.  F 2( 3d5)    0.0753 -0.0050 -0.0076  0.0000  0.0000  0.0000  0.0000  0.0223

           NAO         9      10      11      12      13      14      15      16
      ------------ ------- ------- ------- ------- ------- ------- ------- -------
   1. Li 1( 1s )    0.0000  0.0000  0.0000  0.0000  0.0000  0.0000 -0.0005  0.0480
   2. Li 1( 3s )    0.0000  0.0000  0.0000  0.0000  0.0000  0.0000  0.0271  0.3102
   3. Li 1( 2s )    0.0000  0.0000  0.0000  0.0000  0.0000  0.0000  0.0002  0.0614
   4. Li 1( 3px)    0.0000  0.0000  0.0000  0.0000  0.0000  0.0000  0.0000  0.0000
   5. Li 1( 2px)    0.0000  0.0000  0.0000  0.0000  0.0000  0.0000  0.0000  0.0000
   6. Li 1( 3py)    0.0000  0.0000  0.0000  0.0000  0.0000  0.0000  0.0000  0.0000
   7. Li 1( 2py)    0.0000  0.0000  0.0000  0.0000  0.0000  0.0000  0.0000  0.0000
   8. Li 1( 3pz)    0.0000  0.0000  0.0000  0.0000  0.0000  0.0000  0.0409  0.4511
   9. Li 1( 2pz)    1.0000  0.0000  0.0000  0.0000  0.0000  0.0000 -0.0032  0.0124
  10. Li 1( 3d1)    0.0000  1.0000  0.0000  0.0000  0.0000  0.0000  0.0000  0.0000
  11. Li 1( 3d2)    0.0000  0.0000  1.0000  0.0000  0.0000  0.0000  0.0000  0.0000
  12. Li 1( 3d3)    0.0000  0.0000  0.0000  1.0000  0.0000  0.0000  0.0000  0.0000
  13. Li 1( 3d4)    0.0000  0.0000  0.0000  0.0000  1.0000  0.0000  0.0000  0.0000
  14. Li 1( 3d5)    0.0000  0.0000  0.0000  0.0000  0.0000  1.0000  0.0722  0.4754
  15.  F 2( 1s )   -0.0032  0.0000  0.0000  0.0000  0.0000  0.0722  1.0000  0.0000
  16.  F 2( 2s )    0.0124  0.0000  0.0000  0.0000  0.0000  0.4754  0.0000  1.0000
  17.  F 2( 3s )   -0.0540  0.0000  0.0000  0.0000  0.0000 -0.1652  0.0000  0.0000
  18.  F 2( 2px)    0.0000  0.0000  0.3632  0.0000  0.0000  0.0000  0.0000  0.0000
  19.  F 2( 3px)    0.0000  0.0000  0.3576  0.0000  0.0000  0.0000  0.0000  0.0000
  20.  F 2( 2py)    0.0000  0.0000  0.0000  0.3632  0.0000  0.0000  0.0000  0.0000
  21.  F 2( 3py)    0.0000  0.0000  0.0000  0.3576  0.0000  0.0000  0.0000  0.0000
  22.  F 2( 2pz)    0.1489  0.0000  0.0000  0.0000  0.0000 -0.0963  0.0000  0.0000
  23.  F 2( 3pz)    0.1688  0.0000  0.0000  0.0000  0.0000  0.0196  0.0000  0.0000
  24.  F 2( 3d1)    0.0000  0.1127  0.0000  0.0000  0.0000  0.0000  0.0000  0.0000
  25.  F 2( 3d2)    0.0000  0.0000 -0.2033  0.0000  0.0000  0.0000  0.0000  0.0000
  26.  F 2( 3d3)    0.0000  0.0000  0.0000 -0.2033  0.0000  0.0000  0.0000  0.0000
  27.  F 2( 3d4)    0.0000  0.0000  0.0000  0.0000  0.1127  0.0000  0.0000  0.0000
  28.  F 2( 3d5)   -0.0331  0.0000  0.0000  0.0000  0.0000 -0.0132  0.0000  0.0000

           NAO        17      18      19      20      21      22      23      24
      ------------ ------- ------- ------- ------- ------- ------- ------- -------
   1. Li 1( 1s )   -0.0885  0.0000  0.0000  0.0000  0.0000 -0.1057 -0.1667  0.0000
   2. Li 1( 3s )   -0.2639  0.0000  0.0000  0.0000  0.0000 -0.1738 -0.1902  0.0000
   3. Li 1( 2s )   -0.0986  0.0000  0.0000  0.0000  0.0000  0.0916  0.0957  0.0000
   4. Li 1( 3px)    0.0000  0.2053  0.2507  0.0000  0.0000  0.0000  0.0000  0.0000
   5. Li 1( 2px)    0.0000  0.0072  0.0183  0.0000  0.0000  0.0000  0.0000  0.0000
   6. Li 1( 3py)    0.0000  0.0000  0.0000  0.2053  0.2507  0.0000  0.0000  0.0000
   7. Li 1( 2py)    0.0000  0.0000  0.0000  0.0072  0.0183  0.0000  0.0000  0.0000
   8. Li 1( 3pz)   -0.3655  0.0000  0.0000  0.0000  0.0000 -0.1214 -0.1197  0.0000
   9. Li 1( 2pz)   -0.0540  0.0000  0.0000  0.0000  0.0000  0.1489  0.1688  0.0000
  10. Li 1( 3d1)    0.0000  0.0000  0.0000  0.0000  0.0000  0.0000  0.0000  0.1127
  11. Li 1( 3d2)    0.0000  0.3632  0.3576  0.0000  0.0000  0.0000  0.0000  0.0000
  12. Li 1( 3d3)    0.0000  0.0000  0.0000  0.3632  0.3576  0.0000  0.0000  0.0000
  13. Li 1( 3d4)    0.0000  0.0000  0.0000  0.0000  0.0000  0.0000  0.0000  0.0000
[...]
  16.  F 2( 2s )    0.0000  0.0000  0.0000  0.0000  0.0000  0.0074 -0.0168  0.0000
  17.  F 2( 3s )    0.0000  0.0000  0.0000  0.0000  0.0000  0.0076  0.0001  0.0000
  18.  F 2( 2px)    0.0000  1.9730 -0.0065  0.0000  0.0000  0.0000  0.0000  0.0000
  19.  F 2( 3px)    0.0000 -0.0065  0.0000  0.0000  0.0000  0.0000  0.0000  0.0000
  20.  F 2( 2py)    0.0000  0.0000  0.0000  1.9730 -0.0065  0.0000  0.0000  0.0000
  21.  F 2( 3py)    0.0000  0.0000  0.0000 -0.0065  0.0000  0.0000  0.0000  0.0000
  22.  F 2( 2pz)    0.0076  0.0000  0.0000  0.0000  0.0000  1.9800  0.0131  0.0000
  23.  F 2( 3pz)    0.0001  0.0000  0.0000  0.0000  0.0000  0.0131  0.0002  0.0000
  24.  F 2( 3d1)    0.0000  0.0000  0.0000  0.0000  0.0000  0.0000  0.0000  0.0000
  25.  F 2( 3d2)    0.0000 -0.0414  0.0001  0.0000  0.0000  0.0000  0.0000  0.0000
  26.  F 2( 3d3)    0.0000  0.0000  0.0000 -0.0414  0.0001  0.0000  0.0000  0.0000
  27.  F 2( 3d4)    0.0000  0.0000  0.0000  0.0000  0.0000  0.0000  0.0000  0.0000
  28.  F 2( 3d5)   -0.0002  0.0000  0.0000  0.0000  0.0000 -0.0449 -0.0004  0.0000

           NAO        25      26      27      28
      ------------ ------- ------- ------- -------
   1. Li 1( 1s )    0.0000  0.0000  0.0000 -0.0001
   2. Li 1( 3s )    0.0000  0.0000  0.0000  0.0038
   3. Li 1( 2s )    0.0000  0.0000  0.0000 -0.0001
   4. Li 1( 3px)   -0.0046  0.0000  0.0000  0.0000
   5. Li 1( 2px)   -0.0004  0.0000  0.0000  0.0000
   6. Li 1( 3py)    0.0000 -0.0046  0.0000  0.0000
   7. Li 1( 2py)    0.0000 -0.0004  0.0000  0.0000
   8. Li 1( 3pz)    0.0000  0.0000  0.0000  0.0020
   9. Li 1( 2pz)    0.0000  0.0000  0.0000 -0.0023
  10. Li 1( 3d1)    0.0000  0.0000  0.0000  0.0000
  11. Li 1( 3d2)   -0.0012  0.0000  0.0000  0.0000
  12. Li 1( 3d3)    0.0000 -0.0012  0.0000  0.0000
  13. Li 1( 3d4)    0.0000  0.0000  0.0000  0.0000
  14. Li 1( 3d5)    0.0000  0.0000  0.0000 -0.0009
  15.  F 2( 1s )    0.0000  0.0000  0.0000 -0.0004
  16.  F 2( 2s )    0.0000  0.0000  0.0000  0.0146
  17.  F 2( 3s )    0.0000  0.0000  0.0000 -0.0002
  18.  F 2( 2px)   -0.0414  0.0000  0.0000  0.0000
  19.  F 2( 3px)    0.0001  0.0000  0.0000  0.0000
  20.  F 2( 2py)    0.0000 -0.0414  0.0000  0.0000
  21.  F 2( 3py)    0.0000  0.0001  0.0000  0.0000
  22.  F 2( 2pz)    0.0000  0.0000  0.0000 -0.0449
  23.  F 2( 3pz)    0.0000  0.0000  0.0000 -0.0004
  24.  F 2( 3d1)    0.0000  0.0000  0.0000  0.0000
  25.  F 2( 3d2)    0.0009  0.0000  0.0000  0.0000
  26.  F 2( 3d3)    0.0000  0.0009  0.0000  0.0000
  27.  F 2( 3d4)    0.0000  0.0000  0.0000  0.0000
  28.  F 2( 3d5)    0.0000  0.0000  0.0000  0.0011


 NATURAL BOND ORBITAL ANALYSIS:

 Initiate 2-center NBO search using THRESH = 1.900 and PRJTHR = 0.300

 Search of NAO DM block for core orbitals on atom:   1
      Eigenvector ( 1) has occupancy 1.99986
            1.0000 0.0000 0.0000 0.0000 0.0000 0.0000 0.0000 0.0000
            0.0000 0.0000 0.0000 0.0000 0.0000 0.0000
        1 eigenvector(s) stashed in permanent list

 Search of NAO DM block for core orbitals on atom:   2
      Eigenvector ( 1) has occupancy 2.00000
            1.0000 0.0000 0.0000 0.0000 0.0000 0.0000 0.0000 0.0000
            0.0000 0.0000 0.0000 0.0000 0.0000 0.0000
        1 eigenvector(s) stashed in permanent list

 Core orbitals projected from the NAO density matrix
       8.000 electrons remain (>1.900); search continues

 Search of NAO DM block for the following atom(s):   2
      Select eigenvectors with eigenvalue > 1.900
       1.998 1.978 1.974 1.974 0.000 0.000 0.000 0.000 0.000 0.000 0.000 0.000
       0.000 0.000
      Eigenvector ( 1) has occupancy 1.99818
            0.0000 0.9253 0.0014 0.0000 0.0000 0.0000 0.0000 0.3792
           -0.0053 0.0000 0.0000 0.0000 0.0000-0.0018
      Eigenvector ( 2) has occupancy 1.97827
            0.0000-0.3791 0.0035 0.0000 0.0000 0.0000 0.0000 0.9250
            0.0094 0.0000 0.0000 0.0000 0.0000-0.0238
      Eigenvector ( 3) has occupancy 1.97391
            0.0000 0.0000 0.0000 0.7450-0.0025 0.6667-0.0022 0.0000
            0.0000 0.0000-0.0156-0.0140 0.0000 0.0000
      Eigenvector ( 4) has occupancy 1.97391
            0.0000 0.0000 0.0000-0.6667 0.0022 0.7450-0.0025 0.0000
            0.0000 0.0000 0.0140-0.0156 0.0000 0.0000
      4 hybrids on atom 2 stashed in prospective list

 Stash prospective hybrids having projection expectation value > 0.300
       1.000 1.000 1.000 1.000
      0 hybrids eliminated in 1 pass
      4 hybrids moved from prospective to permanent list

 NHOs of 1-center eigenvectors projected from the NAO density matrix
       0.076 electrons remain in the fully projected matrix

 Search of NHO DM block for the following atom(s):   1
      Select eigenvectors with eigenvalue > 1.900
       2.000 0.026 0.026 0.022 0.002 0.000 0.000 0.000 0.000 0.000 0.000 0.000
       0.000 0.000
      Eigenvector ( 1) has occupancy 1.99986
            1.0000 0.0000 0.0000 0.0000 0.0000 0.0000 0.0000 0.0000
            0.0000 0.0000 0.0000 0.0000 0.0000 0.0000
           NBO accepted:    1. Label:CR ( 1)   1
        1 eigenvector(s) stashed in permanent list

 Search of NHO DM block for the following atom(s):   2
      Select eigenvectors with eigenvalue > 1.900
       2.000 1.998 1.978 1.974 1.974 0.000 0.000 0.000 0.000 0.000 0.000 0.000
       0.000 0.000
      Eigenvector ( 1) has occupancy 2.00000
            1.0000 0.0000 0.0000 0.0000 0.0000 0.0000 0.0000 0.0000
            0.0000 0.0000 0.0000 0.0000 0.0000 0.0000
           NBO accepted:    2. Label:CR ( 1)   2
      Eigenvector ( 2) has occupancy 1.99818
            0.0000 1.0000 0.0000 0.0000 0.0000 0.0000 0.0000 0.0000
            0.0000 0.0000 0.0000 0.0000 0.0000 0.0000
           NBO accepted:    3. Label:LP ( 1)   2
      Eigenvector ( 3) has occupancy 1.97827
            0.0000 0.0000 1.0000 0.0000 0.0000 0.0000 0.0000 0.0000
            0.0000 0.0000 0.0000 0.0000 0.0000 0.0000
           NBO accepted:    4. Label:LP ( 2)   2
      Eigenvector ( 4) has occupancy 1.97391
            0.0000 0.0000 0.0000 1.0000 0.0000 0.0000 0.0000 0.0000
            0.0000 0.0000 0.0000 0.0000 0.0000 0.0000
           NBO accepted:    5. Label:LP ( 3)   2
      Eigenvector ( 5) has occupancy 1.97391
            0.0000 0.0000 0.0000 0.0000 1.0000 0.0000 0.0000 0.0000
            0.0000 0.0000 0.0000 0.0000 0.0000 0.0000
           NBO accepted:    6. Label:LP ( 4)   2
        5 eigenvector(s) stashed in permanent list

  1-center NBOs projected from the NHO density matrix
       0.076 electrons remain in the fully projected matrix

                            Occupancies       Lewis Structure    Low   High
         Max    Occ     -------------------  -----------------   occ   occ
  Cycle  Ctr   Thresh    Lewis   non-Lewis     CR  BD  nC  LP    (L)   (NL)
 ============================================================================
    1     2     1.90    11.92414   0.07586      2   0   0   4     0      0
 ----------------------------------------------------------------------------

 Structure accepted: No low occupancy Lewis orbitals

 -------------------------------------------------------
   Core                      3.99986 ( 99.996% of   4)
   Valence Lewis             7.92428 ( 99.054% of   8)
  ==================      =============================
   Total Lewis              11.92414 ( 99.368% of  12)
  -----------------------------------------------------
   Valence non-Lewis         0.00000 (  0.000% of  12)
   Rydberg non-Lewis         0.07586 (  0.632% of  12)
  ==================      =============================
   Total non-Lewis           0.07586 (  0.632% of  12)
 -------------------------------------------------------


     (Occupancy)   Bond orbital / Coefficients / Hybrids
 ------------------ Lewis ------------------------------------------------------
   1. (1.99986) CR ( 1)Li  1            s(100.00%)
                                         1.0000  0.0000  0.0000  0.0000  0.0000
                                         0.0000  0.0000  0.0000  0.0000  0.0000
                                         0.0000  0.0000  0.0000  0.0000
   2. (2.00000) CR ( 1) F  2            s(100.00%)
                                         1.0000  0.0000  0.0000  0.0000  0.0000
                                         0.0000  0.0000  0.0000  0.0000  0.0000
                                         0.0000  0.0000  0.0000  0.0000
   3. (1.99818) LP ( 1) F  2            s( 85.62%)p 0.17( 14.38%)d 0.00(  0.00%)
                                         0.0000  0.9253  0.0014  0.0000  0.0000
                                         0.0000  0.0000  0.3792 -0.0053  0.0000
                                         0.0000  0.0000  0.0000 -0.0018
   4. (1.97827) LP ( 2) F  2            s( 14.37%)p 5.95( 85.57%)d 0.00(  0.06%)
                                         0.0000  0.3791 -0.0035  0.0000  0.0000
                                         0.0000  0.0000 -0.9250 -0.0094  0.0000
                                         0.0000  0.0000  0.0000  0.0238
   5. (1.97391) LP ( 3) F  2            s(  0.00%)p 1.00( 99.96%)d 0.00(  0.04%)
                                         0.0000  0.0000  0.0000  0.7450 -0.0025
                                         0.6667 -0.0022  0.0000  0.0000  0.0000
                                        -0.0156 -0.0140  0.0000  0.0000
   6. (1.97391) LP ( 4) F  2            s(  0.00%)p 1.00( 99.96%)d 0.00(  0.04%)
                                         0.0000  0.0000  0.0000 -0.6667  0.0022
                                         0.7450 -0.0025  0.0000  0.0000  0.0000
                                         0.0140 -0.0156  0.0000  0.0000
 ---------------- non-Lewis ----------------------------------------------------
   7. (0.00000) LV ( 1)Li  1            s( 67.10%)p 0.49( 32.86%)d 0.00(  0.04%)
   8. (0.02609) RY ( 1)Li  1            s(  0.00%)p 1.00( 93.82%)d 0.07(  6.18%)
                                         0.0000  0.0000  0.0000  0.8066  0.0701
                                        -0.5296 -0.0460  0.0000  0.0000  0.0000
                                         0.2079 -0.1365  0.0000  0.0000
   9. (0.02609) RY ( 2)Li  1            s(  0.00%)p 1.00( 93.82%)d 0.07(  6.18%)
                                         0.0000  0.0000  0.0000  0.5296  0.0460
                                         0.8066  0.0701  0.0000  0.0000  0.0000
                                         0.1365  0.2079  0.0000  0.0000
  10. (0.02177) RY ( 3)Li  1            s( 60.44%)p 0.60( 36.37%)d 0.05(  3.19%)
                                         0.0000  0.7771 -0.0212  0.0000  0.0000
                                         0.0000  0.0000  0.4056 -0.4463  0.0000
                                         0.0000  0.0000  0.0000 -0.1786
  11. (0.00185) RY ( 4)Li  1            s( 43.82%)p 1.22( 53.61%)d 0.06(  2.57%)
                                         0.0000  0.5626  0.3488  0.0000  0.0000
                                         0.0000  0.0000 -0.2210  0.6980  0.0000
                                         0.0000  0.0000  0.0000  0.1602
  12. (0.00006) RY ( 5)Li  1            s( 16.05%)p 3.35( 53.85%)d 1.87( 30.10%)
  13. (0.00000) RY ( 6)Li  1            s(  0.00%)p 1.00( 87.09%)d 0.15( 12.91%)
  14. (0.00000) RY ( 7)Li  1            s( 12.58%)p 1.85( 23.30%)d 5.10( 64.12%)
  15. (0.00000) RY ( 8)Li  1            s(  0.00%)p 1.00( 93.53%)d 0.07(  6.47%)
  16. (0.00000) RY ( 9)Li  1            s(  0.00%)p 1.00( 19.26%)d 4.19( 80.74%)
  17. (0.00000) RY (10)Li  1            s(  0.00%)p 0.00(  0.00%)d 1.00(100.00%)
  18. (0.00000) RY (11)Li  1            s(  0.00%)p 0.00(  0.00%)d 1.00(100.00%)
  19. (0.00000) RY (12)Li  1            s(  0.01%)p 1.00( 12.49%)d 7.01( 87.50%)
  20. (0.00001) RY ( 1) F  2            s(  1.04%)p95.23( 98.70%)d 0.25(  0.26%)
  21. (0.00000) RY ( 2) F  2            s(  0.00%)p 1.00(  1.39%)d70.90( 98.61%)
  22. (0.00000) RY ( 3) F  2            s(  0.00%)p 0.00(  0.00%)d 1.00(100.00%)
  23. (0.00000) RY ( 4) F  2            s(  0.00%)p 0.00(  0.00%)d 1.00(100.00%)
  24. (0.00000) RY ( 5) F  2            s(  0.00%)p 1.00(  0.24%)d99.99( 99.76%)
  25. (0.00000) RY ( 6) F  2            s(  0.00%)p 1.00( 98.64%)d 0.01(  1.36%)
  26. (0.00000) RY ( 7) F  2            s( 14.66%)p 0.00(  0.05%)d 5.82( 85.29%)
  27. (0.00000) RY ( 8) F  2            s( 84.31%)p 0.02(  1.30%)d 0.17( 14.39%)
  28. (0.00000) RY ( 9) F  2            s(  0.00%)p 1.00( 99.82%)d 0.00(  0.18%)


 NHO DIRECTIONALITY AND BOND BENDING (deviation from line of nuclear centers at
                                      the position of maximum hybrid amplitude)

         [Thresholds for printing:  angular deviation  >  1.0 degree]
                                    p- or d-character  > 25.0%
                                    orbital occupancy  >  0.10e

                        Line of Centers        Hybrid 1             Hybrid 2
                        ---------------  -------------------  ------------------
           NBO            Theta   Phi    Theta   Phi    Dev   Theta   Phi    Dev
 ===============================================================================
   5. LP ( 3) F  2          --     --     90.2   41.8   --      --     --    --
   6. LP ( 4) F  2          --     --     90.2  311.8   --      --     --    --


 SECOND ORDER PERTURBATION THEORY ANALYSIS OF FOCK MATRIX IN NBO BASIS

     Threshold for printing:   0.50 kcal/mol
    (Intermolecular threshold: 0.05 kcal/mol)
                                                          E(2) E(NL)-E(L) F(L,NL)
      Donor (L) NBO              Acceptor (NL) NBO      kcal/mol   a.u.    a.u.
 ===============================================================================

 within unit  1
       None above threshold

 from unit  1 to unit  2
       None above threshold

 from unit  2 to unit  1
    2. CR ( 1) F  2            10. RY ( 3)Li  1            0.05   26.44   0.033
    3. LP ( 1) F  2            10. RY ( 3)Li  1            0.89    1.57   0.033
    3. LP ( 1) F  2            11. RY ( 4)Li  1            1.58    1.37   0.041
    4. LP ( 2) F  2             7. LV ( 1)Li  1            0.25    0.74   0.012
    4. LP ( 2) F  2            10. RY ( 3)Li  1           13.80    0.98   0.104
    4. LP ( 2) F  2            12. RY ( 5)Li  1            0.05    1.13   0.007
    5. LP ( 3) F  2             8. RY ( 1)Li  1            0.76    0.67   0.020
    5. LP ( 3) F  2             9. RY ( 2)Li  1           10.68    0.67   0.076
    5. LP ( 3) F  2            13. RY ( 6)Li  1            0.32    0.68   0.013
    5. LP ( 3) F  2            15. RY ( 8)Li  1            0.24    0.65   0.011
    5. LP ( 3) F  2            16. RY ( 9)Li  1            0.16    1.00   0.011
    5. LP ( 3) F  2            19. RY (12)Li  1            0.17    1.03   0.012
    6. LP ( 4) F  2             8. RY ( 1)Li  1           10.68    0.67   0.076
    6. LP ( 4) F  2             9. RY ( 2)Li  1            0.76    0.67   0.020
    6. LP ( 4) F  2            13. RY ( 6)Li  1            0.26    0.68   0.012
    6. LP ( 4) F  2            15. RY ( 8)Li  1            0.25    0.65   0.011
    6. LP ( 4) F  2            16. RY ( 9)Li  1            0.15    1.00   0.011
    6. LP ( 4) F  2            19. RY (12)Li  1            0.22    1.03   0.013

 within unit  2
       None above threshold


 NATURAL BOND ORBITALS (Summary):

                                                     Principal Delocalizations
           NBO                 Occupancy    Energy   (geminal,vicinal,remote)
 ===============================================================================
 Molecular unit  1  (Li)
 ------ Lewis --------------------------------------
    1. CR ( 1)Li  1             1.99986    -2.43075
 ------ non-Lewis ----------------------------------
    7. LV ( 1)Li  1             0.00000     0.11794
    8. RY ( 1)Li  1             0.02609     0.22355
    9. RY ( 2)Li  1             0.02609     0.22355
   10. RY ( 3)Li  1             0.02177     0.35411
   11. RY ( 4)Li  1             0.00185     0.14891
   12. RY ( 5)Li  1             0.00006     0.50099
   13. RY ( 6)Li  1             0.00000     0.23021
   14. RY ( 7)Li  1             0.00000     0.47783
   15. RY ( 8)Li  1             0.00000     0.19763
   16. RY ( 9)Li  1             0.00000     0.55293
   17. RY (10)Li  1             0.00000     0.59433
   18. RY (11)Li  1             0.00000     0.59433
   19. RY (12)Li  1             0.00000     0.58699
          -------------------------------
                 Total Lewis    1.99986  ( 96.3460%)
           Valence non-Lewis    0.00000  (  0.0000%)
           Rydberg non-Lewis    0.07585  (  3.6540%)
          -------------------------------
               Total unit  1    2.07571  (100.0000%)
              Charge unit  1    0.92429

 Molecular unit  2  (F)
 ------ Lewis --------------------------------------
    2. CR ( 1) F  2             2.00000   -26.08270  10(r)
    3. LP ( 1) F  2             1.99818    -1.21814  11(r),10(r)
    4. LP ( 2) F  2             1.97827    -0.62691  10(r),7(r),12(r)
    5. LP ( 3) F  2             1.97391    -0.44792  9(r),8(r),13(r),15(r),19(r)
                                                     16(r)
    6. LP ( 4) F  2             1.97391    -0.44792  8(r),9(r),13(r),15(r),19(r)
                                                     16(r)
 ------ non-Lewis ----------------------------------
   20. RY ( 1) F  2             0.00001     1.80519
   21. RY ( 2) F  2             0.00000     2.36753
   22. RY ( 3) F  2             0.00000     2.30422
   23. RY ( 4) F  2             0.00000     2.30422
   24. RY ( 5) F  2             0.00000     2.32344
   25. RY ( 6) F  2             0.00000     1.81728
   26. RY ( 7) F  2             0.00000     2.27744
   27. RY ( 8) F  2             0.00000     2.19342
   28. RY ( 9) F  2             0.00000     1.86145
          -------------------------------
                 Total Lewis    9.92428  ( 99.9999%)
           Valence non-Lewis    0.00000  (  0.0000%)
           Rydberg non-Lewis    0.00001  (  0.0001%)
          -------------------------------
               Total unit  2    9.92429  (100.0000%)
              Charge unit  2   -0.92429

 $CHOOSE
   LONE 2 4 END
 $END

 NBO analysis completed in 0.24 CPU seconds (0 wall seconds)
 Maximum scratch memory used by NBO was 318539 words (2.43 MB)
 Maximum scratch memory used by G16NBO was 9422 words (0.07 MB)

 Opening RunExU unformatted file "/cluster/work/users/beto93/mol22/Gau-2074196.EUF"
 Read unf file /cluster/work/users/beto93/mol22/Gau-2074196.EUF:
 Label Gaussian matrix elements                                         IVers= 2 NLab= 2 Version=ES64L-G16RevC.01
 Title mol22-NBO                                                       
 NAtoms=     2 NBasis=    28 NBsUse=    28 ICharg=     0 Multip=     1 NE=    12 Len12L=8 Len4L=8 IOpCl= 0 ICGU=111
 GAUSSIAN SCALARS                    NI= 1 NR= 1 NTot=       1 LenBuf=    2 NRI=1 N=    1000
 NPA CHARGES                         NI= 0 NR= 1 NTot=       2 LenBuf= 4000 NRI=1 N=       2
 Recovered energy= -106.933175990     dipole=      0.000000000000     -0.000000000000     -2.445631248899
 Unable to Open any file for archive entry.
 1\1\GINC-C3-9\SP\RHF\6-31G(d)\F1Li1\BETO93\18-Nov-2024\0\\#RHF/6-31G* 
 int=nobasistransform Symmetry=None 5D 7F Pop=NBO7Read\\mol22-NBO\\0,1\
 Li,0,0.,0.,-1.174965\F,0,0.,0.,0.391655\\Version=ES64L-G16RevC.01\HF=-
 106.933176\RMSD=1.788e-09\Dipole=0.,0.,-2.4456312\Quadrupole=-1.591416
 9,-1.5914169,3.1828339,0.,0.,0.\PG=Unknown\\@
 The archive entry for this job was punched.


 ART, GLORY, FREEDOM FAIL, BUT NATURE STILL IS FAIR.

                                           -- BYRON
 Job cpu time:       0 days  0 hours  0 minutes  7.0 seconds.
 Elapsed time:       0 days  0 hours  0 minutes  2.3 seconds.
 File lengths (MBytes):  RWF=     10 Int=      0 D2E=      0 Chk=      1 Scr=      1
 Normal termination of Gaussian 16 at Mon Nov 18 16:40:06 2024.
