 Entering Gaussian System, Link 0=g16
 Initial command:
 /cluster/software/Gaussian/g16_C.01/l1.exe "/cluster/work/users/beto93/mol55/Gau-883614.inp" -scrdir="/cluster/work/users/beto93/mol55/"
 Entering Link 1 = /cluster/software/Gaussian/g16_C.01/l1.exe PID=    883616.
  
 Copyright (c) 1988-2019, Gaussian, Inc.  All Rights Reserved.
  
 This is part of the Gaussian(R) 16 program.  It is based on
 the Gaussian(R) 09 system (copyright 2009, Gaussian, Inc.),
 the Gaussian(R) 03 system (copyright 2003, Gaussian, Inc.),
 the Gaussian(R) 98 system (copyright 1998, Gaussian, Inc.),
 the Gaussian(R) 94 system (copyright 1995, Gaussian, Inc.),
 the Gaussian 92(TM) system (copyright 1992, Gaussian, Inc.),
 the Gaussian 90(TM) system (copyright 1990, Gaussian, Inc.),
 the Gaussian 88(TM) system (copyright 1988, Gaussian, Inc.),
 the Gaussian 86(TM) system (copyright 1986, Carnegie Mellon
 University), and the Gaussian 82(TM) system (copyright 1983,
 Carnegie Mellon University). Gaussian is a federally registered
 trademark of Gaussian, Inc.
  
 This software contains proprietary and confidential information,
 including trade secrets, belonging to Gaussian, Inc.
  
 This software is provided under written license and may be
 used, copied, transmitted, or stored only in accord with that
 written license.
  
 The following legend is applicable only to US Government
 contracts under FAR:
  
                    RESTRICTED RIGHTS LEGEND
  
 Use, reproduction and disclosure by the US Government is
 subject to restrictions as set forth in subparagraphs (a)
 and (c) of the Commercial Computer Software - Restricted
 Rights clause in FAR 52.227-19.
  
 Gaussian, Inc.
 340 Quinnipiac St., Bldg. 40, Wallingford CT 06492
  
  
 ---------------------------------------------------------------
 Warning -- This program may not be used in any manner that
 competes with the business of Gaussian, Inc. or will provide
 assistance to any competitor of Gaussian, Inc.  The licensee
 of this program is prohibited from giving any competitor of
 Gaussian, Inc. access to this program.  By using this program,
 the user acknowledges that Gaussian, Inc. is engaged in the
 business of creating and licensing software in the field of
 computational chemistry and represents and warrants to the
 licensee that it is not a competitor of Gaussian, Inc. and that
 it will not use this program in any manner prohibited above.
 ---------------------------------------------------------------
  

 Cite this work as:
 Gaussian 16, Revision C.01,
 M. J. Frisch, G. W. Trucks, H. B. Schlegel, G. E. Scuseria, 
 M. A. Robb, J. R. Cheeseman, G. Scalmani, V. Barone, 
 G. A. Petersson, H. Nakatsuji, X. Li, M. Caricato, A. V. Marenich, 
 J. Bloino, B. G. Janesko, R. Gomperts, B. Mennucci, H. P. Hratchian, 
 J. V. Ortiz, A. F. Izmaylov, J. L. Sonnenberg, D. Williams-Young, 
 F. Ding, F. Lipparini, F. Egidi, J. Goings, B. Peng, A. Petrone, 
 T. Henderson, D. Ranasinghe, V. G. Zakrzewski, J. Gao, N. Rega, 
 G. Zheng, W. Liang, M. Hada, M. Ehara, K. Toyota, R. Fukuda, 
 J. Hasegawa, M. Ishida, T. Nakajima, Y. Honda, O. Kitao, H. Nakai, 
 T. Vreven, K. Throssell, J. A. Montgomery, Jr., J. E. Peralta, 
 F. Ogliaro, M. J. Bearpark, J. J. Heyd, E. N. Brothers, K. N. Kudin, 
 V. N. Staroverov, T. A. Keith, R. Kobayashi, J. Normand, 
 K. Raghavachari, A. P. Rendell, J. C. Burant, S. S. Iyengar, 
 J. Tomasi, M. Cossi, J. M. Millam, M. Klene, C. Adamo, R. Cammi, 
 J. W. Ochterski, R. L. Martin, K. Morokuma, O. Farkas, 
 J. B. Foresman, and D. J. Fox, Gaussian, Inc., Wallingford CT, 2019.
 
 ******************************************
 Gaussian 16:  ES64L-G16RevC.01  3-Jul-2019
                18-Nov-2024 
 ******************************************
 %LindaWorkers=c1-56-ib
 %NProcShared=4
 Will use up to    4 processors via shared memory.
 %mem=25GB
 %chk=mol55.chk
 SetLPE:    new flags="-opt 'Tsnet.Node.lindarsharg: ssh'  -nodelist 'c1-56-ib.saga' -env GAUSS_MDEF=3355443200 -env GAUSS_EXEDIR="/cluster/software/Gaussian/g16_C.01/bsd:/cluster/software/Gaussian/g16_C.01""
 Will use up to    1 processors via Linda.
 -----------------------------------------------------------------
 #RHF/6-31G* int=nobasistransform Symmetry=None 5D 7F Pop=NBO7Read
 -----------------------------------------------------------------
 1/38=1,163=2,172=1/1;
 2/12=2,15=3,17=6,18=5,40=1/2;
 3/5=1,6=6,7=1,8=11,11=1,25=1,30=1,60=-1,116=1/1,2,3;
 4//1;
 5/5=2,38=5/2;
 6/7=2,8=2,9=2,10=2,28=1,40=2,113=1,114=1,124=2103/1,12;
 99/5=1,9=1/99;
 ---------
 mol55-NBO
 ---------
 Symbolic Z-matrix:
 Charge =  0 Multiplicity = 1
 B                     0.        0.        0. 
 F                     0.        1.32176   0. 
 F                     1.14468  -0.66088   0. 
 F                    -1.14468  -0.66088   0. 
 
                          Input orientation:                          
 ---------------------------------------------------------------------
 Center     Atomic      Atomic             Coordinates (Angstroms)
 Number     Number       Type             X           Y           Z
 ---------------------------------------------------------------------
      1          5           0        0.000000    0.000000    0.000000
      2          9           0        0.000000    1.321760    0.000000
      3          9           0        1.144678   -0.660880    0.000000
      4          9           0       -1.144678   -0.660880    0.000000
 ---------------------------------------------------------------------
                    Distance matrix (angstroms):
                    1          2          3          4
     1  B    0.000000
     2  F    1.321760   0.000000
     3  F    1.321760   2.289356   0.000000
     4  F    1.321760   2.289356   2.289356   0.000000
 Symmetry turned off by external request.
 Stoichiometry    BF3
 Rotational constants (GHZ):          10.1508785          10.1508738           5.0754381
 Standard basis: 6-31G(d) (5D, 7F)
    56 basis functions,   112 primitive gaussians,    60 cartesian basis functions
    16 alpha electrons       16 beta electrons
       nuclear repulsion energy       110.2169938874 Hartrees.
 NAtoms=    4 NActive=    4 NUniq=    4 SFac= 1.00D+00 NAtFMM=   60 NAOKFM=F Big=F
 Integral buffers will be    131072 words long.
 Raffenetti 1 integral format.
 Two-electron integral symmetry is turned off.
 One-electron integrals computed using PRISM.
 NBasis=    56 RedAO= T EigKep=  2.22D-02  NBF=    56
 NBsUse=    56 1.00D-06 EigRej= -1.00D+00 NBFU=    56
 ExpMin= 1.27D-01 ExpMax= 7.00D+03 ExpMxC= 1.05D+03 IAcc=3 IRadAn=         5 AccDes= 0.00D+00
 Harris functional with IExCor=  205 and IRadAn=       5 diagonalized for initial guess.
 HarFok:  IExCor=  205 AccDes= 0.00D+00 IRadAn=         5 IDoV= 1 UseB2=F ITyADJ=14
 ICtDFT=  3500011 ScaDFX=  1.000000  1.000000  1.000000  1.000000
 FoFCou: FMM=F IPFlag=           0 FMFlag=      100000 FMFlg1=           0
         NFxFlg=           0 DoJE=T BraDBF=F KetDBF=T FulRan=T
         wScrn=  0.000000 ICntrl=       500 IOpCl=  0 I1Cent=   200000004 NGrid=           0
         NMat0=    1 NMatS0=      1 NMatT0=    0 NMatD0=    1 NMtDS0=    0 NMtDT0=    0
 Symmetry not used in FoFCou.
 Keep R1 ints in memory in canonical form, NReq=2111354.
 Requested convergence on RMS density matrix=1.00D-08 within 128 cycles.
 Requested convergence on MAX density matrix=1.00D-06.
 Requested convergence on             energy=1.00D-06.
 No special actions if energy rises.
 SCF Done:  E(RHF) =  -323.189522188     A.U. after    9 cycles
            NFock=  9  Conv=0.98D-08     -V/T= 2.0007

 **********************************************************************

            Population analysis using the SCF Density.

 **********************************************************************

 Alpha  occ. eigenvalues --  -26.33419 -26.33419 -26.33417  -7.78617  -1.67365
 Alpha  occ. eigenvalues --   -1.63215  -1.63215  -0.84647  -0.79905  -0.79905
 Alpha  occ. eigenvalues --   -0.75019  -0.68784  -0.68784  -0.67576  -0.67576
 Alpha  occ. eigenvalues --   -0.65064
 Alpha virt. eigenvalues --    0.19749   0.25039   0.40232   0.40232   0.53991
 Alpha virt. eigenvalues --    0.74407   0.75000   0.75000   1.38428   1.38428
 Alpha virt. eigenvalues --    1.40642   1.40642   1.40691   1.54756   1.54756
 Alpha virt. eigenvalues --    1.59645   1.59645   1.61986   1.69944   1.70170
 Alpha virt. eigenvalues --    1.90982   1.90982   2.08371   2.08371   2.10433
 Alpha virt. eigenvalues --    2.17033   2.17033   2.20675   2.20675   2.21123
 Alpha virt. eigenvalues --    2.23135   2.31419   2.43320   2.78626   2.78626
 Alpha virt. eigenvalues --    3.18786   3.18786   3.41605   3.41605   3.78577
          Condensed to atoms (all electrons):
               1          2          3          4
     1  B    2.781190   0.362343   0.362343   0.362343
     2  F    0.362343   9.040563  -0.012823  -0.012823
     3  F    0.362343  -0.012823   9.040563  -0.012823
     4  F    0.362343  -0.012823  -0.012823   9.040563
 Mulliken charges:
               1
     1  B    1.131782
     2  F   -0.377260
     3  F   -0.377261
     4  F   -0.377261
 Sum of Mulliken charges =  -0.00000
 Mulliken charges with hydrogens summed into heavy atoms:
               1
     1  B    1.131782
     2  F   -0.377260
     3  F   -0.377261
     4  F   -0.377261
 Electronic spatial extent (au):  <R**2>=            213.4164
 Charge=             -0.0000 electrons
 Dipole moment (field-independent basis, Debye):
    X=             -0.0000    Y=              0.0000    Z=             -0.0000  Tot=              0.0000
 Quadrupole moment (field-independent basis, Debye-Ang):
   XX=            -21.6763   YY=            -21.6763   ZZ=            -17.1310
   XY=              0.0000   XZ=              0.0000   YZ=              0.0000
 Traceless Quadrupole moment (field-independent basis, Debye-Ang):
   XX=             -1.5151   YY=             -1.5151   ZZ=              3.0302
   XY=              0.0000   XZ=              0.0000   YZ=              0.0000
 Octapole moment (field-independent basis, Debye-Ang**2):
  XXX=              0.0000  YYY=             -1.9155  ZZZ=             -0.0000  XYY=              0.0000
  XXY=              1.9155  XXZ=             -0.0000  XZZ=              0.0000  YZZ=              0.0000
  YYZ=             -0.0000  XYZ=             -0.0000
 Hexadecapole moment (field-independent basis, Debye-Ang**3):
 XXXX=            -89.1446 YYYY=            -89.1446 ZZZZ=             -9.9369 XXXY=             -0.0000
 XXXZ=              0.0000 YYYX=             -0.0000 YYYZ=              0.0000 ZZZX=              0.0000
 ZZZY=              0.0000 XXYY=            -29.7149 XXZZ=            -16.2062 YYZZ=            -16.2062
 XXYZ=              0.0000 YYXZ=              0.0000 ZZXY=             -0.0000
 N-N= 1.102169938874D+02 E-N=-9.931855602661D+02  KE= 3.229710348337D+02
 Running external command "gaunbo7 R"
         input file       "/cluster/work/users/beto93/mol55/Gau-883616.EIn"
         output file      "/cluster/work/users/beto93/mol55/Gau-883616.EOu"
         message file     "/cluster/work/users/beto93/mol55/Gau-883616.EMs"
         fchk file        "/cluster/work/users/beto93/mol55/Gau-883616.EFC"
         mat. el file     "/cluster/work/users/beto93/mol55/Gau-883616.EUF"

 Writing WrtUnf unformatted file "/cluster/work/users/beto93/mol55/Gau-883616.EUF"
 Gaussian matrix elements                                         Version   2 NLab=11 Len12L=8 Len4L=8
 Write SHELL TO ATOM MAP                   from file      0 offset           0 length                  16 to matrix element file.
 Write SHELL TYPES                         from file      0 offset           0 length                  16 to matrix element file.
 Write NUMBER OF PRIMITIVES PER SHELL      from file      0 offset           0 length                  16 to matrix element file.
 Write PRIMITIVE EXPONENTS                 from file      0 offset           0 length                  44 to matrix element file.
 Write CONTRACTION COEFFICIENTS            from file      0 offset           0 length                  44 to matrix element file.
 Write P(S=P) CONTRACTION COEFFICIENTS     from file      0 offset           0 length                  44 to matrix element file.
 Write COORDINATES OF EACH SHELL           from file      0 offset           0 length                  48 to matrix element file.
 Write BONDS PER ATOM                      from file      0 offset           0 length                   4 to matrix element file.
 Write BONDED ATOMS                        from file      0 offset           0 length                   6 to matrix element file.
 Write BOND TYPES                          from file      0 offset           0 length                   6 to matrix element file.
 Write ONIOM CHARGE/MULT                   from file      0 offset           0 length                  32 to matrix element file.
 Write ONIOM ATOM LAYERS                   from file      0 offset           0 length                   4 to matrix element file.
 Write ONIOM ATOM MODIFIERS                from file      0 offset           0 length                   4 to matrix element file.
 Write ONIOM ATOM TYPES                    from file      0 offset           0 length                   4 to matrix element file.
 Write ONIOM LINK ATOMS                    from file      0 offset           0 length                   4 to matrix element file.
 Write ONIOM LINK CHARGES                  from file      0 offset           0 length                   4 to matrix element file.
 Write ONIOM LINK DISTANCES                from file      0 offset           0 length                  16 to matrix element file.
 Write SYMINF INTS                         from file      0 offset           0 length                  26 to matrix element file.
 Write ROTTR TO SO                         from file      0 offset           0 length                  12 to matrix element file.
 Write GAUSSIAN SCALARS                    from file    501 offset           0 to matrix element file.
 Write OPTIMIZATION FLAGS                  from file      0 offset           0 length                   4 to matrix element file.
 Write INTEGER ISO                         from file      0 offset           0 length                   4 to matrix element file.
 Write INTEGER SPIN                        from file      0 offset           0 length                   4 to matrix element file.
 Write REAL ZEFFECTIVE                     from file      0 offset           0 length                   4 to matrix element file.
 Write REAL QUADRUPOLEMOMENT               from file      0 offset           0 length                   4 to matrix element file.
 Write REAL GFACTOR                        from file      0 offset           0 length                   4 to matrix element file.
 Write REAL ZNUCLEAR                       from file      0 offset           0 length                   4 to matrix element file.
 Write MULLIKEN CHARGES                    from file      0 offset           0 length                   4 to matrix element file.
 Write NUCLEAR GRADIENT                    from file  10584 offset           0 length                  12 to matrix element file.
 Array NUCLEAR FORCE CONSTANTS              on  file  10585 does not exist.
 Write ELECTRIC DIPOLE MOMENT              from file      0 offset           0 length                   3 to matrix element file.
 Write NON-ADIABATIC COUPLING              from file  10810 offset           0 length                  12 to matrix element file.
 Write FINITE EM FIELD                     from file  10521 offset           0 length                  35 to matrix element file.
 Write OVERLAP                             from file  10514 offset           0 length                1596 to matrix element file.
 Write CORE HAMILTONIAN ALPHA              from file  10515 offset           0 length                1596 to matrix element file.
 Write CORE HAMILTONIAN BETA               from file  10515 offset        1596 length                1596 to matrix element file.
 Write KINETIC ENERGY                      from file  10516 offset           0 length                1596 to matrix element file.
 Write ORTHOGONAL BASIS                    from file  10685 offset           0 length                3136 to matrix element file.
 Write DIPOLE INTEGRALS                    from file  10518 offset           0 length                4788 to matrix element file.
 Array DIP VEL INTEGRALS                    on  file  10572 does not exist.
 Array R X DEL INTEGRALS                    on  file  10572 does not exist.
 Write ALPHA ORBITAL ENERGIES              from file      0 offset           0 length                  56 to matrix element file.
 Write ALPHA MO COEFFICIENTS               from file  10524 offset           0 length                3136 to matrix element file.
 Write ALPHA DENSITY MATRIX                from file      0 offset           0 length                1596 to matrix element file.
 Write ALPHA FOCK MATRIX                   from file  10536 offset           0 length                1596 to matrix element file.
 Write ENERGY-WEIGHTED DENSITY             from file  10571 offset           0 length                1596 to matrix element file.
 Write ALPHA SCF DENSITY MATRIX            from file      0 offset           0 length                1596 to matrix element file.
 No 2e integrals to process.
 Perform NBO analysis...executing G16NBO...

 *********************************** NBO 7.0 ***********************************
             N A T U R A L   A T O M I C   O R B I T A L   A N D
          N A T U R A L   B O N D   O R B I T A L   A N A L Y S I S
 **************************** Espen Tangen (S101595) ***************************
  (c) Copyright 1996-2021 Board of Regents of the University of Wisconsin System
      on behalf of the Theoretical Chemistry Institute.  All rights reserved.

          Cite this program [NBO 7.0.10 (8-Feb-2021)] as:

          NBO 7.0.  E. D. Glendening, J. K. Badenhoop, A. E. Reed,
          J. E. Carpenter, J. A. Bohmann, C. M. Morales, P. Karafiloglou,
          C. R. Landis, and F. Weinhold, Theoretical Chemistry Institute,
          University of Wisconsin, Madison, WI (2018)

       /NPA    / : Natural Population Analysis
       /AOPNAO / : Print the AO to PNAO transformation
       /AONAO  / : Print the AO to NAO transformation
       /AOMO   / : Print the MOs in the AO basis
       /BOAO   / : Print the AO bond-order matrix
       /DMAO   / : Print the AO density matrix
       /DMPNAO / : Print the PNAO density matrix
       /DMNAO  / : Print the NAO density matrix
       /DMMO   / : Print the MO density matrix
       /SAO    / : Print the AO overlap matrix
       /SPNAO  / : Print the PNAO overlap matrix
       /DETAIL / : Write details of NBO search
       /ARCHIVE/ : Write the archive file to lfn47
       /AOINFO / : Write AO information to lfn31
       /FILE   / : Set to mol55.gen*

 Filename set to mol55.gen1

 Job title: mol55-NBO


 MOs in the AO basis:

           AO          1       2       3       4       5       6       7       8
      ------------ ------- ------- ------- ------- ------- ------- ------- -------
   1.  B 1 (s)      0.0000  0.0000  0.0003  0.9961 -0.0990  0.0000  0.0000  0.1511
   2.  B 1 (s)      0.0000  0.0000  0.0036  0.0224  0.1081  0.0000  0.0000 -0.2643
   3.  B 1 (px)     0.0000 -0.0016  0.0000  0.0000  0.0000  0.0000  0.1315  0.0000
   4.  B 1 (py)     0.0016  0.0000  0.0000  0.0000  0.0000  0.1315  0.0000  0.0000
   5.  B 1 (pz)     0.0000  0.0000  0.0000  0.0000  0.0000  0.0000  0.0000  0.0000
   6.  B 1 (s)      0.0000  0.0000  0.0043 -0.0051 -0.0205  0.0000  0.0000 -0.0251
   7.  B 1 (px)     0.0000 -0.0026  0.0000  0.0000  0.0000  0.0000 -0.0238  0.0000
   8.  B 1 (py)     0.0026  0.0000  0.0000  0.0000  0.0000 -0.0238  0.0000  0.0000
   9.  B 1 (pz)     0.0000  0.0000  0.0000  0.0000  0.0000  0.0000  0.0000  0.0000
  10.  B 1 (d5)     0.0000  0.0000 -0.0010 -0.0013 -0.0142  0.0000  0.0000  0.0172
  11.  B 1 (d2)     0.0000  0.0000  0.0000  0.0000  0.0000  0.0000  0.0000  0.0000
  12.  B 1 (d3)     0.0000  0.0000  0.0000  0.0000  0.0000  0.0000  0.0000  0.0000
  13.  B 1 (d4)     0.0002  0.0000  0.0000  0.0000  0.0000 -0.0391  0.0000  0.0000
  14.  B 1 (d1)     0.0000 -0.0002  0.0000  0.0000  0.0000  0.0000 -0.0391  0.0000
  15.  F 2 (s)      0.8134  0.0000  0.5740 -0.0005 -0.1305 -0.1912  0.0000 -0.0402
  16.  F 2 (s)      0.0183  0.0000  0.0131  0.0006  0.2766  0.4131  0.0000  0.0976
  17.  F 2 (px)     0.0000 -0.0002  0.0000  0.0000  0.0000  0.0000  0.0095  0.0000
  18.  F 2 (py)    -0.0010  0.0000 -0.0007 -0.0012 -0.0461 -0.0504  0.0000  0.3183
  19.  F 2 (pz)     0.0000  0.0000  0.0000  0.0000  0.0000  0.0000  0.0000  0.0000
  20.  F 2 (s)     -0.0068  0.0000 -0.0059 -0.0005  0.3054  0.4222  0.0000  0.1284
  21.  F 2 (px)     0.0000  0.0009  0.0000  0.0000  0.0000  0.0000  0.0099  0.0000
  22.  F 2 (py)     0.0017  0.0000  0.0021  0.0009 -0.0359 -0.0190  0.0000  0.2065
  23.  F 2 (pz)     0.0000  0.0000  0.0000  0.0000  0.0000  0.0000  0.0000  0.0000
  24.  F 2 (d5)     0.0002  0.0000  0.0003 -0.0002 -0.0044 -0.0032  0.0000  0.0078
  25.  F 2 (d2)     0.0000  0.0000  0.0000  0.0000  0.0000  0.0000  0.0000  0.0000
  26.  F 2 (d3)     0.0000  0.0000  0.0000  0.0000  0.0000  0.0000  0.0000  0.0000
  27.  F 2 (d4)     0.0003  0.0000  0.0006 -0.0006 -0.0099 -0.0054  0.0000  0.0159
  28.  F 2 (d1)     0.0000 -0.0003  0.0000  0.0000  0.0000  0.0000 -0.0045  0.0000
  29.  F 3 (s)     -0.4058 -0.7039  0.5752 -0.0005 -0.1305  0.0956 -0.1656 -0.0402
  30.  F 3 (s)     -0.0091 -0.0158  0.0132  0.0006  0.2766 -0.2065  0.3577  0.0976
  31.  F 3 (px)     0.0005  0.0007 -0.0006 -0.0010 -0.0399  0.0259 -0.0354  0.2756
  32.  F 3 (py)    -0.0001 -0.0005  0.0003  0.0006  0.0231 -0.0055  0.0259 -0.1591
  33.  F 3 (pz)     0.0000  0.0000  0.0000  0.0000  0.0000  0.0000  0.0000  0.0000
  34.  F 3 (s)      0.0034  0.0059 -0.0059 -0.0005  0.3054 -0.2111  0.3657  0.1284
  35.  F 3 (px)    -0.0011 -0.0010  0.0019  0.0008 -0.0311  0.0125 -0.0118  0.1788
  36.  F 3 (py)    -0.0003  0.0011 -0.0011 -0.0004  0.0180  0.0027  0.0125 -0.1032
  37.  F 3 (pz)     0.0000  0.0000  0.0000  0.0000  0.0000  0.0000  0.0000  0.0000
  38.  F 3 (d5)    -0.0001 -0.0002  0.0003 -0.0002 -0.0044  0.0016 -0.0028  0.0078
  39.  F 3 (d2)     0.0000  0.0000  0.0000  0.0000  0.0000  0.0000  0.0000  0.0000
  40.  F 3 (d3)     0.0000  0.0000  0.0000  0.0000  0.0000  0.0000  0.0000  0.0000
  41.  F 3 (d4)     0.0003  0.0000 -0.0003  0.0003  0.0050 -0.0047  0.0004 -0.0080
  42.  F 3 (d1)     0.0000 -0.0003  0.0005 -0.0005 -0.0086  0.0004 -0.0052  0.0138
  43.  F 4 (s)     -0.4058  0.7039  0.5752 -0.0005 -0.1305  0.0956  0.1656 -0.0402
  44.  F 4 (s)     -0.0091  0.0158  0.0132  0.0006  0.2766 -0.2065 -0.3577  0.0976
  45.  F 4 (px)    -0.0005  0.0007  0.0006  0.0010  0.0399 -0.0259 -0.0354 -0.2756
  46.  F 4 (py)    -0.0001  0.0005  0.0003  0.0006  0.0231 -0.0055 -0.0259 -0.1591
  47.  F 4 (pz)     0.0000  0.0000  0.0000  0.0000  0.0000  0.0000  0.0000  0.0000
  48.  F 4 (s)      0.0034 -0.0059 -0.0059 -0.0005  0.3054 -0.2111 -0.3657  0.1284
  49.  F 4 (px)     0.0011 -0.0010 -0.0019 -0.0008  0.0311 -0.0125 -0.0118 -0.1788
  50.  F 4 (py)    -0.0003 -0.0011 -0.0011 -0.0004  0.0180  0.0027 -0.0125 -0.1032
  51.  F 4 (pz)     0.0000  0.0000  0.0000  0.0000  0.0000  0.0000  0.0000  0.0000
  52.  F 4 (d5)    -0.0001  0.0002  0.0003 -0.0002 -0.0044  0.0016  0.0028  0.0078
  53.  F 4 (d2)     0.0000  0.0000  0.0000  0.0000  0.0000  0.0000  0.0000  0.0000
  54.  F 4 (d3)     0.0000  0.0000  0.0000  0.0000  0.0000  0.0000  0.0000  0.0000
  55.  F 4 (d4)     0.0003  0.0000 -0.0003  0.0003  0.0050 -0.0047 -0.0004 -0.0080
  56.  F 4 (d1)     0.0000 -0.0003 -0.0005  0.0005  0.0086 -0.0004 -0.0052 -0.0138

           AO          9      10      11      12      13      14      15      16
      ------------ ------- ------- ------- ------- ------- ------- ------- -------
   1.  B 1 (s)      0.0000  0.0000  0.0000  0.0000  0.0000  0.0000  0.0000  0.0000
   2.  B 1 (s)      0.0000  0.0000  0.0000  0.0000  0.0000  0.0000  0.0000  0.0000
   3.  B 1 (px)     0.0000  0.2916  0.0000 -0.1142  0.0000  0.0000  0.0000  0.0000
   4.  B 1 (py)    -0.2916  0.0000  0.0000  0.0000 -0.1142  0.0000  0.0000  0.0000
   5.  B 1 (pz)     0.0000  0.0000  0.1861  0.0000  0.0000  0.0000  0.0000  0.0000
   6.  B 1 (s)      0.0000  0.0000  0.0000  0.0000  0.0000  0.0000  0.0000  0.0000
   7.  B 1 (px)     0.0000  0.0000  0.0000  0.0839  0.0000  0.0000  0.0000  0.0000
   8.  B 1 (py)     0.0000  0.0000  0.0000  0.0000  0.0839  0.0000  0.0000  0.0000
   9.  B 1 (pz)     0.0000  0.0000  0.0802  0.0000  0.0000  0.0000  0.0000  0.0000
  10.  B 1 (d5)     0.0000  0.0000  0.0000  0.0000  0.0000  0.0000  0.0000  0.0000
  11.  B 1 (d2)     0.0000  0.0000  0.0000  0.0000  0.0000  0.0000  0.0387  0.0000
  12.  B 1 (d3)     0.0000  0.0000  0.0000  0.0000  0.0000  0.0387  0.0000  0.0000
  13.  B 1 (d4)     0.0269  0.0000  0.0000  0.0000  0.0659  0.0000  0.0000  0.0000
  14.  B 1 (d1)     0.0000 -0.0269  0.0000  0.0659  0.0000  0.0000  0.0000  0.0000
  15.  F 2 (s)     -0.0370  0.0000  0.0000  0.0000 -0.0064  0.0000  0.0000  0.0000
  16.  F 2 (s)      0.0841  0.0000  0.0000  0.0000  0.0208  0.0000  0.0000  0.0000
  17.  F 2 (px)     0.0000  0.2702  0.0000  0.4463  0.0000  0.0000  0.0000  0.3950
  18.  F 2 (py)     0.3968  0.0000  0.0000  0.0000  0.2989  0.0000  0.0000  0.0000
  19.  F 2 (pz)     0.0000  0.0000  0.3440  0.0000  0.0000  0.5353  0.0000  0.0000
  20.  F 2 (s)      0.1663  0.0000  0.0000  0.0000  0.0185  0.0000  0.0000  0.0000
  21.  F 2 (px)     0.0000  0.1867  0.0000  0.3093  0.0000  0.0000  0.0000  0.2847
  22.  F 2 (py)     0.2304  0.0000  0.0000  0.0000  0.1872  0.0000  0.0000  0.0000
  23.  F 2 (pz)     0.0000  0.0000  0.2338  0.0000  0.0000  0.3964  0.0000  0.0000
  24.  F 2 (d5)     0.0086  0.0000  0.0000  0.0000  0.0025  0.0000  0.0000  0.0000
  25.  F 2 (d2)     0.0000  0.0000  0.0000  0.0000  0.0000  0.0000  0.0013  0.0000
  26.  F 2 (d3)     0.0000  0.0000 -0.0184  0.0000  0.0000 -0.0234  0.0000  0.0000
  27.  F 2 (d4)     0.0126  0.0000  0.0000  0.0000  0.0077  0.0000  0.0000  0.0000
  28.  F 2 (d1)     0.0000 -0.0161  0.0000 -0.0133  0.0000  0.0000  0.0000 -0.0164
  29.  F 3 (s)      0.0185  0.0320  0.0000 -0.0056  0.0032  0.0000  0.0000  0.0000
  30.  F 3 (s)     -0.0420 -0.0728  0.0000  0.0180 -0.0104  0.0000  0.0000  0.0000
  31.  F 3 (px)    -0.2888 -0.2301  0.0000  0.3358  0.0638  0.0000  0.0000 -0.1975
  32.  F 3 (py)    -0.1034  0.2888  0.0000  0.0638  0.4095  0.0000  0.0000 -0.3421
  33.  F 3 (pz)     0.0000  0.0000  0.3440  0.0000  0.0000 -0.2677  0.4636  0.0000
  34.  F 3 (s)     -0.0831 -0.1440  0.0000  0.0161 -0.0093  0.0000  0.0000  0.0000
  35.  F 3 (px)    -0.1806 -0.1261  0.0000  0.2178  0.0529  0.0000  0.0000 -0.1424
  36.  F 3 (py)    -0.0824  0.1806  0.0000  0.0529  0.2788  0.0000  0.0000 -0.2466
  37.  F 3 (pz)     0.0000  0.0000  0.2338  0.0000  0.0000 -0.1982  0.3433  0.0000
  38.  F 3 (d5)    -0.0043 -0.0074  0.0000  0.0022 -0.0013  0.0000  0.0000  0.0000
  39.  F 3 (d2)     0.0000  0.0000 -0.0160  0.0000  0.0000  0.0107 -0.0172  0.0000
  40.  F 3 (d3)     0.0000  0.0000  0.0092  0.0000  0.0000 -0.0049  0.0107  0.0000
  41.  F 3 (d4)     0.0152 -0.0015  0.0000 -0.0091 -0.0081  0.0000  0.0000  0.0142
  42.  F 3 (d1)     0.0015 -0.0135  0.0000  0.0024 -0.0091  0.0000  0.0000  0.0082
  43.  F 4 (s)      0.0185 -0.0320  0.0000  0.0056  0.0032  0.0000  0.0000  0.0000
  44.  F 4 (s)     -0.0420  0.0728  0.0000 -0.0180 -0.0104  0.0000  0.0000  0.0000
  45.  F 4 (px)     0.2888 -0.2301  0.0000  0.3358 -0.0638  0.0000  0.0000 -0.1975
  46.  F 4 (py)    -0.1034 -0.2888  0.0000 -0.0638  0.4095  0.0000  0.0000  0.3421
  47.  F 4 (pz)     0.0000  0.0000  0.3440  0.0000  0.0000 -0.2677 -0.4636  0.0000
  48.  F 4 (s)     -0.0831  0.1440  0.0000 -0.0161 -0.0093  0.0000  0.0000  0.0000
  49.  F 4 (px)     0.1806 -0.1261  0.0000  0.2178 -0.0529  0.0000  0.0000 -0.1424
  50.  F 4 (py)    -0.0824 -0.1806  0.0000 -0.0529  0.2788  0.0000  0.0000  0.2466
  51.  F 4 (pz)     0.0000  0.0000  0.2338  0.0000  0.0000 -0.1982 -0.3433  0.0000
  52.  F 4 (d5)    -0.0043  0.0074  0.0000 -0.0022 -0.0013  0.0000  0.0000  0.0000
  53.  F 4 (d2)     0.0000  0.0000  0.0160  0.0000  0.0000 -0.0107 -0.0172  0.0000
  54.  F 4 (d3)     0.0000  0.0000  0.0092  0.0000  0.0000 -0.0049 -0.0107  0.0000
  55.  F 4 (d4)     0.0152  0.0015  0.0000  0.0091 -0.0081  0.0000  0.0000 -0.0142
  56.  F 4 (d1)    -0.0015 -0.0135  0.0000  0.0024  0.0091  0.0000  0.0000  0.0082

           AO         17      18      19      20      21      22      23      24
      ------------ ------- ------- ------- ------- ------- ------- ------- -------
   1.  B 1 (s)      0.0000 -0.1396  0.0000  0.0000  0.0000 -0.1121  0.0000  0.0000
   2.  B 1 (s)      0.0000 -0.1611  0.0000  0.0000  0.0000  1.7310  0.0000  0.0000
   3.  B 1 (px)     0.0000  0.0000  0.0000  0.1140  0.0000  0.0000  1.1737  0.0000
   4.  B 1 (py)     0.0000  0.0000  0.1140  0.0000  0.0000  0.0000  0.0000  1.1737
   5.  B 1 (pz)     0.4677  0.0000  0.0000  0.0000 -1.1296  0.0000  0.0000  0.0000
   6.  B 1 (s)      0.0000  1.9878  0.0000  0.0000  0.0000 -1.5071  0.0000  0.0000
   7.  B 1 (px)     0.0000  0.0000  0.0000  1.7483  0.0000  0.0000 -0.7012  0.0000
   8.  B 1 (py)     0.0000  0.0000  1.7483  0.0000  0.0000  0.0000  0.0000 -0.7012
   9.  B 1 (pz)     0.7917  0.0000  0.0000  0.0000  1.1934  0.0000  0.0000  0.0000
  10.  B 1 (d5)     0.0000  0.0077  0.0000  0.0000  0.0000  0.2339  0.0000  0.0000
  11.  B 1 (d2)     0.0000  0.0000  0.0000  0.0000  0.0000  0.0000  0.0000  0.0000
  12.  B 1 (d3)     0.0000  0.0000  0.0000  0.0000  0.0000  0.0000  0.0000  0.0000
  13.  B 1 (d4)     0.0000  0.0000 -0.0433  0.0000  0.0000  0.0000  0.0000  0.2424
  14.  B 1 (d1)     0.0000  0.0000  0.0000 -0.0433  0.0000  0.0000  0.2424  0.0000
  15.  F 2 (s)      0.0000  0.0556  0.0650  0.0000  0.0000  0.0140  0.0000  0.0295
  16.  F 2 (s)      0.0000 -0.0855 -0.0725  0.0000  0.0000 -0.0954  0.0000 -0.1578
  17.  F 2 (px)     0.0000  0.0000  0.0000 -0.1982  0.0000  0.0000 -0.1139  0.0000
  18.  F 2 (py)     0.0000  0.1271  0.0301  0.0000  0.0000  0.2598  0.0000  0.3032
  19.  F 2 (pz)    -0.2099  0.0000  0.0000  0.0000  0.0103  0.0000  0.0000  0.0000
  20.  F 2 (s)      0.0000 -0.5905 -0.9671  0.0000  0.0000  0.2006  0.0000  0.1022
  21.  F 2 (px)     0.0000  0.0000  0.0000 -0.3220  0.0000  0.0000 -0.0446  0.0000
  22.  F 2 (py)     0.0000  0.2890  0.2330  0.0000  0.0000  0.0612  0.0000  0.2074
  23.  F 2 (pz)    -0.2616  0.0000  0.0000  0.0000 -0.0772  0.0000  0.0000  0.0000
  24.  F 2 (d5)     0.0000  0.0163  0.0107  0.0000  0.0000 -0.0297  0.0000 -0.0543
  25.  F 2 (d2)     0.0000  0.0000  0.0000  0.0000  0.0000  0.0000  0.0000  0.0000
  26.  F 2 (d3)    -0.0109  0.0000  0.0000  0.0000  0.0481  0.0000  0.0000  0.0000
  27.  F 2 (d4)     0.0000  0.0109  0.0171  0.0000  0.0000 -0.0642  0.0000 -0.0800
  28.  F 2 (d1)     0.0000  0.0000  0.0000 -0.0010  0.0000  0.0000 -0.0760  0.0000
  29.  F 3 (s)      0.0000  0.0556 -0.0325  0.0563  0.0000  0.0140  0.0256 -0.0148
  30.  F 3 (s)      0.0000 -0.0855  0.0362 -0.0628  0.0000 -0.0954 -0.1366  0.0789
  31.  F 3 (px)     0.0000  0.1101 -0.0988 -0.0270  0.0000  0.2250  0.1990 -0.1806
  32.  F 3 (py)     0.0000 -0.0636 -0.1411 -0.0988  0.0000 -0.1299 -0.1806 -0.0096
  33.  F 3 (pz)    -0.2099  0.0000  0.0000  0.0000  0.0103  0.0000  0.0000  0.0000
  34.  F 3 (s)      0.0000 -0.5905  0.4836 -0.8376  0.0000  0.2006  0.0885 -0.0511
  35.  F 3 (px)     0.0000  0.2503 -0.2403  0.0943  0.0000  0.0530  0.1444 -0.1091
  36.  F 3 (py)     0.0000 -0.1445 -0.1832 -0.2403  0.0000 -0.0306 -0.1091  0.0184
  37.  F 3 (pz)    -0.2616  0.0000  0.0000  0.0000 -0.0772  0.0000  0.0000  0.0000
  38.  F 3 (d5)     0.0000  0.0163 -0.0054  0.0093  0.0000 -0.0297 -0.0470  0.0271
  39.  F 3 (d2)    -0.0095  0.0000  0.0000  0.0000  0.0416  0.0000  0.0000  0.0000
  40.  F 3 (d3)     0.0055  0.0000  0.0000  0.0000 -0.0240  0.0000  0.0000  0.0000
  41.  F 3 (d4)     0.0000 -0.0054  0.0035 -0.0079  0.0000  0.0321  0.0017 -0.0770
  42.  F 3 (d1)     0.0000  0.0094 -0.0079  0.0126  0.0000 -0.0556 -0.0790  0.0017
  43.  F 4 (s)      0.0000  0.0556 -0.0325 -0.0563  0.0000  0.0140 -0.0256 -0.0148
  44.  F 4 (s)      0.0000 -0.0855  0.0362  0.0628  0.0000 -0.0954  0.1366  0.0789
  45.  F 4 (px)     0.0000 -0.1101  0.0988 -0.0270  0.0000 -0.2250  0.1990  0.1806
  46.  F 4 (py)     0.0000 -0.0636 -0.1411  0.0988  0.0000 -0.1299  0.1806 -0.0096
  47.  F 4 (pz)    -0.2099  0.0000  0.0000  0.0000  0.0103  0.0000  0.0000  0.0000
  48.  F 4 (s)      0.0000 -0.5905  0.4836  0.8376  0.0000  0.2006 -0.0885 -0.0511
  49.  F 4 (px)     0.0000 -0.2503  0.2403  0.0943  0.0000 -0.0530  0.1444  0.1091
  50.  F 4 (py)     0.0000 -0.1445 -0.1832  0.2403  0.0000 -0.0306  0.1091  0.0184
  51.  F 4 (pz)    -0.2616  0.0000  0.0000  0.0000 -0.0772  0.0000  0.0000  0.0000
  52.  F 4 (d5)     0.0000  0.0163 -0.0054 -0.0093  0.0000 -0.0297  0.0470  0.0271
  53.  F 4 (d2)     0.0095  0.0000  0.0000  0.0000 -0.0416  0.0000  0.0000  0.0000
  54.  F 4 (d3)     0.0055  0.0000  0.0000  0.0000 -0.0240  0.0000  0.0000  0.0000
  55.  F 4 (d4)     0.0000 -0.0054  0.0035  0.0079  0.0000  0.0321 -0.0017 -0.0770
  56.  F 4 (d1)     0.0000 -0.0094  0.0079  0.0126  0.0000  0.0556 -0.0790 -0.0017

           AO         25      26      27      28      29      30      31      32
      ------------ ------- ------- ------- ------- ------- ------- ------- -------
   1.  B 1 (s)      0.0000  0.0000  0.0000  0.0000  0.0665  0.0000  0.0000  0.0000
   2.  B 1 (s)      0.0000  0.0000  0.0001  0.0000  1.3730  0.0000  0.0000  0.0000
   3.  B 1 (px)     0.0000  0.0000  0.0000  0.7709  0.0000  0.0000  0.0000  0.3822
   4.  B 1 (py)     0.0000  0.0000  0.7709  0.0000 -0.0001  0.0000  0.0000  0.0000
   5.  B 1 (pz)     0.0000  0.0000  0.0000  0.0000  0.0000  0.0000  0.0000  0.0000
   6.  B 1 (s)      0.0000  0.0000  0.0000  0.0000  0.1540  0.0000  0.0000  0.0000
   7.  B 1 (px)     0.0000  0.0000  0.0000  0.1386  0.0000  0.0000  0.0000 -0.3900
   8.  B 1 (py)     0.0000  0.0000  0.1386  0.0000  0.0000  0.0000  0.0000  0.0000
   9.  B 1 (pz)     0.0000  0.0000  0.0000  0.0000  0.0000  0.0000  0.0000  0.0000
  10.  B 1 (d5)     0.0000  0.0000 -0.0001  0.0000 -0.5987  0.0000  0.0000  0.0000
  11.  B 1 (d2)     0.6572  0.0000  0.0000  0.0000  0.0000  0.0000 -0.5078  0.0000
  12.  B 1 (d3)     0.0000  0.6572  0.0000  0.0000  0.0000 -0.5078  0.0000  0.0000
  13.  B 1 (d4)     0.0000  0.0000 -0.4278  0.0000  0.0000  0.0000  0.0000  0.0000
  14.  B 1 (d1)     0.0000  0.0000  0.0000 -0.4278  0.0000  0.0000  0.0000 -0.4742
  15.  F 2 (s)      0.0000  0.0000  0.0578  0.0000  0.0453  0.0000  0.0000  0.0000
  16.  F 2 (s)      0.0000  0.0000 -0.3143  0.0000 -0.2057  0.0000  0.0000  0.0000
  17.  F 2 (px)     0.0000  0.0000  0.0000  0.3604  0.0000  0.0000  0.0000 -0.5948
  18.  F 2 (py)     0.0000  0.0000 -0.4298  0.0000 -0.3381  0.0000  0.0000  0.0000
  19.  F 2 (pz)     0.0000 -0.4975  0.0000  0.0000  0.0000 -0.5949  0.0000  0.0000
  20.  F 2 (s)      0.0000  0.0000 -0.2430  0.0000 -0.2532  0.0000  0.0000  0.0000
  21.  F 2 (px)     0.0000  0.0000  0.0000 -0.3538  0.0000  0.0000  0.0000  0.8809
  22.  F 2 (py)     0.0000  0.0000  1.0400  0.0000  0.8841  0.0000  0.0000  0.0000
  23.  F 2 (pz)     0.0000  0.3102  0.0000  0.0000  0.0000  0.8567  0.0000  0.0000
  24.  F 2 (d5)     0.0000  0.0000  0.0056  0.0000 -0.0462  0.0000  0.0000  0.0000
  25.  F 2 (d2)     0.1446  0.0000  0.0000  0.0000  0.0000  0.0000 -0.0810  0.0000
  26.  F 2 (d3)     0.0000 -0.1580  0.0000  0.0000  0.0000  0.2127  0.0000  0.0000
  27.  F 2 (d4)     0.0000  0.0000 -0.0688  0.0000  0.0088  0.0000  0.0000  0.0000
  28.  F 2 (d1)     0.0000  0.0000  0.0000  0.0546  0.0000  0.0000  0.0000  0.1503
  29.  F 3 (s)      0.0000  0.0000 -0.0289  0.0501  0.0453  0.0000  0.0000 -0.0043
  30.  F 3 (s)      0.0000  0.0000  0.1571 -0.2722 -0.2058  0.0000  0.0000  0.1757
  31.  F 3 (px)     0.0000  0.0000  0.3421 -0.2322 -0.2929  0.0000  0.0000 -0.2433
  32.  F 3 (py)     0.0000  0.0000  0.1629  0.3421  0.1691  0.0000  0.0000 -0.2029
  33.  F 3 (pz)    -0.4309  0.2488  0.0000  0.0000  0.0000  0.2974 -0.5152  0.0000
  34.  F 3 (s)      0.0000  0.0000  0.1215 -0.2104 -0.2532  0.0000  0.0000 -0.3059
  35.  F 3 (px)     0.0000  0.0000 -0.6034  0.6915  0.7658  0.0000  0.0000  0.6323
  36.  F 3 (py)     0.0000  0.0000 -0.0054 -0.6035 -0.4421  0.0000  0.0000  0.1435
  37.  F 3 (pz)     0.2686 -0.1551  0.0000  0.0000  0.0000 -0.4283  0.7419  0.0000
  38.  F 3 (d5)     0.0000  0.0000 -0.0028  0.0048 -0.0462  0.0000  0.0000 -0.0923
  39.  F 3 (d2)    -0.0823  0.1310  0.0000  0.0000  0.0000 -0.1271  0.1392  0.0000
  40.  F 3 (d3)     0.1310  0.0689  0.0000  0.0000  0.0000 -0.0076 -0.1271  0.0000
  41.  F 3 (d4)     0.0000  0.0000  0.0238  0.0535 -0.0044  0.0000  0.0000  0.0977
  42.  F 3 (d1)     0.0000  0.0000  0.0535 -0.0380  0.0076  0.0000  0.0000 -0.0189
  43.  F 4 (s)      0.0000  0.0000 -0.0289 -0.0501  0.0453  0.0000  0.0000  0.0043
  44.  F 4 (s)      0.0000  0.0000  0.1571  0.2722 -0.2058  0.0000  0.0000 -0.1757
  45.  F 4 (px)     0.0000  0.0000 -0.3421 -0.2322  0.2929  0.0000  0.0000 -0.2433
  46.  F 4 (py)     0.0000  0.0000  0.1629 -0.3421  0.1691  0.0000  0.0000  0.2029
  47.  F 4 (pz)     0.4309  0.2488  0.0000  0.0000  0.0000  0.2974  0.5152  0.0000
  48.  F 4 (s)      0.0000  0.0000  0.1215  0.2104 -0.2532  0.0000  0.0000  0.3059
  49.  F 4 (px)     0.0000  0.0000  0.6034  0.6915 -0.7658  0.0000  0.0000  0.6323
  50.  F 4 (py)     0.0000  0.0000 -0.0054  0.6035 -0.4421  0.0000  0.0000 -0.1435
  51.  F 4 (pz)    -0.2686 -0.1551  0.0000  0.0000  0.0000 -0.4283 -0.7419  0.0000
  52.  F 4 (d5)     0.0000  0.0000 -0.0028 -0.0048 -0.0462  0.0000  0.0000  0.0923
  53.  F 4 (d2)    -0.0823 -0.1310  0.0000  0.0000  0.0000  0.1271  0.1392  0.0000
  54.  F 4 (d3)    -0.1310  0.0689  0.0000  0.0000  0.0000 -0.0076  0.1271  0.0000
  55.  F 4 (d4)     0.0000  0.0000  0.0238 -0.0535 -0.0044  0.0000  0.0000 -0.0977
  56.  F 4 (d1)     0.0000  0.0000 -0.0535 -0.0380 -0.0076  0.0000  0.0000 -0.0189

           AO         33      34      35      36      37      38      39      40
      ------------ ------- ------- ------- ------- ------- ------- ------- -------
   1.  B 1 (s)      0.0000  0.0000  0.0000  0.0793  0.0000  0.0000  0.0000  0.0000
   2.  B 1 (s)      0.0000  0.0000  0.0000  0.0730  0.0000  0.0000  0.0000  0.0000
   3.  B 1 (px)     0.0000  0.0000  0.0000  0.0000 -0.3482  0.0000  0.0000  0.0000
   4.  B 1 (py)     0.3822  0.0000  0.0000  0.0000  0.0000 -0.3482  0.0000  0.0000
   5.  B 1 (pz)     0.0000  0.0000 -0.0085  0.0000  0.0000  0.0000  0.0000  0.0000
   6.  B 1 (s)      0.0000  0.0000  0.0000 -0.1547  0.0000  0.0000  0.0000  0.0000
   7.  B 1 (px)     0.0000  0.0000  0.0000  0.0000 -0.4160  0.0000  0.0000  0.0000
   8.  B 1 (py)    -0.3900  0.0000  0.0000  0.0000  0.0000 -0.4160  0.0000  0.0000
   9.  B 1 (pz)     0.0000  0.0000 -0.6446  0.0000  0.0000  0.0000  0.0000  0.0000
  10.  B 1 (d5)     0.0000  0.0000  0.0000  0.6948  0.0000  0.0000  0.0000  0.0000
  11.  B 1 (d2)     0.0000  0.0000  0.0000  0.0000  0.0000  0.0000  0.0014  0.0000
  12.  B 1 (d3)     0.0000  0.0000  0.0000  0.0000  0.0000  0.0000  0.0000  0.0014
  13.  B 1 (d4)    -0.4742  0.0000  0.0000  0.0000  0.0000  0.5330  0.0000  0.0000
  14.  B 1 (d1)     0.0000  0.0000  0.0000  0.0000  0.5330  0.0000  0.0000  0.0000
  15.  F 2 (s)     -0.0050  0.0000  0.0000 -0.0190  0.0000 -0.0183  0.0000  0.0000
  16.  F 2 (s)      0.2029  0.0000  0.0000  0.1394  0.0000 -0.0525  0.0000  0.0000
  17.  F 2 (px)     0.0000 -0.5261  0.0000  0.0000 -0.1753  0.0000  0.0000  0.0000
  18.  F 2 (py)    -0.1261  0.0000  0.0000 -0.3456  0.0000 -0.5275  0.0000  0.0000
  19.  F 2 (pz)     0.0000  0.0000 -0.5357  0.0000  0.0000  0.0000  0.0000  0.0676
  20.  F 2 (s)     -0.3533  0.0000  0.0000  0.0432  0.0000  0.5688  0.0000  0.0000
  21.  F 2 (px)     0.0000  0.6475  0.0000  0.0000  0.1853  0.0000  0.0000  0.0000
  22.  F 2 (py)     0.5495  0.0000  0.0000  0.2181  0.0000  0.2529  0.0000  0.0000
  23.  F 2 (pz)     0.0000  0.0000  0.7726  0.0000  0.0000  0.0000  0.0000 -0.0745
  24.  F 2 (d5)    -0.1066  0.0000  0.0000  0.2228  0.0000 -0.3334  0.0000  0.0000
  25.  F 2 (d2)     0.0000  0.0000  0.0000  0.0000  0.0000  0.0000  0.7461  0.0000
  26.  F 2 (d3)     0.0000  0.0000  0.1144  0.0000  0.0000  0.0000  0.0000  0.3314
  27.  F 2 (d4)    -0.0753  0.0000  0.0000 -0.1951  0.0000  0.1873  0.0000  0.0000
  28.  F 2 (d1)     0.0000  0.1375  0.0000  0.0000 -0.3079  0.0000  0.0000  0.0000
  29.  F 3 (s)      0.0025  0.0000  0.0000 -0.0190 -0.0158  0.0092  0.0000  0.0000
  30.  F 3 (s)     -0.1014  0.0000  0.0000  0.1394 -0.0455  0.0263  0.0000  0.0000
  31.  F 3 (px)    -0.2029  0.2631  0.0000 -0.2993 -0.4394  0.1525  0.0000  0.0000
  32.  F 3 (py)    -0.4776  0.4556  0.0000  0.1728  0.1525 -0.2634  0.0000  0.0000
  33.  F 3 (pz)     0.0000  0.0000 -0.5357  0.0000  0.0000  0.0000  0.0585 -0.0338
  34.  F 3 (s)      0.1766  0.0000  0.0000  0.0432  0.4926 -0.2844  0.0000  0.0000
  35.  F 3 (px)     0.1435 -0.3238  0.0000  0.1889  0.2360 -0.0293  0.0000  0.0000
  36.  F 3 (py)     0.7980 -0.5608  0.0000 -0.1091 -0.0293  0.2022  0.0000  0.0000
  37.  F 3 (pz)     0.0000  0.0000  0.7726  0.0000  0.0000  0.0000 -0.0646  0.0373
  38.  F 3 (d5)     0.0533  0.0000  0.0000  0.2228 -0.2888  0.1667  0.0000  0.0000
  39.  F 3 (d2)     0.0000  0.0000  0.0991  0.0000  0.0000  0.0000  0.4351  0.1796
  40.  F 3 (d3)     0.0000  0.0000 -0.0572  0.0000  0.0000  0.0000  0.1796  0.6425
  41.  F 3 (d4)     0.0939 -0.1191  0.0000  0.0976 -0.2145 -0.1841  0.0000  0.0000
  42.  F 3 (d1)     0.0977 -0.0688  0.0000 -0.1690  0.0635 -0.2145  0.0000  0.0000
  43.  F 4 (s)      0.0025  0.0000  0.0000 -0.0190  0.0158  0.0092  0.0000  0.0000
  44.  F 4 (s)     -0.1014  0.0000  0.0000  0.1394  0.0455  0.0263  0.0000  0.0000
  45.  F 4 (px)     0.2029  0.2631  0.0000  0.2993 -0.4394 -0.1525  0.0000  0.0000
  46.  F 4 (py)    -0.4776 -0.4556  0.0000  0.1728 -0.1525 -0.2634  0.0000  0.0000
  47.  F 4 (pz)     0.0000  0.0000 -0.5357  0.0000  0.0000  0.0000 -0.0585 -0.0338
  48.  F 4 (s)      0.1766  0.0000  0.0000  0.0432 -0.4926 -0.2844  0.0000  0.0000
  49.  F 4 (px)    -0.1435 -0.3238  0.0000 -0.1889  0.2360  0.0293  0.0000  0.0000
  50.  F 4 (py)     0.7980  0.5608  0.0000 -0.1091  0.0293  0.2022  0.0000  0.0000
  51.  F 4 (pz)     0.0000  0.0000  0.7726  0.0000  0.0000  0.0000  0.0646  0.0373
  52.  F 4 (d5)     0.0533  0.0000  0.0000  0.2228  0.2888  0.1667  0.0000  0.0000
  53.  F 4 (d2)     0.0000  0.0000 -0.0991  0.0000  0.0000  0.0000  0.4351 -0.1796
  54.  F 4 (d3)     0.0000  0.0000 -0.0572  0.0000  0.0000  0.0000 -0.1796  0.6425
  55.  F 4 (d4)     0.0939  0.1191  0.0000  0.0976  0.2145 -0.1841  0.0000  0.0000
  56.  F 4 (d1)    -0.0977 -0.0688  0.0000  0.1690  0.0635  0.2145  0.0000  0.0000

           AO         41      42      43      44      45      46      47      48
      ------------ ------- ------- ------- ------- ------- ------- ------- -------
   1.  B 1 (s)      0.0000  0.0000  0.0000  0.0000  0.0000 -0.0436  0.0000  0.0476
   2.  B 1 (s)      0.0000  0.0000  0.0000  0.0000  0.0000 -0.2265  0.0000  0.0163
   3.  B 1 (px)     0.0000 -0.1954  0.0000  0.0000  0.0102  0.0000  0.0000  0.0000
   4.  B 1 (py)     0.0000  0.0000 -0.1954  0.0102  0.0000  0.0000  0.0000  0.0000
   5.  B 1 (pz)     0.0000  0.0000  0.0000  0.0000  0.0000  0.0000  0.0000  0.0000
   6.  B 1 (s)      0.0000  0.0000  0.0000  0.0000  0.0000  1.6518  0.0000 -0.2293
   7.  B 1 (px)     0.0000 -0.3680  0.0000  0.0000 -1.1537  0.0000  0.0000  0.0000
   8.  B 1 (py)     0.0000  0.0000 -0.3680 -1.1537  0.0000  0.0000  0.0000  0.0000
   9.  B 1 (pz)     0.0000  0.0000  0.0000  0.0000  0.0000  0.0000  0.0000  0.0000
  10.  B 1 (d5)     0.0000  0.0000  0.0000  0.0000  0.0000 -0.2968  0.0000  0.6931
  11.  B 1 (d2)     0.0000  0.0000  0.0000  0.0000  0.0000  0.0000  0.0000  0.0000
  12.  B 1 (d3)     0.0000  0.0000  0.0000  0.0000  0.0000  0.0000  0.0000  0.0000
  13.  B 1 (d4)     0.0000  0.0000  0.2473  0.1862  0.0000  0.0000  0.0000  0.0000
  14.  B 1 (d1)     0.0000  0.2473  0.0000  0.0000  0.1862  0.0000  0.0000  0.0000
  15.  F 2 (s)      0.0000  0.0000 -0.0117  0.0527  0.0000 -0.0335  0.0000 -0.0166
  16.  F 2 (s)      0.0000  0.0000 -0.0305 -1.1127  0.0000  0.7961  0.0000  0.1125
  17.  F 2 (px)     0.0000 -0.1876  0.0000  0.0000 -0.2141  0.0000  0.1721  0.0000
  18.  F 2 (py)     0.0000  0.0000 -0.2606  0.0214  0.0000  0.0045  0.0000 -0.1996
  19.  F 2 (pz)     0.0000  0.0000  0.0000  0.0000  0.0000  0.0000  0.0000  0.0000
  20.  F 2 (s)      0.0000  0.0000  0.3647  1.7951  0.0000 -1.3264  0.0000  0.0897
  21.  F 2 (px)     0.0000  0.2682  0.0000  0.0000  0.4381  0.0000 -0.2220  0.0000
  22.  F 2 (py)     0.0000  0.0000  0.1318 -0.2347  0.0000  0.2612  0.0000  0.0592
  23.  F 2 (pz)     0.0000  0.0000  0.0000  0.0000  0.0000  0.0000  0.0000  0.0000
  24.  F 2 (d5)     0.0000  0.0000  0.6302  0.1825  0.0000 -0.1794  0.0000 -0.4398
  25.  F 2 (d2)     0.5787  0.0000  0.0000  0.0000  0.0000  0.0000  0.0000  0.0000
  26.  F 2 (d3)     0.0000  0.0000  0.0000  0.0000  0.0000  0.0000  0.0000  0.0000
  27.  F 2 (d4)     0.0000  0.0000 -0.3441  0.3250  0.0000 -0.2733  0.0000  0.2483
  28.  F 2 (d1)     0.0000 -0.2300  0.0000  0.0000  0.2674  0.0000  0.5755  0.0000
  29.  F 3 (s)      0.0000 -0.0101  0.0058 -0.0264  0.0457 -0.0335  0.0000 -0.0166
  30.  F 3 (s)      0.0000 -0.0264  0.0152  0.5563 -0.9636  0.7960  0.0000  0.1125
  31.  F 3 (px)     0.0000 -0.2424  0.0316 -0.1020 -0.0375  0.0039 -0.0861 -0.1728
  32.  F 3 (py)     0.0000  0.0316 -0.2059 -0.1553 -0.1020 -0.0022 -0.1491  0.0998
  33.  F 3 (pz)     0.0000  0.0000  0.0000  0.0000  0.0000  0.0000  0.0000  0.0000
  34.  F 3 (s)      0.0000  0.3158 -0.1824 -0.8976  1.5546 -1.3264  0.0000  0.0897
  35.  F 3 (px)     0.0000  0.1659  0.0591  0.2913 -0.0665  0.2262  0.1110  0.0513
  36.  F 3 (py)     0.0000  0.0591  0.2341  0.2699  0.2913 -0.1306  0.1922 -0.0296
  37.  F 3 (pz)     0.0000  0.0000  0.0000  0.0000  0.0000  0.0000  0.0000  0.0000
  38.  F 3 (d5)     0.0000  0.5457 -0.3151 -0.0913  0.1581 -0.1794  0.0000 -0.4398
  39.  F 3 (d2)    -0.2894  0.0000  0.0000  0.0000  0.0000  0.0000  0.0000  0.0000
  40.  F 3 (d3)    -0.5012  0.0000  0.0000  0.0000  0.0000  0.0000  0.0000  0.0000
  41.  F 3 (d4)     0.0000  0.0494 -0.2585  0.2818 -0.0249  0.1367 -0.4984 -0.1241
  42.  F 3 (d1)     0.0000 -0.3156  0.0494 -0.0249  0.3106 -0.2367 -0.2878  0.2150
  43.  F 4 (s)      0.0000  0.0101  0.0058 -0.0264 -0.0457 -0.0335  0.0000 -0.0166
  44.  F 4 (s)      0.0000  0.0264  0.0152  0.5563  0.9636  0.7960  0.0000  0.1125
  45.  F 4 (px)     0.0000 -0.2424 -0.0316  0.1020 -0.0375 -0.0039 -0.0861  0.1728
  46.  F 4 (py)     0.0000 -0.0316 -0.2059 -0.1553  0.1020 -0.0022  0.1491  0.0998
  47.  F 4 (pz)     0.0000  0.0000  0.0000  0.0000  0.0000  0.0000  0.0000  0.0000
  48.  F 4 (s)      0.0000 -0.3158 -0.1824 -0.8976 -1.5546 -1.3264  0.0000  0.0897
  49.  F 4 (px)     0.0000  0.1659 -0.0591 -0.2913 -0.0665 -0.2262  0.1110 -0.0513
  50.  F 4 (py)     0.0000 -0.0591  0.2341  0.2699 -0.2913 -0.1306 -0.1922 -0.0296
  51.  F 4 (pz)     0.0000  0.0000  0.0000  0.0000  0.0000  0.0000  0.0000  0.0000
  52.  F 4 (d5)     0.0000 -0.5457 -0.3151 -0.0913 -0.1581 -0.1794  0.0000 -0.4398
  53.  F 4 (d2)    -0.2894  0.0000  0.0000  0.0000  0.0000  0.0000  0.0000  0.0000
  54.  F 4 (d3)     0.5012  0.0000  0.0000  0.0000  0.0000  0.0000  0.0000  0.0000
  55.  F 4 (d4)     0.0000 -0.0494 -0.2585  0.2818  0.0249  0.1367  0.4984 -0.1241
  56.  F 4 (d1)     0.0000 -0.3156 -0.0494  0.0249  0.3106  0.2367 -0.2878 -0.2150

           AO         49      50      51      52      53      54      55      56
      ------------ ------- ------- ------- ------- ------- ------- ------- -------
   1.  B 1 (s)      0.0000  0.0000  0.0000  0.0000  0.0000  0.0000  0.0000  0.1428
   2.  B 1 (s)      0.0000  0.0000  0.0000  0.0000  0.0000  0.0000  0.0000  3.5779
   3.  B 1 (px)     0.0000  0.0000  0.0000  0.0000  0.7875  2.0353  0.0000  0.0000
   4.  B 1 (py)     0.0000  0.0000  0.0000 -0.7875  0.0000  0.0000  2.0353  0.0000
   5.  B 1 (pz)     0.5911  0.0000  0.0000  0.0000  0.0000  0.0000  0.0000  0.0000
   6.  B 1 (s)      0.0000  0.0000  0.0000  0.0000  0.0000  0.0000  0.0000  0.8047
   7.  B 1 (px)     0.0000  0.0000  0.0000  0.0000  0.4979  0.0446  0.0000  0.0000
   8.  B 1 (py)     0.0000  0.0000  0.0000 -0.4979  0.0000  0.0000  0.0446  0.0000
   9.  B 1 (pz)     0.1805  0.0000  0.0000  0.0000  0.0000  0.0000  0.0000  0.0000
  10.  B 1 (d5)     0.0000  0.0000  0.0000  0.0000  0.0000  0.0000  0.0000 -1.0015
  11.  B 1 (d2)     0.0000  0.0000  0.9926  0.0000  0.0000  0.0000  0.0000  0.0000
  12.  B 1 (d3)     0.0000  0.9926  0.0000  0.0000  0.0000  0.0000  0.0000  0.0000
  13.  B 1 (d4)     0.0000  0.0000  0.0000 -0.9136  0.0000  0.0000 -1.4002  0.0000
  14.  B 1 (d1)     0.0000  0.0000  0.0000  0.0000  0.9136 -1.4002  0.0000  0.0000
  15.  F 2 (s)      0.0000  0.0000  0.0000  0.0281  0.0000  0.0000  0.0236  0.0174
  16.  F 2 (s)      0.0000  0.0000  0.0000 -0.7110  0.0000  0.0000  0.6593  0.8089
  17.  F 2 (px)     0.0000  0.0000  0.0000  0.0000  0.1106 -0.0215  0.0000  0.0000
  18.  F 2 (py)     0.0000  0.0000  0.0000  0.3068  0.0000  0.0000  0.0080 -0.0889
  19.  F 2 (pz)     0.1517  0.0920  0.0000  0.0000  0.0000  0.0000  0.0000  0.0000
  20.  F 2 (s)      0.0000  0.0000  0.0000  0.9999  0.0000  0.0000 -2.0121 -2.0352
  21.  F 2 (px)     0.0000  0.0000  0.0000  0.0000 -0.5977  0.2029  0.0000  0.0000
  22.  F 2 (py)     0.0000  0.0000  0.0000 -0.4351  0.0000  0.0000  1.4906  1.3768
  23.  F 2 (pz)    -0.3162 -0.4112  0.0000  0.0000  0.0000  0.0000  0.0000  0.0000
  24.  F 2 (d5)     0.0000  0.0000  0.0000 -0.1581  0.0000  0.0000  0.5095  0.4713
  25.  F 2 (d2)     0.0000  0.0000 -0.3158  0.0000  0.0000  0.0000  0.0000  0.0000
  26.  F 2 (d3)     0.6217  0.8560  0.0000  0.0000  0.0000  0.0000  0.0000  0.0000
  27.  F 2 (d4)     0.0000  0.0000  0.0000 -0.1280  0.0000  0.0000  0.9995  0.7120
  28.  F 2 (d1)     0.0000  0.0000  0.0000  0.0000  0.8160 -0.3949  0.0000  0.0000
  29.  F 3 (s)      0.0000  0.0000  0.0000 -0.0140 -0.0243  0.0204 -0.0118  0.0174
  30.  F 3 (s)      0.0000  0.0000  0.0000  0.3555  0.6158  0.5710 -0.3297  0.8089
  31.  F 3 (px)     0.0000  0.0000  0.0000 -0.1808 -0.2025  0.0006 -0.0128 -0.0770
  32.  F 3 (py)     0.0000  0.0000  0.0000 -0.0062  0.1808 -0.0128 -0.0142  0.0445
  33.  F 3 (pz)     0.1517 -0.0460  0.0797  0.0000  0.0000  0.0000  0.0000  0.0000
  34.  F 3 (s)      0.0000  0.0000  0.0000 -0.5000 -0.8660 -1.7425  1.0060 -2.0352
  35.  F 3 (px)     0.0000  0.0000  0.0000  0.4472  0.1769  1.1687 -0.5576  1.1923
  36.  F 3 (py)     0.0000  0.0000  0.0000  0.3395 -0.4472 -0.5576  0.5248 -0.6884
  37.  F 3 (pz)    -0.3162  0.2056 -0.3561  0.0000  0.0000  0.0000  0.0000  0.0000
  38.  F 3 (d5)     0.0000  0.0000  0.0000  0.0790  0.1369  0.4413 -0.2548  0.4713
  39.  F 3 (d2)     0.5384 -0.5074  0.5631  0.0000  0.0000  0.0000  0.0000  0.0000
  40.  F 3 (d3)    -0.3109 -0.0228 -0.5074  0.0000  0.0000  0.0000  0.0000  0.0000
  41.  F 3 (d4)     0.0000  0.0000  0.0000 -0.6440  0.2979 -0.6038 -0.0463 -0.3560
  42.  F 3 (d1)     0.0000  0.0000  0.0000 -0.2979  0.3000  0.6509 -0.6038  0.6166
  43.  F 4 (s)      0.0000  0.0000  0.0000 -0.0140  0.0243 -0.0204 -0.0118  0.0174
  44.  F 4 (s)      0.0000  0.0000  0.0000  0.3555 -0.6158 -0.5710 -0.3297  0.8089
  45.  F 4 (px)     0.0000  0.0000  0.0000  0.1808 -0.2025  0.0006  0.0128  0.0770
  46.  F 4 (py)     0.0000  0.0000  0.0000 -0.0062 -0.1808  0.0128 -0.0142  0.0445
  47.  F 4 (pz)     0.1517 -0.0460 -0.0797  0.0000  0.0000  0.0000  0.0000  0.0000
  48.  F 4 (s)      0.0000  0.0000  0.0000 -0.5000  0.8660  1.7425  1.0060 -2.0352
  49.  F 4 (px)     0.0000  0.0000  0.0000 -0.4472  0.1769  1.1687  0.5576 -1.1923
  50.  F 4 (py)     0.0000  0.0000  0.0000  0.3395  0.4472  0.5576  0.5248 -0.6884
  51.  F 4 (pz)    -0.3162  0.2056  0.3561  0.0000  0.0000  0.0000  0.0000  0.0000
  52.  F 4 (d5)     0.0000  0.0000  0.0000  0.0790 -0.1369 -0.4413 -0.2548  0.4713
  53.  F 4 (d2)    -0.5384  0.5074  0.5631  0.0000  0.0000  0.0000  0.0000  0.0000
  54.  F 4 (d3)    -0.3109 -0.0228  0.5074  0.0000  0.0000  0.0000  0.0000  0.0000
  55.  F 4 (d4)     0.0000  0.0000  0.0000 -0.6440 -0.2979  0.6038 -0.0463 -0.3560
  56.  F 4 (d1)     0.0000  0.0000  0.0000  0.2979  0.3000  0.6509  0.6038 -0.6166


 AO overlap matrix:

           AO          1       2       3       4       5       6       7       8
      ------------ ------- ------- ------- ------- ------- ------- ------- -------
   1.  B 1 (s)      1.0000  0.2228  0.0000  0.0000  0.0000  0.1987  0.0000  0.0000
   2.  B 1 (s)      0.2228  1.0000  0.0000  0.0000  0.0000  0.8478  0.0000  0.0000
   3.  B 1 (px)     0.0000  0.0000  1.0000  0.0000  0.0000  0.0000  0.6236  0.0000
   4.  B 1 (py)     0.0000  0.0000  0.0000  1.0000  0.0000  0.0000  0.0000  0.6236
   5.  B 1 (pz)     0.0000  0.0000  0.0000  0.0000  1.0000  0.0000  0.0000  0.0000
   6.  B 1 (s)      0.1987  0.8478  0.0000  0.0000  0.0000  1.0000  0.0000  0.0000
   7.  B 1 (px)     0.0000  0.0000  0.6236  0.0000  0.0000  0.0000  1.0000  0.0000
   8.  B 1 (py)     0.0000  0.0000  0.0000  0.6236  0.0000  0.0000  0.0000  1.0000
   9.  B 1 (pz)     0.0000  0.0000  0.0000  0.0000  0.6236  0.0000  0.0000  0.0000
  10.  B 1 (d5)     0.0000  0.0000  0.0000  0.0000  0.0000  0.0000  0.0000  0.0000
  11.  B 1 (d2)     0.0000  0.0000  0.0000  0.0000  0.0000  0.0000  0.0000  0.0000
  12.  B 1 (d3)     0.0000  0.0000  0.0000  0.0000  0.0000  0.0000  0.0000  0.0000
  13.  B 1 (d4)     0.0000  0.0000  0.0000  0.0000  0.0000  0.0000  0.0000  0.0000
  14.  B 1 (d1)     0.0000  0.0000  0.0000  0.0000  0.0000  0.0000  0.0000  0.0000
  15.  F 2 (s)      0.0000  0.0222  0.0000  0.0431  0.0000  0.0372  0.0000  0.0654
  16.  F 2 (s)      0.0027  0.1482  0.0000  0.2514  0.0000  0.2153  0.0000  0.3482
  17.  F 2 (px)     0.0000  0.0000  0.0657  0.0000  0.0000  0.0000  0.0921  0.0000
  18.  F 2 (py)    -0.0065 -0.1337  0.0000 -0.1912  0.0000 -0.0819  0.0000 -0.0419
  19.  F 2 (pz)     0.0000  0.0000  0.0000  0.0000  0.0657  0.0000  0.0000  0.0000
  20.  F 2 (s)      0.0526  0.3451  0.0000  0.4195  0.0000  0.4594  0.0000  0.6034
  21.  F 2 (px)     0.0000  0.0000  0.2806  0.0000  0.0000  0.0000  0.4037  0.0000
  22.  F 2 (py)    -0.1408 -0.4946  0.0000 -0.3940  0.0000 -0.3590  0.0000 -0.0679
  23.  F 2 (pz)     0.0000  0.0000  0.0000  0.0000  0.2806  0.0000  0.0000  0.0000
  24.  F 2 (d5)    -0.0402 -0.1008  0.0000 -0.1055  0.0000 -0.0310  0.0000  0.0222
  25.  F 2 (d2)     0.0000  0.0000  0.0000  0.0000  0.0000  0.0000  0.0000  0.0000
  26.  F 2 (d3)     0.0000  0.0000  0.0000  0.0000 -0.2216  0.0000  0.0000  0.0000
  27.  F 2 (d4)    -0.0696 -0.1746  0.0000 -0.1827  0.0000 -0.0537  0.0000  0.0384
  28.  F 2 (d1)     0.0000  0.0000 -0.2216  0.0000  0.0000  0.0000 -0.1209  0.0000
  29.  F 3 (s)      0.0000  0.0222  0.0373 -0.0215  0.0000  0.0372  0.0566 -0.0327
  30.  F 3 (s)      0.0027  0.1482  0.2177 -0.1257  0.0000  0.2153  0.3016 -0.1741
  31.  F 3 (px)    -0.0056 -0.1158 -0.1270  0.1112  0.0000 -0.0709 -0.0084  0.0580
  32.  F 3 (py)     0.0032  0.0668  0.1112  0.0015  0.0000  0.0409  0.0580  0.0586
  33.  F 3 (pz)     0.0000  0.0000  0.0000  0.0000  0.0657  0.0000  0.0000  0.0000
  34.  F 3 (s)      0.0526  0.3451  0.3633 -0.2097  0.0000  0.4594  0.5226 -0.3017
  35.  F 3 (px)    -0.1219 -0.4283 -0.2254  0.2921  0.0000 -0.3109  0.0500  0.2042
  36.  F 3 (py)     0.0704  0.2473  0.2921  0.1119  0.0000  0.1795  0.2042  0.2858
  37.  F 3 (pz)     0.0000  0.0000  0.0000  0.0000  0.2806  0.0000  0.0000  0.0000
  38.  F 3 (d5)    -0.0402 -0.1008 -0.0913  0.0527  0.0000 -0.0310  0.0192 -0.0111
  39.  F 3 (d2)     0.0000  0.0000  0.0000  0.0000 -0.1919  0.0000  0.0000  0.0000
  40.  F 3 (d3)     0.0000  0.0000  0.0000  0.0000  0.1108  0.0000  0.0000  0.0000
  41.  F 3 (d4)     0.0348  0.0873 -0.0168 -0.2119  0.0000  0.0269 -0.0690 -0.0811
  42.  F 3 (d1)    -0.0603 -0.1512 -0.1924 -0.0168  0.0000 -0.0465 -0.0014 -0.0690
  43.  F 4 (s)      0.0000  0.0222 -0.0373 -0.0215  0.0000  0.0372 -0.0566 -0.0327
  44.  F 4 (s)      0.0027  0.1482 -0.2177 -0.1257  0.0000  0.2153 -0.3016 -0.1741
  45.  F 4 (px)     0.0056  0.1158 -0.1270 -0.1112  0.0000  0.0709 -0.0084 -0.0580
  46.  F 4 (py)     0.0032  0.0668 -0.1112  0.0015  0.0000  0.0409 -0.0580  0.0586
  47.  F 4 (pz)     0.0000  0.0000  0.0000  0.0000  0.0657  0.0000  0.0000  0.0000
  48.  F 4 (s)      0.0526  0.3451 -0.3633 -0.2097  0.0000  0.4594 -0.5226 -0.3017
  49.  F 4 (px)     0.1219  0.4283 -0.2254 -0.2921  0.0000  0.3109  0.0500 -0.2042
  50.  F 4 (py)     0.0704  0.2473 -0.2921  0.1119  0.0000  0.1795 -0.2042  0.2858
  51.  F 4 (pz)     0.0000  0.0000  0.0000  0.0000  0.2806  0.0000  0.0000  0.0000
  52.  F 4 (d5)    -0.0402 -0.1008  0.0913  0.0527  0.0000 -0.0310 -0.0192 -0.0111
  53.  F 4 (d2)     0.0000  0.0000  0.0000  0.0000  0.1919  0.0000  0.0000  0.0000
  54.  F 4 (d3)     0.0000  0.0000  0.0000  0.0000  0.1108  0.0000  0.0000  0.0000
  55.  F 4 (d4)     0.0348  0.0873  0.0168 -0.2119  0.0000  0.0269  0.0690 -0.0811
  56.  F 4 (d1)     0.0603  0.1512 -0.1924  0.0168  0.0000  0.0465 -0.0014  0.0690

           AO          9      10      11      12      13      14      15      16
      ------------ ------- ------- ------- ------- ------- ------- ------- -------
   1.  B 1 (s)      0.0000  0.0000  0.0000  0.0000  0.0000  0.0000  0.0000  0.0027
   2.  B 1 (s)      0.0000  0.0000  0.0000  0.0000  0.0000  0.0000  0.0222  0.1482
   3.  B 1 (px)     0.0000  0.0000  0.0000  0.0000  0.0000  0.0000  0.0000  0.0000
   4.  B 1 (py)     0.0000  0.0000  0.0000  0.0000  0.0000  0.0000  0.0431  0.2514
   5.  B 1 (pz)     0.6236  0.0000  0.0000  0.0000  0.0000  0.0000  0.0000  0.0000
   6.  B 1 (s)      0.0000  0.0000  0.0000  0.0000  0.0000  0.0000  0.0372  0.2153
   7.  B 1 (px)     0.0000  0.0000  0.0000  0.0000  0.0000  0.0000  0.0000  0.0000
   8.  B 1 (py)     0.0000  0.0000  0.0000  0.0000  0.0000  0.0000  0.0654  0.3482
   9.  B 1 (pz)     1.0000  0.0000  0.0000  0.0000  0.0000  0.0000  0.0000  0.0000
  10.  B 1 (d5)     0.0000  1.0000  0.0000  0.0000  0.0000  0.0000 -0.0274 -0.1445
  11.  B 1 (d2)     0.0000  0.0000  1.0000  0.0000  0.0000  0.0000  0.0000  0.0000
  12.  B 1 (d3)     0.0000  0.0000  0.0000  1.0000  0.0000  0.0000  0.0000  0.0000
  13.  B 1 (d4)     0.0000  0.0000  0.0000  0.0000  1.0000  0.0000 -0.0474 -0.2503
  14.  B 1 (d1)     0.0000  0.0000  0.0000  0.0000  0.0000  1.0000  0.0000  0.0000
  15.  F 2 (s)      0.0000 -0.0274  0.0000  0.0000 -0.0474  0.0000  1.0000  0.2443
  16.  F 2 (s)      0.0000 -0.1445  0.0000  0.0000 -0.2503  0.0000  0.2443  1.0000
  17.  F 2 (px)     0.0000  0.0000  0.0000  0.0000  0.0000  0.1330  0.0000  0.0000
  18.  F 2 (py)     0.0000  0.1279  0.0000  0.0000  0.2215  0.0000  0.0000  0.0000
  19.  F 2 (pz)     0.0921  0.0000  0.0000  0.1330  0.0000  0.0000  0.0000  0.0000
  20.  F 2 (s)      0.0000 -0.1419  0.0000  0.0000 -0.2457  0.0000  0.1716  0.7635
  21.  F 2 (px)     0.0000  0.0000  0.0000  0.0000  0.0000  0.3288  0.0000  0.0000
  22.  F 2 (py)     0.0000  0.0758  0.0000  0.0000  0.1312  0.0000  0.0000  0.0000
  23.  F 2 (pz)     0.4037  0.0000  0.0000  0.3288  0.0000  0.0000  0.0000  0.0000
  24.  F 2 (d5)     0.0000  0.1249  0.0000  0.0000  0.0195  0.0000  0.0000  0.0000
  25.  F 2 (d2)     0.0000  0.0000  0.1136  0.0000  0.0000  0.0000  0.0000  0.0000
  26.  F 2 (d3)    -0.1209  0.0000  0.0000 -0.3724  0.0000  0.0000  0.0000  0.0000
  27.  F 2 (d4)     0.0000  0.0195  0.0000  0.0000  0.1474  0.0000  0.0000  0.0000
  28.  F 2 (d1)     0.0000  0.0000  0.0000  0.0000  0.0000 -0.3724  0.0000  0.0000
  29.  F 3 (s)      0.0000 -0.0274  0.0000  0.0000  0.0237 -0.0410  0.0000  0.0000
  30.  F 3 (s)      0.0000 -0.1445  0.0000  0.0000  0.1252 -0.2168  0.0000  0.0000
  31.  F 3 (px)     0.0000  0.1108  0.0000  0.0000 -0.0383  0.1994  0.0000  0.0000
  32.  F 3 (py)     0.0000 -0.0639  0.0000  0.0000  0.1551 -0.0383  0.0000  0.0000
  33.  F 3 (pz)     0.0921  0.0000  0.1152 -0.0665  0.0000  0.0000  0.0000  0.0000
  34.  F 3 (s)      0.0000 -0.1419  0.0000  0.0000  0.1229 -0.2128  0.0003  0.0041
  35.  F 3 (px)     0.0000  0.0656  0.0000  0.0000  0.0855  0.1806 -0.0007 -0.0082
  36.  F 3 (py)     0.0000 -0.0379  0.0000  0.0000  0.2794  0.0855  0.0011  0.0143
  37.  F 3 (pz)     0.4037  0.0000  0.2847 -0.1644  0.0000  0.0000  0.0000  0.0000
  38.  F 3 (d5)     0.0000  0.1249  0.0000  0.0000 -0.0098  0.0169  0.0000 -0.0006
  39.  F 3 (d2)    -0.1047  0.0000 -0.2509  0.2104  0.0000  0.0000  0.0000  0.0000
  40.  F 3 (d3)     0.0604  0.0000  0.2104 -0.0079  0.0000  0.0000  0.0000  0.0000
  41.  F 3 (d4)     0.0000 -0.0098  0.0000  0.0000 -0.2424 -0.2251  0.0000 -0.0005
  42.  F 3 (d1)     0.0000  0.0169  0.0000  0.0000 -0.2251  0.0174  0.0000 -0.0009
  43.  F 4 (s)      0.0000 -0.0274  0.0000  0.0000  0.0237  0.0410  0.0000  0.0000
  44.  F 4 (s)      0.0000 -0.1445  0.0000  0.0000  0.1252  0.2168  0.0000  0.0000
  45.  F 4 (px)     0.0000 -0.1108  0.0000  0.0000  0.0383  0.1994  0.0000  0.0000
  46.  F 4 (py)     0.0000 -0.0639  0.0000  0.0000  0.1551  0.0383  0.0000  0.0000
  47.  F 4 (pz)     0.0921  0.0000 -0.1152 -0.0665  0.0000  0.0000  0.0000  0.0000
  48.  F 4 (s)      0.0000 -0.1419  0.0000  0.0000  0.1229  0.2128  0.0003  0.0041
  49.  F 4 (px)     0.0000 -0.0656  0.0000  0.0000 -0.0855  0.1806  0.0007  0.0082
  50.  F 4 (py)     0.0000 -0.0379  0.0000  0.0000  0.2794 -0.0855  0.0011  0.0143
  51.  F 4 (pz)     0.4037  0.0000 -0.2847 -0.1644  0.0000  0.0000  0.0000  0.0000
  52.  F 4 (d5)     0.0000  0.1249  0.0000  0.0000 -0.0098 -0.0169  0.0000 -0.0006
  53.  F 4 (d2)     0.1047  0.0000 -0.2509 -0.2104  0.0000  0.0000  0.0000  0.0000
  54.  F 4 (d3)     0.0604  0.0000 -0.2104 -0.0079  0.0000  0.0000  0.0000  0.0000
  55.  F 4 (d4)     0.0000 -0.0098  0.0000  0.0000 -0.2424  0.2251  0.0000 -0.0005
  56.  F 4 (d1)     0.0000 -0.0169  0.0000  0.0000  0.2251  0.0174  0.0000  0.0009

           AO         17      18      19      20      21      22      23      24
      ------------ ------- ------- ------- ------- ------- ------- ------- -------
   1.  B 1 (s)      0.0000 -0.0065  0.0000  0.0526  0.0000 -0.1408  0.0000 -0.0402
   2.  B 1 (s)      0.0000 -0.1337  0.0000  0.3451  0.0000 -0.4946  0.0000 -0.1008
   3.  B 1 (px)     0.0657  0.0000  0.0000  0.0000  0.2806  0.0000  0.0000  0.0000
   4.  B 1 (py)     0.0000 -0.1912  0.0000  0.4195  0.0000 -0.3940  0.0000 -0.1055
   5.  B 1 (pz)     0.0000  0.0000  0.0657  0.0000  0.0000  0.0000  0.2806  0.0000
   6.  B 1 (s)      0.0000 -0.0819  0.0000  0.4594  0.0000 -0.3590  0.0000 -0.0310
   7.  B 1 (px)     0.0921  0.0000  0.0000  0.0000  0.4037  0.0000  0.0000  0.0000
   8.  B 1 (py)     0.0000 -0.0419  0.0000  0.6034  0.0000 -0.0679  0.0000  0.0222
   9.  B 1 (pz)     0.0000  0.0000  0.0921  0.0000  0.0000  0.0000  0.4037  0.0000
  10.  B 1 (d5)     0.0000  0.1279  0.0000 -0.1419  0.0000  0.0758  0.0000  0.1249
  11.  B 1 (d2)     0.0000  0.0000  0.0000  0.0000  0.0000  0.0000  0.0000  0.0000
  12.  B 1 (d3)     0.0000  0.0000  0.1330  0.0000  0.0000  0.0000  0.3288  0.0000
  13.  B 1 (d4)     0.0000  0.2215  0.0000 -0.2457  0.0000  0.1312  0.0000  0.0195
  14.  B 1 (d1)     0.1330  0.0000  0.0000  0.0000  0.3288  0.0000  0.0000  0.0000
  15.  F 2 (s)      0.0000  0.0000  0.0000  0.1716  0.0000  0.0000  0.0000  0.0000
  16.  F 2 (s)      0.0000  0.0000  0.0000  0.7635  0.0000  0.0000  0.0000  0.0000
  17.  F 2 (px)     1.0000  0.0000  0.0000  0.0000  0.4995  0.0000  0.0000  0.0000
  18.  F 2 (py)     0.0000  1.0000  0.0000  0.0000  0.0000  0.4995  0.0000  0.0000
  19.  F 2 (pz)     0.0000  0.0000  1.0000  0.0000  0.0000  0.0000  0.4995  0.0000
  20.  F 2 (s)      0.0000  0.0000  0.0000  1.0000  0.0000  0.0000  0.0000  0.0000
  21.  F 2 (px)     0.4995  0.0000  0.0000  0.0000  1.0000  0.0000  0.0000  0.0000
  22.  F 2 (py)     0.0000  0.4995  0.0000  0.0000  0.0000  1.0000  0.0000  0.0000
  23.  F 2 (pz)     0.0000  0.0000  0.4995  0.0000  0.0000  0.0000  1.0000  0.0000
  24.  F 2 (d5)     0.0000  0.0000  0.0000  0.0000  0.0000  0.0000  0.0000  1.0000
  25.  F 2 (d2)     0.0000  0.0000  0.0000  0.0000  0.0000  0.0000  0.0000  0.0000
  26.  F 2 (d3)     0.0000  0.0000  0.0000  0.0000  0.0000  0.0000  0.0000  0.0000
  27.  F 2 (d4)     0.0000  0.0000  0.0000  0.0000  0.0000  0.0000  0.0000  0.0000
  28.  F 2 (d1)     0.0000  0.0000  0.0000  0.0000  0.0000  0.0000  0.0000  0.0000
  29.  F 3 (s)      0.0000  0.0000  0.0000  0.0003  0.0007 -0.0011  0.0000  0.0000
  30.  F 3 (s)      0.0000  0.0000  0.0000  0.0041  0.0082 -0.0143  0.0000 -0.0006
  31.  F 3 (px)     0.0000  0.0000  0.0000 -0.0030 -0.0039  0.0107  0.0000  0.0007
  32.  F 3 (py)     0.0000  0.0000  0.0000  0.0052  0.0107 -0.0162  0.0000 -0.0011
  33.  F 3 (pz)     0.0000  0.0000  0.0000  0.0000  0.0000  0.0000  0.0023  0.0000
  34.  F 3 (s)      0.0030 -0.0052  0.0000  0.0350  0.0453 -0.0785  0.0000 -0.0143
  35.  F 3 (px)    -0.0039  0.0107  0.0000 -0.0453 -0.0237  0.1017  0.0000  0.0201
  36.  F 3 (py)     0.0107 -0.0162  0.0000  0.0785  0.1017 -0.1411  0.0000 -0.0348
  37.  F 3 (pz)     0.0000  0.0000  0.0023  0.0000  0.0000  0.0000  0.0350  0.0000
  38.  F 3 (d5)    -0.0007  0.0011  0.0000 -0.0143 -0.0201  0.0348  0.0000  0.0082
  39.  F 3 (d2)     0.0000  0.0000 -0.0001  0.0000  0.0000  0.0000 -0.0096  0.0000
  40.  F 3 (d3)     0.0000  0.0000  0.0002  0.0000  0.0000  0.0000  0.0166  0.0000
  41.  F 3 (d4)    -0.0008  0.0009  0.0000 -0.0124 -0.0318  0.0218  0.0000  0.0066
  42.  F 3 (d1)    -0.0009  0.0018  0.0000 -0.0215 -0.0218  0.0570  0.0000  0.0115
  43.  F 4 (s)      0.0000  0.0000  0.0000  0.0003 -0.0007 -0.0011  0.0000  0.0000
  44.  F 4 (s)      0.0000  0.0000  0.0000  0.0041 -0.0082 -0.0143  0.0000 -0.0006
  45.  F 4 (px)     0.0000  0.0000  0.0000  0.0030 -0.0039 -0.0107  0.0000 -0.0007
  46.  F 4 (py)     0.0000  0.0000  0.0000  0.0052 -0.0107 -0.0162  0.0000 -0.0011
  47.  F 4 (pz)     0.0000  0.0000  0.0000  0.0000  0.0000  0.0000  0.0023  0.0000
  48.  F 4 (s)     -0.0030 -0.0052  0.0000  0.0350 -0.0453 -0.0785  0.0000 -0.0143
  49.  F 4 (px)    -0.0039 -0.0107  0.0000  0.0453 -0.0237 -0.1017  0.0000 -0.0201
  50.  F 4 (py)    -0.0107 -0.0162  0.0000  0.0785 -0.1017 -0.1411  0.0000 -0.0348
  51.  F 4 (pz)     0.0000  0.0000  0.0023  0.0000  0.0000  0.0000  0.0350  0.0000
  52.  F 4 (d5)     0.0007  0.0011  0.0000 -0.0143  0.0201  0.0348  0.0000  0.0082
  53.  F 4 (d2)     0.0000  0.0000  0.0001  0.0000  0.0000  0.0000  0.0096  0.0000
  54.  F 4 (d3)     0.0000  0.0000  0.0002  0.0000  0.0000  0.0000  0.0166  0.0000
  55.  F 4 (d4)     0.0008  0.0009  0.0000 -0.0124  0.0318  0.0218  0.0000  0.0066
  56.  F 4 (d1)    -0.0009 -0.0018  0.0000  0.0215 -0.0218 -0.0570  0.0000 -0.0115

           AO         25      26      27      28      29      30      31      32
      ------------ ------- ------- ------- ------- ------- ------- ------- -------
   1.  B 1 (s)      0.0000  0.0000 -0.0696  0.0000  0.0000  0.0027 -0.0056  0.0032
   2.  B 1 (s)      0.0000  0.0000 -0.1746  0.0000  0.0222  0.1482 -0.1158  0.0668
   3.  B 1 (px)     0.0000  0.0000  0.0000 -0.2216  0.0373  0.2177 -0.1270  0.1112
   4.  B 1 (py)     0.0000  0.0000 -0.1827  0.0000 -0.0215 -0.1257  0.1112  0.0015
   5.  B 1 (pz)     0.0000 -0.2216  0.0000  0.0000  0.0000  0.0000  0.0000  0.0000
   6.  B 1 (s)      0.0000  0.0000 -0.0537  0.0000  0.0372  0.2153 -0.0709  0.0409
   7.  B 1 (px)     0.0000  0.0000  0.0000 -0.1209  0.0566  0.3016 -0.0084  0.0580
   8.  B 1 (py)     0.0000  0.0000  0.0384  0.0000 -0.0327 -0.1741  0.0580  0.0586
   9.  B 1 (pz)     0.0000 -0.1209  0.0000  0.0000  0.0000  0.0000  0.0000  0.0000
  10.  B 1 (d5)     0.0000  0.0000  0.0195  0.0000 -0.0274 -0.1445  0.1108 -0.0639
  11.  B 1 (d2)     0.1136  0.0000  0.0000  0.0000  0.0000  0.0000  0.0000  0.0000
  12.  B 1 (d3)     0.0000 -0.3724  0.0000  0.0000  0.0000  0.0000  0.0000  0.0000
  13.  B 1 (d4)     0.0000  0.0000  0.1474  0.0000  0.0237  0.1252 -0.0383  0.1551
  14.  B 1 (d1)     0.0000  0.0000  0.0000 -0.3724 -0.0410 -0.2168  0.1994 -0.0383
  15.  F 2 (s)      0.0000  0.0000  0.0000  0.0000  0.0000  0.0000  0.0000  0.0000
  16.  F 2 (s)      0.0000  0.0000  0.0000  0.0000  0.0000  0.0000  0.0000  0.0000
  17.  F 2 (px)     0.0000  0.0000  0.0000  0.0000  0.0000  0.0000  0.0000  0.0000
  18.  F 2 (py)     0.0000  0.0000  0.0000  0.0000  0.0000  0.0000  0.0000  0.0000
  19.  F 2 (pz)     0.0000  0.0000  0.0000  0.0000  0.0000  0.0000  0.0000  0.0000
  20.  F 2 (s)      0.0000  0.0000  0.0000  0.0000  0.0003  0.0041 -0.0030  0.0052
  21.  F 2 (px)     0.0000  0.0000  0.0000  0.0000  0.0007  0.0082 -0.0039  0.0107
  22.  F 2 (py)     0.0000  0.0000  0.0000  0.0000 -0.0011 -0.0143  0.0107 -0.0162
  23.  F 2 (pz)     0.0000  0.0000  0.0000  0.0000  0.0000  0.0000  0.0000  0.0000
  24.  F 2 (d5)     0.0000  0.0000  0.0000  0.0000  0.0000 -0.0006  0.0007 -0.0011
  25.  F 2 (d2)     1.0000  0.0000  0.0000  0.0000  0.0000  0.0000  0.0000  0.0000
  26.  F 2 (d3)     0.0000  1.0000  0.0000  0.0000  0.0000  0.0000  0.0000  0.0000
  27.  F 2 (d4)     0.0000  0.0000  1.0000  0.0000  0.0000 -0.0005  0.0008 -0.0009
  28.  F 2 (d1)     0.0000  0.0000  0.0000  1.0000  0.0000 -0.0009  0.0009 -0.0018
  29.  F 3 (s)      0.0000  0.0000  0.0000  0.0000  1.0000  0.2443  0.0000  0.0000
  30.  F 3 (s)      0.0000  0.0000 -0.0005 -0.0009  0.2443  1.0000  0.0000  0.0000
  31.  F 3 (px)     0.0000  0.0000  0.0008  0.0009  0.0000  0.0000  1.0000  0.0000
  32.  F 3 (py)     0.0000  0.0000 -0.0009 -0.0018  0.0000  0.0000  0.0000  1.0000
  33.  F 3 (pz)     0.0001 -0.0002  0.0000  0.0000  0.0000  0.0000  0.0000  0.0000
  34.  F 3 (s)      0.0000  0.0000 -0.0124 -0.0215  0.1716  0.7635  0.0000  0.0000
  35.  F 3 (px)     0.0000  0.0000  0.0318  0.0218  0.0000  0.0000  0.4995  0.0000
  36.  F 3 (py)     0.0000  0.0000 -0.0218 -0.0570  0.0000  0.0000  0.0000  0.4995
  37.  F 3 (pz)     0.0096 -0.0166  0.0000  0.0000  0.0000  0.0000  0.0000  0.0000
  38.  F 3 (d5)     0.0000  0.0000  0.0066  0.0115  0.0000  0.0000  0.0000  0.0000
  39.  F 3 (d2)    -0.0015  0.0036  0.0000  0.0000  0.0000  0.0000  0.0000  0.0000
  40.  F 3 (d3)     0.0036 -0.0057  0.0000  0.0000  0.0000  0.0000  0.0000  0.0000
  41.  F 3 (d4)     0.0000  0.0000  0.0000  0.0136  0.0000  0.0000  0.0000  0.0000
  42.  F 3 (d1)     0.0000  0.0000  0.0136  0.0157  0.0000  0.0000  0.0000  0.0000
  43.  F 4 (s)      0.0000  0.0000  0.0000  0.0000  0.0000  0.0000  0.0000  0.0000
  44.  F 4 (s)      0.0000  0.0000 -0.0005  0.0009  0.0000  0.0000  0.0000  0.0000
  45.  F 4 (px)     0.0000  0.0000 -0.0008  0.0009  0.0000  0.0000  0.0000  0.0000
  46.  F 4 (py)     0.0000  0.0000 -0.0009  0.0018  0.0000  0.0000  0.0000  0.0000
  47.  F 4 (pz)    -0.0001 -0.0002  0.0000  0.0000  0.0000  0.0000  0.0000  0.0000
  48.  F 4 (s)      0.0000  0.0000 -0.0124  0.0215  0.0003  0.0041 -0.0060  0.0000
  49.  F 4 (px)     0.0000  0.0000 -0.0318  0.0218  0.0013  0.0165 -0.0224  0.0000
  50.  F 4 (py)     0.0000  0.0000 -0.0218  0.0570  0.0000  0.0000  0.0000  0.0023
  51.  F 4 (pz)    -0.0096 -0.0166  0.0000  0.0000  0.0000  0.0000  0.0000  0.0000
  52.  F 4 (d5)     0.0000  0.0000  0.0066 -0.0115  0.0000 -0.0006  0.0013  0.0000
  53.  F 4 (d2)    -0.0015 -0.0036  0.0000  0.0000  0.0000  0.0000  0.0000  0.0000
  54.  F 4 (d3)    -0.0036 -0.0057  0.0000  0.0000  0.0000  0.0000  0.0000  0.0000
  55.  F 4 (d4)     0.0000  0.0000  0.0000 -0.0136  0.0000  0.0011 -0.0023  0.0000
  56.  F 4 (d1)     0.0000  0.0000 -0.0136  0.0157  0.0000  0.0000  0.0000  0.0003

           AO         33      34      35      36      37      38      39      40
      ------------ ------- ------- ------- ------- ------- ------- ------- -------
   1.  B 1 (s)      0.0000  0.0526 -0.1219  0.0704  0.0000 -0.0402  0.0000  0.0000
   2.  B 1 (s)      0.0000  0.3451 -0.4283  0.2473  0.0000 -0.1008  0.0000  0.0000
   3.  B 1 (px)     0.0000  0.3633 -0.2254  0.2921  0.0000 -0.0913  0.0000  0.0000
   4.  B 1 (py)     0.0000 -0.2097  0.2921  0.1119  0.0000  0.0527  0.0000  0.0000
   5.  B 1 (pz)     0.0657  0.0000  0.0000  0.0000  0.2806  0.0000 -0.1919  0.1108
   6.  B 1 (s)      0.0000  0.4594 -0.3109  0.1795  0.0000 -0.0310  0.0000  0.0000
   7.  B 1 (px)     0.0000  0.5226  0.0500  0.2042  0.0000  0.0192  0.0000  0.0000
   8.  B 1 (py)     0.0000 -0.3017  0.2042  0.2858  0.0000 -0.0111  0.0000  0.0000
   9.  B 1 (pz)     0.0921  0.0000  0.0000  0.0000  0.4037  0.0000 -0.1047  0.0604
  10.  B 1 (d5)     0.0000 -0.1419  0.0656 -0.0379  0.0000  0.1249  0.0000  0.0000
  11.  B 1 (d2)     0.1152  0.0000  0.0000  0.0000  0.2847  0.0000 -0.2509  0.2104
  12.  B 1 (d3)    -0.0665  0.0000  0.0000  0.0000 -0.1644  0.0000  0.2104 -0.0079
  13.  B 1 (d4)     0.0000  0.1229  0.0855  0.2794  0.0000 -0.0098  0.0000  0.0000
  14.  B 1 (d1)     0.0000 -0.2128  0.1806  0.0855  0.0000  0.0169  0.0000  0.0000
  15.  F 2 (s)      0.0000  0.0003 -0.0007  0.0011  0.0000  0.0000  0.0000  0.0000
  16.  F 2 (s)      0.0000  0.0041 -0.0082  0.0143  0.0000 -0.0006  0.0000  0.0000
  17.  F 2 (px)     0.0000  0.0030 -0.0039  0.0107  0.0000 -0.0007  0.0000  0.0000
  18.  F 2 (py)     0.0000 -0.0052  0.0107 -0.0162  0.0000  0.0011  0.0000  0.0000
  19.  F 2 (pz)     0.0000  0.0000  0.0000  0.0000  0.0023  0.0000 -0.0001  0.0002
  20.  F 2 (s)      0.0000  0.0350 -0.0453  0.0785  0.0000 -0.0143  0.0000  0.0000
  21.  F 2 (px)     0.0000  0.0453 -0.0237  0.1017  0.0000 -0.0201  0.0000  0.0000
  22.  F 2 (py)     0.0000 -0.0785  0.1017 -0.1411  0.0000  0.0348  0.0000  0.0000
  23.  F 2 (pz)     0.0023  0.0000  0.0000  0.0000  0.0350  0.0000 -0.0096  0.0166
  24.  F 2 (d5)     0.0000 -0.0143  0.0201 -0.0348  0.0000  0.0082  0.0000  0.0000
  25.  F 2 (d2)     0.0001  0.0000  0.0000  0.0000  0.0096  0.0000 -0.0015  0.0036
  26.  F 2 (d3)    -0.0002  0.0000  0.0000  0.0000 -0.0166  0.0000  0.0036 -0.0057
  27.  F 2 (d4)     0.0000 -0.0124  0.0318 -0.0218  0.0000  0.0066  0.0000  0.0000
  28.  F 2 (d1)     0.0000 -0.0215  0.0218 -0.0570  0.0000  0.0115  0.0000  0.0000
  29.  F 3 (s)      0.0000  0.1716  0.0000  0.0000  0.0000  0.0000  0.0000  0.0000
  30.  F 3 (s)      0.0000  0.7635  0.0000  0.0000  0.0000  0.0000  0.0000  0.0000
  31.  F 3 (px)     0.0000  0.0000  0.4995  0.0000  0.0000  0.0000  0.0000  0.0000
  32.  F 3 (py)     0.0000  0.0000  0.0000  0.4995  0.0000  0.0000  0.0000  0.0000
  33.  F 3 (pz)     1.0000  0.0000  0.0000  0.0000  0.4995  0.0000  0.0000  0.0000
  34.  F 3 (s)      0.0000  1.0000  0.0000  0.0000  0.0000  0.0000  0.0000  0.0000
  35.  F 3 (px)     0.0000  0.0000  1.0000  0.0000  0.0000  0.0000  0.0000  0.0000
  36.  F 3 (py)     0.0000  0.0000  0.0000  1.0000  0.0000  0.0000  0.0000  0.0000
  37.  F 3 (pz)     0.4995  0.0000  0.0000  0.0000  1.0000  0.0000  0.0000  0.0000
  38.  F 3 (d5)     0.0000  0.0000  0.0000  0.0000  0.0000  1.0000  0.0000  0.0000
  39.  F 3 (d2)     0.0000  0.0000  0.0000  0.0000  0.0000  0.0000  1.0000  0.0000
  40.  F 3 (d3)     0.0000  0.0000  0.0000  0.0000  0.0000  0.0000  0.0000  1.0000
  41.  F 3 (d4)     0.0000  0.0000  0.0000  0.0000  0.0000  0.0000  0.0000  0.0000
  42.  F 3 (d1)     0.0000  0.0000  0.0000  0.0000  0.0000  0.0000  0.0000  0.0000
  43.  F 4 (s)      0.0000  0.0003 -0.0013  0.0000  0.0000  0.0000  0.0000  0.0000
  44.  F 4 (s)      0.0000  0.0041 -0.0165  0.0000  0.0000 -0.0006  0.0000  0.0000
  45.  F 4 (px)     0.0000  0.0060 -0.0224  0.0000  0.0000 -0.0013  0.0000  0.0000
  46.  F 4 (py)     0.0000  0.0000  0.0000  0.0023  0.0000  0.0000  0.0000  0.0000
  47.  F 4 (pz)     0.0000  0.0000  0.0000  0.0000  0.0023  0.0000 -0.0003  0.0000
  48.  F 4 (s)      0.0000  0.0350 -0.0907  0.0000  0.0000 -0.0143  0.0000  0.0000
  49.  F 4 (px)     0.0000  0.0907 -0.1998  0.0000  0.0000 -0.0402  0.0000  0.0000
  50.  F 4 (py)     0.0000  0.0000  0.0000  0.0350  0.0000  0.0000  0.0000  0.0000
  51.  F 4 (pz)     0.0023  0.0000  0.0000  0.0000  0.0350  0.0000 -0.0192  0.0000
  52.  F 4 (d5)     0.0000 -0.0143  0.0402  0.0000  0.0000  0.0082  0.0000  0.0000
  53.  F 4 (d2)     0.0003  0.0000  0.0000  0.0000  0.0192  0.0000 -0.0078  0.0000
  54.  F 4 (d3)     0.0000  0.0000  0.0000  0.0000  0.0000  0.0000  0.0000  0.0006
  55.  F 4 (d4)     0.0000  0.0248 -0.0696  0.0000  0.0000 -0.0133  0.0000  0.0000
  56.  F 4 (d1)     0.0000  0.0000  0.0000  0.0192  0.0000  0.0000  0.0000  0.0000

           AO         41      42      43      44      45      46      47      48
      ------------ ------- ------- ------- ------- ------- ------- ------- -------
   1.  B 1 (s)      0.0348 -0.0603  0.0000  0.0027  0.0056  0.0032  0.0000  0.0526
   2.  B 1 (s)      0.0873 -0.1512  0.0222  0.1482  0.1158  0.0668  0.0000  0.3451
   3.  B 1 (px)    -0.0168 -0.1924 -0.0373 -0.2177 -0.1270 -0.1112  0.0000 -0.3633
   4.  B 1 (py)    -0.2119 -0.0168 -0.0215 -0.1257 -0.1112  0.0015  0.0000 -0.2097
   5.  B 1 (pz)     0.0000  0.0000  0.0000  0.0000  0.0000  0.0000  0.0657  0.0000
   6.  B 1 (s)      0.0269 -0.0465  0.0372  0.2153  0.0709  0.0409  0.0000  0.4594
   7.  B 1 (px)    -0.0690 -0.0014 -0.0566 -0.3016 -0.0084 -0.0580  0.0000 -0.5226
   8.  B 1 (py)    -0.0811 -0.0690 -0.0327 -0.1741 -0.0580  0.0586  0.0000 -0.3017
   9.  B 1 (pz)     0.0000  0.0000  0.0000  0.0000  0.0000  0.0000  0.0921  0.0000
  10.  B 1 (d5)    -0.0098  0.0169 -0.0274 -0.1445 -0.1108 -0.0639  0.0000 -0.1419
  11.  B 1 (d2)     0.0000  0.0000  0.0000  0.0000  0.0000  0.0000 -0.1152  0.0000
  12.  B 1 (d3)     0.0000  0.0000  0.0000  0.0000  0.0000  0.0000 -0.0665  0.0000
  13.  B 1 (d4)    -0.2424 -0.2251  0.0237  0.1252  0.0383  0.1551  0.0000  0.1229
  14.  B 1 (d1)    -0.2251  0.0174  0.0410  0.2168  0.1994  0.0383  0.0000  0.2128
  15.  F 2 (s)      0.0000  0.0000  0.0000  0.0000  0.0000  0.0000  0.0000  0.0003
  16.  F 2 (s)     -0.0005 -0.0009  0.0000  0.0000  0.0000  0.0000  0.0000  0.0041
  17.  F 2 (px)    -0.0008 -0.0009  0.0000  0.0000  0.0000  0.0000  0.0000 -0.0030
  18.  F 2 (py)     0.0009  0.0018  0.0000  0.0000  0.0000  0.0000  0.0000 -0.0052
  19.  F 2 (pz)     0.0000  0.0000  0.0000  0.0000  0.0000  0.0000  0.0000  0.0000
  20.  F 2 (s)     -0.0124 -0.0215  0.0003  0.0041  0.0030  0.0052  0.0000  0.0350
  21.  F 2 (px)    -0.0318 -0.0218 -0.0007 -0.0082 -0.0039 -0.0107  0.0000 -0.0453
  22.  F 2 (py)     0.0218  0.0570 -0.0011 -0.0143 -0.0107 -0.0162  0.0000 -0.0785
  23.  F 2 (pz)     0.0000  0.0000  0.0000  0.0000  0.0000  0.0000  0.0023  0.0000
  24.  F 2 (d5)     0.0066  0.0115  0.0000 -0.0006 -0.0007 -0.0011  0.0000 -0.0143
  25.  F 2 (d2)     0.0000  0.0000  0.0000  0.0000  0.0000  0.0000 -0.0001  0.0000
  26.  F 2 (d3)     0.0000  0.0000  0.0000  0.0000  0.0000  0.0000 -0.0002  0.0000
  27.  F 2 (d4)     0.0000  0.0136  0.0000 -0.0005 -0.0008 -0.0009  0.0000 -0.0124
  28.  F 2 (d1)     0.0136  0.0157  0.0000  0.0009  0.0009  0.0018  0.0000  0.0215
  29.  F 3 (s)      0.0000  0.0000  0.0000  0.0000  0.0000  0.0000  0.0000  0.0003
  30.  F 3 (s)      0.0000  0.0000  0.0000  0.0000  0.0000  0.0000  0.0000  0.0041
  31.  F 3 (px)     0.0000  0.0000  0.0000  0.0000  0.0000  0.0000  0.0000 -0.0060
  32.  F 3 (py)     0.0000  0.0000  0.0000  0.0000  0.0000  0.0000  0.0000  0.0000
  33.  F 3 (pz)     0.0000  0.0000  0.0000  0.0000  0.0000  0.0000  0.0000  0.0000
  34.  F 3 (s)      0.0000  0.0000  0.0003  0.0041  0.0060  0.0000  0.0000  0.0350
  35.  F 3 (px)     0.0000  0.0000 -0.0013 -0.0165 -0.0224  0.0000  0.0000 -0.0907
  36.  F 3 (py)     0.0000  0.0000  0.0000  0.0000  0.0000  0.0023  0.0000  0.0000
[...]
                                         0.3907 -0.0005  0.0000  0.0000 -0.0440
                                         0.0000  0.0000  0.0254 -0.0272
  16. (1.99795) BD ( 1) B  1- F  4
               ( 15.35%)   0.3918* B  1 s( 33.28%)p 1.98( 65.94%)d 0.02(  0.78%)
                                         0.0000  0.5769  0.0003 -0.7009  0.0568
                                        -0.4047  0.0328  0.0000  0.0000  0.0739
                                         0.0000  0.0000  0.0426 -0.0233
               ( 84.65%)   0.9200* F  4 s( 38.60%)p 1.58( 61.07%)d 0.01(  0.33%)
                                         0.0000  0.6212  0.0048  0.6768 -0.0008
                                         0.3907 -0.0005  0.0000  0.0000  0.0440
                                         0.0000  0.0000  0.0254 -0.0272
 ---------------- non-Lewis ----------------------------------------------------
  17. (0.25029) LV ( 1) B  1            s(  0.00%)p 1.00(100.00%)
                                         0.0000  0.0000  0.0000  0.0000  0.0000
                                         0.0000  0.0000  0.9960  0.0889  0.0000
                                         0.0000  0.0000  0.0000  0.0000
  18. (0.03991) BD*( 1) B  1- F  2
               ( 84.65%)   0.9200* B  1 s( 33.28%)p 1.98( 65.94%)d 0.02(  0.78%)
                                         0.0000  0.5769  0.0003  0.0000  0.0000
                                         0.8094 -0.0656  0.0000  0.0000  0.0000
                                         0.0000  0.0000 -0.0853 -0.0233
               ( 15.35%)  -0.3918* F  2 s( 38.60%)p 1.58( 61.07%)d 0.01(  0.33%)
                                         0.0000  0.6212  0.0048  0.0000  0.0000
                                        -0.7815  0.0009  0.0000  0.0000  0.0000
                                         0.0000  0.0000 -0.0508 -0.0272
  19. (0.03991) BD*( 1) B  1- F  3
               ( 84.65%)   0.9200* B  1 s( 33.28%)p 1.98( 65.94%)d 0.02(  0.78%)
                                         0.0000  0.5769  0.0003  0.7009 -0.0568
                                        -0.4047  0.0328  0.0000  0.0000 -0.0739
                                         0.0000  0.0000  0.0426 -0.0233
               ( 15.35%)  -0.3918* F  3 s( 38.60%)p 1.58( 61.07%)d 0.01(  0.33%)
                                         0.0000  0.6212  0.0048 -0.6768  0.0008
                                         0.3907 -0.0005  0.0000  0.0000 -0.0440
                                         0.0000  0.0000  0.0254 -0.0272
  20. (0.03991) BD*( 1) B  1- F  4
               ( 84.65%)   0.9200* B  1 s( 33.28%)p 1.98( 65.94%)d 0.02(  0.78%)
                                         0.0000  0.5769  0.0003 -0.7009  0.0568
                                        -0.4047  0.0328  0.0000  0.0000  0.0739
                                         0.0000  0.0000  0.0426 -0.0233
               ( 15.35%)  -0.3918* F  4 s( 38.60%)p 1.58( 61.07%)d 0.01(  0.33%)
                                         0.0000  0.6212  0.0048  0.6768 -0.0008
                                         0.3907 -0.0005  0.0000  0.0000  0.0440
                                         0.0000  0.0000  0.0254 -0.0272
  21. (0.01169) RY ( 1) B  1            s(  0.00%)p 1.00( 71.34%)d 0.40( 28.66%)
                                         0.0000  0.0000  0.0000  0.0000  0.0000
                                         0.1241  0.8355  0.0000  0.0000  0.0000
                                         0.0000  0.0000  0.5353  0.0000
  22. (0.01169) RY ( 2) B  1            s(  0.00%)p 1.00( 71.34%)d 0.40( 28.66%)
                                         0.0000  0.0000  0.0000  0.1241  0.8355
                                         0.0000  0.0000  0.0000  0.0000  0.5353
                                         0.0000  0.0000  0.0000  0.0000
  23. (0.00240) RY ( 3) B  1            s(  0.00%)p 0.00(  0.00%)d 1.00(100.00%)
                                         0.0000  0.0000  0.0000  0.0000  0.0000
                                         0.0000  0.0000  0.0000  0.0000  0.0000
                                         0.0000  1.0000  0.0000  0.0000
  24. (0.00240) RY ( 4) B  1            s(  0.00%)p 0.00(  0.00%)d 1.00(100.00%)
                                         0.0000  0.0000  0.0000  0.0000  0.0000
                                         0.0000  0.0000  0.0000  0.0000  0.0000
                                         1.0000  0.0000  0.0000  0.0000
  25. (0.00148) RY ( 5) B  1            s(  0.00%)p 1.00( 29.75%)d 2.36( 70.25%)
                                         0.0000  0.0000  0.0000  0.0443 -0.5436
                                         0.0000  0.0000  0.0000  0.0000  0.8382
                                         0.0000  0.0000  0.0000  0.0000
  26. (0.00148) RY ( 6) B  1            s(  0.00%)p 1.00( 29.75%)d 2.36( 70.25%)
                                         0.0000  0.0000  0.0000  0.0000  0.0000
                                         0.0443 -0.5436  0.0000  0.0000  0.0000
                                         0.0000  0.0000  0.8382  0.0000
  27. (0.00001) RY ( 7) B  1            s( 93.91%)p 0.00(  0.00%)d 0.06(  6.09%)
  28. (0.00000) RY ( 8) B  1            s(  6.25%)p 0.00(  0.00%)d15.00( 93.75%)
  29. (0.00000) RY ( 9) B  1            s(  0.00%)p 1.00(100.00%)
  30. (0.00023) RY ( 1) F  2            s( 78.38%)p 0.20( 15.41%)d 0.08(  6.21%)
                                         0.0000  0.0044  0.8853  0.0000  0.0000
                                         0.0002  0.3925  0.0000  0.0000  0.0000
                                         0.0000  0.0000  0.2119 -0.1313
  31. (0.00019) RY ( 2) F  2            s(  0.00%)p 1.00( 77.24%)d 0.29( 22.76%)
                                         0.0000  0.0000  0.0000 -0.0180  0.8787
                                         0.0000  0.0000  0.0000  0.0000 -0.4770
                                         0.0000  0.0000  0.0000  0.0000
  32. (0.00017) RY ( 3) F  2            s(  0.00%)p 1.00( 98.73%)d 0.01(  1.27%)
                                         0.0000  0.0000  0.0000  0.0000  0.0000
                                         0.0000  0.0000 -0.0100  0.9936  0.0000
                                         0.0000 -0.1128  0.0000  0.0000
  33. (0.00003) RY ( 4) F  2            s(  6.32%)p11.11( 70.22%)d 3.71( 23.46%)
  34. (0.00003) RY ( 5) F  2            s(  0.00%)p 0.00(  0.00%)d 1.00(100.00%)
  35. (0.00003) RY ( 6) F  2            s(  0.00%)p 1.00( 22.89%)d 3.37( 77.11%)
  36. (0.00000) RY ( 7) F  2            s(  1.45%)p 4.39(  6.35%)d63.75( 92.20%)
  37. (0.00000) RY ( 8) F  2            s(  0.00%)p 1.00(  1.43%)d69.01( 98.57%)
  38. (0.00000) RY ( 9) F  2            s( 13.89%)p 0.60(  8.37%)d 5.60( 77.74%)
  39. (0.00023) RY ( 1) F  3            s( 78.38%)p 0.20( 15.41%)d 0.08(  6.21%)
                                         0.0000  0.0044  0.8853  0.0001  0.3399
                                        -0.0001 -0.1963  0.0000  0.0000  0.1835
                                         0.0000  0.0000 -0.1059 -0.1313
  40. (0.00019) RY ( 2) F  3            s(  0.00%)p 1.00( 77.24%)d 0.29( 22.76%)
                                         0.0000  0.0000  0.0000 -0.0090  0.4393
                                        -0.0156  0.7610  0.0000  0.0000 -0.2385
                                         0.0000  0.0000 -0.4131  0.0000
  41. (0.00017) RY ( 3) F  3            s(  0.00%)p 1.00( 98.73%)d 0.01(  1.27%)
                                         0.0000  0.0000  0.0000  0.0000  0.0000
                                         0.0000  0.0000 -0.0100  0.9936  0.0000
                                        -0.0977  0.0564  0.0000  0.0000
  42. (0.00003) RY ( 4) F  3            s(  6.32%)p11.11( 70.22%)d 3.71( 23.46%)
  43. (0.00003) RY ( 5) F  3            s(  0.00%)p 0.00(  0.00%)d 1.00(100.00%)
  44. (0.00003) RY ( 6) F  3            s(  0.00%)p 1.00( 22.89%)d 3.37( 77.11%)
  45. (0.00000) RY ( 7) F  3            s(  1.45%)p 4.39(  6.35%)d63.75( 92.20%)
  46. (0.00000) RY ( 8) F  3            s(  0.00%)p 1.00(  1.43%)d69.01( 98.57%)
  47. (0.00000) RY ( 9) F  3            s( 13.89%)p 0.60(  8.37%)d 5.60( 77.74%)
  48. (0.00023) RY ( 1) F  4            s( 78.38%)p 0.20( 15.41%)d 0.08(  6.21%)
                                         0.0000  0.0044  0.8853 -0.0001 -0.3399
                                        -0.0001 -0.1963  0.0000  0.0000 -0.1835
                                         0.0000  0.0000 -0.1059 -0.1313
  49. (0.00019) RY ( 2) F  4            s(  0.00%)p 1.00( 77.24%)d 0.29( 22.76%)
                                         0.0000  0.0000  0.0000  0.0090 -0.4393
                                        -0.0156  0.7610  0.0000  0.0000  0.2385
                                         0.0000  0.0000 -0.4131  0.0000
  50. (0.00017) RY ( 3) F  4            s(  0.00%)p 1.00( 98.73%)d 0.01(  1.27%)
                                         0.0000  0.0000  0.0000  0.0000  0.0000
                                         0.0000  0.0000 -0.0100  0.9936  0.0000
                                         0.0977  0.0564  0.0000  0.0000
  51. (0.00003) RY ( 4) F  4            s(  6.32%)p11.11( 70.22%)d 3.71( 23.46%)
  52. (0.00003) RY ( 5) F  4            s(  0.00%)p 0.00(  0.00%)d 1.00(100.00%)
  53. (0.00003) RY ( 6) F  4            s(  0.00%)p 1.00( 22.89%)d 3.37( 77.11%)
  54. (0.00000) RY ( 7) F  4            s(  1.45%)p 4.39(  6.35%)d63.75( 92.20%)
  55. (0.00000) RY ( 8) F  4            s(  0.00%)p 1.00(  1.43%)d69.01( 98.57%)
  56. (0.00000) RY ( 9) F  4            s( 13.89%)p 0.60(  8.37%)d 5.60( 77.74%)


 NHO DIRECTIONALITY AND BOND BENDING (deviation from line of nuclear centers at
                                      the position of maximum hybrid amplitude)

         [Thresholds for printing:  angular deviation  >  1.0 degree]
                                    p- or d-character  > 25.0%
                                    orbital occupancy  >  0.10e

                        Line of Centers        Hybrid 1             Hybrid 2
                        ---------------  -------------------  ------------------
           NBO            Theta   Phi    Theta   Phi    Dev   Theta   Phi    Dev
 ===============================================================================
   5. LP ( 1) F  2          --     --     90.0   90.0   --      --     --    --
   6. LP ( 2) F  2          --     --     90.0  180.3   --      --     --    --
   7. LP ( 3) F  2          --     --    179.7  270.0   --      --     --    --
   8. LP ( 1) F  3          --     --     90.0  330.0   --      --     --    --
   9. LP ( 2) F  3          --     --     90.0   60.3   --      --     --    --
  10. LP ( 3) F  3          --     --    179.7  150.0   --      --     --    --
  11. LP ( 1) F  4          --     --     90.0  210.0   --      --     --    --
  12. LP ( 2) F  4          --     --     90.0  119.7   --      --     --    --
  13. LP ( 3) F  4          --     --    179.7   30.0   --      --     --    --


 SECOND ORDER PERTURBATION THEORY ANALYSIS OF FOCK MATRIX IN NBO BASIS

     Threshold for printing:   0.50 kcal/mol
                                                          E(2) E(NL)-E(L) F(L,NL)
      Donor (L) NBO              Acceptor (NL) NBO      kcal/mol   a.u.    a.u.
 ===============================================================================

 within unit  1
    5. LP ( 1) F  2            21. RY ( 1) B  1            3.15    2.39   0.078
    6. LP ( 2) F  2            19. BD*( 1) B  1- F  3     14.47    1.36   0.125
    6. LP ( 2) F  2            20. BD*( 1) B  1- F  4     14.47    1.36   0.125
    6. LP ( 2) F  2            22. RY ( 2) B  1            1.44    1.90   0.047
    6. LP ( 2) F  2            25. RY ( 5) B  1            1.14    2.56   0.048
    7. LP ( 3) F  2            17. LV ( 1) B  1           57.71    0.77   0.189
    7. LP ( 3) F  2            23. RY ( 3) B  1            2.48    2.58   0.071
    7. LP ( 3) F  2            29. RY ( 9) B  1            0.50    1.18   0.022
    8. LP ( 1) F  3            21. RY ( 1) B  1            0.79    2.39   0.039
    8. LP ( 1) F  3            22. RY ( 2) B  1            2.37    2.39   0.067
    9. LP ( 2) F  3            18. BD*( 1) B  1- F  2     14.47    1.36   0.125
    9. LP ( 2) F  3            20. BD*( 1) B  1- F  4     14.47    1.36   0.125
    9. LP ( 2) F  3            21. RY ( 1) B  1            1.08    1.90   0.040
    9. LP ( 2) F  3            26. RY ( 6) B  1            0.86    2.56   0.042
   10. LP ( 3) F  3            17. LV ( 1) B  1           57.71    0.77   0.189
   10. LP ( 3) F  3            23. RY ( 3) B  1            0.62    2.58   0.036
   10. LP ( 3) F  3            24. RY ( 4) B  1            1.86    2.58   0.062
   10. LP ( 3) F  3            29. RY ( 9) B  1            0.50    1.18   0.022
   11. LP ( 1) F  4            21. RY ( 1) B  1            0.79    2.39   0.039
   11. LP ( 1) F  4            22. RY ( 2) B  1            2.37    2.39   0.067
   12. LP ( 2) F  4            18. BD*( 1) B  1- F  2     14.47    1.36   0.125
   12. LP ( 2) F  4            19. BD*( 1) B  1- F  3     14.47    1.36   0.125
   12. LP ( 2) F  4            21. RY ( 1) B  1            1.08    1.90   0.040
   12. LP ( 2) F  4            26. RY ( 6) B  1            0.86    2.56   0.042
   13. LP ( 3) F  4            17. LV ( 1) B  1           57.71    0.77   0.189
   13. LP ( 3) F  4            23. RY ( 3) B  1            0.62    2.58   0.036
   13. LP ( 3) F  4            24. RY ( 4) B  1            1.86    2.58   0.062
   13. LP ( 3) F  4            29. RY ( 9) B  1            0.50    1.18   0.022
   14. BD ( 1) B  1- F  2      19. BD*( 1) B  1- F  3      0.59    1.96   0.030
   14. BD ( 1) B  1- F  2      20. BD*( 1) B  1- F  4      0.59    1.96   0.030
   15. BD ( 1) B  1- F  3      18. BD*( 1) B  1- F  2      0.59    1.96   0.030
   15. BD ( 1) B  1- F  3      20. BD*( 1) B  1- F  4      0.59    1.96   0.030
   16. BD ( 1) B  1- F  4      18. BD*( 1) B  1- F  2      0.59    1.96   0.030
   16. BD ( 1) B  1- F  4      19. BD*( 1) B  1- F  3      0.59    1.96   0.030


 NATURAL BOND ORBITALS (Summary):

                                                     Principal Delocalizations
           NBO                 Occupancy    Energy   (geminal,vicinal,remote)
 ===============================================================================
 Molecular unit  1  (BF3)
 ------ Lewis --------------------------------------
    1. CR ( 1) B  1             1.99999    -7.78606
    2. CR ( 1) F  2             1.99999   -26.33329
    3. CR ( 1) F  3             1.99999   -26.33329
    4. CR ( 1) F  4             1.99999   -26.33329
    5. LP ( 1) F  2             1.99376    -1.16515  21(v)
    6. LP ( 2) F  2             1.95913    -0.66990  19(v),20(v),22(v),25(v)
    7. LP ( 3) F  2             1.91477    -0.65728  17(v),23(v),29(v)
    8. LP ( 1) F  3             1.99376    -1.16515  22(v),21(v)
    9. LP ( 2) F  3             1.95913    -0.66990  18(v),20(v),21(v),26(v)
   10. LP ( 3) F  3             1.91477    -0.65728  17(v),24(v),23(v),29(v)
   11. LP ( 1) F  4             1.99376    -1.16515  22(v),21(v)
   12. LP ( 2) F  4             1.95913    -0.66990  18(v),19(v),21(v),26(v)
   13. LP ( 3) F  4             1.91477    -0.65728  17(v),24(v),23(v),29(v)
   14. BD ( 1) B  1- F  2       1.99795    -1.26848  19(g),20(g)
   15. BD ( 1) B  1- F  3       1.99795    -1.26848  18(g),20(g)
   16. BD ( 1) B  1- F  4       1.99795    -1.26848  18(g),19(g)
 ------ non-Lewis ----------------------------------
   17. LV ( 1) B  1             0.25029     0.11681
   18. BD*( 1) B  1- F  2       0.03991     0.69410
   19. BD*( 1) B  1- F  3       0.03991     0.69410
   20. BD*( 1) B  1- F  4       0.03991     0.69410
   21. RY ( 1) B  1             0.01169     1.22887
   22. RY ( 2) B  1             0.01169     1.22887
   23. RY ( 3) B  1             0.00240     1.92424
   24. RY ( 4) B  1             0.00240     1.92424
   25. RY ( 5) B  1             0.00148     1.89463
   26. RY ( 6) B  1             0.00148     1.89463
   27. RY ( 7) B  1             0.00001     0.77962
   28. RY ( 8) B  1             0.00000     1.79270
   29. RY ( 9) B  1             0.00000     0.52650
   30. RY ( 1) F  2             0.00023     2.84636
   31. RY ( 2) F  2             0.00019     1.94163
   32. RY ( 3) F  2             0.00017     1.62907
   33. RY ( 4) F  2             0.00003     1.65466
   34. RY ( 5) F  2             0.00003     2.10046
   35. RY ( 6) F  2             0.00003     2.05273
   36. RY ( 7) F  2             0.00000     2.54321
   37. RY ( 8) F  2             0.00000     2.25593
   38. RY ( 9) F  2             0.00000     2.07966
   39. RY ( 1) F  3             0.00023     2.84636
   40. RY ( 2) F  3             0.00019     1.94163
   41. RY ( 3) F  3             0.00017     1.62907
   42. RY ( 4) F  3             0.00003     1.65466
   43. RY ( 5) F  3             0.00003     2.10046
   44. RY ( 6) F  3             0.00003     2.05273
   45. RY ( 7) F  3             0.00000     2.54321
   46. RY ( 8) F  3             0.00000     2.25593
   47. RY ( 9) F  3             0.00000     2.07966
   48. RY ( 1) F  4             0.00023     2.84636
   49. RY ( 2) F  4             0.00019     1.94163
   50. RY ( 3) F  4             0.00017     1.62907
   51. RY ( 4) F  4             0.00003     1.65466
   52. RY ( 5) F  4             0.00003     2.10046
   53. RY ( 6) F  4             0.00003     2.05273
   54. RY ( 7) F  4             0.00000     2.54321
   55. RY ( 8) F  4             0.00000     2.25593
   56. RY ( 9) F  4             0.00000     2.07966
          -------------------------------
                 Total Lewis   31.59683  ( 98.7401%)
           Valence non-Lewis    0.37001  (  1.1563%)
           Rydberg non-Lewis    0.03316  (  0.1036%)
          -------------------------------
               Total unit  1   32.00000  (100.0000%)
              Charge unit  1    0.00000

 $CHOOSE
   LONE 2 3 3 3 4 3 END
   BOND S 1 2 S 1 3 S 1 4 END
 $END

 NBO analysis completed in 0.80 CPU seconds (1 wall second)
 Maximum scratch memory used by NBO was 338941 words (2.59 MB)
 Maximum scratch memory used by G16NBO was 13196 words (0.10 MB)

 Opening RunExU unformatted file "/cluster/work/users/beto93/mol55/Gau-883616.EUF"
 Read unf file /cluster/work/users/beto93/mol55/Gau-883616.EUF:
 Label Gaussian matrix elements                                         IVers= 2 NLab= 2 Version=ES64L-G16RevC.01
 Title mol55-NBO                                                       
 NAtoms=     4 NBasis=    56 NBsUse=    56 ICharg=     0 Multip=     1 NE=    32 Len12L=8 Len4L=8 IOpCl= 0 ICGU=111
 GAUSSIAN SCALARS                    NI= 1 NR= 1 NTot=       1 LenBuf=    2 NRI=1 N=    1000
 NPA CHARGES                         NI= 0 NR= 1 NTot=       4 LenBuf= 4000 NRI=1 N=       4
 Recovered energy= -323.189522188     dipole=     -0.000000000000      0.000000211673     -0.000000000000
 Unable to Open any file for archive entry.
 1\1\GINC-C1-56\SP\RHF\6-31G(d)\B1F3\BETO93\18-Nov-2024\0\\#RHF/6-31G* 
 int=nobasistransform Symmetry=None 5D 7F Pop=NBO7Read\\mol55-NBO\\0,1\
 B,0,0.,0.,0.\F,0,0.,1.32176,0.\F,0,1.144678,-0.66088,0.\F,0,-1.144678,
 -0.66088,0.\\Version=ES64L-G16RevC.01\HF=-323.1895222\RMSD=9.788e-09\D
 ipole=0.,0.0000002,0.\Quadrupole=-1.1264236,-1.1264219,2.2528455,0.,0.
 ,0.\PG=Unknown\\@
 The archive entry for this job was punched.


 "WOULD YOU TELL ME PLEASE, WHICH WAY I OUGHT TO WALK FROM HERE?"
 "THAT DEPENDS A GREAT DEAL ON WHERE YOU WANT TO GO," SAID THE CAT.
 "I DON'T MUCH CARE WHERE -- ", SAID ALICE.
 "THEN IT DOESN'T MATTER WHICH WAY YOU WALK," SAID THE CAT.

                                      -- LEWIS CARROLL
 Job cpu time:       0 days  0 hours  0 minutes 11.0 seconds.
 Elapsed time:       0 days  0 hours  0 minutes  3.6 seconds.
 File lengths (MBytes):  RWF=     10 Int=      0 D2E=      0 Chk=      1 Scr=      1
 Normal termination of Gaussian 16 at Mon Nov 18 16:40:08 2024.
