 Entering Gaussian System, Link 0=g16
 Initial command:
 /cluster/software/Gaussian/g16_C.01/l1.exe "/cluster/work/users/beto93/mol50/Gau-700145.inp" -scrdir="/cluster/work/users/beto93/mol50/"
 Entering Link 1 = /cluster/software/Gaussian/g16_C.01/l1.exe PID=    700146.
  
 Copyright (c) 1988-2019, Gaussian, Inc.  All Rights Reserved.
  
 This is part of the Gaussian(R) 16 program.  It is based on
 the Gaussian(R) 09 system (copyright 2009, Gaussian, Inc.),
 the Gaussian(R) 03 system (copyright 2003, Gaussian, Inc.),
 the Gaussian(R) 98 system (copyright 1998, Gaussian, Inc.),
 the Gaussian(R) 94 system (copyright 1995, Gaussian, Inc.),
 the Gaussian 92(TM) system (copyright 1992, Gaussian, Inc.),
 the Gaussian 90(TM) system (copyright 1990, Gaussian, Inc.),
 the Gaussian 88(TM) system (copyright 1988, Gaussian, Inc.),
 the Gaussian 86(TM) system (copyright 1986, Carnegie Mellon
 University), and the Gaussian 82(TM) system (copyright 1983,
 Carnegie Mellon University). Gaussian is a federally registered
 trademark of Gaussian, Inc.
  
 This software contains proprietary and confidential information,
 including trade secrets, belonging to Gaussian, Inc.
  
 This software is provided under written license and may be
 used, copied, transmitted, or stored only in accord with that
 written license.
  
 The following legend is applicable only to US Government
 contracts under FAR:
  
                    RESTRICTED RIGHTS LEGEND
  
 Use, reproduction and disclosure by the US Government is
 subject to restrictions as set forth in subparagraphs (a)
 and (c) of the Commercial Computer Software - Restricted
 Rights clause in FAR 52.227-19.
  
 Gaussian, Inc.
 340 Quinnipiac St., Bldg. 40, Wallingford CT 06492
  
  
 ---------------------------------------------------------------
 Warning -- This program may not be used in any manner that
 competes with the business of Gaussian, Inc. or will provide
 assistance to any competitor of Gaussian, Inc.  The licensee
 of this program is prohibited from giving any competitor of
 Gaussian, Inc. access to this program.  By using this program,
 the user acknowledges that Gaussian, Inc. is engaged in the
 business of creating and licensing software in the field of
 computational chemistry and represents and warrants to the
 licensee that it is not a competitor of Gaussian, Inc. and that
 it will not use this program in any manner prohibited above.
 ---------------------------------------------------------------
  

 Cite this work as:
 Gaussian 16, Revision C.01,
 M. J. Frisch, G. W. Trucks, H. B. Schlegel, G. E. Scuseria, 
 M. A. Robb, J. R. Cheeseman, G. Scalmani, V. Barone, 
 G. A. Petersson, H. Nakatsuji, X. Li, M. Caricato, A. V. Marenich, 
 J. Bloino, B. G. Janesko, R. Gomperts, B. Mennucci, H. P. Hratchian, 
 J. V. Ortiz, A. F. Izmaylov, J. L. Sonnenberg, D. Williams-Young, 
 F. Ding, F. Lipparini, F. Egidi, J. Goings, B. Peng, A. Petrone, 
 T. Henderson, D. Ranasinghe, V. G. Zakrzewski, J. Gao, N. Rega, 
 G. Zheng, W. Liang, M. Hada, M. Ehara, K. Toyota, R. Fukuda, 
 J. Hasegawa, M. Ishida, T. Nakajima, Y. Honda, O. Kitao, H. Nakai, 
 T. Vreven, K. Throssell, J. A. Montgomery, Jr., J. E. Peralta, 
 F. Ogliaro, M. J. Bearpark, J. J. Heyd, E. N. Brothers, K. N. Kudin, 
 V. N. Staroverov, T. A. Keith, R. Kobayashi, J. Normand, 
 K. Raghavachari, A. P. Rendell, J. C. Burant, S. S. Iyengar, 
 J. Tomasi, M. Cossi, J. M. Millam, M. Klene, C. Adamo, R. Cammi, 
 J. W. Ochterski, R. L. Martin, K. Morokuma, O. Farkas, 
 J. B. Foresman, and D. J. Fox, Gaussian, Inc., Wallingford CT, 2019.
 
 ******************************************
 Gaussian 16:  ES64L-G16RevC.01  3-Jul-2019
                18-Nov-2024 
 ******************************************
 %LindaWorkers=c1-51-ib
 %NProcShared=4
 Will use up to    4 processors via shared memory.
 %mem=25GB
 %chk=mol50.chk
 SetLPE:    new flags="-opt 'Tsnet.Node.lindarsharg: ssh'  -nodelist 'c1-51-ib.saga' -env GAUSS_MDEF=3355443200 -env GAUSS_EXEDIR="/cluster/software/Gaussian/g16_C.01/bsd:/cluster/software/Gaussian/g16_C.01""
 Will use up to    1 processors via Linda.
 -----------------------------------------------------------------
 #RHF/6-31G* int=nobasistransform Symmetry=None 5D 7F Pop=NBO7Read
 -----------------------------------------------------------------
 1/38=1,163=2,172=1/1;
 2/12=2,15=3,17=6,18=5,40=1/2;
 3/5=1,6=6,7=1,8=11,11=1,25=1,30=1,60=-1,116=1/1,2,3;
 4//1;
 5/5=2,38=5/2;
 6/7=2,8=2,9=2,10=2,28=1,40=2,113=1,114=1,124=2103/1,12;
 99/5=1,9=1/99;
 ---------
 mol50-NBO
 ---------
 Symbolic Z-matrix:
 Charge =  0 Multiplicity = 1
 Si                    0.        0.        1.16768 
 Si                    0.        0.       -1.16768 
 H                     0.        1.39329   1.68602 
 H                    -1.20662  -0.69664   1.68602 
 H                     1.20662  -0.69664   1.68602 
 H                     0.       -1.39329  -1.68602 
 H                    -1.20662   0.69664  -1.68602 
 H                     1.20662   0.69664  -1.68602 
 
                          Input orientation:                          
 ---------------------------------------------------------------------
 Center     Atomic      Atomic             Coordinates (Angstroms)
 Number     Number       Type             X           Y           Z
 ---------------------------------------------------------------------
      1         14           0        0.000000    0.000000    1.167683
      2         14           0        0.000000    0.000000   -1.167683
      3          1           0        0.000000    1.393286    1.686020
      4          1           0       -1.206621   -0.696643    1.686020
      5          1           0        1.206621   -0.696643    1.686020
      6          1           0        0.000000   -1.393286   -1.686020
      7          1           0       -1.206621    0.696643   -1.686020
      8          1           0        1.206621    0.696643   -1.686020
 ---------------------------------------------------------------------
                    Distance matrix (angstroms):
                    1          2          3          4          5
     1  Si   0.000000
     2  Si   2.335366   0.000000
     3  H    1.486580   3.175668   0.000000
     4  H    1.486580   3.175668   2.413242   0.000000
     5  H    1.486580   3.175668   2.413242   2.413242   0.000000
     6  H    3.175668   1.486580   4.374430   3.648548   3.648548
     7  H    3.175668   1.486580   3.648548   3.648548   4.374430
     8  H    3.175668   1.486580   3.648548   4.374430   3.648548
                    6          7          8
     6  H    0.000000
     7  H    2.413242   0.000000
     8  H    2.413242   2.413242   0.000000
 Symmetry turned off by external request.
 Stoichiometry    H6Si2
 Rotational constants (GHZ):          43.0526893           5.0868077           5.0868076
 Standard basis: 6-31G(d) (5D, 7F)
    48 basis functions,   128 primitive gaussians,    50 cartesian basis functions
    17 alpha electrons       17 beta electrons
       nuclear repulsion energy        90.8598022251 Hartrees.
 NAtoms=    8 NActive=    8 NUniq=    8 SFac= 1.00D+00 NAtFMM=   60 NAOKFM=F Big=F
 Integral buffers will be    131072 words long.
 Raffenetti 1 integral format.
 Two-electron integral symmetry is turned off.
 One-electron integrals computed using PRISM.
 NBasis=    48 RedAO= T EigKep=  6.71D-03  NBF=    48
 NBsUse=    48 1.00D-06 EigRej= -1.00D+00 NBFU=    48
 ExpMin= 7.78D-02 ExpMax= 1.61D+04 ExpMxC= 2.43D+03 IAcc=3 IRadAn=         5 AccDes= 0.00D+00
 Harris functional with IExCor=  205 and IRadAn=       5 diagonalized for initial guess.
 HarFok:  IExCor=  205 AccDes= 0.00D+00 IRadAn=         5 IDoV= 1 UseB2=F ITyADJ=14
 ICtDFT=  3500011 ScaDFX=  1.000000  1.000000  1.000000  1.000000
 FoFCou: FMM=F IPFlag=           0 FMFlag=      100000 FMFlg1=           0
         NFxFlg=           0 DoJE=T BraDBF=F KetDBF=T FulRan=T
         wScrn=  0.000000 ICntrl=       500 IOpCl=  0 I1Cent=   200000004 NGrid=           0
         NMat0=    1 NMatS0=      1 NMatT0=    0 NMatD0=    1 NMtDS0=    0 NMtDT0=    0
 Symmetry not used in FoFCou.
 Keep R1 ints in memory in canonical form, NReq=1540244.
 Requested convergence on RMS density matrix=1.00D-08 within 128 cycles.
 Requested convergence on MAX density matrix=1.00D-06.
 Requested convergence on             energy=1.00D-06.
 No special actions if energy rises.
 SCF Done:  E(RHF) =  -581.302596114     A.U. after    9 cycles
            NFock=  9  Conv=0.20D-08     -V/T= 1.9993

 **********************************************************************

            Population analysis using the SCF Density.

 **********************************************************************

 Alpha  occ. eigenvalues --  -68.75235 -68.75233  -6.11946  -6.11931  -4.22456
 Alpha  occ. eigenvalues --   -4.22451  -4.22451  -4.22444  -4.22444  -4.22385
 Alpha  occ. eigenvalues --   -0.75804  -0.67819  -0.49949  -0.49949  -0.47185
 Alpha  occ. eigenvalues --   -0.47185  -0.40550
 Alpha virt. eigenvalues --    0.14123   0.14142   0.14142   0.20661   0.20753
 Alpha virt. eigenvalues --    0.20753   0.28762   0.30198   0.37468   0.37468
 Alpha virt. eigenvalues --    0.41584   0.41584   0.42461   0.43207   0.58045
 Alpha virt. eigenvalues --    0.73464   0.73464   0.81859   0.87795   0.87795
 Alpha virt. eigenvalues --    0.88158   0.88158   0.92728   0.92728   1.06904
 Alpha virt. eigenvalues --    1.28677   1.41849   1.41849   1.44165   1.46047
 Alpha virt. eigenvalues --    1.46047
          Condensed to atoms (all electrons):
               1          2          3          4          5          6
     1  Si  12.153959   0.381645   0.379440   0.379440   0.379440  -0.020108
     2  Si   0.381645  12.153959  -0.020108  -0.020108  -0.020108   0.379440
     3  H    0.379440  -0.020108   0.798741  -0.014769  -0.014769   0.000226
     4  H    0.379440  -0.020108  -0.014769   0.798741  -0.014769   0.000020
     5  H    0.379440  -0.020108  -0.014769  -0.014769   0.798741   0.000020
     6  H   -0.020108   0.379440   0.000226   0.000020   0.000020   0.798741
     7  H   -0.020108   0.379440   0.000020   0.000020   0.000226  -0.014769
     8  H   -0.020108   0.379440   0.000020   0.000226   0.000020  -0.014769
               7          8
     1  Si  -0.020108  -0.020108
     2  Si   0.379440   0.379440
     3  H    0.000020   0.000020
     4  H    0.000020   0.000226
     5  H    0.000226   0.000020
     6  H   -0.014769  -0.014769
     7  H    0.798741  -0.014769
     8  H   -0.014769   0.798741
 Mulliken charges:
               1
     1  Si   0.386402
     2  Si   0.386402
     3  H   -0.128801
     4  H   -0.128801
     5  H   -0.128801
     6  H   -0.128801
     7  H   -0.128801
     8  H   -0.128801
 Sum of Mulliken charges =  -0.00000
 Mulliken charges with hydrogens summed into heavy atoms:
               1
     1  Si   0.000000
     2  Si  -0.000000
 Electronic spatial extent (au):  <R**2>=            310.7264
 Charge=             -0.0000 electrons
 Dipole moment (field-independent basis, Debye):
    X=             -0.0000    Y=             -0.0000    Z=              0.0000  Tot=              0.0000
 Quadrupole moment (field-independent basis, Debye-Ang):
   XX=            -31.7573   YY=            -31.7573   ZZ=            -33.1799
   XY=              0.0000   XZ=              0.0000   YZ=             -0.0000
 Traceless Quadrupole moment (field-independent basis, Debye-Ang):
   XX=              0.4742   YY=              0.4742   ZZ=             -0.9483
   XY=              0.0000   XZ=              0.0000   YZ=             -0.0000
 Octapole moment (field-independent basis, Debye-Ang**2):
  XXX=             -0.0000  YYY=             -0.0000  ZZZ=              0.0000  XYY=             -0.0000
  XXY=              0.0000  XXZ=             -0.0000  XZZ=             -0.0000  YZZ=             -0.0000
  YYZ=              0.0000  XYZ=             -0.0000
 Hexadecapole moment (field-independent basis, Debye-Ang**3):
 XXXX=            -82.9105 YYYY=            -82.9105 ZZZZ=           -353.5764 XXXY=              0.0000
 XXXZ=              0.0000 YYYX=              0.0000 YYYZ=             -3.5607 ZZZX=              0.0000
 ZZZY=             -0.0000 XXYY=            -27.6368 XXZZ=            -78.7978 YYZZ=            -78.7978
 XXYZ=              3.5607 YYXZ=              0.0000 ZZXY=              0.0000
 N-N= 9.085980222506D+01 E-N=-1.568264663692D+03  KE= 5.816881488061D+02
 Running external command "gaunbo7 R"
         input file       "/cluster/work/users/beto93/mol50/Gau-700146.EIn"
         output file      "/cluster/work/users/beto93/mol50/Gau-700146.EOu"
         message file     "/cluster/work/users/beto93/mol50/Gau-700146.EMs"
         fchk file        "/cluster/work/users/beto93/mol50/Gau-700146.EFC"
         mat. el file     "/cluster/work/users/beto93/mol50/Gau-700146.EUF"

 Writing WrtUnf unformatted file "/cluster/work/users/beto93/mol50/Gau-700146.EUF"
 Gaussian matrix elements                                         Version   2 NLab=11 Len12L=8 Len4L=8
 Write SHELL TO ATOM MAP                   from file      0 offset           0 length                  22 to matrix element file.
 Write SHELL TYPES                         from file      0 offset           0 length                  22 to matrix element file.
 Write NUMBER OF PRIMITIVES PER SHELL      from file      0 offset           0 length                  22 to matrix element file.
 Write PRIMITIVE EXPONENTS                 from file      0 offset           0 length                  58 to matrix element file.
 Write CONTRACTION COEFFICIENTS            from file      0 offset           0 length                  58 to matrix element file.
 Write P(S=P) CONTRACTION COEFFICIENTS     from file      0 offset           0 length                  58 to matrix element file.
 Write COORDINATES OF EACH SHELL           from file      0 offset           0 length                  66 to matrix element file.
 Write BONDS PER ATOM                      from file      0 offset           0 length                   8 to matrix element file.
 Write BONDED ATOMS                        from file      0 offset           0 length                  14 to matrix element file.
 Write BOND TYPES                          from file      0 offset           0 length                  14 to matrix element file.
 Write ONIOM CHARGE/MULT                   from file      0 offset           0 length                  32 to matrix element file.
 Write ONIOM ATOM LAYERS                   from file      0 offset           0 length                   8 to matrix element file.
 Write ONIOM ATOM MODIFIERS                from file      0 offset           0 length                   8 to matrix element file.
 Write ONIOM ATOM TYPES                    from file      0 offset           0 length                   8 to matrix element file.
 Write ONIOM LINK ATOMS                    from file      0 offset           0 length                   8 to matrix element file.
 Write ONIOM LINK CHARGES                  from file      0 offset           0 length                   8 to matrix element file.
 Write ONIOM LINK DISTANCES                from file      0 offset           0 length                  32 to matrix element file.
 Write SYMINF INTS                         from file      0 offset           0 length                  26 to matrix element file.
 Write ROTTR TO SO                         from file      0 offset           0 length                  12 to matrix element file.
 Write GAUSSIAN SCALARS                    from file    501 offset           0 to matrix element file.
 Write OPTIMIZATION FLAGS                  from file      0 offset           0 length                   8 to matrix element file.
 Write INTEGER ISO                         from file      0 offset           0 length                   8 to matrix element file.
 Write INTEGER SPIN                        from file      0 offset           0 length                   8 to matrix element file.
 Write REAL ZEFFECTIVE                     from file      0 offset           0 length                   8 to matrix element file.
 Write REAL GFACTOR                        from file      0 offset           0 length                   8 to matrix element file.
 Write REAL ZNUCLEAR                       from file      0 offset           0 length                   8 to matrix element file.
 Write MULLIKEN CHARGES                    from file      0 offset           0 length                   8 to matrix element file.
 Write NUCLEAR GRADIENT                    from file  10584 offset           0 length                  24 to matrix element file.
 Array NUCLEAR FORCE CONSTANTS              on  file  10585 does not exist.
 Write ELECTRIC DIPOLE MOMENT              from file      0 offset           0 length                   3 to matrix element file.
 Write NON-ADIABATIC COUPLING              from file  10810 offset           0 length                  24 to matrix element file.
 Write FINITE EM FIELD                     from file  10521 offset           0 length                  35 to matrix element file.
 Write OVERLAP                             from file  10514 offset           0 length                1176 to matrix element file.
 Write CORE HAMILTONIAN ALPHA              from file  10515 offset           0 length                1176 to matrix element file.
 Write CORE HAMILTONIAN BETA               from file  10515 offset        1176 length                1176 to matrix element file.
 Write KINETIC ENERGY                      from file  10516 offset           0 length                1176 to matrix element file.
 Write ORTHOGONAL BASIS                    from file  10685 offset           0 length                2304 to matrix element file.
 Write DIPOLE INTEGRALS                    from file  10518 offset           0 length                3528 to matrix element file.
 Array DIP VEL INTEGRALS                    on  file  10572 does not exist.
 Array R X DEL INTEGRALS                    on  file  10572 does not exist.
 Write ALPHA ORBITAL ENERGIES              from file      0 offset           0 length                  48 to matrix element file.
 Write ALPHA MO COEFFICIENTS               from file  10524 offset           0 length                2304 to matrix element file.
 Write ALPHA DENSITY MATRIX                from file      0 offset           0 length                1176 to matrix element file.
 Write ALPHA FOCK MATRIX                   from file  10536 offset           0 length                1176 to matrix element file.
 Write ENERGY-WEIGHTED DENSITY             from file  10571 offset           0 length                1176 to matrix element file.
 Write ALPHA SCF DENSITY MATRIX            from file      0 offset           0 length                1176 to matrix element file.
 No 2e integrals to process.
 Perform NBO analysis...executing G16NBO...

 *********************************** NBO 7.0 ***********************************
             N A T U R A L   A T O M I C   O R B I T A L   A N D
          N A T U R A L   B O N D   O R B I T A L   A N A L Y S I S
 **************************** Espen Tangen (S101595) ***************************
  (c) Copyright 1996-2021 Board of Regents of the University of Wisconsin System
      on behalf of the Theoretical Chemistry Institute.  All rights reserved.

          Cite this program [NBO 7.0.10 (8-Feb-2021)] as:

          NBO 7.0.  E. D. Glendening, J. K. Badenhoop, A. E. Reed,
          J. E. Carpenter, J. A. Bohmann, C. M. Morales, P. Karafiloglou,
          C. R. Landis, and F. Weinhold, Theoretical Chemistry Institute,
          University of Wisconsin, Madison, WI (2018)

       /NPA    / : Natural Population Analysis
       /AOPNAO / : Print the AO to PNAO transformation
       /AONAO  / : Print the AO to NAO transformation
       /AOMO   / : Print the MOs in the AO basis
       /BOAO   / : Print the AO bond-order matrix
       /DMAO   / : Print the AO density matrix
       /DMPNAO / : Print the PNAO density matrix
       /DMNAO  / : Print the NAO density matrix
       /DMMO   / : Print the MO density matrix
       /SAO    / : Print the AO overlap matrix
       /SPNAO  / : Print the PNAO overlap matrix
       /DETAIL / : Write details of NBO search
       /ARCHIVE/ : Write the archive file to lfn47
       /AOINFO / : Write AO information to lfn31
       /FILE   / : Set to mol50.gen*

 Filename set to mol50.gen1

 Job title: mol50-NBO


 MOs in the AO basis:

           AO          1       2       3       4       5       6       7       8
      ------------ ------- ------- ------- ------- ------- ------- ------- -------
   1. Si 1 (s)      0.7051  0.7051 -0.1908 -0.1908 -0.0001  0.0000  0.0000  0.0000
   2. Si 1 (s)      0.0077  0.0077  0.7282  0.7284  0.0002  0.0000  0.0000  0.0000
   3. Si 1 (px)     0.0000  0.0000  0.0000  0.0000  0.0000  0.7028  0.0000  0.7027
   4. Si 1 (py)     0.0000  0.0000  0.0000  0.0000  0.0000  0.0000  0.7028  0.0000
   5. Si 1 (pz)     0.0000  0.0000  0.0000  0.0000  0.7026  0.0000  0.0000  0.0000
   6. Si 1 (s)     -0.0027 -0.0022  0.0105  0.0113 -0.0003  0.0000  0.0000  0.0000
   7. Si 1 (px)     0.0000  0.0000  0.0000  0.0000  0.0000  0.0158  0.0000  0.0163
   8. Si 1 (py)     0.0000  0.0000  0.0000  0.0000  0.0000  0.0000  0.0158  0.0000
   9. Si 1 (pz)     0.0003  0.0000 -0.0001 -0.0003  0.0157  0.0000  0.0000  0.0000
  10. Si 1 (s)      0.0034  0.0013 -0.0031 -0.0075  0.0011  0.0000  0.0000  0.0000
  11. Si 1 (px)     0.0000  0.0000  0.0000  0.0000  0.0000 -0.0035  0.0000 -0.0044
  12. Si 1 (py)     0.0000  0.0000  0.0000  0.0000  0.0000  0.0000 -0.0035  0.0000
  13. Si 1 (pz)    -0.0009  0.0000  0.0001  0.0020 -0.0038  0.0000  0.0000  0.0000
  14. Si 1 (d5)    -0.0001  0.0001 -0.0001  0.0000 -0.0002  0.0000  0.0000  0.0000
  15. Si 1 (d2)     0.0000  0.0000  0.0000  0.0000  0.0000  0.0004  0.0000  0.0001
  16. Si 1 (d3)     0.0000  0.0000  0.0000  0.0000  0.0000  0.0000  0.0004  0.0000
  17. Si 1 (d4)     0.0000  0.0000  0.0000  0.0000  0.0000  0.0000 -0.0004  0.0000
  18. Si 1 (d1)     0.0000  0.0000  0.0000  0.0000  0.0000 -0.0004  0.0000 -0.0005
  19. Si 2 (s)     -0.7051  0.7051 -0.1908  0.1908 -0.0001  0.0000  0.0000  0.0000
  20. Si 2 (s)     -0.0077  0.0077  0.7282 -0.7284  0.0002  0.0000  0.0000  0.0000
  21. Si 2 (px)     0.0000  0.0000  0.0000  0.0000  0.0000  0.7028  0.0000 -0.7027
  22. Si 2 (py)     0.0000  0.0000  0.0000  0.0000  0.0000  0.0000  0.7028  0.0000
  23. Si 2 (pz)     0.0000  0.0000  0.0000  0.0000 -0.7026  0.0000  0.0000  0.0000
  24. Si 2 (s)      0.0027 -0.0022  0.0105 -0.0113 -0.0003  0.0000  0.0000  0.0000
  25. Si 2 (px)     0.0000  0.0000  0.0000  0.0000  0.0000  0.0158  0.0000 -0.0163
  26. Si 2 (py)     0.0000  0.0000  0.0000  0.0000  0.0000  0.0000  0.0158  0.0000
  27. Si 2 (pz)     0.0003  0.0000  0.0001 -0.0003 -0.0157  0.0000  0.0000  0.0000
  28. Si 2 (s)     -0.0034  0.0013 -0.0031  0.0075  0.0011  0.0000  0.0000  0.0000
  29. Si 2 (px)     0.0000  0.0000  0.0000  0.0000  0.0000 -0.0035  0.0000  0.0044
  30. Si 2 (py)     0.0000  0.0000  0.0000  0.0000  0.0000  0.0000 -0.0035  0.0000
  31. Si 2 (pz)    -0.0009  0.0000 -0.0001  0.0020  0.0038  0.0000  0.0000  0.0000
  32. Si 2 (d5)     0.0001  0.0001 -0.0001  0.0000 -0.0002  0.0000  0.0000  0.0000
  33. Si 2 (d2)     0.0000  0.0000  0.0000  0.0000  0.0000 -0.0004  0.0000  0.0001
  34. Si 2 (d3)     0.0000  0.0000  0.0000  0.0000  0.0000  0.0000 -0.0004  0.0000
  35. Si 2 (d4)     0.0000  0.0000  0.0000  0.0000  0.0000  0.0000  0.0004  0.0000
  36. Si 2 (d1)     0.0000  0.0000  0.0000  0.0000  0.0000  0.0004  0.0000 -0.0005
  37.  H 3 (s)      0.0002  0.0002  0.0001  0.0001  0.0003  0.0000  0.0003  0.0000
  38.  H 3 (s)     -0.0003 -0.0002  0.0003  0.0006 -0.0009  0.0000 -0.0001  0.0000
  39.  H 4 (s)      0.0002  0.0002  0.0001  0.0001  0.0003 -0.0003 -0.0002 -0.0003
  40.  H 4 (s)     -0.0003 -0.0002  0.0003  0.0006 -0.0009  0.0001  0.0000  0.0002
  41.  H 5 (s)      0.0002  0.0002  0.0001  0.0001  0.0003  0.0003 -0.0002  0.0003
  42.  H 5 (s)     -0.0003 -0.0002  0.0003  0.0006 -0.0009 -0.0001  0.0000 -0.0002
  43.  H 6 (s)     -0.0002  0.0002  0.0001 -0.0001  0.0003  0.0000 -0.0003  0.0000
  44.  H 6 (s)      0.0003 -0.0002  0.0003 -0.0006 -0.0009  0.0000  0.0001  0.0000
  45.  H 7 (s)     -0.0002  0.0002  0.0001 -0.0001  0.0003 -0.0003  0.0002  0.0003
  46.  H 7 (s)      0.0003 -0.0002  0.0003 -0.0006 -0.0009  0.0001  0.0000 -0.0002
  47.  H 8 (s)     -0.0002  0.0002  0.0001 -0.0001  0.0003  0.0003  0.0002 -0.0003
  48.  H 8 (s)      0.0003 -0.0002  0.0003 -0.0006 -0.0009 -0.0001  0.0000  0.0002

           AO          9      10      11      12      13      14      15      16
      ------------ ------- ------- ------- ------- ------- ------- ------- -------
   1. Si 1 (s)      0.0000  0.0000  0.0411  0.0364  0.0000  0.0000  0.0000  0.0000
   2. Si 1 (s)      0.0000 -0.0002 -0.1945 -0.1745  0.0000  0.0000  0.0000  0.0000
   3. Si 1 (px)     0.0000  0.0000  0.0000  0.0000 -0.1190  0.0000 -0.1141  0.0000
   4. Si 1 (py)     0.7027  0.0000  0.0000  0.0000  0.0000 -0.1190  0.0000 -0.1141
   5. Si 1 (pz)     0.0000  0.7029  0.0160 -0.0462  0.0000  0.0000  0.0000  0.0000
   6. Si 1 (s)      0.0000 -0.0011  0.3926  0.3436  0.0000  0.0000  0.0000  0.0000
   7. Si 1 (px)     0.0000  0.0000  0.0000  0.0000  0.2850  0.0000  0.2771  0.0000
   8. Si 1 (py)     0.0163  0.0000  0.0000  0.0000  0.0000  0.2850  0.0000  0.2771
   9. Si 1 (pz)     0.0000  0.0169 -0.0414  0.1084  0.0000  0.0000  0.0000  0.0000
  10. Si 1 (s)      0.0000  0.0040  0.1059  0.1313  0.0000  0.0000  0.0000  0.0000
  11. Si 1 (px)     0.0000  0.0000  0.0000  0.0000  0.0549  0.0000  0.0392  0.0000
  12. Si 1 (py)    -0.0044  0.0000  0.0000  0.0000  0.0000  0.0549  0.0000  0.0392
  13. Si 1 (pz)     0.0000 -0.0057 -0.0095 -0.0112  0.0000  0.0000  0.0000  0.0000
  14. Si 1 (d5)     0.0000 -0.0010  0.0073 -0.0304  0.0000  0.0000  0.0000  0.0000
  15. Si 1 (d2)     0.0000  0.0000  0.0000  0.0000  0.0298  0.0000  0.0449  0.0000
  16. Si 1 (d3)     0.0001  0.0000  0.0000  0.0000  0.0000  0.0298  0.0000  0.0449
  17. Si 1 (d4)    -0.0005  0.0000  0.0000  0.0000  0.0000 -0.0527  0.0000 -0.0577
  18. Si 1 (d1)     0.0000  0.0000  0.0000  0.0000 -0.0527  0.0000 -0.0577  0.0000
  19. Si 2 (s)      0.0000  0.0000  0.0411 -0.0364  0.0000  0.0000  0.0000  0.0000
  20. Si 2 (s)      0.0000  0.0002 -0.1945  0.1745  0.0000  0.0000  0.0000  0.0000
  21. Si 2 (px)     0.0000  0.0000  0.0000  0.0000 -0.1190  0.0000  0.1141  0.0000
  22. Si 2 (py)    -0.7027  0.0000  0.0000  0.0000  0.0000 -0.1190  0.0000  0.1141
  23. Si 2 (pz)     0.0000  0.7029 -0.0160 -0.0462  0.0000  0.0000  0.0000  0.0000
  24. Si 2 (s)      0.0000  0.0011  0.3926 -0.3436  0.0000  0.0000  0.0000  0.0000
  25. Si 2 (px)     0.0000  0.0000  0.0000  0.0000  0.2850  0.0000 -0.2771  0.0000
  26. Si 2 (py)    -0.0163  0.0000  0.0000  0.0000  0.0000  0.2850  0.0000 -0.2771
  27. Si 2 (pz)     0.0000  0.0169  0.0414  0.1084  0.0000  0.0000  0.0000  0.0000
  28. Si 2 (s)      0.0000 -0.0040  0.1059 -0.1313  0.0000  0.0000  0.0000  0.0000
  29. Si 2 (px)     0.0000  0.0000  0.0000  0.0000  0.0549  0.0000 -0.0392  0.0000
  30. Si 2 (py)     0.0044  0.0000  0.0000  0.0000  0.0000  0.0549  0.0000 -0.0392
  31. Si 2 (pz)     0.0000 -0.0057  0.0095 -0.0112  0.0000  0.0000  0.0000  0.0000
  32. Si 2 (d5)     0.0000  0.0010  0.0073  0.0304  0.0000  0.0000  0.0000  0.0000
  33. Si 2 (d2)     0.0000  0.0000  0.0000  0.0000 -0.0298  0.0000  0.0449  0.0000
  34. Si 2 (d3)     0.0001  0.0000  0.0000  0.0000  0.0000 -0.0298  0.0000  0.0449
  35. Si 2 (d4)    -0.0005  0.0000  0.0000  0.0000  0.0000  0.0527  0.0000 -0.0577
  36. Si 2 (d1)     0.0000  0.0000  0.0000  0.0000  0.0527  0.0000 -0.0577  0.0000
  37.  H 3 (s)      0.0003  0.0001  0.0886  0.1121  0.0000  0.1849  0.0000  0.1962
  38.  H 3 (s)     -0.0002 -0.0001  0.0634  0.0963  0.0000  0.2221  0.0000  0.2592
  39.  H 4 (s)     -0.0002  0.0001  0.0886  0.1121 -0.1601 -0.0924 -0.1699 -0.0981
  40.  H 4 (s)      0.0001 -0.0001  0.0634  0.0963 -0.1924 -0.1111 -0.2245 -0.1296
  41.  H 5 (s)     -0.0002  0.0001  0.0886  0.1121  0.1601 -0.0924  0.1699 -0.0981
  42.  H 5 (s)      0.0001 -0.0001  0.0634  0.0963  0.1924 -0.1111  0.2245 -0.1296
  43.  H 6 (s)      0.0003 -0.0001  0.0886 -0.1121  0.0000 -0.1849  0.0000  0.1962
  44.  H 6 (s)     -0.0002  0.0001  0.0634 -0.0963  0.0000 -0.2221  0.0000  0.2592
  45.  H 7 (s)     -0.0002 -0.0001  0.0886 -0.1121 -0.1601  0.0924  0.1699 -0.0981
  46.  H 7 (s)      0.0001  0.0001  0.0634 -0.0963 -0.1924  0.1111  0.2245 -0.1296
  47.  H 8 (s)     -0.0002 -0.0001  0.0886 -0.1121  0.1601  0.0924 -0.1699 -0.0981
  48.  H 8 (s)      0.0001  0.0001  0.0634 -0.0963  0.1924  0.1111 -0.2245 -0.1296

           AO         17      18      19      20      21      22      23      24
      ------------ ------- ------- ------- ------- ------- ------- ------- -------
   1. Si 1 (s)     -0.0082 -0.0196  0.0000  0.0000  0.0219  0.0000  0.0000  0.0425
   2. Si 1 (s)      0.0339  0.1080  0.0000  0.0000 -0.0637  0.0000  0.0000 -0.1578
   3. Si 1 (px)     0.0000  0.0000 -0.0509  0.0000  0.0000 -0.0406  0.0000  0.0000
   4. Si 1 (py)     0.0000  0.0000  0.0000 -0.0509  0.0000  0.0000 -0.0406  0.0000
   5. Si 1 (pz)    -0.1615 -0.0751  0.0000  0.0000  0.0139  0.0000  0.0000 -0.0320
   6. Si 1 (s)     -0.1078 -0.1776  0.0000  0.0000  0.4293  0.0000  0.0000  0.6964
   7. Si 1 (px)     0.0000  0.0000  0.1366  0.0000  0.0000  0.0803  0.0000  0.0000
   8. Si 1 (py)     0.0000  0.0000  0.0000  0.1366  0.0000  0.0000  0.0803  0.0000
   9. Si 1 (pz)     0.4136  0.1578  0.0000  0.0000 -0.1806  0.0000  0.0000  0.1579
  10. Si 1 (s)     -0.0680 -1.3784  0.0000  0.0000  0.8497  0.0000  0.0000  1.0262
  11. Si 1 (px)     0.0000  0.0000  0.7941  0.0000  0.0000  1.7471  0.0000  0.0000
  12. Si 1 (py)     0.0000  0.0000  0.0000  0.7941  0.0000  0.0000  1.7471  0.0000
  13. Si 1 (pz)     0.1098  1.5992  0.0000  0.0000  0.9277  0.0000  0.0000  0.2872
  14. Si 1 (d5)    -0.0730  0.0564  0.0000  0.0000  0.1230  0.0000  0.0000  0.0174
  15. Si 1 (d2)     0.0000  0.0000 -0.0897  0.0000  0.0000  0.0190  0.0000  0.0000
  16. Si 1 (d3)     0.0000  0.0000  0.0000 -0.0897  0.0000  0.0000  0.0190  0.0000
  17. Si 1 (d4)     0.0000  0.0000  0.0000  0.0570  0.0000  0.0000  0.0844  0.0000
  18. Si 1 (d1)     0.0000  0.0000  0.0570  0.0000  0.0000  0.0844  0.0000  0.0000
  19. Si 2 (s)     -0.0082  0.0196  0.0000  0.0000  0.0219  0.0000  0.0000 -0.0425
  20. Si 2 (s)      0.0339 -0.1080  0.0000  0.0000 -0.0637  0.0000  0.0000  0.1578
  21. Si 2 (px)     0.0000  0.0000 -0.0509  0.0000  0.0000  0.0406  0.0000  0.0000
  22. Si 2 (py)     0.0000  0.0000  0.0000 -0.0509  0.0000  0.0000  0.0406  0.0000
  23. Si 2 (pz)     0.1615 -0.0751  0.0000  0.0000 -0.0139  0.0000  0.0000 -0.0320
  24. Si 2 (s)     -0.1078  0.1776  0.0000  0.0000  0.4293  0.0000  0.0000 -0.6964
  25. Si 2 (px)     0.0000  0.0000  0.1366  0.0000  0.0000 -0.0803  0.0000  0.0000
  26. Si 2 (py)     0.0000  0.0000  0.0000  0.1366  0.0000  0.0000 -0.0803  0.0000
  27. Si 2 (pz)    -0.4136  0.1578  0.0000  0.0000  0.1806  0.0000  0.0000  0.1579
  28. Si 2 (s)     -0.0680  1.3784  0.0000  0.0000  0.8497  0.0000  0.0000 -1.0262
  29. Si 2 (px)     0.0000  0.0000  0.7941  0.0000  0.0000 -1.7471  0.0000  0.0000
  30. Si 2 (py)     0.0000  0.0000  0.0000  0.7941  0.0000  0.0000 -1.7471  0.0000
  31. Si 2 (pz)    -0.1098  1.5992  0.0000  0.0000 -0.9277  0.0000  0.0000  0.2872
  32. Si 2 (d5)    -0.0730 -0.0564  0.0000  0.0000  0.1230  0.0000  0.0000 -0.0174
  33. Si 2 (d2)     0.0000  0.0000  0.0897  0.0000  0.0000  0.0190  0.0000  0.0000
  34. Si 2 (d3)     0.0000  0.0000  0.0000  0.0897  0.0000  0.0000  0.0190  0.0000
  35. Si 2 (d4)     0.0000  0.0000  0.0000 -0.0570  0.0000  0.0000  0.0844  0.0000
  36. Si 2 (d1)     0.0000  0.0000 -0.0570  0.0000  0.0000  0.0844  0.0000  0.0000
  37.  H 3 (s)      0.0798 -0.0068  0.0000 -0.1033 -0.0466  0.0000 -0.0390 -0.0675
  38.  H 3 (s)      0.1212 -0.0439  0.0000 -0.7229 -0.5466  0.0000 -1.0111 -0.7608
  39.  H 4 (s)      0.0798 -0.0068  0.0894  0.0516 -0.0466  0.0338  0.0195 -0.0675
  40.  H 4 (s)      0.1212 -0.0439  0.6260  0.3614 -0.5466  0.8757  0.5056 -0.7608
  41.  H 5 (s)      0.0798 -0.0068 -0.0894  0.0516 -0.0466 -0.0338  0.0195 -0.0675
  42.  H 5 (s)      0.1212 -0.0439 -0.6260  0.3614 -0.5466 -0.8757  0.5056 -0.7608
  43.  H 6 (s)      0.0798  0.0068  0.0000  0.1033 -0.0466  0.0000 -0.0390  0.0675
  44.  H 6 (s)      0.1212  0.0439  0.0000  0.7229 -0.5466  0.0000 -1.0111  0.7608
  45.  H 7 (s)      0.0798  0.0068  0.0894 -0.0516 -0.0466 -0.0338  0.0195  0.0675
  46.  H 7 (s)      0.1212  0.0439  0.6260 -0.3614 -0.5466 -0.8757  0.5056  0.7608
  47.  H 8 (s)      0.0798  0.0068 -0.0894 -0.0516 -0.0466  0.0338  0.0195  0.0675
  48.  H 8 (s)      0.1212  0.0439 -0.6260 -0.3614 -0.5466  0.8757  0.5056  0.7608

           AO         25      26      27      28      29      30      31      32
      ------------ ------- ------- ------- ------- ------- ------- ------- -------
   1. Si 1 (s)     -0.0427  0.0000  0.0000  0.0000  0.0000 -0.0098 -0.0005 -0.0372
   2. Si 1 (s)      0.0414  0.0000  0.0000  0.0000  0.0000 -0.1112 -0.0993 -0.1277
   3. Si 1 (px)     0.0000  0.0000 -0.2013  0.0000 -0.2143  0.0000  0.0000  0.0000
   4. Si 1 (py)     0.0000 -0.2013  0.0000 -0.2143  0.0000  0.0000  0.0000  0.0000
   5. Si 1 (pz)     0.0779  0.0000  0.0000  0.0000  0.0000  0.1892 -0.1506 -0.1495
   6. Si 1 (s)     -1.1457  0.0000  0.0000  0.0000  0.0000 -0.7131 -0.3907 -1.6031
   7. Si 1 (px)     0.0000  0.0000  0.9173  0.0000  0.9688  0.0000  0.0000  0.0000
   8. Si 1 (py)     0.0000  0.9173  0.0000  0.9688  0.0000  0.0000  0.0000  0.0000
   9. Si 1 (pz)    -0.3168  0.0000  0.0000  0.0000  0.0000 -0.7785  0.7770  0.6975
  10. Si 1 (s)      1.3689  0.0000  0.0000  0.0000  0.0000  2.7399  1.5818  6.3174
  11. Si 1 (px)     0.0000  0.0000 -0.5734  0.0000 -0.7281  0.0000  0.0000  0.0000
  12. Si 1 (py)     0.0000 -0.5734  0.0000 -0.7281  0.0000  0.0000  0.0000  0.0000
  13. Si 1 (pz)     0.4491  0.0000  0.0000  0.0000  0.0000  0.0990 -0.2567 -2.4000
  14. Si 1 (d5)     0.0016  0.0000  0.0000  0.0000  0.0000 -0.0776 -0.0985  0.0831
  15. Si 1 (d2)     0.0000  0.0000 -0.0555  0.0000  0.0164  0.0000  0.0000  0.0000
  16. Si 1 (d3)     0.0000 -0.0555  0.0000  0.0164  0.0000  0.0000  0.0000  0.0000
  17. Si 1 (d4)     0.0000 -0.0133  0.0000  0.0105  0.0000  0.0000  0.0000  0.0000
  18. Si 1 (d1)     0.0000  0.0000 -0.0133  0.0000  0.0105  0.0000  0.0000  0.0000
  19. Si 2 (s)     -0.0427  0.0000  0.0000  0.0000  0.0000  0.0098 -0.0005  0.0372
  20. Si 2 (s)      0.0414  0.0000  0.0000  0.0000  0.0000  0.1112 -0.0993  0.1277
  21. Si 2 (px)     0.0000  0.0000 -0.2013  0.0000  0.2143  0.0000  0.0000  0.0000
  22. Si 2 (py)     0.0000 -0.2013  0.0000  0.2143  0.0000  0.0000  0.0000  0.0000
  23. Si 2 (pz)    -0.0779  0.0000  0.0000  0.0000  0.0000  0.1892  0.1506 -0.1495
  24. Si 2 (s)     -1.1457  0.0000  0.0000  0.0000  0.0000  0.7131 -0.3907  1.6031
  25. Si 2 (px)     0.0000  0.0000  0.9173  0.0000 -0.9688  0.0000  0.0000  0.0000
  26. Si 2 (py)     0.0000  0.9173  0.0000 -0.9688  0.0000  0.0000  0.0000  0.0000
  27. Si 2 (pz)     0.3168  0.0000  0.0000  0.0000  0.0000 -0.7785 -0.7770  0.6975
  28. Si 2 (s)      1.3689  0.0000  0.0000  0.0000  0.0000 -2.7399  1.5818 -6.3174
  29. Si 2 (px)     0.0000  0.0000 -0.5734  0.0000  0.7281  0.0000  0.0000  0.0000
  30. Si 2 (py)     0.0000 -0.5734  0.0000  0.7281  0.0000  0.0000  0.0000  0.0000
  31. Si 2 (pz)    -0.4491  0.0000  0.0000  0.0000  0.0000  0.0990  0.2567 -2.4000
  32. Si 2 (d5)     0.0016  0.0000  0.0000  0.0000  0.0000  0.0776 -0.0985 -0.0831
  33. Si 2 (d2)     0.0000  0.0000  0.0555  0.0000  0.0164  0.0000  0.0000  0.0000
  34. Si 2 (d3)     0.0000  0.0555  0.0000  0.0164  0.0000  0.0000  0.0000  0.0000
  35. Si 2 (d4)     0.0000  0.0133  0.0000  0.0105  0.0000  0.0000  0.0000  0.0000
  36. Si 2 (d1)     0.0000  0.0000  0.0133  0.0000  0.0105  0.0000  0.0000  0.0000
  37.  H 3 (s)     -0.0322  0.0284  0.0000  0.0318  0.0000 -0.0591 -0.0761 -0.0260
  38.  H 3 (s)     -0.1339 -0.2337  0.0000 -0.3122  0.0000 -0.5228 -0.7134 -0.8247
  39.  H 4 (s)     -0.0322 -0.0142 -0.0246 -0.0159 -0.0275 -0.0591 -0.0761 -0.0260
  40.  H 4 (s)     -0.1339  0.1168  0.2024  0.1561  0.2703 -0.5228 -0.7134 -0.8247
  41.  H 5 (s)     -0.0322 -0.0142  0.0246 -0.0159  0.0275 -0.0591 -0.0761 -0.0260
  42.  H 5 (s)     -0.1339  0.1168 -0.2024  0.1561 -0.2703 -0.5228 -0.7134 -0.8247
  43.  H 6 (s)     -0.0322 -0.0284  0.0000  0.0318  0.0000  0.0591 -0.0761  0.0260
  44.  H 6 (s)     -0.1339  0.2337  0.0000 -0.3122  0.0000  0.5228 -0.7134  0.8247
  45.  H 7 (s)     -0.0322  0.0142 -0.0246 -0.0159  0.0275  0.0591 -0.0761  0.0260
  46.  H 7 (s)     -0.1339 -0.1168  0.2024  0.1561 -0.2703  0.5228 -0.7134  0.8247
  47.  H 8 (s)     -0.0322  0.0142  0.0246 -0.0159 -0.0275  0.0591 -0.0761  0.0260
  48.  H 8 (s)     -0.1339 -0.1168 -0.2024  0.1561  0.2703  0.5228 -0.7134  0.8247

           AO         33      34      35      36      37      38      39      40
      ------------ ------- ------- ------- ------- ------- ------- ------- -------
   1. Si 1 (s)      0.0000  0.0000  0.0086  0.0000  0.0000  0.0000  0.0000  0.0000
   2. Si 1 (s)      0.0000  0.0000 -0.0227  0.0000  0.0000  0.0000  0.0000  0.0000
   3. Si 1 (px)    -0.0262  0.0000  0.0000  0.0248  0.0000  0.0429  0.0000  0.0000
   4. Si 1 (py)     0.0000 -0.0262  0.0000  0.0000 -0.0248  0.0000 -0.0429  0.0280
   5. Si 1 (pz)     0.0000  0.0000  0.0769  0.0000  0.0000  0.0000  0.0000  0.0000
   6. Si 1 (s)      0.0000  0.0000  0.1889  0.0000  0.0000  0.0000  0.0000  0.0000
   7. Si 1 (px)     0.1173  0.0000  0.0000 -0.0320  0.0000 -0.0919  0.0000  0.0000
   8. Si 1 (py)     0.0000  0.1173  0.0000  0.0000  0.0320  0.0000  0.0919 -0.0816
   9. Si 1 (pz)     0.0000  0.0000 -0.3374  0.0000  0.0000  0.0000  0.0000  0.0000
  10. Si 1 (s)      0.0000  0.0000  0.6616  0.0000  0.0000  0.0000  0.0000  0.0000
  11. Si 1 (px)     0.2059  0.0000  0.0000  0.6234  0.0000  0.9966  0.0000  0.0000
  12. Si 1 (py)     0.0000  0.2059  0.0000  0.0000 -0.6234  0.0000 -0.9966 -0.4097
  13. Si 1 (pz)     0.0000  0.0000  0.5630  0.0000  0.0000  0.0000  0.0000  0.0000
  14. Si 1 (d5)     0.0000  0.0000 -0.6546  0.0000  0.0000  0.0000  0.0000  0.0000
  15. Si 1 (d2)     0.6224  0.0000  0.0000  0.2496  0.0000  0.3326  0.0000  0.0000
  16. Si 1 (d3)     0.0000  0.6224  0.0000  0.0000 -0.2496  0.0000 -0.3326  0.5917
  17. Si 1 (d4)     0.0000  0.2835  0.0000  0.0000  0.5994  0.0000  0.5450  0.4324
  18. Si 1 (d1)     0.2835  0.0000  0.0000 -0.5994  0.0000 -0.5450  0.0000  0.0000
  19. Si 2 (s)      0.0000  0.0000  0.0086  0.0000  0.0000  0.0000  0.0000  0.0000
  20. Si 2 (s)      0.0000  0.0000 -0.0227  0.0000  0.0000  0.0000  0.0000  0.0000
  21. Si 2 (px)    -0.0262  0.0000  0.0000  0.0248  0.0000 -0.0429  0.0000  0.0000
  22. Si 2 (py)     0.0000 -0.0262  0.0000  0.0000 -0.0248  0.0000  0.0429 -0.0280
  23. Si 2 (pz)     0.0000  0.0000 -0.0769  0.0000  0.0000  0.0000  0.0000  0.0000
  24. Si 2 (s)      0.0000  0.0000  0.1889  0.0000  0.0000  0.0000  0.0000  0.0000
  25. Si 2 (px)     0.1173  0.0000  0.0000 -0.0320  0.0000  0.0919  0.0000  0.0000
  26. Si 2 (py)     0.0000  0.1173  0.0000  0.0000  0.0320  0.0000 -0.0919  0.0816
  27. Si 2 (pz)     0.0000  0.0000  0.3374  0.0000  0.0000  0.0000  0.0000  0.0000
  28. Si 2 (s)      0.0000  0.0000  0.6616  0.0000  0.0000  0.0000  0.0000  0.0000
  29. Si 2 (px)     0.2059  0.0000  0.0000  0.6234  0.0000 -0.9966  0.0000  0.0000
  30. Si 2 (py)     0.0000  0.2059  0.0000  0.0000 -0.6234  0.0000  0.9966  0.4097
  31. Si 2 (pz)     0.0000  0.0000 -0.5630  0.0000  0.0000  0.0000  0.0000  0.0000
  32. Si 2 (d5)     0.0000  0.0000 -0.6546  0.0000  0.0000  0.0000  0.0000  0.0000
  33. Si 2 (d2)    -0.6224  0.0000  0.0000 -0.2496  0.0000  0.3326  0.0000  0.0000
  34. Si 2 (d3)     0.0000 -0.6224  0.0000  0.0000  0.2496  0.0000 -0.3326  0.5917
  35. Si 2 (d4)     0.0000 -0.2835  0.0000  0.0000 -0.5994  0.0000  0.5450  0.4324
  36. Si 2 (d1)    -0.2835  0.0000  0.0000  0.5994  0.0000 -0.5450  0.0000  0.0000
  37.  H 3 (s)      0.0000  0.0426  0.0784  0.0000 -0.2875  0.0000 -0.3164  0.0862
  38.  H 3 (s)      0.0000 -0.3320 -0.4467  0.0000  0.9897  0.0000  1.0570  0.1808
  39.  H 4 (s)     -0.0369 -0.0213  0.0784 -0.2490  0.1438 -0.2740  0.1582 -0.0431
  40.  H 4 (s)      0.2876  0.1660 -0.4467  0.8571 -0.4949  0.9153 -0.5285 -0.0904
  41.  H 5 (s)      0.0369 -0.0213  0.0784  0.2490  0.1438  0.2740  0.1582 -0.0431
  42.  H 5 (s)     -0.2876  0.1660 -0.4467 -0.8571 -0.4949 -0.9153 -0.5285 -0.0904
  43.  H 6 (s)      0.0000 -0.0426  0.0784  0.0000  0.2875  0.0000 -0.3164  0.0862
  44.  H 6 (s)      0.0000  0.3320 -0.4467  0.0000 -0.9897  0.0000  1.0570  0.1808
  45.  H 7 (s)     -0.0369  0.0213  0.0784 -0.2490 -0.1438  0.2740  0.1582 -0.0431
  46.  H 7 (s)      0.2876 -0.1660 -0.4467  0.8571  0.4949 -0.9153 -0.5285 -0.0904
  47.  H 8 (s)      0.0369  0.0213  0.0784  0.2490 -0.1438 -0.2740  0.1582 -0.0431
  48.  H 8 (s)     -0.2876 -0.1660 -0.4467 -0.8571  0.4949  0.9153 -0.5285 -0.0904

           AO         41      42      43      44      45      46      47      48
      ------------ ------- ------- ------- ------- ------- ------- ------- -------
   1. Si 1 (s)      0.0000 -0.0178 -0.0213  0.0000  0.0000 -0.0073  0.0000  0.0000
   2. Si 1 (s)      0.0000  0.0543  0.0520  0.0000  0.0000 -0.0473  0.0000  0.0000
   3. Si 1 (px)     0.0280  0.0000  0.0000  0.0000 -0.0754  0.0000  0.0000 -0.0823
   4. Si 1 (py)     0.0000  0.0000  0.0000  0.0754  0.0000  0.0000  0.0823  0.0000
   5. Si 1 (pz)     0.0000 -0.0357  0.0055  0.0000  0.0000  0.1055  0.0000  0.0000
   6. Si 1 (s)      0.0000 -0.3271 -0.4569  0.0000  0.0000 -0.3867  0.0000  0.0000
   7. Si 1 (px)    -0.0816  0.0000  0.0000  0.0000  0.2488  0.0000  0.0000  0.2745
   8. Si 1 (py)     0.0000  0.0000  0.0000 -0.2488  0.0000  0.0000 -0.2745  0.0000
   9. Si 1 (pz)     0.0000  0.1918  0.1182  0.0000  0.0000 -0.4075  0.0000  0.0000
  10. Si 1 (s)      0.0000  1.5844  1.5977  0.0000  0.0000  2.7338  0.0000  0.0000
  11. Si 1 (px)    -0.4097  0.0000  0.0000  0.0000 -0.4057  0.0000  0.0000 -0.3116
  12. Si 1 (py)     0.0000  0.0000  0.0000  0.4057  0.0000  0.0000  0.3116  0.0000
  13. Si 1 (pz)     0.0000  0.2745  0.2712  0.0000  0.0000 -0.5029  0.0000  0.0000
  14. Si 1 (d5)     0.0000 -0.5625  0.1352  0.0000  0.0000  0.6728  0.0000  0.0000
  15. Si 1 (d2)     0.5917  0.0000  0.0000  0.0000  0.3572  0.0000  0.0000  0.2410
  16. Si 1 (d3)     0.0000  0.0000  0.0000 -0.3572  0.0000  0.0000 -0.2410  0.0000
  17. Si 1 (d4)     0.0000  0.0000  0.0000  0.3287  0.0000  0.0000  0.3793  0.0000
  18. Si 1 (d1)     0.4324  0.0000  0.0000  0.0000 -0.3287  0.0000  0.0000 -0.3793
  19. Si 2 (s)      0.0000  0.0178 -0.0213  0.0000  0.0000  0.0073  0.0000  0.0000
  20. Si 2 (s)      0.0000 -0.0543  0.0520  0.0000  0.0000  0.0473  0.0000  0.0000
  21. Si 2 (px)    -0.0280  0.0000  0.0000  0.0000  0.0754  0.0000  0.0000 -0.0823
  22. Si 2 (py)     0.0000  0.0000  0.0000 -0.0754  0.0000  0.0000  0.0823  0.0000
  23. Si 2 (pz)     0.0000 -0.0357 -0.0055  0.0000  0.0000  0.1055  0.0000  0.0000
  24. Si 2 (s)      0.0000  0.3271 -0.4569  0.0000  0.0000  0.3867  0.0000  0.0000
  25. Si 2 (px)     0.0816  0.0000  0.0000  0.0000 -0.2488  0.0000  0.0000  0.2745
  26. Si 2 (py)     0.0000  0.0000  0.0000  0.2488  0.0000  0.0000 -0.2745  0.0000
  27. Si 2 (pz)     0.0000  0.1918 -0.1182  0.0000  0.0000 -0.4075  0.0000  0.0000
  28. Si 2 (s)      0.0000 -1.5844  1.5977  0.0000  0.0000 -2.7338  0.0000  0.0000
  29. Si 2 (px)     0.4097  0.0000  0.0000  0.0000  0.4057  0.0000  0.0000 -0.3116
  30. Si 2 (py)     0.0000  0.0000  0.0000 -0.4057  0.0000  0.0000  0.3116  0.0000
  31. Si 2 (pz)     0.0000  0.2745 -0.2712  0.0000  0.0000 -0.5029  0.0000  0.0000
  32. Si 2 (d5)     0.0000  0.5625  0.1352  0.0000  0.0000 -0.6728  0.0000  0.0000
  33. Si 2 (d2)     0.5917  0.0000  0.0000  0.0000  0.3572  0.0000  0.0000 -0.2410
  34. Si 2 (d3)     0.0000  0.0000  0.0000 -0.3572  0.0000  0.0000  0.2410  0.0000
  35. Si 2 (d4)     0.0000  0.0000  0.0000  0.3287  0.0000  0.0000 -0.3793  0.0000
  36. Si 2 (d1)     0.4324  0.0000  0.0000  0.0000 -0.3287  0.0000  0.0000  0.3793
  37.  H 3 (s)      0.0000  0.3805  0.5795  0.7723  0.0000  0.4474  0.7963  0.0000
  38.  H 3 (s)      0.0000 -0.8892 -1.0202 -0.6718  0.0000 -0.8026 -0.7102  0.0000
  39.  H 4 (s)     -0.0747  0.3805  0.5795 -0.3862  0.6688  0.4474 -0.3981  0.6896
  40.  H 4 (s)     -0.1566 -0.8892 -1.0202  0.3359 -0.5818 -0.8026  0.3551 -0.6151
  41.  H 5 (s)      0.0747  0.3805  0.5795 -0.3862 -0.6688  0.4474 -0.3981 -0.6896
  42.  H 5 (s)      0.1566 -0.8892 -1.0202  0.3359  0.5818 -0.8026  0.3551  0.6151
  43.  H 6 (s)      0.0000 -0.3805  0.5795  0.7723  0.0000 -0.4474 -0.7963  0.0000
  44.  H 6 (s)      0.0000  0.8892 -1.0202 -0.6718  0.0000  0.8026  0.7102  0.0000
  45.  H 7 (s)      0.0747 -0.3805  0.5795 -0.3862 -0.6688 -0.4474  0.3981  0.6896
  46.  H 7 (s)      0.1566  0.8892 -1.0202  0.3359  0.5818  0.8026 -0.3551 -0.6151
  47.  H 8 (s)     -0.0747 -0.3805  0.5795 -0.3862  0.6688 -0.4474  0.3981 -0.6896
  48.  H 8 (s)     -0.1566  0.8892 -1.0202  0.3359 -0.5818  0.8026 -0.3551  0.6151


 AO overlap matrix:

           AO          1       2       3       4       5       6       7       8
      ------------ ------- ------- ------- ------- ------- ------- ------- -------
   1. Si 1 (s)      1.0000  0.2523  0.0000  0.0000  0.0000  0.0039  0.0000  0.0000
   2. Si 1 (s)      0.2523  1.0000  0.0000  0.0000  0.0000  0.2816  0.0000  0.0000
   3. Si 1 (px)     0.0000  0.0000  1.0000  0.0000  0.0000  0.0000  0.2800  0.0000
   4. Si 1 (py)     0.0000  0.0000  0.0000  1.0000  0.0000  0.0000  0.0000  0.2800
   5. Si 1 (pz)     0.0000  0.0000  0.0000  0.0000  1.0000  0.0000  0.0000  0.0000
   6. Si 1 (s)      0.0039  0.2816  0.0000  0.0000  0.0000  1.0000  0.0000  0.0000
   7. Si 1 (px)     0.0000  0.0000  0.2800  0.0000  0.0000  0.0000  1.0000  0.0000
   8. Si 1 (py)     0.0000  0.0000  0.0000  0.2800  0.0000  0.0000  0.0000  1.0000
   9. Si 1 (pz)     0.0000  0.0000  0.0000  0.0000  0.2800  0.0000  0.0000  0.0000
  10. Si 1 (s)      0.0294  0.2422  0.0000  0.0000  0.0000  0.8403  0.0000  0.0000
  11. Si 1 (px)     0.0000  0.0000  0.0701  0.0000  0.0000  0.0000  0.6603  0.0000
  12. Si 1 (py)     0.0000  0.0000  0.0000  0.0701  0.0000  0.0000  0.0000  0.6603
  13. Si 1 (pz)     0.0000  0.0000  0.0000  0.0000  0.0701  0.0000  0.0000  0.0000
  14. Si 1 (d5)     0.0000  0.0000  0.0000  0.0000  0.0000  0.0000  0.0000  0.0000
  15. Si 1 (d2)     0.0000  0.0000  0.0000  0.0000  0.0000  0.0000  0.0000  0.0000
  16. Si 1 (d3)     0.0000  0.0000  0.0000  0.0000  0.0000  0.0000  0.0000  0.0000
  17. Si 1 (d4)     0.0000  0.0000  0.0000  0.0000  0.0000  0.0000  0.0000  0.0000
  18. Si 1 (d1)     0.0000  0.0000  0.0000  0.0000  0.0000  0.0000  0.0000  0.0000
  19. Si 2 (s)      0.0000  0.0000  0.0000  0.0000  0.0000  0.0010  0.0000  0.0000
  20. Si 2 (s)      0.0000  0.0000  0.0000  0.0000  0.0000  0.0114  0.0000  0.0000
  21. Si 2 (px)     0.0000  0.0000  0.0000  0.0000  0.0000  0.0000  0.0038  0.0000
  22. Si 2 (py)     0.0000  0.0000  0.0000  0.0000  0.0000  0.0000  0.0000  0.0038
  23. Si 2 (pz)     0.0000  0.0000  0.0000  0.0000  0.0000  0.0106  0.0000  0.0000
  24. Si 2 (s)      0.0010  0.0114  0.0000  0.0000 -0.0106  0.1330  0.0000  0.0000
  25. Si 2 (px)     0.0000  0.0000  0.0038  0.0000  0.0000  0.0000  0.0874  0.0000
  26. Si 2 (py)     0.0000  0.0000  0.0000  0.0038  0.0000  0.0000  0.0000  0.0874
  27. Si 2 (pz)     0.0029  0.0307  0.0000  0.0000 -0.0252  0.2219  0.0000  0.0000
  28. Si 2 (s)      0.0065  0.0569  0.0000  0.0000 -0.0202  0.2791  0.0000  0.0000
  29. Si 2 (px)     0.0000  0.0000  0.0164  0.0000  0.0000  0.0000  0.2097  0.0000
  30. Si 2 (py)     0.0000  0.0000  0.0000  0.0164  0.0000  0.0000  0.0000  0.2097
  31. Si 2 (pz)     0.0159  0.1339  0.0000  0.0000 -0.0312  0.5012  0.0000  0.0000
  32. Si 2 (d5)     0.0004  0.0086  0.0000  0.0000 -0.0122  0.1203  0.0000  0.0000
  33. Si 2 (d2)     0.0000  0.0000  0.0018  0.0000  0.0000  0.0000  0.0803  0.0000
  34. Si 2 (d3)     0.0000  0.0000  0.0000  0.0018  0.0000  0.0000  0.0000  0.0803
  35. Si 2 (d4)     0.0000  0.0000  0.0000  0.0000  0.0000  0.0000  0.0000  0.0000
  36. Si 2 (d1)     0.0000  0.0000  0.0000  0.0000  0.0000  0.0000  0.0000  0.0000
  37.  H 3 (s)      0.0008  0.0165  0.0000  0.0213  0.0079  0.2147  0.0000  0.3426
  38.  H 3 (s)      0.0143  0.1221  0.0000  0.0514  0.0191  0.4846  0.0000  0.4528
  39.  H 4 (s)      0.0008  0.0165 -0.0185 -0.0107  0.0079  0.2147 -0.2967 -0.1713
  40.  H 4 (s)      0.0143  0.1221 -0.0445 -0.0257  0.0191  0.4846 -0.3921 -0.2264
  41.  H 5 (s)      0.0008  0.0165  0.0185 -0.0107  0.0079  0.2147  0.2967 -0.1713
  42.  H 5 (s)      0.0143  0.1221  0.0445 -0.0257  0.0191  0.4846  0.3921 -0.2264
  43.  H 6 (s)      0.0000  0.0000  0.0000  0.0000  0.0000  0.0020  0.0000 -0.0027
  44.  H 6 (s)      0.0002  0.0020  0.0000 -0.0008 -0.0017  0.0368  0.0000 -0.0301
  45.  H 7 (s)      0.0000  0.0000  0.0000  0.0000  0.0000  0.0020 -0.0023  0.0013
  46.  H 7 (s)      0.0002  0.0020 -0.0007  0.0004 -0.0017  0.0368 -0.0261  0.0151
  47.  H 8 (s)      0.0000  0.0000  0.0000  0.0000  0.0000  0.0020  0.0023  0.0013
  48.  H 8 (s)      0.0002  0.0020  0.0007  0.0004 -0.0017  0.0368  0.0261  0.0151

           AO          9      10      11      12      13      14      15      16
      ------------ ------- ------- ------- ------- ------- ------- ------- -------
   1. Si 1 (s)      0.0000  0.0294  0.0000  0.0000  0.0000  0.0000  0.0000  0.0000
   2. Si 1 (s)      0.0000  0.2422  0.0000  0.0000  0.0000  0.0000  0.0000  0.0000
   3. Si 1 (px)     0.0000  0.0000  0.0701  0.0000  0.0000  0.0000  0.0000  0.0000
   4. Si 1 (py)     0.0000  0.0000  0.0000  0.0701  0.0000  0.0000  0.0000  0.0000
   5. Si 1 (pz)     0.2800  0.0000  0.0000  0.0000  0.0701  0.0000  0.0000  0.0000
   6. Si 1 (s)      0.0000  0.8403  0.0000  0.0000  0.0000  0.0000  0.0000  0.0000
   7. Si 1 (px)     0.0000  0.0000  0.6603  0.0000  0.0000  0.0000  0.0000  0.0000
   8. Si 1 (py)     0.0000  0.0000  0.0000  0.6603  0.0000  0.0000  0.0000  0.0000
   9. Si 1 (pz)     1.0000  0.0000  0.0000  0.0000  0.6603  0.0000  0.0000  0.0000
  10. Si 1 (s)      0.0000  1.0000  0.0000  0.0000  0.0000  0.0000  0.0000  0.0000
  11. Si 1 (px)     0.0000  0.0000  1.0000  0.0000  0.0000  0.0000  0.0000  0.0000
  12. Si 1 (py)     0.0000  0.0000  0.0000  1.0000  0.0000  0.0000  0.0000  0.0000
  13. Si 1 (pz)     0.6603  0.0000  0.0000  0.0000  1.0000  0.0000  0.0000  0.0000
  14. Si 1 (d5)     0.0000  0.0000  0.0000  0.0000  0.0000  1.0000  0.0000  0.0000
  15. Si 1 (d2)     0.0000  0.0000  0.0000  0.0000  0.0000  0.0000  1.0000  0.0000
  16. Si 1 (d3)     0.0000  0.0000  0.0000  0.0000  0.0000  0.0000  0.0000  1.0000
  17. Si 1 (d4)     0.0000  0.0000  0.0000  0.0000  0.0000  0.0000  0.0000  0.0000
  18. Si 1 (d1)     0.0000  0.0000  0.0000  0.0000  0.0000  0.0000  0.0000  0.0000
  19. Si 2 (s)     -0.0029  0.0065  0.0000  0.0000 -0.0159  0.0004  0.0000  0.0000
  20. Si 2 (s)     -0.0307  0.0569  0.0000  0.0000 -0.1339  0.0086  0.0000  0.0000
  21. Si 2 (px)     0.0000  0.0000  0.0164  0.0000  0.0000  0.0000 -0.0018  0.0000
  22. Si 2 (py)     0.0000  0.0000  0.0000  0.0164  0.0000  0.0000  0.0000 -0.0018
  23. Si 2 (pz)    -0.0252  0.0202  0.0000  0.0000 -0.0312  0.0122  0.0000  0.0000
  24. Si 2 (s)     -0.2219  0.2791  0.0000  0.0000 -0.5012  0.1203  0.0000  0.0000
  25. Si 2 (px)     0.0000  0.0000  0.2097  0.0000  0.0000  0.0000 -0.0803  0.0000
  26. Si 2 (py)     0.0000  0.0000  0.0000  0.2097  0.0000  0.0000  0.0000 -0.0803
  27. Si 2 (pz)    -0.3180  0.2582  0.0000  0.0000 -0.2704  0.1898  0.0000  0.0000
  28. Si 2 (s)     -0.2582  0.4686  0.0000  0.0000 -0.5770  0.0722  0.0000  0.0000
  29. Si 2 (px)     0.0000  0.0000  0.4686  0.0000  0.0000  0.0000 -0.1015  0.0000
  30. Si 2 (py)     0.0000  0.0000  0.0000  0.4686  0.0000  0.0000  0.0000 -0.1015
  31. Si 2 (pz)    -0.2704  0.5770  0.0000  0.0000 -0.2418  0.0343  0.0000  0.0000
  32. Si 2 (d5)    -0.1898  0.0722  0.0000  0.0000 -0.0343  0.1865  0.0000  0.0000
  33. Si 2 (d2)     0.0000  0.0000  0.1015  0.0000  0.0000  0.0000 -0.0970  0.0000
  34. Si 2 (d3)     0.0000  0.0000  0.0000  0.1015  0.0000  0.0000  0.0000 -0.0970
  35. Si 2 (d4)     0.0000  0.0000  0.0000  0.0000  0.0000  0.0000  0.0000  0.0000
  36. Si 2 (d1)     0.0000  0.0000  0.0000  0.0000  0.0000  0.0000  0.0000  0.0000
  37.  H 3 (s)      0.1275  0.2553  0.0000  0.3374  0.1255 -0.1013  0.0000  0.1806
  38.  H 3 (s)      0.1685  0.5995  0.0000  0.5940  0.2210 -0.0588  0.0000  0.1048
  39.  H 4 (s)      0.1275  0.2553 -0.2922 -0.1687  0.1255 -0.1013 -0.1564 -0.0903
  40.  H 4 (s)      0.1685  0.5995 -0.5144 -0.2970  0.2210 -0.0588 -0.0907 -0.0524
  41.  H 5 (s)      0.1275  0.2553  0.2922 -0.1687  0.1255 -0.1013  0.1564 -0.0903
  42.  H 5 (s)      0.1685  0.5995  0.5144 -0.2970  0.2210 -0.0588  0.0907 -0.0524
  43.  H 6 (s)     -0.0055  0.0357  0.0000 -0.0471 -0.0965  0.0005  0.0000  0.0005
  44.  H 6 (s)     -0.0617  0.1370  0.0000 -0.1357 -0.2780  0.0213  0.0000  0.0205
  45.  H 7 (s)     -0.0055  0.0357 -0.0408  0.0235 -0.0965  0.0005  0.0004 -0.0003
  46.  H 7 (s)     -0.0617  0.1370 -0.1175  0.0679 -0.2780  0.0213  0.0177 -0.0102
  47.  H 8 (s)     -0.0055  0.0357  0.0408  0.0235 -0.0965  0.0005 -0.0004 -0.0003
  48.  H 8 (s)     -0.0617  0.1370  0.1175  0.0679 -0.2780  0.0213 -0.0177 -0.0102

           AO         17      18      19      20      21      22      23      24
      ------------ ------- ------- ------- ------- ------- ------- ------- -------
   1. Si 1 (s)      0.0000  0.0000  0.0000  0.0000  0.0000  0.0000  0.0000  0.0010
   2. Si 1 (s)      0.0000  0.0000  0.0000  0.0000  0.0000  0.0000  0.0000  0.0114
   3. Si 1 (px)     0.0000  0.0000  0.0000  0.0000  0.0000  0.0000  0.0000  0.0000
   4. Si 1 (py)     0.0000  0.0000  0.0000  0.0000  0.0000  0.0000  0.0000  0.0000
   5. Si 1 (pz)     0.0000  0.0000  0.0000  0.0000  0.0000  0.0000  0.0000 -0.0106
   6. Si 1 (s)      0.0000  0.0000  0.0010  0.0114  0.0000  0.0000  0.0106  0.1330
   7. Si 1 (px)     0.0000  0.0000  0.0000  0.0000  0.0038  0.0000  0.0000  0.0000
   8. Si 1 (py)     0.0000  0.0000  0.0000  0.0000  0.0000  0.0038  0.0000  0.0000
   9. Si 1 (pz)     0.0000  0.0000 -0.0029 -0.0307  0.0000  0.0000 -0.0252 -0.2219
  10. Si 1 (s)      0.0000  0.0000  0.0065  0.0569  0.0000  0.0000  0.0202  0.2791
  11. Si 1 (px)     0.0000  0.0000  0.0000  0.0000  0.0164  0.0000  0.0000  0.0000
  12. Si 1 (py)     0.0000  0.0000  0.0000  0.0000  0.0000  0.0164  0.0000  0.0000
  13. Si 1 (pz)     0.0000  0.0000 -0.0159 -0.1339  0.0000  0.0000 -0.0312 -0.5012
  14. Si 1 (d5)     0.0000  0.0000  0.0004  0.0086  0.0000  0.0000  0.0122  0.1203
  15. Si 1 (d2)     0.0000  0.0000  0.0000  0.0000 -0.0018  0.0000  0.0000  0.0000
  16. Si 1 (d3)     0.0000  0.0000  0.0000  0.0000  0.0000 -0.0018  0.0000  0.0000
  17. Si 1 (d4)     1.0000  0.0000  0.0000  0.0000  0.0000  0.0000  0.0000  0.0000
  18. Si 1 (d1)     0.0000  1.0000  0.0000  0.0000  0.0000  0.0000  0.0000  0.0000
  19. Si 2 (s)      0.0000  0.0000  1.0000  0.2523  0.0000  0.0000  0.0000  0.0039
  20. Si 2 (s)      0.0000  0.0000  0.2523  1.0000  0.0000  0.0000  0.0000  0.2816
  21. Si 2 (px)     0.0000  0.0000  0.0000  0.0000  1.0000  0.0000  0.0000  0.0000
  22. Si 2 (py)     0.0000  0.0000  0.0000  0.0000  0.0000  1.0000  0.0000  0.0000
  23. Si 2 (pz)     0.0000  0.0000  0.0000  0.0000  0.0000  0.0000  1.0000  0.0000
  24. Si 2 (s)      0.0000  0.0000  0.0039  0.2816  0.0000  0.0000  0.0000  1.0000
  25. Si 2 (px)     0.0000  0.0000  0.0000  0.0000  0.2800  0.0000  0.0000  0.0000
  26. Si 2 (py)     0.0000  0.0000  0.0000  0.0000  0.0000  0.2800  0.0000  0.0000
  27. Si 2 (pz)     0.0000  0.0000  0.0000  0.0000  0.0000  0.0000  0.2800  0.0000
  28. Si 2 (s)      0.0000  0.0000  0.0294  0.2422  0.0000  0.0000  0.0000  0.8403
  29. Si 2 (px)     0.0000  0.0000  0.0000  0.0000  0.0701  0.0000  0.0000  0.0000
  30. Si 2 (py)     0.0000  0.0000  0.0000  0.0000  0.0000  0.0701  0.0000  0.0000
  31. Si 2 (pz)     0.0000  0.0000  0.0000  0.0000  0.0000  0.0000  0.0701  0.0000
  32. Si 2 (d5)     0.0000  0.0000  0.0000  0.0000  0.0000  0.0000  0.0000  0.0000
  33. Si 2 (d2)     0.0000  0.0000  0.0000  0.0000  0.0000  0.0000  0.0000  0.0000
  34. Si 2 (d3)     0.0000  0.0000  0.0000  0.0000  0.0000  0.0000  0.0000  0.0000
  35. Si 2 (d4)     0.0125  0.0000  0.0000  0.0000  0.0000  0.0000  0.0000  0.0000
  36. Si 2 (d1)     0.0000  0.0125  0.0000  0.0000  0.0000  0.0000  0.0000  0.0000
  37.  H 3 (s)     -0.2427  0.0000  0.0000  0.0000  0.0000  0.0000  0.0000  0.0020
  38.  H 3 (s)     -0.1408  0.0000  0.0002  0.0020  0.0000  0.0008  0.0017  0.0368
  39.  H 4 (s)      0.1213  0.2102  0.0000  0.0000  0.0000  0.0000  0.0000  0.0020
  40.  H 4 (s)      0.0704  0.1220  0.0002  0.0020 -0.0007 -0.0004  0.0017  0.0368
  41.  H 5 (s)      0.1213 -0.2102  0.0000  0.0000  0.0000  0.0000  0.0000  0.0020
  42.  H 5 (s)      0.0704 -0.1220  0.0002  0.0020  0.0007 -0.0004  0.0017  0.0368
  43.  H 6 (s)     -0.0001  0.0000  0.0008  0.0165  0.0000 -0.0213 -0.0079  0.2147
  44.  H 6 (s)     -0.0050  0.0000  0.0143  0.1221  0.0000 -0.0514 -0.0191  0.4846
  45.  H 7 (s)      0.0001 -0.0001  0.0008  0.0165 -0.0185  0.0107 -0.0079  0.2147
  46.  H 7 (s)      0.0025 -0.0043  0.0143  0.1221 -0.0445  0.0257 -0.0191  0.4846
  47.  H 8 (s)      0.0001  0.0001  0.0008  0.0165  0.0185  0.0107 -0.0079  0.2147
  48.  H 8 (s)      0.0025  0.0043  0.0143  0.1221  0.0445  0.0257 -0.0191  0.4846

           AO         25      26      27      28      29      30      31      32
      ------------ ------- ------- ------- ------- ------- ------- ------- -------
   1. Si 1 (s)      0.0000  0.0000  0.0029  0.0065  0.0000  0.0000  0.0159  0.0004
   2. Si 1 (s)      0.0000  0.0000  0.0307  0.0569  0.0000  0.0000  0.1339  0.0086
   3. Si 1 (px)     0.0038  0.0000  0.0000  0.0000  0.0164  0.0000  0.0000  0.0000
   4. Si 1 (py)     0.0000  0.0038  0.0000  0.0000  0.0000  0.0164  0.0000  0.0000
   5. Si 1 (pz)     0.0000  0.0000 -0.0252 -0.0202  0.0000  0.0000 -0.0312 -0.0122
   6. Si 1 (s)      0.0000  0.0000  0.2219  0.2791  0.0000  0.0000  0.5012  0.1203
   7. Si 1 (px)     0.0874  0.0000  0.0000  0.0000  0.2097  0.0000  0.0000  0.0000
   8. Si 1 (py)     0.0000  0.0874  0.0000  0.0000  0.0000  0.2097  0.0000  0.0000
   9. Si 1 (pz)     0.0000  0.0000 -0.3180 -0.2582  0.0000  0.0000 -0.2704 -0.1898
  10. Si 1 (s)      0.0000  0.0000  0.2582  0.4686  0.0000  0.0000  0.5770  0.0722
  11. Si 1 (px)     0.2097  0.0000  0.0000  0.0000  0.4686  0.0000  0.0000  0.0000
  12. Si 1 (py)     0.0000  0.2097  0.0000  0.0000  0.0000  0.4686  0.0000  0.0000
  13. Si 1 (pz)     0.0000  0.0000 -0.2704 -0.5770  0.0000  0.0000 -0.2418 -0.0343
  14. Si 1 (d5)     0.0000  0.0000  0.1898  0.0722  0.0000  0.0000  0.0343  0.1865
  15. Si 1 (d2)    -0.0803  0.0000  0.0000  0.0000 -0.1015  0.0000  0.0000  0.0000
  16. Si 1 (d3)     0.0000 -0.0803  0.0000  0.0000  0.0000 -0.1015  0.0000  0.0000
  17. Si 1 (d4)     0.0000  0.0000  0.0000  0.0000  0.0000  0.0000  0.0000  0.0000
  18. Si 1 (d1)     0.0000  0.0000  0.0000  0.0000  0.0000  0.0000  0.0000  0.0000
  19. Si 2 (s)      0.0000  0.0000  0.0000  0.0294  0.0000  0.0000  0.0000  0.0000
  20. Si 2 (s)      0.0000  0.0000  0.0000  0.2422  0.0000  0.0000  0.0000  0.0000
  21. Si 2 (px)     0.2800  0.0000  0.0000  0.0000  0.0701  0.0000  0.0000  0.0000
  22. Si 2 (py)     0.0000  0.2800  0.0000  0.0000  0.0000  0.0701  0.0000  0.0000
  23. Si 2 (pz)     0.0000  0.0000  0.2800  0.0000  0.0000  0.0000  0.0701  0.0000
  24. Si 2 (s)      0.0000  0.0000  0.0000  0.8403  0.0000  0.0000  0.0000  0.0000
  25. Si 2 (px)     1.0000  0.0000  0.0000  0.0000  0.6603  0.0000  0.0000  0.0000
  26. Si 2 (py)     0.0000  1.0000  0.0000  0.0000  0.0000  0.6603  0.0000  0.0000
  27. Si 2 (pz)     0.0000  0.0000  1.0000  0.0000  0.0000  0.0000  0.6603  0.0000
  28. Si 2 (s)      0.0000  0.0000  0.0000  1.0000  0.0000  0.0000  0.0000  0.0000
  29. Si 2 (px)     0.6603  0.0000  0.0000  0.0000  1.0000  0.0000  0.0000  0.0000
  30. Si 2 (py)     0.0000  0.6603  0.0000  0.0000  0.0000  1.0000  0.0000  0.0000
  31. Si 2 (pz)     0.0000  0.0000  0.6603  0.0000  0.0000  0.0000  1.0000  0.0000
  32. Si 2 (d5)     0.0000  0.0000  0.0000  0.0000  0.0000  0.0000  0.0000  1.0000
  33. Si 2 (d2)     0.0000  0.0000  0.0000  0.0000  0.0000  0.0000  0.0000  0.0000
  34. Si 2 (d3)     0.0000  0.0000  0.0000  0.0000  0.0000  0.0000  0.0000  0.0000
  35. Si 2 (d4)     0.0000  0.0000  0.0000  0.0000  0.0000  0.0000  0.0000  0.0000
  36. Si 2 (d1)     0.0000  0.0000  0.0000  0.0000  0.0000  0.0000  0.0000  0.0000
  37.  H 3 (s)      0.0000  0.0027  0.0055  0.0357  0.0000  0.0471  0.0965  0.0005
  38.  H 3 (s)      0.0000  0.0301  0.0617  0.1370  0.0000  0.1357  0.2780  0.0213
  39.  H 4 (s)     -0.0023 -0.0013  0.0055  0.0357 -0.0408 -0.0235  0.0965  0.0005
  40.  H 4 (s)     -0.0261 -0.0151  0.0617  0.1370 -0.1175 -0.0679  0.2780  0.0213
  41.  H 5 (s)      0.0023 -0.0013  0.0055  0.0357  0.0408 -0.0235  0.0965  0.0005
  42.  H 5 (s)      0.0261 -0.0151  0.0617  0.1370  0.1175 -0.0679  0.2780  0.0213
  43.  H 6 (s)      0.0000 -0.3426 -0.1275  0.2553  0.0000 -0.3374 -0.1255 -0.1013
  44.  H 6 (s)      0.0000 -0.4528 -0.1685  0.5995  0.0000 -0.5940 -0.2210 -0.0588
  45.  H 7 (s)     -0.2967  0.1713 -0.1275  0.2553 -0.2922  0.1687 -0.1255 -0.1013
  46.  H 7 (s)     -0.3921  0.2264 -0.1685  0.5995 -0.5144  0.2970 -0.2210 -0.0588
  47.  H 8 (s)      0.2967  0.1713 -0.1275  0.2553  0.2922  0.1687 -0.1255 -0.1013
  48.  H 8 (s)      0.3921  0.2264 -0.1685  0.5995  0.5144  0.2970 -0.2210 -0.0588

           AO         33      34      35      36      37      38      39      40
      ------------ ------- ------- ------- ------- ------- ------- ------- -------
   1. Si 1 (s)      0.0000  0.0000  0.0000  0.0000  0.0008  0.0143  0.0008  0.0143
   2. Si 1 (s)      0.0000  0.0000  0.0000  0.0000  0.0165  0.1221  0.0165  0.1221
   3. Si 1 (px)     0.0018  0.0000  0.0000  0.0000  0.0000  0.0000 -0.0185 -0.0445
   4. Si 1 (py)     0.0000  0.0018  0.0000  0.0000  0.0213  0.0514 -0.0107 -0.0257
   5. Si 1 (pz)     0.0000  0.0000  0.0000  0.0000  0.0079  0.0191  0.0079  0.0191
   6. Si 1 (s)      0.0000  0.0000  0.0000  0.0000  0.2147  0.4846  0.2147  0.4846
   7. Si 1 (px)     0.0803  0.0000  0.0000  0.0000  0.0000  0.0000 -0.2967 -0.3921
   8. Si 1 (py)     0.0000  0.0803  0.0000  0.0000  0.3426  0.4528 -0.1713 -0.2264
   9. Si 1 (pz)     0.0000  0.0000  0.0000  0.0000  0.1275  0.1685  0.1275  0.1685
  10. Si 1 (s)      0.0000  0.0000  0.0000  0.0000  0.2553  0.5995  0.2553  0.5995
  11. Si 1 (px)     0.1015  0.0000  0.0000  0.0000  0.0000  0.0000 -0.2922 -0.5144
  12. Si 1 (py)     0.0000  0.1015  0.0000  0.0000  0.3374  0.5940 -0.1687 -0.2970
  13. Si 1 (pz)     0.0000  0.0000  0.0000  0.0000  0.1255  0.2210  0.1255  0.2210
  14. Si 1 (d5)     0.0000  0.0000  0.0000  0.0000 -0.1013 -0.0588 -0.1013 -0.0588
  15. Si 1 (d2)    -0.0970  0.0000  0.0000  0.0000  0.0000  0.0000 -0.1564 -0.0907
  16. Si 1 (d3)     0.0000 -0.0970  0.0000  0.0000  0.1806  0.1048 -0.0903 -0.0524
  17. Si 1 (d4)     0.0000  0.0000  0.0125  0.0000 -0.2427 -0.1408  0.1213  0.0704
  18. Si 1 (d1)     0.0000  0.0000  0.0000  0.0125  0.0000  0.0000  0.2102  0.1220
  19. Si 2 (s)      0.0000  0.0000  0.0000  0.0000  0.0000  0.0002  0.0000  0.0002
  20. Si 2 (s)      0.0000  0.0000  0.0000  0.0000  0.0000  0.0020  0.0000  0.0020
  21. Si 2 (px)     0.0000  0.0000  0.0000  0.0000  0.0000  0.0000  0.0000 -0.0007
  22. Si 2 (py)     0.0000  0.0000  0.0000  0.0000  0.0000  0.0008  0.0000 -0.0004
  23. Si 2 (pz)     0.0000  0.0000  0.0000  0.0000  0.0000  0.0017  0.0000  0.0017
  24. Si 2 (s)      0.0000  0.0000  0.0000  0.0000  0.0020  0.0368  0.0020  0.0368
  25. Si 2 (px)     0.0000  0.0000  0.0000  0.0000  0.0000  0.0000 -0.0023 -0.0261
  26. Si 2 (py)     0.0000  0.0000  0.0000  0.0000  0.0027  0.0301 -0.0013 -0.0151
  27. Si 2 (pz)     0.0000  0.0000  0.0000  0.0000  0.0055  0.0617  0.0055  0.0617
  28. Si 2 (s)      0.0000  0.0000  0.0000  0.0000  0.0357  0.1370  0.0357  0.1370
  29. Si 2 (px)     0.0000  0.0000  0.0000  0.0000  0.0000  0.0000 -0.0408 -0.1175
  30. Si 2 (py)     0.0000  0.0000  0.0000  0.0000  0.0471  0.1357 -0.0235 -0.0679
  31. Si 2 (pz)     0.0000  0.0000  0.0000  0.0000  0.0965  0.2780  0.0965  0.2780
  32. Si 2 (d5)     0.0000  0.0000  0.0000  0.0000  0.0005  0.0213  0.0005  0.0213
  33. Si 2 (d2)     1.0000  0.0000  0.0000  0.0000  0.0000  0.0000 -0.0004 -0.0177
  34. Si 2 (d3)     0.0000  1.0000  0.0000  0.0000  0.0005  0.0205 -0.0003 -0.0102
  35. Si 2 (d4)     0.0000  0.0000  1.0000  0.0000 -0.0001 -0.0050  0.0001  0.0025
  36. Si 2 (d1)     0.0000  0.0000  0.0000  1.0000  0.0000  0.0000  0.0001  0.0043
  37.  H 3 (s)      0.0000  0.0005 -0.0001  0.0000  1.0000  0.6583  0.0009  0.0432
  38.  H 3 (s)      0.0000  0.0205 -0.0050  0.0000  0.6583  1.0000  0.0432  0.1869
  39.  H 4 (s)     -0.0004 -0.0003  0.0001  0.0001  0.0009  0.0432  1.0000  0.6583
  40.  H 4 (s)     -0.0177 -0.0102  0.0025  0.0043  0.0432  0.1869  0.6583  1.0000
  41.  H 5 (s)      0.0004 -0.0003  0.0001 -0.0001  0.0009  0.0432  0.0009  0.0432
  42.  H 5 (s)      0.0177 -0.0102  0.0025 -0.0043  0.0432  0.1869  0.0432  0.1869
  43.  H 6 (s)      0.0000  0.1806 -0.2427  0.0000  0.0000  0.0001  0.0000  0.0013
  44.  H 6 (s)      0.0000  0.1048 -0.1408  0.0000  0.0001  0.0040  0.0013  0.0216
  45.  H 7 (s)      0.1564 -0.0903  0.1213 -0.2102  0.0000  0.0013  0.0000  0.0013
  46.  H 7 (s)      0.0907 -0.0524  0.0704 -0.1220  0.0013  0.0216  0.0013  0.0216
  47.  H 8 (s)     -0.1564 -0.0903  0.1213  0.2102  0.0000  0.0013  0.0000  0.0001
  48.  H 8 (s)     -0.0907 -0.0524  0.0704  0.1220  0.0013  0.0216  0.0001  0.0040

           AO         41      42      43      44      45      46      47      48
      ------------ ------- ------- ------- ------- ------- ------- ------- -------
   1. Si 1 (s)      0.0008  0.0143  0.0000  0.0002  0.0000  0.0002  0.0000  0.0002
   2. Si 1 (s)      0.0165  0.1221  0.0000  0.0020  0.0000  0.0020  0.0000  0.0020
   3. Si 1 (px)     0.0185  0.0445  0.0000  0.0000  0.0000 -0.0007  0.0000  0.0007
   4. Si 1 (py)    -0.0107 -0.0257  0.0000 -0.0008  0.0000  0.0004  0.0000  0.0004
   5. Si 1 (pz)     0.0079  0.0191  0.0000 -0.0017  0.0000 -0.0017  0.0000 -0.0017
   6. Si 1 (s)      0.2147  0.4846  0.0020  0.0368  0.0020  0.0368  0.0020  0.0368
   7. Si 1 (px)     0.2967  0.3921  0.0000  0.0000 -0.0023 -0.0261  0.0023  0.0261
   8. Si 1 (py)    -0.1713 -0.2264 -0.0027 -0.0301  0.0013  0.0151  0.0013  0.0151
   9. Si 1 (pz)     0.1275  0.1685 -0.0055 -0.0617 -0.0055 -0.0617 -0.0055 -0.0617
  10. Si 1 (s)      0.2553  0.5995  0.0357  0.1370  0.0357  0.1370  0.0357  0.1370
  11. Si 1 (px)     0.2922  0.5144  0.0000  0.0000 -0.0408 -0.1175  0.0408  0.1175
  12. Si 1 (py)    -0.1687 -0.2970 -0.0471 -0.1357  0.0235  0.0679  0.0235  0.0679
  13. Si 1 (pz)     0.1255  0.2210 -0.0965 -0.2780 -0.0965 -0.2780 -0.0965 -0.2780
  14. Si 1 (d5)    -0.1013 -0.0588  0.0005  0.0213  0.0005  0.0213  0.0005  0.0213
  15. Si 1 (d2)     0.1564  0.0907  0.0000  0.0000  0.0004  0.0177 -0.0004 -0.0177
  16. Si 1 (d3)    -0.0903 -0.0524  0.0005  0.0205 -0.0003 -0.0102 -0.0003 -0.0102
  17. Si 1 (d4)     0.1213  0.0704 -0.0001 -0.0050  0.0001  0.0025  0.0001  0.0025
  18. Si 1 (d1)    -0.2102 -0.1220  0.0000  0.0000 -0.0001 -0.0043  0.0001  0.0043
  19. Si 2 (s)      0.0000  0.0002  0.0008  0.0143  0.0008  0.0143  0.0008  0.0143
  20. Si 2 (s)      0.0000  0.0020  0.0165  0.1221  0.0165  0.1221  0.0165  0.1221
  21. Si 2 (px)     0.0000  0.0007  0.0000  0.0000 -0.0185 -0.0445  0.0185  0.0445
  22. Si 2 (py)     0.0000 -0.0004 -0.0213 -0.0514  0.0107  0.0257  0.0107  0.0257
  23. Si 2 (pz)     0.0000  0.0017 -0.0079 -0.0191 -0.0079 -0.0191 -0.0079 -0.0191
  24. Si 2 (s)      0.0020  0.0368  0.2147  0.4846  0.2147  0.4846  0.2147  0.4846
  25. Si 2 (px)     0.0023  0.0261  0.0000  0.0000 -0.2967 -0.3921  0.2967  0.3921
  26. Si 2 (py)    -0.0013 -0.0151 -0.3426 -0.4528  0.1713  0.2264  0.1713  0.2264
  27. Si 2 (pz)     0.0055  0.0617 -0.1275 -0.1685 -0.1275 -0.1685 -0.1275 -0.1685
  28. Si 2 (s)      0.0357  0.1370  0.2553  0.5995  0.2553  0.5995  0.2553  0.5995
  29. Si 2 (px)     0.0408  0.1175  0.0000  0.0000 -0.2922 -0.5144  0.2922  0.5144
  30. Si 2 (py)    -0.0235 -0.0679 -0.3374 -0.5940  0.1687  0.2970  0.1687  0.2970
  31. Si 2 (pz)     0.0965  0.2780 -0.1255 -0.2210 -0.1255 -0.2210 -0.1255 -0.2210
  32. Si 2 (d5)     0.0005  0.0213 -0.1013 -0.0588 -0.1013 -0.0588 -0.1013 -0.0588
  33. Si 2 (d2)     0.0004  0.0177  0.0000  0.0000  0.1564  0.0907 -0.1564 -0.0907
  34. Si 2 (d3)    -0.0003 -0.0102  0.1806  0.1048 -0.0903 -0.0524 -0.0903 -0.0524
  35. Si 2 (d4)     0.0001  0.0025 -0.2427 -0.1408  0.1213  0.0704  0.1213  0.0704
  36. Si 2 (d1)    -0.0001 -0.0043  0.0000  0.0000 -0.2102 -0.1220  0.2102  0.1220
  37.  H 3 (s)      0.0009  0.0432  0.0000  0.0001  0.0000  0.0013  0.0000  0.0013
  38.  H 3 (s)      0.0432  0.1869  0.0001  0.0040  0.0013  0.0216  0.0013  0.0216
  39.  H 4 (s)      0.0009  0.0432  0.0000  0.0013  0.0000  0.0013  0.0000  0.0001
  40.  H 4 (s)      0.0432  0.1869  0.0013  0.0216  0.0013  0.0216  0.0001  0.0040
  41.  H 5 (s)      1.0000  0.6583  0.0000  0.0013  0.0000  0.0001  0.0000  0.0013
  42.  H 5 (s)      0.6583  1.0000  0.0013  0.0216  0.0001  0.0040  0.0013  0.0216
  43.  H 6 (s)      0.0000  0.0013  1.0000  0.6583  0.0009  0.0432  0.0009  0.0432
  44.  H 6 (s)      0.0013  0.0216  0.6583  1.0000  0.0432  0.1869  0.0432  0.1869
  45.  H 7 (s)      0.0000  0.0001  0.0009  0.0432  1.0000  0.6583  0.0009  0.0432
  46.  H 7 (s)      0.0001  0.0040  0.0432  0.1869  0.6583  1.0000  0.0432  0.1869
  47.  H 8 (s)      0.0000  0.0013  0.0009  0.0432  0.0009  0.0432  1.0000  0.6583
  48.  H 8 (s)      0.0013  0.0216  0.0432  0.1869  0.0432  0.1869  0.6583  1.0000


 AO bond-order matrix:

           AO          1       2       3       4       5       6       7       8
      ------------ ------- ------- ------- ------- ------- ------- ------- -------
   1. Si 1 (s)      2.1403 -0.5632  0.0000  0.0000  0.0005  0.0438  0.0000  0.0000
   2. Si 1 (s)     -0.5632  2.2608  0.0000  0.0000 -0.0011 -0.2483  0.0000  0.0000
   3. Si 1 (px)     0.0000  0.0000  2.0298  0.0000  0.0000  0.0000 -0.0858  0.0000
   4. Si 1 (py)     0.0000  0.0000  0.0000  2.0298  0.0000  0.0000  0.0000 -0.0858
   5. Si 1 (pz)     0.0005 -0.0011  0.0000  0.0000  2.0323  0.0137  0.0000  0.0000
   6. Si 1 (s)      0.0438 -0.2483  0.0000  0.0000  0.0137  0.5681  0.0000  0.0000
   7. Si 1 (px)     0.0000  0.0000 -0.0858  0.0000  0.0000  0.0000  0.3170  0.0000
   8. Si 1 (py)     0.0000  0.0000  0.0000 -0.0858  0.0000  0.0000  0.0000  0.3170
   9. Si 1 (pz)    -0.0018  0.0057  0.0000  0.0000 -0.0991 -0.0473  0.0000  0.0000
  10. Si 1 (s)      0.0300 -0.1070  0.0000  0.0000  0.0204  0.1878  0.0000  0.0000
  11. Si 1 (px)     0.0000  0.0000 -0.0331  0.0000  0.0000  0.0000  0.0527  0.0000
  12. Si 1 (py)     0.0000  0.0000  0.0000 -0.0331  0.0000  0.0000  0.0000  0.0527
  13. Si 1 (pz)    -0.0054  0.0180  0.0000  0.0000 -0.0482 -0.0388  0.0000  0.0000
  14. Si 1 (d5)    -0.0003  0.0027  0.0000  0.0000  0.0250  0.0006  0.0000  0.0000
  15. Si 1 (d2)     0.0000  0.0000 -0.0166  0.0000  0.0000  0.0000  0.0419  0.0000
  16. Si 1 (d3)     0.0000  0.0000  0.0000 -0.0166  0.0000  0.0000  0.0000  0.0419
  17. Si 1 (d4)     0.0000  0.0000  0.0000  0.0244  0.0000  0.0000  0.0000 -0.0620
  18. Si 1 (d1)     0.0000  0.0000  0.0244  0.0000  0.0000  0.0000 -0.0620  0.0000
  19. Si 2 (s)      0.0009 -0.0038  0.0000  0.0000  0.0074  0.0100  0.0000  0.0000
  20. Si 2 (s)     -0.0038  0.0167  0.0000  0.0000 -0.0329 -0.0413  0.0000  0.0000
  21. Si 2 (px)     0.0000  0.0000  0.0024  0.0000  0.0000  0.0000 -0.0053  0.0000
  22. Si 2 (py)     0.0000  0.0000  0.0000  0.0024  0.0000  0.0000  0.0000 -0.0053
  23. Si 2 (pz)    -0.0074  0.0329  0.0000  0.0000 -0.0477 -0.0802  0.0000  0.0000
  24. Si 2 (s)      0.0100 -0.0413  0.0000  0.0000  0.0802  0.0954  0.0000  0.0000
  25. Si 2 (px)     0.0000  0.0000 -0.0053  0.0000  0.0000  0.0000  0.0088  0.0000
  26. Si 2 (py)     0.0000  0.0000  0.0000 -0.0053  0.0000  0.0000  0.0000  0.0088
  27. Si 2 (pz)     0.0186 -0.0823  0.0000  0.0000  0.1266  0.1962  0.0000  0.0000
  28. Si 2 (s)     -0.0043  0.0063  0.0000  0.0000  0.0335  0.0078  0.0000  0.0000
  29. Si 2 (px)     0.0000  0.0000 -0.0028  0.0000  0.0000  0.0000  0.0096  0.0000
  30. Si 2 (py)     0.0000  0.0000  0.0000 -0.0028  0.0000  0.0000  0.0000  0.0096
  31. Si 2 (pz)    -0.0003 -0.0045  0.0000  0.0000  0.0341  0.0235  0.0000  0.0000
  32. Si 2 (d5)     0.0044 -0.0186  0.0000  0.0000  0.0222  0.0423  0.0000  0.0000
  33. Si 2 (d2)     0.0000  0.0000 -0.0037  0.0000  0.0000  0.0000  0.0078  0.0000
  34. Si 2 (d3)     0.0000  0.0000  0.0000 -0.0037  0.0000  0.0000  0.0000  0.0078
  35. Si 2 (d4)     0.0000  0.0000  0.0000  0.0006  0.0000  0.0000  0.0000 -0.0020
  36. Si 2 (d1)     0.0000  0.0000  0.0006  0.0000  0.0000  0.0000 -0.0020  0.0000
  37.  H 3 (s)      0.0146 -0.0679  0.0000 -0.0879 -0.0328  0.1294  0.0000  0.2141
  38.  H 3 (s)      0.0091 -0.0488  0.0000 -0.1124 -0.0475  0.0898  0.0000  0.2702
  39.  H 4 (s)      0.0146 -0.0679  0.0761  0.0439 -0.0328  0.1294 -0.1854 -0.1070
  40.  H 4 (s)      0.0091 -0.0488  0.0974  0.0562 -0.0475  0.0898 -0.2340 -0.1351
  41.  H 5 (s)      0.0146 -0.0679 -0.0761  0.0439 -0.0328  0.1294  0.1854 -0.1070
  42.  H 5 (s)      0.0091 -0.0488 -0.0974  0.0562 -0.0475  0.0898  0.2340 -0.1351
  43.  H 6 (s)     -0.0021  0.0100  0.0000 -0.0008 -0.0123 -0.0247  0.0000  0.0034
  44.  H 6 (s)     -0.0036  0.0168  0.0000 -0.0065 -0.0293 -0.0425  0.0000  0.0170
  45.  H 7 (s)     -0.0021  0.0100 -0.0007  0.0004 -0.0123 -0.0247  0.0029 -0.0017
  46.  H 7 (s)     -0.0036  0.0168 -0.0056  0.0032 -0.0293 -0.0425  0.0148 -0.0085
  47.  H 8 (s)     -0.0021  0.0100  0.0007  0.0004 -0.0123 -0.0247 -0.0029 -0.0017
  48.  H 8 (s)     -0.0036  0.0168  0.0056  0.0032 -0.0293 -0.0425 -0.0148 -0.0085

           AO          9      10      11      12      13      14      15      16
      ------------ ------- ------- ------- ------- ------- ------- ------- -------
   1. Si 1 (s)     -0.0018  0.0300  0.0000  0.0000 -0.0054 -0.0003  0.0000  0.0000
   2. Si 1 (s)      0.0057 -0.1070  0.0000  0.0000  0.0180  0.0027  0.0000  0.0000
   3. Si 1 (px)     0.0000  0.0000 -0.0331  0.0000  0.0000  0.0000 -0.0166  0.0000
   4. Si 1 (py)     0.0000  0.0000  0.0000 -0.0331  0.0000  0.0000  0.0000 -0.0166
   5. Si 1 (pz)    -0.0991  0.0204  0.0000  0.0000 -0.0482  0.0250  0.0000  0.0000
   6. Si 1 (s)     -0.0473  0.1878  0.0000  0.0000 -0.0388  0.0006  0.0000  0.0000
   7. Si 1 (px)     0.0000  0.0000  0.0527  0.0000  0.0000  0.0000  0.0419  0.0000
   8. Si 1 (py)     0.0000  0.0000  0.0000  0.0527  0.0000  0.0000  0.0000  0.0419
   9. Si 1 (pz)     0.3701 -0.0364  0.0000  0.0000  0.0889 -0.0676  0.0000  0.0000
  10. Si 1 (s)     -0.0364  0.0663  0.0000  0.0000 -0.0200  0.0035  0.0000  0.0000
  11. Si 1 (px)     0.0000  0.0000  0.0092  0.0000  0.0000  0.0000  0.0068  0.0000
  12. Si 1 (py)     0.0000  0.0000  0.0000  0.0092  0.0000  0.0000  0.0000  0.0068
  13. Si 1 (pz)     0.0889 -0.0200  0.0000  0.0000  0.0247 -0.0155  0.0000  0.0000
  14. Si 1 (d5)    -0.0676  0.0035  0.0000  0.0000 -0.0155  0.0126  0.0000  0.0000
  15. Si 1 (d2)     0.0000  0.0000  0.0068  0.0000  0.0000  0.0000  0.0058  0.0000
  16. Si 1 (d3)     0.0000  0.0000  0.0000  0.0068  0.0000  0.0000  0.0000  0.0058
  17. Si 1 (d4)     0.0000  0.0000  0.0000 -0.0103  0.0000  0.0000  0.0000 -0.0083
  18. Si 1 (d1)     0.0000  0.0000 -0.0103  0.0000  0.0000  0.0000 -0.0083  0.0000
  19. Si 2 (s)     -0.0186 -0.0043  0.0000  0.0000  0.0003  0.0044  0.0000  0.0000
  20. Si 2 (s)      0.0823  0.0063  0.0000  0.0000  0.0045 -0.0186  0.0000  0.0000
  21. Si 2 (px)     0.0000  0.0000 -0.0028  0.0000  0.0000  0.0000  0.0037  0.0000
  22. Si 2 (py)     0.0000  0.0000  0.0000 -0.0028  0.0000  0.0000  0.0000  0.0037
  23. Si 2 (pz)     0.1266 -0.0335  0.0000  0.0000  0.0341 -0.0222  0.0000  0.0000
  24. Si 2 (s)     -0.1962  0.0078  0.0000  0.0000 -0.0235  0.0423  0.0000  0.0000
  25. Si 2 (px)     0.0000  0.0000  0.0096  0.0000  0.0000  0.0000 -0.0078  0.0000
  26. Si 2 (py)     0.0000  0.0000  0.0000  0.0096  0.0000  0.0000  0.0000 -0.0078
  27. Si 2 (pz)    -0.3219  0.0936  0.0000  0.0000 -0.0942  0.0544  0.0000  0.0000
  28. Si 2 (s)     -0.0936 -0.0029  0.0000  0.0000 -0.0139  0.0195  0.0000  0.0000
  29. Si 2 (px)     0.0000  0.0000  0.0029  0.0000  0.0000  0.0000 -0.0002  0.0000
  30. Si 2 (py)     0.0000  0.0000  0.0000  0.0029  0.0000  0.0000  0.0000 -0.0002
  31. Si 2 (pz)    -0.0942  0.0139  0.0000  0.0000 -0.0240  0.0169  0.0000  0.0000
  32. Si 2 (d5)    -0.0544  0.0195  0.0000  0.0000 -0.0169  0.0089  0.0000  0.0000
  33. Si 2 (d2)     0.0000  0.0000  0.0002  0.0000  0.0000  0.0000  0.0022  0.0000
  34. Si 2 (d3)     0.0000  0.0000  0.0000  0.0002  0.0000  0.0000  0.0000  0.0022
  35. Si 2 (d4)     0.0000  0.0000  0.0000  0.0013  0.0000  0.0000  0.0000 -0.0020
  36. Si 2 (d1)     0.0000  0.0000  0.0013  0.0000  0.0000  0.0000 -0.0020  0.0000
  37.  H 3 (s)      0.0830  0.0374  0.0000  0.0357  0.0133 -0.0172  0.0000  0.0286
  38.  H 3 (s)      0.1159  0.0222  0.0000  0.0447  0.0233 -0.0226  0.0000  0.0365
  39.  H 4 (s)      0.0830  0.0374 -0.0309 -0.0178  0.0133 -0.0172 -0.0248 -0.0143
  40.  H 4 (s)      0.1159  0.0222 -0.0387 -0.0224  0.0233 -0.0226 -0.0316 -0.0183
  41.  H 5 (s)      0.0830  0.0374  0.0309 -0.0178  0.0133 -0.0172  0.0248 -0.0143
  42.  H 5 (s)      0.1159  0.0222  0.0387 -0.0224  0.0233 -0.0226  0.0316 -0.0183
  43.  H 6 (s)      0.0343 -0.0215  0.0000 -0.0049  0.0184 -0.0035  0.0000  0.0066
  44.  H 6 (s)      0.0741 -0.0283  0.0000 -0.0041  0.0276 -0.0109  0.0000  0.0100
  45.  H 7 (s)      0.0343 -0.0215 -0.0042  0.0025  0.0184 -0.0035  0.0057 -0.0033
  46.  H 7 (s)      0.0741 -0.0283 -0.0035  0.0020  0.0276 -0.0109  0.0087 -0.0050
  47.  H 8 (s)      0.0343 -0.0215  0.0042  0.0025  0.0184 -0.0035 -0.0057 -0.0033
  48.  H 8 (s)      0.0741 -0.0283  0.0035  0.0020  0.0276 -0.0109 -0.0087 -0.0050

           AO         17      18      19      20      21      22      23      24
      ------------ ------- ------- ------- ------- ------- ------- ------- -------
   1. Si 1 (s)      0.0000  0.0000  0.0009 -0.0038  0.0000  0.0000 -0.0074  0.0100
   2. Si 1 (s)      0.0000  0.0000 -0.0038  0.0167  0.0000  0.0000  0.0329 -0.0413
   3. Si 1 (px)     0.0000  0.0244  0.0000  0.0000  0.0024  0.0000  0.0000  0.0000
   4. Si 1 (py)     0.0244  0.0000  0.0000  0.0000  0.0000  0.0024  0.0000  0.0000
   5. Si 1 (pz)     0.0000  0.0000  0.0074 -0.0329  0.0000  0.0000 -0.0477  0.0802
   6. Si 1 (s)      0.0000  0.0000  0.0100 -0.0413  0.0000  0.0000 -0.0802  0.0954
   7. Si 1 (px)     0.0000 -0.0620  0.0000  0.0000 -0.0053  0.0000  0.0000  0.0000
   8. Si 1 (py)    -0.0620  0.0000  0.0000  0.0000  0.0000 -0.0053  0.0000  0.0000
   9. Si 1 (pz)     0.0000  0.0000 -0.0186  0.0823  0.0000  0.0000  0.1266 -0.1962
  10. Si 1 (s)      0.0000  0.0000 -0.0043  0.0063  0.0000  0.0000 -0.0335  0.0078
  11. Si 1 (px)     0.0000 -0.0103  0.0000  0.0000 -0.0028  0.0000  0.0000  0.0000
  12. Si 1 (py)    -0.0103  0.0000  0.0000  0.0000  0.0000 -0.0028  0.0000  0.0000
  13. Si 1 (pz)     0.0000  0.0000  0.0003  0.0045  0.0000  0.0000  0.0341 -0.0235
  14. Si 1 (d5)     0.0000  0.0000  0.0044 -0.0186  0.0000  0.0000 -0.0222  0.0423
[...]
                                         0.0000  0.0000  0.4902  0.0055  0.0000
                                         0.0000  0.0000  0.0000  0.8078  0.0074
                                         0.0000  0.3019  0.0111  0.0000  0.0000
                                         0.0649 -0.0992 -0.0416
               ( 59.70%)   0.7726* H  3 s(100.00%)
                                         1.0000  0.0022
  13. (1.98924) BD ( 1)Si  1- H  4
               ( 40.30%)   0.6348*Si  1 s( 24.03%)p 3.10( 74.39%)d 0.07(  1.58%)
                                         0.0000  0.0000  0.4902  0.0055  0.0000
                                        -0.6996 -0.0064  0.0000 -0.4039 -0.0037
                                         0.0000  0.3019  0.0111  0.0859 -0.0562
                                        -0.0325  0.0496 -0.0416
               ( 59.70%)   0.7726* H  4 s(100.00%)
                                         1.0000  0.0022
  14. (1.98924) BD ( 1)Si  1- H  5
               ( 40.30%)   0.6348*Si  1 s( 24.03%)p 3.10( 74.39%)d 0.07(  1.58%)
                                         0.0000  0.0000  0.4902  0.0055  0.0000
                                         0.6996  0.0064  0.0000 -0.4039 -0.0037
                                         0.0000  0.3019  0.0111 -0.0859  0.0562
                                        -0.0325  0.0496 -0.0416
               ( 59.70%)   0.7726* H  5 s(100.00%)
                                         1.0000  0.0022
  15. (1.98924) BD ( 1)Si  2- H  6
               ( 40.30%)   0.6348*Si  2 s( 24.03%)p 3.10( 74.39%)d 0.07(  1.58%)
                                         0.0000  0.0000  0.4902  0.0055  0.0000
                                         0.0000  0.0000  0.0000 -0.8078 -0.0074
                                         0.0000 -0.3019 -0.0111  0.0000  0.0000
                                         0.0649 -0.0992 -0.0416
               ( 59.70%)   0.7726* H  6 s(100.00%)
                                         1.0000  0.0022
  16. (1.98924) BD ( 1)Si  2- H  7
               ( 40.30%)   0.6348*Si  2 s( 24.03%)p 3.10( 74.39%)d 0.07(  1.58%)
                                         0.0000  0.0000  0.4902  0.0055  0.0000
                                        -0.6996 -0.0064  0.0000  0.4039  0.0037
                                         0.0000 -0.3019 -0.0111 -0.0859  0.0562
                                        -0.0325  0.0496 -0.0416
               ( 59.70%)   0.7726* H  7 s(100.00%)
                                         1.0000  0.0022
  17. (1.98924) BD ( 1)Si  2- H  8
               ( 40.30%)   0.6348*Si  2 s( 24.03%)p 3.10( 74.39%)d 0.07(  1.58%)
                                         0.0000  0.0000  0.4902  0.0055  0.0000
                                         0.6996  0.0064  0.0000  0.4039  0.0037
                                         0.0000 -0.3019 -0.0111  0.0859 -0.0562
                                        -0.0325  0.0496 -0.0416
               ( 59.70%)   0.7726* H  8 s(100.00%)
                                         1.0000  0.0022
 ---------------- non-Lewis ----------------------------------------------------
  18. (0.01596) BD*( 1)Si  1-Si  2
               ( 50.00%)   0.7071*Si  1 s( 27.83%)p 2.55( 71.06%)d 0.04(  1.11%)
                                         0.0000  0.0000  0.5274 -0.0101  0.0000
                                         0.0000  0.0000  0.0000  0.0000  0.0000
                                         0.0000 -0.8425  0.0270  0.0000  0.0000
                                         0.0000  0.0000  0.1054
               ( 50.00%)  -0.7071*Si  2 s( 27.83%)p 2.55( 71.06%)d 0.04(  1.11%)
                                         0.0000  0.0000  0.5274 -0.0101  0.0000
                                         0.0000  0.0000  0.0000  0.0000  0.0000
                                         0.0000  0.8425 -0.0270  0.0000  0.0000
                                         0.0000  0.0000  0.1054
  19. (0.01021) BD*( 1)Si  1- H  3
               ( 59.70%)   0.7726*Si  1 s( 24.03%)p 3.10( 74.39%)d 0.07(  1.58%)
                                         0.0000  0.0000 -0.4902 -0.0055  0.0000
                                         0.0000  0.0000  0.0000 -0.8078 -0.0074
                                         0.0000 -0.3019 -0.0111  0.0000  0.0000
                                        -0.0649  0.0992  0.0416
               ( 40.30%)  -0.6348* H  3 s(100.00%)
                                        -1.0000 -0.0022
  20. (0.01021) BD*( 1)Si  1- H  4
               ( 59.70%)   0.7726*Si  1 s( 24.03%)p 3.10( 74.39%)d 0.07(  1.58%)
                                         0.0000  0.0000 -0.4902 -0.0055  0.0000
                                         0.6996  0.0064  0.0000  0.4039  0.0037
                                         0.0000 -0.3019 -0.0111 -0.0859  0.0562
                                         0.0325 -0.0496  0.0416
               ( 40.30%)  -0.6348* H  4 s(100.00%)
                                        -1.0000 -0.0022
  21. (0.01021) BD*( 1)Si  1- H  5
               ( 59.70%)   0.7726*Si  1 s( 24.03%)p 3.10( 74.39%)d 0.07(  1.58%)
                                         0.0000  0.0000 -0.4902 -0.0055  0.0000
                                        -0.6996 -0.0064  0.0000  0.4039  0.0037
                                         0.0000 -0.3019 -0.0111  0.0859 -0.0562
                                         0.0325 -0.0496  0.0416
               ( 40.30%)  -0.6348* H  5 s(100.00%)
                                        -1.0000 -0.0022
  22. (0.01021) BD*( 1)Si  2- H  6
               ( 59.70%)   0.7726*Si  2 s( 24.03%)p 3.10( 74.39%)d 0.07(  1.58%)
                                         0.0000  0.0000 -0.4902 -0.0055  0.0000
                                         0.0000  0.0000  0.0000  0.8078  0.0074
                                         0.0000  0.3019  0.0111  0.0000  0.0000
                                        -0.0649  0.0992  0.0416
               ( 40.30%)  -0.6348* H  6 s(100.00%)
                                        -1.0000 -0.0022
  23. (0.01021) BD*( 1)Si  2- H  7
               ( 59.70%)   0.7726*Si  2 s( 24.03%)p 3.10( 74.39%)d 0.07(  1.58%)
                                         0.0000  0.0000 -0.4902 -0.0055  0.0000
                                         0.6996  0.0064  0.0000 -0.4039 -0.0037
                                         0.0000  0.3019  0.0111  0.0859 -0.0562
                                         0.0325 -0.0496  0.0416
               ( 40.30%)  -0.6348* H  7 s(100.00%)
                                        -1.0000 -0.0022
  24. (0.01021) BD*( 1)Si  2- H  8
               ( 59.70%)   0.7726*Si  2 s( 24.03%)p 3.10( 74.39%)d 0.07(  1.58%)
                                         0.0000  0.0000 -0.4902 -0.0055  0.0000
                                        -0.6996 -0.0064  0.0000 -0.4039 -0.0037
                                         0.0000  0.3019  0.0111 -0.0859  0.0562
                                         0.0325 -0.0496  0.0416
               ( 40.30%)  -0.6348* H  8 s(100.00%)
                                        -1.0000 -0.0022
  25. (0.00072) RY ( 1)Si  1            s( 78.64%)p 0.14( 11.23%)d 0.13( 10.12%)
                                         0.0000  0.0000  0.0058  0.8868  0.0000
                                         0.0000  0.0000  0.0000  0.0000  0.0000
                                         0.0000 -0.0574 -0.3302  0.0000  0.0000
                                         0.0000  0.0000 -0.3182
  26. (0.00052) RY ( 2)Si  1            s(  0.00%)p 1.00( 19.93%)d 4.02( 80.07%)
                                         0.0000  0.0000  0.0000  0.0000  0.0000
                                         0.0000  0.0000  0.0000 -0.1184 -0.4305
                                         0.0000  0.0000  0.0000  0.0000  0.0000
                                         0.7287 -0.5194  0.0000
  27. (0.00052) RY ( 3)Si  1            s(  0.00%)p 1.00( 19.93%)d 4.02( 80.07%)
                                         0.0000  0.0000  0.0000  0.0000  0.0000
                                        -0.1184 -0.4305  0.0000  0.0000  0.0000
                                         0.0000  0.0000  0.0000 -0.5194  0.7287
                                         0.0000  0.0000  0.0000
  28. (0.00000) RY ( 4)Si  1            s(  4.65%)p 2.50( 11.63%)d17.99( 83.72%)
  29. (0.00000) RY ( 5)Si  1            s(  0.00%)p 1.00( 50.14%)d 0.99( 49.86%)
  30. (0.00000) RY ( 6)Si  1            s(  0.00%)p 1.00( 50.14%)d 0.99( 49.86%)
  31. (0.00000) RY ( 7)Si  1            s(  0.00%)p 1.00( 32.03%)d 2.12( 67.97%)
  32. (0.00000) RY ( 8)Si  1            s(  0.00%)p 1.00( 32.03%)d 2.12( 67.97%)
  33. (0.00000) RY ( 9)Si  1            s( 16.78%)p 4.69( 78.69%)d 0.27(  4.53%)
  34. (0.00072) RY ( 1)Si  2            s( 78.64%)p 0.14( 11.23%)d 0.13( 10.12%)
                                         0.0000  0.0000  0.0058  0.8868  0.0000
                                         0.0000  0.0000  0.0000  0.0000  0.0000
                                         0.0000  0.0574  0.3302  0.0000  0.0000
                                         0.0000  0.0000 -0.3182
  35. (0.00052) RY ( 2)Si  2            s(  0.00%)p 1.00( 19.93%)d 4.02( 80.07%)
                                         0.0000  0.0000  0.0000  0.0000  0.0000
                                         0.0000  0.0000  0.0000  0.1184  0.4305
                                         0.0000  0.0000  0.0000  0.0000  0.0000
                                         0.7287 -0.5194  0.0000
  36. (0.00052) RY ( 3)Si  2            s(  0.00%)p 1.00( 19.93%)d 4.02( 80.07%)
                                         0.0000  0.0000  0.0000  0.0000  0.0000
                                         0.1184  0.4305  0.0000  0.0000  0.0000
                                         0.0000  0.0000  0.0000 -0.5194  0.7287
                                         0.0000  0.0000  0.0000
  37. (0.00000) RY ( 4)Si  2            s(  4.65%)p 2.50( 11.63%)d17.99( 83.72%)
  38. (0.00000) RY ( 5)Si  2            s(  0.00%)p 1.00( 50.14%)d 0.99( 49.86%)
  39. (0.00000) RY ( 6)Si  2            s(  0.00%)p 1.00( 50.14%)d 0.99( 49.86%)
  40. (0.00000) RY ( 7)Si  2            s(  0.00%)p 1.00( 32.03%)d 2.12( 67.97%)
  41. (0.00000) RY ( 8)Si  2            s(  0.00%)p 1.00( 32.03%)d 2.12( 67.97%)
  42. (0.00000) RY ( 9)Si  2            s( 16.78%)p 4.69( 78.69%)d 0.27(  4.53%)
  43. (0.00053) RY ( 1) H  3            s(100.00%)
                                        -0.0022  1.0000
  44. (0.00053) RY ( 1) H  4            s(100.00%)
                                        -0.0022  1.0000
  45. (0.00053) RY ( 1) H  5            s(100.00%)
                                        -0.0022  1.0000
  46. (0.00053) RY ( 1) H  6            s(100.00%)
                                        -0.0022  1.0000
  47. (0.00053) RY ( 1) H  7            s(100.00%)
                                        -0.0022  1.0000
  48. (0.00053) RY ( 1) H  8            s(100.00%)
                                        -0.0022  1.0000


 NHO DIRECTIONALITY AND BOND BENDING (deviation from line of nuclear centers at
                                      the position of maximum hybrid amplitude)

         [Thresholds for printing:  angular deviation  >  1.0 degree]
                                    p- or d-character  > 25.0%
                                    orbital occupancy  >  0.10e

                        Line of Centers        Hybrid 1             Hybrid 2
                        ---------------  -------------------  ------------------
           NBO            Theta   Phi    Theta   Phi    Dev   Theta   Phi    Dev
 ===============================================================================
    None exceeding thresholds


 SECOND ORDER PERTURBATION THEORY ANALYSIS OF FOCK MATRIX IN NBO BASIS

     Threshold for printing:   0.50 kcal/mol
                                                          E(2) E(NL)-E(L) F(L,NL)
      Donor (L) NBO              Acceptor (NL) NBO      kcal/mol   a.u.    a.u.
 ===============================================================================

 within unit  1
   11. BD ( 1)Si  1-Si  2      19. BD*( 1)Si  1- H  3      1.56    0.94   0.034
   11. BD ( 1)Si  1-Si  2      20. BD*( 1)Si  1- H  4      1.56    0.94   0.034
   11. BD ( 1)Si  1-Si  2      21. BD*( 1)Si  1- H  5      1.56    0.94   0.034
   11. BD ( 1)Si  1-Si  2      22. BD*( 1)Si  2- H  6      1.56    0.94   0.034
   11. BD ( 1)Si  1-Si  2      23. BD*( 1)Si  2- H  7      1.56    0.94   0.034
   11. BD ( 1)Si  1-Si  2      24. BD*( 1)Si  2- H  8      1.56    0.94   0.034
   12. BD ( 1)Si  1- H  3      18. BD*( 1)Si  1-Si  2      1.79    0.87   0.035
   12. BD ( 1)Si  1- H  3      20. BD*( 1)Si  1- H  4      1.74    0.98   0.037
   12. BD ( 1)Si  1- H  3      21. BD*( 1)Si  1- H  5      1.74    0.98   0.037
   12. BD ( 1)Si  1- H  3      22. BD*( 1)Si  2- H  6      1.10    0.98   0.029
   13. BD ( 1)Si  1- H  4      18. BD*( 1)Si  1-Si  2      1.79    0.87   0.035
   13. BD ( 1)Si  1- H  4      19. BD*( 1)Si  1- H  3      1.74    0.98   0.037
   13. BD ( 1)Si  1- H  4      21. BD*( 1)Si  1- H  5      1.74    0.98   0.037
   13. BD ( 1)Si  1- H  4      24. BD*( 1)Si  2- H  8      1.10    0.98   0.029
   14. BD ( 1)Si  1- H  5      18. BD*( 1)Si  1-Si  2      1.79    0.87   0.035
   14. BD ( 1)Si  1- H  5      19. BD*( 1)Si  1- H  3      1.74    0.98   0.037
   14. BD ( 1)Si  1- H  5      20. BD*( 1)Si  1- H  4      1.74    0.98   0.037
   14. BD ( 1)Si  1- H  5      23. BD*( 1)Si  2- H  7      1.10    0.98   0.029
   15. BD ( 1)Si  2- H  6      18. BD*( 1)Si  1-Si  2      1.79    0.87   0.035
   15. BD ( 1)Si  2- H  6      19. BD*( 1)Si  1- H  3      1.10    0.98   0.029
   15. BD ( 1)Si  2- H  6      23. BD*( 1)Si  2- H  7      1.74    0.98   0.037
   15. BD ( 1)Si  2- H  6      24. BD*( 1)Si  2- H  8      1.74    0.98   0.037
   16. BD ( 1)Si  2- H  7      18. BD*( 1)Si  1-Si  2      1.79    0.87   0.035
   16. BD ( 1)Si  2- H  7      21. BD*( 1)Si  1- H  5      1.10    0.98   0.029
   16. BD ( 1)Si  2- H  7      22. BD*( 1)Si  2- H  6      1.74    0.98   0.037
   16. BD ( 1)Si  2- H  7      24. BD*( 1)Si  2- H  8      1.74    0.98   0.037
   17. BD ( 1)Si  2- H  8      18. BD*( 1)Si  1-Si  2      1.79    0.87   0.035
   17. BD ( 1)Si  2- H  8      20. BD*( 1)Si  1- H  4      1.10    0.98   0.029
   17. BD ( 1)Si  2- H  8      22. BD*( 1)Si  2- H  6      1.74    0.98   0.037
   17. BD ( 1)Si  2- H  8      23. BD*( 1)Si  2- H  7      1.74    0.98   0.037


 NATURAL BOND ORBITALS (Summary):

                                                     Principal Delocalizations
           NBO                 Occupancy    Energy   (geminal,vicinal,remote)
 ===============================================================================
 Molecular unit  1  (H6Si2)
 ------ Lewis --------------------------------------
    1. CR ( 1)Si  1             2.00000   -54.14796
    2. CR ( 2)Si  1             2.00000   -20.72366
    3. CR ( 3)Si  1             2.00000    -4.22446
    4. CR ( 4)Si  1             2.00000    -4.22446
    5. CR ( 5)Si  1             2.00000    -4.22419
    6. CR ( 1)Si  2             2.00000   -54.14796
    7. CR ( 2)Si  2             2.00000   -20.72366
    8. CR ( 3)Si  2             2.00000    -4.22446
    9. CR ( 4)Si  2             2.00000    -4.22446
   10. CR ( 5)Si  2             2.00000    -4.22419
   11. BD ( 1)Si  1-Si  2       1.98065    -0.50789  19(g),20(g),21(g),22(g)
                                                     23(g),24(g)
   12. BD ( 1)Si  1- H  3       1.98924    -0.53937  18(g),20(g),21(g),22(v)
   13. BD ( 1)Si  1- H  4       1.98924    -0.53937  18(g),19(g),21(g),24(v)
   14. BD ( 1)Si  1- H  5       1.98924    -0.53937  18(g),19(g),20(g),23(v)
   15. BD ( 1)Si  2- H  6       1.98924    -0.53937  18(g),23(g),24(g),19(v)
   16. BD ( 1)Si  2- H  7       1.98924    -0.53937  18(g),22(g),24(g),21(v)
   17. BD ( 1)Si  2- H  8       1.98924    -0.53937  18(g),22(g),23(g),20(v)
 ------ non-Lewis ----------------------------------
   18. BD*( 1)Si  1-Si  2       0.01596     0.33173
   19. BD*( 1)Si  1- H  3       0.01021     0.43710
   20. BD*( 1)Si  1- H  4       0.01021     0.43710
   21. BD*( 1)Si  1- H  5       0.01021     0.43710
   22. BD*( 1)Si  2- H  6       0.01021     0.43710
   23. BD*( 1)Si  2- H  7       0.01021     0.43710
   24. BD*( 1)Si  2- H  8       0.01021     0.43710
   25. RY ( 1)Si  1             0.00072     0.56023
   26. RY ( 2)Si  1             0.00052     0.89220
   27. RY ( 3)Si  1             0.00052     0.89220
   28. RY ( 4)Si  1             0.00000     0.85053
   29. RY ( 5)Si  1             0.00000     0.56470
   30. RY ( 6)Si  1             0.00000     0.56470
   31. RY ( 7)Si  1             0.00000     0.69806
   32. RY ( 8)Si  1             0.00000     0.69806
   33. RY ( 9)Si  1             0.00000     0.36773
   34. RY ( 1)Si  2             0.00072     0.56023
   35. RY ( 2)Si  2             0.00052     0.89220
   36. RY ( 3)Si  2             0.00052     0.89220
   37. RY ( 4)Si  2             0.00000     0.85053
   38. RY ( 5)Si  2             0.00000     0.56470
   39. RY ( 6)Si  2             0.00000     0.56470
   40. RY ( 7)Si  2             0.00000     0.69806
   41. RY ( 8)Si  2             0.00000     0.69806
   42. RY ( 9)Si  2             0.00000     0.36773
   43. RY ( 1) H  3             0.00053     1.11645
   44. RY ( 1) H  4             0.00053     1.11645
   45. RY ( 1) H  5             0.00053     1.11645
   46. RY ( 1) H  6             0.00053     1.11645
   47. RY ( 1) H  7             0.00053     1.11645
   48. RY ( 1) H  8             0.00053     1.11645
          -------------------------------
                 Total Lewis   33.91609  ( 99.7532%)
           Valence non-Lewis    0.07723  (  0.2271%)
           Rydberg non-Lewis    0.00668  (  0.0196%)
          -------------------------------
               Total unit  1   34.00000  (100.0000%)
              Charge unit  1    0.00000

 $CHOOSE
   BOND S 1 2 S 1 3 S 1 4 S 1 5 S 2 6 S 2 7 S 2 8 END
 $END

 NBO analysis completed in 0.50 CPU seconds (0 wall seconds)
 Maximum scratch memory used by NBO was 372589 words (2.84 MB)
 Maximum scratch memory used by G16NBO was 11978 words (0.09 MB)

 Opening RunExU unformatted file "/cluster/work/users/beto93/mol50/Gau-700146.EUF"
 Read unf file /cluster/work/users/beto93/mol50/Gau-700146.EUF:
 Label Gaussian matrix elements                                         IVers= 2 NLab= 2 Version=ES64L-G16RevC.01
 Title mol50-NBO                                                       
 NAtoms=     8 NBasis=    48 NBsUse=    48 ICharg=     0 Multip=     1 NE=    34 Len12L=8 Len4L=8 IOpCl= 0 ICGU=111
 GAUSSIAN SCALARS                    NI= 1 NR= 1 NTot=       1 LenBuf=    2 NRI=1 N=    1000
 NPA CHARGES                         NI= 0 NR= 1 NTot=       8 LenBuf= 4000 NRI=1 N=       8
 Recovered energy= -581.302596114     dipole=     -0.000000000000     -0.000000000000      0.000000000000
 Unable to Open any file for archive entry.
 1\1\GINC-C1-51\SP\RHF\6-31G(d)\H6Si2\BETO93\18-Nov-2024\0\\#RHF/6-31G*
  int=nobasistransform Symmetry=None 5D 7F Pop=NBO7Read\\mol50-NBO\\0,1
 \Si,0,0.,0.,1.167683\Si,0,0.,0.,-1.167683\H,0,0.,1.393286,1.68602\H,0,
 -1.206621,-0.696643,1.68602\H,0,1.206621,-0.696643,1.68602\H,0,0.,-1.3
 93286,-1.68602\H,0,-1.206621,0.696643,-1.68602\H,0,1.206621,0.696643,-
 1.68602\\Version=ES64L-G16RevC.01\HF=-581.3025961\RMSD=1.953e-09\Dipol
 e=0.,0.,0.\Quadrupole=0.3525343,0.3525341,-0.7050684,0.,0.,0.\PG=Unkno
 wn\\@
 The archive entry for this job was punched.


 SACRED COWS MAKE GREAT HAMBURGERS -- ROBERT REISNER
 Job cpu time:       0 days  0 hours  0 minutes  8.2 seconds.
 Elapsed time:       0 days  0 hours  0 minutes  2.6 seconds.
 File lengths (MBytes):  RWF=     10 Int=      0 D2E=      0 Chk=      1 Scr=      1
 Normal termination of Gaussian 16 at Mon Nov 18 16:40:05 2024.
