 Entering Gaussian System, Link 0=g16
 Initial command:
 /cluster/software/Gaussian/g16_C.01/l1.exe "/cluster/work/users/beto93/mol79/Gau-27296.inp" -scrdir="/cluster/work/users/beto93/mol79/"
 Entering Link 1 = /cluster/software/Gaussian/g16_C.01/l1.exe PID=     27302.
  
 Copyright (c) 1988-2019, Gaussian, Inc.  All Rights Reserved.
  
 This is part of the Gaussian(R) 16 program.  It is based on
 the Gaussian(R) 09 system (copyright 2009, Gaussian, Inc.),
 the Gaussian(R) 03 system (copyright 2003, Gaussian, Inc.),
 the Gaussian(R) 98 system (copyright 1998, Gaussian, Inc.),
 the Gaussian(R) 94 system (copyright 1995, Gaussian, Inc.),
 the Gaussian 92(TM) system (copyright 1992, Gaussian, Inc.),
 the Gaussian 90(TM) system (copyright 1990, Gaussian, Inc.),
 the Gaussian 88(TM) system (copyright 1988, Gaussian, Inc.),
 the Gaussian 86(TM) system (copyright 1986, Carnegie Mellon
 University), and the Gaussian 82(TM) system (copyright 1983,
 Carnegie Mellon University). Gaussian is a federally registered
 trademark of Gaussian, Inc.
  
 This software contains proprietary and confidential information,
 including trade secrets, belonging to Gaussian, Inc.
  
 This software is provided under written license and may be
 used, copied, transmitted, or stored only in accord with that
 written license.
  
 The following legend is applicable only to US Government
 contracts under FAR:
  
                    RESTRICTED RIGHTS LEGEND
  
 Use, reproduction and disclosure by the US Government is
 subject to restrictions as set forth in subparagraphs (a)
 and (c) of the Commercial Computer Software - Restricted
 Rights clause in FAR 52.227-19.
  
 Gaussian, Inc.
 340 Quinnipiac St., Bldg. 40, Wallingford CT 06492
  
  
 ---------------------------------------------------------------
 Warning -- This program may not be used in any manner that
 competes with the business of Gaussian, Inc. or will provide
 assistance to any competitor of Gaussian, Inc.  The licensee
 of this program is prohibited from giving any competitor of
 Gaussian, Inc. access to this program.  By using this program,
 the user acknowledges that Gaussian, Inc. is engaged in the
 business of creating and licensing software in the field of
 computational chemistry and represents and warrants to the
 licensee that it is not a competitor of Gaussian, Inc. and that
 it will not use this program in any manner prohibited above.
 ---------------------------------------------------------------
  

 Cite this work as:
 Gaussian 16, Revision C.01,
 M. J. Frisch, G. W. Trucks, H. B. Schlegel, G. E. Scuseria, 
 M. A. Robb, J. R. Cheeseman, G. Scalmani, V. Barone, 
 G. A. Petersson, H. Nakatsuji, X. Li, M. Caricato, A. V. Marenich, 
 J. Bloino, B. G. Janesko, R. Gomperts, B. Mennucci, H. P. Hratchian, 
 J. V. Ortiz, A. F. Izmaylov, J. L. Sonnenberg, D. Williams-Young, 
 F. Ding, F. Lipparini, F. Egidi, J. Goings, B. Peng, A. Petrone, 
 T. Henderson, D. Ranasinghe, V. G. Zakrzewski, J. Gao, N. Rega, 
 G. Zheng, W. Liang, M. Hada, M. Ehara, K. Toyota, R. Fukuda, 
 J. Hasegawa, M. Ishida, T. Nakajima, Y. Honda, O. Kitao, H. Nakai, 
 T. Vreven, K. Throssell, J. A. Montgomery, Jr., J. E. Peralta, 
 F. Ogliaro, M. J. Bearpark, J. J. Heyd, E. N. Brothers, K. N. Kudin, 
 V. N. Staroverov, T. A. Keith, R. Kobayashi, J. Normand, 
 K. Raghavachari, A. P. Rendell, J. C. Burant, S. S. Iyengar, 
 J. Tomasi, M. Cossi, J. M. Millam, M. Klene, C. Adamo, R. Cammi, 
 J. W. Ochterski, R. L. Martin, K. Morokuma, O. Farkas, 
 J. B. Foresman, and D. J. Fox, Gaussian, Inc., Wallingford CT, 2019.
 
 ******************************************
 Gaussian 16:  ES64L-G16RevC.01  3-Jul-2019
                18-Nov-2024 
 ******************************************
 %LindaWorkers=c5-5-ib
 %NProcShared=4
 Will use up to    4 processors via shared memory.
 %mem=25GB
 %chk=mol79.chk
 SetLPE:    new flags="-opt 'Tsnet.Node.lindarsharg: ssh'  -nodelist 'c5-5-ib.saga' -env GAUSS_MDEF=3355443200 -env GAUSS_EXEDIR="/cluster/software/Gaussian/g16_C.01/bsd:/cluster/software/Gaussian/g16_C.01""
 Will use up to    1 processors via Linda.
 -----------------------------------------------------------------
 #RHF/STO-3G int=nobasistransform Symmetry=None 5D 7F Pop=NBO7Read
 -----------------------------------------------------------------
 1/38=1,163=2,172=1/1;
 2/12=2,15=3,17=6,18=5,40=1/2;
 3/6=3,8=11,11=1,25=1,30=1,60=-1,116=1/1,2,3;
 4//1;
 5/5=2,38=5/2;
 6/7=2,8=2,9=2,10=2,28=1,40=2,113=1,114=1,124=2103/1,12;
 99/5=1,9=1/99;
 ---------
 mol79-NBO
 ---------
 Symbolic Z-matrix:
 Charge =  0 Multiplicity = 1
 C                     1.29129   0.13368   0. 
 C                     0.        0.47916   0. 
 H                     1.60116  -0.90742   0. 
 H                     2.0808    0.87734   0. 
 H                    -0.26322   1.5361    0. 
 C                    -1.13976  -0.49234   0. 
 H                    -0.77686  -1.52329   0. 
 H                    -1.77554  -0.35286   0.88042 
 H                    -1.77554  -0.35286  -0.88042 
 
                          Input orientation:                          
 ---------------------------------------------------------------------
 Center     Atomic      Atomic             Coordinates (Angstroms)
 Number     Number       Type             X           Y           Z
 ---------------------------------------------------------------------
      1          6           0        1.291290    0.133682    0.000000
      2          6           0        0.000000    0.479159    0.000000
      3          1           0        1.601160   -0.907420    0.000000
      4          1           0        2.080800    0.877337    0.000000
      5          1           0       -0.263221    1.536098    0.000000
      6          6           0       -1.139757   -0.492341    0.000000
      7          1           0       -0.776859   -1.523291    0.000000
      8          1           0       -1.775540   -0.352861    0.880420
      9          1           0       -1.775540   -0.352861   -0.880420
 ---------------------------------------------------------------------
                    Distance matrix (angstroms):
                    1          2          3          4          5
     1  C    0.000000
     2  C    1.336706   0.000000
     3  H    1.086238   2.118092   0.000000
     4  H    1.084596   2.118555   1.848083   0.000000
     5  H    2.093627   1.089222   3.073548   2.434831   0.000000
     6  C    2.510357   1.497618   2.772168   3.499715   2.209724
     7  H    2.650057   2.147863   2.456475   3.732188   3.102206
     8  H    3.227586   2.149404   3.533381   4.142449   2.574959
     9  H    3.227586   2.149404   3.533381   4.142449   2.574959
                    6          7          8          9
     6  C    0.000000
     7  H    1.092956   0.000000
     8  H    1.094904   1.772684   0.000000
     9  H    1.094904   1.772684   1.760840   0.000000
 Symmetry turned off by external request.
 Stoichiometry    C3H6
 Rotational constants (GHZ):          46.4620674           9.3165779           8.1515961
 Standard basis: STO-3G (5D, 7F)
    21 basis functions,    63 primitive gaussians,    21 cartesian basis functions
    12 alpha electrons       12 beta electrons
       nuclear repulsion energy        70.7001119945 Hartrees.
 NAtoms=    9 NActive=    9 NUniq=    9 SFac= 1.00D+00 NAtFMM=   60 NAOKFM=F Big=F
 Integral buffers will be    131072 words long.
 Raffenetti 1 integral format.
 Two-electron integral symmetry is turned off.
 One-electron integrals computed using PRISM.
 NBasis=    21 RedAO= T EigKep=  1.89D-01  NBF=    21
 NBsUse=    21 1.00D-06 EigRej= -1.00D+00 NBFU=    21
 ExpMin= 1.69D-01 ExpMax= 7.16D+01 ExpMxC= 7.16D+01 IAcc=3 IRadAn=         5 AccDes= 0.00D+00
 Harris functional with IExCor=  205 and IRadAn=       5 diagonalized for initial guess.
 HarFok:  IExCor=  205 AccDes= 0.00D+00 IRadAn=         5 IDoV= 1 UseB2=F ITyADJ=14
 ICtDFT=  3500011 ScaDFX=  1.000000  1.000000  1.000000  1.000000
 FoFCou: FMM=F IPFlag=           0 FMFlag=      100000 FMFlg1=           0
         NFxFlg=           0 DoJE=T BraDBF=F KetDBF=T FulRan=T
         wScrn=  0.000000 ICntrl=       500 IOpCl=  0 I1Cent=   200000004 NGrid=           0
         NMat0=    1 NMatS0=      1 NMatT0=    0 NMatD0=    1 NMtDS0=    0 NMtDT0=    0
 Symmetry not used in FoFCou.
 Keep R1 ints in memory in canonical form, NReq=838747.
 Requested convergence on RMS density matrix=1.00D-08 within 128 cycles.
 Requested convergence on MAX density matrix=1.00D-06.
 Requested convergence on             energy=1.00D-06.
 No special actions if energy rises.
 SCF Done:  E(RHF) =  -115.658521545     A.U. after   10 cycles
            NFock= 10  Conv=0.27D-08     -V/T= 2.0076

 **********************************************************************

            Population analysis using the SCF Density.

 **********************************************************************

 Alpha  occ. eigenvalues --  -11.04406 -11.02574 -11.00691  -1.01182  -0.88556
 Alpha  occ. eigenvalues --   -0.71291  -0.59715  -0.53705  -0.53570  -0.47841
 Alpha  occ. eigenvalues --   -0.44477  -0.30539
 Alpha virt. eigenvalues --    0.32033   0.61056   0.67805   0.69730   0.71796
 Alpha virt. eigenvalues --    0.72342   0.75183   0.94295   1.02239
          Condensed to atoms (all electrons):
               1          2          3          4          5          6
     1  C    4.811087   0.600438   0.391030   0.392953  -0.028702  -0.026879
     2  C    0.600438   4.786962  -0.025801  -0.024786   0.390166   0.382370
     3  H    0.391030  -0.025801   0.604133  -0.023965   0.002003  -0.004045
     4  H    0.392953  -0.024786  -0.023965   0.600802  -0.004728   0.001324
     5  H   -0.028702   0.390166   0.002003  -0.004728   0.611646  -0.025148
     6  C   -0.026879   0.382370  -0.004045   0.001324  -0.025148   4.711297
     7  H   -0.004406  -0.020959   0.000628   0.000032   0.001670   0.383316
     8  H    0.000448  -0.021478   0.000047  -0.000034  -0.001422   0.380013
     9  H    0.000448  -0.021478   0.000047  -0.000034  -0.001422   0.380013
               7          8          9
     1  C   -0.004406   0.000448   0.000448
     2  C   -0.020959  -0.021478  -0.021478
     3  H    0.000628   0.000047   0.000047
     4  H    0.000032  -0.000034  -0.000034
     5  H    0.001670  -0.001422  -0.001422
     6  C    0.383316   0.380013   0.380013
     7  H    0.617467  -0.020902  -0.020902
     8  H   -0.020902   0.620252  -0.021807
     9  H   -0.020902  -0.021807   0.620252
 Mulliken charges:
               1
     1  C   -0.136419
     2  C   -0.045437
     3  H    0.055924
     4  H    0.058435
     5  H    0.055936
     6  C   -0.182262
     7  H    0.064056
     8  H    0.064883
     9  H    0.064883
 Sum of Mulliken charges =   0.00000
 Mulliken charges with hydrogens summed into heavy atoms:
               1
     1  C   -0.022060
     2  C    0.010500
     6  C    0.011561
 Electronic spatial extent (au):  <R**2>=            194.1557
 Charge=              0.0000 electrons
 Dipole moment (field-independent basis, Debye):
    X=             -0.2550    Y=             -0.0173    Z=             -0.0000  Tot=              0.2555
 Quadrupole moment (field-independent basis, Debye-Ang):
   XX=            -18.3812   YY=            -18.1916   ZZ=            -19.5638
   XY=             -0.1249   XZ=              0.0000   YZ=              0.0000
 Traceless Quadrupole moment (field-independent basis, Debye-Ang):
   XX=              0.3310   YY=              0.5206   ZZ=             -0.8516
   XY=             -0.1249   XZ=              0.0000   YZ=              0.0000
 Octapole moment (field-independent basis, Debye-Ang**2):
  XXX=              0.5497  YYY=              0.1441  ZZZ=             -0.0000  XYY=              0.8703
  XXY=              0.6063  XXZ=             -0.0000  XZZ=             -1.3352  YZZ=             -0.1386
  YYZ=             -0.0000  XYZ=             -0.0000
 Hexadecapole moment (field-independent basis, Debye-Ang**3):
 XXXX=           -162.3169 YYYY=            -55.4460 ZZZZ=            -22.6236 XXXY=            -14.7862
 XXXZ=              0.0000 YYYX=            -16.9931 YYYZ=              0.0000 ZZZX=              0.0000
 ZZZY=              0.0000 XXYY=            -36.3372 XXZZ=            -30.5258 YYZZ=            -14.3848
 XXYZ=              0.0000 YYXZ=              0.0000 ZZXY=             -5.5087
 N-N= 7.070011199448D+01 E-N=-4.103345949158D+02  KE= 1.147882354078D+02
 Running external command "gaunbo7 R"
         input file       "/cluster/work/users/beto93/mol79/Gau-27302.EIn"
         output file      "/cluster/work/users/beto93/mol79/Gau-27302.EOu"
         message file     "/cluster/work/users/beto93/mol79/Gau-27302.EMs"
         fchk file        "/cluster/work/users/beto93/mol79/Gau-27302.EFC"
         mat. el file     "/cluster/work/users/beto93/mol79/Gau-27302.EUF"

 Writing WrtUnf unformatted file "/cluster/work/users/beto93/mol79/Gau-27302.EUF"
 Gaussian matrix elements                                         Version   2 NLab=11 Len12L=8 Len4L=8
 Write SHELL TO ATOM MAP                   from file      0 offset           0 length                  12 to matrix element file.
 Write SHELL TYPES                         from file      0 offset           0 length                  12 to matrix element file.
 Write NUMBER OF PRIMITIVES PER SHELL      from file      0 offset           0 length                  12 to matrix element file.
 Write PRIMITIVE EXPONENTS                 from file      0 offset           0 length                  36 to matrix element file.
 Write CONTRACTION COEFFICIENTS            from file      0 offset           0 length                  36 to matrix element file.
 Write P(S=P) CONTRACTION COEFFICIENTS     from file      0 offset           0 length                  36 to matrix element file.
 Write COORDINATES OF EACH SHELL           from file      0 offset           0 length                  36 to matrix element file.
 Write BONDS PER ATOM                      from file      0 offset           0 length                   9 to matrix element file.
 Write BONDED ATOMS                        from file      0 offset           0 length                  16 to matrix element file.
 Write BOND TYPES                          from file      0 offset           0 length                  16 to matrix element file.
 Write ONIOM CHARGE/MULT                   from file      0 offset           0 length                  32 to matrix element file.
 Write ONIOM ATOM LAYERS                   from file      0 offset           0 length                   9 to matrix element file.
 Write ONIOM ATOM MODIFIERS                from file      0 offset           0 length                   9 to matrix element file.
 Write ONIOM ATOM TYPES                    from file      0 offset           0 length                   9 to matrix element file.
 Write ONIOM LINK ATOMS                    from file      0 offset           0 length                   9 to matrix element file.
 Write ONIOM LINK CHARGES                  from file      0 offset           0 length                   9 to matrix element file.
 Write ONIOM LINK DISTANCES                from file      0 offset           0 length                  36 to matrix element file.
 Write SYMINF INTS                         from file      0 offset           0 length                  26 to matrix element file.
 Write ROTTR TO SO                         from file      0 offset           0 length                  12 to matrix element file.
 Write GAUSSIAN SCALARS                    from file    501 offset           0 to matrix element file.
 Write OPTIMIZATION FLAGS                  from file      0 offset           0 length                   9 to matrix element file.
 Write INTEGER ISO                         from file      0 offset           0 length                   9 to matrix element file.
 Write INTEGER SPIN                        from file      0 offset           0 length                   9 to matrix element file.
 Write REAL ZEFFECTIVE                     from file      0 offset           0 length                   9 to matrix element file.
 Write REAL GFACTOR                        from file      0 offset           0 length                   9 to matrix element file.
 Write REAL ZNUCLEAR                       from file      0 offset           0 length                   9 to matrix element file.
 Write MULLIKEN CHARGES                    from file      0 offset           0 length                   9 to matrix element file.
 Write NUCLEAR GRADIENT                    from file  10584 offset           0 length                  27 to matrix element file.
 Array NUCLEAR FORCE CONSTANTS              on  file  10585 does not exist.
 Write ELECTRIC DIPOLE MOMENT              from file      0 offset           0 length                   3 to matrix element file.
 Write NON-ADIABATIC COUPLING              from file  10810 offset           0 length                  27 to matrix element file.
 Write FINITE EM FIELD                     from file  10521 offset           0 length                  35 to matrix element file.
 Write OVERLAP                             from file  10514 offset           0 length                 231 to matrix element file.
 Write CORE HAMILTONIAN ALPHA              from file  10515 offset           0 length                 231 to matrix element file.
 Write CORE HAMILTONIAN BETA               from file  10515 offset         231 length                 231 to matrix element file.
 Write KINETIC ENERGY                      from file  10516 offset           0 length                 231 to matrix element file.
 Write ORTHOGONAL BASIS                    from file  10685 offset           0 length                 441 to matrix element file.
 Write DIPOLE INTEGRALS                    from file  10518 offset           0 length                 693 to matrix element file.
 Array DIP VEL INTEGRALS                    on  file  10572 does not exist.
 Array R X DEL INTEGRALS                    on  file  10572 does not exist.
 Write ALPHA ORBITAL ENERGIES              from file      0 offset           0 length                  21 to matrix element file.
 Write ALPHA MO COEFFICIENTS               from file  10524 offset           0 length                 441 to matrix element file.
 Write ALPHA DENSITY MATRIX                from file      0 offset           0 length                 231 to matrix element file.
 Write ALPHA FOCK MATRIX                   from file  10536 offset           0 length                 231 to matrix element file.
 Write ENERGY-WEIGHTED DENSITY             from file  10571 offset           0 length                 231 to matrix element file.
 Write ALPHA SCF DENSITY MATRIX            from file      0 offset           0 length                 231 to matrix element file.
 No 2e integrals to process.
 Perform NBO analysis...executing G16NBO...

 *********************************** NBO 7.0 ***********************************
             N A T U R A L   A T O M I C   O R B I T A L   A N D
          N A T U R A L   B O N D   O R B I T A L   A N A L Y S I S
 **************************** Espen Tangen (S101595) ***************************
  (c) Copyright 1996-2021 Board of Regents of the University of Wisconsin System
      on behalf of the Theoretical Chemistry Institute.  All rights reserved.

          Cite this program [NBO 7.0.10 (8-Feb-2021)] as:

          NBO 7.0.  E. D. Glendening, J. K. Badenhoop, A. E. Reed,
          J. E. Carpenter, J. A. Bohmann, C. M. Morales, P. Karafiloglou,
          C. R. Landis, and F. Weinhold, Theoretical Chemistry Institute,
          University of Wisconsin, Madison, WI (2018)

       /NPA    / : Natural Population Analysis
       /AOPNAO / : Print the AO to PNAO transformation
       /AONAO  / : Print the AO to NAO transformation
       /AOMO   / : Print the MOs in the AO basis
       /BOAO   / : Print the AO bond-order matrix
       /DMAO   / : Print the AO density matrix
       /DMPNAO / : Print the PNAO density matrix
       /DMNAO  / : Print the NAO density matrix
       /DMMO   / : Print the MO density matrix
       /SAO    / : Print the AO overlap matrix
       /SPNAO  / : Print the PNAO overlap matrix
       /DETAIL / : Write details of NBO search
       /ARCHIVE/ : Write the archive file to lfn47
       /AOINFO / : Write AO information to lfn31
       /FILE   / : Set to mol79.gen*

 Filename set to mol79.gen1

 Job title: mol79-NBO


 MOs in the AO basis:

           AO          1       2       3       4       5       6       7       8
      ------------ ------- ------- ------- ------- ------- ------- ------- -------
   1.  C 1 (s)     -0.0005  0.0209  0.9920 -0.1282  0.1487  0.1036 -0.0188 -0.0006
   2.  C 1 (s)      0.0002 -0.0070  0.0362  0.3341 -0.4082 -0.3210  0.0713  0.0222
   3.  C 1 (px)    -0.0001  0.0044 -0.0015 -0.0969  0.0283 -0.1957  0.2901  0.2017
   4.  C 1 (py)    -0.0001 -0.0012  0.0004  0.0192 -0.0275  0.1135  0.2481 -0.3601
   5.  C 1 (pz)     0.0000  0.0000  0.0000  0.0000  0.0000  0.0000  0.0000  0.0000
   6.  C 2 (s)     -0.0057  0.9920 -0.0203 -0.1703  0.0417 -0.1363  0.0352 -0.0037
   7.  C 2 (s)     -0.0063  0.0357 -0.0085  0.4446 -0.1156  0.4232 -0.1095  0.0309
   8.  C 2 (px)     0.0033  0.0013 -0.0044  0.0315 -0.2086 -0.0940 -0.0722 -0.3450
   9.  C 2 (py)     0.0029 -0.0003  0.0012 -0.0520 -0.0443  0.1651  0.3149 -0.0452
  10.  C 2 (pz)     0.0000  0.0000  0.0000  0.0000  0.0000  0.0000  0.0000  0.0000
  11.  H 3 (s)     -0.0001 -0.0001 -0.0068  0.0773 -0.1161 -0.2362 -0.0913  0.3489
  12.  H 4 (s)      0.0000  0.0000 -0.0068  0.0721 -0.1343 -0.1702  0.3276 -0.0807
  13.  H 5 (s)      0.0001 -0.0069  0.0002  0.1017 -0.0332  0.2844  0.2002  0.0479
  14.  C 6 (s)      0.9919  0.0067  0.0004 -0.1318 -0.1676  0.0523 -0.0117  0.0050
  15.  C 6 (s)      0.0380 -0.0055  0.0004  0.3615  0.4836 -0.1645  0.0382 -0.0189
  16.  C 6 (px)     0.0000 -0.0034  0.0001  0.0534 -0.0445  0.0960 -0.3020  0.0171
  17.  C 6 (py)     0.0001 -0.0026  0.0001  0.0401 -0.0163  0.1683  0.0839  0.3841
  18.  C 6 (pz)     0.0000  0.0000  0.0000  0.0000  0.0000  0.0000  0.0000  0.0000
  19.  H 7 (s)     -0.0069  0.0000 -0.0001  0.0847  0.1400 -0.1478 -0.1333 -0.3079
  20.  H 8 (s)     -0.0069 -0.0002  0.0000  0.0801  0.1544 -0.0794  0.1642  0.0287
  21.  H 9 (s)     -0.0069 -0.0002  0.0000  0.0801  0.1544 -0.0794  0.1642  0.0287

           AO          9      10      11      12      13      14      15      16
      ------------ ------- ------- ------- ------- ------- ------- ------- -------
   1.  C 1 (s)      0.0000  0.0295  0.0046  0.0000  0.0000  0.0223  0.0168 -0.2040
   2.  C 1 (s)      0.0000 -0.0870 -0.0207  0.0000  0.0000 -0.1487 -0.1320  1.2992
   3.  C 1 (px)     0.0000  0.3491 -0.0676  0.0000  0.0000 -0.0708 -0.0127  0.4246
   4.  C 1 (py)     0.0000  0.0188 -0.3179  0.0000  0.0000 -0.5593  0.3476 -0.1301
   5.  C 1 (pz)     0.0967  0.0000  0.0000  0.6408 -0.7934  0.0000  0.0000  0.0000
   6.  C 2 (s)      0.0000 -0.0005  0.0109  0.0000  0.0000  0.0145  0.1356  0.0766
   7.  C 2 (s)      0.0000  0.0229 -0.0438  0.0000  0.0000 -0.0944 -0.8346 -0.4464
   8.  C 2 (px)     0.0000 -0.3361  0.1181  0.0000  0.0000 -0.0080  0.5328 -0.0844
   9.  C 2 (py)     0.0000  0.1043  0.4032  0.0000  0.0000 -0.6526  0.1217  0.0278
  10.  C 2 (pz)     0.1826  0.0000  0.0000  0.6000  0.7958  0.0000  0.0000  0.0000
  11.  H 3 (s)      0.0000  0.0443  0.3078  0.0000  0.0000 -0.4590  0.3930 -0.8588
  12.  H 4 (s)      0.0000  0.2140 -0.2975  0.0000  0.0000  0.5391 -0.1883 -0.8498
  13.  H 5 (s)      0.0000  0.1934  0.3657  0.0000  0.0000  0.7144  0.4302  0.2186
  14.  C 6 (s)      0.0000 -0.0080  0.0260  0.0000  0.0000  0.0427 -0.0538 -0.0683
  15.  C 6 (s)      0.0000  0.0277 -0.1013  0.0000  0.0000 -0.2544  0.3062  0.4196
  16.  C 6 (px)     0.0000  0.4068 -0.2236  0.0000  0.0000  0.0575  0.9444  0.0501
  17.  C 6 (py)     0.0000 -0.1946 -0.3141  0.0000  0.0000 -0.5593  0.1310 -0.0146
  18.  C 6 (pz)     0.5542  0.0000  0.0000 -0.1354  0.0766  0.0000  0.0000  0.0000
  19.  H 7 (s)      0.0000  0.3282  0.1994  0.0000  0.0000 -0.4685 -0.3779 -0.1682
  20.  H 8 (s)      0.3961 -0.2402  0.0416 -0.1716 -0.2017  0.2463  0.3598 -0.1592
  21.  H 9 (s)     -0.3961 -0.2402  0.0416  0.1716  0.2017  0.2463  0.3598 -0.1592

           AO         17      18      19      20      21
      ------------ ------- ------- ------- ------- -------
   1.  C 1 (s)      0.0000 -0.0361  0.0355 -0.0080  0.1068
   2.  C 1 (s)      0.0000  0.2251 -0.2431  0.0565 -0.8240
   3.  C 1 (px)     0.0000 -0.4383 -0.2903  0.2017  1.0581
   4.  C 1 (py)     0.0000 -0.1980  0.0603  0.9186 -0.2775
   5.  C 1 (pz)     0.1071  0.0000  0.0000  0.0000  0.0000
   6.  C 2 (s)      0.0000  0.1327  0.0730  0.0052 -0.0985
   7.  C 2 (s)      0.0000 -0.8716 -0.4733 -0.0601  0.7669
   8.  C 2 (px)     0.0000  0.0414  0.1815 -0.3046  1.1134
   9.  C 2 (py)     0.0000 -0.1975 -0.0681 -0.9047 -0.3449
  10.  C 2 (pz)    -0.2637  0.0000  0.0000  0.0000  0.0000
  11.  H 3 (s)      0.0000 -0.2251  0.2607  0.5888 -0.1163
  12.  H 4 (s)      0.0000  0.2956  0.2490 -0.6122 -0.1183
  13.  H 5 (s)      0.0000  0.5704  0.3282  0.6055  0.1589
  14.  C 6 (s)      0.0000  0.0434 -0.2189  0.0691 -0.0148
  15.  C 6 (s)      0.0000 -0.2928  1.3932 -0.4588  0.1011
  16.  C 6 (px)     0.0000 -0.1127 -0.3791 -0.4123 -0.1649
  17.  C 6 (py)     0.0000  0.8694 -0.0320 -0.1518  0.3747
  18.  C 6 (pz)     1.1063  0.0000  0.0000  0.0000  0.0000
  19.  H 7 (s)      0.0000  0.9030 -0.5066  0.1399  0.2621
  20.  H 8 (s)     -0.8310 -0.0576 -0.7566 -0.0033 -0.1286
  21.  H 9 (s)      0.8310 -0.0576 -0.7566 -0.0033 -0.1286


 AO overlap matrix:

           AO          1       2       3       4       5       6       7       8
      ------------ ------- ------- ------- ------- ------- ------- ------- -------
   1.  C 1 (s)      1.0000  0.2484  0.0000  0.0000  0.0000  0.0000  0.0436  0.0699
   2.  C 1 (s)      0.2484  1.0000  0.0000  0.0000  0.0000  0.0436  0.3971  0.3965
   3.  C 1 (px)     0.0000  0.0000  1.0000  0.0000  0.0000 -0.0699 -0.3965 -0.2902
   4.  C 1 (py)     0.0000  0.0000  0.0000  1.0000  0.0000  0.0187  0.1061  0.1415
   5.  C 1 (pz)     0.0000  0.0000  0.0000  0.0000  1.0000  0.0000  0.0000  0.0000
   6.  C 2 (s)      0.0000  0.0436 -0.0699  0.0187  0.0000  1.0000  0.2484  0.0000
   7.  C 2 (s)      0.0436  0.3971 -0.3965  0.1061  0.0000  0.2484  1.0000  0.0000
   8.  C 2 (px)     0.0699  0.3965 -0.2902  0.1415  0.0000  0.0000  0.0000  1.0000
   9.  C 2 (py)    -0.0187 -0.1061  0.1415  0.2008  0.0000  0.0000  0.0000  0.0000
  10.  C 2 (pz)     0.0000  0.0000  0.0000  0.0000  0.2387  0.0000  0.0000  0.0000
  11.  H 3 (s)      0.0628  0.4929  0.1337 -0.4491  0.0000  0.0060  0.1042  0.1007
  12.  H 4 (s)      0.0631  0.4939  0.3415  0.3217  0.0000  0.0060  0.1041  0.1307
  13.  H 5 (s)      0.0063  0.1089 -0.1027  0.0927  0.0000  0.0624  0.4912 -0.1130
  14.  C 6 (s)      0.0000  0.0013 -0.0030 -0.0008  0.0000  0.0000  0.0296 -0.0375
  15.  C 6 (s)      0.0013  0.0500 -0.0729 -0.0188  0.0000  0.0296  0.3177 -0.2679
  16.  C 6 (px)     0.0030  0.0729 -0.0961 -0.0300  0.0000  0.0375  0.2679 -0.1104
  17.  C 6 (py)     0.0008  0.0188 -0.0300  0.0128  0.0000  0.0320  0.2284 -0.2458
  18.  C 6 (pz)     0.0000  0.0000  0.0000  0.0000  0.0205  0.0000  0.0000  0.0000
  19.  H 7 (s)      0.0014  0.0370 -0.0415 -0.0333  0.0000  0.0055  0.0987 -0.0460
  20.  H 8 (s)      0.0002  0.0101 -0.0155 -0.0025  0.0044  0.0055  0.0984 -0.1047
  21.  H 9 (s)      0.0002  0.0101 -0.0155 -0.0025 -0.0044  0.0055  0.0984 -0.1047

           AO          9      10      11      12      13      14      15      16
      ------------ ------- ------- ------- ------- ------- ------- ------- -------
   1.  C 1 (s)     -0.0187  0.0000  0.0628  0.0631  0.0063  0.0000  0.0013  0.0030
   2.  C 1 (s)     -0.1061  0.0000  0.4929  0.4939  0.1089  0.0013  0.0500  0.0729
   3.  C 1 (px)     0.1415  0.0000  0.1337  0.3415 -0.1027 -0.0030 -0.0729 -0.0961
   4.  C 1 (py)     0.2008  0.0000 -0.4491  0.3217  0.0927 -0.0008 -0.0188 -0.0300
   5.  C 1 (pz)     0.0000  0.2387  0.0000  0.0000  0.0000  0.0000  0.0000  0.0000
   6.  C 2 (s)      0.0000  0.0000  0.0060  0.0060  0.0624  0.0000  0.0296  0.0375
   7.  C 2 (s)      0.0000  0.0000  0.1042  0.1041  0.4912  0.0296  0.3177  0.2679
   8.  C 2 (px)     0.0000  0.0000  0.1007  0.1307 -0.1130 -0.0375 -0.2679 -0.1104
   9.  C 2 (py)     1.0000  0.0000 -0.0872  0.0250  0.4537 -0.0320 -0.2284 -0.2458
  10.  C 2 (pz)     0.0000  1.0000  0.0000  0.0000  0.0000  0.0000  0.0000  0.0000
  11.  H 3 (s)     -0.0872  0.0000  1.0000  0.1522  0.0156  0.0009  0.0285  0.0416
  12.  H 4 (s)      0.0250  0.0000  0.1522  1.0000  0.0559  0.0001  0.0052  0.0080
  13.  H 5 (s)      0.4537  0.0000  0.0156  0.0559  1.0000  0.0047  0.0881  0.0457
  14.  C 6 (s)     -0.0320  0.0000  0.0009  0.0001  0.0047  1.0000  0.2484  0.0000
  15.  C 6 (s)     -0.2284  0.0000  0.0285  0.0052  0.0881  0.2484  1.0000  0.0000
  16.  C 6 (px)    -0.2458  0.0000  0.0416  0.0080  0.0457  0.0000  0.0000  1.0000
  17.  C 6 (py)    -0.0315  0.0000 -0.0063  0.0034  0.1057  0.0000  0.0000  0.0000
  18.  C 6 (pz)     0.0000  0.1780  0.0000  0.0000  0.0000  0.0000  0.0000  0.0000
  19.  H 7 (s)     -0.1185  0.0000  0.0537  0.0035  0.0147  0.0618  0.4891  0.1548
  20.  H 8 (s)     -0.0491  0.0519  0.0056  0.0012  0.0430  0.0616  0.4879 -0.2704
  21.  H 9 (s)     -0.0491 -0.0519  0.0056  0.0012  0.0430  0.0616  0.4879 -0.2704

           AO         17      18      19      20      21
      ------------ ------- ------- ------- ------- -------
   1.  C 1 (s)      0.0008  0.0000  0.0014  0.0002  0.0002
   2.  C 1 (s)      0.0188  0.0000  0.0370  0.0101  0.0101
   3.  C 1 (px)    -0.0300  0.0000 -0.0415 -0.0155 -0.0155
   4.  C 1 (py)     0.0128  0.0000 -0.0333 -0.0025 -0.0025
   5.  C 1 (pz)     0.0000  0.0205  0.0000  0.0044 -0.0044
   6.  C 2 (s)      0.0320  0.0000  0.0055  0.0055  0.0055
   7.  C 2 (s)      0.2284  0.0000  0.0987  0.0984  0.0984
   8.  C 2 (px)    -0.2458  0.0000 -0.0460 -0.1047 -0.1047
   9.  C 2 (py)    -0.0315  0.0000 -0.1185 -0.0491 -0.0491
  10.  C 2 (pz)     0.0000  0.1780  0.0000  0.0519 -0.0519
  11.  H 3 (s)     -0.0063  0.0000  0.0537  0.0056  0.0056
  12.  H 4 (s)      0.0034  0.0000  0.0035  0.0012  0.0012
  13.  H 5 (s)      0.1057  0.0000  0.0147  0.0430  0.0430
  14.  C 6 (s)      0.0000  0.0000  0.0618  0.0616  0.0616
  15.  C 6 (s)      0.0000  0.0000  0.4891  0.4879  0.4879
  16.  C 6 (px)     0.0000  0.0000  0.1548 -0.2704 -0.2704
  17.  C 6 (py)     1.0000  0.0000 -0.4398  0.0593  0.0593
  18.  C 6 (pz)     0.0000  1.0000  0.0000  0.3744 -0.3744
  19.  H 7 (s)     -0.4398  0.0000  1.0000  0.1712  0.1712
  20.  H 8 (s)      0.0593  0.3744  0.1712  1.0000  0.1743
  21.  H 9 (s)      0.0593 -0.3744  0.1712  0.1743  1.0000


 AO bond-order matrix:

           AO          1       2       3       4       5       6       7       8
      ------------ ------- ------- ------- ------- ------- ------- ------- -------
   1.  C 1 (s)      2.0702 -0.2101 -0.0013  0.0005  0.0000  0.0278 -0.0711 -0.1139
   2.  C 1 (s)     -0.2101  0.7924  0.0301 -0.0083  0.0000 -0.0712  0.1022  0.2793
   3.  C 1 (px)    -0.0013  0.0301  0.5996  0.0051  0.0000  0.1146 -0.2871 -0.4129
   4.  C 1 (py)     0.0005 -0.0083  0.0051  0.6133  0.0000 -0.0289  0.0715  0.1163
   5.  C 1 (pz)     0.0000  0.0000  0.0000  0.0000  0.8399  0.0000  0.0000  0.0000
   6.  C 2 (s)      0.0278 -0.0712  0.1146 -0.0289  0.0000  2.0705 -0.2141  0.0005
   7.  C 2 (s)     -0.0711  0.1022 -0.2871  0.0715  0.0000 -0.2141  0.8138 -0.0345
   8.  C 2 (px)    -0.1139  0.2793 -0.4129  0.1163  0.0000  0.0005 -0.0345  0.6091
   9.  C 2 (py)     0.0348 -0.0965  0.1257 -0.0257  0.0000 -0.0004  0.0013 -0.0049
  10.  C 2 (pz)     0.0000  0.0000  0.0000  0.0000  0.8042  0.0000  0.0000  0.0000
  11.  H 3 (s)     -0.1084  0.2796  0.1481 -0.5349  0.0000  0.0262 -0.0876 -0.0869
  12.  H 4 (s)     -0.1096  0.2848  0.3923  0.3894  0.0000  0.0278 -0.0896 -0.1131
  13.  H 5 (s)      0.0303 -0.1055  0.0881 -0.0901  0.0000 -0.1070  0.2742 -0.1388
  14.  C 6 (s)     -0.0050  0.0144 -0.0184 -0.0106  0.0000  0.0183 -0.0460  0.0682
  15.  C 6 (s)      0.0168 -0.0436  0.0692  0.0480  0.0000 -0.0487  0.0702 -0.1828
  16.  C 6 (px)     0.0263 -0.0934  0.0954  0.0216  0.0000 -0.0814  0.2443 -0.2906
  17.  C 6 (py)     0.0018  0.0079  0.0357 -0.0019  0.0000 -0.0696  0.2057 -0.2429
  18.  C 6 (pz)     0.0000  0.0000  0.0000  0.0000 -0.0663  0.0000  0.0000  0.0000
  19.  H 7 (s)      0.0156 -0.0607  0.0500  0.0032  0.0000  0.0200 -0.0743  0.0329
  20.  H 8 (s)     -0.0112  0.0432 -0.0422  0.0019 -0.1433  0.0195 -0.0804  0.0833
  21.  H 9 (s)     -0.0112  0.0432 -0.0422  0.0019  0.1433  0.0195 -0.0804  0.0833

           AO          9      10      11      12      13      14      15      16
      ------------ ------- ------- ------- ------- ------- ------- ------- -------
   1.  C 1 (s)      0.0348  0.0000 -0.1084 -0.1096  0.0303 -0.0050  0.0168  0.0263
   2.  C 1 (s)     -0.0965  0.0000  0.2796  0.2848 -0.1055  0.0144 -0.0436 -0.0934
   3.  C 1 (px)     0.1257  0.0000  0.1481  0.3923  0.0881 -0.0184  0.0692  0.0954
   4.  C 1 (py)    -0.0257  0.0000 -0.5349  0.3894 -0.0901 -0.0106  0.0480  0.0216
   5.  C 1 (pz)     0.0000  0.8042  0.0000  0.0000  0.0000  0.0000  0.0000  0.0000
   6.  C 2 (s)     -0.0004  0.0000  0.0262  0.0278 -0.1070  0.0183 -0.0487 -0.0814
   7.  C 2 (s)      0.0013  0.0000 -0.0876 -0.0896  0.2742 -0.0460  0.0702  0.2443
   8.  C 2 (px)    -0.0049  0.0000 -0.0869 -0.1131 -0.1388  0.0682 -0.1828 -0.2906
   9.  C 2 (py)     0.6132  0.0000  0.0926 -0.0335  0.5432  0.0630 -0.1846 -0.2572
  10.  C 2 (pz)     0.0000  0.7866  0.0000  0.0000  0.0000  0.0000  0.0000  0.0000
  11.  H 3 (s)      0.0926  0.0000  0.6041 -0.1575  0.1283  0.0147 -0.0588 -0.0613
  12.  H 4 (s)     -0.0335  0.0000 -0.1575  0.6008 -0.0846 -0.0192  0.0784  0.0935
  13.  H 5 (s)      0.5432  0.0000  0.1283 -0.0846  0.6116  0.0259 -0.1019 -0.0570
  14.  C 6 (s)      0.0630  0.0000  0.0147 -0.0192  0.0259  2.0660 -0.2060 -0.0001
  15.  C 6 (s)     -0.1846  0.0000 -0.0588  0.0784 -0.1019 -0.2060  0.8118  0.0081
  16.  C 6 (px)    -0.2572  0.0000 -0.0613  0.0935 -0.0570 -0.0001  0.0081  0.6421
  17.  C 6 (py)    -0.2229  0.0000 -0.0275  0.0494 -0.1296  0.0012  0.0026 -0.0173
  18.  C 6 (pz)     0.0000  0.0399  0.0000  0.0000  0.0000  0.0000  0.0000  0.0000
  19.  H 7 (s)      0.1031  0.0000  0.0117  0.0091  0.1137 -0.0933  0.2241  0.2160
  20.  H 8 (s)      0.0360 -0.0612  0.0084 -0.0275 -0.0331 -0.0925  0.2226 -0.3326
  21.  H 9 (s)      0.0360  0.0612  0.0084 -0.0275 -0.0331 -0.0925  0.2226 -0.3326

           AO         17      18      19      20      21
      ------------ ------- ------- ------- ------- -------
   1.  C 1 (s)      0.0018  0.0000  0.0156 -0.0112 -0.0112
   2.  C 1 (s)      0.0079  0.0000 -0.0607  0.0432  0.0432
   3.  C 1 (px)     0.0357  0.0000  0.0500 -0.0422 -0.0422
   4.  C 1 (py)    -0.0019  0.0000  0.0032  0.0019  0.0019
   5.  C 1 (pz)     0.0000 -0.0663  0.0000 -0.1433  0.1433
   6.  C 2 (s)     -0.0696  0.0000  0.0200  0.0195  0.0195
   7.  C 2 (s)      0.2057  0.0000 -0.0743 -0.0804 -0.0804
   8.  C 2 (px)    -0.2429  0.0000  0.0329  0.0833  0.0833
   9.  C 2 (py)    -0.2229  0.0000  0.1031  0.0360  0.0360
  10.  C 2 (pz)     0.0000  0.0399  0.0000 -0.0612  0.0612
  11.  H 3 (s)     -0.0275  0.0000  0.0117  0.0084  0.0084
  12.  H 4 (s)      0.0494  0.0000  0.0091 -0.0275 -0.0275
  13.  H 5 (s)     -0.1296  0.0000  0.1137 -0.0331 -0.0331
  14.  C 6 (s)      0.0012  0.0000 -0.0933 -0.0925 -0.0925
  15.  C 6 (s)      0.0026  0.0000  0.2241  0.2226  0.2226
  16.  C 6 (px)    -0.0173  0.0000  0.2160 -0.3326 -0.3326
  17.  C 6 (py)     0.6427  0.0000 -0.5595  0.0916  0.0916
  18.  C 6 (pz)     0.0000  0.6509  0.0000  0.4855 -0.4855
  19.  H 7 (s)     -0.5595  0.0000  0.6175 -0.1221 -0.1221
  20.  H 8 (s)      0.0916  0.4855 -0.1221  0.6203 -0.1251
  21.  H 9 (s)      0.0916 -0.4855 -0.1221 -0.1251  0.6203


 AO density matrix:

           AO          1       2       3       4       5       6       7       8
      ------------ ------- ------- ------- ------- ------- ------- ------- -------
   1.  C 1 (s)      1.9996  0.5047  0.0006 -0.0001  0.0000  0.0002  0.0839  0.1346
   2.  C 1 (s)      0.5047  1.8563 -0.0144  0.0037  0.0000  0.0840  0.8468  0.8897
   3.  C 1 (px)     0.0006 -0.0144  1.6679 -0.0092  0.0000 -0.1344 -0.8927 -0.7357
   4.  C 1 (py)    -0.0001  0.0037 -0.0092  1.6295  0.0000  0.0360  0.2398  0.3238
   5.  C 1 (pz)     0.0000  0.0000  0.0000  0.0000  1.2639  0.0000  0.0000  0.0000
   6.  C 2 (s)      0.0002  0.0840 -0.1344  0.0360  0.0000  1.9996  0.5049 -0.0010
   7.  C 2 (s)      0.0839  0.8468 -0.8927  0.2398  0.0000  0.5049  1.8493  0.0293
   8.  C 2 (px)     0.1346  0.8897 -0.7357  0.3238  0.0000 -0.0010  0.0293  1.6635
   9.  C 2 (py)    -0.0357 -0.2426  0.3308  0.3912  0.0000 -0.0002  0.0100 -0.0284
  10.  C 2 (pz)     0.0000  0.0000  0.0000  0.0000  1.2159  0.0000  0.0000  0.0000
  11.  H 3 (s)      0.1181  1.1236  0.3538 -1.1744  0.0000  0.0127  0.2025  0.1745
  12.  H 4 (s)      0.1185  1.1263  0.8939  0.8391  0.0000  0.0127  0.1983  0.2579
  13.  H 5 (s)      0.0134  0.2111 -0.1834  0.2162  0.0000  0.1174  1.1160 -0.3026
  14.  C 6 (s)      0.0000  0.0029 -0.0063 -0.0012  0.0000  0.0002  0.0560 -0.0705
  15.  C 6 (s)      0.0029  0.0971 -0.1448 -0.0458  0.0000  0.0565  0.6865 -0.6169
  16.  C 6 (px)     0.0065  0.1429 -0.1980 -0.0848  0.0000  0.0695  0.6432 -0.3818
  17.  C 6 (py)     0.0021  0.0310 -0.0338 -0.0040  0.0000  0.0592  0.5545 -0.6311
  18.  C 6 (pz)     0.0000  0.0000  0.0000  0.0000  0.0502  0.0000  0.0000  0.0000
  19.  H 7 (s)      0.0032  0.0634 -0.0576 -0.0764  0.0000  0.0114  0.1944 -0.0703
  20.  H 8 (s)     -0.0001  0.0293 -0.0429  0.0016 -0.0780  0.0113  0.1913 -0.2126
  21.  H 9 (s)     -0.0001  0.0293 -0.0429  0.0016  0.0780  0.0113  0.1913 -0.2126

           AO          9      10      11      12      13      14      15      16
      ------------ ------- ------- ------- ------- ------- ------- ------- -------
   1.  C 1 (s)     -0.0357  0.0000  0.1181  0.1185  0.0134  0.0000  0.0029  0.0065
   2.  C 1 (s)     -0.2426  0.0000  1.1236  1.1263  0.2111  0.0029  0.0971  0.1429
   3.  C 1 (px)     0.3308  0.0000  0.3538  0.8939 -0.1834 -0.0063 -0.1448 -0.1980
   4.  C 1 (py)     0.3912  0.0000 -1.1744  0.8391  0.2162 -0.0012 -0.0458 -0.0848
   5.  C 1 (pz)     0.0000  1.2159  0.0000  0.0000  0.0000  0.0000  0.0000  0.0000
   6.  C 2 (s)     -0.0002  0.0000  0.0127  0.0127  0.1174  0.0002  0.0565  0.0695
   7.  C 2 (s)      0.0100  0.0000  0.2025  0.1983  1.1160  0.0560  0.6865  0.6432
   8.  C 2 (px)    -0.0284  0.0000  0.1745  0.2579 -0.3026 -0.0705 -0.6169 -0.3818
   9.  C 2 (py)     1.6154  0.0000 -0.2012  0.0913  1.1888 -0.0598 -0.5296 -0.6393
  10.  C 2 (pz)     0.0000  1.2497  0.0000  0.0000  0.0000  0.0000  0.0000  0.0000
  11.  H 3 (s)     -0.2012  0.0000  1.6447  0.2753  0.0825  0.0024  0.0447  0.0548
  12.  H 4 (s)      0.0913  0.0000  0.2753  1.6436  0.0691 -0.0009  0.0291  0.0518
  13.  H 5 (s)      1.1888  0.0000  0.0825  0.0691  1.6404  0.0101  0.1681  0.0596
  14.  C 6 (s)     -0.0598  0.0000  0.0024 -0.0009  0.0101  1.9995  0.5048  0.0003
  15.  C 6 (s)     -0.5296  0.0000  0.0447  0.0291  0.1681  0.5048  1.8694 -0.0133
  16.  C 6 (px)    -0.6393  0.0000  0.0548  0.0518  0.0596  0.0003 -0.0133  1.5909
  17.  C 6 (py)    -0.1786  0.0000 -0.0396  0.0335  0.2088  0.0004 -0.0117 -0.0206
  18.  C 6 (pz)     0.0000  0.4069  0.0000  0.0000  0.0000  0.0000  0.0000  0.0000
  19.  H 7 (s)     -0.2486  0.0000  0.1092  0.0091  0.0710  0.1168  1.0877  0.4193
  20.  H 8 (s)     -0.0825  0.1510  0.0127 -0.0078  0.0686  0.1162  1.0848 -0.7229
  21.  H 9 (s)     -0.0825 -0.1510  0.0127 -0.0078  0.0686  0.1162  1.0848 -0.7229

           AO         17      18      19      20      21
      ------------ ------- ------- ------- ------- -------
   1.  C 1 (s)      0.0021  0.0000  0.0032 -0.0001 -0.0001
   2.  C 1 (s)      0.0310  0.0000  0.0634  0.0293  0.0293
   3.  C 1 (px)    -0.0338  0.0000 -0.0576 -0.0429 -0.0429
   4.  C 1 (py)    -0.0040  0.0000 -0.0764  0.0016  0.0016
   5.  C 1 (pz)     0.0000  0.0502  0.0000 -0.0780  0.0780
   6.  C 2 (s)      0.0592  0.0000  0.0114  0.0113  0.0113
   7.  C 2 (s)      0.5545  0.0000  0.1944  0.1913  0.1913
   8.  C 2 (px)    -0.6311  0.0000 -0.0703 -0.2126 -0.2126
   9.  C 2 (py)    -0.1786  0.0000 -0.2486 -0.0825 -0.0825
  10.  C 2 (pz)     0.0000  0.4069  0.0000  0.1510 -0.1510
  11.  H 3 (s)     -0.0396  0.0000  0.1092  0.0127  0.0127
  12.  H 4 (s)      0.0335  0.0000  0.0091 -0.0078 -0.0078
  13.  H 5 (s)      0.2088  0.0000  0.0710  0.0686  0.0686
  14.  C 6 (s)      0.0004  0.0000  0.1168  0.1162  0.1162
  15.  C 6 (s)     -0.0117  0.0000  1.0877  1.0848  1.0848
  16.  C 6 (px)    -0.0206  0.0000  0.4193 -0.7229 -0.7229
  17.  C 6 (py)     1.5941  0.0000 -1.1816  0.1634  0.1634
  18.  C 6 (pz)     0.0000  1.6088  0.0000  1.0095 -1.0095
  19.  H 7 (s)     -1.1816  0.0000  1.6334  0.3337  0.3337
  20.  H 8 (s)      0.1634  1.0095  0.3337  1.6291  0.3432
  21.  H 9 (s)      0.1634 -1.0095  0.3337  0.3432  1.6291


 MO density matrix:

      MO     1       2       3       4       5       6       7       8       9
     ---- ------  ------  ------  ------  ------  ------  ------  ------  ------
   1.     2.0000  0.0000  0.0000  0.0000  0.0000  0.0000  0.0000  0.0000  0.0000
   2.     0.0000  2.0000  0.0000  0.0000  0.0000  0.0000  0.0000  0.0000  0.0000
   3.     0.0000  0.0000  2.0000  0.0000  0.0000  0.0000  0.0000  0.0000  0.0000
   4.     0.0000  0.0000  0.0000  2.0000  0.0000  0.0000  0.0000  0.0000  0.0000
   5.     0.0000  0.0000  0.0000  0.0000  2.0000  0.0000  0.0000  0.0000  0.0000
   6.     0.0000  0.0000  0.0000  0.0000  0.0000  2.0000  0.0000  0.0000  0.0000
   7.     0.0000  0.0000  0.0000  0.0000  0.0000  0.0000  2.0000  0.0000  0.0000
   8.     0.0000  0.0000  0.0000  0.0000  0.0000  0.0000  0.0000  2.0000  0.0000
   9.     0.0000  0.0000  0.0000  0.0000  0.0000  0.0000  0.0000  0.0000  2.0000
  10.     0.0000  0.0000  0.0000  0.0000  0.0000  0.0000  0.0000  0.0000  0.0000
  11.     0.0000  0.0000  0.0000  0.0000  0.0000  0.0000  0.0000  0.0000  0.0000
  12.     0.0000  0.0000  0.0000  0.0000  0.0000  0.0000  0.0000  0.0000  0.0000
  13.     0.0000  0.0000  0.0000  0.0000  0.0000  0.0000  0.0000  0.0000  0.0000
  14.     0.0000  0.0000  0.0000  0.0000  0.0000  0.0000  0.0000  0.0000  0.0000
  15.     0.0000  0.0000  0.0000  0.0000  0.0000  0.0000  0.0000  0.0000  0.0000
  16.     0.0000  0.0000  0.0000  0.0000  0.0000  0.0000  0.0000  0.0000  0.0000
  17.     0.0000  0.0000  0.0000  0.0000  0.0000  0.0000  0.0000  0.0000  0.0000
  18.     0.0000  0.0000  0.0000  0.0000  0.0000  0.0000  0.0000  0.0000  0.0000
  19.     0.0000  0.0000  0.0000  0.0000  0.0000  0.0000  0.0000  0.0000  0.0000
  20.     0.0000  0.0000  0.0000  0.0000  0.0000  0.0000  0.0000  0.0000  0.0000
  21.     0.0000  0.0000  0.0000  0.0000  0.0000  0.0000  0.0000  0.0000  0.0000

      MO    10      11      12      13      14      15      16      17      18
     ---- ------  ------  ------  ------  ------  ------  ------  ------  ------
   1.     0.0000  0.0000  0.0000  0.0000  0.0000  0.0000  0.0000  0.0000  0.0000
   2.     0.0000  0.0000  0.0000  0.0000  0.0000  0.0000  0.0000  0.0000  0.0000
   3.     0.0000  0.0000  0.0000  0.0000  0.0000  0.0000  0.0000  0.0000  0.0000
   4.     0.0000  0.0000  0.0000  0.0000  0.0000  0.0000  0.0000  0.0000  0.0000
   5.     0.0000  0.0000  0.0000  0.0000  0.0000  0.0000  0.0000  0.0000  0.0000
   6.     0.0000  0.0000  0.0000  0.0000  0.0000  0.0000  0.0000  0.0000  0.0000
   7.     0.0000  0.0000  0.0000  0.0000  0.0000  0.0000  0.0000  0.0000  0.0000
   8.     0.0000  0.0000  0.0000  0.0000  0.0000  0.0000  0.0000  0.0000  0.0000
   9.     0.0000  0.0000  0.0000  0.0000  0.0000  0.0000  0.0000  0.0000  0.0000
  10.     2.0000  0.0000  0.0000  0.0000  0.0000  0.0000  0.0000  0.0000  0.0000
  11.     0.0000  2.0000  0.0000  0.0000  0.0000  0.0000  0.0000  0.0000  0.0000
  12.     0.0000  0.0000  2.0000  0.0000  0.0000  0.0000  0.0000  0.0000  0.0000
  13.     0.0000  0.0000  0.0000  0.0000  0.0000  0.0000  0.0000  0.0000  0.0000
  14.     0.0000  0.0000  0.0000  0.0000  0.0000  0.0000  0.0000  0.0000  0.0000
  15.     0.0000  0.0000  0.0000  0.0000  0.0000  0.0000  0.0000  0.0000  0.0000
  16.     0.0000  0.0000  0.0000  0.0000  0.0000  0.0000  0.0000  0.0000  0.0000
  17.     0.0000  0.0000  0.0000  0.0000  0.0000  0.0000  0.0000  0.0000  0.0000
  18.     0.0000  0.0000  0.0000  0.0000  0.0000  0.0000  0.0000  0.0000  0.0000
  19.     0.0000  0.0000  0.0000  0.0000  0.0000  0.0000  0.0000  0.0000  0.0000
  20.     0.0000  0.0000  0.0000  0.0000  0.0000  0.0000  0.0000  0.0000  0.0000
  21.     0.0000  0.0000  0.0000  0.0000  0.0000  0.0000  0.0000  0.0000  0.0000

      MO    19      20      21
     ---- ------  ------  ------
   1.     0.0000  0.0000  0.0000
   2.     0.0000  0.0000  0.0000
   3.     0.0000  0.0000  0.0000
   4.     0.0000  0.0000  0.0000
   5.     0.0000  0.0000  0.0000
   6.     0.0000  0.0000  0.0000
   7.     0.0000  0.0000  0.0000
   8.     0.0000  0.0000  0.0000
   9.     0.0000  0.0000  0.0000
  10.     0.0000  0.0000  0.0000
  11.     0.0000  0.0000  0.0000
  12.     0.0000  0.0000  0.0000
  13.     0.0000  0.0000  0.0000
  14.     0.0000  0.0000  0.0000
  15.     0.0000  0.0000  0.0000
  16.     0.0000  0.0000  0.0000
  17.     0.0000  0.0000  0.0000
  18.     0.0000  0.0000  0.0000
  19.     0.0000  0.0000  0.0000
  20.     0.0000  0.0000  0.0000
  21.     0.0000  0.0000  0.0000


 NATURAL POPULATIONS:  Natural atomic orbital occupancies

  NAO Atom No lang   Type(AO)    Occupancy      Energy
 -------------------------------------------------------
   1    C  1  s      Cor( 1s)     2.00000     -10.99728
   2    C  1  s      Val( 2s)     1.09237      -0.14458
   3    C  1  px     Val( 2p)     0.98564       0.17008
   4    C  1  py     Val( 2p)     0.98739       0.14863
   5    C  1  pz     Val( 2p)     1.03095      -0.00313

   6    C  2  s      Cor( 1s)     2.00000     -11.01685
   7    C  2  s      Val( 2s)     1.08630      -0.14972
   8    C  2  px     Val( 2p)     0.96592       0.18358
   9    C  2  py     Val( 2p)     0.96572       0.15407
  10    C  2  pz     Val( 2p)     0.97866       0.01270

  11    H  3  s      Val( 1s)     0.96829       0.07966

  12    H  4  s      Val( 1s)     0.96607       0.08079

  13    H  5  s      Val( 1s)     0.97216       0.07254

  14    C  6  s      Cor( 1s)     2.00000     -11.03009
  15    C  6  s      Val( 2s)     1.08122      -0.15909
  16    C  6  px     Val( 2p)     1.01571       0.08152
  17    C  6  py     Val( 2p)     1.01891       0.08042
  18    C  6  pz     Val( 2p)     1.03682       0.07132

  19    H  7  s      Val( 1s)     0.95044       0.08363

  20    H  8  s      Val( 1s)     0.94871       0.08057

  21    H  9  s      Val( 1s)     0.94871       0.08057


 Summary of Natural Population Analysis:

                                     Natural Population
             Natural    ---------------------------------------------
  Atom No    Charge        Core      Valence    Rydberg      Total
 --------------------------------------------------------------------
    C  1   -0.09635      2.00000     4.09635    0.00000     6.09635
    C  2    0.00340      2.00000     3.99660    0.00000     5.99660
    H  3    0.03171      0.00000     0.96829    0.00000     0.96829
    H  4    0.03393      0.00000     0.96607    0.00000     0.96607
    H  5    0.02784      0.00000     0.97216    0.00000     0.97216
    C  6   -0.15266      2.00000     4.15266    0.00000     6.15266
    H  7    0.04956      0.00000     0.95044    0.00000     0.95044
    H  8    0.05129      0.00000     0.94871    0.00000     0.94871
    H  9    0.05129      0.00000     0.94871    0.00000     0.94871
 ====================================================================
 * Total *  0.00000      6.00000    18.00000    0.00000    24.00000

                                 Natural Population
 ---------------------------------------------------------
   Core                       6.00000 ( 99.9999% of    6)
   Valence                   18.00000 (100.0000% of   18)
   Natural Minimal Basis     24.00000 (100.0000% of   24)
   Natural Rydberg Basis      0.00000 (  0.0000% of   24)
 ---------------------------------------------------------

    Atom No         Natural Electron Configuration
 ----------------------------------------------------------------------------
      C  1      [core]2s( 1.09)2p( 3.00)
      C  2      [core]2s( 1.09)2p( 2.91)
      H  3            1s( 0.97)
      H  4            1s( 0.97)
      H  5            1s( 0.97)
      C  6      [core]2s( 1.08)2p( 3.07)
      H  7            1s( 0.95)
      H  8            1s( 0.95)
      H  9            1s( 0.95)


 PNAOs in the AO basis:

           AO          1       2       3       4       5       6       7       8
      ------------ ------- ------- ------- ------- ------- ------- ------- -------
   1.  C 1 (s)      0.9850 -0.3090  0.0000  0.0000  0.0000  0.0000  0.0000  0.0000
   2.  C 1 (s)      0.0547  1.0309  0.0000  0.0000  0.0000  0.0000  0.0000  0.0000
   3.  C 1 (px)     0.0000  0.0000  1.0000  0.0000  0.0000  0.0000  0.0000  0.0000
   4.  C 1 (py)     0.0000  0.0000  0.0000  1.0000  0.0000  0.0000  0.0000  0.0000
   5.  C 1 (pz)     0.0000  0.0000  0.0000  0.0000  1.0000  0.0000  0.0000  0.0000
   6.  C 2 (s)      0.0000  0.0000  0.0000  0.0000  0.0000  0.9854 -0.3077  0.0000
   7.  C 2 (s)      0.0000  0.0000  0.0000  0.0000  0.0000  0.0533  1.0310  0.0000
   8.  C 2 (px)     0.0000  0.0000  0.0000  0.0000  0.0000  0.0000  0.0000  1.0000
   9.  C 2 (py)     0.0000  0.0000  0.0000  0.0000  0.0000  0.0000  0.0000  0.0000
  10.  C 2 (pz)     0.0000  0.0000  0.0000  0.0000  0.0000  0.0000  0.0000  0.0000
  11.  H 3 (s)      0.0000  0.0000  0.0000  0.0000  0.0000  0.0000  0.0000  0.0000
  12.  H 4 (s)      0.0000  0.0000  0.0000  0.0000  0.0000  0.0000  0.0000  0.0000
  13.  H 5 (s)      0.0000  0.0000  0.0000  0.0000  0.0000  0.0000  0.0000  0.0000
  14.  C 6 (s)      0.0000  0.0000  0.0000  0.0000  0.0000  0.0000  0.0000  0.0000
  15.  C 6 (s)      0.0000  0.0000  0.0000  0.0000  0.0000  0.0000  0.0000  0.0000
  16.  C 6 (px)     0.0000  0.0000  0.0000  0.0000  0.0000  0.0000  0.0000  0.0000
  17.  C 6 (py)     0.0000  0.0000  0.0000  0.0000  0.0000  0.0000  0.0000  0.0000
  18.  C 6 (pz)     0.0000  0.0000  0.0000  0.0000  0.0000  0.0000  0.0000  0.0000
  19.  H 7 (s)      0.0000  0.0000  0.0000  0.0000  0.0000  0.0000  0.0000  0.0000
  20.  H 8 (s)      0.0000  0.0000  0.0000  0.0000  0.0000  0.0000  0.0000  0.0000
  21.  H 9 (s)      0.0000  0.0000  0.0000  0.0000  0.0000  0.0000  0.0000  0.0000

           AO          9      10      11      12      13      14      15      16
      ------------ ------- ------- ------- ------- ------- ------- ------- -------
   1.  C 1 (s)      0.0000  0.0000  0.0000  0.0000  0.0000  0.0000  0.0000  0.0000
   2.  C 1 (s)      0.0000  0.0000  0.0000  0.0000  0.0000  0.0000  0.0000  0.0000
   3.  C 1 (px)     0.0000  0.0000  0.0000  0.0000  0.0000  0.0000  0.0000  0.0000
   4.  C 1 (py)     0.0000  0.0000  0.0000  0.0000  0.0000  0.0000  0.0000  0.0000
   5.  C 1 (pz)     0.0000  0.0000  0.0000  0.0000  0.0000  0.0000  0.0000  0.0000
   6.  C 2 (s)      0.0000  0.0000  0.0000  0.0000  0.0000  0.0000  0.0000  0.0000
   7.  C 2 (s)      0.0000  0.0000  0.0000  0.0000  0.0000  0.0000  0.0000  0.0000
   8.  C 2 (px)     0.0000  0.0000  0.0000  0.0000  0.0000  0.0000  0.0000  0.0000
   9.  C 2 (py)     1.0000  0.0000  0.0000  0.0000  0.0000  0.0000  0.0000  0.0000
  10.  C 2 (pz)     0.0000  1.0000  0.0000  0.0000  0.0000  0.0000  0.0000  0.0000
  11.  H 3 (s)      0.0000  0.0000  1.0000  0.0000  0.0000  0.0000  0.0000  0.0000
  12.  H 4 (s)      0.0000  0.0000  0.0000  1.0000  0.0000  0.0000  0.0000  0.0000
  13.  H 5 (s)      0.0000  0.0000  0.0000  0.0000  1.0000  0.0000  0.0000  0.0000
  14.  C 6 (s)      0.0000  0.0000  0.0000  0.0000  0.0000  0.9831 -0.3149  0.0000
  15.  C 6 (s)      0.0000  0.0000  0.0000  0.0000  0.0000  0.0609  1.0305  0.0000
  16.  C 6 (px)     0.0000  0.0000  0.0000  0.0000  0.0000  0.0000  0.0000  1.0000
  17.  C 6 (py)     0.0000  0.0000  0.0000  0.0000  0.0000  0.0000  0.0000  0.0000
  18.  C 6 (pz)     0.0000  0.0000  0.0000  0.0000  0.0000  0.0000  0.0000  0.0000
  19.  H 7 (s)      0.0000  0.0000  0.0000  0.0000  0.0000  0.0000  0.0000  0.0000
  20.  H 8 (s)      0.0000  0.0000  0.0000  0.0000  0.0000  0.0000  0.0000  0.0000
  21.  H 9 (s)      0.0000  0.0000  0.0000  0.0000  0.0000  0.0000  0.0000  0.0000

           AO         17      18      19      20      21
      ------------ ------- ------- ------- ------- -------
   1.  C 1 (s)      0.0000  0.0000  0.0000  0.0000  0.0000
   2.  C 1 (s)      0.0000  0.0000  0.0000  0.0000  0.0000
   3.  C 1 (px)     0.0000  0.0000  0.0000  0.0000  0.0000
   4.  C 1 (py)     0.0000  0.0000  0.0000  0.0000  0.0000
   5.  C 1 (pz)     0.0000  0.0000  0.0000  0.0000  0.0000
   6.  C 2 (s)      0.0000  0.0000  0.0000  0.0000  0.0000
   7.  C 2 (s)      0.0000  0.0000  0.0000  0.0000  0.0000
   8.  C 2 (px)     0.0000  0.0000  0.0000  0.0000  0.0000
   9.  C 2 (py)     0.0000  0.0000  0.0000  0.0000  0.0000
  10.  C 2 (pz)     0.0000  0.0000  0.0000  0.0000  0.0000
  11.  H 3 (s)      0.0000  0.0000  0.0000  0.0000  0.0000
  12.  H 4 (s)      0.0000  0.0000  0.0000  0.0000  0.0000
  13.  H 5 (s)      0.0000  0.0000  0.0000  0.0000  0.0000
  14.  C 6 (s)      0.0000  0.0000  0.0000  0.0000  0.0000
  15.  C 6 (s)      0.0000  0.0000  0.0000  0.0000  0.0000
  16.  C 6 (px)     0.0000  0.0000  0.0000  0.0000  0.0000
  17.  C 6 (py)     1.0000  0.0000  0.0000  0.0000  0.0000
  18.  C 6 (pz)     0.0000  1.0000  0.0000  0.0000  0.0000
  19.  H 7 (s)      0.0000  0.0000  1.0000  0.0000  0.0000
  20.  H 8 (s)      0.0000  0.0000  0.0000  1.0000  0.0000
  21.  H 9 (s)      0.0000  0.0000  0.0000  0.0000  1.0000


 PNAO overlap matrix:

           NAO         1       2       3       4       5       6       7       8
      ------------ ------- ------- ------- ------- ------- ------- ------- -------
   1.  C 1( 1s )    1.0000  0.0000  0.0000  0.0000  0.0000  0.0058  0.0659  0.0905
   2.  C 1( 2s )    0.0000  1.0000  0.0000  0.0000  0.0000  0.0654  0.3943  0.3872
   3.  C 1( 2px)    0.0000  0.0000  1.0000  0.0000  0.0000 -0.0900 -0.3873 -0.2902
   4.  C 1( 2py)    0.0000  0.0000  0.0000  1.0000  0.0000  0.0241  0.1036  0.1415
   5.  C 1( 2pz)    0.0000  0.0000  0.0000  0.0000  1.0000  0.0000  0.0000  0.0000
   6.  C 2( 1s )    0.0058  0.0654 -0.0900  0.0241  0.0000  1.0000  0.0000  0.0000
   7.  C 2( 2s )    0.0659  0.3943 -0.3873  0.1036  0.0000  0.0000  1.0000  0.0000
   8.  C 2( 2px)    0.0905  0.3872 -0.2902  0.1415  0.0000  0.0000  0.0000  1.0000
   9.  C 2( 2py)   -0.0242 -0.1036  0.1415  0.2008  0.0000  0.0000  0.0000  0.0000
  10.  C 2( 2pz)    0.0000  0.0000  0.0000  0.0000  0.2387  0.0000  0.0000  0.0000
  11.  H 3( 1s )    0.0888  0.4887  0.1337 -0.4491  0.0000  0.0114  0.1056  0.1007
  12.  H 4( 1s )    0.0891  0.4896  0.3415  0.3217  0.0000  0.0114  0.1055  0.1307
  13.  H 5( 1s )    0.0122  0.1103 -0.1027  0.0927  0.0000  0.0877  0.4872 -0.1130
  14.  C 6( 1s )    0.0003  0.0044 -0.0074 -0.0019  0.0000  0.0044  0.0494 -0.0532
  15.  C 6( 2s )    0.0041  0.0523 -0.0742 -0.0191  0.0000  0.0470  0.3186 -0.2643
  16.  C 6( 2px)    0.0069  0.0742 -0.0961 -0.0300  0.0000  0.0513  0.2647 -0.1104
  17.  C 6( 2py)    0.0018  0.0191 -0.0300  0.0128  0.0000  0.0437  0.2256 -0.2458
  18.  C 6( 2pz)    0.0000  0.0000  0.0000  0.0000  0.0205  0.0000  0.0000  0.0000
  19.  H 7( 1s )    0.0034  0.0377 -0.0415 -0.0333  0.0000  0.0107  0.1001 -0.0460
  20.  H 8( 1s )    0.0007  0.0104 -0.0155 -0.0025  0.0044  0.0107  0.0998 -0.1047
  21.  H 9( 1s )    0.0007  0.0104 -0.0155 -0.0025 -0.0044  0.0107  0.0998 -0.1047

           NAO         9      10      11      12      13      14      15      16
      ------------ ------- ------- ------- ------- ------- ------- ------- -------
   1.  C 1( 1s )   -0.0242  0.0000  0.0888  0.0891  0.0122  0.0003  0.0041  0.0069
   2.  C 1( 2s )   -0.1036  0.0000  0.4887  0.4896  0.1103  0.0044  0.0523  0.0742
   3.  C 1( 2px)    0.1415  0.0000  0.1337  0.3415 -0.1027 -0.0074 -0.0742 -0.0961
   4.  C 1( 2py)    0.2008  0.0000 -0.4491  0.3217  0.0927 -0.0019 -0.0191 -0.0300
   5.  C 1( 2pz)    0.0000  0.2387  0.0000  0.0000  0.0000  0.0000  0.0000  0.0000
   6.  C 2( 1s )    0.0000  0.0000  0.0114  0.0114  0.0877  0.0044  0.0470  0.0513
   7.  C 2( 2s )    0.0000  0.0000  0.1056  0.1055  0.4872  0.0494  0.3186  0.2647
   8.  C 2( 2px)    0.0000  0.0000  0.1007  0.1307 -0.1130 -0.0532 -0.2643 -0.1104
   9.  C 2( 2py)    1.0000  0.0000 -0.0872  0.0250  0.4537 -0.0454 -0.2253 -0.2458
  10.  C 2( 2pz)    0.0000  1.0000  0.0000  0.0000  0.0000  0.0000  0.0000  0.0000
  11.  H 3( 1s )   -0.0872  0.0000  1.0000  0.1522  0.0156  0.0026  0.0291  0.0416
  12.  H 4( 1s )    0.0250  0.0000  0.1522  1.0000  0.0559  0.0004  0.0053  0.0080
  13.  H 5( 1s )    0.4537  0.0000  0.0156  0.0559  1.0000  0.0100  0.0893  0.0457
  14.  C 6( 1s )   -0.0454  0.0000  0.0026  0.0004  0.0100  1.0000  0.0000  0.0000
  15.  C 6( 2s )   -0.2253  0.0000  0.0291  0.0053  0.0893  0.0000  1.0000  0.0000
  16.  C 6( 2px)   -0.2458  0.0000  0.0416  0.0080  0.0457  0.0000  0.0000  1.0000
  17.  C 6( 2py)   -0.0315  0.0000 -0.0063  0.0034  0.1057  0.0000  0.0000  0.0000
  18.  C 6( 2pz)    0.0000  0.1780  0.0000  0.0000  0.0000  0.0000  0.0000  0.0000
  19.  H 7( 1s )   -0.1185  0.0000  0.0537  0.0035  0.0147  0.0906  0.4845  0.1548
  20.  H 8( 1s )   -0.0491  0.0519  0.0056  0.0012  0.0430  0.0902  0.4835 -0.2704
  21.  H 9( 1s )   -0.0491 -0.0519  0.0056  0.0012  0.0430  0.0902  0.4835 -0.2704

           NAO        17      18      19      20      21
      ------------ ------- ------- ------- ------- -------
   1.  C 1( 1s )    0.0018  0.0000  0.0034  0.0007  0.0007
   2.  C 1( 2s )    0.0191  0.0000  0.0377  0.0104  0.0104
   3.  C 1( 2px)   -0.0300  0.0000 -0.0415 -0.0155 -0.0155
   4.  C 1( 2py)    0.0128  0.0000 -0.0333 -0.0025 -0.0025
   5.  C 1( 2pz)    0.0000  0.0205  0.0000  0.0044 -0.0044
   6.  C 2( 1s )    0.0437  0.0000  0.0107  0.0107  0.0107
   7.  C 2( 2s )    0.2256  0.0000  0.1001  0.0998  0.0998
   8.  C 2( 2px)   -0.2458  0.0000 -0.0460 -0.1047 -0.1047
   9.  C 2( 2py)   -0.0315  0.0000 -0.1185 -0.0491 -0.0491
  10.  C 2( 2pz)    0.0000  0.1780  0.0000  0.0519 -0.0519
  11.  H 3( 1s )   -0.0063  0.0000  0.0537  0.0056  0.0056
  12.  H 4( 1s )    0.0034  0.0000  0.0035  0.0012  0.0012
  13.  H 5( 1s )    0.1057  0.0000  0.0147  0.0430  0.0430
  14.  C 6( 1s )    0.0000  0.0000  0.0906  0.0902  0.0902
  15.  C 6( 2s )    0.0000  0.0000  0.4845  0.4835  0.4835
  16.  C 6( 2px)    0.0000  0.0000  0.1548 -0.2704 -0.2704
  17.  C 6( 2py)    1.0000  0.0000 -0.4398  0.0593  0.0593
  18.  C 6( 2pz)    0.0000  1.0000  0.0000  0.3744 -0.3744
  19.  H 7( 1s )   -0.4398  0.0000  1.0000  0.1712  0.1712
  20.  H 8( 1s )    0.0593  0.3744  0.1712  1.0000  0.1743
  21.  H 9( 1s )    0.0593 -0.3744  0.1712  0.1743  1.0000


 PNAO density matrix:

           NAO         1       2       3       4       5       6       7       8
      ------------ ------- ------- ------- ------- ------- ------- ------- -------
   1.  C 1( 1s )    2.0000  0.0000 -0.0002  0.0001  0.0000  0.0116  0.1315  0.1812
   2.  C 1( 2s )    0.0000  1.8422 -0.0150  0.0039  0.0000  0.1304  0.8466  0.8756
   3.  C 1( 2px)   -0.0002 -0.0150  1.6679 -0.0092  0.0000 -0.1800 -0.8791 -0.7357
   4.  C 1( 2py)    0.0001  0.0039 -0.0092  1.6295  0.0000  0.0482  0.2362  0.3238
   5.  C 1( 2pz)    0.0000  0.0000  0.0000  0.0000  1.2639  0.0000  0.0000  0.0000
   6.  C 2( 1s )    0.0116  0.1304 -0.1800  0.0482  0.0000  2.0000  0.0000  0.0005
   7.  C 2( 2s )    0.1315  0.8466 -0.8791  0.2362  0.0000  0.0000  1.8346  0.0305
   8.  C 2( 2px)    0.1812  0.8756 -0.7357  0.3238  0.0000  0.0005  0.0305  1.6635
   9.  C 2( 2py)   -0.0484 -0.2391  0.3308  0.3912  0.0000  0.0004  0.0104 -0.0284
  10.  C 2( 2pz)    0.0000  0.0000  0.0000  0.0000  1.2159  0.0000  0.0000  0.0000
  11.  H 3( 1s )    0.1778  1.1218  0.3538 -1.1744  0.0000  0.0233  0.2049  0.1745
  12.  H 4( 1s )    0.1783  1.1245  0.8939  0.8391  0.0000  0.0231  0.2006  0.2579
  13.  H 5( 1s )    0.0247  0.2135 -0.1834  0.2162  0.0000  0.1751  1.1144 -0.3026
  14.  C 6( 1s )    0.0006  0.0090 -0.0150 -0.0040  0.0000  0.0087  0.0988 -0.1069
  15.  C 6( 2s )    0.0084  0.1013 -0.1473 -0.0468  0.0000  0.0941  0.6933 -0.6135
  16.  C 6( 2px)    0.0142  0.1453 -0.1980 -0.0848  0.0000  0.1028  0.6417 -0.3818
  17.  C 6( 2py)    0.0038  0.0313 -0.0338 -0.0040  0.0000  0.0879  0.5535 -0.6311
  18.  C 6( 2pz)    0.0000  0.0000  0.0000  0.0000  0.0502  0.0000  0.0000  0.0000
  19.  H 7( 1s )    0.0066  0.0644 -0.0576 -0.0764  0.0000  0.0216  0.1969 -0.0703
  20.  H 8( 1s )    0.0015  0.0302 -0.0429  0.0016 -0.0780  0.0214  0.1938 -0.2126
  21.  H 9( 1s )    0.0015  0.0302 -0.0429  0.0016  0.0780  0.0214  0.1938 -0.2126

           NAO         9      10      11      12      13      14      15      16
      ------------ ------- ------- ------- ------- ------- ------- ------- -------
   1.  C 1( 1s )   -0.0484  0.0000  0.1778  0.1783  0.0247  0.0006  0.0084  0.0142
   2.  C 1( 2s )   -0.2391  0.0000  1.1218  1.1245  0.2135  0.0090  0.1013  0.1453
   3.  C 1( 2px)    0.3308  0.0000  0.3538  0.8939 -0.1834 -0.0150 -0.1473 -0.1980
   4.  C 1( 2py)    0.3912  0.0000 -1.1744  0.8391  0.2162 -0.0040 -0.0468 -0.0848
   5.  C 1( 2pz)    0.0000  1.2159  0.0000  0.0000  0.0000  0.0000  0.0000  0.0000
   6.  C 2( 1s )    0.0004  0.0000  0.0233  0.0231  0.1751  0.0087  0.0941  0.1028
   7.  C 2( 2s )    0.0104  0.0000  0.2049  0.2006  1.1144  0.0988  0.6933  0.6417
   8.  C 2( 2px)   -0.0284  0.0000  0.1745  0.2579 -0.3026 -0.1069 -0.6135 -0.3818
   9.  C 2( 2py)    1.6154  0.0000 -0.2012  0.0913  1.1888 -0.0910 -0.5270 -0.6393
  10.  C 2( 2pz)    0.0000  1.2497  0.0000  0.0000  0.0000  0.0000  0.0000  0.0000
  11.  H 3( 1s )   -0.2012  0.0000  1.6447  0.2753  0.0825  0.0051  0.0453  0.0548
  12.  H 4( 1s )    0.0913  0.0000  0.2753  1.6436  0.0691  0.0009  0.0303  0.0518
  13.  H 5( 1s )    1.1888  0.0000  0.0825  0.0691  1.6404  0.0202  0.1700  0.0596
  14.  C 6( 1s )   -0.0910  0.0000  0.0051  0.0009  0.0202  2.0000  0.0000 -0.0005
  15.  C 6( 2s )   -0.5270  0.0000  0.0453  0.0303  0.1700  0.0000  1.8560 -0.0138
  16.  C 6( 2px)   -0.6393  0.0000  0.0548  0.0518  0.0596 -0.0005 -0.0138  1.5909
  17.  C 6( 2py)   -0.1786  0.0000 -0.0396  0.0335  0.2088 -0.0003 -0.0122 -0.0206
  18.  C 6( 2pz)    0.0000  0.4069  0.0000  0.0000  0.0000  0.0000  0.0000  0.0000
  19.  H 7( 1s )   -0.2486  0.0000  0.1092  0.0091  0.0710  0.1811  1.0841  0.4193
  20.  H 8( 1s )   -0.0825  0.1510  0.0127 -0.0078  0.0686  0.1803  1.0813 -0.7229
  21.  H 9( 1s )   -0.0825 -0.1510  0.0127 -0.0078  0.0686  0.1803  1.0813 -0.7229

           NAO        17      18      19      20      21
      ------------ ------- ------- ------- ------- -------
   1.  C 1( 1s )    0.0038  0.0000  0.0066  0.0015  0.0015
   2.  C 1( 2s )    0.0313  0.0000  0.0644  0.0302  0.0302
   3.  C 1( 2px)   -0.0338  0.0000 -0.0576 -0.0429 -0.0429
   4.  C 1( 2py)   -0.0040  0.0000 -0.0764  0.0016  0.0016
   5.  C 1( 2pz)    0.0000  0.0502  0.0000 -0.0780  0.0780
   6.  C 2( 1s )    0.0879  0.0000  0.0216  0.0214  0.0214
   7.  C 2( 2s )    0.5535  0.0000  0.1969  0.1938  0.1938
   8.  C 2( 2px)   -0.6311  0.0000 -0.0703 -0.2126 -0.2126
   9.  C 2( 2py)   -0.1786  0.0000 -0.2486 -0.0825 -0.0825
  10.  C 2( 2pz)    0.0000  0.4069  0.0000  0.1510 -0.1510
  11.  H 3( 1s )   -0.0396  0.0000  0.1092  0.0127  0.0127
  12.  H 4( 1s )    0.0335  0.0000  0.0091 -0.0078 -0.0078
  13.  H 5( 1s )    0.2088  0.0000  0.0710  0.0686  0.0686
  14.  C 6( 1s )   -0.0003  0.0000  0.1811  0.1803  0.1803
  15.  C 6( 2s )   -0.0122  0.0000  1.0841  1.0813  1.0813
  16.  C 6( 2px)   -0.0206  0.0000  0.4193 -0.7229 -0.7229
  17.  C 6( 2py)    1.5941  0.0000 -1.1816  0.1634  0.1634
  18.  C 6( 2pz)    0.0000  1.6088  0.0000  1.0095 -1.0095
  19.  H 7( 1s )   -1.1816  0.0000  1.6334  0.3337  0.3337
  20.  H 8( 1s )    0.1634  1.0095  0.3337  1.6291  0.3432
  21.  H 9( 1s )    0.1634 -1.0095  0.3337  0.3432  1.6291


 NAOs in the AO basis:

           AO          1       2       3       4       5       6       7       8
      ------------ ------- ------- ------- ------- ------- ------- ------- -------
   1.  C 1 (s)      0.9850 -0.3479  0.0048 -0.0013  0.0000 -0.0029  0.0090 -0.0087
   2.  C 1 (s)      0.0547  1.5270 -0.0846  0.0233  0.0000 -0.0002 -0.3505 -0.3859
   3.  C 1 (px)     0.0000 -0.0669  1.2864 -0.0153  0.0000  0.0000  0.3033  0.2885
   4.  C 1 (py)     0.0000  0.0184 -0.0153  1.2318  0.0000  0.0000 -0.0804 -0.1207
   5.  C 1 (pz)     0.0000  0.0000  0.0000  0.0000  1.0224  0.0000  0.0000  0.0000
   6.  C 2 (s)     -0.0029  0.0092  0.0088 -0.0025  0.0000  0.9855 -0.3478 -0.0037
   7.  C 2 (s)     -0.0002 -0.3489  0.3839 -0.1018  0.0000  0.0533  1.5238  0.0880
   8.  C 2 (px)     0.0000 -0.3013  0.2865 -0.1198  0.0000  0.0000  0.0693  1.3018
   9.  C 2 (py)     0.0000  0.0823 -0.1183 -0.1200  0.0000  0.0000 -0.0137 -0.0157
  10.  C 2 (pz)     0.0000  0.0000  0.0000  0.0000 -0.1244  0.0000  0.0000  0.0000
  11.  H 3 (s)      0.0000 -0.3241 -0.1046  0.3580  0.0000  0.0000 -0.0118 -0.0204
  12.  H 4 (s)      0.0000 -0.3249 -0.2709 -0.2582  0.0000  0.0000 -0.0101 -0.0107
  13.  H 5 (s)      0.0000 -0.0090  0.0204  0.0134  0.0000  0.0000 -0.3256  0.0903
  14.  C 6 (s)     -0.0001 -0.0001 -0.0002  0.0005  0.0000 -0.0021  0.0100 -0.0024
  15.  C 6 (s)      0.0000 -0.0035  0.0003 -0.0225  0.0000 -0.0001 -0.2342  0.2217
  16.  C 6 (px)     0.0000  0.0057  0.0009 -0.0048  0.0000  0.0000 -0.1781  0.0989
  17.  C 6 (py)     0.0000 -0.0156  0.0138 -0.0170  0.0000  0.0000 -0.1432  0.1836
  18.  C 6 (pz)     0.0000  0.0000  0.0000  0.0000  0.0059  0.0000  0.0000  0.0000
  19.  H 7 (s)      0.0000 -0.0036  0.0154  0.0039  0.0000  0.0000 -0.0030  0.0126
  20.  H 8 (s)      0.0000  0.0004  0.0003  0.0012  0.0005  0.0000 -0.0081  0.0035
  21.  H 9 (s)      0.0000  0.0004  0.0003  0.0012 -0.0005  0.0000 -0.0081  0.0035

           AO          9      10      11      12      13      14      15      16
      ------------ ------- ------- ------- ------- ------- ------- ------- -------
   1.  C 1 (s)      0.0024  0.0000  0.0046  0.0046 -0.0013 -0.0001 -0.0005  0.0004
   2.  C 1 (s)      0.1054  0.0000 -0.3801 -0.3814 -0.0107  0.0000 -0.0035  0.0069
   3.  C 1 (px)    -0.1191  0.0000 -0.0967 -0.2506  0.0189  0.0000  0.0002  0.0009
   4.  C 1 (py)    -0.1209  0.0000  0.3310 -0.2389  0.0124  0.0000 -0.0176 -0.0046
   5.  C 1 (pz)     0.0000 -0.1253  0.0000  0.0000  0.0000  0.0000  0.0000  0.0000
   6.  C 2 (s)      0.0019  0.0000 -0.0014 -0.0015  0.0054 -0.0021  0.0096  0.0014
   7.  C 2 (s)     -0.0174  0.0000 -0.0139 -0.0119 -0.3812 -0.0001 -0.2311 -0.2142
   8.  C 2 (px)    -0.0157  0.0000 -0.0188 -0.0098  0.0831  0.0000  0.1718  0.0934
   9.  C 2 (py)     1.2372  0.0000 -0.0140  0.0231 -0.3313  0.0000  0.1488  0.1681
  10.  C 2 (pz)     0.0000  1.0354  0.0000  0.0000  0.0000  0.0000  0.0000  0.0000
  11.  H 3 (s)     -0.0152  0.0000  1.2795 -0.0234 -0.0004  0.0000 -0.0014 -0.0093
  12.  H 4 (s)      0.0252  0.0000 -0.0234  1.2804 -0.0197  0.0000  0.0013 -0.0014
  13.  H 5 (s)     -0.3600  0.0000 -0.0004 -0.0196  1.2762  0.0000 -0.0051 -0.0141
  14.  C 6 (s)     -0.0018  0.0000  0.0002  0.0000 -0.0009  0.9831 -0.3612 -0.0007
  15.  C 6 (s)      0.1920  0.0000 -0.0017  0.0015 -0.0061  0.0609  1.5529 -0.0062
  16.  C 6 (px)     0.1780  0.0000 -0.0090 -0.0014 -0.0138  0.0000 -0.0051  1.1860
  17.  C 6 (py)     0.0465  0.0000 -0.0065  0.0012 -0.0018  0.0000 -0.0030  0.0005
  18.  C 6 (pz)     0.0000 -0.0975  0.0000  0.0000  0.0000  0.0000  0.0000  0.0000
  19.  H 7 (s)      0.0002  0.0000 -0.0260 -0.0025 -0.0029  0.0000 -0.3190 -0.1194
  20.  H 8 (s)      0.0080  0.0009 -0.0006 -0.0003 -0.0091  0.0000 -0.3169  0.2021
  21.  H 9 (s)      0.0080 -0.0009 -0.0006 -0.0003 -0.0091  0.0000 -0.3169  0.2021

           AO         17      18      19      20      21
      ------------ ------- ------- ------- ------- -------
   1.  C 1 (s)     -0.0005  0.0000  0.0005 -0.0001 -0.0001
   2.  C 1 (s)     -0.0189  0.0000 -0.0042  0.0004  0.0004
   3.  C 1 (px)     0.0131  0.0000  0.0144  0.0003  0.0003
   4.  C 1 (py)    -0.0162  0.0000  0.0037  0.0012  0.0012
   5.  C 1 (pz)     0.0000  0.0056  0.0000  0.0004 -0.0004
   6.  C 2 (s)      0.0001  0.0000 -0.0008 -0.0003 -0.0003
   7.  C 2 (s)     -0.1722  0.0000 -0.0035 -0.0096 -0.0096
   8.  C 2 (px)     0.1735  0.0000  0.0116  0.0032  0.0032
   9.  C 2 (py)     0.0440  0.0000  0.0002  0.0074  0.0074
  10.  C 2 (pz)     0.0000 -0.0921  0.0000  0.0009 -0.0009
  11.  H 3 (s)     -0.0067  0.0000 -0.0262 -0.0006 -0.0006
  12.  H 4 (s)      0.0012  0.0000 -0.0025 -0.0003 -0.0003
  13.  H 5 (s)     -0.0019  0.0000 -0.0030 -0.0092 -0.0092
  14.  C 6 (s)     -0.0008  0.0000  0.0049  0.0051  0.0051
  15.  C 6 (s)     -0.0037  0.0000 -0.3803 -0.3787 -0.3787
  16.  C 6 (px)     0.0005  0.0000 -0.1168  0.1982  0.1982
  17.  C 6 (py)     1.1854  0.0000  0.3244 -0.0458 -0.0458
  18.  C 6 (pz)     0.0000  1.1799  0.0000 -0.2771  0.2771
  19.  H 7 (s)      0.3316  0.0000  1.2774 -0.0198 -0.0198
  20.  H 8 (s)     -0.0467 -0.2825 -0.0198  1.2748 -0.0197
  21.  H 9 (s)     -0.0467  0.2825 -0.0198 -0.0197  1.2748


 NAO density matrix:

           NAO         1       2       3       4       5       6       7       8
      ------------ ------- ------- ------- ------- ------- ------- ------- -------
   1.  C 1( 1s )    2.0000  0.0000 -0.0004  0.0001  0.0000  0.0000 -0.0008  0.0003
   2.  C 1( 2s )    0.0000  1.0924  0.0252 -0.0073  0.0000 -0.0009  0.3526  0.4737
   3.  C 1( 2px)   -0.0004  0.0252  0.9856  0.0020  0.0000  0.0000 -0.4842 -0.5557
   4.  C 1( 2py)    0.0001 -0.0073  0.0020  0.9874  0.0000  0.0001  0.1261  0.1934
   5.  C 1( 2pz)    0.0000  0.0000  0.0000  0.0000  1.0310  0.0000  0.0000  0.0000
   6.  C 2( 1s )    0.0000 -0.0009  0.0000  0.0001  0.0000  2.0000  0.0001  0.0009
   7.  C 2( 2s )   -0.0008  0.3526 -0.4842  0.1261  0.0000  0.0001  1.0863 -0.0129
   8.  C 2( 2px)    0.0003  0.4737 -0.5557  0.1934  0.0000  0.0009 -0.0129  0.9659
   9.  C 2( 2py)    0.0000 -0.1417  0.2013  0.1007  0.0000  0.0005  0.0171 -0.0194
  10.  C 2( 2pz)    0.0000  0.0000  0.0000  0.0000  0.9844  0.0000  0.0000  0.0000
  11.  H 3( 1s )    0.0002  0.5544  0.2364 -0.7866  0.0000  0.0007 -0.0141 -0.0281
  12.  H 4( 1s )    0.0001  0.5579  0.5962  0.5628  0.0000  0.0005 -0.0191 -0.0182
  13.  H 5( 1s )    0.0006 -0.0206  0.0227  0.0000  0.0000 -0.0003  0.5489 -0.2097
  14.  C 6( 1s )    0.0000  0.0003 -0.0004 -0.0002  0.0000  0.0000  0.0001 -0.0007
  15.  C 6( 2s )    0.0004 -0.0133  0.0150  0.0153  0.0000  0.0002  0.2689 -0.3181
  16.  C 6( 2px)    0.0005 -0.0266  0.0129 -0.0125  0.0000  0.0004  0.3731 -0.3553
  17.  C 6( 2py)    0.0003  0.0067  0.0255 -0.0147  0.0000  0.0008  0.3220 -0.3934
  18.  C 6( 2pz)    0.0000  0.0000  0.0000  0.0000 -0.0289  0.0000  0.0000  0.0000
  19.  H 7( 1s )   -0.0002 -0.0306  0.0327 -0.0120  0.0000  0.0004 -0.0095  0.0140
  20.  H 8( 1s )    0.0000  0.0242 -0.0263  0.0070 -0.1207  0.0000 -0.0108  0.0083
  21.  H 9( 1s )    0.0000  0.0242 -0.0263  0.0070  0.1207  0.0000 -0.0108  0.0083

           NAO         9      10      11      12      13      14      15      16
      ------------ ------- ------- ------- ------- ------- ------- ------- -------
   1.  C 1( 1s )    0.0000  0.0000  0.0002  0.0001  0.0006  0.0000  0.0004  0.0005
   2.  C 1( 2s )   -0.1417  0.0000  0.5544  0.5579 -0.0206  0.0003 -0.0133 -0.0266
   3.  C 1( 2px)    0.2013  0.0000  0.2364  0.5962  0.0227 -0.0004  0.0150  0.0129
   4.  C 1( 2py)    0.1007  0.0000 -0.7866  0.5628  0.0000 -0.0002  0.0153 -0.0125
   5.  C 1( 2pz)    0.0000  0.9844  0.0000  0.0000  0.0000  0.0000  0.0000  0.0000
   6.  C 2( 1s )    0.0005  0.0000  0.0007  0.0005 -0.0003  0.0000  0.0002  0.0004
   7.  C 2( 2s )    0.0171  0.0000 -0.0141 -0.0191  0.5489  0.0001  0.2689  0.3731
   8.  C 2( 2px)   -0.0194  0.0000 -0.0281 -0.0182 -0.2097 -0.0007 -0.3181 -0.3553
   9.  C 2( 2py)    0.9657  0.0000  0.0071  0.0112  0.7938 -0.0005 -0.2857 -0.4015
  10.  C 2( 2pz)    0.0000  0.9787  0.0000  0.0000  0.0000  0.0000  0.0000  0.0000
  11.  H 3( 1s )    0.0071  0.0000  0.9683 -0.0444  0.0964 -0.0003 -0.0341 -0.0426
  12.  H 4( 1s )    0.0112  0.0000 -0.0444  0.9661 -0.0571  0.0003  0.0484  0.0684
  13.  H 5( 1s )    0.7938  0.0000  0.0964 -0.0571  0.9722  0.0002 -0.0278 -0.0314
  14.  C 6( 1s )   -0.0005  0.0000 -0.0003  0.0003  0.0002  2.0000  0.0000 -0.0007
  15.  C 6( 2s )   -0.2857  0.0000 -0.0341  0.0484 -0.0278  0.0000  1.0812 -0.0034
  16.  C 6( 2px)   -0.4015  0.0000 -0.0426  0.0684 -0.0314 -0.0007 -0.0034  1.0157
  17.  C 6( 2py)   -0.2325  0.0000 -0.0304  0.0418 -0.0323 -0.0005 -0.0059 -0.0230
  18.  C 6( 2pz)    0.0000  0.1726  0.0000  0.0000  0.0000  0.0000  0.0000  0.0000
  19.  H 7( 1s )    0.0093  0.0000  0.0295  0.0072  0.0815 -0.0002  0.4959  0.2975
  20.  H 8( 1s )    0.0107  0.0185  0.0044 -0.0163 -0.0216 -0.0003  0.4936 -0.4876
  21.  H 9( 1s )    0.0107 -0.0185  0.0044 -0.0163 -0.0216 -0.0003  0.4936 -0.4876

           NAO        17      18      19      20      21
      ------------ ------- ------- ------- ------- -------
   1.  C 1( 1s )    0.0003  0.0000 -0.0002  0.0000  0.0000
   2.  C 1( 2s )    0.0067  0.0000 -0.0306  0.0242  0.0242
   3.  C 1( 2px)    0.0255  0.0000  0.0327 -0.0263 -0.0263
   4.  C 1( 2py)   -0.0147  0.0000 -0.0120  0.0070  0.0070
   5.  C 1( 2pz)    0.0000 -0.0289  0.0000 -0.1207  0.1207
   6.  C 2( 1s )    0.0008  0.0000  0.0004  0.0000  0.0000
   7.  C 2( 2s )    0.3220  0.0000 -0.0095 -0.0108 -0.0108
   8.  C 2( 2px)   -0.3934  0.0000  0.0140  0.0083  0.0083
   9.  C 2( 2py)   -0.2325  0.0000  0.0093  0.0107  0.0107
  10.  C 2( 2pz)    0.0000  0.1726  0.0000  0.0185 -0.0185
  11.  H 3( 1s )   -0.0304  0.0000  0.0295  0.0044  0.0044
  12.  H 4( 1s )    0.0418  0.0000  0.0072 -0.0163 -0.0163
  13.  H 5( 1s )   -0.0323  0.0000  0.0815 -0.0216 -0.0216
  14.  C 6( 1s )   -0.0005  0.0000 -0.0002 -0.0003 -0.0003
  15.  C 6( 2s )   -0.0059  0.0000  0.4959  0.4936  0.4936
  16.  C 6( 2px)   -0.0230  0.0000  0.2975 -0.4876 -0.4876
  17.  C 6( 2py)    1.0189  0.0000 -0.8080  0.1206  0.1206
  18.  C 6( 2pz)    0.0000  1.0368  0.0000  0.6957 -0.6957
  19.  H 7( 1s )   -0.8080  0.0000  0.9504 -0.0076 -0.0076
  20.  H 8( 1s )    0.1206  0.6957 -0.0076  0.9487 -0.0048
  21.  H 9( 1s )    0.1206 -0.6957 -0.0076 -0.0048  0.9487


 NATURAL BOND ORBITAL ANALYSIS:

 Initiate 2-center NBO search using THRESH = 1.900 and PRJTHR = 0.300

 Search of NAO DM block for core orbitals on atom:   1
      Eigenvector ( 1) has occupancy 2.00000
            1.0000 0.0000 0.0000 0.0000 0.0000
        1 eigenvector(s) stashed in permanent list

 Search of NAO DM block for core orbitals on atom:   2
      Eigenvector ( 1) has occupancy 2.00000
            1.0000 0.0000 0.0000 0.0000 0.0000
        1 eigenvector(s) stashed in permanent list

 Search of NAO DM block for core orbitals on atom:   6
      Eigenvector ( 1) has occupancy 2.00000
            1.0000 0.0000 0.0000 0.0000 0.0000
        1 eigenvector(s) stashed in permanent list

 Core orbitals projected from the NAO density matrix
      18.000 electrons remain (>1.900); search continues

 Search of NAO DM block for the following atom(s):   1
      Select eigenvectors with eigenvalue > 1.900
       1.098 1.031 0.988 0.978 0.000

 Search of NAO DM block for the following atom(s):   2
      Select eigenvectors with eigenvalue > 1.900
       1.091 0.981 0.979 0.946 0.000

 Search of NAO DM block for the following atom(s):   6
      Select eigenvectors with eigenvalue > 1.900
       1.082 1.040 1.037 0.994 0.000

 No NHOs identified in the 1-center search of the NAO density matrix
      18.000 electrons remain (>1.900); search continues

 Search of NAO DM block for the following atom(s):   1   2
      Select eigenvectors with eigenvalue > 1.900
       1.998 1.990 1.132 1.102 1.034 0.814 0.020 0.003 0.000 0.000
      Eigenvector ( 1) has occupancy 1.99801
            0.0000-0.4568 0.5217-0.1364 0.0000 0.0000-0.4624-0.5132
            0.1531 0.0000
      Eigenvector ( 2) has occupancy 1.98956
            0.0000 0.0000 0.0000 0.0000 0.7164 0.0000 0.0000 0.0000
            0.0000 0.6977
      2 hybrids on atom 1 stashed in prospective list
      2 hybrids on atom 2 stashed in prospective list

 Search of NAO DM block for the following atom(s):   1   3
      Select eigenvectors with eigenvalue > 1.900
       1.994 1.052 1.031 0.981 0.008 0.000
      Eigenvector ( 1) has occupancy 1.99355
            0.0000 0.4363 0.1727-0.5456 0.0000 0.6943
      1 hybrid on atom 1 stashed in prospective list
      1 hybrid on atom 3 stashed in prospective list

 Search of NAO DM block for the following atom(s):   1   4
      Select eigenvectors with eigenvalue > 1.900
       1.994 1.052 1.031 0.979 0.006 0.000
      Eigenvector ( 1) has occupancy 1.99382
            0.0000 0.4380 0.4220 0.3857 0.0000 0.6938
      1 hybrid on atom 1 stashed in prospective list
      1 hybrid on atom 4 stashed in prospective list

 Search of NAO DM block for the following atom(s):   2   5
      Select eigenvectors with eigenvalue > 1.900
       1.990 1.034 0.979 0.956 0.010 0.000
      Eigenvector ( 1) has occupancy 1.99007
            0.0000 0.4351-0.1583 0.5493 0.0000 0.6956
      1 hybrid on atom 2 stashed in prospective list
      1 hybrid on atom 5 stashed in prospective list

 Search of NAO DM block for the following atom(s):   2   6
      Select eigenvectors with eigenvalue > 1.900
       1.995 1.183 1.128 1.079 1.025 0.900 0.833 0.007 0.000 0.000
      Eigenvector ( 1) has occupancy 1.99451
            0.0000 0.4369-0.4224-0.3563 0.0000 0.0000 0.3831 0.4556
            0.3864 0.0000
      1 hybrid on atom 2 stashed in prospective list
      1 hybrid on atom 6 stashed in prospective list

 Search of NAO DM block for the following atom(s):   6   7
      Select eigenvectors with eigenvalue > 1.900
       1.995 1.068 1.037 0.999 0.005 0.000
      Eigenvector ( 1) has occupancy 1.99499
            0.0000 0.3769 0.2216-0.5779 0.0000 0.6891
      1 hybrid on atom 6 stashed in prospective list
      1 hybrid on atom 7 stashed in prospective list

 Search of NAO DM block for the following atom(s):   6   8
      Select eigenvectors with eigenvalue > 1.900
       1.989 1.071 1.039 0.997 0.006 0.000
      Eigenvector ( 1) has occupancy 1.98889
            0.0000 0.3756-0.3489 0.0917 0.5037 0.6893
      1 hybrid on atom 6 stashed in prospective list
      1 hybrid on atom 8 stashed in prospective list

 Search of NAO DM block for the following atom(s):   6   9
      Select eigenvectors with eigenvalue > 1.900
       1.989 1.071 1.039 0.997 0.006 0.000
      Eigenvector ( 1) has occupancy 1.98889
            0.0000 0.3756-0.3489 0.0917-0.5037 0.6893
      1 hybrid on atom 6 stashed in prospective list
      1 hybrid on atom 9 stashed in prospective list

 Stash prospective hybrids having projection expectation value > 0.300
       1.000 1.000 0.997 0.997 0.997 0.997 0.997 0.997 0.990 0.990 0.986 0.986
       0.985 0.985 0.982 0.982 0.980 0.980
      0 hybrids eliminated in 1 pass
      18 hybrids moved from prospective to permanent list

 NHOs of 2-center eigenvectors projected from the NAO density matrix
       0.000 electrons remain in the fully projected matrix

 Search of NHO DM block for the following atom(s):   1
[...]
      Eigenvector ( 2) has occupancy 1.98956
            0.0000 0.7164 0.0000 0.0000 0.0000 0.0000 0.6977 0.0000
            0.0000 0.0000
      Occupancy is 1.990 after deleting minor hybrid components
            0.0000 0.7164 0.0000 0.0000 0.0000 0.0000 0.6977 0.0000
            0.0000 0.0000
           NBO accepted:    6. Label:BD ( 2)   1   2
      Occupancy is 0.020 for antibonding component
            0.0000-0.6977 0.0000 0.0000 0.0000 0.0000 0.7164 0.0000
            0.0000 0.0000
           NBO accepted:    7. Label:BD*( 2)   1   2
        4 eigenvector(s) stashed in permanent list

 Search of NHO DM block for the following atom(s):   1   3
      Select eigenvectors with eigenvalue > 1.900
       1.992 0.009 0.000 0.000 0.000 0.000
      Eigenvector ( 1) has occupancy 1.99174
            0.0000 0.0000 0.0000 0.0000 0.7184 0.6956
      Occupancy is 1.992 after deleting minor hybrid components
            0.0000 0.0000 0.0000 0.0000 0.7184 0.6956
           NBO accepted:    8. Label:BD ( 1)   1   3
      Occupancy is 0.009 for antibonding component
            0.0000 0.0000 0.0000 0.0000-0.6956 0.7184
           NBO accepted:    9. Label:BD*( 1)   1   3
        2 eigenvector(s) stashed in permanent list

 Search of NHO DM block for the following atom(s):   1   4
      Select eigenvectors with eigenvalue > 1.900
       1.992 0.008 0.000 0.000 0.000 0.000
      Eigenvector ( 1) has occupancy 1.99208
            0.0000 0.0000 0.0000 0.7190 0.0000 0.6950
      Occupancy is 1.992 after deleting minor hybrid components
            0.0000 0.0000 0.0000 0.7190 0.0000 0.6950
           NBO accepted:   10. Label:BD ( 1)   1   4
      Occupancy is 0.008 for antibonding component
            0.0000 0.0000 0.0000-0.6950 0.0000 0.7190
           NBO accepted:   11. Label:BD*( 1)   1   4
        2 eigenvector(s) stashed in permanent list

 Search of NHO DM block for the following atom(s):   2   5
      Select eigenvectors with eigenvalue > 1.900
       1.988 0.012 0.000 0.000 0.000 0.000
      Eigenvector ( 1) has occupancy 1.98777
            0.0000 0.0000 0.0000 0.7169 0.0000 0.6971
      Occupancy is 1.988 after deleting minor hybrid components
            0.0000 0.0000 0.0000 0.7169 0.0000 0.6971
           NBO accepted:   12. Label:BD ( 1)   2   5
      Occupancy is 0.012 for antibonding component
            0.0000 0.0000 0.0000-0.6971 0.0000 0.7169
           NBO accepted:   13. Label:BD*( 1)   2   5
        2 eigenvector(s) stashed in permanent list

 Search of NHO DM block for the following atom(s):   2   6
      Select eigenvectors with eigenvalue > 1.900
       1.991 0.009 0.000 0.000 0.000 0.000 0.000 0.000 0.000 0.000
      Eigenvector ( 1) has occupancy 1.99137
            0.0000 0.0000 0.0000 0.0000 0.7032 0.0000 0.0000 0.0000
            0.0000 0.7110
      Occupancy is 1.991 after deleting minor hybrid components
            0.0000 0.0000 0.0000 0.0000 0.7032 0.0000 0.0000 0.0000
            0.0000 0.7110
           NBO accepted:   14. Label:BD ( 1)   2   6
      Occupancy is 0.009 for antibonding component
            0.0000 0.0000 0.0000 0.0000 0.7110 0.0000 0.0000 0.0000
            0.0000-0.7032
           NBO accepted:   15. Label:BD*( 1)   2   6
        2 eigenvector(s) stashed in permanent list

 Search of NHO DM block for the following atom(s):   6   7
      Select eigenvectors with eigenvalue > 1.900
       1.995 0.005 0.000 0.000 0.000 0.000
      Eigenvector ( 1) has occupancy 1.99467
            0.0000 0.7244 0.0000 0.0000 0.0000 0.6893
      Occupancy is 1.995 after deleting minor hybrid components
            0.0000 0.7244 0.0000 0.0000 0.0000 0.6893
           NBO accepted:   16. Label:BD ( 1)   6   7
      Occupancy is 0.005 for antibonding component
            0.0000-0.6893 0.0000 0.0000 0.0000 0.7244
           NBO accepted:   17. Label:BD*( 1)   6   7
        2 eigenvector(s) stashed in permanent list

 Search of NHO DM block for the following atom(s):   6   8
      Select eigenvectors with eigenvalue > 1.900
       1.989 0.006 0.000 0.000 0.000 0.000
      Eigenvector ( 1) has occupancy 1.98853
            0.0000 0.0000 0.7243 0.0000 0.0000 0.6895
      Occupancy is 1.989 after deleting minor hybrid components
            0.0000 0.0000 0.7243 0.0000 0.0000 0.6895
           NBO accepted:   18. Label:BD ( 1)   6   8
      Occupancy is 0.006 for antibonding component
            0.0000 0.0000-0.6895 0.0000 0.0000 0.7243
           NBO accepted:   19. Label:BD*( 1)   6   8
        2 eigenvector(s) stashed in permanent list

 Search of NHO DM block for the following atom(s):   6   9
      Select eigenvectors with eigenvalue > 1.900
       1.989 0.006 0.000 0.000 0.000 0.000
      Eigenvector ( 1) has occupancy 1.98853
            0.0000 0.0000 0.0000 0.7243 0.0000 0.6895
      Occupancy is 1.989 after deleting minor hybrid components
            0.0000 0.0000 0.0000 0.7243 0.0000 0.6895
           NBO accepted:   20. Label:BD ( 1)   6   9
      Occupancy is 0.006 for antibonding component
            0.0000 0.0000 0.0000-0.6895 0.0000 0.7243
           NBO accepted:   21. Label:BD*( 1)   6   9
        2 eigenvector(s) stashed in permanent list

  2-center NBOs projected from the NHO density matrix
       0.000 electrons remain in the fully projected matrix

                            Occupancies       Lewis Structure    Low   High
         Max    Occ     -------------------  -----------------   occ   occ
  Cycle  Ctr   Thresh    Lewis   non-Lewis     CR  BD  nC  LP    (L)   (NL)
 ============================================================================
    1     2     1.90    23.91990   0.08010      3   9   0   0     0      0
 ----------------------------------------------------------------------------

 Structure accepted: No low occupancy Lewis orbitals

 -------------------------------------------------------
   Core                      6.00000 (100.000% of   6)
   Valence Lewis            17.91991 ( 99.555% of  18)
  ==================      =============================
   Total Lewis              23.91990 ( 99.666% of  24)
  -----------------------------------------------------
   Valence non-Lewis         0.08010 (  0.334% of  24)
   Rydberg non-Lewis         0.00000 (  0.000% of  24)
  ==================      =============================
   Total non-Lewis           0.08010 (  0.334% of  24)
 -------------------------------------------------------


     (Occupancy)   Bond orbital / Coefficients / Hybrids
 ------------------ Lewis ------------------------------------------------------
   1. (2.00000) CR ( 1) C  1            s(100.00%)
                                         1.0000  0.0000  0.0000  0.0000  0.0000
   2. (2.00000) CR ( 1) C  2            s(100.00%)
                                         1.0000  0.0000  0.0000  0.0000  0.0000
   3. (2.00000) CR ( 1) C  6            s(100.00%)
                                         1.0000  0.0000  0.0000  0.0000  0.0000
   4. (1.99566) BD ( 1) C  1- C  2
               ( 49.96%)   0.7068* C  1 s( 37.24%)p 1.69( 62.76%)
                                         0.0000  0.6102 -0.7660  0.2022  0.0000
               ( 50.04%)   0.7074* C  2 s( 37.61%)p 1.66( 62.39%)
                                         0.0000  0.6133  0.7576 -0.2234  0.0000
   5. (1.98956) BD ( 2) C  1- C  2
               ( 51.33%)   0.7164* C  1 s(  0.00%)p 1.00(100.00%)
                                         0.0000  0.0000  0.0000  0.0000  1.0000
               ( 48.67%)   0.6977* C  2 s(  0.00%)p 1.00(100.00%)
                                         0.0000  0.0000  0.0000  0.0000  1.0000
   6. (1.99174) BD ( 1) C  1- H  3
               ( 51.62%)   0.7184* C  1 s( 31.19%)p 2.21( 68.81%)
                                         0.0000  0.5585  0.2349 -0.7956  0.0000
               ( 48.38%)   0.6956* H  3 s(100.00%)
                                         1.0000
   7. (1.99208) BD ( 1) C  1- H  4
               ( 51.70%)   0.7190* C  1 s( 31.57%)p 2.17( 68.43%)
                                         0.0000  0.5619  0.5984  0.5711  0.0000
               ( 48.30%)   0.6950* H  4 s(100.00%)
                                         1.0000
   8. (1.98777) BD ( 1) C  2- H  5
               ( 51.40%)   0.7169* C  2 s( 30.58%)p 2.27( 69.42%)
                                         0.0000  0.5530 -0.2100  0.8063  0.0000
               ( 48.60%)   0.6971* H  5 s(100.00%)
                                         1.0000
   9. (1.99137) BD ( 1) C  2- C  6
               ( 49.45%)   0.7032* C  2 s( 31.80%)p 2.14( 68.20%)
                                         0.0000  0.5639 -0.6180 -0.5477  0.0000
               ( 50.55%)   0.7110* C  6 s( 25.98%)p 2.85( 74.02%)
                                         0.0000  0.5097  0.6553  0.5575  0.0000
  10. (1.99467) BD ( 1) C  6- H  7
               ( 52.48%)   0.7244* C  6 s( 24.93%)p 3.01( 75.07%)
                                         0.0000  0.4993  0.3024 -0.8120  0.0000
               ( 47.52%)   0.6893* H  7 s(100.00%)
                                         1.0000
  11. (1.98853) BD ( 1) C  6- H  8
               ( 52.46%)   0.7243* C  6 s( 24.55%)p 3.07( 75.45%)
                                         0.0000  0.4955 -0.4894  0.1223  0.7071
               ( 47.54%)   0.6895* H  8 s(100.00%)
                                         1.0000
  12. (1.98853) BD ( 1) C  6- H  9
               ( 52.46%)   0.7243* C  6 s( 24.55%)p 3.07( 75.45%)
                                         0.0000  0.4955 -0.4894  0.1223 -0.7071
               ( 47.54%)   0.6895* H  9 s(100.00%)
                                         1.0000
 ---------------- non-Lewis ----------------------------------------------------
  13. (0.00485) BD*( 1) C  1- C  2
               ( 50.04%)   0.7074* C  1 s( 37.24%)p 1.69( 62.76%)
                                         0.0000 -0.6102  0.7660 -0.2022  0.0000
               ( 49.96%)  -0.7068* C  2 s( 37.61%)p 1.66( 62.39%)
                                         0.0000 -0.6133 -0.7576  0.2234  0.0000
  14. (0.02005) BD*( 2) C  1- C  2
               ( 48.67%)   0.6977* C  1 s(  0.00%)p 1.00(100.00%)
                                         0.0000  0.0000  0.0000  0.0000 -1.0000
               ( 51.33%)  -0.7164* C  2 s(  0.00%)p 1.00(100.00%)
                                         0.0000  0.0000  0.0000  0.0000 -1.0000
  15. (0.00892) BD*( 1) C  1- H  3
               ( 48.38%)   0.6956* C  1 s( 31.19%)p 2.21( 68.81%)
                                         0.0000 -0.5585 -0.2349  0.7956  0.0000
               ( 51.62%)  -0.7184* H  3 s(100.00%)
                                        -1.0000
  16. (0.00757) BD*( 1) C  1- H  4
               ( 48.30%)   0.6950* C  1 s( 31.57%)p 2.17( 68.43%)
                                         0.0000 -0.5619 -0.5984 -0.5711  0.0000
               ( 51.70%)  -0.7190* H  4 s(100.00%)
                                        -1.0000
  17. (0.01180) BD*( 1) C  2- H  5
               ( 48.60%)   0.6971* C  2 s( 30.58%)p 2.27( 69.42%)
                                         0.0000 -0.5530  0.2100 -0.8063  0.0000
               ( 51.40%)  -0.7169* H  5 s(100.00%)
                                        -1.0000
  18. (0.00941) BD*( 1) C  2- C  6
               ( 50.55%)   0.7110* C  2 s( 31.80%)p 2.14( 68.20%)
                                         0.0000  0.5639 -0.6180 -0.5477  0.0000
               ( 49.45%)  -0.7032* C  6 s( 25.98%)p 2.85( 74.02%)
                                         0.0000  0.5097  0.6553  0.5575  0.0000
  19. (0.00493) BD*( 1) C  6- H  7
               ( 47.52%)   0.6893* C  6 s( 24.93%)p 3.01( 75.07%)
                                         0.0000 -0.4993 -0.3024  0.8120  0.0000
               ( 52.48%)  -0.7244* H  7 s(100.00%)
                                        -1.0000
  20. (0.00628) BD*( 1) C  6- H  8
               ( 47.54%)   0.6895* C  6 s( 24.55%)p 3.07( 75.45%)
                                         0.0000 -0.4955  0.4894 -0.1223 -0.7071
               ( 52.46%)  -0.7243* H  8 s(100.00%)
                                        -1.0000
  21. (0.00628) BD*( 1) C  6- H  9
               ( 47.54%)   0.6895* C  6 s( 24.55%)p 3.07( 75.45%)
                                         0.0000 -0.4955  0.4894 -0.1223  0.7071
               ( 52.46%)  -0.7243* H  9 s(100.00%)
                                        -1.0000


 NHO DIRECTIONALITY AND BOND BENDING (deviation from line of nuclear centers at
                                      the position of maximum hybrid amplitude)

         [Thresholds for printing:  angular deviation  >  1.0 degree]
                                    p- or d-character  > 25.0%
                                    orbital occupancy  >  0.10e

                        Line of Centers        Hybrid 1             Hybrid 2
                        ---------------  -------------------  ------------------
           NBO            Theta   Phi    Theta   Phi    Dev   Theta   Phi    Dev
 ===============================================================================
   4. BD ( 1) C  1- C  2   90.0  165.0     --     --    --     90.0  343.6   1.4
   5. BD ( 2) C  1- C  2   90.0  165.0     0.2  345.0  90.2     0.2  138.1  90.1
   9. BD ( 1) C  2- C  6   90.0  220.4    90.0  221.8   1.4     --     --    --
  11. BD ( 1) C  6- H  8   36.5  167.6    35.6  166.0   1.3     --     --    --
  12. BD ( 1) C  6- H  9  143.5  167.6   144.4  166.0   1.3     --     --    --


 SECOND ORDER PERTURBATION THEORY ANALYSIS OF FOCK MATRIX IN NBO BASIS

     Threshold for printing:   0.50 kcal/mol
                                                          E(2) E(NL)-E(L) F(L,NL)
      Donor (L) NBO              Acceptor (NL) NBO      kcal/mol   a.u.    a.u.
 ===============================================================================

 within unit  1
    4. BD ( 1) C  1- C  2      18. BD*( 1) C  2- C  6      0.75    1.51   0.030
    4. BD ( 1) C  1- C  2      19. BD*( 1) C  6- H  7      0.67    1.49   0.028
    5. BD ( 2) C  1- C  2      20. BD*( 1) C  6- H  8      3.30    1.03   0.052
    5. BD ( 2) C  1- C  2      21. BD*( 1) C  6- H  9      3.30    1.03   0.052
    6. BD ( 1) C  1- H  3      16. BD*( 1) C  1- H  4      1.16    1.37   0.036
    6. BD ( 1) C  1- H  3      17. BD*( 1) C  2- H  5      3.37    1.36   0.061
    6. BD ( 1) C  1- H  3      18. BD*( 1) C  2- C  6      1.85    1.37   0.045
    7. BD ( 1) C  1- H  4      15. BD*( 1) C  1- H  3      1.13    1.37   0.035
    7. BD ( 1) C  1- H  4      17. BD*( 1) C  2- H  5      1.47    1.37   0.040
    7. BD ( 1) C  1- H  4      18. BD*( 1) C  2- C  6      3.51    1.37   0.062
    8. BD ( 1) C  2- H  5      13. BD*( 1) C  1- C  2      0.51    1.61   0.026
    8. BD ( 1) C  2- H  5      15. BD*( 1) C  1- H  3      3.94    1.37   0.066
    8. BD ( 1) C  2- H  5      16. BD*( 1) C  1- H  4      1.58    1.37   0.042
    8. BD ( 1) C  2- H  5      18. BD*( 1) C  2- C  6      1.58    1.37   0.042
    8. BD ( 1) C  2- H  5      19. BD*( 1) C  6- H  7      2.29    1.35   0.050
    9. BD ( 1) C  2- C  6      13. BD*( 1) C  1- C  2      0.68    1.64   0.030
    9. BD ( 1) C  2- C  6      15. BD*( 1) C  1- H  3      1.56    1.41   0.042
    9. BD ( 1) C  2- C  6      16. BD*( 1) C  1- H  4      3.14    1.41   0.059
    9. BD ( 1) C  2- C  6      17. BD*( 1) C  2- H  5      1.50    1.40   0.041
   10. BD ( 1) C  6- H  7      13. BD*( 1) C  1- C  2      1.16    1.60   0.038
   10. BD ( 1) C  6- H  7      17. BD*( 1) C  2- H  5      2.53    1.36   0.052
   11. BD ( 1) C  6- H  8      13. BD*( 1) C  1- C  2      0.65    1.60   0.029
   11. BD ( 1) C  6- H  8      14. BD*( 2) C  1- C  2      4.84    0.94   0.060
   12. BD ( 1) C  6- H  9      13. BD*( 1) C  1- C  2      0.65    1.60   0.029
   12. BD ( 1) C  6- H  9      14. BD*( 2) C  1- C  2      4.84    0.94   0.060


 NATURAL BOND ORBITALS (Summary):

                                                     Principal Delocalizations
           NBO                 Occupancy    Energy   (geminal,vicinal,remote)
 ===============================================================================
 Molecular unit  1  (C3H6)
 ------ Lewis --------------------------------------
    1. CR ( 1) C  1             2.00000   -10.99728
    2. CR ( 1) C  2             2.00000   -11.01685
    3. CR ( 1) C  6             2.00000   -11.03009
    4. BD ( 1) C  1- C  2       1.99566    -0.76970  18(g),19(v)
    5. BD ( 2) C  1- C  2       1.98956    -0.31611  20(v),21(v)
    6. BD ( 1) C  1- H  3       1.99174    -0.62679  17(v),18(v),16(g)
    7. BD ( 1) C  1- H  4       1.99208    -0.62837  18(v),17(v),15(g)
    8. BD ( 1) C  2- H  5       1.98777    -0.62884  15(v),19(v),18(g),16(v)
                                                     13(g)
    9. BD ( 1) C  2- C  6       1.99137    -0.66627  16(v),15(v),17(g),13(g)
   10. BD ( 1) C  6- H  7       1.99467    -0.62018  17(v),13(v)
   11. BD ( 1) C  6- H  8       1.98853    -0.61849  14(v),13(v)
   12. BD ( 1) C  6- H  9       1.98853    -0.61849  14(v),13(v)
 ------ non-Lewis ----------------------------------
   13. BD*( 1) C  1- C  2       0.00485     0.97718
   14. BD*( 2) C  1- C  2       0.02005     0.32568
   15. BD*( 1) C  1- H  3       0.00892     0.74224
   16. BD*( 1) C  1- H  4       0.00757     0.74426
   17. BD*( 1) C  2- H  5       0.01180     0.73731
   18. BD*( 1) C  2- C  6       0.00941     0.74053
   19. BD*( 1) C  6- H  7       0.00493     0.72014
   20. BD*( 1) C  6- H  8       0.00628     0.71473
   21. BD*( 1) C  6- H  9       0.00628     0.71473
          -------------------------------
                 Total Lewis   23.91990  ( 99.6663%)
           Valence non-Lewis    0.08010  (  0.3337%)
           Rydberg non-Lewis    0.00000  (  0.0000%)
          -------------------------------
               Total unit  1   24.00000  (100.0000%)
              Charge unit  1    0.00000

 $CHOOSE
   BOND D 1 2 S 1 3 S 1 4 S 2 5 S 2 6 S 6 7 S 6 8 S 6 9 END
 $END

 NBO analysis completed in 0.22 CPU seconds (1 wall second)
 Maximum scratch memory used by NBO was 225158 words (1.72 MB)
 Maximum scratch memory used by G16NBO was 8954 words (0.07 MB)

 Opening RunExU unformatted file "/cluster/work/users/beto93/mol79/Gau-27302.EUF"
 Read unf file /cluster/work/users/beto93/mol79/Gau-27302.EUF:
 Label Gaussian matrix elements                                         IVers= 2 NLab= 2 Version=ES64L-G16RevC.01
 Title mol79-NBO                                                       
 NAtoms=     9 NBasis=    21 NBsUse=    21 ICharg=     0 Multip=     1 NE=    24 Len12L=8 Len4L=8 IOpCl= 0 ICGU=111
 GAUSSIAN SCALARS                    NI= 1 NR= 1 NTot=       1 LenBuf=    2 NRI=1 N=    1000
 NPA CHARGES                         NI= 0 NR= 1 NTot=       9 LenBuf= 4000 NRI=1 N=       9
 Recovered energy= -115.658521545     dipole=     -0.100308661534     -0.006796429331     -0.000000000000
 Unable to Open any file for archive entry.
 1\1\GINC-C5-5\SP\RHF\STO-3G\C3H6\BETO93\18-Nov-2024\0\\#RHF/STO-3G int
 =nobasistransform Symmetry=None 5D 7F Pop=NBO7Read\\mol79-NBO\\0,1\C,0
 ,1.29129,0.133682,0.\C,0,0.,0.479159,0.\H,0,1.60116,-0.90742,0.\H,0,2.
 0808,0.877337,0.\H,0,-0.263221,1.536098,0.\C,0,-1.139757,-0.492341,0.\
 H,0,-0.776859,-1.523291,0.\H,0,-1.77554,-0.352861,0.88042\H,0,-1.77554
 ,-0.352861,-0.88042\\Version=ES64L-G16RevC.01\HF=-115.6585215\RMSD=2.6
 91e-09\Dipole=-0.1003087,-0.0067964,0.\Quadrupole=0.2461202,0.3870392,
 -0.6331594,-0.0928634,0.,0.\PG=Unknown\\@
 The archive entry for this job was punched.


 NOTHING WILL BE ATTEMPTED IF ALL POSSIBLE OBJECTIONS
 MUST FIRST BE OVERCOME.

                               -- THE GOLDEN PRINCIPLE,
                    PAUL DICKSON'S "THE OFFICIAL RULES"
 Job cpu time:       0 days  0 hours  0 minutes  7.9 seconds.
 Elapsed time:       0 days  0 hours  0 minutes  2.7 seconds.
 File lengths (MBytes):  RWF=     10 Int=      0 D2E=      0 Chk=      1 Scr=      1
 Normal termination of Gaussian 16 at Mon Nov 18 15:41:33 2024.
