 Entering Gaussian System, Link 0=g16
 Initial command:
 /cluster/software/Gaussian/g16_C.01/l1.exe "/cluster/work/users/beto93/mol109/Gau-1335971.inp" -scrdir="/cluster/work/users/beto93/mol109/"
 Entering Link 1 = /cluster/software/Gaussian/g16_C.01/l1.exe PID=   1335981.
  
 Copyright (c) 1988-2019, Gaussian, Inc.  All Rights Reserved.
  
 This is part of the Gaussian(R) 16 program.  It is based on
 the Gaussian(R) 09 system (copyright 2009, Gaussian, Inc.),
 the Gaussian(R) 03 system (copyright 2003, Gaussian, Inc.),
 the Gaussian(R) 98 system (copyright 1998, Gaussian, Inc.),
 the Gaussian(R) 94 system (copyright 1995, Gaussian, Inc.),
 the Gaussian 92(TM) system (copyright 1992, Gaussian, Inc.),
 the Gaussian 90(TM) system (copyright 1990, Gaussian, Inc.),
 the Gaussian 88(TM) system (copyright 1988, Gaussian, Inc.),
 the Gaussian 86(TM) system (copyright 1986, Carnegie Mellon
 University), and the Gaussian 82(TM) system (copyright 1983,
 Carnegie Mellon University). Gaussian is a federally registered
 trademark of Gaussian, Inc.
  
 This software contains proprietary and confidential information,
 including trade secrets, belonging to Gaussian, Inc.
  
 This software is provided under written license and may be
 used, copied, transmitted, or stored only in accord with that
 written license.
  
 The following legend is applicable only to US Government
 contracts under FAR:
  
                    RESTRICTED RIGHTS LEGEND
  
 Use, reproduction and disclosure by the US Government is
 subject to restrictions as set forth in subparagraphs (a)
 and (c) of the Commercial Computer Software - Restricted
 Rights clause in FAR 52.227-19.
  
 Gaussian, Inc.
 340 Quinnipiac St., Bldg. 40, Wallingford CT 06492
  
  
 ---------------------------------------------------------------
 Warning -- This program may not be used in any manner that
 competes with the business of Gaussian, Inc. or will provide
 assistance to any competitor of Gaussian, Inc.  The licensee
 of this program is prohibited from giving any competitor of
 Gaussian, Inc. access to this program.  By using this program,
 the user acknowledges that Gaussian, Inc. is engaged in the
 business of creating and licensing software in the field of
 computational chemistry and represents and warrants to the
 licensee that it is not a competitor of Gaussian, Inc. and that
 it will not use this program in any manner prohibited above.
 ---------------------------------------------------------------
  

 Cite this work as:
 Gaussian 16, Revision C.01,
 M. J. Frisch, G. W. Trucks, H. B. Schlegel, G. E. Scuseria, 
 M. A. Robb, J. R. Cheeseman, G. Scalmani, V. Barone, 
 G. A. Petersson, H. Nakatsuji, X. Li, M. Caricato, A. V. Marenich, 
 J. Bloino, B. G. Janesko, R. Gomperts, B. Mennucci, H. P. Hratchian, 
 J. V. Ortiz, A. F. Izmaylov, J. L. Sonnenberg, D. Williams-Young, 
 F. Ding, F. Lipparini, F. Egidi, J. Goings, B. Peng, A. Petrone, 
 T. Henderson, D. Ranasinghe, V. G. Zakrzewski, J. Gao, N. Rega, 
 G. Zheng, W. Liang, M. Hada, M. Ehara, K. Toyota, R. Fukuda, 
 J. Hasegawa, M. Ishida, T. Nakajima, Y. Honda, O. Kitao, H. Nakai, 
 T. Vreven, K. Throssell, J. A. Montgomery, Jr., J. E. Peralta, 
 F. Ogliaro, M. J. Bearpark, J. J. Heyd, E. N. Brothers, K. N. Kudin, 
 V. N. Staroverov, T. A. Keith, R. Kobayashi, J. Normand, 
 K. Raghavachari, A. P. Rendell, J. C. Burant, S. S. Iyengar, 
 J. Tomasi, M. Cossi, J. M. Millam, M. Klene, C. Adamo, R. Cammi, 
 J. W. Ochterski, R. L. Martin, K. Morokuma, O. Farkas, 
 J. B. Foresman, and D. J. Fox, Gaussian, Inc., Wallingford CT, 2019.
 
 ******************************************
 Gaussian 16:  ES64L-G16RevC.01  3-Jul-2019
                18-Nov-2024 
 ******************************************
 %LindaWorkers=c5-22-ib
 %NProcShared=4
 Will use up to    4 processors via shared memory.
 %mem=25GB
 %chk=mol109.chk
 SetLPE:    new flags="-opt 'Tsnet.Node.lindarsharg: ssh'  -nodelist 'c5-22-ib.saga' -env GAUSS_MDEF=3355443200 -env GAUSS_EXEDIR="/cluster/software/Gaussian/g16_C.01/bsd:/cluster/software/Gaussian/g16_C.01""
 Will use up to    1 processors via Linda.
 -----------------------------------------------------------------
 #RHF/STO-3G int=nobasistransform Symmetry=None 5D 7F Pop=NBO7Read
 -----------------------------------------------------------------
 1/38=1,163=2,172=1/1;
 2/12=2,15=3,17=6,18=5,40=1/2;
 3/6=3,8=11,11=1,25=1,30=1,60=-1,116=1/1,2,3;
 4//1;
 5/5=2,38=5/2;
 6/7=2,8=2,9=2,10=2,28=1,40=2,113=1,114=1,124=2103/1,12;
 99/5=1,9=1/99;
 ----------
 mol109-NBO
 ----------
 Symbolic Z-matrix:
 Charge =  0 Multiplicity = 1
 C                     0.        0.       -1.21934 
 C                     0.        0.        0.09892 
 H                     0.        0.93885  -1.75322 
 H                     0.       -0.93885  -1.75322 
 O                     0.        0.        1.27862 
 
                          Input orientation:                          
 ---------------------------------------------------------------------
 Center     Atomic      Atomic             Coordinates (Angstroms)
 Number     Number       Type             X           Y           Z
 ---------------------------------------------------------------------
      1          6           0        0.000000    0.000000   -1.219340
      2          6           0        0.000000    0.000000    0.098920
      3          1           0        0.000000    0.938847   -1.753224
      4          1           0        0.000000   -0.938847   -1.753224
      5          8           0        0.000000    0.000000    1.278620
 ---------------------------------------------------------------------
                    Distance matrix (angstroms):
                    1          2          3          4          5
     1  C    0.000000
     2  C    1.318260   0.000000
     3  H    1.080030   2.076505   0.000000
     4  H    1.080030   2.076505   1.877694   0.000000
     5  O    2.497960   1.179700   3.173880   3.173880   0.000000
 Symmetry turned off by external request.
 Stoichiometry    C2H2O
 Rotational constants (GHZ):         284.4542423          10.1041124           9.7575152
 Standard basis: STO-3G (5D, 7F)
    17 basis functions,    51 primitive gaussians,    17 cartesian basis functions
    11 alpha electrons       11 beta electrons
       nuclear repulsion energy        58.0381312601 Hartrees.
 NAtoms=    5 NActive=    5 NUniq=    5 SFac= 1.00D+00 NAtFMM=   60 NAOKFM=F Big=F
 Integral buffers will be    131072 words long.
 Raffenetti 1 integral format.
 Two-electron integral symmetry is turned off.
 One-electron integrals computed using PRISM.
 NBasis=    17 RedAO= T EigKep=  1.75D-01  NBF=    17
 NBsUse=    17 1.00D-06 EigRej= -1.00D+00 NBFU=    17
 ExpMin= 1.69D-01 ExpMax= 1.31D+02 ExpMxC= 1.31D+02 IAcc=3 IRadAn=         5 AccDes= 0.00D+00
 Harris functional with IExCor=  205 and IRadAn=       5 diagonalized for initial guess.
 HarFok:  IExCor=  205 AccDes= 0.00D+00 IRadAn=         5 IDoV= 1 UseB2=F ITyADJ=14
 ICtDFT=  3500011 ScaDFX=  1.000000  1.000000  1.000000  1.000000
 FoFCou: FMM=F IPFlag=           0 FMFlag=      100000 FMFlg1=           0
         NFxFlg=           0 DoJE=T BraDBF=F KetDBF=T FulRan=T
         wScrn=  0.000000 ICntrl=       500 IOpCl=  0 I1Cent=   200000004 NGrid=           0
         NMat0=    1 NMatS0=      1 NMatT0=    0 NMatD0=    1 NMtDS0=    0 NMtDT0=    0
 Symmetry not used in FoFCou.
 Keep R1 ints in memory in canonical form, NReq=817812.
 Requested convergence on RMS density matrix=1.00D-08 within 128 cycles.
 Requested convergence on MAX density matrix=1.00D-06.
 Requested convergence on             energy=1.00D-06.
 No special actions if energy rises.
 SCF Done:  E(RHF) =  -149.725522999     A.U. after   12 cycles
            NFock= 12  Conv=0.29D-08     -V/T= 2.0089

 **********************************************************************

            Population analysis using the SCF Density.

 **********************************************************************

 Alpha  occ. eigenvalues --  -20.37311 -11.16528 -11.00015  -1.39668  -0.97228
 Alpha  occ. eigenvalues --   -0.66815  -0.59032  -0.57900  -0.56727  -0.46426
 Alpha  occ. eigenvalues --   -0.27263
 Alpha virt. eigenvalues --    0.26116   0.34946   0.61345   0.71907   0.83464
 Alpha virt. eigenvalues --    1.28263
          Condensed to atoms (all electrons):
               1          2          3          4          5
     1  C    4.895085   0.569819   0.394024   0.394024  -0.010830
     2  C    0.569819   4.737962  -0.026396  -0.026396   0.484052
     3  H    0.394024  -0.026396   0.565596  -0.016906  -0.000064
     4  H    0.394024  -0.026396  -0.016906   0.565596  -0.000064
     5  O   -0.010830   0.484052  -0.000064  -0.000064   7.713232
 Mulliken charges:
               1
     1  C   -0.242123
     2  C    0.260959
     3  H    0.083745
     4  H    0.083745
     5  O   -0.186327
 Sum of Mulliken charges =  -0.00000
 Mulliken charges with hydrogens summed into heavy atoms:
               1
     1  C   -0.074632
     2  C    0.260959
     5  O   -0.186327
 Electronic spatial extent (au):  <R**2>=            142.9874
 Charge=             -0.0000 electrons
 Dipole moment (field-independent basis, Debye):
    X=              0.0000    Y=              0.0000    Z=             -0.7711  Tot=              0.7711
 Quadrupole moment (field-independent basis, Debye-Ang):
   XX=            -16.3463   YY=            -14.2402   ZZ=            -17.7899
   XY=             -0.0000   XZ=              0.0000   YZ=             -0.0000
 Traceless Quadrupole moment (field-independent basis, Debye-Ang):
   XX=             -0.2208   YY=              1.8852   ZZ=             -1.6644
   XY=             -0.0000   XZ=              0.0000   YZ=             -0.0000
 Octapole moment (field-independent basis, Debye-Ang**2):
  XXX=              0.0000  YYY=              0.0000  ZZZ=              3.1987  XYY=              0.0000
  XXY=              0.0000  XXZ=              3.4911  XZZ=             -0.0000  YZZ=              0.0000
  YYZ=              1.3425  XYZ=             -0.0000
 Hexadecapole moment (field-independent basis, Debye-Ang**3):
 XXXX=            -11.8084 YYYY=            -17.0711 ZZZZ=           -129.8410 XXXY=             -0.0000
 XXXZ=              0.0000 YYYX=             -0.0000 YYYZ=             -0.0000 ZZZX=              0.0000
 ZZZY=             -0.0000 XXYY=             -5.1223 XXZZ=            -24.4834 YYZZ=            -20.7046
 XXYZ=             -0.0000 YYXZ=             -0.0000 ZZXY=             -0.0000
 N-N= 5.803813126009D+01 E-N=-4.678327064402D+02  KE= 1.484036654210D+02
 Running external command "gaunbo7 R"
         input file       "/cluster/work/users/beto93/mol109/Gau-1335981.EIn"
         output file      "/cluster/work/users/beto93/mol109/Gau-1335981.EOu"
         message file     "/cluster/work/users/beto93/mol109/Gau-1335981.EMs"
         fchk file        "/cluster/work/users/beto93/mol109/Gau-1335981.EFC"
         mat. el file     "/cluster/work/users/beto93/mol109/Gau-1335981.EUF"

 Writing WrtUnf unformatted file "/cluster/work/users/beto93/mol109/Gau-1335981.EUF"
 Gaussian matrix elements                                         Version   2 NLab=11 Len12L=8 Len4L=8
 Write SHELL TO ATOM MAP                   from file      0 offset           0 length                   8 to matrix element file.
 Write SHELL TYPES                         from file      0 offset           0 length                   8 to matrix element file.
 Write NUMBER OF PRIMITIVES PER SHELL      from file      0 offset           0 length                   8 to matrix element file.
 Write PRIMITIVE EXPONENTS                 from file      0 offset           0 length                  24 to matrix element file.
 Write CONTRACTION COEFFICIENTS            from file      0 offset           0 length                  24 to matrix element file.
 Write P(S=P) CONTRACTION COEFFICIENTS     from file      0 offset           0 length                  24 to matrix element file.
 Write COORDINATES OF EACH SHELL           from file      0 offset           0 length                  24 to matrix element file.
 Write BONDS PER ATOM                      from file      0 offset           0 length                   5 to matrix element file.
 Write BONDED ATOMS                        from file      0 offset           0 length                   8 to matrix element file.
 Write BOND TYPES                          from file      0 offset           0 length                   8 to matrix element file.
 Write ONIOM CHARGE/MULT                   from file      0 offset           0 length                  32 to matrix element file.
 Write ONIOM ATOM LAYERS                   from file      0 offset           0 length                   5 to matrix element file.
 Write ONIOM ATOM MODIFIERS                from file      0 offset           0 length                   5 to matrix element file.
 Write ONIOM ATOM TYPES                    from file      0 offset           0 length                   5 to matrix element file.
 Write ONIOM LINK ATOMS                    from file      0 offset           0 length                   5 to matrix element file.
 Write ONIOM LINK CHARGES                  from file      0 offset           0 length                   5 to matrix element file.
 Write ONIOM LINK DISTANCES                from file      0 offset           0 length                  20 to matrix element file.
 Write SYMINF INTS                         from file      0 offset           0 length                  26 to matrix element file.
 Write ROTTR TO SO                         from file      0 offset           0 length                  12 to matrix element file.
 Write GAUSSIAN SCALARS                    from file    501 offset           0 to matrix element file.
 Write OPTIMIZATION FLAGS                  from file      0 offset           0 length                   5 to matrix element file.
 Write INTEGER ISO                         from file      0 offset           0 length                   5 to matrix element file.
 Write INTEGER SPIN                        from file      0 offset           0 length                   5 to matrix element file.
 Write REAL ZEFFECTIVE                     from file      0 offset           0 length                   5 to matrix element file.
 Write REAL GFACTOR                        from file      0 offset           0 length                   5 to matrix element file.
 Write REAL ZNUCLEAR                       from file      0 offset           0 length                   5 to matrix element file.
 Write MULLIKEN CHARGES                    from file      0 offset           0 length                   5 to matrix element file.
 Write NUCLEAR GRADIENT                    from file  10584 offset           0 length                  15 to matrix element file.
 Array NUCLEAR FORCE CONSTANTS              on  file  10585 does not exist.
 Write ELECTRIC DIPOLE MOMENT              from file      0 offset           0 length                   3 to matrix element file.
 Write NON-ADIABATIC COUPLING              from file  10810 offset           0 length                  15 to matrix element file.
 Write FINITE EM FIELD                     from file  10521 offset           0 length                  35 to matrix element file.
 Write OVERLAP                             from file  10514 offset           0 length                 153 to matrix element file.
 Write CORE HAMILTONIAN ALPHA              from file  10515 offset           0 length                 153 to matrix element file.
 Write CORE HAMILTONIAN BETA               from file  10515 offset         153 length                 153 to matrix element file.
 Write KINETIC ENERGY                      from file  10516 offset           0 length                 153 to matrix element file.
 Write ORTHOGONAL BASIS                    from file  10685 offset           0 length                 289 to matrix element file.
 Write DIPOLE INTEGRALS                    from file  10518 offset           0 length                 459 to matrix element file.
 Array DIP VEL INTEGRALS                    on  file  10572 does not exist.
 Array R X DEL INTEGRALS                    on  file  10572 does not exist.
 Write ALPHA ORBITAL ENERGIES              from file      0 offset           0 length                  17 to matrix element file.
 Write ALPHA MO COEFFICIENTS               from file  10524 offset           0 length                 289 to matrix element file.
 Write ALPHA DENSITY MATRIX                from file      0 offset           0 length                 153 to matrix element file.
 Write ALPHA FOCK MATRIX                   from file  10536 offset           0 length                 153 to matrix element file.
 Write ENERGY-WEIGHTED DENSITY             from file  10571 offset           0 length                 153 to matrix element file.
 Write ALPHA SCF DENSITY MATRIX            from file      0 offset           0 length                 153 to matrix element file.
 No 2e integrals to process.
 Perform NBO analysis...executing G16NBO...

 *********************************** NBO 7.0 ***********************************
             N A T U R A L   A T O M I C   O R B I T A L   A N D
          N A T U R A L   B O N D   O R B I T A L   A N A L Y S I S
 **************************** Espen Tangen (S101595) ***************************
  (c) Copyright 1996-2021 Board of Regents of the University of Wisconsin System
      on behalf of the Theoretical Chemistry Institute.  All rights reserved.

          Cite this program [NBO 7.0.10 (8-Feb-2021)] as:

          NBO 7.0.  E. D. Glendening, J. K. Badenhoop, A. E. Reed,
          J. E. Carpenter, J. A. Bohmann, C. M. Morales, P. Karafiloglou,
          C. R. Landis, and F. Weinhold, Theoretical Chemistry Institute,
          University of Wisconsin, Madison, WI (2018)

       /NPA    / : Natural Population Analysis
       /AOPNAO / : Print the AO to PNAO transformation
       /AONAO  / : Print the AO to NAO transformation
       /AOMO   / : Print the MOs in the AO basis
       /BOAO   / : Print the AO bond-order matrix
       /DMAO   / : Print the AO density matrix
       /DMPNAO / : Print the PNAO density matrix
       /DMNAO  / : Print the NAO density matrix
       /DMMO   / : Print the MO density matrix
       /SAO    / : Print the AO overlap matrix
       /SPNAO  / : Print the PNAO overlap matrix
       /DETAIL / : Write details of NBO search
       /ARCHIVE/ : Write the archive file to lfn47
       /AOINFO / : Write AO information to lfn31
       /FILE   / : Set to mol109.gen*

 Filename set to mol109.gen1

 Job title: mol109-NBO


 MOs in the AO basis:

           AO          1       2       3       4       5       6       7       8
      ------------ ------- ------- ------- ------- ------- ------- ------- -------
   1.  C 1 (s)      0.0000  0.0028  0.9921 -0.0128 -0.1992 -0.0868  0.0000  0.0253
   2.  C 1 (s)     -0.0011 -0.0063  0.0372  0.0530  0.5045  0.2781  0.0000 -0.1332
   3.  C 1 (px)     0.0000  0.0000  0.0000  0.0000  0.0000  0.0000  0.0000  0.0000
   4.  C 1 (py)     0.0000  0.0000  0.0000  0.0000  0.0000  0.0000  0.4556  0.0000
   5.  C 1 (pz)    -0.0008 -0.0036  0.0028  0.0342  0.1159 -0.2931  0.0000  0.3602
   6.  C 2 (s)      0.0004  0.9931 -0.0024 -0.1236 -0.1342  0.1435  0.0000 -0.0127
   7.  C 2 (s)     -0.0070  0.0300 -0.0085  0.2537  0.3776 -0.4668  0.0000  0.0511
   8.  C 2 (px)     0.0000  0.0000  0.0000  0.0000  0.0000  0.0000  0.0000  0.0000
   9.  C 2 (py)     0.0000  0.0000  0.0000  0.0000  0.0000  0.0000  0.3537  0.0000
  10.  C 2 (pz)    -0.0077 -0.0006  0.0053  0.1801 -0.2785 -0.0385  0.0000 -0.4467
  11.  H 3 (s)      0.0000 -0.0001 -0.0068  0.0028  0.1344  0.2266  0.3091 -0.2070
  12.  H 4 (s)      0.0000 -0.0001 -0.0068  0.0028  0.1344  0.2266 -0.3091 -0.2070
  13.  O 5 (s)      0.9942 -0.0001  0.0000 -0.2199  0.0503 -0.1004  0.0000 -0.0740
  14.  O 5 (s)      0.0268 -0.0048 -0.0001  0.7618 -0.1843  0.4879  0.0000  0.4103
  15.  O 5 (px)     0.0000  0.0000  0.0000  0.0000  0.0000  0.0000  0.0000  0.0000
  16.  O 5 (py)     0.0000  0.0000  0.0000  0.0000  0.0000  0.0000  0.3314  0.0000
  17.  O 5 (pz)    -0.0063  0.0005  0.0001 -0.1857 -0.0427  0.4326  0.0000  0.5278

           AO          9      10      11      12      13      14      15      16
      ------------ ------- ------- ------- ------- ------- ------- ------- -------
   1.  C 1 (s)      0.0000  0.0000  0.0000  0.0000  0.0000  0.1944  0.1102  0.0000
   2.  C 1 (s)      0.0000  0.0000  0.0000  0.0000  0.0000 -1.1935 -0.7181  0.0000
   3.  C 1 (px)     0.1987  0.0000  0.7280  0.0000 -0.7056  0.0000  0.0000  0.0000
   4.  C 1 (py)     0.0000 -0.3159  0.0000  0.0977  0.0000  0.0000  0.0000  1.1959
   5.  C 1 (pz)     0.0000  0.0000  0.0000  0.0000  0.0000 -0.3496  0.9334  0.0000
   6.  C 2 (s)      0.0000  0.0000  0.0000  0.0000  0.0000 -0.1826  0.0909  0.0000
   7.  C 2 (s)      0.0000  0.0000  0.0000  0.0000  0.0000  1.2313 -0.6829  0.0000
   8.  C 2 (px)     0.4981  0.0000  0.3338  0.0000  0.8744  0.0000  0.0000  0.0000
   9.  C 2 (py)     0.0000  0.4051  0.0000  0.8344  0.0000  0.0000  0.0000 -0.3811
  10.  C 2 (pz)     0.0000  0.0000  0.0000  0.0000  0.0000  0.0168 -0.0990  0.0000
  11.  H 3 (s)      0.0000 -0.2738  0.0000 -0.2893  0.0000  0.4737  0.7718 -0.8444
  12.  H 4 (s)      0.0000  0.2738  0.0000  0.2893  0.0000  0.4737  0.7718  0.8444
  13.  O 5 (s)      0.0000  0.0000  0.0000  0.0000  0.0000  0.0716 -0.0434  0.0000
  14.  O 5 (s)      0.0000  0.0000  0.0000  0.0000  0.0000 -0.4866  0.3074  0.0000
  15.  O 5 (px)     0.7086  0.0000 -0.5769  0.0000 -0.4700  0.0000  0.0000  0.0000
  16.  O 5 (py)     0.0000  0.6648  0.0000 -0.6919  0.0000  0.0000  0.0000  0.1598
  17.  O 5 (pz)     0.0000  0.0000  0.0000  0.0000  0.0000  0.5932 -0.3502  0.0000

           AO         17
      ------------ -------
   1.  C 1 (s)     -0.0996
   2.  C 1 (s)      0.8820
   3.  C 1 (px)     0.0000
   4.  C 1 (py)     0.0000
   5.  C 1 (pz)     0.8688
   6.  C 2 (s)      0.0117
   7.  C 2 (s)     -0.1451
   8.  C 2 (px)     0.0000
   9.  C 2 (py)     0.0000
  10.  C 2 (pz)     1.5684
  11.  H 3 (s)      0.0004
  12.  H 4 (s)      0.0004
  13.  O 5 (s)      0.0932
  14.  O 5 (s)     -0.7992
  15.  O 5 (px)     0.0000
  16.  O 5 (py)     0.0000
  17.  O 5 (pz)     0.7268


 AO overlap matrix:

           AO          1       2       3       4       5       6       7       8
      ------------ ------- ------- ------- ------- ------- ------- ------- -------
   1.  C 1 (s)      1.0000  0.2484  0.0000  0.0000  0.0000  0.0000  0.0455  0.0000
   2.  C 1 (s)      0.2484  1.0000  0.0000  0.0000  0.0000  0.0455  0.4068  0.0000
   3.  C 1 (px)     0.0000  0.0000  1.0000  0.0000  0.0000  0.0000  0.0000  0.2466
   4.  C 1 (py)     0.0000  0.0000  0.0000  1.0000  0.0000  0.0000  0.0000  0.0000
   5.  C 1 (pz)     0.0000  0.0000  0.0000  0.0000  1.0000  0.0756  0.4169  0.0000
   6.  C 2 (s)      0.0000  0.0455  0.0000  0.0000  0.0756  1.0000  0.2484  0.0000
   7.  C 2 (s)      0.0455  0.4068  0.0000  0.0000  0.4169  0.2484  1.0000  0.0000
   8.  C 2 (px)     0.0000  0.0000  0.2466  0.0000  0.0000  0.0000  0.0000  1.0000
   9.  C 2 (py)     0.0000  0.0000  0.0000  0.2466  0.0000  0.0000  0.0000  0.0000
  10.  C 2 (pz)    -0.0756 -0.4169  0.0000  0.0000 -0.3272  0.0000  0.0000  0.0000
  11.  H 3 (s)      0.0637  0.4965  0.0000  0.4091 -0.2327  0.0066  0.1122  0.0000
  12.  H 4 (s)      0.0637  0.4965  0.0000 -0.4091 -0.2327  0.0066  0.1122  0.0000
  13.  O 5 (s)      0.0000  0.0008  0.0000  0.0000  0.0020  0.0000  0.0397  0.0000
  14.  O 5 (s)      0.0001  0.0241  0.0000  0.0000  0.0424  0.0404  0.3819  0.0000
  15.  O 5 (px)     0.0000  0.0000  0.0089  0.0000  0.0000  0.0000  0.0000  0.2251
  16.  O 5 (py)     0.0000  0.0000  0.0000  0.0089  0.0000  0.0000  0.0000  0.0000
  17.  O 5 (pz)    -0.0003 -0.0339  0.0000  0.0000 -0.0550 -0.0673 -0.3318  0.0000

           AO          9      10      11      12      13      14      15      16
      ------------ ------- ------- ------- ------- ------- ------- ------- -------
   1.  C 1 (s)      0.0000 -0.0756  0.0637  0.0637  0.0000  0.0001  0.0000  0.0000
   2.  C 1 (s)      0.0000 -0.4169  0.4965  0.4965  0.0008  0.0241  0.0000  0.0000
   3.  C 1 (px)     0.0000  0.0000  0.0000  0.0000  0.0000  0.0000  0.0089  0.0000
   4.  C 1 (py)     0.2466  0.0000  0.4091 -0.4091  0.0000  0.0000  0.0000  0.0089
   5.  C 1 (pz)     0.0000 -0.3272 -0.2327 -0.2327  0.0020  0.0424  0.0000  0.0000
   6.  C 2 (s)      0.0000  0.0000  0.0066  0.0066  0.0000  0.0404  0.0000  0.0000
   7.  C 2 (s)      0.0000  0.0000  0.1122  0.1122  0.0397  0.3819  0.0000  0.0000
   8.  C 2 (px)     0.0000  0.0000  0.0000  0.0000  0.0000  0.0000  0.2251  0.0000
   9.  C 2 (py)     1.0000  0.0000  0.0642 -0.0642  0.0000  0.0000  0.0000  0.2251
  10.  C 2 (pz)     0.0000  1.0000 -0.1267 -0.1267  0.0671  0.4581  0.0000  0.0000
  11.  H 3 (s)      0.0642 -0.1267  1.0000  0.1452  0.0001  0.0046  0.0000  0.0020
  12.  H 4 (s)     -0.0642 -0.1267  0.1452  1.0000  0.0001  0.0046  0.0000 -0.0020
  13.  O 5 (s)      0.0000  0.0671  0.0001  0.0001  1.0000  0.2367  0.0000  0.0000
  14.  O 5 (s)      0.0000  0.4581  0.0046  0.0046  0.2367  1.0000  0.0000  0.0000
  15.  O 5 (px)     0.0000  0.0000  0.0000  0.0000  0.0000  0.0000  1.0000  0.0000
  16.  O 5 (py)     0.2251  0.0000  0.0020 -0.0020  0.0000  0.0000  0.0000  1.0000
  17.  O 5 (pz)     0.0000 -0.3133 -0.0063 -0.0063  0.0000  0.0000  0.0000  0.0000

           AO         17
      ------------ -------
   1.  C 1 (s)     -0.0003
   2.  C 1 (s)     -0.0339
   3.  C 1 (px)     0.0000
   4.  C 1 (py)     0.0000
   5.  C 1 (pz)    -0.0550
   6.  C 2 (s)     -0.0673
   7.  C 2 (s)     -0.3318
   8.  C 2 (px)     0.0000
   9.  C 2 (py)     0.0000
  10.  C 2 (pz)    -0.3133
  11.  H 3 (s)     -0.0063
  12.  H 4 (s)     -0.0063
  13.  O 5 (s)      0.0000
  14.  O 5 (s)      0.0000
  15.  O 5 (px)     0.0000
  16.  O 5 (py)     0.0000
  17.  O 5 (pz)     1.0000


 AO bond-order matrix:

           AO          1       2       3       4       5       6       7       8
      ------------ ------- ------- ------- ------- ------- ------- ------- -------
   1.  C 1 (s)      2.0645 -0.1836  0.0000  0.0000  0.0275  0.0319 -0.0899  0.0000
   2.  C 1 (s)     -0.1836  0.7077  0.0000  0.0000 -0.1382 -0.0780  0.1336  0.0000
   3.  C 1 (px)     0.0000  0.0000  1.1390  0.0000  0.0000  0.0000  0.0000  0.6840
   4.  C 1 (py)     0.0000  0.0000  0.0000  0.6146  0.0000  0.0000  0.0000  0.0000
   5.  C 1 (pz)     0.0275 -0.1382  0.0000  0.0000  0.4605 -0.1401  0.4150  0.0000
   6.  C 2 (s)      0.0319 -0.0780  0.0000  0.0000 -0.1401  2.0804 -0.2398  0.0000
   7.  C 2 (s)     -0.0899  0.1336  0.0000  0.0000  0.4150 -0.2398  0.8570  0.0000
   8.  C 2 (px)     0.0000  0.0000  0.6840  0.0000  0.0000  0.0000  0.0000  0.7192
   9.  C 2 (py)     0.0000  0.0000  0.0000  0.0663  0.0000  0.0000  0.0000  0.0000
  10.  C 2 (pz)     0.1008 -0.1638  0.0000  0.0000 -0.3515  0.0293 -0.1287  0.0000
  11.  H 3 (s)     -0.1170  0.3166  0.0000  0.4546 -0.2506  0.0334 -0.1297  0.0000
  12.  H 4 (s)     -0.1170  0.3166  0.0000 -0.4546 -0.2506  0.0334 -0.1297  0.0000
  13.  O 5 (s)     -0.0007 -0.0110  0.0000  0.0000  0.0006  0.0145 -0.0013  0.0000
  14.  O 5 (s)     -0.0103  0.0569  0.0000  0.0000  0.0190 -0.0188 -0.1670  0.0000
  15.  O 5 (px)     0.0000  0.0000 -0.5584  0.0000  0.0000  0.0000  0.0000  0.3208
  16.  O 5 (py)     0.0000  0.0000  0.0000 -0.1181  0.0000  0.0000  0.0000  0.0000
  17.  O 5 (pz)    -0.0264  0.0373  0.0000  0.0000  0.1041  0.1692 -0.4764  0.0000

           AO          9      10      11      12      13      14      15      16
      ------------ ------- ------- ------- ------- ------- ------- ------- -------
   1.  C 1 (s)      0.0000  0.1008 -0.1170 -0.1170 -0.0007 -0.0103  0.0000  0.0000
   2.  C 1 (s)      0.0000 -0.1638  0.3166  0.3166 -0.0110  0.0569  0.0000  0.0000
   3.  C 1 (px)     0.0000  0.0000  0.0000  0.0000  0.0000  0.0000 -0.5584  0.0000
   4.  C 1 (py)     0.0663  0.0000  0.4546 -0.4546  0.0000  0.0000  0.0000 -0.1181
   5.  C 1 (pz)     0.0000 -0.3515 -0.2506 -0.2506  0.0006  0.0190  0.0000  0.0000
   6.  C 2 (s)      0.0000  0.0293  0.0334  0.0334  0.0145 -0.0188  0.0000  0.0000
   7.  C 2 (s)      0.0000 -0.1287 -0.1297 -0.1297 -0.0013 -0.1670  0.0000  0.0000
   8.  C 2 (px)     0.0000  0.0000  0.0000  0.0000  0.0000  0.0000  0.3208  0.0000
   9.  C 2 (py)     0.5783  0.0000 -0.0032  0.0032  0.0000  0.0000  0.0000  0.7730
  10.  C 2 (pz)     0.0000  0.6222  0.0936  0.0936 -0.0486 -0.0274  0.0000  0.0000
  11.  H 3 (s)     -0.0032  0.0936  0.5656 -0.1164 -0.0025  0.0060  0.0000 -0.1592
  12.  H 4 (s)      0.0032  0.0936 -0.1164  0.5656 -0.0025  0.0060  0.0000  0.1592
  13.  O 5 (s)      0.0000 -0.0486 -0.0025 -0.0025  2.1099 -0.4591  0.0000  0.0000
  14.  O 5 (s)      0.0000 -0.0274  0.0060  0.0060 -0.4591  2.0428  0.0000  0.0000
  15.  O 5 (px)     0.0000  0.0000  0.0000  0.0000  0.0000  0.0000  1.6701  0.0000
  16.  O 5 (py)     0.7730  0.0000 -0.1592  0.1592  0.0000  0.0000  0.0000  1.1037
  17.  O 5 (pz)     0.0000 -0.5478 -0.0350 -0.0350 -0.1002  0.5877  0.0000  0.0000

           AO         17
      ------------ -------
   1.  C 1 (s)     -0.0264
   2.  C 1 (s)      0.0373
   3.  C 1 (px)     0.0000
   4.  C 1 (py)     0.0000
   5.  C 1 (pz)     0.1041
   6.  C 2 (s)      0.1692
   7.  C 2 (s)     -0.4764
   8.  C 2 (px)     0.0000
   9.  C 2 (py)     0.0000
  10.  C 2 (pz)    -0.5478
  11.  H 3 (s)     -0.0350
  12.  H 4 (s)     -0.0350
  13.  O 5 (s)     -0.1002
  14.  O 5 (s)      0.5877
  15.  O 5 (px)     0.0000
  16.  O 5 (py)     0.0000
  17.  O 5 (pz)     1.0041


 AO density matrix:

           AO          1       2       3       4       5       6       7       8
      ------------ ------- ------- ------- ------- ------- ------- ------- -------
   1.  C 1 (s)      1.9995  0.5055  0.0000  0.0000  0.0011  0.0002  0.0860  0.0000
   2.  C 1 (s)      0.5055  1.8438  0.0000  0.0000 -0.0030  0.0876  0.8933  0.0000
   3.  C 1 (px)     0.0000  0.0000  1.5116  0.0000  0.0000  0.0000  0.0000  1.0809
   4.  C 1 (py)     0.0000  0.0000  0.0000  1.6526  0.0000  0.0000  0.0000  0.0000
   5.  C 1 (pz)     0.0011 -0.0030  0.0000  0.0000  1.6072  0.1444  1.0052  0.0000
   6.  C 2 (s)      0.0002  0.0876  0.0000  0.0000  0.1444  1.9997  0.5046  0.0000
   7.  C 2 (s)      0.0860  0.8933  0.0000  0.0000  1.0052  0.5046  1.7828  0.0000
   8.  C 2 (px)     0.0000  0.0000  1.0809  0.0000  0.0000  0.0000  0.0000  1.2928
   9.  C 2 (py)     0.0000  0.0000  0.0000  0.5435  0.0000  0.0000  0.0000  0.0000
  10.  C 2 (pz)    -0.1487 -0.8791  0.0000  0.0000 -0.7362  0.0024 -0.0924  0.0000
  11.  H 3 (s)      0.1196  1.1387  0.0000  1.0487 -0.6096  0.0143  0.2029  0.0000
  12.  H 4 (s)      0.1196  1.1387  0.0000 -1.0487 -0.6096  0.0143  0.2029  0.0000
  13.  O 5 (s)      0.0000  0.0018  0.0000  0.0000  0.0047  0.0001  0.0753  0.0000
  14.  O 5 (s)      0.0002  0.0492  0.0000  0.0000  0.0821  0.0797  0.7968  0.0000
  15.  O 5 (px)     0.0000  0.0000 -0.2584  0.0000  0.0000  0.0000  0.0000  0.7825
  16.  O 5 (py)     0.0000  0.0000  0.0000  0.0118  0.0000  0.0000  0.0000  0.0000
  17.  O 5 (pz)    -0.0027 -0.0382  0.0000  0.0000 -0.0399 -0.1280 -0.8604  0.0000

           AO          9      10      11      12      13      14      15      16
      ------------ ------- ------- ------- ------- ------- ------- ------- -------
   1.  C 1 (s)      0.0000 -0.1487  0.1196  0.1196  0.0000  0.0002  0.0000  0.0000
   2.  C 1 (s)      0.0000 -0.8791  1.1387  1.1387  0.0018  0.0492  0.0000  0.0000
   3.  C 1 (px)     0.0000  0.0000  0.0000  0.0000  0.0000  0.0000 -0.2584  0.0000
   4.  C 1 (py)     0.5435  0.0000  1.0487 -1.0487  0.0000  0.0000  0.0000  0.0118
   5.  C 1 (pz)     0.0000 -0.7362 -0.6096 -0.6096  0.0047  0.0821  0.0000  0.0000
   6.  C 2 (s)      0.0000  0.0024  0.0143  0.0143  0.0001  0.0797  0.0000  0.0000
   7.  C 2 (s)      0.0000 -0.0924  0.2029  0.2029  0.0753  0.7968  0.0000  0.0000
   8.  C 2 (px)     0.0000  0.0000  0.0000  0.0000  0.0000  0.0000  0.7825  0.0000
   9.  C 2 (py)     1.0636  0.0000  0.2534 -0.2534  0.0000  0.0000  0.0000  1.1474
  10.  C 2 (pz)     0.0000  1.7501 -0.2575 -0.2575  0.1289  0.9634  0.0000  0.0000
  11.  H 3 (s)      0.2534 -0.2575  1.6282  0.2782  0.0000  0.0108  0.0000 -0.1107
  12.  H 4 (s)     -0.2534 -0.2575  0.2782  1.6282  0.0000  0.0108  0.0000  0.1107
  13.  O 5 (s)      0.0000  0.1289  0.0000  0.0000  1.9999  0.4746  0.0000  0.0000
  14.  O 5 (s)      0.0000  0.9634  0.0108  0.0108  0.4746  1.9898  0.0000  0.0000
  15.  O 5 (px)     0.0000  0.0000  0.0000  0.0000  0.0000  0.0000  1.8438  0.0000
  16.  O 5 (py)     1.1474  0.0000 -0.1107  0.1107  0.0000  0.0000  0.0000  1.4779
  17.  O 5 (pz)     0.0000 -0.8254 -0.0302 -0.0302 -0.0057  0.0481  0.0000  0.0000

           AO         17
      ------------ -------
   1.  C 1 (s)     -0.0027
   2.  C 1 (s)     -0.0382
   3.  C 1 (px)     0.0000
   4.  C 1 (py)     0.0000
   5.  C 1 (pz)    -0.0399
   6.  C 2 (s)     -0.1280
   7.  C 2 (s)     -0.8604
   8.  C 2 (px)     0.0000
   9.  C 2 (py)     0.0000
  10.  C 2 (pz)    -0.8254
  11.  H 3 (s)     -0.0302
  12.  H 4 (s)     -0.0302
  13.  O 5 (s)     -0.0057
  14.  O 5 (s)      0.0481
  15.  O 5 (px)     0.0000
  16.  O 5 (py)     0.0000
  17.  O 5 (pz)     1.7587


 MO density matrix:

      MO     1       2       3       4       5       6       7       8       9
     ---- ------  ------  ------  ------  ------  ------  ------  ------  ------
   1.     2.0000  0.0000  0.0000  0.0000  0.0000  0.0000  0.0000  0.0000  0.0000
   2.     0.0000  2.0000  0.0000  0.0000  0.0000  0.0000  0.0000  0.0000  0.0000
   3.     0.0000  0.0000  2.0000  0.0000  0.0000  0.0000  0.0000  0.0000  0.0000
   4.     0.0000  0.0000  0.0000  2.0000  0.0000  0.0000  0.0000  0.0000  0.0000
   5.     0.0000  0.0000  0.0000  0.0000  2.0000  0.0000  0.0000  0.0000  0.0000
   6.     0.0000  0.0000  0.0000  0.0000  0.0000  2.0000  0.0000  0.0000  0.0000
   7.     0.0000  0.0000  0.0000  0.0000  0.0000  0.0000  2.0000  0.0000  0.0000
   8.     0.0000  0.0000  0.0000  0.0000  0.0000  0.0000  0.0000  2.0000  0.0000
   9.     0.0000  0.0000  0.0000  0.0000  0.0000  0.0000  0.0000  0.0000  2.0000
  10.     0.0000  0.0000  0.0000  0.0000  0.0000  0.0000  0.0000  0.0000  0.0000
  11.     0.0000  0.0000  0.0000  0.0000  0.0000  0.0000  0.0000  0.0000  0.0000
  12.     0.0000  0.0000  0.0000  0.0000  0.0000  0.0000  0.0000  0.0000  0.0000
  13.     0.0000  0.0000  0.0000  0.0000  0.0000  0.0000  0.0000  0.0000  0.0000
  14.     0.0000  0.0000  0.0000  0.0000  0.0000  0.0000  0.0000  0.0000  0.0000
  15.     0.0000  0.0000  0.0000  0.0000  0.0000  0.0000  0.0000  0.0000  0.0000
  16.     0.0000  0.0000  0.0000  0.0000  0.0000  0.0000  0.0000  0.0000  0.0000
  17.     0.0000  0.0000  0.0000  0.0000  0.0000  0.0000  0.0000  0.0000  0.0000

      MO    10      11      12      13      14      15      16      17
     ---- ------  ------  ------  ------  ------  ------  ------  ------
   1.     0.0000  0.0000  0.0000  0.0000  0.0000  0.0000  0.0000  0.0000
   2.     0.0000  0.0000  0.0000  0.0000  0.0000  0.0000  0.0000  0.0000
   3.     0.0000  0.0000  0.0000  0.0000  0.0000  0.0000  0.0000  0.0000
   4.     0.0000  0.0000  0.0000  0.0000  0.0000  0.0000  0.0000  0.0000
   5.     0.0000  0.0000  0.0000  0.0000  0.0000  0.0000  0.0000  0.0000
   6.     0.0000  0.0000  0.0000  0.0000  0.0000  0.0000  0.0000  0.0000
   7.     0.0000  0.0000  0.0000  0.0000  0.0000  0.0000  0.0000  0.0000
   8.     0.0000  0.0000  0.0000  0.0000  0.0000  0.0000  0.0000  0.0000
   9.     0.0000  0.0000  0.0000  0.0000  0.0000  0.0000  0.0000  0.0000
  10.     2.0000  0.0000  0.0000  0.0000  0.0000  0.0000  0.0000  0.0000
  11.     0.0000  2.0000  0.0000  0.0000  0.0000  0.0000  0.0000  0.0000
  12.     0.0000  0.0000  0.0000  0.0000  0.0000  0.0000  0.0000  0.0000
  13.     0.0000  0.0000  0.0000  0.0000  0.0000  0.0000  0.0000  0.0000
  14.     0.0000  0.0000  0.0000  0.0000  0.0000  0.0000  0.0000  0.0000
  15.     0.0000  0.0000  0.0000  0.0000  0.0000  0.0000  0.0000  0.0000
  16.     0.0000  0.0000  0.0000  0.0000  0.0000  0.0000  0.0000  0.0000
  17.     0.0000  0.0000  0.0000  0.0000  0.0000  0.0000  0.0000  0.0000


 NATURAL POPULATIONS:  Natural atomic orbital occupancies

  NAO Atom No lang   Type(AO)    Occupancy      Energy
 -------------------------------------------------------
   1    C  1  s      Cor( 1s)     2.00000     -10.99027
   2    C  1  s      Val( 2s)     1.06125      -0.13882
   3    C  1  px     Val( 2p)     1.32046      -0.08168
   4    C  1  py     Val( 2p)     1.01733       0.12346
   5    C  1  pz     Val( 2p)     0.93303       0.16816

   6    C  2  s      Cor( 1s)     2.00000     -11.16356
   7    C  2  s      Val( 2s)     1.06228      -0.25284
   8    C  2  px     Val( 2p)     0.93362      -0.04167
   9    C  2  py     Val( 2p)     0.74733       0.00119
  10    C  2  pz     Val( 2p)     0.85706       0.32415

  11    H  3  s      Val( 1s)     0.92714       0.08634

  12    H  4  s      Val( 1s)     0.92714       0.08634

  13    O  5  s      Cor( 1s)     2.00000     -20.22401
  14    O  5  s      Val( 2s)     1.79416      -1.10999
  15    O  5  px     Val( 2p)     1.74591      -0.36710
  16    O  5  py     Val( 2p)     1.29518      -0.21945
  17    O  5  pz     Val( 2p)     1.37811      -0.18896


 Summary of Natural Population Analysis:

                                     Natural Population
             Natural    ---------------------------------------------
  Atom No    Charge        Core      Valence    Rydberg      Total
 --------------------------------------------------------------------
    C  1   -0.33206      2.00000     4.33206    0.00000     6.33206
    C  2    0.39971      2.00000     3.60029    0.00000     5.60029
    H  3    0.07286      0.00000     0.92714    0.00000     0.92714
    H  4    0.07286      0.00000     0.92714    0.00000     0.92714
    O  5   -0.21337      2.00000     6.21337    0.00000     8.21337
 ====================================================================
 * Total *  0.00000      5.99999    16.00001    0.00000    22.00000

                                 Natural Population
 ---------------------------------------------------------
   Core                       5.99999 ( 99.9999% of    6)
   Valence                   16.00001 (100.0001% of   16)
   Natural Minimal Basis     22.00000 (100.0000% of   22)
   Natural Rydberg Basis      0.00000 (  0.0000% of   22)
 ---------------------------------------------------------

    Atom No         Natural Electron Configuration
 ----------------------------------------------------------------------------
      C  1      [core]2s( 1.06)2p( 3.27)
      C  2      [core]2s( 1.06)2p( 2.54)
      H  3            1s( 0.93)
      H  4            1s( 0.93)
      O  5      [core]2s( 1.79)2p( 4.42)


 PNAOs in the AO basis:

           AO          1       2       3       4       5       6       7       8
      ------------ ------- ------- ------- ------- ------- ------- ------- -------
   1.  C 1 (s)      0.9848 -0.3097  0.0000  0.0000  0.0000  0.0000  0.0000  0.0000
   2.  C 1 (s)      0.0554  1.0309  0.0000  0.0000  0.0000  0.0000  0.0000  0.0000
   3.  C 1 (px)     0.0000  0.0000  1.0000  0.0000  0.0000  0.0000  0.0000  0.0000
   4.  C 1 (py)     0.0000  0.0000  0.0000  1.0000  0.0000  0.0000  0.0000  0.0000
   5.  C 1 (pz)     0.0000  0.0000  0.0000  0.0000  1.0000  0.0000  0.0000  0.0000
   6.  C 2 (s)      0.0000  0.0000  0.0000  0.0000  0.0000  0.9904 -0.2912  0.0000
   7.  C 2 (s)      0.0000  0.0000  0.0000  0.0000  0.0000  0.0361  1.0317  0.0000
   8.  C 2 (px)     0.0000  0.0000  0.0000  0.0000  0.0000  0.0000  0.0000  1.0000
   9.  C 2 (py)     0.0000  0.0000  0.0000  0.0000  0.0000  0.0000  0.0000  0.0000
  10.  C 2 (pz)     0.0000  0.0000  0.0000  0.0000  0.0000  0.0000  0.0000  0.0000
  11.  H 3 (s)      0.0000  0.0000  0.0000  0.0000  0.0000  0.0000  0.0000  0.0000
  12.  H 4 (s)      0.0000  0.0000  0.0000  0.0000  0.0000  0.0000  0.0000  0.0000
  13.  O 5 (s)      0.0000  0.0000  0.0000  0.0000  0.0000  0.0000  0.0000  0.0000
  14.  O 5 (s)      0.0000  0.0000  0.0000  0.0000  0.0000  0.0000  0.0000  0.0000
  15.  O 5 (px)     0.0000  0.0000  0.0000  0.0000  0.0000  0.0000  0.0000  0.0000
  16.  O 5 (py)     0.0000  0.0000  0.0000  0.0000  0.0000  0.0000  0.0000  0.0000
  17.  O 5 (pz)     0.0000  0.0000  0.0000  0.0000  0.0000  0.0000  0.0000  0.0000

           AO          9      10      11      12      13      14      15      16
      ------------ ------- ------- ------- ------- ------- ------- ------- -------
   1.  C 1 (s)      0.0000  0.0000  0.0000  0.0000  0.0000  0.0000  0.0000  0.0000
   2.  C 1 (s)      0.0000  0.0000  0.0000  0.0000  0.0000  0.0000  0.0000  0.0000
   3.  C 1 (px)     0.0000  0.0000  0.0000  0.0000  0.0000  0.0000  0.0000  0.0000
   4.  C 1 (py)     0.0000  0.0000  0.0000  0.0000  0.0000  0.0000  0.0000  0.0000
   5.  C 1 (pz)     0.0000  0.0000  0.0000  0.0000  0.0000  0.0000  0.0000  0.0000
   6.  C 2 (s)      0.0000  0.0000  0.0000  0.0000  0.0000  0.0000  0.0000  0.0000
   7.  C 2 (s)      0.0000  0.0000  0.0000  0.0000  0.0000  0.0000  0.0000  0.0000
   8.  C 2 (px)     0.0000  0.0000  0.0000  0.0000  0.0000  0.0000  0.0000  0.0000
   9.  C 2 (py)     1.0000  0.0000  0.0000  0.0000  0.0000  0.0000  0.0000  0.0000
  10.  C 2 (pz)     0.0000  1.0000  0.0000  0.0000  0.0000  0.0000  0.0000  0.0000
  11.  H 3 (s)      0.0000  0.0000  1.0000  0.0000  0.0000  0.0000  0.0000  0.0000
  12.  H 4 (s)      0.0000  0.0000  0.0000  1.0000  0.0000  0.0000  0.0000  0.0000
  13.  O 5 (s)      0.0000  0.0000  0.0000  0.0000  0.9678 -0.3502  0.0000  0.0000
  14.  O 5 (s)      0.0000  0.0000  0.0000  0.0000  0.1112  1.0232  0.0000  0.0000
  15.  O 5 (px)     0.0000  0.0000  0.0000  0.0000  0.0000  0.0000  1.0000  0.0000
  16.  O 5 (py)     0.0000  0.0000  0.0000  0.0000  0.0000  0.0000  0.0000  1.0000
  17.  O 5 (pz)     0.0000  0.0000  0.0000  0.0000  0.0000  0.0000  0.0000  0.0000

           AO         17
      ------------ -------
   1.  C 1 (s)      0.0000
   2.  C 1 (s)      0.0000
   3.  C 1 (px)     0.0000
   4.  C 1 (py)     0.0000
   5.  C 1 (pz)     0.0000
   6.  C 2 (s)      0.0000
   7.  C 2 (s)      0.0000
   8.  C 2 (px)     0.0000
   9.  C 2 (py)     0.0000
  10.  C 2 (pz)     0.0000
  11.  H 3 (s)      0.0000
  12.  H 4 (s)      0.0000
  13.  O 5 (s)      0.0000
  14.  O 5 (s)      0.0000
  15.  O 5 (px)     0.0000
  16.  O 5 (py)     0.0000
  17.  O 5 (pz)     1.0000


 PNAO overlap matrix:

           NAO         1       2       3       4       5       6       7       8
      ------------ ------- ------- ------- ------- ------- ------- ------- -------
   1.  C 1( 1s )    1.0000  0.0000  0.0000  0.0000  0.0000  0.0049  0.0688  0.0000
   2.  C 1( 2s )    0.0000  1.0000  0.0000  0.0000  0.0000  0.0611  0.4045  0.0000
   3.  C 1( 2px)    0.0000  0.0000  1.0000  0.0000  0.0000  0.0000  0.0000  0.2466
   4.  C 1( 2py)    0.0000  0.0000  0.0000  1.0000  0.0000  0.0000  0.0000  0.0000
   5.  C 1( 2pz)    0.0000  0.0000  0.0000  0.0000  1.0000  0.0899  0.4081  0.0000
   6.  C 2( 1s )    0.0049  0.0611  0.0000  0.0000  0.0899  1.0000  0.0000  0.0000
   7.  C 2( 2s )    0.0688  0.4045  0.0000  0.0000  0.4081  0.0000  1.0000  0.0000
   8.  C 2( 2px)    0.0000  0.0000  0.2466  0.0000  0.0000  0.0000  0.0000  1.0000
   9.  C 2( 2py)    0.0000  0.0000  0.0000  0.2466  0.0000  0.0000  0.0000  0.0000
  10.  C 2( 2pz)   -0.0975 -0.4063  0.0000  0.0000 -0.3272  0.0000  0.0000  0.0000
  11.  H 3( 1s )    0.0903  0.4921  0.0000  0.4091 -0.2327  0.0106  0.1139  0.0000
  12.  H 4( 1s )    0.0903  0.4921  0.0000 -0.4091 -0.2327  0.0106  0.1139  0.0000
  13.  O 5( 1s )    0.0002  0.0036  0.0000  0.0000  0.0066  0.0074  0.0822  0.0000
  14.  O 5( 2s )    0.0014  0.0251  0.0000  0.0000  0.0427  0.0545  0.3768  0.0000
  15.  O 5( 2px)    0.0000  0.0000  0.0089  0.0000  0.0000  0.0000  0.0000  0.2251
  16.  O 5( 2py)    0.0000  0.0000  0.0000  0.0089  0.0000  0.0000  0.0000  0.0000
  17.  O 5( 2pz)   -0.0021 -0.0348  0.0000  0.0000 -0.0550 -0.0786 -0.3227  0.0000

           NAO         9      10      11      12      13      14      15      16
      ------------ ------- ------- ------- ------- ------- ------- ------- -------
   1.  C 1( 1s )    0.0000 -0.0975  0.0903  0.0903  0.0002  0.0014  0.0000  0.0000
   2.  C 1( 2s )    0.0000 -0.4063  0.4921  0.4921  0.0036  0.0251  0.0000  0.0000
   3.  C 1( 2px)    0.0000  0.0000  0.0000  0.0000  0.0000  0.0000  0.0089  0.0000
   4.  C 1( 2py)    0.2466  0.0000  0.4091 -0.4091  0.0000  0.0000  0.0000  0.0089
   5.  C 1( 2pz)    0.0000 -0.3272 -0.2327 -0.2327  0.0066  0.0427  0.0000  0.0000
   6.  C 2( 1s )    0.0000  0.0000  0.0106  0.0106  0.0074  0.0545  0.0000  0.0000
   7.  C 2( 2s )    0.0000  0.0000  0.1139  0.1139  0.0822  0.3768  0.0000  0.0000
   8.  C 2( 2px)    0.0000  0.0000  0.0000  0.0000  0.0000  0.0000  0.2251  0.0000
   9.  C 2( 2py)    1.0000  0.0000  0.0642 -0.0642  0.0000  0.0000  0.0000  0.2251
  10.  C 2( 2pz)    0.0000  1.0000 -0.1267 -0.1267  0.1159  0.4453  0.0000  0.0000
  11.  H 3( 1s )    0.0642 -0.1267  1.0000  0.1452  0.0006  0.0047  0.0000  0.0020
  12.  H 4( 1s )   -0.0642 -0.1267  0.1452  1.0000  0.0006  0.0047  0.0000 -0.0020
  13.  O 5( 1s )    0.0000  0.1159  0.0006  0.0006  1.0000  0.0000  0.0000  0.0000
  14.  O 5( 2s )    0.0000  0.4453  0.0047  0.0047  0.0000  1.0000  0.0000  0.0000
  15.  O 5( 2px)    0.0000  0.0000  0.0000  0.0000  0.0000  0.0000  1.0000  0.0000
  16.  O 5( 2py)    0.2251  0.0000  0.0020 -0.0020  0.0000  0.0000  0.0000  1.0000
  17.  O 5( 2pz)    0.0000 -0.3133 -0.0063 -0.0063  0.0000  0.0000  0.0000  0.0000

           NAO        17
      ------------ -------
   1.  C 1( 1s )   -0.0021
   2.  C 1( 2s )   -0.0348
   3.  C 1( 2px)    0.0000
   4.  C 1( 2py)    0.0000
   5.  C 1( 2pz)   -0.0550
   6.  C 2( 1s )   -0.0786
   7.  C 2( 2s )   -0.3227
   8.  C 2( 2px)    0.0000
   9.  C 2( 2py)    0.0000
  10.  C 2( 2pz)   -0.3133
  11.  H 3( 1s )   -0.0063
  12.  H 4( 1s )   -0.0063
  13.  O 5( 1s )    0.0000
  14.  O 5( 2s )    0.0000
  15.  O 5( 2px)    0.0000
  16.  O 5( 2py)    0.0000
  17.  O 5( 2pz)    1.0000


 PNAO density matrix:

           NAO         1       2       3       4       5       6       7       8
      ------------ ------- ------- ------- ------- ------- ------- ------- -------
   1.  C 1( 1s )    2.0000  0.0000  0.0000  0.0000  0.0009  0.0099  0.1369  0.0000
   2.  C 1( 2s )    0.0000  1.8284  0.0000  0.0000 -0.0034  0.1217  0.8963  0.0000
   3.  C 1( 2px)    0.0000  0.0000  1.5116  0.0000  0.0000  0.0000  0.0000  1.0809
   4.  C 1( 2py)    0.0000  0.0000  0.0000  1.6526  0.0000  0.0000  0.0000  0.0000
   5.  C 1( 2pz)    0.0009 -0.0034  0.0000  0.0000  1.6072  0.1793  0.9951  0.0000
   6.  C 2( 1s )    0.0099  0.1217  0.0000  0.0000  0.1793  2.0000  0.0000  0.0000
   7.  C 2( 2s )    0.1369  0.8963  0.0000  0.0000  0.9951  0.0000  1.7640  0.0000
   8.  C 2( 2px)    0.0000  0.0000  1.0809  0.0000  0.0000  0.0000  0.0000  1.2928
   9.  C 2( 2py)    0.0000  0.0000  0.0000  0.5435  0.0000  0.0000  0.0000  0.0000
  10.  C 2( 2pz)   -0.1951 -0.8602  0.0000  0.0000 -0.7362 -0.0010 -0.0960  0.0000
  11.  H 3( 1s )    0.1809  1.1368  0.0000  1.0487 -0.6096  0.0214  0.2052  0.0000
  12.  H 4( 1s )    0.1809  1.1368  0.0000 -1.0487 -0.6096  0.0214  0.2052  0.0000
  13.  O 5( 1s )    0.0004  0.0074  0.0000  0.0000  0.0137  0.0147  0.1639  0.0000
  14.  O 5( 2s )    0.0029  0.0511  0.0000  0.0000  0.0824  0.1092  0.7903  0.0000
  15.  O 5( 2px)    0.0000  0.0000 -0.2584  0.0000  0.0000  0.0000  0.0000  0.7825
  16.  O 5( 2py)    0.0000  0.0000  0.0000  0.0118  0.0000  0.0000  0.0000  0.0000
  17.  O 5( 2pz)   -0.0047 -0.0386  0.0000  0.0000 -0.0399 -0.1578 -0.8504  0.0000

           NAO         9      10      11      12      13      14      15      16
      ------------ ------- ------- ------- ------- ------- ------- ------- -------
   1.  C 1( 1s )    0.0000 -0.1951  0.1809  0.1809  0.0004  0.0029  0.0000  0.0000
   2.  C 1( 2s )    0.0000 -0.8602  1.1368  1.1368  0.0074  0.0511  0.0000  0.0000
   3.  C 1( 2px)    0.0000  0.0000  0.0000  0.0000  0.0000  0.0000 -0.2584  0.0000
   4.  C 1( 2py)    0.5435  0.0000  1.0487 -1.0487  0.0000  0.0000  0.0000  0.0118
   5.  C 1( 2pz)    0.0000 -0.7362 -0.6096 -0.6096  0.0137  0.0824  0.0000  0.0000
   6.  C 2( 1s )    0.0000 -0.0010  0.0214  0.0214  0.0147  0.1092  0.0000  0.0000
   7.  C 2( 2s )    0.0000 -0.0960  0.2052  0.2052  0.1639  0.7903  0.0000  0.0000
   8.  C 2( 2px)    0.0000  0.0000  0.0000  0.0000  0.0000  0.0000  0.7825  0.0000
   9.  C 2( 2py)    1.0636  0.0000  0.2534 -0.2534  0.0000  0.0000  0.0000  1.1474
  10.  C 2( 2pz)    0.0000  1.7501 -0.2575 -0.2575  0.2319  0.9406  0.0000  0.0000
  11.  H 3( 1s )    0.2534 -0.2575  1.6282  0.2782  0.0012  0.0111  0.0000 -0.1107
  12.  H 4( 1s )   -0.2534 -0.2575  0.2782  1.6282  0.0012  0.0111  0.0000  0.1107
  13.  O 5( 1s )    0.0000  0.2319  0.0012  0.0012  2.0000  0.0000  0.0000  0.0000
  14.  O 5( 2s )    0.0000  0.9406  0.0111  0.0111  0.0000  1.9884  0.0000  0.0000
  15.  O 5( 2px)    0.0000  0.0000  0.0000  0.0000  0.0000  0.0000  1.8438  0.0000
  16.  O 5( 2py)    1.1474  0.0000 -0.1107  0.1107  0.0000  0.0000  0.0000  1.4779
  17.  O 5( 2pz)    0.0000 -0.8254 -0.0302 -0.0302 -0.0001  0.0511  0.0000  0.0000

           NAO        17
      ------------ -------
   1.  C 1( 1s )   -0.0047
   2.  C 1( 2s )   -0.0386
   3.  C 1( 2px)    0.0000
   4.  C 1( 2py)    0.0000
   5.  C 1( 2pz)   -0.0399
   6.  C 2( 1s )   -0.1578
   7.  C 2( 2s )   -0.8504
   8.  C 2( 2px)    0.0000
   9.  C 2( 2py)    0.0000
  10.  C 2( 2pz)   -0.8254
  11.  H 3( 1s )   -0.0302
  12.  H 4( 1s )   -0.0302
  13.  O 5( 1s )   -0.0001
  14.  O 5( 2s )    0.0511
  15.  O 5( 2px)    0.0000
  16.  O 5( 2py)    0.0000
  17.  O 5( 2pz)    1.7587


 NAOs in the AO basis:

           AO          1       2       3       4       5       6       7       8
      ------------ ------- ------- ------- ------- ------- ------- ------- -------
   1.  C 1 (s)      0.9848 -0.3493  0.0000  0.0000 -0.0059 -0.0024  0.0103  0.0000
   2.  C 1 (s)      0.0554  1.5485  0.0000  0.0000  0.1060 -0.0001 -0.3495  0.0000
   3.  C 1 (px)     0.0000  0.0000  1.0232  0.0000  0.0000  0.0000  0.0000 -0.1417
   4.  C 1 (py)     0.0000  0.0000  0.0000  1.2352  0.0000  0.0000  0.0000  0.0000
   5.  C 1 (pz)     0.0000  0.0883  0.0000  0.0000  1.2853  0.0000 -0.3264  0.0000
   6.  C 2 (s)     -0.0024  0.0078  0.0000  0.0000 -0.0135  0.9905 -0.3164  0.0000
   7.  C 2 (s)     -0.0001 -0.3356  0.0000  0.0000 -0.3778  0.0361  1.4256  0.0000
   8.  C 2 (px)     0.0000  0.0000 -0.1220  0.0000  0.0000  0.0000  0.0000  1.0478
   9.  C 2 (py)     0.0000  0.0000  0.0000 -0.1347  0.0000  0.0000  0.0000  0.0000
  10.  C 2 (pz)     0.0000  0.3467  0.0000  0.0000  0.3323  0.0000 -0.0356  0.0000
  11.  H 3 (s)      0.0000 -0.3275  0.0000 -0.3208  0.1782  0.0000 -0.0178  0.0000
  12.  H 4 (s)      0.0000 -0.3275  0.0000  0.3208  0.1782  0.0000 -0.0178  0.0000
  13.  O 5 (s)     -0.0001  0.0015  0.0000  0.0000  0.0009 -0.0036  0.0007  0.0000
  14.  O 5 (s)      0.0000 -0.0591  0.0000  0.0000 -0.0526 -0.0004 -0.3147  0.0000
  15.  O 5 (px)     0.0000  0.0000  0.0170  0.0000  0.0000  0.0000  0.0000 -0.1328
  16.  O 5 (py)     0.0000  0.0000  0.0000  0.0192  0.0000  0.0000  0.0000  0.0000
  17.  O 5 (pz)     0.0000  0.0374  0.0000  0.0000  0.0356  0.0000  0.2338  0.0000

           AO          9      10      11      12      13      14      15      16
      ------------ ------- ------- ------- ------- ------- ------- ------- -------
   1.  C 1 (s)      0.0000  0.0064  0.0043  0.0043 -0.0001 -0.0005  0.0000  0.0000
   2.  C 1 (s)      0.0000  0.4859 -0.3852 -0.3852  0.0000 -0.0537  0.0000  0.0000
   3.  C 1 (px)     0.0000  0.0000  0.0000  0.0000  0.0000  0.0000  0.0159  0.0000
   4.  C 1 (py)    -0.1565  0.0000 -0.3133  0.3133  0.0000  0.0000  0.0000  0.0180
   5.  C 1 (pz)     0.0000  0.3861  0.1740  0.1740  0.0000 -0.0396  0.0000  0.0000
   6.  C 2 (s)      0.0000  0.0044 -0.0003 -0.0003 -0.0036  0.0047  0.0000  0.0000
   7.  C 2 (s)      0.0000 -0.0477 -0.0201 -0.0201 -0.0001 -0.2736  0.0000  0.0000
   8.  C 2 (px)     0.0000  0.0000  0.0000  0.0000  0.0000  0.0000 -0.1073  0.0000
   9.  C 2 (py)     1.0491  0.0000  0.0138 -0.0138  0.0000  0.0000  0.0000 -0.1075
  10.  C 2 (pz)     0.0000  1.5357  0.0107  0.0107  0.0000 -0.3379  0.0000  0.0000
  11.  H 3 (s)      0.0164  0.0127  1.2869 -0.0276  0.0000  0.0001  0.0000 -0.0025
  12.  H 4 (s)     -0.0164  0.0127 -0.0276  1.2869  0.0000  0.0001  0.0000  0.0025
  13.  O 5 (s)      0.0000 -0.0007 -0.0003 -0.0003  0.9678 -0.3657  0.0000  0.0000
  14.  O 5 (s)      0.0000 -0.5222  0.0002  0.0002  0.1112  1.2496  0.0000  0.0000
  15.  O 5 (px)     0.0000  0.0000  0.0000  0.0000  0.0000  0.0000  1.0188  0.0000
  16.  O 5 (py)    -0.1330  0.0000 -0.0026  0.0026  0.0000  0.0000  0.0000  1.0189
  17.  O 5 (pz)     0.0000  0.3416 -0.0003 -0.0003  0.0000 -0.1604  0.0000  0.0000

           AO         17
      ------------ -------
   1.  C 1 (s)     -0.0002
   2.  C 1 (s)      0.0423
   3.  C 1 (px)     0.0000
   4.  C 1 (py)     0.0000
   5.  C 1 (pz)     0.0335
   6.  C 2 (s)      0.0231
   7.  C 2 (s)      0.2547
   8.  C 2 (px)     0.0000
   9.  C 2 (py)     0.0000
  10.  C 2 (pz)     0.2761
  11.  H 3 (s)     -0.0003
  12.  H 4 (s)     -0.0003
  13.  O 5 (s)      0.0146
  14.  O 5 (s)     -0.1986
  15.  O 5 (px)     0.0000
  16.  O 5 (py)     0.0000
  17.  O 5 (pz)     1.1424


 NAO density matrix:

           NAO         1       2       3       4       5       6       7       8
      ------------ ------- ------- ------- ------- ------- ------- ------- -------
   1.  C 1( 1s )    2.0000  0.0000  0.0000  0.0000  0.0015  0.0000 -0.0013  0.0000
   2.  C 1( 2s )    0.0000  1.0612  0.0000  0.0000 -0.0695 -0.0014  0.4125  0.0000
   3.  C 1( 2px)    0.0000  0.0000  1.3205  0.0000  0.0000  0.0000  0.0000  0.8513
   4.  C 1( 2py)    0.0000  0.0000  0.0000  1.0173  0.0000  0.0000  0.0000  0.0000
   5.  C 1( 2pz)    0.0015 -0.0695  0.0000  0.0000  0.9330 -0.0010  0.6276  0.0000
   6.  C 2( 1s )    0.0000 -0.0014  0.0000  0.0000 -0.0010  2.0000  0.0002  0.0000
   7.  C 2( 2s )   -0.0013  0.4125  0.0000  0.0000  0.6276  0.0002  1.0623  0.0000
   8.  C 2( 2px)    0.0000  0.0000  0.8513  0.0000  0.0000  0.0000  0.0000  0.9336
   9.  C 2( 2py)    0.0000  0.0000  0.0000  0.2363  0.0000  0.0000  0.0000  0.0000
  10.  C 2( 2pz)    0.0000 -0.4013  0.0000  0.0000 -0.5066 -0.0022 -0.1200  0.0000
  11.  H 3( 1s )    0.0006  0.5735  0.0000  0.6855 -0.4071  0.0004 -0.0305  0.0000
  12.  H 4( 1s )    0.0006  0.5735  0.0000 -0.6855 -0.4071  0.0004 -0.0305  0.0000
  13.  O 5( 1s )    0.0000  0.0007  0.0000  0.0000  0.0008  0.0000 -0.0008  0.0000
  14.  O 5( 2s )    0.0003  0.0207  0.0000  0.0000  0.0010  0.0007  0.2852  0.0000
  15.  O 5( 2px)    0.0000  0.0000 -0.4155  0.0000  0.0000  0.0000  0.0000  0.5205
  16.  O 5( 2py)    0.0000  0.0000  0.0000 -0.0638  0.0000  0.0000  0.0000  0.0000
  17.  O 5( 2pz)   -0.0007  0.0457  0.0000  0.0000  0.0939 -0.0010 -0.5784  0.0000

           NAO         9      10      11      12      13      14      15      16
      ------------ ------- ------- ------- ------- ------- ------- ------- -------
   1.  C 1( 1s )    0.0000  0.0000  0.0006  0.0006  0.0000  0.0003  0.0000  0.0000
   2.  C 1( 2s )    0.0000 -0.4013  0.5735  0.5735  0.0007  0.0207  0.0000  0.0000
   3.  C 1( 2px)    0.0000  0.0000  0.0000  0.0000  0.0000  0.0000 -0.4155  0.0000
   4.  C 1( 2py)    0.2363  0.0000  0.6855 -0.6855  0.0000  0.0000  0.0000 -0.0638
   5.  C 1( 2pz)    0.0000 -0.5066 -0.4071 -0.4071  0.0008  0.0010  0.0000  0.0000
   6.  C 2( 1s )    0.0000 -0.0022  0.0004  0.0004  0.0000  0.0007  0.0000  0.0000
   7.  C 2( 2s )    0.0000 -0.1200 -0.0305 -0.0305 -0.0008  0.2852  0.0000  0.0000
   8.  C 2( 2px)    0.0000  0.0000  0.0000  0.0000  0.0000  0.0000  0.5205  0.0000
   9.  C 2( 2py)    0.7473  0.0000  0.0839 -0.0839  0.0000  0.0000  0.0000  0.9307
  10.  C 2( 2pz)    0.0000  0.8571  0.0013  0.0013  0.0006  0.4030  0.0000  0.0000
  11.  H 3( 1s )    0.0839  0.0013  0.9271 -0.0130 -0.0001  0.0089  0.0000 -0.1459
  12.  H 4( 1s )   -0.0839  0.0013 -0.0130  0.9271 -0.0001  0.0089  0.0000  0.1459
  13.  O 5( 1s )    0.0000  0.0006 -0.0001 -0.0001  2.0000  0.0000  0.0000  0.0000
  14.  O 5( 2s )    0.0000  0.4030  0.0089  0.0089  0.0000  1.7942  0.0000  0.0000
  15.  O 5( 2px)    0.0000  0.0000  0.0000  0.0000  0.0000  0.0000  1.7459  0.0000
  16.  O 5( 2py)    0.9307  0.0000 -0.1459  0.1459  0.0000  0.0000  0.0000  1.2952
  17.  O 5( 2pz)    0.0000 -0.6205 -0.0273 -0.0273 -0.0002  0.3536  0.0000  0.0000

           NAO        17
      ------------ -------
   1.  C 1( 1s )   -0.0007
   2.  C 1( 2s )    0.0457
   3.  C 1( 2px)    0.0000
   4.  C 1( 2py)    0.0000
   5.  C 1( 2pz)    0.0939
   6.  C 2( 1s )   -0.0010
   7.  C 2( 2s )   -0.5784
   8.  C 2( 2px)    0.0000
   9.  C 2( 2py)    0.0000
  10.  C 2( 2pz)   -0.6205
  11.  H 3( 1s )   -0.0273
  12.  H 4( 1s )   -0.0273
  13.  O 5( 1s )   -0.0002
  14.  O 5( 2s )    0.3536
  15.  O 5( 2px)    0.0000
  16.  O 5( 2py)    0.0000
  17.  O 5( 2pz)    1.3781


 NATURAL BOND ORBITAL ANALYSIS:

 Initiate 2-center NBO search using THRESH = 1.900 and PRJTHR = 0.300

 Search of NAO DM block for core orbitals on atom:   1
      Eigenvector ( 1) has occupancy 2.00000
            1.0000 0.0000 0.0000 0.0000 0.0000
        1 eigenvector(s) stashed in permanent list

 Search of NAO DM block for core orbitals on atom:   2
      Eigenvector ( 1) has occupancy 2.00000
            1.0000 0.0000 0.0000 0.0000 0.0000
        1 eigenvector(s) stashed in permanent list

 Search of NAO DM block for core orbitals on atom:   5
      Eigenvector ( 1) has occupancy 2.00000
            1.0000 0.0000 0.0000 0.0000 0.0000
        1 eigenvector(s) stashed in permanent list

 Core orbitals projected from the NAO density matrix
      16.000 electrons remain (>1.900); search continues

 Search of NAO DM block for the following atom(s):   1
      Select eigenvectors with eigenvalue > 1.900
       1.320 1.092 1.017 0.903 0.000

 Search of NAO DM block for the following atom(s):   2
      Select eigenvectors with eigenvalue > 1.900
       1.118 0.934 0.802 0.747 0.000

 Search of NAO DM block for the following atom(s):   5
      Select eigenvectors with eigenvalue > 1.900
       1.996 1.746 1.295 1.176 0.000
      Eigenvector ( 1) has occupancy 1.99635
            0.0000 0.8681 0.0000 0.0000 0.4964
      1 hybrid on atom 5 stashed in prospective list

 Stash prospective hybrids having projection expectation value > 0.300
       1.000
      0 hybrids eliminated in 1 pass
      1 hybrid moved from prospective to permanent list

 NHOs of 1-center eigenvectors projected from the NAO density matrix
      14.004 electrons remain (>1.900); search continues

 Search of NAO DM block for the following atom(s):   1   2
      Select eigenvectors with eigenvalue > 1.900
       2.000 2.000 1.154 1.092 0.818 0.610 0.254 0.004 0.000 0.000
      Eigenvector ( 1) has occupancy 2.00000
            0.0000 0.4105-0.0033 0.0000 0.5324 0.0000 0.5935-0.0026
            0.0000-0.4424
      Eigenvector ( 2) has occupancy 2.00000
            0.0000 0.0017 0.7815 0.0000 0.0022 0.0000 0.0025 0.6239
            0.0000-0.0019
      2 hybrids on atom 1 stashed in prospective list
      2 hybrids on atom 2 stashed in prospective list

 Search of NAO DM block for the following atom(s):   1   3
      Select eigenvectors with eigenvalue > 1.900
       1.974 1.320 1.054 0.906 0.004 0.000
      Eigenvector ( 1) has occupancy 1.97436
            0.0000 0.4520 0.0000 0.4897-0.2974 0.6837
      1 hybrid on atom 1 stashed in prospective list
      1 hybrid on atom 3 stashed in prospective list

 Search of NAO DM block for the following atom(s):   1   4
      Select eigenvectors with eigenvalue > 1.900
       1.974 1.320 1.054 0.906 0.004 0.000
      Eigenvector ( 1) has occupancy 1.97436
            0.0000 0.4520 0.0000-0.4897-0.2974 0.6837
      1 hybrid on atom 1 stashed in prospective list
      1 hybrid on atom 4 stashed in prospective list

 Search of NAO DM block for the following atom(s):   2   5
      Select eigenvectors with eigenvalue > 1.900
       2.000 2.000 1.991 1.093 0.680 0.051 0.002 0.000 0.000 0.000
      Eigenvector ( 1) has occupancy 2.00000
            0.0000 0.0000 0.4387 0.0000 0.0000 0.0000 0.0000 0.8987
            0.0000 0.0000
      Eigenvector ( 2) has occupancy 1.99989
            0.0000-0.4675 0.0000 0.0000-0.4447 0.0000-0.3792 0.0000
            0.0000 0.6632
      Eigenvector ( 3) has occupancy 1.99145
            0.0000 0.0000 0.0000 0.5990 0.0000 0.0000 0.0000 0.0000
            0.8007 0.0000
      3 hybrids on atom 2 stashed in prospective list
      3 hybrids on atom 5 stashed in prospective list

 Stash prospective hybrids having projection expectation value > 0.300
       0.988 0.988 0.988 0.988 0.000 0.000 0.000 0.000 0.000 0.000 0.000 0.000
       0.000 0.000
      10 hybrids eliminated in 2 passes
       0.990 0.990 0.990 0.990
      4 hybrids moved from prospective to permanent list

 Stash additional hybrids from high occupancy eigenvectors
       2.000 2.000 2.000 2.000 1.991
      Hybrid projection expectation values
       0.994 1.000 1.000 1.000 1.000 1.000 1.000 1.000 1.000 1.000
      Occ=2.000; Vecs=  1
       0.000 1.000 0.000 1.000 1.000 0.971 1.000 1.000 1.000 1.000
      Occ=4.000; Vecs=  1  2
       0.000 0.000 0.000 0.000 0.000 0.971 1.000 1.000 1.000 1.000
      Occ=6.000; Vecs=  1  2  4
       0.000 0.000 0.000 0.000 0.000 0.000 1.000 1.000 0.000 1.000
      Occ=7.991; Vecs=  1  2  4  5
       0.000 0.000 0.000 0.000 0.000 0.000 0.000 1.000 0.000 0.000
      49 bonding patterns considered
       0.971 1.000 0.971 1.000 0.000 0.971 1.000 0.000 0.971 1.000
       1.000 1.000 1.000 1.000 0.971 0.971 0.971 0.971
      8 additional hybrids moved from prospective to permanent list

 NHOs of 2-center eigenvectors projected from the NAO density matrix
       1.746 electrons remain in the fully projected matrix

 Search of NHO DM block for the following atom(s):   1
      Select eigenvectors with eigenvalue > 1.900
       2.000 0.000 0.000 0.000 0.000
      Eigenvector ( 1) has occupancy 2.00000
            1.0000 0.0000 0.0000 0.0000 0.0000
           NBO accepted:    1. Label:CR ( 1)   1
        1 eigenvector(s) stashed in permanent list

 Search of NHO DM block for the following atom(s):   2
      Select eigenvectors with eigenvalue > 1.900
       2.000 0.000 0.000 0.000 0.000
      Eigenvector ( 1) has occupancy 2.00000
            1.0000 0.0000 0.0000 0.0000 0.0000
           NBO accepted:    2. Label:CR ( 1)   2
        1 eigenvector(s) stashed in permanent list

 Search of NHO DM block for the following atom(s):   5
      Select eigenvectors with eigenvalue > 1.900
       2.000 1.996 0.000 0.000 0.000
      Eigenvector ( 1) has occupancy 2.00000
            1.0000 0.0000 0.0000 0.0000 0.0000
           NBO accepted:    3. Label:CR ( 1)   5
      Eigenvector ( 2) has occupancy 1.99635
            0.0000 1.0000 0.0000 0.0000 0.0000
           NBO accepted:    4. Label:LP ( 1)   5
        2 eigenvector(s) stashed in permanent list

  1-center NBOs projected from the NHO density matrix
      14.004 electrons remain (>1.900); search continues

 Search of NHO DM block for the following atom(s):   1   2
      Select eigenvectors with eigenvalue > 1.900
       2.000 1.996 0.254 0.008 0.000 0.000 0.000 0.000 0.000 0.000
      Eigenvector ( 1) has occupancy 2.00000
            0.0000 0.0000 0.0000-0.0032 0.7815 0.0000-0.0026 0.6239
            0.0000 0.0000
      Occupancy is 2.000 after deleting minor hybrid components
            0.0000 0.0000 0.0000 0.0000 0.7815 0.0000 0.0000 0.6239
            0.0000 0.0000
           NBO accepted:    5. Label:BD ( 1)   1   2
      Occupancy is 0.254 for antibonding component
            0.0000 0.0000 0.0000 0.0000-0.6239 0.0000 0.0000 0.7815
            0.0000 0.0000
           NBO accepted:    6. Label:BD*( 1)   1   2
      Eigenvector ( 2) has occupancy 1.99568
            0.0000 0.0000 0.0000 0.6738 0.0027 0.0000 0.7389 0.0031
            0.0000 0.0000
      Occupancy is 1.996 after deleting minor hybrid components
            0.0000 0.0000 0.0000 0.6738 0.0000 0.0000 0.7389 0.0000
            0.0000 0.0000
           NBO accepted:    7. Label:BD ( 2)   1   2
      Occupancy is 0.008 for antibonding component
            0.0000 0.0000 0.0000 0.7389 0.0000 0.0000-0.6738 0.0000
            0.0000 0.0000
           NBO accepted:    8. Label:BD*( 2)   1   2
        4 eigenvector(s) stashed in permanent list

 Search of NHO DM block for the following atom(s):   1   3
      Select eigenvectors with eigenvalue > 1.900
       1.973 0.005 0.000 0.000 0.000 0.000
      Eigenvector ( 1) has occupancy 1.97283
            0.0000 0.7290 0.0000 0.0000 0.0000 0.6846
      Occupancy is 1.973 after deleting minor hybrid components
            0.0000 0.7290 0.0000 0.0000 0.0000 0.6846
           NBO accepted:    9. Label:BD ( 1)   1   3
      Occupancy is 0.005 for antibonding component
            0.0000-0.6846 0.0000 0.0000 0.0000 0.7290
           NBO accepted:   10. Label:BD*( 1)   1   3
        2 eigenvector(s) stashed in permanent list

 Search of NHO DM block for the following atom(s):   1   4
      Select eigenvectors with eigenvalue > 1.900
       1.973 0.005 0.000 0.000 0.000 0.000
      Eigenvector ( 1) has occupancy 1.97283
            0.0000 0.0000 0.7290 0.0000 0.0000 0.6846
      Occupancy is 1.973 after deleting minor hybrid components
            0.0000 0.0000 0.7290 0.0000 0.0000 0.6846
           NBO accepted:   11. Label:BD ( 1)   1   4
      Occupancy is 0.005 for antibonding component
            0.0000 0.0000-0.6846 0.0000 0.0000 0.7290
           NBO accepted:   12. Label:BD*( 1)   1   4
        2 eigenvector(s) stashed in permanent list

 Search of NHO DM block for the following atom(s):   2   5
      Select eigenvectors with eigenvalue > 1.900
       1.996 1.991 0.051 0.006 0.000 0.000 0.000 0.000 0.000 0.000
      Eigenvector ( 1) has occupancy 1.99640
            0.0000 0.0000 0.0000 0.6420 0.0000 0.0000 0.0000 0.7667
            0.0000 0.0000
      Occupancy is 1.996 after deleting minor hybrid components
            0.0000 0.0000 0.0000 0.6420 0.0000 0.0000 0.0000 0.7667
            0.0000 0.0000
           NBO accepted:   13. Label:BD ( 1)   2   5
      Occupancy is 0.006 for antibonding component
            0.0000 0.0000 0.0000 0.7667 0.0000 0.0000 0.0000-0.6420
            0.0000 0.0000
           NBO accepted:   14. Label:BD*( 1)   2   5
      Eigenvector ( 2) has occupancy 1.99145
            0.0000 0.0000 0.0000 0.0000 0.5990 0.0000 0.0000 0.0000
            0.8007 0.0000
      Occupancy is 1.991 after deleting minor hybrid components
            0.0000 0.0000 0.0000 0.0000 0.5990 0.0000 0.0000 0.0000
            0.8007 0.0000
           NBO accepted:   15. Label:BD ( 2)   2   5
      Occupancy is 0.051 for antibonding component
            0.0000 0.0000 0.0000 0.0000 0.8007 0.0000 0.0000 0.0000
           -0.5990 0.0000
           NBO accepted:   16. Label:BD*( 2)   2   5
        4 eigenvector(s) stashed in permanent list

  2-center NBOs projected from the NHO density matrix
       1.746 electrons remain in the fully projected matrix

                            Occupancies       Lewis Structure    Low   High
         Max    Occ     -------------------  -----------------   occ   occ
  Cycle  Ctr   Thresh    Lewis   non-Lewis     CR  BD  nC  LP    (L)   (NL)
 ============================================================================
    1     2     1.90    21.67143   0.32857      3   6   0   2     1      1

 Initiate 2-center NBO search using THRESH = 1.740 and PRJTHR = 0.300

 Search of NAO DM block for core orbitals on atom:   1
      Eigenvector ( 1) has occupancy 2.00000
            1.0000 0.0000 0.0000 0.0000 0.0000
        1 eigenvector(s) stashed in permanent list

 Search of NAO DM block for core orbitals on atom:   2
      Eigenvector ( 1) has occupancy 2.00000
            1.0000 0.0000 0.0000 0.0000 0.0000
        1 eigenvector(s) stashed in permanent list

 Search of NAO DM block for core orbitals on atom:   5
      Eigenvector ( 1) has occupancy 2.00000
            1.0000 0.0000 0.0000 0.0000 0.0000
        1 eigenvector(s) stashed in permanent list

 Core orbitals projected from the NAO density matrix
      16.000 electrons remain (>1.740); search continues

 Search of NAO DM block for the following atom(s):   1
      Select eigenvectors with eigenvalue > 1.740
       1.320 1.092 1.017 0.903 0.000

 Search of NAO DM block for the following atom(s):   2
      Select eigenvectors with eigenvalue > 1.740
       1.118 0.934 0.802 0.747 0.000

 Search of NAO DM block for the following atom(s):   5
      Select eigenvectors with eigenvalue > 1.740
       1.996 1.746 1.295 1.176 0.000
      Eigenvector ( 1) has occupancy 1.99635
            0.0000 0.8681 0.0000 0.0000 0.4964
      Eigenvector ( 2) has occupancy 1.74591
            0.0000 0.0000 1.0000 0.0000 0.0000
      2 hybrids on atom 5 stashed in prospective list

 Stash prospective hybrids having projection expectation value > 0.300
       1.000 1.000
      0 hybrids eliminated in 1 pass
      2 hybrids moved from prospective to permanent list

 NHOs of 1-center eigenvectors projected from the NAO density matrix
      12.258 electrons remain (>1.740); search continues

 Search of NAO DM block for the following atom(s):   1   2
      Select eigenvectors with eigenvalue > 1.740
       2.000 2.000 1.154 1.092 0.818 0.610 0.254 0.004 0.000 0.000
      Eigenvector ( 1) has occupancy 2.00000
            0.0000 0.4105-0.0033 0.0000 0.5324 0.0000 0.5935-0.0026
            0.0000-0.4424
      Eigenvector ( 2) has occupancy 2.00000
            0.0000 0.0017 0.7815 0.0000 0.0022 0.0000 0.0025 0.6239
            0.0000-0.0019
      2 hybrids on atom 1 stashed in prospective list
      2 hybrids on atom 2 stashed in prospective list

 Search of NAO DM block for the following atom(s):   1   3
      Select eigenvectors with eigenvalue > 1.740
       1.974 1.320 1.054 0.906 0.004 0.000
      Eigenvector ( 1) has occupancy 1.97436
            0.0000 0.4520 0.0000 0.4897-0.2974 0.6837
      1 hybrid on atom 1 stashed in prospective list
      1 hybrid on atom 3 stashed in prospective list

 Search of NAO DM block for the following atom(s):   1   4
      Select eigenvectors with eigenvalue > 1.740
       1.974 1.320 1.054 0.906 0.004 0.000
      Eigenvector ( 1) has occupancy 1.97436
            0.0000 0.4520 0.0000-0.4897-0.2974 0.6837
      1 hybrid on atom 1 stashed in prospective list
      1 hybrid on atom 4 stashed in prospective list

 Search of NAO DM block for the following atom(s):   2   5
      Select eigenvectors with eigenvalue > 1.740
       2.000 1.991 1.093 0.934 0.051 0.002 0.000 0.000 0.000 0.000
      Eigenvector ( 1) has occupancy 1.99989
            0.0000-0.4675 0.0000 0.0000-0.4447 0.0000-0.3792 0.0000
            0.0000 0.6632
      Eigenvector ( 2) has occupancy 1.99145
            0.0000 0.0000 0.0000 0.5990 0.0000 0.0000 0.0000 0.0000
            0.8007 0.0000
      2 hybrids on atom 2 stashed in prospective list
      2 hybrids on atom 5 stashed in prospective list

 Stash prospective hybrids having projection expectation value > 0.300
       1.000 1.000 1.000 1.000 0.988 0.988 0.988 0.988 0.971 0.971 0.971 0.971
      0 hybrids eliminated in 1 pass
      12 hybrids moved from prospective to permanent list

 NHOs of 2-center eigenvectors projected from the NAO density matrix
       0.000 electrons remain in the fully projected matrix

 Search of NHO DM block for the following atom(s):   1
      Select eigenvectors with eigenvalue > 1.740
       2.000 0.000 0.000 0.000 0.000
      Eigenvector ( 1) has occupancy 2.00000
            1.0000 0.0000 0.0000 0.0000 0.0000
           NBO accepted:    1. Label:CR ( 1)   1
        1 eigenvector(s) stashed in permanent list

 Search of NHO DM block for the following atom(s):   2
      Select eigenvectors with eigenvalue > 1.740
       2.000 0.000 0.000 0.000 0.000
      Eigenvector ( 1) has occupancy 2.00000
            1.0000 0.0000 0.0000 0.0000 0.0000
           NBO accepted:    2. Label:CR ( 1)   2
        1 eigenvector(s) stashed in permanent list

 Search of NHO DM block for the following atom(s):   5
      Select eigenvectors with eigenvalue > 1.740
       2.000 1.996 1.746 0.000 0.000
      Eigenvector ( 1) has occupancy 2.00000
            1.0000 0.0000 0.0000 0.0000 0.0000
           NBO accepted:    3. Label:CR ( 1)   5
      Eigenvector ( 2) has occupancy 1.99635
            0.0000 1.0000 0.0000 0.0000 0.0000
           NBO accepted:    4. Label:LP ( 1)   5
      Eigenvector ( 3) has occupancy 1.74591
            0.0000 0.0000 1.0000 0.0000 0.0000
           NBO accepted:    5. Label:LP ( 2)   5
        3 eigenvector(s) stashed in permanent list

  1-center NBOs projected from the NHO density matrix
      12.258 electrons remain (>1.740); search continues

 Search of NHO DM block for the following atom(s):   1   2
      Select eigenvectors with eigenvalue > 1.740
       2.000 1.996 0.254 0.008 0.000 0.000 0.000 0.000 0.000 0.000
      Eigenvector ( 1) has occupancy 2.00000
            0.0000 0.7815 0.0000 0.0000-0.0032 0.0000 0.0000 0.6239
            0.0000-0.0026
      Occupancy is 2.000 after deleting minor hybrid components
            0.0000 0.7815 0.0000 0.0000 0.0000 0.0000 0.0000 0.6239
            0.0000 0.0000
           NBO accepted:    6. Label:BD ( 1)   1   2
      Occupancy is 0.254 for antibonding component
            0.0000-0.6239 0.0000 0.0000 0.0000 0.0000 0.0000 0.7815
            0.0000 0.0000
           NBO accepted:    7. Label:BD*( 1)   1   2
      Eigenvector ( 2) has occupancy 1.99568
            0.0000 0.0027 0.0000 0.0000 0.6738 0.0000 0.0000 0.0031
            0.0000 0.7389
      Occupancy is 1.996 after deleting minor hybrid components
            0.0000 0.0000 0.0000 0.0000 0.6738 0.0000 0.0000 0.0000
            0.0000 0.7389
           NBO accepted:    8. Label:BD ( 2)   1   2
      Occupancy is 0.008 for antibonding component
            0.0000 0.0000 0.0000 0.0000 0.7389 0.0000 0.0000 0.0000
            0.0000-0.6738
           NBO accepted:    9. Label:BD*( 2)   1   2
        4 eigenvector(s) stashed in permanent list

 Search of NHO DM block for the following atom(s):   1   3
      Select eigenvectors with eigenvalue > 1.740
       1.973 0.005 0.000 0.000 0.000 0.000
      Eigenvector ( 1) has occupancy 1.97283
            0.0000 0.0000 0.7290 0.0000 0.0000 0.6846
      Occupancy is 1.973 after deleting minor hybrid components
            0.0000 0.0000 0.7290 0.0000 0.0000 0.6846
           NBO accepted:   10. Label:BD ( 1)   1   3
      Occupancy is 0.005 for antibonding component
            0.0000 0.0000-0.6846 0.0000 0.0000 0.7290
           NBO accepted:   11. Label:BD*( 1)   1   3
        2 eigenvector(s) stashed in permanent list

 Search of NHO DM block for the following atom(s):   1   4
      Select eigenvectors with eigenvalue > 1.740
       1.973 0.005 0.000 0.000 0.000 0.000
      Eigenvector ( 1) has occupancy 1.97283
            0.0000 0.0000 0.0000 0.7290 0.0000 0.6846
      Occupancy is 1.973 after deleting minor hybrid components
            0.0000 0.0000 0.0000 0.7290 0.0000 0.6846
           NBO accepted:   12. Label:BD ( 1)   1   4
      Occupancy is 0.005 for antibonding component
            0.0000 0.0000 0.0000-0.6846 0.0000 0.7290
           NBO accepted:   13. Label:BD*( 1)   1   4
        2 eigenvector(s) stashed in permanent list

 Search of NHO DM block for the following atom(s):   2   5
      Select eigenvectors with eigenvalue > 1.740
       1.996 1.991 0.051 0.006 0.000 0.000 0.000 0.000 0.000 0.000
      Eigenvector ( 1) has occupancy 1.99640
            0.0000 0.0000 0.0000 0.6420 0.0000 0.0000 0.0000 0.0000
            0.0000 0.7667
      Occupancy is 1.996 after deleting minor hybrid components
            0.0000 0.0000 0.0000 0.6420 0.0000 0.0000 0.0000 0.0000
            0.0000 0.7667
           NBO accepted:   14. Label:BD ( 1)   2   5
      Occupancy is 0.006 for antibonding component
            0.0000 0.0000 0.0000 0.7667 0.0000 0.0000 0.0000 0.0000
            0.0000-0.6420
           NBO accepted:   15. Label:BD*( 1)   2   5
      Eigenvector ( 2) has occupancy 1.99145
            0.0000 0.5990 0.0000 0.0000 0.0000 0.0000 0.0000 0.0000
            0.8007 0.0000
      Occupancy is 1.991 after deleting minor hybrid components
            0.0000 0.5990 0.0000 0.0000 0.0000 0.0000 0.0000 0.0000
            0.8007 0.0000
           NBO accepted:   16. Label:BD ( 2)   2   5
      Occupancy is 0.051 for antibonding component
            0.0000 0.8007 0.0000 0.0000 0.0000 0.0000 0.0000 0.0000
           -0.5990 0.0000
           NBO accepted:   17. Label:BD*( 2)   2   5
        4 eigenvector(s) stashed in permanent list

  2-center NBOs projected from the NHO density matrix
       0.000 electrons remain in the fully projected matrix

                            Occupancies       Lewis Structure    Low   High
         Max    Occ     -------------------  -----------------   occ   occ
  Cycle  Ctr   Thresh    Lewis   non-Lewis     CR  BD  nC  LP    (L)   (NL)
 ============================================================================
    2     2     1.74    21.67143   0.32857      3   6   0   2     0      1

 Initiate 2-center NBO search using THRESH = 1.900 and PRJTHR = 0.300

 Search of NAO DM block for core orbitals on atom:   1
      Eigenvector ( 1) has occupancy 2.00000
            1.0000 0.0000 0.0000 0.0000 0.0000
        1 eigenvector(s) stashed in permanent list

 Search of NAO DM block for core orbitals on atom:   2
      Eigenvector ( 1) has occupancy 2.00000
            1.0000 0.0000 0.0000 0.0000 0.0000
        1 eigenvector(s) stashed in permanent list

 Search of NAO DM block for core orbitals on atom:   5
      Eigenvector ( 1) has occupancy 2.00000
            1.0000 0.0000 0.0000 0.0000 0.0000
        1 eigenvector(s) stashed in permanent list

 Core orbitals projected from the NAO density matrix
      16.000 electrons remain (>1.900); search continues

 Search of NAO DM block for the following atom(s):   1
      Select eigenvectors with eigenvalue > 1.900
       1.320 1.092 1.017 0.903 0.000

 Search of NAO DM block for the following atom(s):   2
      Select eigenvectors with eigenvalue > 1.900
       1.118 0.934 0.802 0.747 0.000

 Search of NAO DM block for the following atom(s):   5
      Select eigenvectors with eigenvalue > 1.900
       1.996 1.746 1.295 1.176 0.000
      Eigenvector ( 1) has occupancy 1.99635
            0.0000 0.8681 0.0000 0.0000 0.4964
      1 hybrid on atom 5 stashed in prospective list

 Stash prospective hybrids having projection expectation value > 0.300
       1.000
      0 hybrids eliminated in 1 pass
      1 hybrid moved from prospective to permanent list

 NHOs of 1-center eigenvectors projected from the NAO density matrix
      14.004 electrons remain (>1.900); search continues

 Search of NAO DM block for the following atom(s):   1   2
      Select eigenvectors with eigenvalue > 1.900
       2.000 2.000 1.154 1.092 0.818 0.610 0.254 0.004 0.000 0.000
      Eigenvector ( 1) has occupancy 2.00000
            0.0000 0.4105-0.0033 0.0000 0.5324 0.0000 0.5935-0.0026
            0.0000-0.4424
      Eigenvector ( 2) has occupancy 2.00000
            0.0000 0.0017 0.7815 0.0000 0.0022 0.0000 0.0025 0.6239
            0.0000-0.0019
      2 hybrids on atom 1 stashed in prospective list
[...]
      Select eigenvectors with eigenvalue > 1.900
       1.974 1.320 1.054 0.906 0.004 0.000
      Eigenvector ( 1) has occupancy 1.97436
            0.0000 0.4520 0.0000 0.4897-0.2974 0.6837
      1 hybrid on atom 1 stashed in prospective list
      1 hybrid on atom 3 stashed in prospective list

 Search of NAO DM block for the following atom(s):   1   4
      Select eigenvectors with eigenvalue > 1.900
       1.974 1.320 1.054 0.906 0.004 0.000
      Eigenvector ( 1) has occupancy 1.97436
            0.0000 0.4520 0.0000-0.4897-0.2974 0.6837
      1 hybrid on atom 1 stashed in prospective list
      1 hybrid on atom 4 stashed in prospective list

 Search of NAO DM block for the following atom(s):   2   5
      Select eigenvectors with eigenvalue > 1.900
       2.000 2.000 1.991 1.093 0.680 0.051 0.002 0.000 0.000 0.000
      Eigenvector ( 1) has occupancy 2.00000
            0.0000 0.0000 0.4387 0.0000 0.0000 0.0000 0.0000 0.8987
            0.0000 0.0000
      Eigenvector ( 2) has occupancy 1.99989
            0.0000-0.4675 0.0000 0.0000-0.4447 0.0000-0.3792 0.0000
            0.0000 0.6632
      Eigenvector ( 3) has occupancy 1.99145
            0.0000 0.0000 0.0000 0.5990 0.0000 0.0000 0.0000 0.0000
            0.8007 0.0000
      3 hybrids on atom 2 stashed in prospective list
      3 hybrids on atom 5 stashed in prospective list

 Stash prospective hybrids having projection expectation value > 0.300
       0.988 0.988 0.988 0.988 0.000 0.000 0.000 0.000 0.000 0.000 0.000 0.000
       0.000 0.000
      10 hybrids eliminated in 2 passes
       0.990 0.990 0.990 0.990
      4 hybrids moved from prospective to permanent list

 Stash additional hybrids from high occupancy eigenvectors
       2.000 2.000 2.000 2.000 1.991
      Hybrid projection expectation values
       0.994 1.000 1.000 1.000 1.000 1.000 1.000 1.000 1.000 1.000
      Occ=2.000; Vecs=  1
       0.000 1.000 0.000 1.000 1.000 0.971 1.000 1.000 1.000 1.000
      Occ=4.000; Vecs=  1  2
       0.000 0.000 0.000 0.000 0.000 0.971 1.000 1.000 1.000 1.000
      Occ=6.000; Vecs=  1  2  4
       0.000 0.000 0.000 0.000 0.000 0.000 1.000 1.000 0.000 1.000
      Occ=7.991; Vecs=  1  2  4  5
       0.000 0.000 0.000 0.000 0.000 0.000 0.000 1.000 0.000 0.000
      49 bonding patterns considered
       0.971 1.000 0.971 1.000 0.000 0.971 1.000 0.000 0.971 1.000
       1.000 1.000 1.000 1.000 0.971 0.971 0.971 0.971
      8 additional hybrids moved from prospective to permanent list

 NHOs of 2-center eigenvectors projected from the NAO density matrix
       1.746 electrons remain in the fully projected matrix

 Search of NHO DM block for the following atom(s):   1
      Select eigenvectors with eigenvalue > 1.900
       2.000 0.000 0.000 0.000 0.000
      Eigenvector ( 1) has occupancy 2.00000
            1.0000 0.0000 0.0000 0.0000 0.0000
           NBO accepted:    1. Label:CR ( 1)   1
        1 eigenvector(s) stashed in permanent list

 Search of NHO DM block for the following atom(s):   2
      Select eigenvectors with eigenvalue > 1.900
       2.000 0.000 0.000 0.000 0.000
      Eigenvector ( 1) has occupancy 2.00000
            1.0000 0.0000 0.0000 0.0000 0.0000
           NBO accepted:    2. Label:CR ( 1)   2
        1 eigenvector(s) stashed in permanent list

 Search of NHO DM block for the following atom(s):   5
      Select eigenvectors with eigenvalue > 1.900
       2.000 1.996 0.000 0.000 0.000
      Eigenvector ( 1) has occupancy 2.00000
            1.0000 0.0000 0.0000 0.0000 0.0000
           NBO accepted:    3. Label:CR ( 1)   5
      Eigenvector ( 2) has occupancy 1.99635
            0.0000 1.0000 0.0000 0.0000 0.0000
           NBO accepted:    4. Label:LP ( 1)   5
        2 eigenvector(s) stashed in permanent list

  1-center NBOs projected from the NHO density matrix
      14.004 electrons remain (>1.900); search continues

 Search of NHO DM block for the following atom(s):   1   2
      Select eigenvectors with eigenvalue > 1.900
       2.000 1.996 0.254 0.008 0.000 0.000 0.000 0.000 0.000 0.000
      Eigenvector ( 1) has occupancy 2.00000
            0.0000 0.0000 0.0000-0.0032 0.7815 0.0000-0.0026 0.6239
            0.0000 0.0000
      Occupancy is 2.000 after deleting minor hybrid components
            0.0000 0.0000 0.0000 0.0000 0.7815 0.0000 0.0000 0.6239
            0.0000 0.0000
           NBO accepted:    5. Label:BD ( 1)   1   2
      Occupancy is 0.254 for antibonding component
            0.0000 0.0000 0.0000 0.0000-0.6239 0.0000 0.0000 0.7815
            0.0000 0.0000
           NBO accepted:    6. Label:BD*( 1)   1   2
      Eigenvector ( 2) has occupancy 1.99568
            0.0000 0.0000 0.0000 0.6738 0.0027 0.0000 0.7389 0.0031
            0.0000 0.0000
      Occupancy is 1.996 after deleting minor hybrid components
            0.0000 0.0000 0.0000 0.6738 0.0000 0.0000 0.7389 0.0000
            0.0000 0.0000
           NBO accepted:    7. Label:BD ( 2)   1   2
      Occupancy is 0.008 for antibonding component
            0.0000 0.0000 0.0000 0.7389 0.0000 0.0000-0.6738 0.0000
            0.0000 0.0000
           NBO accepted:    8. Label:BD*( 2)   1   2
        4 eigenvector(s) stashed in permanent list

 Search of NHO DM block for the following atom(s):   1   3
      Select eigenvectors with eigenvalue > 1.900
       1.973 0.005 0.000 0.000 0.000 0.000
      Eigenvector ( 1) has occupancy 1.97283
            0.0000 0.7290 0.0000 0.0000 0.0000 0.6846
      Occupancy is 1.973 after deleting minor hybrid components
            0.0000 0.7290 0.0000 0.0000 0.0000 0.6846
           NBO accepted:    9. Label:BD ( 1)   1   3
      Occupancy is 0.005 for antibonding component
            0.0000-0.6846 0.0000 0.0000 0.0000 0.7290
           NBO accepted:   10. Label:BD*( 1)   1   3
        2 eigenvector(s) stashed in permanent list

 Search of NHO DM block for the following atom(s):   1   4
      Select eigenvectors with eigenvalue > 1.900
       1.973 0.005 0.000 0.000 0.000 0.000
      Eigenvector ( 1) has occupancy 1.97283
            0.0000 0.0000 0.7290 0.0000 0.0000 0.6846
      Occupancy is 1.973 after deleting minor hybrid components
            0.0000 0.0000 0.7290 0.0000 0.0000 0.6846
           NBO accepted:   11. Label:BD ( 1)   1   4
      Occupancy is 0.005 for antibonding component
            0.0000 0.0000-0.6846 0.0000 0.0000 0.7290
           NBO accepted:   12. Label:BD*( 1)   1   4
        2 eigenvector(s) stashed in permanent list

 Search of NHO DM block for the following atom(s):   2   5
      Select eigenvectors with eigenvalue > 1.900
       1.996 1.991 0.051 0.006 0.000 0.000 0.000 0.000 0.000 0.000
      Eigenvector ( 1) has occupancy 1.99640
            0.0000 0.0000 0.0000 0.6420 0.0000 0.0000 0.0000 0.7667
            0.0000 0.0000
      Occupancy is 1.996 after deleting minor hybrid components
            0.0000 0.0000 0.0000 0.6420 0.0000 0.0000 0.0000 0.7667
            0.0000 0.0000
           NBO accepted:   13. Label:BD ( 1)   2   5
      Occupancy is 0.006 for antibonding component
            0.0000 0.0000 0.0000 0.7667 0.0000 0.0000 0.0000-0.6420
            0.0000 0.0000
           NBO accepted:   14. Label:BD*( 1)   2   5
      Eigenvector ( 2) has occupancy 1.99145
            0.0000 0.0000 0.0000 0.0000 0.5990 0.0000 0.0000 0.0000
            0.8007 0.0000
      Occupancy is 1.991 after deleting minor hybrid components
            0.0000 0.0000 0.0000 0.0000 0.5990 0.0000 0.0000 0.0000
            0.8007 0.0000
           NBO accepted:   15. Label:BD ( 2)   2   5
      Occupancy is 0.051 for antibonding component
            0.0000 0.0000 0.0000 0.0000 0.8007 0.0000 0.0000 0.0000
           -0.5990 0.0000
           NBO accepted:   16. Label:BD*( 2)   2   5
        4 eigenvector(s) stashed in permanent list

  2-center NBOs projected from the NHO density matrix
       1.746 electrons remain in the fully projected matrix

                            Occupancies       Lewis Structure    Low   High
         Max    Occ     -------------------  -----------------   occ   occ
  Cycle  Ctr   Thresh    Lewis   non-Lewis     CR  BD  nC  LP    (L)   (NL)
 ============================================================================
    3     2     1.90    21.67143   0.32857      3   6   0   2     1      1
 ----------------------------------------------------------------------------

 Strongly delocalized structure accepted

 -------------------------------------------------------
   Core                      5.99999 (100.000% of   6)
   Valence Lewis            15.67144 ( 97.946% of  16)
  ==================      =============================
   Total Lewis              21.67143 ( 98.507% of  22)
  -----------------------------------------------------
   Valence non-Lewis         0.32857 (  1.493% of  22)
   Rydberg non-Lewis         0.00000 (  0.000% of  22)
  ==================      =============================
   Total non-Lewis           0.32857 (  1.493% of  22)
 -------------------------------------------------------


     (Occupancy)   Bond orbital / Coefficients / Hybrids
 ------------------ Lewis ------------------------------------------------------
   1. (2.00000) CR ( 1) C  1            s(100.00%)
                                         1.0000  0.0000  0.0000  0.0000  0.0000
   2. (2.00000) CR ( 1) C  2            s(100.00%)
                                         1.0000  0.0000  0.0000  0.0000  0.0000
   3. (2.00000) CR ( 1) O  5            s(100.00%)
                                         1.0000  0.0000  0.0000  0.0000  0.0000
   4. (1.99635) LP ( 1) O  5            s( 75.36%)p 0.33( 24.64%)
                                         0.0000  0.8681  0.0000  0.0000  0.4964
   5. (1.74591) LP ( 2) O  5            s(  0.00%)p 1.00(100.00%)
                                         0.0000  0.0000  1.0000  0.0000  0.0000
   6. (2.00000) BD ( 1) C  1- C  2
               ( 61.08%)   0.7815* C  1 s(  0.00%)p 1.00(100.00%)
                                         0.0000  0.0024  1.0000  0.0000  0.0034
               ( 38.92%)   0.6239* C  2 s(  0.00%)p 1.00(100.00%)
                                         0.0000  0.0032  1.0000  0.0000 -0.0028
   7. (1.99568) BD ( 2) C  1- C  2
               ( 45.40%)   0.6738* C  1 s( 33.37%)p 2.00( 66.63%)
                                         0.0000  0.5776 -0.0041  0.0000  0.8163
               ( 54.60%)   0.7389* C  2 s( 57.10%)p 0.75( 42.90%)
                                         0.0000  0.7556 -0.0042  0.0000 -0.6550
   8. (1.97283) BD ( 1) C  1- H  3
               ( 53.14%)   0.7290* C  1 s( 33.32%)p 2.00( 66.68%)
                                         0.0000  0.5772  0.0000  0.7071 -0.4084
               ( 46.86%)   0.6846* H  3 s(100.00%)
                                         1.0000
   9. (1.97283) BD ( 1) C  1- H  4
               ( 53.14%)   0.7290* C  1 s( 33.32%)p 2.00( 66.68%)
                                         0.0000  0.5772  0.0000 -0.7071 -0.4084
               ( 46.86%)   0.6846* H  4 s(100.00%)
                                         1.0000
  10. (1.99640) BD ( 1) C  2- O  5
               ( 41.22%)   0.6420* C  2 s( 42.90%)p 1.33( 57.10%)
                                         0.0000  0.6550  0.0000  0.0000  0.7556
               ( 58.78%)   0.7667* O  5 s( 24.64%)p 3.06( 75.36%)
                                         0.0000  0.4964  0.0000  0.0000 -0.8681
  11. (1.99145) BD ( 2) C  2- O  5
               ( 35.88%)   0.5990* C  2 s(  0.00%)p 1.00(100.00%)
                                         0.0000  0.0000  0.0000  1.0000  0.0000
               ( 64.12%)   0.8007* O  5 s(  0.00%)p 1.00(100.00%)
                                         0.0000  0.0000  0.0000  1.0000  0.0000
 ---------------- non-Lewis ----------------------------------------------------
  12. (0.25409) BD*( 1) C  1- C  2
               ( 38.92%)   0.6239* C  1 s(  0.00%)p 1.00(100.00%)
                                         0.0000 -0.0024 -1.0000  0.0000 -0.0034
               ( 61.08%)  -0.7815* C  2 s(  0.00%)p 1.00(100.00%)
                                         0.0000 -0.0032 -1.0000  0.0000  0.0028
  13. (0.00762) BD*( 2) C  1- C  2
               ( 54.60%)   0.7389* C  1 s( 33.37%)p 2.00( 66.63%)
                                         0.0000 -0.5776  0.0041  0.0000 -0.8163
               ( 45.40%)  -0.6738* C  2 s( 57.10%)p 0.75( 42.90%)
                                         0.0000 -0.7556  0.0042  0.0000  0.6550
  14. (0.00499) BD*( 1) C  1- H  3
               ( 46.86%)   0.6846* C  1 s( 33.32%)p 2.00( 66.68%)
                                         0.0000 -0.5772  0.0000 -0.7071  0.4084
               ( 53.14%)  -0.7290* H  3 s(100.00%)
                                        -1.0000
  15. (0.00499) BD*( 1) C  1- H  4
               ( 46.86%)   0.6846* C  1 s( 33.32%)p 2.00( 66.68%)
                                         0.0000 -0.5772  0.0000  0.7071  0.4084
               ( 53.14%)  -0.7290* H  4 s(100.00%)
                                        -1.0000
  16. (0.00582) BD*( 1) C  2- O  5
               ( 58.78%)   0.7667* C  2 s( 42.90%)p 1.33( 57.10%)
                                         0.0000  0.6550  0.0000  0.0000  0.7556
               ( 41.22%)  -0.6420* O  5 s( 24.64%)p 3.06( 75.36%)
                                         0.0000  0.4964  0.0000  0.0000 -0.8681
  17. (0.05107) BD*( 2) C  2- O  5
               ( 64.12%)   0.8007* C  2 s(  0.00%)p 1.00(100.00%)
                                         0.0000  0.0000  0.0000  1.0000  0.0000
               ( 35.88%)  -0.5990* O  5 s(  0.00%)p 1.00(100.00%)
                                         0.0000  0.0000  0.0000  1.0000  0.0000


 NHO DIRECTIONALITY AND BOND BENDING (deviation from line of nuclear centers at
                                      the position of maximum hybrid amplitude)

         [Thresholds for printing:  angular deviation  >  1.0 degree]
                                    p- or d-character  > 25.0%
                                    orbital occupancy  >  0.10e

                        Line of Centers        Hybrid 1             Hybrid 2
                        ---------------  -------------------  ------------------
           NBO            Theta   Phi    Theta   Phi    Dev   Theta   Phi    Dev
 ===============================================================================
   5. LP ( 2) O  5          --     --     89.9  180.0   --      --     --    --
   6. BD ( 1) C  1- C  2    0.0    0.0    90.0    0.0  90.0    90.2    0.0  89.8
  11. BD ( 2) C  2- O  5    0.0    0.0    90.0   90.0  90.0    89.9   90.0  90.1


 SECOND ORDER PERTURBATION THEORY ANALYSIS OF FOCK MATRIX IN NBO BASIS

     Threshold for printing:   0.50 kcal/mol
                                                          E(2) E(NL)-E(L) F(L,NL)
      Donor (L) NBO              Acceptor (NL) NBO      kcal/mol   a.u.    a.u.
 ===============================================================================

 within unit  1
    4. LP ( 1) O  5            13. BD*( 2) C  1- C  2      2.71    1.97   0.065
    5. LP ( 2) O  5            12. BD*( 1) C  1- C  2    153.16    0.61   0.273
    6. BD ( 1) C  1- C  2      12. BD*( 1) C  1- C  2      4.95    0.61   0.049
    7. BD ( 2) C  1- C  2      16. BD*( 1) C  2- O  5      3.63    1.82   0.073
    8. BD ( 1) C  1- H  3      15. BD*( 1) C  1- H  4      0.64    1.38   0.027
    8. BD ( 1) C  1- H  3      16. BD*( 1) C  2- O  5      0.76    1.59   0.031
    8. BD ( 1) C  1- H  3      17. BD*( 2) C  2- O  5     12.69    0.92   0.096
    9. BD ( 1) C  1- H  4      14. BD*( 1) C  1- H  3      0.64    1.38   0.027
    9. BD ( 1) C  1- H  4      16. BD*( 1) C  2- O  5      0.76    1.59   0.031
    9. BD ( 1) C  1- H  4      17. BD*( 2) C  2- O  5     12.69    0.92   0.096
   10. BD ( 1) C  2- O  5      13. BD*( 2) C  1- C  2      2.91    2.10   0.070
   11. BD ( 2) C  2- O  5      14. BD*( 1) C  1- H  3      3.58    1.24   0.059
   11. BD ( 2) C  2- O  5      15. BD*( 1) C  1- H  4      3.58    1.24   0.059


 NATURAL BOND ORBITALS (Summary):

                                                     Principal Delocalizations
           NBO                 Occupancy    Energy   (geminal,vicinal,remote)
 ===============================================================================
 Molecular unit  1  (C2H2O)
 ------ Lewis --------------------------------------
    1. CR ( 1) C  1             2.00000   -10.99027
    2. CR ( 1) C  2             2.00000   -11.16356
    3. CR ( 1) O  5             2.00000   -20.22401
    4. LP ( 1) O  5             1.99635    -1.00977  13(v)
    5. LP ( 2) O  5             1.74591    -0.36710  12(v)
    6. BD ( 1) C  1- C  2       2.00000    -0.36853  12(g)
    7. BD ( 2) C  1- C  2       1.99568    -0.86201  16(g)
    8. BD ( 1) C  1- H  3       1.97283    -0.63603  17(v),16(v),15(g)
    9. BD ( 1) C  1- H  4       1.97283    -0.63603  17(v),16(v),14(g)
   10. BD ( 1) C  2- O  5       1.99640    -1.14892  13(g)
   11. BD ( 2) C  2- O  5       1.99145    -0.49915  14(v),15(v)
 ------ non-Lewis ----------------------------------
   12. BD*( 1) C  1- C  2       0.25409     0.24518
   13. BD*( 2) C  1- C  2       0.00762     0.95540
   14. BD*( 1) C  1- H  3       0.00499     0.73939
   15. BD*( 1) C  1- H  4       0.00499     0.73939
   16. BD*( 1) C  2- O  5       0.00582     0.95641
   17. BD*( 2) C  2- O  5       0.05107     0.28088
          -------------------------------
                 Total Lewis   21.67143  ( 98.5065%)
           Valence non-Lewis    0.32857  (  1.4935%)
           Rydberg non-Lewis    0.00000  (  0.0000%)
          -------------------------------
               Total unit  1   22.00000  (100.0000%)
              Charge unit  1    0.00000

 $CHOOSE
   LONE 5 2 END
   BOND D 1 2 S 1 3 S 1 4 D 2 5 END
 $END

 NBO analysis completed in 0.25 CPU seconds (0 wall seconds)
 Maximum scratch memory used by NBO was 223494 words (1.71 MB)
 Maximum scratch memory used by G16NBO was 8640 words (0.07 MB)

 Opening RunExU unformatted file "/cluster/work/users/beto93/mol109/Gau-1335981.EUF"
 Read unf file /cluster/work/users/beto93/mol109/Gau-1335981.EUF:
 Label Gaussian matrix elements                                         IVers= 2 NLab= 2 Version=ES64L-G16RevC.01
 Title mol109-NBO                                                      
 NAtoms=     5 NBasis=    17 NBsUse=    17 ICharg=     0 Multip=     1 NE=    22 Len12L=8 Len4L=8 IOpCl= 0 ICGU=111
 GAUSSIAN SCALARS                    NI= 1 NR= 1 NTot=       1 LenBuf=    2 NRI=1 N=    1000
 NPA CHARGES                         NI= 0 NR= 1 NTot=       5 LenBuf= 4000 NRI=1 N=       5
 Recovered energy= -149.725522999     dipole=      0.000000000000      0.000000000000     -0.303384848851
 Unable to Open any file for archive entry.
 1\1\GINC-C5-22\SP\RHF\STO-3G\C2H2O1\BETO93\18-Nov-2024\0\\#RHF/STO-3G 
 int=nobasistransform Symmetry=None 5D 7F Pop=NBO7Read\\mol109-NBO\\0,1
 \C,0,0.,0.,-1.21934\C,0,0.,0.,0.09892\H,0,0.,0.938847,-1.753224\H,0,0.
 ,-0.938847,-1.753224\O,0,0.,0.,1.27862\\Version=ES64L-G16RevC.01\HF=-1
 49.725523\RMSD=2.856e-09\Dipole=0.,0.,-0.3033848\Quadrupole=-0.1641896
 ,1.4016312,-1.2374416,0.,0.,0.\PG=Unknown\\@
 The archive entry for this job was punched.


 WE HAVE SEEN THAT MAN ON THE AVERAGE DOES NOT LIVE ABOVE
 TWO-AND-TWENTY YEARS.  DURING THESE TWO AND TWENTY
 YEARS HE IS LIABLE TO TWO AND TWENTY THOUSAND EVILS,
 MANY OF WHICH ARE INCURABLE.  YET EVEN IN THIS DREADFUL STATE
 MEN STILL STRUT AND POSE ON THE STAGE OF LIFE.
 THEY MAKE LOVE AT THE RISK OF DESTRUCTION,
 INTRIGUE, CARRY ON WAR, AND FORM PROJECTS, JUST AS IF THEY
 WERE TO LIVE IN LUXURY AND HAPPINESS FOR A THOUSAND
 AGES.

                                              -- VOLTAIRE
 Job cpu time:       0 days  0 hours  0 minutes 10.0 seconds.
 Elapsed time:       0 days  0 hours  0 minutes  3.2 seconds.
 File lengths (MBytes):  RWF=     10 Int=      0 D2E=      0 Chk=      1 Scr=      1
 Normal termination of Gaussian 16 at Mon Nov 18 15:41:27 2024.
