 Entering Gaussian System, Link 0=g16
 Initial command:
 /cluster/software/Gaussian/g16_C.01/l1.exe "/cluster/work/users/beto93/LiLi/Gau-1873850.inp" -scrdir="/cluster/work/users/beto93/LiLi/"
 Entering Link 1 = /cluster/software/Gaussian/g16_C.01/l1.exe PID=   1873853.
  
 Copyright (c) 1988-2019, Gaussian, Inc.  All Rights Reserved.
  
 This is part of the Gaussian(R) 16 program.  It is based on
 the Gaussian(R) 09 system (copyright 2009, Gaussian, Inc.),
 the Gaussian(R) 03 system (copyright 2003, Gaussian, Inc.),
 the Gaussian(R) 98 system (copyright 1998, Gaussian, Inc.),
 the Gaussian(R) 94 system (copyright 1995, Gaussian, Inc.),
 the Gaussian 92(TM) system (copyright 1992, Gaussian, Inc.),
 the Gaussian 90(TM) system (copyright 1990, Gaussian, Inc.),
 the Gaussian 88(TM) system (copyright 1988, Gaussian, Inc.),
 the Gaussian 86(TM) system (copyright 1986, Carnegie Mellon
 University), and the Gaussian 82(TM) system (copyright 1983,
 Carnegie Mellon University). Gaussian is a federally registered
 trademark of Gaussian, Inc.
  
 This software contains proprietary and confidential information,
 including trade secrets, belonging to Gaussian, Inc.
  
 This software is provided under written license and may be
 used, copied, transmitted, or stored only in accord with that
 written license.
  
 The following legend is applicable only to US Government
 contracts under FAR:
  
                    RESTRICTED RIGHTS LEGEND
  
 Use, reproduction and disclosure by the US Government is
 subject to restrictions as set forth in subparagraphs (a)
 and (c) of the Commercial Computer Software - Restricted
 Rights clause in FAR 52.227-19.
  
 Gaussian, Inc.
 340 Quinnipiac St., Bldg. 40, Wallingford CT 06492
  
  
 ---------------------------------------------------------------
 Warning -- This program may not be used in any manner that
 competes with the business of Gaussian, Inc. or will provide
 assistance to any competitor of Gaussian, Inc.  The licensee
 of this program is prohibited from giving any competitor of
 Gaussian, Inc. access to this program.  By using this program,
 the user acknowledges that Gaussian, Inc. is engaged in the
 business of creating and licensing software in the field of
 computational chemistry and represents and warrants to the
 licensee that it is not a competitor of Gaussian, Inc. and that
 it will not use this program in any manner prohibited above.
 ---------------------------------------------------------------
  

 Cite this work as:
 Gaussian 16, Revision C.01,
 M. J. Frisch, G. W. Trucks, H. B. Schlegel, G. E. Scuseria, 
 M. A. Robb, J. R. Cheeseman, G. Scalmani, V. Barone, 
 G. A. Petersson, H. Nakatsuji, X. Li, M. Caricato, A. V. Marenich, 
 J. Bloino, B. G. Janesko, R. Gomperts, B. Mennucci, H. P. Hratchian, 
 J. V. Ortiz, A. F. Izmaylov, J. L. Sonnenberg, D. Williams-Young, 
 F. Ding, F. Lipparini, F. Egidi, J. Goings, B. Peng, A. Petrone, 
 T. Henderson, D. Ranasinghe, V. G. Zakrzewski, J. Gao, N. Rega, 
 G. Zheng, W. Liang, M. Hada, M. Ehara, K. Toyota, R. Fukuda, 
 J. Hasegawa, M. Ishida, T. Nakajima, Y. Honda, O. Kitao, H. Nakai, 
 T. Vreven, K. Throssell, J. A. Montgomery, Jr., J. E. Peralta, 
 F. Ogliaro, M. J. Bearpark, J. J. Heyd, E. N. Brothers, K. N. Kudin, 
 V. N. Staroverov, T. A. Keith, R. Kobayashi, J. Normand, 
 K. Raghavachari, A. P. Rendell, J. C. Burant, S. S. Iyengar, 
 J. Tomasi, M. Cossi, J. M. Millam, M. Klene, C. Adamo, R. Cammi, 
 J. W. Ochterski, R. L. Martin, K. Morokuma, O. Farkas, 
 J. B. Foresman, and D. J. Fox, Gaussian, Inc., Wallingford CT, 2019.
 
 ******************************************
 Gaussian 16:  ES64L-G16RevC.01  3-Jul-2019
                24-Jul-2024 
 ******************************************
 %LindaWorkers=c2-2-ib
 %NProcShared=4
 Will use up to    4 processors via shared memory.
 %mem=25GB
 %chk=a.chk
 SetLPE:    new flags="-opt 'Tsnet.Node.lindarsharg: ssh'  -nodelist 'c2-2-ib.saga' -env GAUSS_MDEF=3355443200 -env GAUSS_EXEDIR="/cluster/software/Gaussian/g16_C.01/bsd:/cluster/software/Gaussian/g16_C.01""
 Will use up to    1 processors via Linda.
 -----------------------
 #RHF/4-31G Pop=NBO7Read
 -----------------------
 1/38=1,163=2,172=1/1;
 2/12=2,17=6,18=5,40=1/2;
 3/5=1,11=1,25=1,30=1,116=1/1,2,3;
 4//1;
 5/5=2,38=5/2;
 6/7=2,8=2,9=2,10=2,28=1,40=2,113=1,114=1,124=2103/1,12;
 99/5=1,9=1/99;
 -----
 NBO-a
 -----
 Symbolic Z-matrix:
 Charge =  0 Multiplicity = 1
 Li                    0.        0.       -0.00021 
 Li                    0.        0.        2.69621 
 
                          Input orientation:                          
 ---------------------------------------------------------------------
 Center     Atomic      Atomic             Coordinates (Angstroms)
 Number     Number       Type             X           Y           Z
 ---------------------------------------------------------------------
      1          3           0        0.000000    0.000000   -0.000212
      2          3           0        0.000000    0.000000    2.696212
 ---------------------------------------------------------------------
 Stoichiometry    Li2
 Framework group  D*H[C*(Li.Li)]
 Deg. of freedom     1
 Full point group                 D*H     NOp   8
 Largest Abelian subgroup         D2H     NOp   8
 Largest concise Abelian subgroup C2      NOp   2
                         Standard orientation:                         
 ---------------------------------------------------------------------
 Center     Atomic      Atomic             Coordinates (Angstroms)
 Number     Number       Type             X           Y           Z
 ---------------------------------------------------------------------
      1          3           0        0.000000    0.000000    1.348212
      2          3           0        0.000000    0.000000   -1.348212
 ---------------------------------------------------------------------
 Rotational constants (GHZ):           0.0000000          19.8144019          19.8144019
 Standard basis: 4-31G (6D, 7F)
 There are     5 symmetry adapted cartesian basis functions of AG  symmetry.
 There are     0 symmetry adapted cartesian basis functions of B1G symmetry.
 There are     2 symmetry adapted cartesian basis functions of B2G symmetry.
 There are     2 symmetry adapted cartesian basis functions of B3G symmetry.
 There are     0 symmetry adapted cartesian basis functions of AU  symmetry.
 There are     5 symmetry adapted cartesian basis functions of B1U symmetry.
 There are     2 symmetry adapted cartesian basis functions of B2U symmetry.
 There are     2 symmetry adapted cartesian basis functions of B3U symmetry.
 There are     5 symmetry adapted basis functions of AG  symmetry.
 There are     0 symmetry adapted basis functions of B1G symmetry.
 There are     2 symmetry adapted basis functions of B2G symmetry.
 There are     2 symmetry adapted basis functions of B3G symmetry.
 There are     0 symmetry adapted basis functions of AU  symmetry.
 There are     5 symmetry adapted basis functions of B1U symmetry.
 There are     2 symmetry adapted basis functions of B2U symmetry.
 There are     2 symmetry adapted basis functions of B3U symmetry.
    18 basis functions,    34 primitive gaussians,    18 cartesian basis functions
     3 alpha electrons        3 beta electrons
       nuclear repulsion energy         1.7662633541 Hartrees.
 NAtoms=    2 NActive=    2 NUniq=    1 SFac= 4.00D+00 NAtFMM=   60 NAOKFM=F Big=F
 Integral buffers will be    131072 words long.
 Raffenetti 1 integral format.
 Two-electron integral symmetry is turned on.
 One-electron integrals computed using PRISM.
 NBasis=    18 RedAO= T EigKep=  5.93D-03  NBF=     5     0     2     2     0     5     2     2
 NBsUse=    18 1.00D-06 EigRej= -1.00D+00 NBFU=     5     0     2     2     0     5     2     2
 ExpMin= 4.04D-02 ExpMax= 2.75D+02 ExpMxC= 4.14D+01 IAcc=3 IRadAn=         5 AccDes= 0.00D+00
 Harris functional with IExCor=  205 and IRadAn=       5 diagonalized for initial guess.
 HarFok:  IExCor=  205 AccDes= 0.00D+00 IRadAn=         5 IDoV= 1 UseB2=F ITyADJ=14
 ICtDFT=  3500011 ScaDFX=  1.000000  1.000000  1.000000  1.000000
 FoFCou: FMM=F IPFlag=           0 FMFlag=      100000 FMFlg1=           0
         NFxFlg=           0 DoJE=T BraDBF=F KetDBF=T FulRan=T
         wScrn=  0.000000 ICntrl=       500 IOpCl=  0 I1Cent=   200000004 NGrid=           0
         NMat0=    1 NMatS0=      1 NMatT0=    0 NMatD0=    1 NMtDS0=    0 NMtDT0=    0
 Petite list used in FoFCou.
 Initial guess orbital symmetries:
       Occupied  (SGG) (SGU) (SGG)
       Virtual   (SGU) (PIU) (PIU) (SGG) (PIG) (PIG) (SGU) (SGG)
                 (PIU) (PIU) (PIG) (PIG) (SGU) (SGG) (SGU)
 The electronic state of the initial guess is 1-SGG.
 Keep R1 ints in memory in symmetry-blocked form, NReq=820270.
 Requested convergence on RMS density matrix=1.00D-08 within 128 cycles.
 Requested convergence on MAX density matrix=1.00D-06.
 Requested convergence on             energy=1.00D-06.
 No special actions if energy rises.
 SCF Done:  E(RHF) =  -14.8603229078     A.U. after    9 cycles
            NFock=  9  Conv=0.31D-09     -V/T= 1.9920

 **********************************************************************

            Population analysis using the SCF Density.

 **********************************************************************

 Orbital symmetries:
       Occupied  (SGG) (SGU) (SGG)
       Virtual   (SGU) (PIU) (PIU) (SGG) (PIG) (PIG) (SGU) (SGG)
                 (PIU) (PIU) (SGG) (PIG) (PIG) (SGU) (SGU)
 The electronic state is 1-SGG.
 Alpha  occ. eigenvalues --   -2.43545  -2.43517  -0.17558
 Alpha virt. eigenvalues --    0.02113   0.05139   0.05139   0.07035   0.10123
 Alpha virt. eigenvalues --    0.10123   0.15954   0.22617   0.23976   0.23976
 Alpha virt. eigenvalues --    0.29454   0.29813   0.29813   0.31473   0.64938
          Condensed to atoms (all electrons):
               1          2
     1  Li   2.616032   0.383968
     2  Li   0.383968   2.616032
 Mulliken charges:
               1
     1  Li  -0.000000
     2  Li  -0.000000
 Sum of Mulliken charges =  -0.00000
 Mulliken charges with hydrogens summed into heavy atoms:
               1
     1  Li  -0.000000
     2  Li  -0.000000
 Electronic spatial extent (au):  <R**2>=             62.9154
 Charge=             -0.0000 electrons
 Dipole moment (field-independent basis, Debye):
    X=             -0.0000    Y=             -0.0000    Z=              0.0000  Tot=              0.0000
 Quadrupole moment (field-independent basis, Debye-Ang):
   XX=            -14.7557   YY=            -14.7557   ZZ=             -2.7280
   XY=             -0.0000   XZ=             -0.0000   YZ=              0.0000
 Traceless Quadrupole moment (field-independent basis, Debye-Ang):
   XX=             -4.0092   YY=             -4.0092   ZZ=              8.0185
   XY=             -0.0000   XZ=             -0.0000   YZ=              0.0000
 Octapole moment (field-independent basis, Debye-Ang**2):
  XXX=             -0.0000  YYY=              0.0000  ZZZ=             -0.0000  XYY=             -0.0000
  XXY=              0.0000  XXZ=              0.0000  XZZ=             -0.0000  YZZ=              0.0000
  YYZ=              0.0000  XYZ=              0.0000
 Hexadecapole moment (field-independent basis, Debye-Ang**3):
 XXXX=            -62.0055 YYYY=            -62.0055 ZZZZ=           -113.5834 XXXY=             -0.0000
 XXXZ=              0.0000 YYYX=             -0.0000 YYYZ=              0.0000 ZZZX=              0.0000
 ZZZY=              0.0000 XXYY=            -20.6685 XXZZ=            -33.8768 YYZZ=            -33.8768
 XXYZ=              0.0000 YYXZ=              0.0000 ZZXY=             -0.0000
 N-N= 1.766263354087D+00 E-N=-3.814031712321D+01  KE= 1.497955997660D+01
 Symmetry AG   KE= 7.754030260715D+00
 Symmetry B1G  KE= 0.000000000000D+00
 Symmetry B2G  KE= 6.848664421686D-35
 Symmetry B3G  KE= 6.848664421686D-35
 Symmetry AU   KE= 0.000000000000D+00
 Symmetry B1U  KE= 7.225529715886D+00
 Symmetry B2U  KE= 6.720983316997D-35
 Symmetry B3U  KE= 6.720983316997D-35
 Running external command "gaunbo7 R"
         input file       "/cluster/work/users/beto93/LiLi/Gau-1873853.EIn"
         output file      "/cluster/work/users/beto93/LiLi/Gau-1873853.EOu"
         message file     "/cluster/work/users/beto93/LiLi/Gau-1873853.EMs"
         fchk file        "/cluster/work/users/beto93/LiLi/Gau-1873853.EFC"
         mat. el file     "/cluster/work/users/beto93/LiLi/Gau-1873853.EUF"

 Writing WrtUnf unformatted file "/cluster/work/users/beto93/LiLi/Gau-1873853.EUF"
 Gaussian matrix elements                                         Version   2 NLab=11 Len12L=8 Len4L=8
 Write SHELL TO ATOM MAP                   from file      0 offset           0 length                   6 to matrix element file.
 Write SHELL TYPES                         from file      0 offset           0 length                   6 to matrix element file.
 Write NUMBER OF PRIMITIVES PER SHELL      from file      0 offset           0 length                   6 to matrix element file.
 Write PRIMITIVE EXPONENTS                 from file      0 offset           0 length                  16 to matrix element file.
 Write CONTRACTION COEFFICIENTS            from file      0 offset           0 length                  16 to matrix element file.
 Write P(S=P) CONTRACTION COEFFICIENTS     from file      0 offset           0 length                  16 to matrix element file.
 Write COORDINATES OF EACH SHELL           from file      0 offset           0 length                  18 to matrix element file.
 Write BONDS PER ATOM                      from file      0 offset           0 length                   2 to matrix element file.
 Write BONDED ATOMS                        from file      0 offset           0 length                   2 to matrix element file.
 Write BOND TYPES                          from file      0 offset           0 length                   2 to matrix element file.
 Write ONIOM CHARGE/MULT                   from file      0 offset           0 length                  32 to matrix element file.
 Write ONIOM ATOM LAYERS                   from file      0 offset           0 length                   2 to matrix element file.
 Write ONIOM ATOM MODIFIERS                from file      0 offset           0 length                   2 to matrix element file.
 Write ONIOM ATOM TYPES                    from file      0 offset           0 length                   2 to matrix element file.
 Write ONIOM LINK ATOMS                    from file      0 offset           0 length                   2 to matrix element file.
 Write ONIOM LINK CHARGES                  from file      0 offset           0 length                   2 to matrix element file.
 Write ONIOM LINK DISTANCES                from file      0 offset           0 length                   8 to matrix element file.
 Write SYMINF INTS                         from file      0 offset           0 length                  26 to matrix element file.
 Write ROTTR TO SO                         from file      0 offset           0 length                  12 to matrix element file.
 Write GAUSSIAN SCALARS                    from file    501 offset           0 to matrix element file.
 Write OPTIMIZATION FLAGS                  from file      0 offset           0 length                   2 to matrix element file.
 Write INTEGER ISO                         from file      0 offset           0 length                   2 to matrix element file.
 Write INTEGER SPIN                        from file      0 offset           0 length                   2 to matrix element file.
 Write REAL ZEFFECTIVE                     from file      0 offset           0 length                   2 to matrix element file.
 Write REAL QUADRUPOLEMOMENT               from file      0 offset           0 length                   2 to matrix element file.
 Write REAL GFACTOR                        from file      0 offset           0 length                   2 to matrix element file.
 Write REAL ZNUCLEAR                       from file      0 offset           0 length                   2 to matrix element file.
 Write MULLIKEN CHARGES                    from file      0 offset           0 length                   2 to matrix element file.
 Write NUCLEAR GRADIENT                    from file  10584 offset           0 length                   6 to matrix element file.
 Array NUCLEAR FORCE CONSTANTS              on  file  10585 does not exist.
 Write ELECTRIC DIPOLE MOMENT              from file      0 offset           0 length                   3 to matrix element file.
 Write NON-ADIABATIC COUPLING              from file  10810 offset           0 length                   6 to matrix element file.
 Write FINITE EM FIELD                     from file  10521 offset           0 length                  35 to matrix element file.
 Write OVERLAP                             from file  10514 offset           0 length                 171 to matrix element file.
 Write CORE HAMILTONIAN ALPHA              from file  10515 offset           0 length                 171 to matrix element file.
 Write CORE HAMILTONIAN BETA               from file  10515 offset         171 length                 171 to matrix element file.
 Write KINETIC ENERGY                      from file  10516 offset           0 length                 171 to matrix element file.
 Write ORTHOGONAL BASIS                    from file  10685 offset           0 length                 324 to matrix element file.
 Write DIPOLE INTEGRALS                    from file  10518 offset           0 length                 513 to matrix element file.
 Array DIP VEL INTEGRALS                    on  file  10572 does not exist.
 Array R X DEL INTEGRALS                    on  file  10572 does not exist.
 Write ALPHA ORBITAL ENERGIES              from file      0 offset           0 length                  18 to matrix element file.
 Write ALPHA MO COEFFICIENTS               from file  10524 offset           0 length                 324 to matrix element file.
 Write ALPHA DENSITY MATRIX                from file      0 offset           0 length                 171 to matrix element file.
 Write ALPHA FOCK MATRIX                   from file  10536 offset           0 length                 171 to matrix element file.
 Write ENERGY-WEIGHTED DENSITY             from file  10571 offset           0 length                 171 to matrix element file.
 Write ALPHA SCF DENSITY MATRIX            from file      0 offset           0 length                 171 to matrix element file.
 No 2e integrals to process.
 Perform NBO analysis...executing G16NBO...

 *********************************** NBO 7.0 ***********************************
             N A T U R A L   A T O M I C   O R B I T A L   A N D
          N A T U R A L   B O N D   O R B I T A L   A N A L Y S I S
 **************************** Espen Tangen (S101595) ***************************
  (c) Copyright 1996-2021 Board of Regents of the University of Wisconsin System
      on behalf of the Theoretical Chemistry Institute.  All rights reserved.

          Cite this program [NBO 7.0.10 (8-Feb-2021)] as:

          NBO 7.0.  E. D. Glendening, J. K. Badenhoop, A. E. Reed,
          J. E. Carpenter, J. A. Bohmann, C. M. Morales, P. Karafiloglou,
          C. R. Landis, and F. Weinhold, Theoretical Chemistry Institute,
          University of Wisconsin, Madison, WI (2018)

       /NPA    / : Natural Population Analysis
       /AOPNAO / : Print the AO to PNAO transformation
       /AONAO  / : Print the AO to NAO transformation
       /AONO   / : Print the NOs in the AO basis
       /AOMO   / : Print the MOs in the AO basis
       /BOAO   / : Print the AO bond-order matrix
       /DMAO   / : Print the AO density matrix
       /DMPNAO / : Print the PNAO density matrix
       /DMNAO  / : Print the NAO density matrix
       /DMMO   / : Print the MO density matrix
       /SAO    / : Print the AO overlap matrix
       /SPNAO  / : Print the PNAO overlap matrix
       /DETAIL / : Write details of NBO search
       /ARCHIVE/ : Write the archive file to lfn47
       /AOINFO / : Write AO information to lfn31
       /FILE   / : Set to inpGenNbo

 Filename set to inpGenNbo

 Job title: NBO-a


 MOs in the AO basis:

           AO          1       2       3       4       5       6       7       8
      ------------ ------- ------- ------- ------- ------- ------- ------- -------
   1. Li 1 (s)      0.7059  0.7069 -0.1576 -0.1014  0.0000  0.0000  0.0035  0.0000
   2. Li 1 (s)      0.0206  0.0246  0.1548  0.0735  0.0000  0.0000 -0.1176  0.0000
   3. Li 1 (px)     0.0000  0.0000  0.0000  0.0000  0.0488  0.0000  0.0000 -0.0535
   4. Li 1 (py)     0.0000  0.0000  0.0000  0.0000  0.0000  0.0488  0.0000  0.0000
   5. Li 1 (pz)     0.0025  0.0011 -0.1059  0.0178  0.0000  0.0000  0.0600  0.0000
   6. Li 1 (s)     -0.0100 -0.0239  0.4124 -0.2146  0.0000  0.0000  0.4629  0.0000
   7. Li 1 (px)     0.0000  0.0000  0.0000  0.0000  0.5231  0.0000  0.0000  1.1602
   8. Li 1 (py)     0.0000  0.0000  0.0000  0.0000  0.0000  0.5231  0.0000  0.0000
   9. Li 1 (pz)    -0.0015  0.0047  0.0252  0.7993  0.0000  0.0000  0.7026  0.0000
  10. Li 2 (s)      0.7059 -0.7069 -0.1576  0.1014  0.0000  0.0000  0.0035  0.0000
  11. Li 2 (s)      0.0206 -0.0246  0.1548 -0.0735  0.0000  0.0000 -0.1176  0.0000
  12. Li 2 (px)     0.0000  0.0000  0.0000  0.0000  0.0488  0.0000  0.0000  0.0535
  13. Li 2 (py)     0.0000  0.0000  0.0000  0.0000  0.0000  0.0488  0.0000  0.0000
  14. Li 2 (pz)    -0.0025  0.0011  0.1059  0.0178  0.0000  0.0000 -0.0600  0.0000
  15. Li 2 (s)     -0.0100  0.0239  0.4124  0.2146  0.0000  0.0000  0.4629  0.0000
  16. Li 2 (px)     0.0000  0.0000  0.0000  0.0000  0.5231  0.0000  0.0000 -1.1602
  17. Li 2 (py)     0.0000  0.0000  0.0000  0.0000  0.0000  0.5231  0.0000  0.0000
  18. Li 2 (pz)     0.0015  0.0047 -0.0252  0.7993  0.0000  0.0000 -0.7026  0.0000

           AO          9      10      11      12      13      14      15      16
      ------------ ------- ------- ------- ------- ------- ------- ------- -------
   1. Li 1 (s)      0.0000 -0.1599  0.0357  0.0000  0.0000  0.0938  0.0000  0.0000
   2. Li 1 (s)      0.0000  0.0511  0.2590  0.0000  0.0000  1.6892  0.0000  0.0000
   3. Li 1 (px)     0.0000  0.0000  0.0000  0.0000  1.1316  0.0000  1.3508  0.0000
   4. Li 1 (py)    -0.0535  0.0000  0.0000  1.1316  0.0000  0.0000  0.0000  1.3508
   5. Li 1 (pz)     0.0000  0.3092 -1.0411  0.0000  0.0000  0.2678  0.0000  0.0000
   6. Li 1 (s)      0.0000  3.9269 -0.0983  0.0000  0.0000 -1.4343  0.0000  0.0000
   7. Li 1 (px)     0.0000  0.0000  0.0000  0.0000 -0.8801  0.0000 -1.3359  0.0000
   8. Li 1 (py)     1.1602  0.0000  0.0000 -0.8801  0.0000  0.0000  0.0000 -1.3359
   9. Li 1 (pz)     0.0000 -2.6644  1.1869  0.0000  0.0000 -0.0095  0.0000  0.0000
  10. Li 2 (s)      0.0000  0.1599  0.0357  0.0000  0.0000  0.0938  0.0000  0.0000
  11. Li 2 (s)      0.0000 -0.0511  0.2590  0.0000  0.0000  1.6892  0.0000  0.0000
  12. Li 2 (px)     0.0000  0.0000  0.0000  0.0000  1.1316  0.0000 -1.3508  0.0000
  13. Li 2 (py)     0.0535  0.0000  0.0000  1.1316  0.0000  0.0000  0.0000 -1.3508
  14. Li 2 (pz)     0.0000  0.3092  1.0411  0.0000  0.0000 -0.2678  0.0000  0.0000
  15. Li 2 (s)      0.0000 -3.9269 -0.0983  0.0000  0.0000 -1.4343  0.0000  0.0000
  16. Li 2 (px)     0.0000  0.0000  0.0000  0.0000 -0.8801  0.0000  1.3359  0.0000
  17. Li 2 (py)    -1.1602  0.0000  0.0000 -0.8801  0.0000  0.0000  0.0000  1.3359
  18. Li 2 (pz)     0.0000 -2.6644 -1.1869  0.0000  0.0000  0.0095  0.0000  0.0000

           AO         17      18
      ------------ ------- -------
   1. Li 1 (s)     -0.0941 -0.2356
   2. Li 1 (s)     -0.8388 -2.6696
   3. Li 1 (px)     0.0000  0.0000
   4. Li 1 (py)     0.0000  0.0000
   5. Li 1 (pz)    -1.2961  1.2709
   6. Li 1 (s)      3.1239  6.1608
   7. Li 1 (px)     0.0000  0.0000
   8. Li 1 (py)     0.0000  0.0000
   9. Li 1 (pz)    -0.5304 -2.9295
  10. Li 2 (s)      0.0941  0.2356
  11. Li 2 (s)      0.8388  2.6696
  12. Li 2 (px)     0.0000  0.0000
  13. Li 2 (py)     0.0000  0.0000
  14. Li 2 (pz)    -1.2961  1.2709
  15. Li 2 (s)     -3.1239 -6.1608
  16. Li 2 (px)     0.0000  0.0000
  17. Li 2 (py)     0.0000  0.0000
  18. Li 2 (pz)    -0.5304 -2.9295


 NOs in the AO basis:

           AO          1       2       3       4       5       6       7       8
      ------------ ------- ------- ------- ------- ------- ------- ------- -------
   1. Li 1 (s)      0.9896  0.0540 -0.2014  0.0887 -0.0180 -0.0164 -0.0449  0.0000
   2. Li 1 (s)      0.0398 -0.0264  0.1507  0.1311 -0.1789 -0.1146  0.5793  0.0000
   3. Li 1 (px)     0.0000  0.0000  0.0000  0.2076  0.9716 -0.0285  0.0332 -0.0459
   4. Li 1 (py)     0.0000  0.0000  0.0000 -0.1732  0.0262 -0.9530  0.0144 -0.0122
   5. Li 1 (pz)    -0.0028  0.0195 -0.1041  0.2132 -0.1339 -0.3707  1.1264  0.0000
   6. Li 1 (s)     -0.0029 -0.0900  0.4033 -0.1239  0.0246 -0.0323 -0.5429  0.0000
   7. Li 1 (px)     0.0000  0.0000  0.0000  0.0000  0.0000  0.0000  0.0000  0.4552
   8. Li 1 (py)     0.0000  0.0000  0.0000  0.0000  0.0000  0.0000  0.0000  0.0117
   9. Li 1 (pz)     0.0035 -0.0006  0.0254 -1.1782  0.3932  0.4050 -1.2200  0.0000
  10. Li 2 (s)      0.0046 -0.9495 -0.3484 -0.0985  0.0114  0.0097  0.0663  0.0000
  11. Li 2 (s)      0.0054 -0.0614  0.1456 -0.0726 -0.0346 -0.0654  0.2171  0.0000
  12. Li 2 (px)     0.0000  0.0000  0.0000  0.0000  0.0000  0.0000  0.0000 -1.1017
  13. Li 2 (py)     0.0000  0.0000  0.0000  0.0000  0.0000  0.0000  0.0000  0.0133
  14. Li 2 (pz)     0.0043 -0.0180  0.1043 -0.0907  0.1141 -0.0326  0.6256  0.0000
  15. Li 2 (s)      0.0305 -0.0560  0.4083 -0.1892  0.2134  0.1295 -0.6708  0.0000
  16. Li 2 (px)     0.0000  0.0000  0.0000  0.0000  0.0000  0.0000  0.0000  0.0200
  17. Li 2 (py)     0.0000  0.0000  0.0000  0.0000  0.0000  0.0000  0.0000 -0.0031
  18. Li 2 (pz)     0.0030  0.0072 -0.0244 -0.3664  0.0875  0.2556  0.2455  0.0000

           AO          9      10      11      12      13      14      15      16
      ------------ ------- ------- ------- ------- ------- ------- ------- -------
   1. Li 1 (s)      0.0046  0.0000  0.0000  0.0000  0.0000  0.0000  0.0791  0.0266
   2. Li 1 (s)     -0.3539  0.0000  0.0000  0.0000  0.0000  0.0000  1.7003 -0.6487
   3. Li 1 (px)    -0.0692 -0.0038  0.0092 -0.0836 -1.3816 -0.4387  0.0332 -0.0709
   4. Li 1 (py)     0.2469 -0.4423 -0.0069 -1.3811  0.0840  0.0036 -0.0027  0.0001
   5. Li 1 (pz)    -1.3343  0.0000  0.0000  0.0000  0.0000  0.0000 -0.6309  0.4854
   6. Li 1 (s)     -0.1865  0.0000  0.0000  0.0000  0.0000  0.0000 -0.5958 -0.2566
   7. Li 1 (px)     0.0000  0.0088 -0.0252  0.0998  1.7073  1.0228  0.0000  0.0000
   8. Li 1 (py)     0.0000  1.0778 -0.3196  1.7041 -0.1036 -0.0156  0.0000  0.0000
   9. Li 1 (pz)     0.7677  0.0000  0.0000  0.0000  0.0000  0.0000  0.2739  0.5328
  10. Li 2 (s)     -0.0352  0.0000  0.0000  0.0000  0.0000  0.0000  0.1067 -0.0159
  11. Li 2 (s)     -0.2791  0.0000  0.0000  0.0000  0.0000  0.0000  1.2329  0.3351
  12. Li 2 (px)     0.0000  0.0119 -0.0164  0.0091 -0.0071  1.3770  0.0000  0.0000
  13. Li 2 (py)     0.0000  1.2118  1.2813 -0.0001 -0.0001  0.0154  0.0000  0.0000
  14. Li 2 (pz)    -0.2395  0.0000  0.0000  0.0000  0.0000  0.0000  0.0454  1.8659
  15. Li 2 (s)      0.3502  0.0000  0.0000  0.0000  0.0000  0.0000 -1.7532  0.7306
  16. Li 2 (px)     0.0000 -0.0177  0.0410  0.0000 -0.0001 -2.0436  0.0000  0.0000
  17. Li 2 (py)     0.0000 -2.0217 -0.3022  0.0000  0.0000  0.0114  0.0000  0.0000
  18. Li 2 (pz)     0.7015  0.0000  0.0000  0.0000  0.0000  0.0000 -0.9911 -1.0535

           AO         17      18
      ------------ ------- -------
   1. Li 1 (s)      0.2921 -0.0866
   2. Li 1 (s)      2.1115 -1.5747
   3. Li 1 (px)    -0.0007  0.0009
   4. Li 1 (py)    -0.0007 -0.0021
   5. Li 1 (pz)    -0.3829  0.7214
   6. Li 1 (s)     -7.5660  2.7294
   7. Li 1 (px)     0.0000  0.0000
   8. Li 1 (py)     0.0000  0.0000
   9. Li 1 (pz)     3.5754 -1.2556
  10. Li 2 (s)     -0.2532  0.1377
  11. Li 2 (s)     -1.3061  2.7016
  12. Li 2 (px)     0.0000  0.0000
  13. Li 2 (py)     0.0000  0.0000
  14. Li 2 (pz)    -0.7675  0.0821
  15. Li 2 (s)      6.8293 -3.8137
  16. Li 2 (px)     0.0000  0.0000
  17. Li 2 (py)     0.0000  0.0000
  18. Li 2 (pz)     3.9130 -0.5831


 AO overlap matrix:

           AO          1       2       3       4       5       6       7       8
      ------------ ------- ------- ------- ------- ------- ------- ------- -------
   1. Li 1 (s)      1.0000  0.1397  0.0000  0.0000  0.0000  0.1972  0.0000  0.0000
   2. Li 1 (s)      0.1397  1.0000  0.0000  0.0000  0.0000  0.9100  0.0000  0.0000
   3. Li 1 (px)     0.0000  0.0000  1.0000  0.0000  0.0000  0.0000  0.8105  0.0000
   4. Li 1 (py)     0.0000  0.0000  0.0000  1.0000  0.0000  0.0000  0.0000  0.8105
   5. Li 1 (pz)     0.0000  0.0000  0.0000  0.0000  1.0000  0.0000  0.0000  0.0000
   6. Li 1 (s)      0.1972  0.9100  0.0000  0.0000  0.0000  1.0000  0.0000  0.0000
   7. Li 1 (px)     0.0000  0.0000  0.8105  0.0000  0.0000  0.0000  1.0000  0.0000
   8. Li 1 (py)     0.0000  0.0000  0.0000  0.8105  0.0000  0.0000  0.0000  1.0000
   9. Li 1 (pz)     0.0000  0.0000  0.0000  0.0000  0.8105  0.0000  0.0000  0.0000
  10. Li 2 (s)      0.0000  0.0449  0.0000  0.0000 -0.1073  0.0719  0.0000  0.0000
  11. Li 2 (s)      0.0449  0.3528  0.0000  0.0000 -0.4727  0.4530  0.0000  0.0000
  12. Li 2 (px)     0.0000  0.0000  0.3003  0.0000  0.0000  0.0000  0.3933  0.0000
  13. Li 2 (py)     0.0000  0.0000  0.0000  0.3003  0.0000  0.0000  0.0000  0.3933
  14. Li 2 (pz)     0.1073  0.4727  0.0000  0.0000 -0.3987  0.4030  0.0000  0.0000
  15. Li 2 (s)      0.0719  0.4530  0.0000  0.0000 -0.4030  0.5916  0.0000  0.0000
  16. Li 2 (px)     0.0000  0.0000  0.3933  0.0000  0.0000  0.0000  0.5916  0.0000
  17. Li 2 (py)     0.0000  0.0000  0.0000  0.3933  0.0000  0.0000  0.0000  0.5916
  18. Li 2 (pz)     0.1415  0.6192  0.0000  0.0000 -0.1748  0.6062  0.0000  0.0000

           AO          9      10      11      12      13      14      15      16
      ------------ ------- ------- ------- ------- ------- ------- ------- -------
   1. Li 1 (s)      0.0000  0.0000  0.0449  0.0000  0.0000  0.1073  0.0719  0.0000
   2. Li 1 (s)      0.0000  0.0449  0.3528  0.0000  0.0000  0.4727  0.4530  0.0000
   3. Li 1 (px)     0.0000  0.0000  0.0000  0.3003  0.0000  0.0000  0.0000  0.3933
   4. Li 1 (py)     0.0000  0.0000  0.0000  0.0000  0.3003  0.0000  0.0000  0.0000
   5. Li 1 (pz)     0.8105 -0.1073 -0.4727  0.0000  0.0000 -0.3987 -0.4030  0.0000
   6. Li 1 (s)      0.0000  0.0719  0.4530  0.0000  0.0000  0.4030  0.5916  0.0000
   7. Li 1 (px)     0.0000  0.0000  0.0000  0.3933  0.0000  0.0000  0.0000  0.5916
   8. Li 1 (py)     0.0000  0.0000  0.0000  0.0000  0.3933  0.0000  0.0000  0.0000
   9. Li 1 (pz)     1.0000 -0.1415 -0.6192  0.0000  0.0000 -0.1748 -0.6062  0.0000
  10. Li 2 (s)     -0.1415  1.0000  0.1397  0.0000  0.0000  0.0000  0.1972  0.0000
  11. Li 2 (s)     -0.6192  0.1397  1.0000  0.0000  0.0000  0.0000  0.9100  0.0000
  12. Li 2 (px)     0.0000  0.0000  0.0000  1.0000  0.0000  0.0000  0.0000  0.8105
  13. Li 2 (py)     0.0000  0.0000  0.0000  0.0000  1.0000  0.0000  0.0000  0.0000
  14. Li 2 (pz)    -0.1748  0.0000  0.0000  0.0000  0.0000  1.0000  0.0000  0.0000
  15. Li 2 (s)     -0.6062  0.1972  0.9100  0.0000  0.0000  0.0000  1.0000  0.0000
  16. Li 2 (px)     0.0000  0.0000  0.0000  0.8105  0.0000  0.0000  0.0000  1.0000
  17. Li 2 (py)     0.0000  0.0000  0.0000  0.0000  0.8105  0.0000  0.0000  0.0000
  18. Li 2 (pz)    -0.0296  0.0000  0.0000  0.0000  0.0000  0.8105  0.0000  0.0000

           AO         17      18
      ------------ ------- -------
   1. Li 1 (s)      0.0000  0.1415
   2. Li 1 (s)      0.0000  0.6192
   3. Li 1 (px)     0.0000  0.0000
   4. Li 1 (py)     0.3933  0.0000
   5. Li 1 (pz)     0.0000 -0.1748
   6. Li 1 (s)      0.0000  0.6062
   7. Li 1 (px)     0.0000  0.0000
   8. Li 1 (py)     0.5916  0.0000
   9. Li 1 (pz)     0.0000 -0.0296
  10. Li 2 (s)      0.0000  0.0000
  11. Li 2 (s)      0.0000  0.0000
  12. Li 2 (px)     0.0000  0.0000
  13. Li 2 (py)     0.8105  0.0000
  14. Li 2 (pz)     0.0000  0.8105
  15. Li 2 (s)      0.0000  0.0000
  16. Li 2 (px)     0.0000  0.0000
  17. Li 2 (py)     1.0000  0.0000
  18. Li 2 (pz)     0.0000  1.0000


 AO bond-order matrix:

           AO          1       2       3       4       5       6       7       8
      ------------ ------- ------- ------- ------- ------- ------- ------- -------
   1. Li 1 (s)      2.0458  0.0152  0.0000  0.0000  0.0384 -0.1779  0.0000  0.0000
   2. Li 1 (s)      0.0152  0.0500  0.0000  0.0000 -0.0326  0.1261  0.0000  0.0000
   3. Li 1 (px)     0.0000  0.0000  0.0000  0.0000  0.0000  0.0000  0.0000  0.0000
   4. Li 1 (py)     0.0000  0.0000  0.0000  0.0000  0.0000  0.0000  0.0000  0.0000
   5. Li 1 (pz)     0.0384 -0.0326  0.0000  0.0000  0.0224 -0.0875  0.0000  0.0000
   6. Li 1 (s)     -0.1779  0.1261  0.0000  0.0000 -0.0875  0.3416  0.0000  0.0000
   7. Li 1 (px)     0.0000  0.0000  0.0000  0.0000  0.0000  0.0000  0.0000  0.0000
   8. Li 1 (py)     0.0000  0.0000  0.0000  0.0000  0.0000  0.0000  0.0000  0.0000
   9. Li 1 (pz)    -0.0034  0.0080  0.0000  0.0000 -0.0053  0.0206  0.0000  0.0000
  10. Li 2 (s)      0.0469 -0.0545  0.0000  0.0000  0.0354 -0.1102  0.0000  0.0000
  11. Li 2 (s)     -0.0545  0.0476  0.0000  0.0000 -0.0327  0.1285  0.0000  0.0000
  12. Li 2 (px)     0.0000  0.0000  0.0000  0.0000  0.0000  0.0000  0.0000  0.0000
  13. Li 2 (py)     0.0000  0.0000  0.0000  0.0000  0.0000  0.0000  0.0000  0.0000
  14. Li 2 (pz)    -0.0354  0.0327  0.0000  0.0000 -0.0224  0.0874  0.0000  0.0000
  15. Li 2 (s)     -0.1102  0.1285  0.0000  0.0000 -0.0874  0.3393  0.0000  0.0000
  16. Li 2 (px)     0.0000  0.0000  0.0000  0.0000  0.0000  0.0000  0.0000  0.0000
  17. Li 2 (py)     0.0000  0.0000  0.0000  0.0000  0.0000  0.0000  0.0000  0.0000
  18. Li 2 (pz)     0.0166 -0.0075  0.0000  0.0000  0.0054 -0.0210  0.0000  0.0000

           AO          9      10      11      12      13      14      15      16
      ------------ ------- ------- ------- ------- ------- ------- ------- -------
   1. Li 1 (s)     -0.0034  0.0469 -0.0545  0.0000  0.0000 -0.0354 -0.1102  0.0000
   2. Li 1 (s)      0.0080 -0.0545  0.0476  0.0000  0.0000  0.0327  0.1285  0.0000
   3. Li 1 (px)     0.0000  0.0000  0.0000  0.0000  0.0000  0.0000  0.0000  0.0000
   4. Li 1 (py)     0.0000  0.0000  0.0000  0.0000  0.0000  0.0000  0.0000  0.0000
   5. Li 1 (pz)    -0.0053  0.0354 -0.0327  0.0000  0.0000 -0.0224 -0.0874  0.0000
   6. Li 1 (s)      0.0206 -0.1102  0.1285  0.0000  0.0000  0.0874  0.3393  0.0000
   7. Li 1 (px)     0.0000  0.0000  0.0000  0.0000  0.0000  0.0000  0.0000  0.0000
   8. Li 1 (py)     0.0000  0.0000  0.0000  0.0000  0.0000  0.0000  0.0000  0.0000
   9. Li 1 (pz)     0.0013 -0.0166  0.0075  0.0000  0.0000  0.0054  0.0210  0.0000
  10. Li 2 (s)     -0.0166  2.0458  0.0152  0.0000  0.0000 -0.0384 -0.1779  0.0000
  11. Li 2 (s)      0.0075  0.0152  0.0500  0.0000  0.0000  0.0326  0.1261  0.0000
  12. Li 2 (px)     0.0000  0.0000  0.0000  0.0000  0.0000  0.0000  0.0000  0.0000
  13. Li 2 (py)     0.0000  0.0000  0.0000  0.0000  0.0000  0.0000  0.0000  0.0000
  14. Li 2 (pz)     0.0054 -0.0384  0.0326  0.0000  0.0000  0.0224  0.0875  0.0000
  15. Li 2 (s)      0.0210 -0.1779  0.1261  0.0000  0.0000  0.0875  0.3416  0.0000
  16. Li 2 (px)     0.0000  0.0000  0.0000  0.0000  0.0000  0.0000  0.0000  0.0000
  17. Li 2 (py)     0.0000  0.0000  0.0000  0.0000  0.0000  0.0000  0.0000  0.0000
  18. Li 2 (pz)    -0.0012  0.0034 -0.0080  0.0000  0.0000 -0.0053 -0.0206  0.0000

           AO         17      18
      ------------ ------- -------
   1. Li 1 (s)      0.0000  0.0166
   2. Li 1 (s)      0.0000 -0.0075
   3. Li 1 (px)     0.0000  0.0000
   4. Li 1 (py)     0.0000  0.0000
   5. Li 1 (pz)     0.0000  0.0054
   6. Li 1 (s)      0.0000 -0.0210
   7. Li 1 (px)     0.0000  0.0000
   8. Li 1 (py)     0.0000  0.0000
   9. Li 1 (pz)     0.0000 -0.0012
  10. Li 2 (s)      0.0000  0.0034
  11. Li 2 (s)      0.0000 -0.0080
  12. Li 2 (px)     0.0000  0.0000
  13. Li 2 (py)     0.0000  0.0000
  14. Li 2 (pz)     0.0000 -0.0053
  15. Li 2 (s)      0.0000 -0.0206
  16. Li 2 (px)     0.0000  0.0000
  17. Li 2 (py)     0.0000  0.0000
  18. Li 2 (pz)     0.0000  0.0013


 AO density matrix:

           AO          1       2       3       4       5       6       7       8
      ------------ ------- ------- ------- ------- ------- ------- ------- -------
   1. Li 1 (s)      1.9996  0.2947  0.0000  0.0000  0.0100  0.4001  0.0000  0.0000
   2. Li 1 (s)      0.2947  1.2604  0.0000  0.0000 -0.5481  1.3971  0.0000  0.0000
   3. Li 1 (px)     0.0000  0.0000  0.0000  0.0000  0.0000  0.0000  0.0000  0.0000
   4. Li 1 (py)     0.0000  0.0000  0.0000  0.0000  0.0000  0.0000  0.0000  0.0000
   5. Li 1 (pz)     0.0100 -0.5481  0.0000  0.0000  0.2651 -0.6065  0.0000  0.0000
   6. Li 1 (s)      0.4001  1.3971  0.0000  0.0000 -0.6065  1.5524  0.0000  0.0000
   7. Li 1 (px)     0.0000  0.0000  0.0000  0.0000  0.0000  0.0000  0.0000  0.0000
   8. Li 1 (py)     0.0000  0.0000  0.0000  0.0000  0.0000  0.0000  0.0000  0.0000
   9. Li 1 (pz)     0.0087 -0.6392  0.0000  0.0000  0.3121 -0.7083  0.0000  0.0000
  10. Li 2 (s)      0.0002  0.0814  0.0000  0.0000 -0.2203  0.1362  0.0000  0.0000
  11. Li 2 (s)      0.0814  1.2377  0.0000  0.0000 -0.5726  1.3689  0.0000  0.0000
  12. Li 2 (px)     0.0000  0.0000  0.0000  0.0000  0.0000  0.0000  0.0000  0.0000
  13. Li 2 (py)     0.0000  0.0000  0.0000  0.0000  0.0000  0.0000  0.0000  0.0000
  14. Li 2 (pz)     0.2203  0.5726  0.0000  0.0000 -0.2386  0.6369  0.0000  0.0000
  15. Li 2 (s)      0.1362  1.3689  0.0000  0.0000 -0.6369  1.5176  0.0000  0.0000
  16. Li 2 (px)     0.0000  0.0000  0.0000  0.0000  0.0000  0.0000  0.0000  0.0000
  17. Li 2 (py)     0.0000  0.0000  0.0000  0.0000  0.0000  0.0000  0.0000  0.0000
  18. Li 2 (pz)     0.2911  0.6712  0.0000  0.0000 -0.2776  0.7479  0.0000  0.0000

           AO          9      10      11      12      13      14      15      16
      ------------ ------- ------- ------- ------- ------- ------- ------- -------
   1. Li 1 (s)      0.0087  0.0002  0.0814  0.0000  0.0000  0.2203  0.1362  0.0000
   2. Li 1 (s)     -0.6392  0.0814  1.2377  0.0000  0.0000  0.5726  1.3689  0.0000
   3. Li 1 (px)     0.0000  0.0000  0.0000  0.0000  0.0000  0.0000  0.0000  0.0000
   4. Li 1 (py)     0.0000  0.0000  0.0000  0.0000  0.0000  0.0000  0.0000  0.0000
   5. Li 1 (pz)     0.3121 -0.2203 -0.5726  0.0000  0.0000 -0.2386 -0.6369  0.0000
   6. Li 1 (s)     -0.7083  0.1362  1.3689  0.0000  0.0000  0.6369  1.5176  0.0000
   7. Li 1 (px)     0.0000  0.0000  0.0000  0.0000  0.0000  0.0000  0.0000  0.0000
   8. Li 1 (py)     0.0000  0.0000  0.0000  0.0000  0.0000  0.0000  0.0000  0.0000
   9. Li 1 (pz)     0.3680 -0.2911 -0.6712  0.0000  0.0000 -0.2776 -0.7479  0.0000
  10. Li 2 (s)     -0.2911  1.9996  0.2947  0.0000  0.0000 -0.0100  0.4001  0.0000
  11. Li 2 (s)     -0.6712  0.2947  1.2604  0.0000  0.0000  0.5481  1.3971  0.0000
  12. Li 2 (px)     0.0000  0.0000  0.0000  0.0000  0.0000  0.0000  0.0000  0.0000
  13. Li 2 (py)     0.0000  0.0000  0.0000  0.0000  0.0000  0.0000  0.0000  0.0000
  14. Li 2 (pz)    -0.2776 -0.0100  0.5481  0.0000  0.0000  0.2651  0.6065  0.0000
  15. Li 2 (s)     -0.7479  0.4001  1.3971  0.0000  0.0000  0.6065  1.5524  0.0000
  16. Li 2 (px)     0.0000  0.0000  0.0000  0.0000  0.0000  0.0000  0.0000  0.0000
  17. Li 2 (py)     0.0000  0.0000  0.0000  0.0000  0.0000  0.0000  0.0000  0.0000
  18. Li 2 (pz)    -0.3231 -0.0087  0.6392  0.0000  0.0000  0.3121  0.7083  0.0000

           AO         17      18
      ------------ ------- -------
   1. Li 1 (s)      0.0000  0.2911
   2. Li 1 (s)      0.0000  0.6712
   3. Li 1 (px)     0.0000  0.0000
   4. Li 1 (py)     0.0000  0.0000
   5. Li 1 (pz)     0.0000 -0.2776
   6. Li 1 (s)      0.0000  0.7479
   7. Li 1 (px)     0.0000  0.0000
   8. Li 1 (py)     0.0000  0.0000
   9. Li 1 (pz)     0.0000 -0.3231
  10. Li 2 (s)      0.0000 -0.0087
  11. Li 2 (s)      0.0000  0.6392
  12. Li 2 (px)     0.0000  0.0000
  13. Li 2 (py)     0.0000  0.0000
  14. Li 2 (pz)     0.0000  0.3121
  15. Li 2 (s)      0.0000  0.7083
  16. Li 2 (px)     0.0000  0.0000
  17. Li 2 (py)     0.0000  0.0000
  18. Li 2 (pz)     0.0000  0.3680


 MO density matrix:

      MO     1       2       3       4       5       6       7       8       9
     ---- ------  ------  ------  ------  ------  ------  ------  ------  ------
   1.     2.0000  0.0000  0.0000  0.0000  0.0000  0.0000  0.0000  0.0000  0.0000
   2.     0.0000  2.0000  0.0000  0.0000  0.0000  0.0000  0.0000  0.0000  0.0000
   3.     0.0000  0.0000  2.0000  0.0000  0.0000  0.0000  0.0000  0.0000  0.0000
   4.     0.0000  0.0000  0.0000  0.0000  0.0000  0.0000  0.0000  0.0000  0.0000
   5.     0.0000  0.0000  0.0000  0.0000  0.0000  0.0000  0.0000  0.0000  0.0000
   6.     0.0000  0.0000  0.0000  0.0000  0.0000  0.0000  0.0000  0.0000  0.0000
   7.     0.0000  0.0000  0.0000  0.0000  0.0000  0.0000  0.0000  0.0000  0.0000
   8.     0.0000  0.0000  0.0000  0.0000  0.0000  0.0000  0.0000  0.0000  0.0000
   9.     0.0000  0.0000  0.0000  0.0000  0.0000  0.0000  0.0000  0.0000  0.0000
  10.     0.0000  0.0000  0.0000  0.0000  0.0000  0.0000  0.0000  0.0000  0.0000
  11.     0.0000  0.0000  0.0000  0.0000  0.0000  0.0000  0.0000  0.0000  0.0000
  12.     0.0000  0.0000  0.0000  0.0000  0.0000  0.0000  0.0000  0.0000  0.0000
  13.     0.0000  0.0000  0.0000  0.0000  0.0000  0.0000  0.0000  0.0000  0.0000
  14.     0.0000  0.0000  0.0000  0.0000  0.0000  0.0000  0.0000  0.0000  0.0000
  15.     0.0000  0.0000  0.0000  0.0000  0.0000  0.0000  0.0000  0.0000  0.0000
  16.     0.0000  0.0000  0.0000  0.0000  0.0000  0.0000  0.0000  0.0000  0.0000
  17.     0.0000  0.0000  0.0000  0.0000  0.0000  0.0000  0.0000  0.0000  0.0000
  18.     0.0000  0.0000  0.0000  0.0000  0.0000  0.0000  0.0000  0.0000  0.0000

      MO    10      11      12      13      14      15      16      17      18
     ---- ------  ------  ------  ------  ------  ------  ------  ------  ------
   1.     0.0000  0.0000  0.0000  0.0000  0.0000  0.0000  0.0000  0.0000  0.0000
   2.     0.0000  0.0000  0.0000  0.0000  0.0000  0.0000  0.0000  0.0000  0.0000
   3.     0.0000  0.0000  0.0000  0.0000  0.0000  0.0000  0.0000  0.0000  0.0000
   4.     0.0000  0.0000  0.0000  0.0000  0.0000  0.0000  0.0000  0.0000  0.0000
   5.     0.0000  0.0000  0.0000  0.0000  0.0000  0.0000  0.0000  0.0000  0.0000
   6.     0.0000  0.0000  0.0000  0.0000  0.0000  0.0000  0.0000  0.0000  0.0000
   7.     0.0000  0.0000  0.0000  0.0000  0.0000  0.0000  0.0000  0.0000  0.0000
   8.     0.0000  0.0000  0.0000  0.0000  0.0000  0.0000  0.0000  0.0000  0.0000
   9.     0.0000  0.0000  0.0000  0.0000  0.0000  0.0000  0.0000  0.0000  0.0000
  10.     0.0000  0.0000  0.0000  0.0000  0.0000  0.0000  0.0000  0.0000  0.0000
  11.     0.0000  0.0000  0.0000  0.0000  0.0000  0.0000  0.0000  0.0000  0.0000
  12.     0.0000  0.0000  0.0000  0.0000  0.0000  0.0000  0.0000  0.0000  0.0000
  13.     0.0000  0.0000  0.0000  0.0000  0.0000  0.0000  0.0000  0.0000  0.0000
  14.     0.0000  0.0000  0.0000  0.0000  0.0000  0.0000  0.0000  0.0000  0.0000
  15.     0.0000  0.0000  0.0000  0.0000  0.0000  0.0000  0.0000  0.0000  0.0000
  16.     0.0000  0.0000  0.0000  0.0000  0.0000  0.0000  0.0000  0.0000  0.0000
  17.     0.0000  0.0000  0.0000  0.0000  0.0000  0.0000  0.0000  0.0000  0.0000
  18.     0.0000  0.0000  0.0000  0.0000  0.0000  0.0000  0.0000  0.0000  0.0000


 NATURAL POPULATIONS:  Natural atomic orbital occupancies

  NAO Atom No lang   Type(AO)    Occupancy      Energy
 -------------------------------------------------------
   1   Li  1  s      Cor( 1s)     1.99999      -2.43530
   2   Li  1  s      Val( 2s)     0.97586      -0.06400
   3   Li  1  s      Ryd( 3s)     0.00000       0.31523
   4   Li  1  px     Ryd( 2p)     0.00000       0.17520
   5   Li  1  px     Ryd( 3p)     0.00000       0.17006
   6   Li  1  py     Ryd( 2p)     0.00000       0.17520
   7   Li  1  py     Ryd( 3p)     0.00000       0.17006
   8   Li  1  pz     Ryd( 2p)     0.02415       0.25042
   9   Li  1  pz     Ryd( 3p)     0.00000       0.27846

  10   Li  2  s      Cor( 1s)     1.99999      -2.43530
  11   Li  2  s      Val( 2s)     0.97586      -0.06400
  12   Li  2  s      Ryd( 3s)     0.00000       0.31523
  13   Li  2  px     Ryd( 2p)     0.00000       0.17520
  14   Li  2  px     Ryd( 3p)     0.00000       0.17006
  15   Li  2  py     Ryd( 2p)     0.00000       0.17520
  16   Li  2  py     Ryd( 3p)     0.00000       0.17006
  17   Li  2  pz     Ryd( 2p)     0.02415       0.25042
  18   Li  2  pz     Ryd( 3p)     0.00000       0.27846


 Summary of Natural Population Analysis:

                                     Natural Population
             Natural    ---------------------------------------------
  Atom No    Charge        Core      Valence    Rydberg      Total
 --------------------------------------------------------------------
   Li  1    0.00000      1.99999     0.97586    0.02415     3.00000
   Li  2    0.00000      1.99999     0.97586    0.02415     3.00000
 ====================================================================
 * Total *  0.00000      3.99997     1.95172    0.04831     6.00000

                                 Natural Population
 ---------------------------------------------------------
   Core                       3.99997 ( 99.9994% of    4)
   Valence                    1.95172 ( 97.5860% of    2)
   Natural Minimal Basis      5.95169 ( 99.1949% of    6)
   Natural Rydberg Basis      0.04831 (  0.8051% of    6)
 ---------------------------------------------------------

    Atom No         Natural Electron Configuration
 ----------------------------------------------------------------------------
     Li  1      [core]2s( 0.98)2p( 0.02)
     Li  2      [core]2s( 0.98)2p( 0.02)


 PNAOs in the AO basis:

           AO          1       2       3       4       5       6       7       8
      ------------ ------- ------- ------- ------- ------- ------- ------- -------
   1. Li 1 (s)      0.9987 -0.2149  0.0835  0.0000  0.0000  0.0000  0.0000  0.0000
   2. Li 1 (s)      0.0291 -0.0544  2.4229  0.0000  0.0000  0.0000  0.0000  0.0000
   3. Li 1 (px)     0.0000  0.0000  0.0000  0.1095  1.7037  0.0000  0.0000  0.0000
   4. Li 1 (py)     0.0000  0.0000  0.0000  0.0000  0.0000  0.1095  1.7037  0.0000
   5. Li 1 (pz)     0.0000  0.0000  0.0000  0.0000  0.0000  0.0000  0.0000  0.1095
   6. Li 1 (s)     -0.0146  1.0697 -2.2019  0.0000  0.0000  0.0000  0.0000  0.0000
   7. Li 1 (px)     0.0000  0.0000  0.0000  0.9092 -1.4450  0.0000  0.0000  0.0000
   8. Li 1 (py)     0.0000  0.0000  0.0000  0.0000  0.0000  0.9092 -1.4450  0.0000
   9. Li 1 (pz)     0.0000  0.0000  0.0000  0.0000  0.0000  0.0000  0.0000  0.9092
  10. Li 2 (s)      0.0000  0.0000  0.0000  0.0000  0.0000  0.0000  0.0000  0.0000
  11. Li 2 (s)      0.0000  0.0000  0.0000  0.0000  0.0000  0.0000  0.0000  0.0000
  12. Li 2 (px)     0.0000  0.0000  0.0000  0.0000  0.0000  0.0000  0.0000  0.0000
  13. Li 2 (py)     0.0000  0.0000  0.0000  0.0000  0.0000  0.0000  0.0000  0.0000
  14. Li 2 (pz)     0.0000  0.0000  0.0000  0.0000  0.0000  0.0000  0.0000  0.0000
  15. Li 2 (s)      0.0000  0.0000  0.0000  0.0000  0.0000  0.0000  0.0000  0.0000
  16. Li 2 (px)     0.0000  0.0000  0.0000  0.0000  0.0000  0.0000  0.0000  0.0000
  17. Li 2 (py)     0.0000  0.0000  0.0000  0.0000  0.0000  0.0000  0.0000  0.0000
  18. Li 2 (pz)     0.0000  0.0000  0.0000  0.0000  0.0000  0.0000  0.0000  0.0000

           AO          9      10      11      12      13      14      15      16
      ------------ ------- ------- ------- ------- ------- ------- ------- -------
   1. Li 1 (s)      0.0000  0.0000  0.0000  0.0000  0.0000  0.0000  0.0000  0.0000
   2. Li 1 (s)      0.0000  0.0000  0.0000  0.0000  0.0000  0.0000  0.0000  0.0000
   3. Li 1 (px)     0.0000  0.0000  0.0000  0.0000  0.0000  0.0000  0.0000  0.0000
   4. Li 1 (py)     0.0000  0.0000  0.0000  0.0000  0.0000  0.0000  0.0000  0.0000
   5. Li 1 (pz)     1.7037  0.0000  0.0000  0.0000  0.0000  0.0000  0.0000  0.0000
   6. Li 1 (s)      0.0000  0.0000  0.0000  0.0000  0.0000  0.0000  0.0000  0.0000
   7. Li 1 (px)     0.0000  0.0000  0.0000  0.0000  0.0000  0.0000  0.0000  0.0000
   8. Li 1 (py)     0.0000  0.0000  0.0000  0.0000  0.0000  0.0000  0.0000  0.0000
   9. Li 1 (pz)    -1.4450  0.0000  0.0000  0.0000  0.0000  0.0000  0.0000  0.0000
  10. Li 2 (s)      0.0000  0.9987 -0.2149  0.0835  0.0000  0.0000  0.0000  0.0000
  11. Li 2 (s)      0.0000  0.0291 -0.0544  2.4229  0.0000  0.0000  0.0000  0.0000
  12. Li 2 (px)     0.0000  0.0000  0.0000  0.0000  0.1095  1.7037  0.0000  0.0000
  13. Li 2 (py)     0.0000  0.0000  0.0000  0.0000  0.0000  0.0000  0.1095  1.7037
  14. Li 2 (pz)     0.0000  0.0000  0.0000  0.0000  0.0000  0.0000  0.0000  0.0000
  15. Li 2 (s)      0.0000 -0.0146  1.0697 -2.2019  0.0000  0.0000  0.0000  0.0000
  16. Li 2 (px)     0.0000  0.0000  0.0000  0.0000  0.9092 -1.4450  0.0000  0.0000
  17. Li 2 (py)     0.0000  0.0000  0.0000  0.0000  0.0000  0.0000  0.9092 -1.4450
  18. Li 2 (pz)     0.0000  0.0000  0.0000  0.0000  0.0000  0.0000  0.0000  0.0000

           AO         17      18
      ------------ ------- -------
   1. Li 1 (s)      0.0000  0.0000
   2. Li 1 (s)      0.0000  0.0000
   3. Li 1 (px)     0.0000  0.0000
   4. Li 1 (py)     0.0000  0.0000
   5. Li 1 (pz)     0.0000  0.0000
   6. Li 1 (s)      0.0000  0.0000
   7. Li 1 (px)     0.0000  0.0000
   8. Li 1 (py)     0.0000  0.0000
   9. Li 1 (pz)     0.0000  0.0000
  10. Li 2 (s)      0.0000  0.0000
  11. Li 2 (s)      0.0000  0.0000
  12. Li 2 (px)     0.0000  0.0000
  13. Li 2 (py)     0.0000  0.0000
  14. Li 2 (pz)     0.1095  1.7037
  15. Li 2 (s)      0.0000  0.0000
  16. Li 2 (px)     0.0000  0.0000
  17. Li 2 (py)     0.0000  0.0000
  18. Li 2 (pz)     0.9092 -1.4450


 PNAO overlap matrix:

           NAO         1       2       3       4       5       6       7       8
      ------------ ------- ------- ------- ------- ------- ------- ------- -------
   1. Li 1( 1s )    1.0000  0.0000  0.0000  0.0000  0.0000  0.0000  0.0000  0.0000
   2. Li 1( 2s )    0.0000  1.0000  0.0000  0.0000  0.0000  0.0000  0.0000  0.0000
   3. Li 1( 3s )    0.0000  0.0000  1.0000  0.0000  0.0000  0.0000  0.0000  0.0000
   4. Li 1( 2px)    0.0000  0.0000  0.0000  1.0000  0.0000  0.0000  0.0000  0.0000
   5. Li 1( 3px)    0.0000  0.0000  0.0000  0.0000  1.0000  0.0000  0.0000  0.0000
   6. Li 1( 2py)    0.0000  0.0000  0.0000  0.0000  0.0000  1.0000  0.0000  0.0000
   7. Li 1( 3py)    0.0000  0.0000  0.0000  0.0000  0.0000  0.0000  1.0000  0.0000
   8. Li 1( 2pz)    0.0000  0.0000  0.0000  0.0000  0.0000  0.0000  0.0000  1.0000
   9. Li 1( 3pz)    0.0000  0.0000  0.0000  0.0000  0.0000  0.0000  0.0000  0.0000
  10. Li 2( 1s )    0.0006  0.0790 -0.0506  0.0000  0.0000  0.0000  0.0000 -0.1495
  11. Li 2( 2s )    0.0790  0.5932 -0.1946  0.0000  0.0000  0.0000  0.0000 -0.5731
  12. Li 2( 3s )   -0.0506 -0.1946  0.0973  0.0000  0.0000  0.0000  0.0000 -0.1906
  13. Li 2( 2px)    0.0000  0.0000  0.0000  0.5709 -0.1741  0.0000  0.0000  0.0000
  14. Li 2( 3px)    0.0000  0.0000  0.0000 -0.1741  0.1703  0.0000  0.0000  0.0000
  15. Li 2( 2py)    0.0000  0.0000  0.0000  0.0000  0.0000  0.5709 -0.1741  0.0000
  16. Li 2( 3py)    0.0000  0.0000  0.0000  0.0000  0.0000 -0.1741  0.1703  0.0000
  17. Li 2( 2pz)    0.1495  0.5731  0.1906  0.0000  0.0000  0.0000  0.0000 -0.0640
  18. Li 2( 3pz)   -0.0216 -0.1929  0.1981  0.0000  0.0000  0.0000  0.0000 -0.2787

           NAO         9      10      11      12      13      14      15      16
      ------------ ------- ------- ------- ------- ------- ------- ------- -------
   1. Li 1( 1s )    0.0000  0.0006  0.0790 -0.0506  0.0000  0.0000  0.0000  0.0000
   2. Li 1( 2s )    0.0000  0.0790  0.5932 -0.1946  0.0000  0.0000  0.0000  0.0000
   3. Li 1( 3s )    0.0000 -0.0506 -0.1946  0.0973  0.0000  0.0000  0.0000  0.0000
   4. Li 1( 2px)    0.0000  0.0000  0.0000  0.0000  0.5709 -0.1741  0.0000  0.0000
   5. Li 1( 3px)    0.0000  0.0000  0.0000  0.0000 -0.1741  0.1703  0.0000  0.0000
   6. Li 1( 2py)    0.0000  0.0000  0.0000  0.0000  0.0000  0.0000  0.5709 -0.1741
   7. Li 1( 3py)    0.0000  0.0000  0.0000  0.0000  0.0000  0.0000 -0.1741  0.1703
   8. Li 1( 2pz)    0.0000 -0.1495 -0.5731 -0.1906  0.0000  0.0000  0.0000  0.0000
   9. Li 1( 3pz)    1.0000  0.0216  0.1929 -0.1981  0.0000  0.0000  0.0000  0.0000
  10. Li 2( 1s )    0.0216  1.0000  0.0000  0.0000  0.0000  0.0000  0.0000  0.0000
  11. Li 2( 2s )    0.1929  0.0000  1.0000  0.0000  0.0000  0.0000  0.0000  0.0000
  12. Li 2( 3s )   -0.1981  0.0000  0.0000  1.0000  0.0000  0.0000  0.0000  0.0000
  13. Li 2( 2px)    0.0000  0.0000  0.0000  0.0000  1.0000  0.0000  0.0000  0.0000
  14. Li 2( 3px)    0.0000  0.0000  0.0000  0.0000  0.0000  1.0000  0.0000  0.0000
  15. Li 2( 2py)    0.0000  0.0000  0.0000  0.0000  0.0000  0.0000  1.0000  0.0000
  16. Li 2( 3py)    0.0000  0.0000  0.0000  0.0000  0.0000  0.0000  0.0000  1.0000
  17. Li 2( 2pz)   -0.2787  0.0000  0.0000  0.0000  0.0000  0.0000  0.0000  0.0000
  18. Li 2( 3pz)   -0.3583  0.0000  0.0000  0.0000  0.0000  0.0000  0.0000  0.0000

           NAO        17      18
      ------------ ------- -------
   1. Li 1( 1s )    0.1495 -0.0216
   2. Li 1( 2s )    0.5731 -0.1929
   3. Li 1( 3s )    0.1906  0.1981
   4. Li 1( 2px)    0.0000  0.0000
   5. Li 1( 3px)    0.0000  0.0000
   6. Li 1( 2py)    0.0000  0.0000
   7. Li 1( 3py)    0.0000  0.0000
   8. Li 1( 2pz)   -0.0640 -0.2787
   9. Li 1( 3pz)   -0.2787 -0.3583
  10. Li 2( 1s )    0.0000  0.0000
  11. Li 2( 2s )    0.0000  0.0000
  12. Li 2( 3s )    0.0000  0.0000
  13. Li 2( 2px)    0.0000  0.0000
  14. Li 2( 3px)    0.0000  0.0000
  15. Li 2( 2py)    0.0000  0.0000
  16. Li 2( 3py)    0.0000  0.0000
  17. Li 2( 2pz)    1.0000  0.0000
  18. Li 2( 3pz)    0.0000  1.0000


 PNAO density matrix:

           NAO         1       2       3       4       5       6       7       8
      ------------ ------- ------- ------- ------- ------- ------- ------- -------
   1. Li 1( 1s )    2.0000  0.0000  0.0000  0.0000  0.0000  0.0000  0.0000  0.0007
   2. Li 1( 2s )    0.0000  1.5326  0.0000  0.0000  0.0000  0.0000  0.0000 -0.7269
   3. Li 1( 3s )    0.0000  0.0000  0.0053  0.0000  0.0000  0.0000  0.0000  0.0115
   4. Li 1( 2px)    0.0000  0.0000  0.0000  0.0000  0.0000  0.0000  0.0000  0.0000
   5. Li 1( 3px)    0.0000  0.0000  0.0000  0.0000  0.0000  0.0000  0.0000  0.0000
   6. Li 1( 2py)    0.0000  0.0000  0.0000  0.0000  0.0000  0.0000  0.0000  0.0000
   7. Li 1( 3py)    0.0000  0.0000  0.0000  0.0000  0.0000  0.0000  0.0000  0.0000
   8. Li 1( 2pz)    0.0007 -0.7269  0.0115  0.0000  0.0000  0.0000  0.0000  0.3696
   9. Li 1( 3pz)    0.0042 -0.0109 -0.0024  0.0000  0.0000  0.0000  0.0000  0.0000
  10. Li 2( 1s )    0.0011  0.1590 -0.1025  0.0000  0.0000  0.0000  0.0000 -0.2971
  11. Li 2( 2s )    0.1590  1.5200  0.0082  0.0000  0.0000  0.0000  0.0000 -0.7032
  12. Li 2( 3s )   -0.1025  0.0082  0.0000  0.0000  0.0000  0.0000  0.0000 -0.0038
  13. Li 2( 2px)    0.0000  0.0000  0.0000  0.0000  0.0000  0.0000  0.0000  0.0000
  14. Li 2( 3px)    0.0000  0.0000  0.0000  0.0000  0.0000  0.0000  0.0000  0.0000
  15. Li 2( 2py)    0.0000  0.0000  0.0000  0.0000  0.0000  0.0000  0.0000  0.0000
  16. Li 2( 3py)    0.0000  0.0000  0.0000  0.0000  0.0000  0.0000  0.0000  0.0000
  17. Li 2( 2pz)    0.2971  0.7032  0.0038  0.0000  0.0000  0.0000  0.0000 -0.3252
  18. Li 2( 3pz)   -0.0452  0.0142  0.0003  0.0000  0.0000  0.0000  0.0000 -0.0061

           NAO         9      10      11      12      13      14      15      16
      ------------ ------- ------- ------- ------- ------- ------- ------- -------
   1. Li 1( 1s )    0.0042  0.0011  0.1590 -0.1025  0.0000  0.0000  0.0000  0.0000
   2. Li 1( 2s )   -0.0109  0.1590  1.5200  0.0082  0.0000  0.0000  0.0000  0.0000
   3. Li 1( 3s )   -0.0024 -0.1025  0.0082  0.0000  0.0000  0.0000  0.0000  0.0000
   4. Li 1( 2px)    0.0000  0.0000  0.0000  0.0000  0.0000  0.0000  0.0000  0.0000
   5. Li 1( 3px)    0.0000  0.0000  0.0000  0.0000  0.0000  0.0000  0.0000  0.0000
   6. Li 1( 2py)    0.0000  0.0000  0.0000  0.0000  0.0000  0.0000  0.0000  0.0000
   7. Li 1( 3py)    0.0000  0.0000  0.0000  0.0000  0.0000  0.0000  0.0000  0.0000
   8. Li 1( 2pz)    0.0000 -0.2971 -0.7032 -0.0038  0.0000  0.0000  0.0000  0.0000
   9. Li 1( 3pz)    0.0012  0.0452 -0.0142 -0.0003  0.0000  0.0000  0.0000  0.0000
  10. Li 2( 1s )    0.0452  2.0000  0.0000  0.0000  0.0000  0.0000  0.0000  0.0000
  11. Li 2( 2s )   -0.0142  0.0000  1.5326  0.0000  0.0000  0.0000  0.0000  0.0000
  12. Li 2( 3s )   -0.0003  0.0000  0.0000  0.0053  0.0000  0.0000  0.0000  0.0000
  13. Li 2( 2px)    0.0000  0.0000  0.0000  0.0000  0.0000  0.0000  0.0000  0.0000
  14. Li 2( 3px)    0.0000  0.0000  0.0000  0.0000  0.0000  0.0000  0.0000  0.0000
  15. Li 2( 2py)    0.0000  0.0000  0.0000  0.0000  0.0000  0.0000  0.0000  0.0000
  16. Li 2( 3py)    0.0000  0.0000  0.0000  0.0000  0.0000  0.0000  0.0000  0.0000
  17. Li 2( 2pz)   -0.0061 -0.0007  0.7269 -0.0115  0.0000  0.0000  0.0000  0.0000
  18. Li 2( 3pz)   -0.0003 -0.0042  0.0109  0.0024  0.0000  0.0000  0.0000  0.0000

           NAO        17      18
      ------------ ------- -------
   1. Li 1( 1s )    0.2971 -0.0452
   2. Li 1( 2s )    0.7032  0.0142
   3. Li 1( 3s )    0.0038  0.0003
   4. Li 1( 2px)    0.0000  0.0000
   5. Li 1( 3px)    0.0000  0.0000
   6. Li 1( 2py)    0.0000  0.0000
   7. Li 1( 3py)    0.0000  0.0000
   8. Li 1( 2pz)   -0.3252 -0.0061
   9. Li 1( 3pz)   -0.0061 -0.0003
  10. Li 2( 1s )   -0.0007 -0.0042
  11. Li 2( 2s )    0.7269  0.0109
  12. Li 2( 3s )   -0.0115  0.0024
  13. Li 2( 2px)    0.0000  0.0000
  14. Li 2( 3px)    0.0000  0.0000
  15. Li 2( 2py)    0.0000  0.0000
  16. Li 2( 3py)    0.0000  0.0000
  17. Li 2( 2pz)    0.3696  0.0000
  18. Li 2( 3pz)    0.0000  0.0012


 NAOs in the AO basis:

           AO          1       2       3       4       5       6       7       8
      ------------ ------- ------- ------- ------- ------- ------- ------- -------
   1. Li 1 (s)      0.9987 -0.2074  0.1368  0.0000  0.0000  0.0000  0.0000  0.0245
   2. Li 1 (s)      0.0291  0.2877  2.5649  0.0000  0.0000  0.0000  0.0000 -0.0148
   3. Li 1 (px)     0.0000  0.0000  0.0000  1.2607  1.2234  0.0000  0.0000  0.0000
   4. Li 1 (py)     0.0000  0.0000  0.0000  0.0000  0.0000  1.2607  1.2234  0.0000
   5. Li 1 (pz)     0.0000 -0.0041 -0.0296  0.0000  0.0000  0.0000  0.0000  1.6996
   6. Li 1 (s)     -0.0146  0.9150 -2.6671  0.0000  0.0000  0.0000  0.0000 -0.6351
   7. Li 1 (px)     0.0000  0.0000  0.0000 -0.3187 -1.9479  0.0000  0.0000  0.0000
   8. Li 1 (py)     0.0000  0.0000  0.0000  0.0000  0.0000 -0.3187 -1.9479  0.0000
   9. Li 1 (pz)     0.0000  0.0012  0.0088  0.0000  0.0000  0.0000  0.0000 -0.3794
  10. Li 2 (s)     -0.0003 -0.0099 -0.0050  0.0000  0.0000  0.0000  0.0000  0.0278
  11. Li 2 (s)      0.0000 -0.0082 -0.1971  0.0000  0.0000  0.0000  0.0000  0.3830
  12. Li 2 (px)     0.0000  0.0000  0.0000 -0.1252 -0.0936  0.0000  0.0000  0.0000
  13. Li 2 (py)     0.0000  0.0000  0.0000  0.0000  0.0000 -0.1252 -0.0936  0.0000
  14. Li 2 (pz)     0.0000 -0.0194 -0.1411  0.0000  0.0000  0.0000  0.0000  0.6382
  15. Li 2 (s)      0.0000 -0.3489  0.5400  0.0000  0.0000  0.0000  0.0000  0.4800
  16. Li 2 (px)     0.0000  0.0000  0.0000  0.0189  0.5315  0.0000  0.0000  0.0000
  17. Li 2 (py)     0.0000  0.0000  0.0000  0.0000  0.0000  0.0189  0.5315  0.0000
  18. Li 2 (pz)     0.0000  0.0058  0.0422  0.0000  0.0000  0.0000  0.0000 -0.1211

           AO          9      10      11      12      13      14      15      16
      ------------ ------- ------- ------- ------- ------- ------- ------- -------
   1. Li 1 (s)     -0.2135 -0.0003 -0.0099 -0.0050  0.0000  0.0000  0.0000  0.0000
   2. Li 1 (s)     -1.5520  0.0000 -0.0082 -0.1971  0.0000  0.0000  0.0000  0.0000
   3. Li 1 (px)     0.0000  0.0000  0.0000  0.0000 -0.1252 -0.0936  0.0000  0.0000
   4. Li 1 (py)     0.0000  0.0000  0.0000  0.0000  0.0000  0.0000 -0.1252 -0.0936
   5. Li 1 (pz)     1.1154  0.0000  0.0194  0.1411  0.0000  0.0000  0.0000  0.0000
   6. Li 1 (s)      5.2283  0.0000 -0.3489  0.5400  0.0000  0.0000  0.0000  0.0000
   7. Li 1 (px)     0.0000  0.0000  0.0000  0.0000  0.0189  0.5315  0.0000  0.0000
   8. Li 1 (py)     0.0000  0.0000  0.0000  0.0000  0.0000  0.0000  0.0189  0.5315
   9. Li 1 (pz)    -3.8368  0.0000 -0.0058 -0.0422  0.0000  0.0000  0.0000  0.0000
  10. Li 2 (s)      0.1644  0.9987 -0.2074  0.1368  0.0000  0.0000  0.0000  0.0000
  11. Li 2 (s)      1.2415  0.0291  0.2877  2.5649  0.0000  0.0000  0.0000  0.0000
  12. Li 2 (px)     0.0000  0.0000  0.0000  0.0000  1.2607  1.2234  0.0000  0.0000
  13. Li 2 (py)     0.0000  0.0000  0.0000  0.0000  0.0000  0.0000  1.2607  1.2234
  14. Li 2 (pz)     0.0190  0.0000  0.0041  0.0296  0.0000  0.0000  0.0000  0.0000
  15. Li 2 (s)     -5.4129 -0.0146  0.9150 -2.6671  0.0000  0.0000  0.0000  0.0000
  16. Li 2 (px)     0.0000  0.0000  0.0000  0.0000 -0.3187 -1.9479  0.0000  0.0000
  17. Li 2 (py)     0.0000  0.0000  0.0000  0.0000  0.0000  0.0000 -0.3187 -1.9479
  18. Li 2 (pz)    -1.9033  0.0000 -0.0012 -0.0088  0.0000  0.0000  0.0000  0.0000

           AO         17      18
      ------------ ------- -------
   1. Li 1 (s)     -0.0278 -0.1644
   2. Li 1 (s)     -0.3830 -1.2415
   3. Li 1 (px)     0.0000  0.0000
   4. Li 1 (py)     0.0000  0.0000
   5. Li 1 (pz)     0.6382  0.0190
   6. Li 1 (s)     -0.4800  5.4129
   7. Li 1 (px)     0.0000  0.0000
   8. Li 1 (py)     0.0000  0.0000
   9. Li 1 (pz)    -0.1211 -1.9033
  10. Li 2 (s)     -0.0245  0.2135
  11. Li 2 (s)      0.0148  1.5520
  12. Li 2 (px)     0.0000  0.0000
  13. Li 2 (py)     0.0000  0.0000
  14. Li 2 (pz)     1.6996  1.1154
  15. Li 2 (s)      0.6351 -5.2283
  16. Li 2 (px)     0.0000  0.0000
  17. Li 2 (py)     0.0000  0.0000
  18. Li 2 (pz)    -0.3794 -3.8368


 NAO density matrix:

           NAO         1       2       3       4       5       6       7       8
      ------------ ------- ------- ------- ------- ------- ------- ------- -------
   1. Li 1( 1s )    2.0000 -0.0004  0.0007  0.0000  0.0000  0.0000  0.0000  0.0039
   2. Li 1( 2s )   -0.0004  0.9759  0.0000  0.0000  0.0000  0.0000  0.0000 -0.1535
   3. Li 1( 3s )    0.0007  0.0000  0.0000  0.0000  0.0000  0.0000  0.0000  0.0000
   4. Li 1( 2px)    0.0000  0.0000  0.0000  0.0000  0.0000  0.0000  0.0000  0.0000
   5. Li 1( 3px)    0.0000  0.0000  0.0000  0.0000  0.0000  0.0000  0.0000  0.0000
   6. Li 1( 2py)    0.0000  0.0000  0.0000  0.0000  0.0000  0.0000  0.0000  0.0000
   7. Li 1( 3py)    0.0000  0.0000  0.0000  0.0000  0.0000  0.0000  0.0000  0.0000
   8. Li 1( 2pz)    0.0039 -0.1535  0.0000  0.0000  0.0000  0.0000  0.0000  0.0241
   9. Li 1( 3pz)   -0.0005  0.0000  0.0000  0.0000  0.0000  0.0000  0.0000  0.0000
  10. Li 2( 1s )    0.0000  0.0012 -0.0014  0.0000  0.0000  0.0000  0.0000  0.0013
  11. Li 2( 2s )    0.0012  0.9759  0.0000  0.0000  0.0000  0.0000  0.0000 -0.1535
  12. Li 2( 3s )   -0.0014  0.0000  0.0000  0.0000  0.0000  0.0000  0.0000  0.0000
  13. Li 2( 2px)    0.0000  0.0000  0.0000  0.0000  0.0000  0.0000  0.0000  0.0000
  14. Li 2( 3px)    0.0000  0.0000  0.0000  0.0000  0.0000  0.0000  0.0000  0.0000
  15. Li 2( 2py)    0.0000  0.0000  0.0000  0.0000  0.0000  0.0000  0.0000  0.0000
  16. Li 2( 3py)    0.0000  0.0000  0.0000  0.0000  0.0000  0.0000  0.0000  0.0000
  17. Li 2( 2pz)   -0.0013  0.1535  0.0000  0.0000  0.0000  0.0000  0.0000 -0.0241
  18. Li 2( 3pz)   -0.0020  0.0000  0.0000  0.0000  0.0000  0.0000  0.0000  0.0000

           NAO         9      10      11      12      13      14      15      16
      ------------ ------- ------- ------- ------- ------- ------- ------- -------
   1. Li 1( 1s )   -0.0005  0.0000  0.0012 -0.0014  0.0000  0.0000  0.0000  0.0000
   2. Li 1( 2s )    0.0000  0.0012  0.9759  0.0000  0.0000  0.0000  0.0000  0.0000
   3. Li 1( 3s )    0.0000 -0.0014  0.0000  0.0000  0.0000  0.0000  0.0000  0.0000
   4. Li 1( 2px)    0.0000  0.0000  0.0000  0.0000  0.0000  0.0000  0.0000  0.0000
   5. Li 1( 3px)    0.0000  0.0000  0.0000  0.0000  0.0000  0.0000  0.0000  0.0000
   6. Li 1( 2py)    0.0000  0.0000  0.0000  0.0000  0.0000  0.0000  0.0000  0.0000
   7. Li 1( 3py)    0.0000  0.0000  0.0000  0.0000  0.0000  0.0000  0.0000  0.0000
   8. Li 1( 2pz)    0.0000  0.0013 -0.1535  0.0000  0.0000  0.0000  0.0000  0.0000
   9. Li 1( 3pz)    0.0000  0.0020  0.0000  0.0000  0.0000  0.0000  0.0000  0.0000
  10. Li 2( 1s )    0.0020  2.0000 -0.0004  0.0007  0.0000  0.0000  0.0000  0.0000
  11. Li 2( 2s )    0.0000 -0.0004  0.9759  0.0000  0.0000  0.0000  0.0000  0.0000
  12. Li 2( 3s )    0.0000  0.0007  0.0000  0.0000  0.0000  0.0000  0.0000  0.0000
  13. Li 2( 2px)    0.0000  0.0000  0.0000  0.0000  0.0000  0.0000  0.0000  0.0000
  14. Li 2( 3px)    0.0000  0.0000  0.0000  0.0000  0.0000  0.0000  0.0000  0.0000
  15. Li 2( 2py)    0.0000  0.0000  0.0000  0.0000  0.0000  0.0000  0.0000  0.0000
  16. Li 2( 3py)    0.0000  0.0000  0.0000  0.0000  0.0000  0.0000  0.0000  0.0000
  17. Li 2( 2pz)    0.0000 -0.0039  0.1535  0.0000  0.0000  0.0000  0.0000  0.0000
  18. Li 2( 3pz)    0.0000  0.0005  0.0000  0.0000  0.0000  0.0000  0.0000  0.0000

           NAO        17      18
      ------------ ------- -------
   1. Li 1( 1s )   -0.0013 -0.0020
   2. Li 1( 2s )    0.1535  0.0000
   3. Li 1( 3s )    0.0000  0.0000
   4. Li 1( 2px)    0.0000  0.0000
   5. Li 1( 3px)    0.0000  0.0000
   6. Li 1( 2py)    0.0000  0.0000
   7. Li 1( 3py)    0.0000  0.0000
   8. Li 1( 2pz)   -0.0241  0.0000
   9. Li 1( 3pz)    0.0000  0.0000
  10. Li 2( 1s )   -0.0039  0.0005
  11. Li 2( 2s )    0.1535  0.0000
  12. Li 2( 3s )    0.0000  0.0000
  13. Li 2( 2px)    0.0000  0.0000
  14. Li 2( 3px)    0.0000  0.0000
  15. Li 2( 2py)    0.0000  0.0000
  16. Li 2( 3py)    0.0000  0.0000
  17. Li 2( 2pz)    0.0241  0.0000
  18. Li 2( 3pz)    0.0000  0.0000


 NATURAL BOND ORBITAL ANALYSIS:

 Initiate 2-center NBO search using THRESH = 1.900 and PRJTHR = 0.300

 Search of NAO DM block for core orbitals on atom:   1
      Eigenvector ( 1) has occupancy 1.99999
            1.0000 0.0000 0.0000 0.0000 0.0000 0.0000 0.0000 0.0000
            0.0000
        1 eigenvector(s) stashed in permanent list

 Search of NAO DM block for core orbitals on atom:   2
      Eigenvector ( 1) has occupancy 1.99999
            1.0000 0.0000 0.0000 0.0000 0.0000 0.0000 0.0000 0.0000
            0.0000
        1 eigenvector(s) stashed in permanent list

 Core orbitals projected from the NAO density matrix
       2.000 electrons remain (>1.900); search continues

 No NHOs identified in the 1-center search of the NAO density matrix
       2.000 electrons remain (>1.900); search continues

 Search of NAO DM block for the following atom(s):   1   2
      Select eigenvectors with eigenvalue > 1.900
       2.000 0.000 0.000 0.000 0.000 0.000 0.000 0.000 0.000 0.000 0.000 0.000
       0.000 0.000 0.000 0.000 0.000 0.000
      Eigenvector ( 1) has occupancy 2.00000
            0.0000 0.6985 0.0000 0.0000 0.0000 0.0000 0.0000-0.1099
            0.0000 0.0000 0.6985 0.0000 0.0000 0.0000 0.0000 0.0000
            0.1099 0.0000
      1 hybrid on atom 1 stashed in prospective list
      1 hybrid on atom 2 stashed in prospective list

 Stash prospective hybrids having projection expectation value > 0.300
       1.000 1.000
      0 hybrids eliminated in 1 pass
      2 hybrids moved from prospective to permanent list

 NHOs of 2-center eigenvectors projected from the NAO density matrix
       0.000 electrons remain in the fully projected matrix

 Search of NHO DM block for the following atom(s):   1
      Select eigenvectors with eigenvalue > 1.900
       2.000 0.000 0.000 0.000 0.000 0.000 0.000 0.000 0.000
      Eigenvector ( 1) has occupancy 1.99999
            1.0000 0.0000 0.0000 0.0000 0.0000 0.0000 0.0000 0.0000
            0.0000
           NBO accepted:    1. Label:CR ( 1)   1
        1 eigenvector(s) stashed in permanent list

 Search of NHO DM block for the following atom(s):   2
      Select eigenvectors with eigenvalue > 1.900
       2.000 0.000 0.000 0.000 0.000 0.000 0.000 0.000 0.000
      Eigenvector ( 1) has occupancy 1.99999
            1.0000 0.0000 0.0000 0.0000 0.0000 0.0000 0.0000 0.0000
            0.0000
           NBO accepted:    2. Label:CR ( 1)   2
        1 eigenvector(s) stashed in permanent list

  1-center NBOs projected from the NHO density matrix
       2.000 electrons remain (>1.900); search continues

 Search of NHO DM block for the following atom(s):   1   2
      Select eigenvectors with eigenvalue > 1.900
       2.000 0.000 0.000 0.000 0.000 0.000 0.000 0.000 0.000 0.000 0.000 0.000
       0.000 0.000 0.000 0.000 0.000 0.000
      Eigenvector ( 1) has occupancy 2.00000
            0.0000 0.7071 0.0000 0.0000 0.0000 0.0000 0.0000 0.0000
            0.0000 0.0000 0.7071 0.0000 0.0000 0.0000 0.0000 0.0000
            0.0000 0.0000
      Occupancy is 2.000 after deleting minor hybrid components
            0.0000 0.7071 0.0000 0.0000 0.0000 0.0000 0.0000 0.0000
            0.0000 0.0000 0.7071 0.0000 0.0000 0.0000 0.0000 0.0000
            0.0000 0.0000
           NBO accepted:    3. Label:BD ( 1)   1   2
      Occupancy is 0.000 for antibonding component
            0.0000 0.7071 0.0000 0.0000 0.0000 0.0000 0.0000 0.0000
            0.0000 0.0000-0.7071 0.0000 0.0000 0.0000 0.0000 0.0000
            0.0000 0.0000
           NBO accepted:    4. Label:BD*( 1)   1   2
        2 eigenvector(s) stashed in permanent list

  2-center NBOs projected from the NHO density matrix
       0.000 electrons remain in the fully projected matrix

                            Occupancies       Lewis Structure    Low   High
         Max    Occ     -------------------  -----------------   occ   occ
  Cycle  Ctr   Thresh    Lewis   non-Lewis     CR  BD  nC  LP    (L)   (NL)
 ============================================================================
    1     2     1.90     5.99997   0.00003      2   1   0   0     0      0
 ----------------------------------------------------------------------------

 Structure accepted: No low occupancy Lewis orbitals

 -------------------------------------------------------
   Core                      3.99997 ( 99.999% of   4)
   Valence Lewis             2.00000 (100.000% of   2)
  ==================      =============================
   Total Lewis               5.99997 (100.000% of   6)
  -----------------------------------------------------
   Valence non-Lewis         0.00000 (  0.000% of   6)
   Rydberg non-Lewis         0.00002 (  0.000% of   6)
  ==================      =============================
   Total non-Lewis           0.00003 (  0.000% of   6)
 -------------------------------------------------------


     (Occupancy)   Bond orbital / Coefficients / Hybrids
 ------------------ Lewis ------------------------------------------------------
   1. (1.99999) CR ( 1)Li  1            s(100.00%)
                                         1.0000  0.0000  0.0000  0.0000  0.0000
                                         0.0000  0.0000  0.0000  0.0000
   2. (1.99999) CR ( 1)Li  2            s(100.00%)
                                         1.0000  0.0000  0.0000  0.0000  0.0000
                                         0.0000  0.0000  0.0000  0.0000
   3. (2.00000) BD ( 1)Li  1-Li  2
               ( 50.00%)   0.7071*Li  1 s( 97.59%)p 0.02(  2.41%)
                                         0.0000  0.9879  0.0000  0.0000  0.0000
                                         0.0000  0.0000 -0.1554  0.0000
               ( 50.00%)   0.7071*Li  2 s( 97.59%)p 0.02(  2.41%)
                                         0.0000  0.9879  0.0000  0.0000  0.0000
                                         0.0000  0.0000  0.1554  0.0000
 ---------------- non-Lewis ----------------------------------------------------
   4. (0.00000) BD*( 1)Li  1-Li  2
               ( 50.00%)   0.7071*Li  1 s( 97.59%)p 0.02(  2.41%)
               ( 50.00%)  -0.7071*Li  2 s( 97.59%)p 0.02(  2.41%)
   5. (0.00001) RY ( 1)Li  1            s(  2.51%)p38.81( 97.49%)
   6. (0.00000) RY ( 2)Li  1            s( 37.19%)p 1.69( 62.81%)
   7. (0.00000) RY ( 3)Li  1            s( 62.72%)p 0.59( 37.28%)
   8. (0.00000) RY ( 4)Li  1            s(  0.00%)p 1.00(100.00%)
   9. (0.00000) RY ( 5)Li  1            s(  0.00%)p 1.00(100.00%)
  10. (0.00000) RY ( 6)Li  1            s(  0.00%)p 1.00(100.00%)
  11. (0.00000) RY ( 7)Li  1            s(  0.00%)p 1.00(100.00%)
  12. (0.00001) RY ( 1)Li  2            s(  2.51%)p38.81( 97.49%)
  13. (0.00000) RY ( 2)Li  2            s( 37.19%)p 1.69( 62.81%)
  14. (0.00000) RY ( 3)Li  2            s( 62.72%)p 0.59( 37.28%)
  15. (0.00000) RY ( 4)Li  2            s(  0.00%)p 1.00(100.00%)
  16. (0.00000) RY ( 5)Li  2            s(  0.00%)p 1.00(100.00%)
  17. (0.00000) RY ( 6)Li  2            s(  0.00%)p 1.00(100.00%)
  18. (0.00000) RY ( 7)Li  2            s(  0.00%)p 1.00(100.00%)


 NHO DIRECTIONALITY AND BOND BENDING (deviation from line of nuclear centers at
                                      the position of maximum hybrid amplitude)

         [Thresholds for printing:  angular deviation  >  1.0 degree]
                                    p- or d-character  > 25.0%
                                    orbital occupancy  >  0.10e

                        Line of Centers        Hybrid 1             Hybrid 2
                        ---------------  -------------------  ------------------
           NBO            Theta   Phi    Theta   Phi    Dev   Theta   Phi    Dev
 ===============================================================================
    None exceeding thresholds


 SECOND ORDER PERTURBATION THEORY ANALYSIS OF FOCK MATRIX IN NBO BASIS

     Threshold for printing:   0.50 kcal/mol
                                                          E(2) E(NL)-E(L) F(L,NL)
      Donor (L) NBO              Acceptor (NL) NBO      kcal/mol   a.u.    a.u.
 ===============================================================================

 within unit  1
       None above threshold


 NATURAL BOND ORBITALS (Summary):

                                                     Principal Delocalizations
           NBO                 Occupancy    Energy   (geminal,vicinal,remote)
 ===============================================================================
 Molecular unit  1  (Li2)
 ------ Lewis --------------------------------------
    1. CR ( 1)Li  1             1.99999    -2.43530
    2. CR ( 1)Li  2             1.99999    -2.43530
    3. BD ( 1)Li  1-Li  2       2.00000    -0.17558
 ------ non-Lewis ----------------------------------
    4. BD*( 1)Li  1-Li  2       0.00000     0.05725
    5. RY ( 1)Li  1             0.00001     0.25593
    6. RY ( 2)Li  1             0.00000     0.41053
    7. RY ( 3)Li  1             0.00000     0.17282
    8. RY ( 4)Li  1             0.00000     0.19620
    9. RY ( 5)Li  1             0.00000     0.12071
   10. RY ( 6)Li  1             0.00000     0.22455
   11. RY ( 7)Li  1             0.00000     0.14907
   12. RY ( 1)Li  2             0.00001     0.25593
   13. RY ( 2)Li  2             0.00000     0.41053
   14. RY ( 3)Li  2             0.00000     0.17282
   15. RY ( 4)Li  2             0.00000     0.08269
   16. RY ( 5)Li  2             0.00000     0.10249
   17. RY ( 6)Li  2             0.00000     0.24277
   18. RY ( 7)Li  2             0.00000     0.26257
          -------------------------------
                 Total Lewis    5.99997  ( 99.9996%)
           Valence non-Lewis    0.00000  (  0.0000%)
           Rydberg non-Lewis    0.00002  (  0.0004%)
          -------------------------------
               Total unit  1    6.00000  (100.0000%)
              Charge unit  1    0.00000

 $CHOOSE
   BOND S 1 2 END
 $END

 NBO analysis completed in 0.16 CPU seconds (0 wall seconds)
 Maximum scratch memory used by NBO was 263938 words (2.01 MB)
 Maximum scratch memory used by G16NBO was 8655 words (0.07 MB)

 Opening RunExU unformatted file "/cluster/work/users/beto93/LiLi/Gau-1873853.EUF"
 Read unf file /cluster/work/users/beto93/LiLi/Gau-1873853.EUF:
 Label Gaussian matrix elements                                         IVers= 2 NLab= 2 Version=ES64L-G16RevC.01
 Title NBO-a                                                           
 NAtoms=     2 NBasis=    18 NBsUse=    18 ICharg=     0 Multip=     1 NE=     6 Len12L=8 Len4L=8 IOpCl= 0 ICGU=111
 GAUSSIAN SCALARS                    NI= 1 NR= 1 NTot=       1 LenBuf=    2 NRI=1 N=    1000
 NPA CHARGES                         NI= 0 NR= 1 NTot=       2 LenBuf= 4000 NRI=1 N=       2
 Recovered energy= -14.8603229078     dipole=     -0.000000000000     -0.000000000000      0.000000000000
 Unable to Open any file for archive entry.
 1\1\GINC-C2-2\SP\RHF\4-31G\Li2\BETO93\24-Jul-2024\0\\#RHF/4-31G Pop=NB
 O7Read\\NBO-a\\0,1\Li,0,0.,0.,-0.000212\Li,0,0.,0.,2.696212\\Version=E
 S64L-G16RevC.01\State=1-SGG\HF=-14.8603229\RMSD=3.090e-10\Dipole=0.,0.
 ,0.\Quadrupole=-2.9807722,-2.9807722,5.9615443,0.,0.,0.\PG=D*H [C*(Li1
 .Li1)]\\@
 The archive entry for this job was punched.


 TERRY FORSTER, PORTLY ATLANTA BRAVES RELIEVER,
 ANNOUNCING THAT HE WAS GOING TO A FAT FARM:
 "A WAIST IS A TERRIBLE THING TO MIND."
 Job cpu time:       0 days  0 hours  0 minutes  9.0 seconds.
 Elapsed time:       0 days  0 hours  0 minutes  3.0 seconds.
 File lengths (MBytes):  RWF=     10 Int=      0 D2E=      0 Chk=      1 Scr=      1
 Normal termination of Gaussian 16 at Wed Jul 24 13:56:59 2024.
