 Entering Gaussian System, Link 0=g16
 Initial command:
 /cluster/software/Gaussian/g16_C.01/l1.exe "/cluster/work/users/beto93/mol63/Gau-2207579.inp" -scrdir="/cluster/work/users/beto93/mol63/"
 Entering Link 1 = /cluster/software/Gaussian/g16_C.01/l1.exe PID=   2207584.
  
 Copyright (c) 1988-2019, Gaussian, Inc.  All Rights Reserved.
  
 This is part of the Gaussian(R) 16 program.  It is based on
 the Gaussian(R) 09 system (copyright 2009, Gaussian, Inc.),
 the Gaussian(R) 03 system (copyright 2003, Gaussian, Inc.),
 the Gaussian(R) 98 system (copyright 1998, Gaussian, Inc.),
 the Gaussian(R) 94 system (copyright 1995, Gaussian, Inc.),
 the Gaussian 92(TM) system (copyright 1992, Gaussian, Inc.),
 the Gaussian 90(TM) system (copyright 1990, Gaussian, Inc.),
 the Gaussian 88(TM) system (copyright 1988, Gaussian, Inc.),
 the Gaussian 86(TM) system (copyright 1986, Carnegie Mellon
 University), and the Gaussian 82(TM) system (copyright 1983,
 Carnegie Mellon University). Gaussian is a federally registered
 trademark of Gaussian, Inc.
  
 This software contains proprietary and confidential information,
 including trade secrets, belonging to Gaussian, Inc.
  
 This software is provided under written license and may be
 used, copied, transmitted, or stored only in accord with that
 written license.
  
 The following legend is applicable only to US Government
 contracts under FAR:
  
                    RESTRICTED RIGHTS LEGEND
  
 Use, reproduction and disclosure by the US Government is
 subject to restrictions as set forth in subparagraphs (a)
 and (c) of the Commercial Computer Software - Restricted
 Rights clause in FAR 52.227-19.
  
 Gaussian, Inc.
 340 Quinnipiac St., Bldg. 40, Wallingford CT 06492
  
  
 ---------------------------------------------------------------
 Warning -- This program may not be used in any manner that
 competes with the business of Gaussian, Inc. or will provide
 assistance to any competitor of Gaussian, Inc.  The licensee
 of this program is prohibited from giving any competitor of
 Gaussian, Inc. access to this program.  By using this program,
 the user acknowledges that Gaussian, Inc. is engaged in the
 business of creating and licensing software in the field of
 computational chemistry and represents and warrants to the
 licensee that it is not a competitor of Gaussian, Inc. and that
 it will not use this program in any manner prohibited above.
 ---------------------------------------------------------------
  

 Cite this work as:
 Gaussian 16, Revision C.01,
 M. J. Frisch, G. W. Trucks, H. B. Schlegel, G. E. Scuseria, 
 M. A. Robb, J. R. Cheeseman, G. Scalmani, V. Barone, 
 G. A. Petersson, H. Nakatsuji, X. Li, M. Caricato, A. V. Marenich, 
 J. Bloino, B. G. Janesko, R. Gomperts, B. Mennucci, H. P. Hratchian, 
 J. V. Ortiz, A. F. Izmaylov, J. L. Sonnenberg, D. Williams-Young, 
 F. Ding, F. Lipparini, F. Egidi, J. Goings, B. Peng, A. Petrone, 
 T. Henderson, D. Ranasinghe, V. G. Zakrzewski, J. Gao, N. Rega, 
 G. Zheng, W. Liang, M. Hada, M. Ehara, K. Toyota, R. Fukuda, 
 J. Hasegawa, M. Ishida, T. Nakajima, Y. Honda, O. Kitao, H. Nakai, 
 T. Vreven, K. Throssell, J. A. Montgomery, Jr., J. E. Peralta, 
 F. Ogliaro, M. J. Bearpark, J. J. Heyd, E. N. Brothers, K. N. Kudin, 
 V. N. Staroverov, T. A. Keith, R. Kobayashi, J. Normand, 
 K. Raghavachari, A. P. Rendell, J. C. Burant, S. S. Iyengar, 
 J. Tomasi, M. Cossi, J. M. Millam, M. Klene, C. Adamo, R. Cammi, 
 J. W. Ochterski, R. L. Martin, K. Morokuma, O. Farkas, 
 J. B. Foresman, and D. J. Fox, Gaussian, Inc., Wallingford CT, 2019.
 
 ******************************************
 Gaussian 16:  ES64L-G16RevC.01  3-Jul-2019
                18-Nov-2024 
 ******************************************
 %LindaWorkers=c2-23-ib
 %NProcShared=4
 Will use up to    4 processors via shared memory.
 %mem=25GB
 %chk=mol63.chk
 SetLPE:    new flags="-opt 'Tsnet.Node.lindarsharg: ssh'  -nodelist 'c2-23-ib.saga' -env GAUSS_MDEF=3355443200 -env GAUSS_EXEDIR="/cluster/software/Gaussian/g16_C.01/bsd:/cluster/software/Gaussian/g16_C.01""
 Will use up to    1 processors via Linda.
 -----------------------------------------------------------------
 #RHF/6-31G* int=nobasistransform Symmetry=None 5D 7F Pop=NBO7Read
 -----------------------------------------------------------------
 1/38=1,163=2,172=1/1;
 2/12=2,15=3,17=6,18=5,40=1/2;
 3/5=1,6=6,7=1,8=11,11=1,25=1,30=1,60=-1,116=1/1,2,3;
 4//1;
 5/5=2,38=5/2;
 6/7=2,8=2,9=2,10=2,28=1,40=2,113=1,114=1,124=2103/1,12;
 99/5=1,9=1/99;
 ---------
 mol63-NBO
 ---------
 Symbolic Z-matrix:
 Charge =  0 Multiplicity = 1
 O                     0.        0.        1.33072 
 C                     0.        0.        0.14436 
 F                     0.        1.06949  -0.63955 
 F                     0.       -1.06949  -0.63955 
 
                          Input orientation:                          
 ---------------------------------------------------------------------
 Center     Atomic      Atomic             Coordinates (Angstroms)
 Number     Number       Type             X           Y           Z
 ---------------------------------------------------------------------
      1          8           0        0.000000    0.000000    1.330715
      2          6           0        0.000000    0.000000    0.144358
      3          9           0        0.000000    1.069490   -0.639548
      4          9           0        0.000000   -1.069490   -0.639548
 ---------------------------------------------------------------------
                    Distance matrix (angstroms):
                    1          2          3          4
     1  O    0.000000
     2  C    1.186357   0.000000
     3  F    2.241817   1.326016   0.000000
     4  F    2.241817   1.326016   2.138980   0.000000
 Symmetry turned off by external request.
 Stoichiometry    CF2O
 Rotational constants (GHZ):          11.6283112          11.4623250           5.7723608
 Standard basis: 6-31G(d) (5D, 7F)
    56 basis functions,   112 primitive gaussians,    60 cartesian basis functions
    16 alpha electrons       16 beta electrons
       nuclear repulsion energy       118.5405192725 Hartrees.
 NAtoms=    4 NActive=    4 NUniq=    4 SFac= 1.00D+00 NAtFMM=   60 NAOKFM=F Big=F
 Integral buffers will be    131072 words long.
 Raffenetti 1 integral format.
 Two-electron integral symmetry is turned off.
 One-electron integrals computed using PRISM.
 NBasis=    56 RedAO= T EigKep=  1.14D-02  NBF=    56
 NBsUse=    56 1.00D-06 EigRej= -1.00D+00 NBFU=    56
 ExpMin= 1.69D-01 ExpMax= 7.00D+03 ExpMxC= 1.05D+03 IAcc=3 IRadAn=         5 AccDes= 0.00D+00
 Harris functional with IExCor=  205 and IRadAn=       5 diagonalized for initial guess.
 HarFok:  IExCor=  205 AccDes= 0.00D+00 IRadAn=         5 IDoV= 1 UseB2=F ITyADJ=14
 ICtDFT=  3500011 ScaDFX=  1.000000  1.000000  1.000000  1.000000
 FoFCou: FMM=F IPFlag=           0 FMFlag=      100000 FMFlg1=           0
         NFxFlg=           0 DoJE=T BraDBF=F KetDBF=T FulRan=T
         wScrn=  0.000000 ICntrl=       500 IOpCl=  0 I1Cent=   200000004 NGrid=           0
         NMat0=    1 NMatS0=      1 NMatT0=    0 NMatD0=    1 NMtDS0=    0 NMtDT0=    0
 Symmetry not used in FoFCou.
 Keep R1 ints in memory in canonical form, NReq=2111182.
 Requested convergence on RMS density matrix=1.00D-08 within 128 cycles.
 Requested convergence on MAX density matrix=1.00D-06.
 Requested convergence on             energy=1.00D-06.
 No special actions if energy rises.
 SCF Done:  E(RHF) =  -311.607556525     A.U. after   12 cycles
            NFock= 12  Conv=0.30D-08     -V/T= 2.0019

 **********************************************************************

            Population analysis using the SCF Density.

 **********************************************************************

 Alpha  occ. eigenvalues --  -26.38851 -26.38847 -20.63002 -11.54645  -1.74847
 Alpha  occ. eigenvalues --   -1.67445  -1.46818  -0.94741  -0.85159  -0.80473
 Alpha  occ. eigenvalues --   -0.79512  -0.71778  -0.69529  -0.69447  -0.56770
 Alpha  occ. eigenvalues --   -0.55059
 Alpha virt. eigenvalues --    0.15988   0.28074   0.45249   0.51693   0.66234
 Alpha virt. eigenvalues --    0.67133   0.68381   0.88121   1.09477   1.22954
 Alpha virt. eigenvalues --    1.25418   1.41058   1.42472   1.44563   1.51824
 Alpha virt. eigenvalues --    1.55266   1.61850   1.62298   1.65562   1.75452
 Alpha virt. eigenvalues --    1.90378   1.98149   2.01025   2.04705   2.05716
 Alpha virt. eigenvalues --    2.09558   2.14978   2.17764   2.23824   2.32045
 Alpha virt. eigenvalues --    2.35603   2.42644   2.47483   2.82993   3.01765
 Alpha virt. eigenvalues --    3.12766   3.18449   3.34190   3.42116   3.49707
          Condensed to atoms (all electrons):
               1          2          3          4
     1  O    7.941592   0.626504  -0.045082  -0.045082
     2  C    0.626504   3.622353   0.282023   0.282023
     3  F   -0.045082   0.282023   9.163462  -0.045820
     4  F   -0.045082   0.282023  -0.045820   9.163462
 Mulliken charges:
               1
     1  O   -0.477932
     2  C    1.187098
     3  F   -0.354583
     4  F   -0.354583
 Sum of Mulliken charges =  -0.00000
 Mulliken charges with hydrogens summed into heavy atoms:
               1
     1  O   -0.477932
     2  C    1.187098
     3  F   -0.354583
     4  F   -0.354583
 Electronic spatial extent (au):  <R**2>=            197.5097
 Charge=             -0.0000 electrons
 Dipole moment (field-independent basis, Debye):
    X=             -0.0000    Y=             -0.0000    Z=             -1.2353  Tot=              1.2353
 Quadrupole moment (field-independent basis, Debye-Ang):
   XX=            -18.3436   YY=            -21.0429   ZZ=            -23.3720
   XY=              0.0000   XZ=             -0.0000   YZ=              0.0000
 Traceless Quadrupole moment (field-independent basis, Debye-Ang):
   XX=              2.5759   YY=             -0.1234   ZZ=             -2.4525
   XY=              0.0000   XZ=             -0.0000   YZ=              0.0000
 Octapole moment (field-independent basis, Debye-Ang**2):
  XXX=             -0.0000  YYY=              0.0000  ZZZ=             -9.8097  XYY=              0.0000
  XXY=             -0.0000  XXZ=             -1.8456  XZZ=              0.0000  YZZ=              0.0000
  YYZ=             -1.3827  XYZ=             -0.0000
 Hexadecapole moment (field-independent basis, Debye-Ang**3):
 XXXX=            -11.4599 YYYY=            -76.7816 ZZZZ=            -98.6748 XXXY=              0.0000
 XXXZ=             -0.0000 YYYX=              0.0000 YYYZ=              0.0000 ZZZX=             -0.0000
 ZZZY=              0.0000 XXYY=            -14.7333 XXZZ=            -17.5387 YYZZ=            -28.7191
 XXYZ=              0.0000 YYXZ=             -0.0000 ZZXY=              0.0000
 N-N= 1.185405192725D+02 E-N=-9.783797959727D+02  KE= 3.110221002997D+02
 Running external command "gaunbo7 R"
         input file       "/cluster/work/users/beto93/mol63/Gau-2207584.EIn"
         output file      "/cluster/work/users/beto93/mol63/Gau-2207584.EOu"
         message file     "/cluster/work/users/beto93/mol63/Gau-2207584.EMs"
         fchk file        "/cluster/work/users/beto93/mol63/Gau-2207584.EFC"
         mat. el file     "/cluster/work/users/beto93/mol63/Gau-2207584.EUF"

 Writing WrtUnf unformatted file "/cluster/work/users/beto93/mol63/Gau-2207584.EUF"
 Gaussian matrix elements                                         Version   2 NLab=11 Len12L=8 Len4L=8
 Write SHELL TO ATOM MAP                   from file      0 offset           0 length                  16 to matrix element file.
 Write SHELL TYPES                         from file      0 offset           0 length                  16 to matrix element file.
 Write NUMBER OF PRIMITIVES PER SHELL      from file      0 offset           0 length                  16 to matrix element file.
 Write PRIMITIVE EXPONENTS                 from file      0 offset           0 length                  44 to matrix element file.
 Write CONTRACTION COEFFICIENTS            from file      0 offset           0 length                  44 to matrix element file.
 Write P(S=P) CONTRACTION COEFFICIENTS     from file      0 offset           0 length                  44 to matrix element file.
 Write COORDINATES OF EACH SHELL           from file      0 offset           0 length                  48 to matrix element file.
 Write BONDS PER ATOM                      from file      0 offset           0 length                   4 to matrix element file.
 Write BONDED ATOMS                        from file      0 offset           0 length                   6 to matrix element file.
 Write BOND TYPES                          from file      0 offset           0 length                   6 to matrix element file.
 Write ONIOM CHARGE/MULT                   from file      0 offset           0 length                  32 to matrix element file.
 Write ONIOM ATOM LAYERS                   from file      0 offset           0 length                   4 to matrix element file.
 Write ONIOM ATOM MODIFIERS                from file      0 offset           0 length                   4 to matrix element file.
 Write ONIOM ATOM TYPES                    from file      0 offset           0 length                   4 to matrix element file.
 Write ONIOM LINK ATOMS                    from file      0 offset           0 length                   4 to matrix element file.
 Write ONIOM LINK CHARGES                  from file      0 offset           0 length                   4 to matrix element file.
 Write ONIOM LINK DISTANCES                from file      0 offset           0 length                  16 to matrix element file.
 Write SYMINF INTS                         from file      0 offset           0 length                  26 to matrix element file.
 Write ROTTR TO SO                         from file      0 offset           0 length                  12 to matrix element file.
 Write GAUSSIAN SCALARS                    from file    501 offset           0 to matrix element file.
 Write OPTIMIZATION FLAGS                  from file      0 offset           0 length                   4 to matrix element file.
 Write INTEGER ISO                         from file      0 offset           0 length                   4 to matrix element file.
 Write INTEGER SPIN                        from file      0 offset           0 length                   4 to matrix element file.
 Write REAL ZEFFECTIVE                     from file      0 offset           0 length                   4 to matrix element file.
 Write REAL GFACTOR                        from file      0 offset           0 length                   4 to matrix element file.
 Write REAL ZNUCLEAR                       from file      0 offset           0 length                   4 to matrix element file.
 Write MULLIKEN CHARGES                    from file      0 offset           0 length                   4 to matrix element file.
 Write NUCLEAR GRADIENT                    from file  10584 offset           0 length                  12 to matrix element file.
 Array NUCLEAR FORCE CONSTANTS              on  file  10585 does not exist.
 Write ELECTRIC DIPOLE MOMENT              from file      0 offset           0 length                   3 to matrix element file.
 Write NON-ADIABATIC COUPLING              from file  10810 offset           0 length                  12 to matrix element file.
 Write FINITE EM FIELD                     from file  10521 offset           0 length                  35 to matrix element file.
 Write OVERLAP                             from file  10514 offset           0 length                1596 to matrix element file.
 Write CORE HAMILTONIAN ALPHA              from file  10515 offset           0 length                1596 to matrix element file.
 Write CORE HAMILTONIAN BETA               from file  10515 offset        1596 length                1596 to matrix element file.
 Write KINETIC ENERGY                      from file  10516 offset           0 length                1596 to matrix element file.
 Write ORTHOGONAL BASIS                    from file  10685 offset           0 length                3136 to matrix element file.
 Write DIPOLE INTEGRALS                    from file  10518 offset           0 length                4788 to matrix element file.
 Array DIP VEL INTEGRALS                    on  file  10572 does not exist.
 Array R X DEL INTEGRALS                    on  file  10572 does not exist.
 Write ALPHA ORBITAL ENERGIES              from file      0 offset           0 length                  56 to matrix element file.
 Write ALPHA MO COEFFICIENTS               from file  10524 offset           0 length                3136 to matrix element file.
 Write ALPHA DENSITY MATRIX                from file      0 offset           0 length                1596 to matrix element file.
 Write ALPHA FOCK MATRIX                   from file  10536 offset           0 length                1596 to matrix element file.
 Write ENERGY-WEIGHTED DENSITY             from file  10571 offset           0 length                1596 to matrix element file.
 Write ALPHA SCF DENSITY MATRIX            from file      0 offset           0 length                1596 to matrix element file.
 No 2e integrals to process.
 Perform NBO analysis...executing G16NBO...

 *********************************** NBO 7.0 ***********************************
             N A T U R A L   A T O M I C   O R B I T A L   A N D
          N A T U R A L   B O N D   O R B I T A L   A N A L Y S I S
 **************************** Espen Tangen (S101595) ***************************
  (c) Copyright 1996-2021 Board of Regents of the University of Wisconsin System
      on behalf of the Theoretical Chemistry Institute.  All rights reserved.

          Cite this program [NBO 7.0.10 (8-Feb-2021)] as:

          NBO 7.0.  E. D. Glendening, J. K. Badenhoop, A. E. Reed,
          J. E. Carpenter, J. A. Bohmann, C. M. Morales, P. Karafiloglou,
          C. R. Landis, and F. Weinhold, Theoretical Chemistry Institute,
          University of Wisconsin, Madison, WI (2018)

       /NPA    / : Natural Population Analysis
       /AOPNAO / : Print the AO to PNAO transformation
       /AONAO  / : Print the AO to NAO transformation
       /AOMO   / : Print the MOs in the AO basis
       /BOAO   / : Print the AO bond-order matrix
       /DMAO   / : Print the AO density matrix
       /DMPNAO / : Print the PNAO density matrix
       /DMNAO  / : Print the NAO density matrix
       /DMMO   / : Print the MO density matrix
       /SAO    / : Print the AO overlap matrix
       /SPNAO  / : Print the PNAO overlap matrix
       /DETAIL / : Write details of NBO search
       /ARCHIVE/ : Write the archive file to lfn47
       /AOINFO / : Write AO information to lfn31
       /FILE   / : Set to mol63.gen*

 Filename set to mol63.gen1

 Job title: mol63-NBO


 MOs in the AO basis:

           AO          1       2       3       4       5       6       7       8
      ------------ ------- ------- ------- ------- ------- ------- ------- -------
   1.  O 1 (s)      0.0000  0.0000  0.9959 -0.0004 -0.0261  0.0000 -0.1965 -0.0509
   2.  O 1 (s)      0.0000 -0.0002  0.0232  0.0003  0.0574  0.0000  0.4262  0.1159
   3.  O 1 (px)     0.0000  0.0000  0.0000  0.0000  0.0000  0.0000  0.0000  0.0000
   4.  O 1 (py)     0.0001  0.0000  0.0000  0.0000  0.0000  0.0128  0.0000  0.0000
   5.  O 1 (pz)     0.0000  0.0001 -0.0024 -0.0003 -0.0307  0.0000 -0.1426  0.0697
   6.  O 1 (s)      0.0000  0.0008 -0.0133 -0.0011  0.0481  0.0000  0.4016  0.1421
   7.  O 1 (px)     0.0000  0.0000  0.0000  0.0000  0.0000  0.0000  0.0000  0.0000
   8.  O 1 (py)    -0.0015  0.0000  0.0000  0.0000  0.0000  0.0171  0.0000  0.0000
   9.  O 1 (pz)     0.0000  0.0001  0.0040  0.0013 -0.0166  0.0000 -0.0561  0.0406
  10.  O 1 (d5)     0.0000 -0.0001  0.0001  0.0001  0.0044  0.0000  0.0142 -0.0044
  11.  O 1 (d2)     0.0000  0.0000  0.0000  0.0000  0.0000  0.0000  0.0000  0.0000
  12.  O 1 (d3)     0.0004  0.0000  0.0000  0.0000  0.0000 -0.0072  0.0000  0.0000
  13.  O 1 (d4)     0.0000 -0.0001 -0.0001  0.0001  0.0013  0.0000  0.0002 -0.0021
  14.  O 1 (d1)     0.0000  0.0000  0.0000  0.0000  0.0000  0.0000  0.0000  0.0000
  15.  C 2 (s)      0.0000  0.0000  0.0002  0.9962 -0.0896  0.0000 -0.0929  0.1181
  16.  C 2 (s)      0.0000  0.0008  0.0001  0.0232  0.1670  0.0000  0.1911 -0.2774
  17.  C 2 (px)     0.0000  0.0000  0.0000  0.0000  0.0000  0.0000  0.0000  0.0000
  18.  C 2 (py)     0.0011  0.0000  0.0000  0.0000  0.0000  0.1312  0.0000  0.0000
  19.  C 2 (pz)     0.0000 -0.0008 -0.0002 -0.0019 -0.0659  0.0000  0.2382  0.1874
  20.  C 2 (s)      0.0000  0.0048  0.0063 -0.0021 -0.0130  0.0000  0.0147 -0.0958
  21.  C 2 (px)     0.0000  0.0000  0.0000  0.0000  0.0000  0.0000  0.0000  0.0000
  22.  C 2 (py)     0.0041  0.0000  0.0000  0.0000  0.0000 -0.0315  0.0000  0.0000
  23.  C 2 (pz)     0.0000 -0.0035  0.0057  0.0001  0.0201  0.0000 -0.0256  0.0036
  24.  C 2 (d5)     0.0000  0.0003 -0.0011  0.0010  0.0047  0.0000  0.0341 -0.0027
  25.  C 2 (d2)     0.0000  0.0000  0.0000  0.0000  0.0000  0.0000  0.0000  0.0000
  26.  C 2 (d3)    -0.0001  0.0000  0.0000  0.0000  0.0000 -0.0345  0.0000  0.0000
  27.  C 2 (d4)     0.0000 -0.0005 -0.0003 -0.0012 -0.0150  0.0000  0.0075  0.0129
  28.  C 2 (d1)     0.0000  0.0000  0.0000  0.0000  0.0000  0.0000  0.0000  0.0000
  29.  F 3 (s)      0.7040  0.7040  0.0000 -0.0001 -0.1524 -0.1656  0.0370 -0.0602
  30.  F 3 (s)      0.0159  0.0160 -0.0002  0.0008  0.3252  0.3576 -0.0819  0.1432
  31.  F 3 (px)     0.0000  0.0000  0.0000  0.0000  0.0000  0.0000  0.0000  0.0000
  32.  F 3 (py)    -0.0008 -0.0008  0.0001 -0.0003 -0.0553 -0.0305  0.0000  0.3133
  33.  F 3 (pz)     0.0007  0.0005  0.0001  0.0002  0.0322  0.0307  0.0219 -0.1372
  34.  F 3 (s)     -0.0066 -0.0071  0.0005 -0.0021  0.3573  0.3884 -0.0912  0.1848
  35.  F 3 (px)     0.0000  0.0000  0.0000  0.0000  0.0000  0.0000  0.0000  0.0000
  36.  F 3 (py)     0.0013  0.0022 -0.0006  0.0019 -0.0443 -0.0240 -0.0001  0.1988
  37.  F 3 (pz)    -0.0016 -0.0009 -0.0009 -0.0013  0.0240  0.0248  0.0168 -0.0848
  38.  F 3 (d5)    -0.0001  0.0001 -0.0003  0.0001 -0.0013  0.0006  0.0022  0.0045
  39.  F 3 (d2)     0.0000  0.0000  0.0000  0.0000  0.0000  0.0000  0.0000  0.0000
  40.  F 3 (d3)     0.0003  0.0004  0.0002  0.0008 -0.0107 -0.0059 -0.0035  0.0169
  41.  F 3 (d4)     0.0002  0.0003 -0.0002  0.0007 -0.0067 -0.0035  0.0002  0.0140
  42.  F 3 (d1)     0.0000  0.0000  0.0000  0.0000  0.0000  0.0000  0.0000  0.0000
  43.  F 4 (s)     -0.7040  0.7040  0.0000 -0.0001 -0.1524  0.1656  0.0370 -0.0602
  44.  F 4 (s)     -0.0159  0.0160 -0.0002  0.0008  0.3252 -0.3576 -0.0819  0.1432
  45.  F 4 (px)     0.0000  0.0000  0.0000  0.0000  0.0000  0.0000  0.0000  0.0000
  46.  F 4 (py)    -0.0008  0.0008 -0.0001  0.0003  0.0553 -0.0305  0.0000 -0.3133
  47.  F 4 (pz)    -0.0007  0.0005  0.0001  0.0002  0.0322 -0.0307  0.0219 -0.1372
  48.  F 4 (s)      0.0066 -0.0071  0.0005 -0.0021  0.3573 -0.3884 -0.0912  0.1848
  49.  F 4 (px)     0.0000  0.0000  0.0000  0.0000  0.0000  0.0000  0.0000  0.0000
  50.  F 4 (py)     0.0013 -0.0022  0.0006 -0.0019  0.0443 -0.0240  0.0001 -0.1988
  51.  F 4 (pz)     0.0016 -0.0009 -0.0009 -0.0013  0.0240 -0.0248  0.0168 -0.0848
  52.  F 4 (d5)     0.0001  0.0001 -0.0003  0.0001 -0.0013 -0.0006  0.0022  0.0045
  53.  F 4 (d2)     0.0000  0.0000  0.0000  0.0000  0.0000  0.0000  0.0000  0.0000
  54.  F 4 (d3)     0.0003 -0.0004 -0.0002 -0.0008  0.0107 -0.0059  0.0035 -0.0169
  55.  F 4 (d4)    -0.0002  0.0003 -0.0002  0.0007 -0.0067  0.0035  0.0002  0.0140
  56.  F 4 (d1)     0.0000  0.0000  0.0000  0.0000  0.0000  0.0000  0.0000  0.0000

           AO          9      10      11      12      13      14      15      16
      ------------ ------- ------- ------- ------- ------- ------- ------- -------
   1.  O 1 (s)      0.0000  0.0000 -0.0776  0.0000 -0.0628  0.0000  0.0000  0.0000
   2.  O 1 (s)      0.0000  0.0000  0.1804  0.0000  0.1599  0.0000  0.0000  0.0000
   3.  O 1 (px)     0.0000  0.1411  0.0000  0.0000  0.0000  0.0000  0.5124  0.0000
   4.  O 1 (py)     0.1650  0.0000  0.0000  0.0000  0.0000  0.0386  0.0000  0.6055
   5.  O 1 (pz)     0.0000  0.0000  0.2647  0.0000  0.4331  0.0000  0.0000  0.0000
   6.  O 1 (s)      0.0000  0.0000  0.3020  0.0000  0.2161  0.0000  0.0000  0.0000
   7.  O 1 (px)     0.0000  0.0746  0.0000  0.0000  0.0000  0.0000  0.3761  0.0000
   8.  O 1 (py)     0.1042  0.0000  0.0000  0.0000  0.0000  0.0184  0.0000  0.4189
   9.  O 1 (pz)     0.0000  0.0000  0.1266  0.0000  0.2468  0.0000  0.0000  0.0000
  10.  O 1 (d5)     0.0000  0.0000 -0.0167  0.0000 -0.0226  0.0000  0.0000  0.0000
  11.  O 1 (d2)     0.0000 -0.0163  0.0000  0.0000  0.0000  0.0000 -0.0426  0.0000
  12.  O 1 (d3)    -0.0192  0.0000  0.0000  0.0000  0.0000  0.0031  0.0000 -0.0320
  13.  O 1 (d4)     0.0000  0.0000  0.0006  0.0000 -0.0021  0.0000  0.0000  0.0000
  14.  O 1 (d1)     0.0000  0.0000  0.0000  0.0013  0.0000  0.0000  0.0000  0.0000
  15.  C 2 (s)      0.0000  0.0000  0.0482  0.0000  0.0435  0.0000  0.0000  0.0000
  16.  C 2 (s)      0.0000  0.0000 -0.1208  0.0000 -0.1159  0.0000  0.0000  0.0000
  17.  C 2 (px)     0.0000  0.2433  0.0000  0.0000  0.0000  0.0000  0.2618  0.0000
  18.  C 2 (py)     0.3348  0.0000  0.0000  0.0000  0.0000 -0.0764  0.0000  0.0493
  19.  C 2 (pz)     0.0000  0.0000 -0.1697  0.0000 -0.2736  0.0000  0.0000  0.0000
  20.  C 2 (s)      0.0000  0.0000 -0.0563  0.0000 -0.0244  0.0000  0.0000  0.0000
  21.  C 2 (px)     0.0000  0.1062  0.0000  0.0000  0.0000  0.0000  0.1001  0.0000
  22.  C 2 (py)     0.0259  0.0000  0.0000  0.0000  0.0000  0.0503  0.0000  0.0749
  23.  C 2 (pz)     0.0000  0.0000 -0.0636  0.0000  0.0559  0.0000  0.0000  0.0000
  24.  C 2 (d5)     0.0000  0.0000  0.0187  0.0000 -0.0355  0.0000  0.0000  0.0000
  25.  C 2 (d2)     0.0000 -0.0095  0.0000  0.0000  0.0000  0.0000  0.0511  0.0000
  26.  C 2 (d3)    -0.0260  0.0000  0.0000  0.0000  0.0000  0.0369  0.0000  0.0617
  27.  C 2 (d4)     0.0000  0.0000  0.0113  0.0000 -0.0211  0.0000  0.0000  0.0000
  28.  C 2 (d1)     0.0000  0.0000  0.0000  0.0312  0.0000  0.0000  0.0000  0.0000
  29.  F 3 (s)      0.0379  0.0000  0.0015  0.0000  0.0015 -0.0025  0.0000  0.0060
  30.  F 3 (s)     -0.0910  0.0000 -0.0023  0.0000 -0.0072  0.0106  0.0000 -0.0102
  31.  F 3 (px)     0.0000  0.3973  0.0000  0.4728  0.0000  0.0000 -0.2060  0.0000
  32.  F 3 (py)    -0.1866  0.0000 -0.2106  0.0000  0.0458  0.4144  0.0000  0.0581
  33.  F 3 (pz)     0.3232  0.0000 -0.3013  0.0000  0.2938  0.2515  0.0000 -0.1836
  34.  F 3 (s)     -0.1298  0.0000 -0.0157  0.0000  0.0089 -0.0094  0.0000 -0.0476
  35.  F 3 (px)     0.0000  0.2677  0.0000  0.3406  0.0000  0.0000 -0.1657  0.0000
  36.  F 3 (py)    -0.1153  0.0000 -0.1376  0.0000  0.0297  0.2925  0.0000  0.0480
  37.  F 3 (pz)     0.2079  0.0000 -0.2075  0.0000  0.2040  0.1695  0.0000 -0.1438
  38.  F 3 (d5)     0.0072  0.0000 -0.0129  0.0000  0.0055  0.0146  0.0000 -0.0032
  39.  F 3 (d2)     0.0000  0.0120  0.0000  0.0135  0.0000  0.0000 -0.0006  0.0000
  40.  F 3 (d3)    -0.0161  0.0000  0.0082  0.0000 -0.0080  0.0028  0.0000  0.0055
  41.  F 3 (d4)    -0.0060  0.0000 -0.0079  0.0000  0.0004  0.0125  0.0000 -0.0009
  42.  F 3 (d1)     0.0000 -0.0194  0.0000 -0.0174  0.0000  0.0000  0.0049  0.0000
  43.  F 4 (s)     -0.0379  0.0000  0.0015  0.0000  0.0015  0.0025  0.0000 -0.0060
  44.  F 4 (s)      0.0910  0.0000 -0.0023  0.0000 -0.0072 -0.0106  0.0000  0.0102
  45.  F 4 (px)     0.0000  0.3973  0.0000 -0.4728  0.0000  0.0000 -0.2060  0.0000
  46.  F 4 (py)    -0.1866  0.0000  0.2106  0.0000 -0.0458  0.4144  0.0000  0.0581
  47.  F 4 (pz)    -0.3232  0.0000 -0.3013  0.0000  0.2938 -0.2515  0.0000  0.1836
  48.  F 4 (s)      0.1298  0.0000 -0.0157  0.0000  0.0089  0.0094  0.0000  0.0476
  49.  F 4 (px)     0.0000  0.2677  0.0000 -0.3406  0.0000  0.0000 -0.1657  0.0000
  50.  F 4 (py)    -0.1153  0.0000  0.1376  0.0000 -0.0297  0.2925  0.0000  0.0480
  51.  F 4 (pz)    -0.2079  0.0000 -0.2075  0.0000  0.2040 -0.1695  0.0000  0.1438
  52.  F 4 (d5)    -0.0072  0.0000 -0.0129  0.0000  0.0055 -0.0146  0.0000  0.0032
  53.  F 4 (d2)     0.0000  0.0120  0.0000 -0.0135  0.0000  0.0000 -0.0006  0.0000
  54.  F 4 (d3)    -0.0161  0.0000 -0.0082  0.0000  0.0080  0.0028  0.0000  0.0055
  55.  F 4 (d4)     0.0060  0.0000 -0.0079  0.0000  0.0004 -0.0125  0.0000  0.0009
  56.  F 4 (d1)     0.0000  0.0194  0.0000 -0.0174  0.0000  0.0000 -0.0049  0.0000

           AO         17      18      19      20      21      22      23      24
      ------------ ------- ------- ------- ------- ------- ------- ------- -------
   1.  O 1 (s)      0.0000  0.0609  0.0000  0.0928  0.0000  0.0044  0.0000  0.0516
   2.  O 1 (s)      0.0000 -0.0954  0.0000 -0.0964  0.0000 -0.0016  0.0000 -0.2288
   3.  O 1 (px)    -0.3651  0.0000  0.0000  0.0000 -0.0783  0.0000  0.0000  0.0000
   4.  O 1 (py)     0.0000  0.0000 -0.2912  0.0000  0.0000  0.0000 -0.0737  0.0000
   5.  O 1 (pz)     0.0000  0.1667  0.0000  0.0114  0.0000 -0.0534  0.0000  0.3633
   6.  O 1 (s)      0.0000 -0.8783  0.0000 -2.4159  0.0000 -0.0007  0.0000  0.3227
   7.  O 1 (px)    -0.4810  0.0000  0.0000  0.0000 -0.1760  0.0000  0.0000  0.0000
   8.  O 1 (py)     0.0000  0.0000 -0.5519  0.0000  0.0000  0.0000 -0.2324  0.0000
   9.  O 1 (pz)     0.0000  0.5315  0.0000  0.9581  0.0000  0.2133  0.0000  0.3720
  10.  O 1 (d5)     0.0000 -0.0384  0.0000 -0.0667  0.0000 -0.0270  0.0000  0.1855
  11.  O 1 (d2)    -0.0097  0.0000  0.0000  0.0000  0.0721  0.0000  0.0000  0.0000
  12.  O 1 (d3)     0.0000  0.0000 -0.0256  0.0000  0.0000  0.0000  0.0720  0.0000
  13.  O 1 (d4)     0.0000  0.0136  0.0000  0.0001  0.0000  0.0059  0.0000 -0.0082
  14.  O 1 (d1)     0.0000  0.0000  0.0000  0.0000  0.0000  0.0000  0.0000  0.0000
  15.  C 2 (s)      0.0000 -0.1432  0.0000  0.0253  0.0000  0.0580  0.0000 -0.0578
  16.  C 2 (s)      0.0000  0.0926  0.0000 -0.1992  0.0000 -1.1666  0.0000  0.8985
  17.  C 2 (px)     0.5764  0.0000  0.0000  0.0000 -0.9630  0.0000  0.0000  0.0000
  18.  C 2 (py)     0.0000  0.0000  0.5742  0.0000  0.0000  0.0000 -0.8889  0.0000
  19.  C 2 (pz)     0.0000 -0.1986  0.0000  0.2425  0.0000  0.5626  0.0000  0.8491
  20.  C 2 (s)      0.0000  2.3143  0.0000  1.4274  0.0000  1.8526  0.0000 -0.7329
  21.  C 2 (px)     0.6401  0.0000  0.0000  0.0000  1.3596  0.0000  0.0000  0.0000
  22.  C 2 (py)     0.0000  0.0000  1.4878  0.0000  0.0000  0.0000  1.7125  0.0000
  23.  C 2 (pz)     0.0000  0.0097  0.0000  2.6979  0.0000 -1.0560  0.0000 -0.6352
  24.  C 2 (d5)     0.0000 -0.0082  0.0000  0.0263  0.0000  0.0071  0.0000 -0.2008
  25.  C 2 (d2)    -0.0246  0.0000  0.0000  0.0000  0.0036  0.0000  0.0000  0.0000
  26.  C 2 (d3)     0.0000  0.0000  0.0167  0.0000  0.0000  0.0000 -0.1421  0.0000
  27.  C 2 (d4)     0.0000  0.0248  0.0000 -0.0119  0.0000 -0.1063  0.0000 -0.0164
  28.  C 2 (d1)     0.0000  0.0000  0.0000  0.0000  0.0000  0.0000  0.0000  0.0000
  29.  F 3 (s)      0.0000  0.0646  0.0616 -0.0360  0.0000  0.0105  0.0118 -0.0070
  30.  F 3 (s)      0.0000 -0.1139 -0.1189  0.0550  0.0000  0.0630  0.0535  0.0359
  31.  F 3 (px)    -0.1924  0.0000  0.0000  0.0000 -0.0778  0.0000  0.0000  0.0000
  32.  F 3 (py)     0.0000  0.2035  0.0775 -0.1614  0.0000 -0.2007 -0.1977 -0.0359
  33.  F 3 (pz)     0.0000 -0.1270 -0.1930 -0.1053  0.0000  0.1766  0.0898 -0.0330
  34.  F 3 (s)      0.0000 -0.6594 -0.7313  0.5590  0.0000 -0.6765 -0.6414  0.0030
  35.  F 3 (px)    -0.2086  0.0000  0.0000  0.0000 -0.1582  0.0000  0.0000  0.0000
  36.  F 3 (py)     0.0000  0.3962  0.2222 -0.3678  0.0000  0.2105  0.0306 -0.0344
  37.  F 3 (pz)     0.0000 -0.2715 -0.3677 -0.1607  0.0000 -0.0227 -0.1711  0.0812
  38.  F 3 (d5)     0.0000 -0.0095  0.0104 -0.0047  0.0000  0.0244 -0.0370  0.0611
  39.  F 3 (d2)     0.0100  0.0000  0.0000  0.0000 -0.0298  0.0000  0.0000  0.0000
  40.  F 3 (d3)     0.0000  0.0107 -0.0026  0.0109  0.0000  0.0828  0.0919 -0.0363
  41.  F 3 (d4)     0.0000  0.0174  0.0048  0.0005  0.0000  0.0956  0.0397  0.0396
  42.  F 3 (d1)    -0.0159  0.0000  0.0000  0.0000  0.0417  0.0000  0.0000  0.0000
  43.  F 4 (s)      0.0000  0.0646 -0.0616 -0.0360  0.0000  0.0105 -0.0118 -0.0070
  44.  F 4 (s)      0.0000 -0.1139  0.1189  0.0550  0.0000  0.0630 -0.0535  0.0359
  45.  F 4 (px)    -0.1924  0.0000  0.0000  0.0000 -0.0778  0.0000  0.0000  0.0000
  46.  F 4 (py)     0.0000 -0.2035  0.0775  0.1614  0.0000  0.2007 -0.1977  0.0359
  47.  F 4 (pz)     0.0000 -0.1270  0.1930 -0.1053  0.0000  0.1766 -0.0898 -0.0330
  48.  F 4 (s)      0.0000 -0.6594  0.7313  0.5590  0.0000 -0.6765  0.6414  0.0030
  49.  F 4 (px)    -0.2086  0.0000  0.0000  0.0000 -0.1582  0.0000  0.0000  0.0000
  50.  F 4 (py)     0.0000 -0.3962  0.2222  0.3678  0.0000 -0.2105  0.0306  0.0344
  51.  F 4 (pz)     0.0000 -0.2715  0.3677 -0.1607  0.0000 -0.0227  0.1711  0.0812
  52.  F 4 (d5)     0.0000 -0.0095 -0.0104 -0.0047  0.0000  0.0244  0.0370  0.0611
  53.  F 4 (d2)     0.0100  0.0000  0.0000  0.0000 -0.0298  0.0000  0.0000  0.0000
  54.  F 4 (d3)     0.0000 -0.0107 -0.0026 -0.0109  0.0000 -0.0828  0.0919  0.0363
  55.  F 4 (d4)     0.0000  0.0174 -0.0048  0.0005  0.0000  0.0956 -0.0397  0.0396
  56.  F 4 (d1)     0.0159  0.0000  0.0000  0.0000 -0.0417  0.0000  0.0000  0.0000

           AO         25      26      27      28      29      30      31      32
      ------------ ------- ------- ------- ------- ------- ------- ------- -------
   1.  O 1 (s)      0.0524  0.0000  0.0000 -0.0106  0.0000  0.0000  0.0226  0.0000
   2.  O 1 (s)     -0.1589  0.0000  0.0000  0.2147  0.0000  0.0000 -0.5867  0.0000
   3.  O 1 (px)     0.0000 -0.9292  0.0000  0.0000  0.0000  0.0000  0.0000  0.0480
   4.  O 1 (py)     0.0000  0.0000 -0.8932  0.0000  0.0000  0.1110  0.0000  0.0000
   5.  O 1 (pz)    -0.7378  0.0000  0.0000 -0.0774  0.0000  0.0000  0.0227  0.0000
   6.  O 1 (s)     -0.7910  0.0000  0.0000 -0.2375  0.0000  0.0000  0.9033  0.0000
   7.  O 1 (px)     0.0000  1.2157  0.0000  0.0000  0.0000  0.0000  0.0000 -0.4679
   8.  O 1 (py)     0.0000  0.0000  1.3645  0.0000  0.0000 -0.3074  0.0000  0.0000
   9.  O 1 (pz)     1.5761  0.0000  0.0000  0.2171  0.0000  0.0000 -0.4400  0.0000
  10.  O 1 (d5)    -0.0618  0.0000  0.0000 -0.0159  0.0000  0.0000 -0.0640  0.0000
  11.  O 1 (d2)     0.0000  0.0452  0.0000  0.0000  0.0000  0.0000  0.0000 -0.2783
  12.  O 1 (d3)     0.0000  0.0000  0.0681  0.0000  0.0000 -0.1251  0.0000  0.0000
  13.  O 1 (d4)     0.0134  0.0000  0.0000 -0.0490  0.0000  0.0000  0.0033  0.0000
  14.  O 1 (d1)     0.0000  0.0000  0.0000  0.0000  0.1402  0.0000  0.0000  0.0000
  15.  C 2 (s)      0.0493  0.0000  0.0000  0.0237  0.0000  0.0000  0.0005  0.0000
  16.  C 2 (s)      0.5269  0.0000  0.0000  0.4658  0.0000  0.0000  0.0921  0.0000
  17.  C 2 (px)     0.0000  0.0956  0.0000  0.0000  0.0000  0.0000  0.0000 -0.1013
  18.  C 2 (py)     0.0000  0.0000  0.0280  0.0000  0.0000 -0.3922  0.0000  0.0000
  19.  C 2 (pz)     0.1891  0.0000  0.0000 -0.2186  0.0000  0.0000 -0.2125  0.0000
  20.  C 2 (s)      0.8104  0.0000  0.0000  0.5126  0.0000  0.0000 -0.4923  0.0000
  21.  C 2 (px)     0.0000 -0.4648  0.0000  0.0000  0.0000  0.0000  0.0000  0.6642
  22.  C 2 (py)     0.0000  0.0000 -0.9270  0.0000  0.0000  0.0690  0.0000  0.0000
  23.  C 2 (pz)     0.3919  0.0000  0.0000 -0.3278  0.0000  0.0000  0.1585  0.0000
  24.  C 2 (d5)     0.2707  0.0000  0.0000  0.0759  0.0000  0.0000 -0.1896  0.0000
  25.  C 2 (d2)     0.0000 -0.0917  0.0000  0.0000  0.0000  0.0000  0.0000  0.4037
  26.  C 2 (d3)     0.0000  0.0000 -0.0655  0.0000  0.0000  0.3384  0.0000  0.0000
  27.  C 2 (d4)    -0.0004  0.0000  0.0000 -0.2446  0.0000  0.0000 -0.2309  0.0000
  28.  C 2 (d1)     0.0000  0.0000  0.0000  0.0000  0.3099  0.0000  0.0000  0.0000
  29.  F 3 (s)      0.0027  0.0000 -0.0223  0.0407  0.0000 -0.0444  0.0131  0.0000
  30.  F 3 (s)      0.0131  0.0000  0.1353 -0.2325  0.0000  0.2963 -0.1165  0.0000
  31.  F 3 (px)     0.0000  0.1576  0.0000  0.0000 -0.6039  0.0000  0.0000  0.5035
  32.  F 3 (py)     0.0684  0.0000  0.1021 -0.5628  0.0000  0.2841  0.0917  0.0000
  33.  F 3 (pz)     0.1184  0.0000 -0.1085  0.0098  0.0000 -0.3954  0.4905  0.0000
  34.  F 3 (s)     -0.0718  0.0000  0.2129 -0.1272  0.0000 -0.0966  0.1703  0.0000
  35.  F 3 (px)     0.0000 -0.0986  0.0000  0.0000  0.6187  0.0000  0.0000 -0.6510
  36.  F 3 (py)     0.0125  0.0000 -0.1088  0.8800  0.0000 -0.5890 -0.0962  0.0000
  37.  F 3 (pz)    -0.1196  0.0000  0.1980 -0.1667  0.0000  0.6130 -0.6945  0.0000
  38.  F 3 (d5)    -0.0653  0.0000  0.0519  0.0223  0.0000  0.0206  0.1732  0.0000
  39.  F 3 (d2)     0.0000  0.0315  0.0000  0.0000  0.1128  0.0000  0.0000  0.0557
  40.  F 3 (d3)     0.0297  0.0000 -0.0167 -0.0693  0.0000  0.0546 -0.0509  0.0000
  41.  F 3 (d4)    -0.0363  0.0000 -0.0239  0.0230  0.0000  0.0464 -0.0281  0.0000
  42.  F 3 (d1)     0.0000  0.0136  0.0000  0.0000 -0.0285  0.0000  0.0000  0.1467
  43.  F 4 (s)      0.0027  0.0000  0.0223  0.0407  0.0000  0.0444  0.0131  0.0000
  44.  F 4 (s)      0.0131  0.0000 -0.1353 -0.2325  0.0000 -0.2963 -0.1165  0.0000
  45.  F 4 (px)     0.0000  0.1576  0.0000  0.0000  0.6039  0.0000  0.0000  0.5035
  46.  F 4 (py)    -0.0684  0.0000  0.1021  0.5628  0.0000  0.2841 -0.0917  0.0000
  47.  F 4 (pz)     0.1184  0.0000  0.1085  0.0098  0.0000  0.3954  0.4905  0.0000
  48.  F 4 (s)     -0.0718  0.0000 -0.2129 -0.1272  0.0000  0.0966  0.1703  0.0000
  49.  F 4 (px)     0.0000 -0.0986  0.0000  0.0000 -0.6187  0.0000  0.0000 -0.6510
  50.  F 4 (py)    -0.0125  0.0000 -0.1088 -0.8800  0.0000 -0.5890  0.0962  0.0000
  51.  F 4 (pz)    -0.1196  0.0000 -0.1980 -0.1667  0.0000 -0.6130 -0.6945  0.0000
  52.  F 4 (d5)    -0.0653  0.0000 -0.0519  0.0223  0.0000 -0.0206  0.1732  0.0000
  53.  F 4 (d2)     0.0000  0.0315  0.0000  0.0000 -0.1128  0.0000  0.0000  0.0557
  54.  F 4 (d3)    -0.0297  0.0000 -0.0167  0.0693  0.0000  0.0546  0.0509  0.0000
  55.  F 4 (d4)    -0.0363  0.0000  0.0239  0.0230  0.0000 -0.0464 -0.0281  0.0000
  56.  F 4 (d1)     0.0000 -0.0136  0.0000  0.0000 -0.0285  0.0000  0.0000 -0.1467

           AO         33      34      35      36      37      38      39      40
      ------------ ------- ------- ------- ------- ------- ------- ------- -------
   1.  O 1 (s)      0.0000  0.0000  0.0000  0.0082  0.0293  0.0000  0.0089  0.0000
   2.  O 1 (s)      0.0000  0.0000  0.0000 -0.5834 -0.3093  0.0000 -1.4235  0.0000
   3.  O 1 (px)     0.0000  0.0000 -0.2644  0.0000  0.0000  0.0000  0.0000  0.0859
   4.  O 1 (py)     0.0000  0.0440  0.0000  0.0000  0.0000 -0.1142  0.0000  0.0000
   5.  O 1 (pz)     0.0000  0.0000  0.0000 -0.0327  0.4183  0.0000 -0.0974  0.0000
   6.  O 1 (s)      0.0000  0.0000  0.0000  1.5568 -0.1527  0.0000  4.1939  0.0000
   7.  O 1 (px)     0.0000  0.0000  0.2443  0.0000  0.0000  0.0000  0.0000 -0.0872
   8.  O 1 (py)     0.0000  0.0843  0.0000  0.0000  0.0000  0.1154  0.0000  0.0000
   9.  O 1 (pz)     0.0000  0.0000  0.0000 -0.4130 -0.2077  0.0000 -1.2497  0.0000
  10.  O 1 (d5)     0.0000  0.0000  0.0000 -0.0158  0.0439  0.0000 -0.2126  0.0000
  11.  O 1 (d2)     0.0000  0.0000 -0.2248  0.0000  0.0000  0.0000  0.0000  0.2508
  12.  O 1 (d3)     0.0000 -0.0049  0.0000  0.0000  0.0000 -0.4002  0.0000  0.0000
  13.  O 1 (d4)     0.0000  0.0000  0.0000 -0.4600  0.2846  0.0000  0.2505  0.0000
  14.  O 1 (d1)     0.2135  0.0000  0.0000  0.0000  0.0000  0.0000  0.0000  0.0000
  15.  C 2 (s)      0.0000  0.0000  0.0000 -0.0212 -0.0128  0.0000  0.0094  0.0000
  16.  C 2 (s)      0.0000  0.0000  0.0000 -0.1403  0.0851  0.0000  0.0431  0.0000
  17.  C 2 (px)     0.0000  0.0000  0.0837  0.0000  0.0000  0.0000  0.0000  0.0295
  18.  C 2 (py)     0.0000  0.1137  0.0000  0.0000  0.0000 -0.1443  0.0000  0.0000
  19.  C 2 (pz)     0.0000  0.0000  0.0000 -0.0560  0.2922  0.0000 -0.1403  0.0000
  20.  C 2 (s)      0.0000  0.0000  0.0000 -1.0279 -0.3088  0.0000 -2.7133  0.0000
  21.  C 2 (px)     0.0000  0.0000 -0.4658  0.0000  0.0000  0.0000  0.0000 -0.0193
  22.  C 2 (py)     0.0000 -0.4434  0.0000  0.0000  0.0000 -0.2131  0.0000  0.0000
  23.  C 2 (pz)     0.0000  0.0000  0.0000 -0.7840  0.5634  0.0000 -2.1653  0.0000
  24.  C 2 (d5)     0.0000  0.0000  0.0000  0.0173  0.2552  0.0000 -0.3481  0.0000
  25.  C 2 (d2)     0.0000  0.0000  0.4523  0.0000  0.0000  0.0000  0.0000 -0.0321
  26.  C 2 (d3)     0.0000 -0.1145  0.0000  0.0000  0.0000  0.3176  0.0000  0.0000
  27.  C 2 (d4)     0.0000  0.0000  0.0000 -0.3989  0.1772  0.0000  0.2071  0.0000
  28.  C 2 (d1)     0.5638  0.0000  0.0000  0.0000  0.0000  0.0000  0.0000  0.0000
  29.  F 3 (s)      0.0000 -0.0021  0.0000  0.0316  0.0018 -0.0242 -0.0028  0.0000
  30.  F 3 (s)      0.0000  0.0449  0.0000 -0.3672 -0.2135  0.1726 -0.0346  0.0000
  31.  F 3 (px)     0.2758  0.0000 -0.3776  0.0000  0.0000  0.0000  0.0000 -0.0516
  32.  F 3 (py)     0.0000 -0.4219  0.0000  0.1250 -0.1100 -0.2352 -0.1530  0.0000
  33.  F 3 (pz)     0.0000 -0.4302  0.0000 -0.3004  0.1282  0.1755 -0.1747  0.0000
  34.  F 3 (s)      0.0000  0.0571  0.0000  0.3126  0.5256  0.0127  0.0353  0.0000
  35.  F 3 (px)    -0.4539  0.0000  0.6149  0.0000  0.0000  0.0000  0.0000  0.0608
  36.  F 3 (py)     0.0000  0.6185  0.0000 -0.0752 -0.0394  0.1535  0.2128  0.0000
  37.  F 3 (pz)     0.0000  0.5620  0.0000  0.4071 -0.0765 -0.0996  0.5139  0.0000
  38.  F 3 (d5)     0.0000 -0.1205  0.0000  0.1685 -0.0990  0.4080 -0.1539  0.0000
  39.  F 3 (d2)     0.2664  0.0000 -0.0759  0.0000  0.0000  0.0000  0.0000  0.6142
  40.  F 3 (d3)     0.0000  0.0406  0.0000  0.2017  0.2989  0.1701 -0.0411  0.0000
  41.  F 3 (d4)     0.0000 -0.1817  0.0000 -0.1193 -0.4363 -0.2604  0.1248  0.0000
  42.  F 3 (d1)    -0.2275  0.0000  0.2980  0.0000  0.0000  0.0000  0.0000  0.2927
  43.  F 4 (s)      0.0000  0.0021  0.0000  0.0316  0.0018  0.0242 -0.0028  0.0000
  44.  F 4 (s)      0.0000 -0.0449  0.0000 -0.3672 -0.2135 -0.1726 -0.0346  0.0000
  45.  F 4 (px)    -0.2758  0.0000 -0.3776  0.0000  0.0000  0.0000  0.0000 -0.0516
  46.  F 4 (py)     0.0000 -0.4219  0.0000 -0.1250  0.1100 -0.2352  0.1530  0.0000
  47.  F 4 (pz)     0.0000  0.4302  0.0000 -0.3004  0.1282 -0.1755 -0.1747  0.0000
  48.  F 4 (s)      0.0000 -0.0571  0.0000  0.3126  0.5256 -0.0127  0.0353  0.0000
  49.  F 4 (px)     0.4539  0.0000  0.6149  0.0000  0.0000  0.0000  0.0000  0.0608
  50.  F 4 (py)     0.0000  0.6185  0.0000  0.0752  0.0394  0.1535 -0.2128  0.0000
  51.  F 4 (pz)     0.0000 -0.5620  0.0000  0.4071 -0.0765  0.0996  0.5139  0.0000
  52.  F 4 (d5)     0.0000  0.1205  0.0000  0.1685 -0.0990 -0.4080 -0.1539  0.0000
  53.  F 4 (d2)    -0.2664  0.0000 -0.0759  0.0000  0.0000  0.0000  0.0000  0.6142
  54.  F 4 (d3)     0.0000  0.0406  0.0000 -0.2017 -0.2989  0.1701  0.0411  0.0000
  55.  F 4 (d4)     0.0000  0.1817  0.0000 -0.1193 -0.4363  0.2604  0.1248  0.0000
  56.  F 4 (d1)    -0.2275  0.0000 -0.2980  0.0000  0.0000  0.0000  0.0000 -0.2927

           AO         41      42      43      44      45      46      47      48
      ------------ ------- ------- ------- ------- ------- ------- ------- -------
   1.  O 1 (s)      0.0000  0.0000 -0.0244  0.0000  0.0000  0.0072  0.0000  0.0000
   2.  O 1 (s)      0.0000  0.0000  0.3207  0.0000  0.0000  0.1933  0.0000  0.0000
   3.  O 1 (px)     0.0000  0.0000  0.0000  0.0000  0.0000  0.0000  0.0000  0.1373
   4.  O 1 (py)     0.0000  0.0000  0.0000  0.2014  0.2468  0.0000  0.0271  0.0000
   5.  O 1 (pz)     0.0000  0.0000 -0.3026  0.0000  0.0000  0.1267  0.0000  0.0000
   6.  O 1 (s)      0.0000  0.0000 -0.0666  0.0000  0.0000 -1.1283  0.0000  0.0000
   7.  O 1 (px)     0.0000  0.0000  0.0000  0.0000  0.0000  0.0000  0.0000 -0.4092
   8.  O 1 (py)     0.0000  0.0000  0.0000 -0.2465 -0.6707  0.0000 -0.1357  0.0000
   9.  O 1 (pz)     0.0000  0.0000  0.1942  0.0000  0.0000  0.1199  0.0000  0.0000
  10.  O 1 (d5)     0.0000  0.0000  0.0492  0.0000  0.0000  0.0765  0.0000  0.0000
  11.  O 1 (d2)     0.0000  0.0000  0.0000  0.0000  0.0000  0.0000  0.0000  0.6750
  12.  O 1 (d3)     0.0000  0.0000  0.0000  0.6292  0.0499  0.0000 -0.1001  0.0000
  13.  O 1 (d4)     0.0000  0.0000  0.6828  0.0000  0.0000  0.0008  0.0000  0.0000
  14.  O 1 (d1)     0.9184 -0.0395  0.0000  0.0000  0.0000  0.0000  0.0000  0.0000
  15.  C 2 (s)      0.0000  0.0000  0.0153  0.0000  0.0000  0.0245  0.0000  0.0000
  16.  C 2 (s)      0.0000  0.0000  0.0175  0.0000  0.0000  0.4432  0.0000  0.0000
  17.  C 2 (px)     0.0000  0.0000  0.0000  0.0000  0.0000  0.0000  0.0000  0.4264
  18.  C 2 (py)     0.0000  0.0000  0.0000  0.1322 -0.1841  0.0000  0.1747  0.0000
  19.  C 2 (pz)     0.0000  0.0000 -0.2411  0.0000  0.0000 -0.0312  0.0000  0.0000
  20.  C 2 (s)      0.0000  0.0000 -0.1636  0.0000  0.0000 -1.1543  0.0000  0.0000
  21.  C 2 (px)     0.0000  0.0000  0.0000  0.0000  0.0000  0.0000  0.0000  0.5252
  22.  C 2 (py)     0.0000  0.0000  0.0000 -0.0014  1.6924  0.0000  0.5809  0.0000
  23.  C 2 (pz)     0.0000  0.0000 -0.1359  0.0000  0.0000  1.8546  0.0000  0.0000
  24.  C 2 (d5)     0.0000  0.0000 -0.1415  0.0000  0.0000  0.1533  0.0000  0.0000
  25.  C 2 (d2)     0.0000  0.0000  0.0000  0.0000  0.0000  0.0000  0.0000 -0.0652
  26.  C 2 (d3)     0.0000  0.0000  0.0000 -0.1572 -0.3651  0.0000 -0.2684  0.0000
  27.  C 2 (d4)     0.0000  0.0000 -0.0879  0.0000  0.0000  0.1673  0.0000  0.0000
  28.  C 2 (d1)    -0.0150 -0.0265  0.0000  0.0000  0.0000  0.0000  0.0000  0.0000
  29.  F 3 (s)      0.0000  0.0000  0.0166  0.0237 -0.0256  0.0312  0.0156  0.0000
  30.  F 3 (s)      0.0000  0.0000 -0.2034 -0.2844  0.8220 -0.9205 -0.0058  0.0000
  31.  F 3 (px)     0.0596  0.0541  0.0000  0.0000  0.0000  0.0000  0.0000  0.1677
  32.  F 3 (py)     0.0000  0.0000  0.0500  0.1276  0.0985  0.1155  0.2971  0.0000
  33.  F 3 (pz)     0.0000  0.0000 -0.1702 -0.1659  0.0397  0.1088  0.0943  0.0000
  34.  F 3 (s)      0.0000  0.0000  0.1767  0.2473 -1.6337  1.8255 -0.3245  0.0000
  35.  F 3 (px)    -0.0649 -0.0615  0.0000  0.0000  0.0000  0.0000  0.0000 -0.3737
  36.  F 3 (py)     0.0000  0.0000 -0.0262 -0.1070  0.0841 -0.5736 -0.2682  0.0000
  37.  F 3 (pz)     0.0000  0.0000  0.2078  0.1728 -0.3864 -0.0974 -0.3183  0.0000
  38.  F 3 (d5)     0.0000  0.0000  0.4217  0.4283  0.1073 -0.1770 -0.3231  0.0000
  39.  F 3 (d2)    -0.1933  0.4728  0.0000  0.0000  0.0000  0.0000  0.0000 -0.3650
  40.  F 3 (d3)     0.0000  0.0000  0.1151  0.1886 -0.3403  0.1603  0.3997  0.0000
  41.  F 3 (d4)     0.0000  0.0000  0.0357 -0.1038 -0.2413  0.3858 -0.4513  0.0000
  42.  F 3 (d1)     0.2040  0.5278  0.0000  0.0000  0.0000  0.0000  0.0000  0.4836
  43.  F 4 (s)      0.0000  0.0000  0.0166 -0.0237  0.0256  0.0312 -0.0156  0.0000
  44.  F 4 (s)      0.0000  0.0000 -0.2034  0.2844 -0.8220 -0.9205  0.0058  0.0000
  45.  F 4 (px)    -0.0596 -0.0541  0.0000  0.0000  0.0000  0.0000  0.0000  0.1677
  46.  F 4 (py)     0.0000  0.0000 -0.0500  0.1276  0.0985 -0.1155  0.2971  0.0000
  47.  F 4 (pz)     0.0000  0.0000 -0.1702  0.1659 -0.0397  0.1088 -0.0943  0.0000
  48.  F 4 (s)      0.0000  0.0000  0.1767 -0.2473  1.6337  1.8255  0.3245  0.0000
  49.  F 4 (px)     0.0649  0.0615  0.0000  0.0000  0.0000  0.0000  0.0000 -0.3737
  50.  F 4 (py)     0.0000  0.0000  0.0262 -0.1070  0.0841  0.5736 -0.2682  0.0000
  51.  F 4 (pz)     0.0000  0.0000  0.2078 -0.1728  0.3864 -0.0974  0.3183  0.0000
  52.  F 4 (d5)     0.0000  0.0000  0.4217 -0.4283 -0.1073 -0.1770  0.3231  0.0000
  53.  F 4 (d2)     0.1933 -0.4728  0.0000  0.0000  0.0000  0.0000  0.0000 -0.3650
  54.  F 4 (d3)     0.0000  0.0000 -0.1151  0.1886 -0.3403 -0.1603  0.3997  0.0000
  55.  F 4 (d4)     0.0000  0.0000  0.0357  0.1038  0.2413  0.3858  0.4513  0.0000
  56.  F 4 (d1)     0.2040  0.5278  0.0000  0.0000  0.0000  0.0000  0.0000 -0.4836

           AO         49      50      51      52      53      54      55      56
      ------------ ------- ------- ------- ------- ------- ------- ------- -------
   1.  O 1 (s)     -0.0186  0.0000  0.0000  0.0000 -0.0244 -0.0516  0.0340  0.0000
   2.  O 1 (s)      0.2066  0.0000  0.0000  0.0000 -0.9616 -0.4980 -0.5057  0.0000
   3.  O 1 (px)     0.0000  0.0000 -0.0858  0.0000  0.0000  0.0000  0.0000  0.0000
   4.  O 1 (py)     0.0000  0.0000  0.0000 -0.0257  0.0000  0.0000  0.0000 -0.0988
   5.  O 1 (pz)    -0.2898  0.0000  0.0000  0.0000  0.0964 -0.2800  0.5250  0.0000
   6.  O 1 (s)      0.1900  0.0000  0.0000  0.0000  2.8772  2.4192  0.1566  0.0000
   7.  O 1 (px)     0.0000  0.0000 -0.3278  0.0000  0.0000  0.0000  0.0000  0.0000
   8.  O 1 (py)     0.0000  0.0000  0.0000  0.6300  0.0000  0.0000  0.0000 -0.2765
   9.  O 1 (pz)     0.0396  0.0000  0.0000  0.0000 -1.4692 -1.3760  0.2085  0.0000
  10.  O 1 (d5)    -0.0298  0.0000  0.0000  0.0000  0.9522  1.0059 -0.5889  0.0000
  11.  O 1 (d2)     0.0000  0.0000  0.8836  0.0000  0.0000  0.0000  0.0000  0.0000
  12.  O 1 (d3)     0.0000  0.0000  0.0000 -0.6885  0.0000  0.0000  0.0000  0.6928
  13.  O 1 (d4)    -0.4355  0.0000  0.0000  0.0000 -0.0071 -0.0481 -0.0708  0.0000
  14.  O 1 (d1)     0.0000 -0.3339  0.0000  0.0000  0.0000  0.0000  0.0000  0.0000
  15.  C 2 (s)      0.0473  0.0000  0.0000  0.0000 -0.0919 -0.0034  0.0080  0.0000
  16.  C 2 (s)      0.3472  0.0000  0.0000  0.0000 -0.3728 -2.0459  0.0652  0.0000
  17.  C 2 (px)     0.0000  0.0000  0.1291  0.0000  0.0000  0.0000  0.0000  0.0000
  18.  C 2 (py)     0.0000  0.0000  0.0000 -1.0052  0.0000  0.0000  0.0000 -0.8876
  19.  C 2 (pz)    -0.2233  0.0000  0.0000  0.0000 -1.3535 -0.2201  0.7924  0.0000
  20.  C 2 (s)     -0.7391  0.0000  0.0000  0.0000 -0.4673 -2.3312 -0.2467  0.0000
  21.  C 2 (px)     0.0000  0.0000  0.0312  0.0000  0.0000  0.0000  0.0000  0.0000
  22.  C 2 (py)     0.0000  0.0000  0.0000 -1.2553  0.0000  0.0000  0.0000 -0.1048
  23.  C 2 (pz)     0.0493  0.0000  0.0000  0.0000 -1.5223 -0.2491 -0.5163  0.0000
  24.  C 2 (d5)    -0.3902  0.0000  0.0000  0.0000  0.2103 -0.5530  1.1729  0.0000
  25.  C 2 (d2)     0.0000  0.0000  1.1071  0.0000  0.0000  0.0000  0.0000  0.0000
  26.  C 2 (d3)     0.0000  0.0000  0.0000 -0.2296  0.0000  0.0000  0.0000  1.4885
  27.  C 2 (d4)     0.7839  0.0000  0.0000  0.0000 -0.1466  0.6164  0.5979  0.0000
  28.  C 2 (d1)     0.0000  0.9565  0.0000  0.0000  0.0000  0.0000  0.0000  0.0000
  29.  F 3 (s)     -0.0149  0.0000  0.0000  0.0198 -0.0031 -0.0103 -0.0071 -0.0274
  30.  F 3 (s)     -0.0029  0.0000  0.0000 -0.8914  0.5556 -0.6618 -0.1224 -0.3999
  31.  F 3 (px)     0.0000  0.0826 -0.0294  0.0000  0.0000  0.0000  0.0000  0.0000
  32.  F 3 (py)    -0.1697  0.0000  0.0000  0.1862 -0.1134  0.0590 -0.0290 -0.0149
  33.  F 3 (pz)     0.0997  0.0000  0.0000 -0.1956  0.0177 -0.0702 -0.0608  0.0771
  34.  F 3 (s)      0.2859  0.0000  0.0000  1.6785 -1.2080  1.5183  0.2528  1.0830
  35.  F 3 (px)     0.0000 -0.2723  0.1554  0.0000  0.0000  0.0000  0.0000  0.0000
  36.  F 3 (py)     0.0486  0.0000  0.0000 -0.5449  0.6720 -0.7354 -0.0379 -0.7764
  37.  F 3 (pz)     0.0190  0.0000  0.0000  0.6831 -0.0988  0.5853  0.4969  0.3780
  38.  F 3 (d5)     0.2814  0.0000  0.0000  0.1889  0.1839 -0.0088  0.4849 -0.1799
  39.  F 3 (d2)     0.0000 -0.4539  0.1001  0.0000  0.0000  0.0000  0.0000  0.0000
  40.  F 3 (d3)     0.2162  0.0000  0.0000 -0.4023  0.2506 -0.5888 -0.4476 -0.5648
  41.  F 3 (d4)    -0.0431  0.0000  0.0000 -0.1998  0.3547 -0.3749  0.0955 -0.5496
  42.  F 3 (d1)     0.0000  0.4326 -0.3959  0.0000  0.0000  0.0000  0.0000  0.0000
  43.  F 4 (s)     -0.0149  0.0000  0.0000 -0.0198 -0.0031 -0.0103 -0.0071  0.0274
  44.  F 4 (s)     -0.0029  0.0000  0.0000  0.8914  0.5556 -0.6618 -0.1224  0.3999
  45.  F 4 (px)     0.0000 -0.0826 -0.0294  0.0000  0.0000  0.0000  0.0000  0.0000
  46.  F 4 (py)     0.1697  0.0000  0.0000  0.1862  0.1134 -0.0590  0.0290 -0.0149
  47.  F 4 (pz)     0.0997  0.0000  0.0000  0.1956  0.0177 -0.0702 -0.0608 -0.0771
  48.  F 4 (s)      0.2859  0.0000  0.0000 -1.6785 -1.2080  1.5183  0.2528 -1.0830
  49.  F 4 (px)     0.0000  0.2723  0.1554  0.0000  0.0000  0.0000  0.0000  0.0000
  50.  F 4 (py)    -0.0486  0.0000  0.0000 -0.5449 -0.6720  0.7354  0.0379 -0.7764
  51.  F 4 (pz)     0.0190  0.0000  0.0000 -0.6831 -0.0988  0.5853  0.4969 -0.3780
  52.  F 4 (d5)     0.2814  0.0000  0.0000 -0.1889  0.1839 -0.0088  0.4849  0.1799
  53.  F 4 (d2)     0.0000  0.4539  0.1001  0.0000  0.0000  0.0000  0.0000  0.0000
  54.  F 4 (d3)    -0.2162  0.0000  0.0000 -0.4023 -0.2506  0.5888  0.4476 -0.5648
  55.  F 4 (d4)    -0.0431  0.0000  0.0000  0.1998  0.3547 -0.3749  0.0955  0.5496
  56.  F 4 (d1)     0.0000  0.4326  0.3959  0.0000  0.0000  0.0000  0.0000  0.0000


 AO overlap matrix:

           AO          1       2       3       4       5       6       7       8
      ------------ ------- ------- ------- ------- ------- ------- ------- -------
   1.  O 1 (s)      1.0000  0.2337  0.0000  0.0000  0.0000  0.1673  0.0000  0.0000
   2.  O 1 (s)      0.2337  1.0000  0.0000  0.0000  0.0000  0.7636  0.0000  0.0000
   3.  O 1 (px)     0.0000  0.0000  1.0000  0.0000  0.0000  0.0000  0.5015  0.0000
   4.  O 1 (py)     0.0000  0.0000  0.0000  1.0000  0.0000  0.0000  0.0000  0.5015
   5.  O 1 (pz)     0.0000  0.0000  0.0000  0.0000  1.0000  0.0000  0.0000  0.0000
   6.  O 1 (s)      0.1673  0.7636  0.0000  0.0000  0.0000  1.0000  0.0000  0.0000
   7.  O 1 (px)     0.0000  0.0000  0.5015  0.0000  0.0000  0.0000  1.0000  0.0000
   8.  O 1 (py)     0.0000  0.0000  0.0000  0.5015  0.0000  0.0000  0.0000  1.0000
   9.  O 1 (pz)     0.0000  0.0000  0.0000  0.0000  0.5015  0.0000  0.0000  0.0000
  10.  O 1 (d5)     0.0000  0.0000  0.0000  0.0000  0.0000  0.0000  0.0000  0.0000
  11.  O 1 (d2)     0.0000  0.0000  0.0000  0.0000  0.0000  0.0000  0.0000  0.0000
  12.  O 1 (d3)     0.0000  0.0000  0.0000  0.0000  0.0000  0.0000  0.0000  0.0000
  13.  O 1 (d4)     0.0000  0.0000  0.0000  0.0000  0.0000  0.0000  0.0000  0.0000
  14.  O 1 (d1)     0.0000  0.0000  0.0000  0.0000  0.0000  0.0000  0.0000  0.0000
  15.  C 2 (s)      0.0000  0.0098  0.0000  0.0000 -0.0229  0.0705  0.0000  0.0000
  16.  C 2 (s)      0.0236  0.1855  0.0000  0.0000 -0.2152  0.3884  0.0000  0.0000
  17.  C 2 (px)     0.0000  0.0000  0.0980  0.0000  0.0000  0.0000  0.2944  0.0000
  18.  C 2 (py)     0.0000  0.0000  0.0000  0.0980  0.0000  0.0000  0.0000  0.2944
  19.  C 2 (pz)     0.0482  0.2905  0.0000  0.0000 -0.2873  0.3430  0.0000  0.0000
  20.  C 2 (s)      0.0521  0.2978  0.0000  0.0000 -0.1483  0.5695  0.0000  0.0000
  21.  C 2 (px)     0.0000  0.0000  0.1611  0.0000  0.0000  0.0000  0.5541  0.0000
  22.  C 2 (py)     0.0000  0.0000  0.0000  0.1611  0.0000  0.0000  0.0000  0.5541
  23.  C 2 (pz)     0.0941  0.4659  0.0000  0.0000 -0.0760  0.6455  0.0000  0.0000
  24.  C 2 (d5)     0.0679  0.3140  0.0000  0.0000 -0.3036  0.1736  0.0000  0.0000
  25.  C 2 (d2)     0.0000  0.0000  0.1917  0.0000  0.0000  0.0000  0.2581  0.0000
  26.  C 2 (d3)     0.0000  0.0000  0.0000  0.1917  0.0000  0.0000  0.0000  0.2581
  27.  C 2 (d4)     0.0000  0.0000  0.0000  0.0000  0.0000  0.0000  0.0000  0.0000
  28.  C 2 (d1)     0.0000  0.0000  0.0000  0.0000  0.0000  0.0000  0.0000  0.0000
  29.  F 3 (s)      0.0000  0.0000  0.0000  0.0000  0.0000  0.0012  0.0000  0.0026
  30.  F 3 (s)      0.0000  0.0000  0.0000  0.0001 -0.0001  0.0123  0.0000  0.0214
  31.  F 3 (px)     0.0000  0.0000  0.0000  0.0000  0.0000  0.0000  0.0066  0.0000
  32.  F 3 (py)     0.0000 -0.0001  0.0000 -0.0001  0.0001 -0.0070  0.0000 -0.0057
  33.  F 3 (pz)     0.0000  0.0001  0.0000  0.0001 -0.0002  0.0128  0.0000  0.0227
  34.  F 3 (s)      0.0004  0.0078  0.0000  0.0058 -0.0107  0.0622  0.0000  0.0745
  35.  F 3 (px)     0.0000  0.0000  0.0048  0.0000  0.0000  0.0000  0.0616  0.0000
  36.  F 3 (py)    -0.0010 -0.0139  0.0000 -0.0057  0.0194 -0.0646  0.0000 -0.0159
  37.  F 3 (pz)     0.0018  0.0256  0.0000  0.0194 -0.0309  0.1191  0.0000  0.1426
  38.  F 3 (d5)     0.0000  0.0025  0.0000  0.0032 -0.0044  0.0301  0.0000  0.0571
  39.  F 3 (d2)     0.0000  0.0000  0.0009  0.0000  0.0000  0.0000  0.0316  0.0000
  40.  F 3 (d3)     0.0000 -0.0027  0.0000 -0.0023  0.0055 -0.0331  0.0000 -0.0205
  41.  F 3 (d4)     0.0000 -0.0007  0.0000 -0.0004  0.0016 -0.0090  0.0000  0.0030
  42.  F 3 (d1)     0.0000  0.0000 -0.0005  0.0000  0.0000  0.0000 -0.0171  0.0000
  43.  F 4 (s)      0.0000  0.0000  0.0000  0.0000  0.0000  0.0012  0.0000 -0.0026
  44.  F 4 (s)      0.0000  0.0000  0.0000 -0.0001 -0.0001  0.0123  0.0000 -0.0214
  45.  F 4 (px)     0.0000  0.0000  0.0000  0.0000  0.0000  0.0000  0.0066  0.0000
  46.  F 4 (py)     0.0000  0.0001  0.0000 -0.0001 -0.0001  0.0070  0.0000 -0.0057
  47.  F 4 (pz)     0.0000  0.0001  0.0000 -0.0001 -0.0002  0.0128  0.0000 -0.0227
  48.  F 4 (s)      0.0004  0.0078  0.0000 -0.0058 -0.0107  0.0622  0.0000 -0.0745
  49.  F 4 (px)     0.0000  0.0000  0.0048  0.0000  0.0000  0.0000  0.0616  0.0000
  50.  F 4 (py)     0.0010  0.0139  0.0000 -0.0057 -0.0194  0.0646  0.0000 -0.0159
  51.  F 4 (pz)     0.0018  0.0256  0.0000 -0.0194 -0.0309  0.1191  0.0000 -0.1426
  52.  F 4 (d5)     0.0000  0.0025  0.0000 -0.0032 -0.0044  0.0301  0.0000 -0.0571
  53.  F 4 (d2)     0.0000  0.0000  0.0009  0.0000  0.0000  0.0000  0.0316  0.0000
  54.  F 4 (d3)     0.0000  0.0027  0.0000 -0.0023 -0.0055  0.0331  0.0000 -0.0205
  55.  F 4 (d4)     0.0000 -0.0007  0.0000  0.0004  0.0016 -0.0090  0.0000 -0.0030
  56.  F 4 (d1)     0.0000  0.0000  0.0005  0.0000  0.0000  0.0000  0.0171  0.0000

           AO          9      10      11      12      13      14      15      16
      ------------ ------- ------- ------- ------- ------- ------- ------- -------
   1.  O 1 (s)      0.0000  0.0000  0.0000  0.0000  0.0000  0.0000  0.0000  0.0236
   2.  O 1 (s)      0.0000  0.0000  0.0000  0.0000  0.0000  0.0000  0.0098  0.1855
   3.  O 1 (px)     0.0000  0.0000  0.0000  0.0000  0.0000  0.0000  0.0000  0.0000
   4.  O 1 (py)     0.0000  0.0000  0.0000  0.0000  0.0000  0.0000  0.0000  0.0000
   5.  O 1 (pz)     0.5015  0.0000  0.0000  0.0000  0.0000  0.0000 -0.0229 -0.2152
   6.  O 1 (s)      0.0000  0.0000  0.0000  0.0000  0.0000  0.0000  0.0705  0.3884
   7.  O 1 (px)     0.0000  0.0000  0.0000  0.0000  0.0000  0.0000  0.0000  0.0000
   8.  O 1 (py)     0.0000  0.0000  0.0000  0.0000  0.0000  0.0000  0.0000  0.0000
   9.  O 1 (pz)     1.0000  0.0000  0.0000  0.0000  0.0000  0.0000 -0.1551 -0.5873
  10.  O 1 (d5)     0.0000  1.0000  0.0000  0.0000  0.0000  0.0000  0.1067  0.2836
  11.  O 1 (d2)     0.0000  0.0000  1.0000  0.0000  0.0000  0.0000  0.0000  0.0000
  12.  O 1 (d3)     0.0000  0.0000  0.0000  1.0000  0.0000  0.0000  0.0000  0.0000
  13.  O 1 (d4)     0.0000  0.0000  0.0000  0.0000  1.0000  0.0000  0.0000  0.0000
  14.  O 1 (d1)     0.0000  0.0000  0.0000  0.0000  0.0000  1.0000  0.0000  0.0000
  15.  C 2 (s)     -0.1551  0.1067  0.0000  0.0000  0.0000  0.0000  1.0000  0.2191
  16.  C 2 (s)     -0.5873  0.2836  0.0000  0.0000  0.0000  0.0000  0.2191  1.0000
  17.  C 2 (px)     0.0000  0.0000 -0.2707  0.0000  0.0000  0.0000  0.0000  0.0000
  18.  C 2 (py)     0.0000  0.0000  0.0000 -0.2707  0.0000  0.0000  0.0000  0.0000
  19.  C 2 (pz)    -0.2602  0.2587  0.0000  0.0000  0.0000  0.0000  0.0000  0.0000
  20.  C 2 (s)     -0.5103  0.0924  0.0000  0.0000  0.0000  0.0000  0.1843  0.8123
  21.  C 2 (px)     0.0000  0.0000 -0.1737  0.0000  0.0000  0.0000  0.0000  0.0000
  22.  C 2 (py)     0.0000  0.0000  0.0000 -0.1737  0.0000  0.0000  0.0000  0.0000
  23.  C 2 (pz)    -0.0242 -0.0601  0.0000  0.0000  0.0000  0.0000  0.0000  0.0000
  24.  C 2 (d5)    -0.0044  0.1377  0.0000  0.0000  0.0000  0.0000  0.0000  0.0000
  25.  C 2 (d2)     0.0000  0.0000 -0.4046  0.0000  0.0000  0.0000  0.0000  0.0000
  26.  C 2 (d3)     0.0000  0.0000  0.0000 -0.4046  0.0000  0.0000  0.0000  0.0000
  27.  C 2 (d4)     0.0000  0.0000  0.0000  0.0000  0.1339  0.0000  0.0000  0.0000
  28.  C 2 (d1)     0.0000  0.0000  0.0000  0.0000  0.0000  0.1339  0.0000  0.0000
  29.  F 3 (s)     -0.0047  0.0000  0.0000  0.0000  0.0000  0.0000  0.0000  0.0101
  30.  F 3 (s)     -0.0395  0.0011  0.0000 -0.0012 -0.0003  0.0000  0.0012  0.0919
  31.  F 3 (px)     0.0000  0.0000 -0.0003  0.0000  0.0000  0.0002  0.0000  0.0000
  32.  F 3 (py)     0.0227 -0.0014  0.0000  0.0011  0.0002  0.0000 -0.0026 -0.0901
  33.  F 3 (pz)    -0.0352  0.0020  0.0000 -0.0024 -0.0007  0.0000  0.0019  0.0660
  34.  F 3 (s)     -0.1372  0.0219  0.0000 -0.0241 -0.0066  0.0000  0.0380  0.2662
  35.  F 3 (px)     0.0000  0.0000 -0.0200  0.0000  0.0000  0.0108  0.0000  0.0000
  36.  F 3 (py)     0.1426 -0.0428  0.0000  0.0204  0.0001  0.0000 -0.0851 -0.3766
  37.  F 3 (pz)    -0.2012  0.0443  0.0000 -0.0635 -0.0202  0.0000  0.0623  0.2760
  38.  F 3 (d5)    -0.0505  0.0114  0.0000 -0.0224 -0.0082  0.0000  0.0014  0.0060
  39.  F 3 (d2)     0.0000  0.0000 -0.0077  0.0000  0.0000  0.0046  0.0000  0.0000
  40.  F 3 (d3)     0.0788 -0.0224  0.0000  0.0174  0.0029  0.0000 -0.0469 -0.2046
  41.  F 3 (d4)     0.0260 -0.0082  0.0000  0.0029  0.0003  0.0000 -0.0320 -0.1396
  42.  F 3 (d1)     0.0000  0.0000  0.0046  0.0000  0.0000 -0.0017  0.0000  0.0000
  43.  F 4 (s)     -0.0047  0.0000  0.0000  0.0000  0.0000  0.0000  0.0000  0.0101
  44.  F 4 (s)     -0.0395  0.0011  0.0000  0.0012 -0.0003  0.0000  0.0012  0.0919
  45.  F 4 (px)     0.0000  0.0000 -0.0003  0.0000  0.0000 -0.0002  0.0000  0.0000
  46.  F 4 (py)    -0.0227  0.0014  0.0000  0.0011 -0.0002  0.0000  0.0026  0.0901
  47.  F 4 (pz)    -0.0352  0.0020  0.0000  0.0024 -0.0007  0.0000  0.0019  0.0660
  48.  F 4 (s)     -0.1372  0.0219  0.0000  0.0241 -0.0066  0.0000  0.0380  0.2662
  49.  F 4 (px)     0.0000  0.0000 -0.0200  0.0000  0.0000 -0.0108  0.0000  0.0000
  50.  F 4 (py)    -0.1426  0.0428  0.0000  0.0204 -0.0001  0.0000  0.0851  0.3766
  51.  F 4 (pz)    -0.2012  0.0443  0.0000  0.0635 -0.0202  0.0000  0.0623  0.2760
  52.  F 4 (d5)    -0.0505  0.0114  0.0000  0.0224 -0.0082  0.0000  0.0014  0.0060
  53.  F 4 (d2)     0.0000  0.0000 -0.0077  0.0000  0.0000 -0.0046  0.0000  0.0000
  54.  F 4 (d3)    -0.0788  0.0224  0.0000  0.0174 -0.0029  0.0000  0.0469  0.2046
  55.  F 4 (d4)     0.0260 -0.0082  0.0000 -0.0029  0.0003  0.0000 -0.0320 -0.1396
  56.  F 4 (d1)     0.0000  0.0000 -0.0046  0.0000  0.0000 -0.0017  0.0000  0.0000

           AO         17      18      19      20      21      22      23      24
      ------------ ------- ------- ------- ------- ------- ------- ------- -------
   1.  O 1 (s)      0.0000  0.0000  0.0482  0.0521  0.0000  0.0000  0.0941  0.0679
   2.  O 1 (s)      0.0000  0.0000  0.2905  0.2978  0.0000  0.0000  0.4659  0.3140
   3.  O 1 (px)     0.0980  0.0000  0.0000  0.0000  0.1611  0.0000  0.0000  0.0000
   4.  O 1 (py)     0.0000  0.0980  0.0000  0.0000  0.0000  0.1611  0.0000  0.0000
   5.  O 1 (pz)     0.0000  0.0000 -0.2873 -0.1483  0.0000  0.0000 -0.0760 -0.3036
   6.  O 1 (s)      0.0000  0.0000  0.3430  0.5695  0.0000  0.0000  0.6455  0.1736
   7.  O 1 (px)     0.2944  0.0000  0.0000  0.0000  0.5541  0.0000  0.0000  0.0000
   8.  O 1 (py)     0.0000  0.2944  0.0000  0.0000  0.0000  0.5541  0.0000  0.0000
   9.  O 1 (pz)     0.0000  0.0000 -0.2602 -0.5103  0.0000  0.0000 -0.0242 -0.0044
  10.  O 1 (d5)     0.0000  0.0000  0.2587  0.0924  0.0000  0.0000 -0.0601  0.1377
  11.  O 1 (d2)    -0.2707  0.0000  0.0000  0.0000 -0.1737  0.0000  0.0000  0.0000
  12.  O 1 (d3)     0.0000 -0.2707  0.0000  0.0000  0.0000 -0.1737  0.0000  0.0000
  13.  O 1 (d4)     0.0000  0.0000  0.0000  0.0000  0.0000  0.0000  0.0000  0.0000
  14.  O 1 (d1)     0.0000  0.0000  0.0000  0.0000  0.0000  0.0000  0.0000  0.0000
  15.  C 2 (s)      0.0000  0.0000  0.0000  0.1843  0.0000  0.0000  0.0000  0.0000
  16.  C 2 (s)      0.0000  0.0000  0.0000  0.8123  0.0000  0.0000  0.0000  0.0000
  17.  C 2 (px)     1.0000  0.0000  0.0000  0.0000  0.5698  0.0000  0.0000  0.0000
  18.  C 2 (py)     0.0000  1.0000  0.0000  0.0000  0.0000  0.5698  0.0000  0.0000
  19.  C 2 (pz)     0.0000  0.0000  1.0000  0.0000  0.0000  0.0000  0.5698  0.0000
  20.  C 2 (s)      0.0000  0.0000  0.0000  1.0000  0.0000  0.0000  0.0000  0.0000
  21.  C 2 (px)     0.5698  0.0000  0.0000  0.0000  1.0000  0.0000  0.0000  0.0000
  22.  C 2 (py)     0.0000  0.5698  0.0000  0.0000  0.0000  1.0000  0.0000  0.0000
  23.  C 2 (pz)     0.0000  0.0000  0.5698  0.0000  0.0000  0.0000  1.0000  0.0000
  24.  C 2 (d5)     0.0000  0.0000  0.0000  0.0000  0.0000  0.0000  0.0000  1.0000
  25.  C 2 (d2)     0.0000  0.0000  0.0000  0.0000  0.0000  0.0000  0.0000  0.0000
  26.  C 2 (d3)     0.0000  0.0000  0.0000  0.0000  0.0000  0.0000  0.0000  0.0000
  27.  C 2 (d4)     0.0000  0.0000  0.0000  0.0000  0.0000  0.0000  0.0000  0.0000
  28.  C 2 (d1)     0.0000  0.0000  0.0000  0.0000  0.0000  0.0000  0.0000  0.0000
  29.  F 3 (s)      0.0000  0.0188 -0.0137  0.0353  0.0000  0.0577 -0.0423  0.0007
  30.  F 3 (s)      0.0000  0.1331 -0.0975  0.2057  0.0000  0.3014 -0.2209  0.0048
  31.  F 3 (px)     0.0420  0.0000  0.0000  0.0000  0.0988  0.0000  0.0000  0.0000
  32.  F 3 (py)     0.0000 -0.0993  0.1036 -0.0820  0.0000 -0.0233  0.0895 -0.0473
  33.  F 3 (pz)     0.0000  0.1036 -0.0339  0.0601  0.0000  0.0895  0.0332 -0.0551
  34.  F 3 (s)      0.0000  0.2473 -0.1813  0.4387  0.0000  0.4951 -0.3629  0.0051
  35.  F 3 (px)     0.2045  0.0000  0.0000  0.0000  0.4094  0.0000  0.0000  0.0000
  36.  F 3 (py)     0.0000 -0.1725  0.2763 -0.3398  0.0000  0.0258  0.2811 -0.1206
  37.  F 3 (pz)     0.0000  0.2763  0.0020  0.2491  0.0000  0.2811  0.2033 -0.1582
  38.  F 3 (d5)     0.0000  0.0996  0.1247  0.0023  0.0000  0.0792  0.1090 -0.1968
  39.  F 3 (d2)     0.1141  0.0000  0.0000  0.0000  0.0964  0.0000  0.0000  0.0000
  40.  F 3 (d3)     0.0000 -0.2162  0.0864 -0.0800  0.0000 -0.0133 -0.0511  0.0985
  41.  F 3 (d4)     0.0000 -0.0696  0.1652 -0.0546  0.0000  0.0567  0.0549 -0.1624
  42.  F 3 (d1)    -0.1557  0.0000  0.0000  0.0000 -0.1315  0.0000  0.0000  0.0000
  43.  F 4 (s)      0.0000 -0.0188 -0.0137  0.0353  0.0000 -0.0577 -0.0423  0.0007
  44.  F 4 (s)      0.0000 -0.1331 -0.0975  0.2057  0.0000 -0.3014 -0.2209  0.0048
  45.  F 4 (px)     0.0420  0.0000  0.0000  0.0000  0.0988  0.0000  0.0000  0.0000
  46.  F 4 (py)     0.0000 -0.0993 -0.1036  0.0820  0.0000 -0.0233 -0.0895  0.0473
  47.  F 4 (pz)     0.0000 -0.1036 -0.0339  0.0601  0.0000 -0.0895  0.0332 -0.0551
  48.  F 4 (s)      0.0000 -0.2473 -0.1813  0.4387  0.0000 -0.4951 -0.3629  0.0051
  49.  F 4 (px)     0.2045  0.0000  0.0000  0.0000  0.4094  0.0000  0.0000  0.0000
  50.  F 4 (py)     0.0000 -0.1725 -0.2763  0.3398  0.0000  0.0258 -0.2811  0.1206
  51.  F 4 (pz)     0.0000 -0.2763  0.0020  0.2491  0.0000 -0.2811  0.2033 -0.1582
  52.  F 4 (d5)     0.0000 -0.0996  0.1247  0.0023  0.0000 -0.0792  0.1090 -0.1968
  53.  F 4 (d2)     0.1141  0.0000  0.0000  0.0000  0.0964  0.0000  0.0000  0.0000
  54.  F 4 (d3)     0.0000 -0.2162 -0.0864  0.0800  0.0000 -0.0133  0.0511 -0.0985
  55.  F 4 (d4)     0.0000  0.0696  0.1652 -0.0546  0.0000 -0.0567  0.0549 -0.1624
  56.  F 4 (d1)     0.1557  0.0000  0.0000  0.0000  0.1315  0.0000  0.0000  0.0000

           AO         25      26      27      28      29      30      31      32
      ------------ ------- ------- ------- ------- ------- ------- ------- -------
   1.  O 1 (s)      0.0000  0.0000  0.0000  0.0000  0.0000  0.0000  0.0000  0.0000
   2.  O 1 (s)      0.0000  0.0000  0.0000  0.0000  0.0000  0.0000  0.0000 -0.0001
   3.  O 1 (px)     0.1917  0.0000  0.0000  0.0000  0.0000  0.0000  0.0000  0.0000
   4.  O 1 (py)     0.0000  0.1917  0.0000  0.0000  0.0000  0.0001  0.0000 -0.0001
   5.  O 1 (pz)     0.0000  0.0000  0.0000  0.0000  0.0000 -0.0001  0.0000  0.0001
   6.  O 1 (s)      0.0000  0.0000  0.0000  0.0000  0.0012  0.0123  0.0000 -0.0070
   7.  O 1 (px)     0.2581  0.0000  0.0000  0.0000  0.0000  0.0000  0.0066  0.0000
   8.  O 1 (py)     0.0000  0.2581  0.0000  0.0000  0.0026  0.0214  0.0000 -0.0057
   9.  O 1 (pz)     0.0000  0.0000  0.0000  0.0000 -0.0047 -0.0395  0.0000  0.0227
  10.  O 1 (d5)     0.0000  0.0000  0.0000  0.0000  0.0000  0.0011  0.0000 -0.0014
  11.  O 1 (d2)    -0.4046  0.0000  0.0000  0.0000  0.0000  0.0000 -0.0003  0.0000
  12.  O 1 (d3)     0.0000 -0.4046  0.0000  0.0000  0.0000 -0.0012  0.0000  0.0011
  13.  O 1 (d4)     0.0000  0.0000  0.1339  0.0000  0.0000 -0.0003  0.0000  0.0002
  14.  O 1 (d1)     0.0000  0.0000  0.0000  0.1339  0.0000  0.0000  0.0002  0.0000
  15.  C 2 (s)      0.0000  0.0000  0.0000  0.0000  0.0000  0.0012  0.0000 -0.0026
  16.  C 2 (s)      0.0000  0.0000  0.0000  0.0000  0.0101  0.0919  0.0000 -0.0901
  17.  C 2 (px)     0.0000  0.0000  0.0000  0.0000  0.0000  0.0000  0.0420  0.0000
  18.  C 2 (py)     0.0000  0.0000  0.0000  0.0000  0.0188  0.1331  0.0000 -0.0993
  19.  C 2 (pz)     0.0000  0.0000  0.0000  0.0000 -0.0137 -0.0975  0.0000  0.1036
  20.  C 2 (s)      0.0000  0.0000  0.0000  0.0000  0.0353  0.2057  0.0000 -0.0820
  21.  C 2 (px)     0.0000  0.0000  0.0000  0.0000  0.0000  0.0000  0.0988  0.0000
  22.  C 2 (py)     0.0000  0.0000  0.0000  0.0000  0.0577  0.3014  0.0000 -0.0233
  23.  C 2 (pz)     0.0000  0.0000  0.0000  0.0000 -0.0423 -0.2209  0.0000  0.0895
  24.  C 2 (d5)     0.0000  0.0000  0.0000  0.0000  0.0007  0.0048  0.0000 -0.0473
  25.  C 2 (d2)     1.0000  0.0000  0.0000  0.0000  0.0000  0.0000 -0.0518  0.0000
  26.  C 2 (d3)     0.0000  1.0000  0.0000  0.0000 -0.0229 -0.1635  0.0000  0.1673
  27.  C 2 (d4)     0.0000  0.0000  1.0000  0.0000 -0.0156 -0.1115  0.0000  0.0788
  28.  C 2 (d1)     0.0000  0.0000  0.0000  1.0000  0.0000  0.0000  0.0707  0.0000
  29.  F 3 (s)      0.0000 -0.0229 -0.0156  0.0000  1.0000  0.2443  0.0000  0.0000
  30.  F 3 (s)      0.0000 -0.1635 -0.1115  0.0000  0.2443  1.0000  0.0000  0.0000
  31.  F 3 (px)    -0.0518  0.0000  0.0000  0.0707  0.0000  0.0000  1.0000  0.0000
  32.  F 3 (py)     0.0000  0.1673  0.0788  0.0000  0.0000  0.0000  0.0000  1.0000
  33.  F 3 (pz)     0.0000 -0.0899 -0.1096  0.0000  0.0000  0.0000  0.0000  0.0000
  34.  F 3 (s)      0.0000 -0.1722 -0.1175  0.0000  0.1716  0.7635  0.0000  0.0000
  35.  F 3 (px)    -0.1424  0.0000  0.0000  0.1943  0.0000  0.0000  0.4995  0.0000
  36.  F 3 (py)     0.0000  0.1454  0.0020  0.0000  0.0000  0.0000  0.0000  0.4995
  37.  F 3 (pz)     0.0000 -0.0167 -0.1439  0.0000  0.0000  0.0000  0.0000  0.0000
  38.  F 3 (d5)     0.0000  0.0985 -0.1624  0.0000  0.0000  0.0000  0.0000  0.0000
  39.  F 3 (d2)    -0.0613  0.0000  0.0000  0.1943  0.0000  0.0000  0.0000  0.0000
  40.  F 3 (d3)     0.0000  0.1390  0.1232  0.0000  0.0000  0.0000  0.0000  0.0000
  41.  F 3 (d4)     0.0000  0.1232  0.0326  0.0000  0.0000  0.0000  0.0000  0.0000
  42.  F 3 (d1)     0.1943  0.0000  0.0000 -0.1840  0.0000  0.0000  0.0000  0.0000
  43.  F 4 (s)      0.0000  0.0229 -0.0156  0.0000  0.0000  0.0000  0.0000  0.0000
  44.  F 4 (s)      0.0000  0.1635 -0.1115  0.0000  0.0000  0.0000  0.0000 -0.0001
  45.  F 4 (px)    -0.0518  0.0000  0.0000 -0.0707  0.0000  0.0000  0.0000  0.0000
  46.  F 4 (py)     0.0000  0.1673 -0.0788  0.0000  0.0000  0.0001  0.0000 -0.0002
  47.  F 4 (pz)     0.0000  0.0899 -0.1096  0.0000  0.0000  0.0000  0.0000  0.0000
  48.  F 4 (s)      0.0000  0.1722 -0.1175  0.0000  0.0006  0.0079  0.0000 -0.0110
  49.  F 4 (px)    -0.1424  0.0000  0.0000 -0.1943  0.0000  0.0000  0.0046  0.0000
  50.  F 4 (py)     0.0000  0.1454 -0.0020  0.0000  0.0028  0.0300  0.0000 -0.0380
  51.  F 4 (pz)     0.0000  0.0167 -0.1439  0.0000  0.0000  0.0000  0.0000  0.0000
  52.  F 4 (d5)     0.0000 -0.0985 -0.1624  0.0000  0.0000 -0.0017  0.0000  0.0035
  53.  F 4 (d2)    -0.0613  0.0000  0.0000 -0.1943  0.0000  0.0000  0.0000  0.0000
  54.  F 4 (d3)     0.0000  0.1390 -0.1232  0.0000  0.0000  0.0000  0.0000  0.0000
  55.  F 4 (d4)     0.0000 -0.1232  0.0326  0.0000  0.0000 -0.0030  0.0000  0.0061
  56.  F 4 (d1)    -0.1943  0.0000  0.0000 -0.1840  0.0000  0.0000  0.0008  0.0000

           AO         33      34      35      36      37      38      39      40
      ------------ ------- ------- ------- ------- ------- ------- ------- -------
   1.  O 1 (s)      0.0000  0.0004  0.0000 -0.0010  0.0018  0.0000  0.0000  0.0000
   2.  O 1 (s)      0.0001  0.0078  0.0000 -0.0139  0.0256  0.0025  0.0000 -0.0027
   3.  O 1 (px)     0.0000  0.0000  0.0048  0.0000  0.0000  0.0000  0.0009  0.0000
   4.  O 1 (py)     0.0001  0.0058  0.0000 -0.0057  0.0194  0.0032  0.0000 -0.0023
   5.  O 1 (pz)    -0.0002 -0.0107  0.0000  0.0194 -0.0309 -0.0044  0.0000  0.0055
   6.  O 1 (s)      0.0128  0.0622  0.0000 -0.0646  0.1191  0.0301  0.0000 -0.0331
   7.  O 1 (px)     0.0000  0.0000  0.0616  0.0000  0.0000  0.0000  0.0316  0.0000
   8.  O 1 (py)     0.0227  0.0745  0.0000 -0.0159  0.1426  0.0571  0.0000 -0.0205
   9.  O 1 (pz)    -0.0352 -0.1372  0.0000  0.1426 -0.2012 -0.0505  0.0000  0.0788
  10.  O 1 (d5)     0.0020  0.0219  0.0000 -0.0428  0.0443  0.0114  0.0000 -0.0224
  11.  O 1 (d2)     0.0000  0.0000 -0.0200  0.0000  0.0000  0.0000 -0.0077  0.0000
  12.  O 1 (d3)    -0.0024 -0.0241  0.0000  0.0204 -0.0635 -0.0224  0.0000  0.0174
  13.  O 1 (d4)    -0.0007 -0.0066  0.0000  0.0001 -0.0202 -0.0082  0.0000  0.0029
  14.  O 1 (d1)     0.0000  0.0000  0.0108  0.0000  0.0000  0.0000  0.0046  0.0000
  15.  C 2 (s)      0.0019  0.0380  0.0000 -0.0851  0.0623  0.0014  0.0000 -0.0469
  16.  C 2 (s)      0.0660  0.2662  0.0000 -0.3766  0.2760  0.0060  0.0000 -0.2046
  17.  C 2 (px)     0.0000  0.0000  0.2045  0.0000  0.0000  0.0000  0.1141  0.0000
  18.  C 2 (py)     0.1036  0.2473  0.0000 -0.1725  0.2763  0.0996  0.0000 -0.2162
  19.  C 2 (pz)    -0.0339 -0.1813  0.0000  0.2763  0.0020  0.1247  0.0000  0.0864
  20.  C 2 (s)      0.0601  0.4387  0.0000 -0.3398  0.2491  0.0023  0.0000 -0.0800
  21.  C 2 (px)     0.0000  0.0000  0.4094  0.0000  0.0000  0.0000  0.0964  0.0000
  22.  C 2 (py)     0.0895  0.4951  0.0000  0.0258  0.2811  0.0792  0.0000 -0.0133
  23.  C 2 (pz)     0.0332 -0.3629  0.0000  0.2811  0.2033  0.1090  0.0000 -0.0511
  24.  C 2 (d5)    -0.0551  0.0051  0.0000 -0.1206 -0.1582 -0.1968  0.0000  0.0985
  25.  C 2 (d2)     0.0000  0.0000 -0.1424  0.0000  0.0000  0.0000 -0.0613  0.0000
  26.  C 2 (d3)    -0.0899 -0.1722  0.0000  0.1454 -0.0167  0.0985  0.0000  0.1390
  27.  C 2 (d4)    -0.1096 -0.1175  0.0000  0.0020 -0.1439 -0.1624  0.0000  0.1232
  28.  C 2 (d1)     0.0000  0.0000  0.1943  0.0000  0.0000  0.0000  0.1943  0.0000
  29.  F 3 (s)      0.0000  0.1716  0.0000  0.0000  0.0000  0.0000  0.0000  0.0000
  30.  F 3 (s)      0.0000  0.7635  0.0000  0.0000  0.0000  0.0000  0.0000  0.0000
  31.  F 3 (px)     0.0000  0.0000  0.4995  0.0000  0.0000  0.0000  0.0000  0.0000
  32.  F 3 (py)     0.0000  0.0000  0.0000  0.4995  0.0000  0.0000  0.0000  0.0000
  33.  F 3 (pz)     1.0000  0.0000  0.0000  0.0000  0.4995  0.0000  0.0000  0.0000
  34.  F 3 (s)      0.0000  1.0000  0.0000  0.0000  0.0000  0.0000  0.0000  0.0000
  35.  F 3 (px)     0.0000  0.0000  1.0000  0.0000  0.0000  0.0000  0.0000  0.0000
  36.  F 3 (py)     0.0000  0.0000  0.0000  1.0000  0.0000  0.0000  0.0000  0.0000
  37.  F 3 (pz)     0.4995  0.0000  0.0000  0.0000  1.0000  0.0000  0.0000  0.0000
  38.  F 3 (d5)     0.0000  0.0000  0.0000  0.0000  0.0000  1.0000  0.0000  0.0000
  39.  F 3 (d2)     0.0000  0.0000  0.0000  0.0000  0.0000  0.0000  1.0000  0.0000
  40.  F 3 (d3)     0.0000  0.0000  0.0000  0.0000  0.0000  0.0000  0.0000  1.0000
  41.  F 3 (d4)     0.0000  0.0000  0.0000  0.0000  0.0000  0.0000  0.0000  0.0000
  42.  F 3 (d1)     0.0000  0.0000  0.0000  0.0000  0.0000  0.0000  0.0000  0.0000
  43.  F 4 (s)      0.0000  0.0006  0.0000 -0.0028  0.0000  0.0000  0.0000  0.0000
  44.  F 4 (s)      0.0000  0.0079  0.0000 -0.0300  0.0000 -0.0017  0.0000  0.0000
  45.  F 4 (px)     0.0000  0.0000  0.0046  0.0000  0.0000  0.0000  0.0000  0.0000
  46.  F 4 (py)     0.0000  0.0110  0.0000 -0.0380  0.0000 -0.0035  0.0000  0.0000
  47.  F 4 (pz)     0.0000  0.0000  0.0000  0.0000  0.0046  0.0000  0.0000 -0.0008
  48.  F 4 (s)      0.0000  0.0536  0.0000 -0.1297  0.0000 -0.0225  0.0000  0.0000
  49.  F 4 (px)     0.0000  0.0000  0.0536  0.0000  0.0000  0.0000  0.0000  0.0000
  50.  F 4 (py)     0.0000  0.1297  0.0000 -0.2601  0.0000 -0.0567  0.0000  0.0000
  51.  F 4 (pz)     0.0046  0.0000  0.0000  0.0000  0.0536  0.0000  0.0000 -0.0323
  52.  F 4 (d5)     0.0000 -0.0225  0.0000  0.0567  0.0000  0.0158  0.0000  0.0000
  53.  F 4 (d2)     0.0000  0.0000  0.0000  0.0000  0.0000  0.0000  0.0015  0.0000
  54.  F 4 (d3)     0.0008  0.0000  0.0000  0.0000  0.0323  0.0000  0.0000 -0.0175
  55.  F 4 (d4)     0.0000 -0.0390  0.0000  0.0981  0.0000  0.0248  0.0000  0.0000
  56.  F 4 (d1)     0.0000  0.0000  0.0323  0.0000  0.0000  0.0000  0.0000  0.0000

           AO         41      42      43      44      45      46      47      48
      ------------ ------- ------- ------- ------- ------- ------- ------- -------
   1.  O 1 (s)      0.0000  0.0000  0.0000  0.0000  0.0000  0.0000  0.0000  0.0004
   2.  O 1 (s)     -0.0007  0.0000  0.0000  0.0000  0.0000  0.0001  0.0001  0.0078
   3.  O 1 (px)     0.0000 -0.0005  0.0000  0.0000  0.0000  0.0000  0.0000  0.0000
   4.  O 1 (py)    -0.0004  0.0000  0.0000 -0.0001  0.0000 -0.0001 -0.0001 -0.0058
   5.  O 1 (pz)     0.0016  0.0000  0.0000 -0.0001  0.0000 -0.0001 -0.0002 -0.0107
   6.  O 1 (s)     -0.0090  0.0000  0.0012  0.0123  0.0000  0.0070  0.0128  0.0622
   7.  O 1 (px)     0.0000 -0.0171  0.0000  0.0000  0.0066  0.0000  0.0000  0.0000
   8.  O 1 (py)     0.0030  0.0000 -0.0026 -0.0214  0.0000 -0.0057 -0.0227 -0.0745
   9.  O 1 (pz)     0.0260  0.0000 -0.0047 -0.0395  0.0000 -0.0227 -0.0352 -0.1372
  10.  O 1 (d5)    -0.0082  0.0000  0.0000  0.0011  0.0000  0.0014  0.0020  0.0219
  11.  O 1 (d2)     0.0000  0.0046  0.0000  0.0000 -0.0003  0.0000  0.0000  0.0000
  12.  O 1 (d3)     0.0029  0.0000  0.0000  0.0012  0.0000  0.0011  0.0024  0.0241
  13.  O 1 (d4)     0.0003  0.0000  0.0000 -0.0003  0.0000 -0.0002 -0.0007 -0.0066
  14.  O 1 (d1)     0.0000 -0.0017  0.0000  0.0000 -0.0002  0.0000  0.0000  0.0000
  15.  C 2 (s)     -0.0320  0.0000  0.0000  0.0012  0.0000  0.0026  0.0019  0.0380
  16.  C 2 (s)     -0.1396  0.0000  0.0101  0.0919  0.0000  0.0901  0.0660  0.2662
  17.  C 2 (px)     0.0000 -0.1557  0.0000  0.0000  0.0420  0.0000  0.0000  0.0000
  18.  C 2 (py)    -0.0696  0.0000 -0.0188 -0.1331  0.0000 -0.0993 -0.1036 -0.2473
  19.  C 2 (pz)     0.1652  0.0000 -0.0137 -0.0975  0.0000 -0.1036 -0.0339 -0.1813
  20.  C 2 (s)     -0.0546  0.0000  0.0353  0.2057  0.0000  0.0820  0.0601  0.4387
  21.  C 2 (px)     0.0000 -0.1315  0.0000  0.0000  0.0988  0.0000  0.0000  0.0000
  22.  C 2 (py)     0.0567  0.0000 -0.0577 -0.3014  0.0000 -0.0233 -0.0895 -0.4951
  23.  C 2 (pz)     0.0549  0.0000 -0.0423 -0.2209  0.0000 -0.0895  0.0332 -0.3629
  24.  C 2 (d5)    -0.1624  0.0000  0.0007  0.0048  0.0000  0.0473 -0.0551  0.0051
  25.  C 2 (d2)     0.0000  0.1943  0.0000  0.0000 -0.0518  0.0000  0.0000  0.0000
  26.  C 2 (d3)     0.1232  0.0000  0.0229  0.1635  0.0000  0.1673  0.0899  0.1722
  27.  C 2 (d4)     0.0326  0.0000 -0.0156 -0.1115  0.0000 -0.0788 -0.1096 -0.1175
  28.  C 2 (d1)     0.0000 -0.1840  0.0000  0.0000 -0.0707  0.0000  0.0000  0.0000
  29.  F 3 (s)      0.0000  0.0000  0.0000  0.0000  0.0000  0.0000  0.0000  0.0006
  30.  F 3 (s)      0.0000  0.0000  0.0000  0.0000  0.0000  0.0001  0.0000  0.0079
  31.  F 3 (px)     0.0000  0.0000  0.0000  0.0000  0.0000  0.0000  0.0000  0.0000
  32.  F 3 (py)     0.0000  0.0000  0.0000 -0.0001  0.0000 -0.0002  0.0000 -0.0110
  33.  F 3 (pz)     0.0000  0.0000  0.0000  0.0000  0.0000  0.0000  0.0000  0.0000
  34.  F 3 (s)      0.0000  0.0000  0.0006  0.0079  0.0000  0.0110  0.0000  0.0536
  35.  F 3 (px)     0.0000  0.0000  0.0000  0.0000  0.0046  0.0000  0.0000  0.0000
  36.  F 3 (py)     0.0000  0.0000 -0.0028 -0.0300  0.0000 -0.0380  0.0000 -0.1297
  37.  F 3 (pz)     0.0000  0.0000  0.0000  0.0000  0.0000  0.0000  0.0046  0.0000
[...]
               ( 32.98%)   0.5742* O  1 s( 39.55%)p 1.52( 59.92%)d 0.01(  0.53%)
                                         0.0000 -0.6286 -0.0192  0.0000  0.0000
                                         0.0000  0.0000  0.7739 -0.0156  0.0000
                                         0.0000  0.0000 -0.0021 -0.0730
               ( 67.02%)  -0.8187* C  2 s( 41.46%)p 1.40( 58.17%)d 0.01(  0.38%)
                                         0.0000 -0.6436 -0.0191  0.0000  0.0000
                                         0.0000  0.0000 -0.7601 -0.0628  0.0000
                                         0.0000  0.0000 -0.0116 -0.0602
  18. (0.14658) BD*( 2) O  1- C  2
               ( 27.69%)   0.5262* O  1 s(  0.00%)p 1.00( 99.49%)d 0.01(  0.51%)
                                         0.0000  0.0000  0.0000 -0.9974 -0.0090
                                         0.0000  0.0000  0.0000  0.0000  0.0000
                                         0.0715  0.0000  0.0000  0.0000
               ( 72.31%)  -0.8504* C  2 s(  0.00%)p 1.00( 99.37%)d 0.01(  0.63%)
                                         0.0000  0.0000  0.0000 -0.9959  0.0431
                                         0.0000  0.0000  0.0000  0.0000  0.0000
                                        -0.0796  0.0000  0.0000  0.0000
  19. (0.10261) BD*( 1) C  2- F  3
               ( 74.65%)   0.8640* C  2 s( 29.20%)p 2.40( 70.12%)d 0.02(  0.67%)
                                         0.0000  0.5402 -0.0157  0.0000  0.0000
                                         0.7022  0.0349 -0.4543 -0.0232  0.0000
                                         0.0000 -0.0756 -0.0317 -0.0037
               ( 25.35%)  -0.5035* F  3 s( 28.02%)p 2.56( 71.71%)d 0.01(  0.27%)
                                         0.0000  0.5293 -0.0010  0.0000  0.0000
                                        -0.6857 -0.0033  0.4969  0.0018  0.0000
                                         0.0000 -0.0433 -0.0287 -0.0013
  20. (0.10261) BD*( 1) C  2- F  4
               ( 74.65%)   0.8640* C  2 s( 29.20%)p 2.40( 70.12%)d 0.02(  0.67%)
                                         0.0000  0.5402 -0.0157  0.0000  0.0000
                                        -0.7022 -0.0349 -0.4543 -0.0232  0.0000
                                         0.0000  0.0756 -0.0317 -0.0037
               ( 25.35%)  -0.5035* F  4 s( 28.02%)p 2.56( 71.71%)d 0.01(  0.27%)
                                         0.0000  0.5293 -0.0010  0.0000  0.0000
                                         0.6857  0.0033  0.4969  0.0018  0.0000
                                         0.0000  0.0433 -0.0287 -0.0013
  21. (0.00050) RY ( 1) O  1            s(  0.00%)p 1.00( 95.59%)d 0.05(  4.41%)
                                         0.0000  0.0000  0.0000  0.0000  0.0000
                                        -0.0181  0.9775  0.0000  0.0000  0.0000
                                         0.0000 -0.2100  0.0000  0.0000
  22. (0.00032) RY ( 2) O  1            s(  0.00%)p 1.00( 99.88%)d 0.00(  0.12%)
                                         0.0000  0.0000  0.0000 -0.0115  0.9993
                                         0.0000  0.0000  0.0000  0.0000  0.0000
                                        -0.0343  0.0000  0.0000  0.0000
  23. (0.00014) RY ( 3) O  1            s( 29.91%)p 0.73( 21.96%)d 1.61( 48.14%)
                                         0.0000  0.0147  0.5467  0.0000  0.0000
                                         0.0000  0.0000 -0.0478 -0.4661  0.0000
                                         0.0000  0.0000 -0.1711 -0.6724
  24. (0.00003) RY ( 4) O  1            s(  0.00%)p 1.00(  4.75%)d20.06( 95.25%)
  25. (0.00003) RY ( 5) O  1            s(  6.85%)p 7.97( 54.60%)d 5.63( 38.55%)
  26. (0.00003) RY ( 6) O  1            s(  0.00%)p 0.00(  0.00%)d 1.00(100.00%)
  27. (0.00001) RY ( 7) O  1            s( 35.74%)p 0.39( 14.07%)d 1.40( 50.19%)
  28. (0.00000) RY ( 8) O  1            s( 27.51%)p 0.36(  9.98%)d 2.27( 62.51%)
  29. (0.00000) RY ( 9) O  1            s(  0.00%)p 1.00(  0.63%)d99.99( 99.37%)
  30. (0.02080) RY ( 1) C  2            s(  2.56%)p35.89( 91.99%)d 2.13(  5.45%)
                                         0.0000 -0.0168  0.1592  0.0000  0.0000
                                         0.0000  0.0000 -0.0856  0.9553  0.0000
                                         0.0000  0.0000  0.1404  0.1865
  31. (0.01687) RY ( 2) C  2            s(  0.00%)p 1.00( 41.43%)d 1.41( 58.57%)
                                         0.0000  0.0000  0.0000  0.0000  0.0000
                                         0.1139 -0.6335  0.0000  0.0000  0.0000
                                         0.0000  0.7653  0.0000  0.0000
  32. (0.00516) RY ( 3) C  2            s(  0.00%)p 1.00( 10.99%)d 8.10( 89.01%)
                                         0.0000  0.0000  0.0000 -0.0613  0.3259
                                         0.0000  0.0000  0.0000  0.0000  0.0000
                                         0.9434  0.0000  0.0000  0.0000
  33. (0.00515) RY ( 4) C  2            s(  0.00%)p 1.00( 59.72%)d 0.67( 40.28%)
                                         0.0000  0.0000  0.0000  0.0000  0.0000
                                         0.0300  0.7722  0.0000  0.0000  0.0000
                                         0.0000  0.6347  0.0000  0.0000
  34. (0.00244) RY ( 5) C  2            s(  0.02%)p99.99(  5.89%)d99.99( 94.09%)
                                         0.0000  0.0114  0.0079  0.0000  0.0000
                                         0.0000  0.0000  0.0434  0.2389  0.0000
                                         0.0000  0.0000 -0.5121 -0.8238
  35. (0.00198) RY ( 6) C  2            s(  0.00%)p 0.00(  0.00%)d 1.00(100.00%)
                                         0.0000  0.0000  0.0000  0.0000  0.0000
                                         0.0000  0.0000  0.0000  0.0000  1.0000
                                         0.0000  0.0000  0.0000  0.0000
  36. (0.00069) RY ( 7) C  2            s( 96.39%)p 0.03(  2.56%)d 0.01(  1.05%)
                                         0.0000  0.0115  0.9817  0.0000  0.0000
                                         0.0000  0.0000 -0.0160 -0.1592  0.0000
                                         0.0000  0.0000  0.0661 -0.0786
  37. (0.00000) RY ( 8) C  2            s(  1.17%)p 0.00(  0.00%)d84.81( 98.83%)
  38. (0.00000) RY ( 9) C  2            s(  0.00%)p 1.00( 89.64%)d 0.12( 10.36%)
  39. (0.00045) RY ( 1) F  3            s( 66.64%)p 0.46( 30.52%)d 0.04(  2.84%)
                                         0.0000  0.0049  0.8163  0.0000  0.0000
                                        -0.0056  0.4074 -0.0012 -0.3732  0.0000
                                         0.0000  0.0543  0.0139  0.1589
  40. (0.00041) RY ( 2) F  3            s(  0.00%)p 1.00( 93.95%)d 0.06(  6.05%)
                                         0.0000  0.0000  0.0000  0.0044  0.9693
                                         0.0000  0.0000  0.0000  0.0000  0.0763
                                        -0.2337  0.0000  0.0000  0.0000
  41. (0.00015) RY ( 3) F  3            s(  0.48%)p99.99( 91.74%)d16.19(  7.78%)
                                         0.0000 -0.0035  0.0692  0.0000  0.0000
                                         0.0095 -0.6730  0.0011 -0.6815  0.0000
                                         0.0000 -0.0283 -0.1878 -0.2043
  42. (0.00005) RY ( 4) F  3            s(  5.24%)p 1.65(  8.63%)d16.43( 86.13%)
  43. (0.00004) RY ( 5) F  3            s(  6.39%)p 1.52(  9.74%)d13.13( 83.87%)
  44. (0.00002) RY ( 6) F  3            s(  0.00%)p 1.00(  1.62%)d60.69( 98.38%)
  45. (0.00000) RY ( 7) F  3            s( 19.08%)p 3.03( 57.86%)d 1.21( 23.06%)
  46. (0.00000) RY ( 8) F  3            s(  2.20%)p 0.87(  1.90%)d43.69( 95.90%)
  47. (0.00000) RY ( 9) F  3            s(  0.00%)p 1.00(  4.57%)d20.89( 95.43%)
  48. (0.00045) RY ( 1) F  4            s( 66.64%)p 0.46( 30.52%)d 0.04(  2.84%)
                                         0.0000  0.0049  0.8163  0.0000  0.0000
                                         0.0056 -0.4074 -0.0012 -0.3732  0.0000
                                         0.0000 -0.0543  0.0139  0.1589
  49. (0.00041) RY ( 2) F  4            s(  0.00%)p 1.00( 93.95%)d 0.06(  6.05%)
                                         0.0000  0.0000  0.0000  0.0044  0.9693
                                         0.0000  0.0000  0.0000  0.0000 -0.0763
                                        -0.2337  0.0000  0.0000  0.0000
  50. (0.00015) RY ( 3) F  4            s(  0.48%)p99.99( 91.74%)d16.19(  7.78%)
                                         0.0000 -0.0035  0.0692  0.0000  0.0000
                                        -0.0095  0.6730  0.0011 -0.6815  0.0000
                                         0.0000  0.0283 -0.1878 -0.2043
  51. (0.00005) RY ( 4) F  4            s(  5.24%)p 1.65(  8.63%)d16.43( 86.13%)
  52. (0.00004) RY ( 5) F  4            s(  6.39%)p 1.52(  9.74%)d13.13( 83.87%)
  53. (0.00002) RY ( 6) F  4            s(  0.00%)p 1.00(  1.62%)d60.69( 98.38%)
  54. (0.00000) RY ( 7) F  4            s( 19.08%)p 3.03( 57.86%)d 1.21( 23.06%)
  55. (0.00000) RY ( 8) F  4            s(  2.20%)p 0.87(  1.90%)d43.69( 95.90%)
  56. (0.00000) RY ( 9) F  4            s(  0.00%)p 1.00(  4.57%)d20.89( 95.43%)


 NHO DIRECTIONALITY AND BOND BENDING (deviation from line of nuclear centers at
                                      the position of maximum hybrid amplitude)

         [Thresholds for printing:  angular deviation  >  1.0 degree]
                                    p- or d-character  > 25.0%
                                    orbital occupancy  >  0.10e

                        Line of Centers        Hybrid 1             Hybrid 2
                        ---------------  -------------------  ------------------
           NBO            Theta   Phi    Theta   Phi    Dev   Theta   Phi    Dev
 ===============================================================================
   5. LP ( 1) O  1          --     --      0.0    0.0   --      --     --    --
   6. LP ( 2) O  1          --     --     90.7  270.0   --      --     --    --
   7. LP ( 1) F  3          --     --    128.3   90.0   --      --     --    --
   8. LP ( 2) F  3          --     --     36.2   90.0   --      --     --    --
   9. LP ( 3) F  3          --     --     89.8  180.2   --      --     --    --
  10. LP ( 1) F  4          --     --    128.3  270.0   --      --     --    --
  11. LP ( 2) F  4          --     --     36.2  270.0   --      --     --    --
  12. LP ( 3) F  4          --     --     89.8    0.2   --      --     --    --
  14. BD ( 2) O  1- C  2  180.0    0.0    90.9  180.0  89.1    86.9  180.0  86.9
  15. BD ( 1) C  2- F  3  126.2   90.0   124.0   90.0   2.3     --     --    --
  16. BD ( 1) C  2- F  4  126.2  270.0   124.0  270.0   2.3     --     --    --


 SECOND ORDER PERTURBATION THEORY ANALYSIS OF FOCK MATRIX IN NBO BASIS

     Threshold for printing:   0.50 kcal/mol
                                                          E(2) E(NL)-E(L) F(L,NL)
      Donor (L) NBO              Acceptor (NL) NBO      kcal/mol   a.u.    a.u.
 ===============================================================================

 within unit  1
    5. LP ( 1) O  1            19. BD*( 1) C  2- F  3      1.99    1.37   0.047
    5. LP ( 1) O  1            20. BD*( 1) C  2- F  4      1.99    1.37   0.047
    5. LP ( 1) O  1            30. RY ( 1) C  2           11.25    1.73   0.125
    6. LP ( 2) O  1            19. BD*( 1) C  2- F  3     49.61    0.98   0.197
    6. LP ( 2) O  1            20. BD*( 1) C  2- F  4     49.61    0.98   0.197
    6. LP ( 2) O  1            24. RY ( 4) O  1            1.82    2.72   0.063
    6. LP ( 2) O  1            31. RY ( 2) C  2            6.75    2.46   0.115
    6. LP ( 2) O  1            33. RY ( 4) C  2            5.45    2.04   0.094
    7. LP ( 1) F  3            17. BD*( 1) O  1- C  2      1.81    2.23   0.057
    7. LP ( 1) F  3            30. RY ( 1) C  2            2.25    2.14   0.062
    7. LP ( 1) F  3            31. RY ( 2) C  2            1.87    3.26   0.070
    7. LP ( 1) F  3            33. RY ( 4) C  2            1.35    2.84   0.055
    7. LP ( 1) F  3            36. RY ( 7) C  2            0.57    2.00   0.030
    8. LP ( 2) F  3            17. BD*( 1) O  1- C  2      9.46    1.66   0.112
    8. LP ( 2) F  3            20. BD*( 1) C  2- F  4     16.06    1.21   0.124
    8. LP ( 2) F  3            30. RY ( 1) C  2            1.36    1.56   0.041
    8. LP ( 2) F  3            34. RY ( 5) C  2            1.27    3.28   0.058
    9. LP ( 3) F  3            18. BD*( 2) O  1- C  2     42.89    0.85   0.171
    9. LP ( 3) F  3            32. RY ( 3) C  2            1.48    2.89   0.058
    9. LP ( 3) F  3            35. RY ( 6) C  2            1.74    2.85   0.063
   10. LP ( 1) F  4            17. BD*( 1) O  1- C  2      1.81    2.23   0.057
   10. LP ( 1) F  4            30. RY ( 1) C  2            2.25    2.14   0.062
   10. LP ( 1) F  4            31. RY ( 2) C  2            1.87    3.26   0.070
   10. LP ( 1) F  4            33. RY ( 4) C  2            1.35    2.84   0.055
   10. LP ( 1) F  4            36. RY ( 7) C  2            0.57    2.00   0.030
   11. LP ( 2) F  4            17. BD*( 1) O  1- C  2      9.46    1.66   0.112
   11. LP ( 2) F  4            19. BD*( 1) C  2- F  3     16.06    1.21   0.124
   11. LP ( 2) F  4            30. RY ( 1) C  2            1.36    1.56   0.041
   11. LP ( 2) F  4            34. RY ( 5) C  2            1.27    3.28   0.058
   12. LP ( 3) F  4            18. BD*( 2) O  1- C  2     42.89    0.85   0.171
   12. LP ( 3) F  4            32. RY ( 3) C  2            1.48    2.89   0.058
   12. LP ( 3) F  4            35. RY ( 6) C  2            1.74    2.85   0.063
   14. BD ( 2) O  1- C  2      18. BD*( 2) O  1- C  2      0.92    0.76   0.024
   14. BD ( 2) O  1- C  2      40. RY ( 2) F  3            0.58    2.16   0.032
   14. BD ( 2) O  1- C  2      49. RY ( 2) F  4            0.58    2.16   0.032
   15. BD ( 1) C  2- F  3      20. BD*( 1) C  2- F  4      3.28    1.77   0.068
   16. BD ( 1) C  2- F  4      19. BD*( 1) C  2- F  3      3.28    1.77   0.068


 NATURAL BOND ORBITALS (Summary):

                                                     Principal Delocalizations
           NBO                 Occupancy    Energy   (geminal,vicinal,remote)
 ===============================================================================
 Molecular unit  1  (CF2O)
 ------ Lewis --------------------------------------
    1. CR ( 1) O  1             1.99999   -20.62807
    2. CR ( 1) C  2             1.99999   -11.54640
    3. CR ( 1) F  3             1.99999   -26.38728
    4. CR ( 1) F  4             1.99999   -26.38728
    5. LP ( 1) O  1             1.98177    -0.88178  30(v),19(v),20(v)
    6. LP ( 2) O  1             1.83747    -0.48581  19(v),20(v),31(v),33(v)
                                                     24(g)
    7. LP ( 1) F  3             1.99061    -1.28556  30(v),31(v),17(v),33(v)
                                                     36(v)
    8. LP ( 2) F  3             1.96705    -0.71405  20(v),17(v),30(v),34(v)
    9. LP ( 3) F  3             1.92294    -0.70155  18(v),35(v),32(v)
   10. LP ( 1) F  4             1.99061    -1.28556  30(v),31(v),17(v),33(v)
                                                     36(v)
   11. LP ( 2) F  4             1.96705    -0.71405  19(v),17(v),30(v),34(v)
   12. LP ( 3) F  4             1.92294    -0.70155  18(v),35(v),32(v)
   13. BD ( 1) O  1- C  2       1.99950    -1.32224
   14. BD ( 2) O  1- C  2       1.99919    -0.61116  18(g),40(v),49(v)
   15. BD ( 1) C  2- F  3       1.99478    -1.28143  20(g)
   16. BD ( 1) C  2- F  4       1.99478    -1.28143  19(g)
 ------ non-Lewis ----------------------------------
   17. BD*( 1) O  1- C  2       0.02313     0.94797
   18. BD*( 2) O  1- C  2       0.14658     0.14994
   19. BD*( 1) C  2- F  3       0.10261     0.49129
   20. BD*( 1) C  2- F  4       0.10261     0.49129
   21. RY ( 1) O  1             0.00050     1.42595
   22. RY ( 2) O  1             0.00032     1.26226
   23. RY ( 3) O  1             0.00014     2.25410
   24. RY ( 4) O  1             0.00003     2.23331
   25. RY ( 5) O  1             0.00003     1.81490
   26. RY ( 6) O  1             0.00003     2.05640
   27. RY ( 7) O  1             0.00001     1.99305
   28. RY ( 8) O  1             0.00000     2.14193
   29. RY ( 9) O  1             0.00000     2.27568
   30. RY ( 1) C  2             0.02080     0.84947
   31. RY ( 2) C  2             0.01687     1.97315
   32. RY ( 3) C  2             0.00516     2.19327
   33. RY ( 4) C  2             0.00515     1.55905
   34. RY ( 5) C  2             0.00244     2.56536
   35. RY ( 6) C  2             0.00198     2.15211
   36. RY ( 7) C  2             0.00069     0.71630
   37. RY ( 8) C  2             0.00000     2.30629
   38. RY ( 9) C  2             0.00000     0.84242
   39. RY ( 1) F  3             0.00045     2.51542
   40. RY ( 2) F  3             0.00041     1.54949
   41. RY ( 3) F  3             0.00015     1.82276
   42. RY ( 4) F  3             0.00005     2.43427
   43. RY ( 5) F  3             0.00004     2.15264
   44. RY ( 6) F  3             0.00002     2.05557
   45. RY ( 7) F  3             0.00000     1.70299
   46. RY ( 8) F  3             0.00000     2.28725
   47. RY ( 9) F  3             0.00000     2.27947
   48. RY ( 1) F  4             0.00045     2.51542
   49. RY ( 2) F  4             0.00041     1.54949
   50. RY ( 3) F  4             0.00015     1.82276
   51. RY ( 4) F  4             0.00005     2.43427
   52. RY ( 5) F  4             0.00004     2.15264
   53. RY ( 6) F  4             0.00002     2.05557
   54. RY ( 7) F  4             0.00000     1.70299
   55. RY ( 8) F  4             0.00000     2.28725
   56. RY ( 9) F  4             0.00000     2.27947
          -------------------------------
                 Total Lewis   31.56868  ( 98.6521%)
           Valence non-Lewis    0.37492  (  1.1716%)
           Rydberg non-Lewis    0.05640  (  0.1763%)
          -------------------------------
               Total unit  1   32.00000  (100.0000%)
              Charge unit  1    0.00000

 $CHOOSE
   LONE 1 2 3 3 4 3 END
   BOND D 1 2 S 2 3 S 2 4 END
 $END

 NBO analysis completed in 0.89 CPU seconds (1 wall second)
 Maximum scratch memory used by NBO was 338941 words (2.59 MB)
 Maximum scratch memory used by G16NBO was 13196 words (0.10 MB)

 Opening RunExU unformatted file "/cluster/work/users/beto93/mol63/Gau-2207584.EUF"
 Read unf file /cluster/work/users/beto93/mol63/Gau-2207584.EUF:
 Label Gaussian matrix elements                                         IVers= 2 NLab= 2 Version=ES64L-G16RevC.01
 Title mol63-NBO                                                       
 NAtoms=     4 NBasis=    56 NBsUse=    56 ICharg=     0 Multip=     1 NE=    32 Len12L=8 Len4L=8 IOpCl= 0 ICGU=111
 GAUSSIAN SCALARS                    NI= 1 NR= 1 NTot=       1 LenBuf=    2 NRI=1 N=    1000
 NPA CHARGES                         NI= 0 NR= 1 NTot=       4 LenBuf= 4000 NRI=1 N=       4
 Recovered energy= -311.607556525     dipole=     -0.000000000000     -0.000000000000     -0.486016710131
 Unable to Open any file for archive entry.
 1\1\GINC-C2-23\SP\RHF\6-31G(d)\C1F2O1\BETO93\18-Nov-2024\0\\#RHF/6-31G
 * int=nobasistransform Symmetry=None 5D 7F Pop=NBO7Read\\mol63-NBO\\0,
 1\O,0,0.,0.,1.330715\C,0,0.,0.,0.144358\F,0,0.,1.06949,-0.639548\F,0,0
 .,-1.06949,-0.639548\\Version=ES64L-G16RevC.01\HF=-311.6075565\RMSD=2.
 978e-09\Dipole=0.,0.,-0.4860167\Quadrupole=1.9151285,-0.0917396,-1.823
 3889,0.,0.,0.\PG=Unknown\\@
 The archive entry for this job was punched.


 HE WHO LAUGHS LAST PROBABLY DIDN'T GET THE JOKE.
 Job cpu time:       0 days  0 hours  0 minutes 11.0 seconds.
 Elapsed time:       0 days  0 hours  0 minutes  3.6 seconds.
 File lengths (MBytes):  RWF=     10 Int=      0 D2E=      0 Chk=      1 Scr=      1
 Normal termination of Gaussian 16 at Mon Nov 18 16:40:43 2024.
