 Entering Gaussian System, Link 0=g16
 Initial command:
 /cluster/software/Gaussian/g16_C.01/l1.exe "/cluster/work/users/beto93/mol49/Gau-2110010.inp" -scrdir="/cluster/work/users/beto93/mol49/"
 Entering Link 1 = /cluster/software/Gaussian/g16_C.01/l1.exe PID=   2110011.
  
 Copyright (c) 1988-2019, Gaussian, Inc.  All Rights Reserved.
  
 This is part of the Gaussian(R) 16 program.  It is based on
 the Gaussian(R) 09 system (copyright 2009, Gaussian, Inc.),
 the Gaussian(R) 03 system (copyright 2003, Gaussian, Inc.),
 the Gaussian(R) 98 system (copyright 1998, Gaussian, Inc.),
 the Gaussian(R) 94 system (copyright 1995, Gaussian, Inc.),
 the Gaussian 92(TM) system (copyright 1992, Gaussian, Inc.),
 the Gaussian 90(TM) system (copyright 1990, Gaussian, Inc.),
 the Gaussian 88(TM) system (copyright 1988, Gaussian, Inc.),
 the Gaussian 86(TM) system (copyright 1986, Carnegie Mellon
 University), and the Gaussian 82(TM) system (copyright 1983,
 Carnegie Mellon University). Gaussian is a federally registered
 trademark of Gaussian, Inc.
  
 This software contains proprietary and confidential information,
 including trade secrets, belonging to Gaussian, Inc.
  
 This software is provided under written license and may be
 used, copied, transmitted, or stored only in accord with that
 written license.
  
 The following legend is applicable only to US Government
 contracts under FAR:
  
                    RESTRICTED RIGHTS LEGEND
  
 Use, reproduction and disclosure by the US Government is
 subject to restrictions as set forth in subparagraphs (a)
 and (c) of the Commercial Computer Software - Restricted
 Rights clause in FAR 52.227-19.
  
 Gaussian, Inc.
 340 Quinnipiac St., Bldg. 40, Wallingford CT 06492
  
  
 ---------------------------------------------------------------
 Warning -- This program may not be used in any manner that
 competes with the business of Gaussian, Inc. or will provide
 assistance to any competitor of Gaussian, Inc.  The licensee
 of this program is prohibited from giving any competitor of
 Gaussian, Inc. access to this program.  By using this program,
 the user acknowledges that Gaussian, Inc. is engaged in the
 business of creating and licensing software in the field of
 computational chemistry and represents and warrants to the
 licensee that it is not a competitor of Gaussian, Inc. and that
 it will not use this program in any manner prohibited above.
 ---------------------------------------------------------------
  

 Cite this work as:
 Gaussian 16, Revision C.01,
 M. J. Frisch, G. W. Trucks, H. B. Schlegel, G. E. Scuseria, 
 M. A. Robb, J. R. Cheeseman, G. Scalmani, V. Barone, 
 G. A. Petersson, H. Nakatsuji, X. Li, M. Caricato, A. V. Marenich, 
 J. Bloino, B. G. Janesko, R. Gomperts, B. Mennucci, H. P. Hratchian, 
 J. V. Ortiz, A. F. Izmaylov, J. L. Sonnenberg, D. Williams-Young, 
 F. Ding, F. Lipparini, F. Egidi, J. Goings, B. Peng, A. Petrone, 
 T. Henderson, D. Ranasinghe, V. G. Zakrzewski, J. Gao, N. Rega, 
 G. Zheng, W. Liang, M. Hada, M. Ehara, K. Toyota, R. Fukuda, 
 J. Hasegawa, M. Ishida, T. Nakajima, Y. Honda, O. Kitao, H. Nakai, 
 T. Vreven, K. Throssell, J. A. Montgomery, Jr., J. E. Peralta, 
 F. Ogliaro, M. J. Bearpark, J. J. Heyd, E. N. Brothers, K. N. Kudin, 
 V. N. Staroverov, T. A. Keith, R. Kobayashi, J. Normand, 
 K. Raghavachari, A. P. Rendell, J. C. Burant, S. S. Iyengar, 
 J. Tomasi, M. Cossi, J. M. Millam, M. Klene, C. Adamo, R. Cammi, 
 J. W. Ochterski, R. L. Martin, K. Morokuma, O. Farkas, 
 J. B. Foresman, and D. J. Fox, Gaussian, Inc., Wallingford CT, 2019.
 
 ******************************************
 Gaussian 16:  ES64L-G16RevC.01  3-Jul-2019
                18-Nov-2024 
 ******************************************
 %LindaWorkers=c1-49-ib
 %NProcShared=4
 Will use up to    4 processors via shared memory.
 %mem=25GB
 %chk=mol49.chk
 SetLPE:    new flags="-opt 'Tsnet.Node.lindarsharg: ssh'  -nodelist 'c1-49-ib.saga' -env GAUSS_MDEF=3355443200 -env GAUSS_EXEDIR="/cluster/software/Gaussian/g16_C.01/bsd:/cluster/software/Gaussian/g16_C.01""
 Will use up to    1 processors via Linda.
 -----------------------------------------------------------------
 #RHF/6-31G* int=nobasistransform Symmetry=None 5D 7F Pop=NBO7Read
 -----------------------------------------------------------------
 1/38=1,163=2,172=1/1;
 2/12=2,15=3,17=6,18=5,40=1/2;
 3/5=1,6=6,7=1,8=11,11=1,25=1,30=1,60=-1,116=1/1,2,3;
 4//1;
 5/5=2,38=5/2;
 6/7=2,8=2,9=2,10=2,28=1,40=2,113=1,114=1,124=2103/1,12;
 99/5=1,9=1/99;
 ---------
 mol49-NBO
 ---------
 Symbolic Z-matrix:
 Charge =  0 Multiplicity = 1
 F                     0.        0.       -1.08479 
 Cl                    0.        0.        0.5743 
 
                          Input orientation:                          
 ---------------------------------------------------------------------
 Center     Atomic      Atomic             Coordinates (Angstroms)
 Number     Number       Type             X           Y           Z
 ---------------------------------------------------------------------
      1          9           0        0.000000    0.000000   -1.084794
      2         17           0        0.000000    0.000000    0.574302
 ---------------------------------------------------------------------
 Symmetry turned off by external request.
 Stoichiometry    ClF
 Rotational constants (GHZ):           0.0000000          14.9144079          14.9144079
 Standard basis: 6-31G(d) (5D, 7F)
    32 basis functions,    80 primitive gaussians,    34 cartesian basis functions
    13 alpha electrons       13 beta electrons
       nuclear repulsion energy        48.8001377080 Hartrees.
 NAtoms=    2 NActive=    2 NUniq=    2 SFac= 1.00D+00 NAtFMM=   60 NAOKFM=F Big=F
 Integral buffers will be    131072 words long.
 Raffenetti 1 integral format.
 Two-electron integral symmetry is turned off.
 One-electron integrals computed using PRISM.
 NBasis=    32 RedAO= T EigKep=  7.92D-02  NBF=    32
 NBsUse=    32 1.00D-06 EigRej= -1.00D+00 NBFU=    32
 ExpMin= 1.43D-01 ExpMax= 2.52D+04 ExpMxC= 3.78D+03 IAcc=3 IRadAn=         5 AccDes= 0.00D+00
 Harris functional with IExCor=  205 and IRadAn=       5 diagonalized for initial guess.
 HarFok:  IExCor=  205 AccDes= 0.00D+00 IRadAn=         5 IDoV= 1 UseB2=F ITyADJ=14
 ICtDFT=  3500011 ScaDFX=  1.000000  1.000000  1.000000  1.000000
 FoFCou: FMM=F IPFlag=           0 FMFlag=      100000 FMFlg1=           0
         NFxFlg=           0 DoJE=T BraDBF=F KetDBF=T FulRan=T
         wScrn=  0.000000 ICntrl=       500 IOpCl=  0 I1Cent=   200000004 NGrid=           0
         NMat0=    1 NMatS0=      1 NMatT0=    0 NMatD0=    1 NMtDS0=    0 NMtDT0=    0
 Symmetry not used in FoFCou.
 Keep R1 ints in memory in canonical form, NReq=969085.
 Requested convergence on RMS density matrix=1.00D-08 within 128 cycles.
 Requested convergence on MAX density matrix=1.00D-06.
 Requested convergence on             energy=1.00D-06.
 No special actions if energy rises.
 SCF Done:  E(RHF) =  -558.815295643     A.U. after   10 cycles
            NFock= 10  Conv=0.51D-08     -V/T= 2.0002

 **********************************************************************

            Population analysis using the SCF Density.

 **********************************************************************

 Alpha  occ. eigenvalues -- -104.92125 -26.35090 -10.65073  -8.12011  -8.11458
 Alpha  occ. eigenvalues --   -8.11458  -1.61837  -1.10250  -0.70883  -0.70883
 Alpha  occ. eigenvalues --   -0.67953  -0.49198  -0.49198
 Alpha virt. eigenvalues --    0.06364   0.50030   0.58408   0.59664   0.59664
 Alpha virt. eigenvalues --    1.01432   1.01432   1.08701   1.08701   1.20090
 Alpha virt. eigenvalues --    1.55753   1.55753   1.57147   2.03944   2.11494
 Alpha virt. eigenvalues --    2.11494   2.21618   2.21618   2.85066
          Condensed to atoms (all electrons):
               1          2
     1  F    9.314026   0.067563
     2  Cl   0.067563  16.550848
 Mulliken charges:
               1
     1  F   -0.381589
     2  Cl   0.381589
 Sum of Mulliken charges =   0.00000
 Mulliken charges with hydrogens summed into heavy atoms:
               1
     1  F   -0.381589
     2  Cl   0.381589
 Electronic spatial extent (au):  <R**2>=             95.1786
 Charge=              0.0000 electrons
 Dipole moment (field-independent basis, Debye):
    X=             -0.0000    Y=              0.0000    Z=              1.3359  Tot=              1.3359
 Quadrupole moment (field-independent basis, Debye-Ang):
   XX=            -17.2277   YY=            -17.2277   ZZ=            -15.7609
   XY=              0.0000   XZ=             -0.0000   YZ=              0.0000
 Traceless Quadrupole moment (field-independent basis, Debye-Ang):
   XX=             -0.4889   YY=             -0.4889   ZZ=              0.9779
   XY=              0.0000   XZ=             -0.0000   YZ=              0.0000
 Octapole moment (field-independent basis, Debye-Ang**2):
  XXX=             -0.0000  YYY=              0.0000  ZZZ=             -1.3820  XYY=              0.0000
  XXY=              0.0000  XXZ=             -2.2386  XZZ=             -0.0000  YZZ=             -0.0000
  YYZ=             -2.2386  XYZ=             -0.0000
 Hexadecapole moment (field-independent basis, Debye-Ang**3):
 XXXX=            -16.0447 YYYY=            -16.0447 ZZZZ=            -63.0967 XXXY=             -0.0000
 XXXZ=             -0.0000 YYYX=             -0.0000 YYYZ=              0.0000 ZZZX=              0.0000
 ZZZY=              0.0000 XXYY=             -5.3482 XXZZ=            -14.5666 YYZZ=            -14.5666
 XXYZ=              0.0000 YYXZ=              0.0000 ZZXY=              0.0000
 N-N= 4.880013770798D+01 E-N=-1.429798512586D+03  KE= 5.587159285608D+02
 Running external command "gaunbo7 R"
         input file       "/cluster/work/users/beto93/mol49/Gau-2110011.EIn"
         output file      "/cluster/work/users/beto93/mol49/Gau-2110011.EOu"
         message file     "/cluster/work/users/beto93/mol49/Gau-2110011.EMs"
         fchk file        "/cluster/work/users/beto93/mol49/Gau-2110011.EFC"
         mat. el file     "/cluster/work/users/beto93/mol49/Gau-2110011.EUF"

 Writing WrtUnf unformatted file "/cluster/work/users/beto93/mol49/Gau-2110011.EUF"
 Gaussian matrix elements                                         Version   2 NLab=11 Len12L=8 Len4L=8
 Write SHELL TO ATOM MAP                   from file      0 offset           0 length                   9 to matrix element file.
 Write SHELL TYPES                         from file      0 offset           0 length                   9 to matrix element file.
 Write NUMBER OF PRIMITIVES PER SHELL      from file      0 offset           0 length                   9 to matrix element file.
 Write PRIMITIVE EXPONENTS                 from file      0 offset           0 length                  28 to matrix element file.
 Write CONTRACTION COEFFICIENTS            from file      0 offset           0 length                  28 to matrix element file.
 Write P(S=P) CONTRACTION COEFFICIENTS     from file      0 offset           0 length                  28 to matrix element file.
 Write COORDINATES OF EACH SHELL           from file      0 offset           0 length                  27 to matrix element file.
 Write BONDS PER ATOM                      from file      0 offset           0 length                   2 to matrix element file.
 Write BONDED ATOMS                        from file      0 offset           0 length                   2 to matrix element file.
 Write BOND TYPES                          from file      0 offset           0 length                   2 to matrix element file.
 Write ONIOM CHARGE/MULT                   from file      0 offset           0 length                  32 to matrix element file.
 Write ONIOM ATOM LAYERS                   from file      0 offset           0 length                   2 to matrix element file.
 Write ONIOM ATOM MODIFIERS                from file      0 offset           0 length                   2 to matrix element file.
 Write ONIOM ATOM TYPES                    from file      0 offset           0 length                   2 to matrix element file.
 Write ONIOM LINK ATOMS                    from file      0 offset           0 length                   2 to matrix element file.
 Write ONIOM LINK CHARGES                  from file      0 offset           0 length                   2 to matrix element file.
 Write ONIOM LINK DISTANCES                from file      0 offset           0 length                   8 to matrix element file.
 Write SYMINF INTS                         from file      0 offset           0 length                  26 to matrix element file.
 Write ROTTR TO SO                         from file      0 offset           0 length                  12 to matrix element file.
 Write GAUSSIAN SCALARS                    from file    501 offset           0 to matrix element file.
 Write OPTIMIZATION FLAGS                  from file      0 offset           0 length                   2 to matrix element file.
 Write INTEGER ISO                         from file      0 offset           0 length                   2 to matrix element file.
 Write INTEGER SPIN                        from file      0 offset           0 length                   2 to matrix element file.
 Write REAL ZEFFECTIVE                     from file      0 offset           0 length                   2 to matrix element file.
 Write REAL QUADRUPOLEMOMENT               from file      0 offset           0 length                   2 to matrix element file.
 Write REAL GFACTOR                        from file      0 offset           0 length                   2 to matrix element file.
 Write REAL ZNUCLEAR                       from file      0 offset           0 length                   2 to matrix element file.
 Write MULLIKEN CHARGES                    from file      0 offset           0 length                   2 to matrix element file.
 Write NUCLEAR GRADIENT                    from file  10584 offset           0 length                   6 to matrix element file.
 Array NUCLEAR FORCE CONSTANTS              on  file  10585 does not exist.
 Write ELECTRIC DIPOLE MOMENT              from file      0 offset           0 length                   3 to matrix element file.
 Write NON-ADIABATIC COUPLING              from file  10810 offset           0 length                   6 to matrix element file.
 Write FINITE EM FIELD                     from file  10521 offset           0 length                  35 to matrix element file.
 Write OVERLAP                             from file  10514 offset           0 length                 528 to matrix element file.
 Write CORE HAMILTONIAN ALPHA              from file  10515 offset           0 length                 528 to matrix element file.
 Write CORE HAMILTONIAN BETA               from file  10515 offset         528 length                 528 to matrix element file.
 Write KINETIC ENERGY                      from file  10516 offset           0 length                 528 to matrix element file.
 Write ORTHOGONAL BASIS                    from file  10685 offset           0 length                1024 to matrix element file.
 Write DIPOLE INTEGRALS                    from file  10518 offset           0 length                1584 to matrix element file.
 Array DIP VEL INTEGRALS                    on  file  10572 does not exist.
 Array R X DEL INTEGRALS                    on  file  10572 does not exist.
 Write ALPHA ORBITAL ENERGIES              from file      0 offset           0 length                  32 to matrix element file.
 Write ALPHA MO COEFFICIENTS               from file  10524 offset           0 length                1024 to matrix element file.
 Write ALPHA DENSITY MATRIX                from file      0 offset           0 length                 528 to matrix element file.
 Write ALPHA FOCK MATRIX                   from file  10536 offset           0 length                 528 to matrix element file.
 Write ENERGY-WEIGHTED DENSITY             from file  10571 offset           0 length                 528 to matrix element file.
 Write ALPHA SCF DENSITY MATRIX            from file      0 offset           0 length                 528 to matrix element file.
 No 2e integrals to process.
 Perform NBO analysis...executing G16NBO...

 *********************************** NBO 7.0 ***********************************
             N A T U R A L   A T O M I C   O R B I T A L   A N D
          N A T U R A L   B O N D   O R B I T A L   A N A L Y S I S
 **************************** Espen Tangen (S101595) ***************************
  (c) Copyright 1996-2021 Board of Regents of the University of Wisconsin System
      on behalf of the Theoretical Chemistry Institute.  All rights reserved.

          Cite this program [NBO 7.0.10 (8-Feb-2021)] as:

          NBO 7.0.  E. D. Glendening, J. K. Badenhoop, A. E. Reed,
          J. E. Carpenter, J. A. Bohmann, C. M. Morales, P. Karafiloglou,
          C. R. Landis, and F. Weinhold, Theoretical Chemistry Institute,
          University of Wisconsin, Madison, WI (2018)

       /NPA    / : Natural Population Analysis
       /AOPNAO / : Print the AO to PNAO transformation
       /AONAO  / : Print the AO to NAO transformation
       /AOMO   / : Print the MOs in the AO basis
       /BOAO   / : Print the AO bond-order matrix
       /DMAO   / : Print the AO density matrix
       /DMPNAO / : Print the PNAO density matrix
       /DMNAO  / : Print the NAO density matrix
       /DMMO   / : Print the MO density matrix
       /SAO    / : Print the AO overlap matrix
       /SPNAO  / : Print the PNAO overlap matrix
       /DETAIL / : Write details of NBO search
       /ARCHIVE/ : Write the archive file to lfn47
       /AOINFO / : Write AO information to lfn31
       /FILE   / : Set to mol49.gen*

 Filename set to mol49.gen1

 Job title: mol49-NBO


 MOs in the AO basis:

           AO          1       2       3       4       5       6       7       8
      ------------ ------- ------- ------- ------- ------- ------- ------- -------
   1.  F 1 (s)      0.0000  0.9956  0.0000  0.0000  0.0000  0.0000 -0.2283  0.0685
   2.  F 1 (s)     -0.0002  0.0215  0.0005 -0.0008  0.0000  0.0000  0.4925 -0.1571
   3.  F 1 (px)     0.0000  0.0000  0.0000  0.0000  0.0000  0.0000  0.0000  0.0000
   4.  F 1 (py)     0.0000  0.0000  0.0000  0.0000  0.0000  0.0000  0.0000  0.0000
   5.  F 1 (pz)    -0.0001  0.0012  0.0004 -0.0005  0.0000  0.0000  0.0444  0.1537
   6.  F 1 (s)      0.0001 -0.0063 -0.0006  0.0013  0.0000  0.0000  0.5399 -0.2011
   7.  F 1 (px)     0.0000  0.0000  0.0000  0.0000  0.0000  0.0000  0.0000  0.0000
   8.  F 1 (py)     0.0000  0.0000  0.0000  0.0000  0.0000  0.0000  0.0000  0.0000
   9.  F 1 (pz)     0.0004 -0.0017 -0.0013  0.0027  0.0000  0.0000  0.0518  0.0923
  10.  F 1 (d5)     0.0004 -0.0006 -0.0008  0.0014  0.0000  0.0000  0.0161  0.0145
  11.  F 1 (d2)     0.0000  0.0000  0.0000  0.0000 -0.0002 -0.0003  0.0000  0.0000
  12.  F 1 (d3)     0.0000  0.0000  0.0000  0.0000 -0.0003  0.0002  0.0000  0.0000
  13.  F 1 (d4)     0.0000  0.0000  0.0000  0.0000  0.0000  0.0000  0.0000  0.0000
  14.  F 1 (d1)     0.0000  0.0000  0.0000  0.0000  0.0000  0.0000  0.0000  0.0000
  15. Cl 2 (s)      0.9965  0.0000 -0.2869 -0.0020  0.0000  0.0000  0.0176  0.0789
  16. Cl 2 (s)      0.0126 -0.0001  1.0312  0.0075  0.0000  0.0000 -0.0787 -0.3568
  17. Cl 2 (px)     0.0000  0.0000  0.0000  0.0000  0.6053  0.7883  0.0000  0.0000
  18. Cl 2 (py)     0.0000  0.0000  0.0000  0.0000  0.7883 -0.6053  0.0000  0.0000
  19. Cl 2 (pz)    -0.0001  0.0001 -0.0064  0.9924  0.0000  0.0000  0.0388 -0.0033
  20. Cl 2 (s)     -0.0038 -0.0001  0.0217 -0.0013  0.0000  0.0000  0.1528  0.7356
  21. Cl 2 (px)     0.0000  0.0000  0.0000  0.0000  0.0118  0.0154  0.0000  0.0000
  22. Cl 2 (py)     0.0000  0.0000  0.0000  0.0000  0.0154 -0.0118  0.0000  0.0000
  23. Cl 2 (pz)     0.0003 -0.0007 -0.0015  0.0242  0.0000  0.0000 -0.0769  0.0116
  24. Cl 2 (s)      0.0017  0.0017 -0.0051 -0.0007  0.0000  0.0000  0.0171  0.2864
  25. Cl 2 (px)     0.0000  0.0000  0.0000  0.0000 -0.0025 -0.0033  0.0000  0.0000
  26. Cl 2 (py)     0.0000  0.0000  0.0000  0.0000 -0.0033  0.0025  0.0000  0.0000
  27. Cl 2 (pz)     0.0000 -0.0014  0.0001 -0.0049  0.0000  0.0000  0.0123  0.0163
  28. Cl 2 (d5)    -0.0002  0.0008  0.0009 -0.0016  0.0000  0.0000  0.0217  0.0017
  29. Cl 2 (d2)     0.0000  0.0000  0.0000  0.0000 -0.0003 -0.0004  0.0000  0.0000
  30. Cl 2 (d3)     0.0000  0.0000  0.0000  0.0000 -0.0004  0.0003  0.0000  0.0000
  31. Cl 2 (d4)     0.0000  0.0000  0.0000  0.0000  0.0000  0.0000  0.0000  0.0000
  32. Cl 2 (d1)     0.0000  0.0000  0.0000  0.0000  0.0000  0.0000  0.0000  0.0000

           AO          9      10      11      12      13      14      15      16
      ------------ ------- ------- ------- ------- ------- ------- ------- -------
   1.  F 1 (s)      0.0000  0.0000  0.0303  0.0000  0.0000 -0.0527  0.0227 -0.0058
   2.  F 1 (s)      0.0000  0.0000 -0.0894  0.0000  0.0000  0.0899 -0.0176 -0.0670
   3.  F 1 (px)    -0.2466  0.5695  0.0000 -0.0011 -0.2602  0.0000  0.0000  0.0000
   4.  F 1 (py)     0.5695  0.2466  0.0000 -0.2602  0.0011  0.0000  0.0000  0.0000
   5.  F 1 (pz)     0.0000  0.0000  0.4813  0.0000  0.0000  0.3741  0.0760 -0.2200
   6.  F 1 (s)      0.0000  0.0000 -0.0707  0.0000  0.0000  0.4342 -0.3862  0.4789
   7.  F 1 (px)    -0.1726  0.3986  0.0000 -0.0009 -0.2102  0.0000  0.0000  0.0000
   8.  F 1 (py)     0.3986  0.1726  0.0000 -0.2102  0.0009  0.0000  0.0000  0.0000
   9.  F 1 (pz)     0.0000  0.0000  0.3786  0.0000  0.0000  0.4482 -0.1731  0.0733
  10.  F 1 (d5)     0.0000  0.0000  0.0363  0.0000  0.0000  0.0037 -0.0632  0.0770
  11.  F 1 (d2)    -0.0098  0.0225  0.0000  0.0000  0.0015  0.0000  0.0000  0.0000
  12.  F 1 (d3)     0.0225  0.0098  0.0000  0.0015  0.0000  0.0000  0.0000  0.0000
  13.  F 1 (d4)     0.0000  0.0000  0.0000  0.0000  0.0000  0.0000  0.0000  0.0000
  14.  F 1 (d1)     0.0000  0.0000  0.0000  0.0000  0.0000  0.0000  0.0000  0.0000
  15. Cl 2 (s)      0.0000  0.0000 -0.0200  0.0000  0.0000 -0.0197 -0.0755 -0.0037
  16. Cl 2 (s)      0.0000  0.0000  0.0946  0.0000  0.0000  0.0906  0.1115  0.0177
  17. Cl 2 (px)     0.0361 -0.0833  0.0000 -0.0012 -0.2757  0.0000  0.0000  0.0000
  18. Cl 2 (py)    -0.0833 -0.0361  0.0000 -0.2757  0.0012  0.0000  0.0000  0.0000
  19. Cl 2 (pz)     0.0000  0.0000  0.1720  0.0000  0.0000 -0.2077  0.0131  0.2992
  20. Cl 2 (s)      0.0000  0.0000 -0.1873  0.0000  0.0000 -0.2077 -1.6501 -0.0474
  21. Cl 2 (px)    -0.0914  0.2110  0.0000  0.0031  0.7318  0.0000  0.0000  0.0000
  22. Cl 2 (py)     0.2110  0.0914  0.0000  0.7318 -0.0031  0.0000  0.0000  0.0000
  23. Cl 2 (pz)     0.0000  0.0000 -0.4233  0.0000  0.0000  0.5342 -0.0317 -1.1496
  24. Cl 2 (s)      0.0000  0.0000 -0.1897  0.0000  0.0000 -0.2036  1.9094 -0.0648
  25. Cl 2 (px)    -0.0411  0.0949  0.0000  0.0015  0.3639  0.0000  0.0000  0.0000
  26. Cl 2 (py)     0.0949  0.0411  0.0000  0.3639 -0.0015  0.0000  0.0000  0.0000
  27. Cl 2 (pz)     0.0000  0.0000 -0.1007  0.0000  0.0000  0.6932 -0.2430  1.3572
  28. Cl 2 (d5)     0.0000  0.0000  0.0583  0.0000  0.0000  0.0935 -0.0807  0.0441
  29. Cl 2 (d2)     0.0120 -0.0276  0.0000  0.0001  0.0141  0.0000  0.0000  0.0000
  30. Cl 2 (d3)    -0.0276 -0.0120  0.0000  0.0141 -0.0001  0.0000  0.0000  0.0000
  31. Cl 2 (d4)     0.0000  0.0000  0.0000  0.0000  0.0000  0.0000  0.0000  0.0000
  32. Cl 2 (d1)     0.0000  0.0000  0.0000  0.0000  0.0000  0.0000  0.0000  0.0000

           AO         17      18      19      20      21      22      23      24
      ------------ ------- ------- ------- ------- ------- ------- ------- -------
   1.  F 1 (s)      0.0000  0.0000  0.0000  0.0000  0.0000  0.0000  0.0693  0.0000
   2.  F 1 (s)      0.0000  0.0000  0.0000  0.0000  0.0000  0.0000 -0.4436  0.0000
   3.  F 1 (px)    -0.0359 -0.0292  0.2062  0.2370  0.0000  0.0000  0.0000 -0.8809
   4.  F 1 (py)     0.0292 -0.0359  0.2370 -0.2062  0.0000  0.0000  0.0000 -0.0731
   5.  F 1 (pz)     0.0000  0.0000  0.0000  0.0000  0.0000  0.0000 -0.1267  0.0000
   6.  F 1 (s)      0.0000  0.0000  0.0000  0.0000  0.0000  0.0000  0.0910  0.0000
   7.  F 1 (px)    -0.0858 -0.0699 -0.1432 -0.1646  0.0000  0.0000  0.0000  1.0807
   8.  F 1 (py)     0.0699 -0.0858 -0.1646  0.1432  0.0000  0.0000  0.0000  0.0896
   9.  F 1 (pz)     0.0000  0.0000  0.0000  0.0000  0.0000  0.0000 -0.2377  0.0000
  10.  F 1 (d5)     0.0000  0.0000  0.0000  0.0000  0.0000  0.0000  0.0897  0.0000
  11.  F 1 (d2)    -0.0251 -0.0204 -0.1117 -0.1283  0.0000  0.0000  0.0000 -0.1561
  12.  F 1 (d3)     0.0204 -0.0251 -0.1283  0.1117  0.0000  0.0000  0.0000 -0.0129
  13.  F 1 (d4)     0.0000  0.0000  0.0000  0.0000  0.0414  0.0197  0.0000  0.0000
  14.  F 1 (d1)     0.0000  0.0000  0.0000  0.0000 -0.0197  0.0414  0.0000  0.0000
  15. Cl 2 (s)      0.0000  0.0000  0.0000  0.0000  0.0000  0.0000 -0.0085  0.0000
  16. Cl 2 (s)      0.0000  0.0000  0.0000  0.0000  0.0000  0.0000  0.0005  0.0000
  17. Cl 2 (px)     0.2229  0.1814 -0.0141 -0.0162  0.0000  0.0000  0.0000 -0.0107
  18. Cl 2 (py)    -0.1814  0.2229 -0.0162  0.0141  0.0000  0.0000  0.0000 -0.0009
  19. Cl 2 (pz)     0.0000  0.0000  0.0000  0.0000  0.0000  0.0000 -0.0279  0.0000
  20. Cl 2 (s)      0.0000  0.0000  0.0000  0.0000  0.0000  0.0000 -0.2346  0.0000
  21. Cl 2 (px)    -0.8816 -0.7175  0.0517  0.0594  0.0000  0.0000  0.0000  0.0619
  22. Cl 2 (py)     0.7175 -0.8816  0.0594 -0.0517  0.0000  0.0000  0.0000  0.0051
  23. Cl 2 (pz)     0.0000  0.0000  0.0000  0.0000  0.0000  0.0000  0.1373  0.0000
  24. Cl 2 (s)      0.0000  0.0000  0.0000  0.0000  0.0000  0.0000  0.3648  0.0000
  25. Cl 2 (px)     0.9895  0.8053 -0.0179 -0.0205  0.0000  0.0000  0.0000 -0.2486
  26. Cl 2 (py)    -0.8053  0.9895 -0.0205  0.0179  0.0000  0.0000  0.0000 -0.0206
  27. Cl 2 (pz)     0.0000  0.0000  0.0000  0.0000  0.0000  0.0000 -0.3402  0.0000
  28. Cl 2 (d5)     0.0000  0.0000  0.0000  0.0000  0.0000  0.0000  0.9298  0.0000
  29. Cl 2 (d2)     0.0421  0.0343  0.5892  0.6769  0.0000  0.0000  0.0000  0.3204
  30. Cl 2 (d3)    -0.0343  0.0421  0.6769 -0.5892  0.0000  0.0000  0.0000  0.0266
  31. Cl 2 (d4)     0.0000  0.0000  0.0000  0.0000  0.9010  0.4291  0.0000  0.0000
  32. Cl 2 (d1)     0.0000  0.0000  0.0000  0.0000 -0.4291  0.9010  0.0000  0.0000

           AO         25      26      27      28      29      30      31      32
      ------------ ------- ------- ------- ------- ------- ------- ------- -------
   1.  F 1 (s)      0.0000 -0.0472  0.0675  0.0000  0.0000  0.0000  0.0000  0.0266
   2.  F 1 (s)      0.0000  0.5591 -1.2027  0.0000  0.0000  0.0000  0.0000 -0.9381
   3.  F 1 (px)     0.0731  0.0000  0.0000  0.0000  0.0000 -0.1197 -0.0425  0.0000
   4.  F 1 (py)    -0.8809  0.0000  0.0000  0.0000  0.0000  0.0425 -0.1197  0.0000
   5.  F 1 (pz)     0.0000 -0.8666 -0.2326  0.0000  0.0000  0.0000  0.0000 -0.3977
   6.  F 1 (s)      0.0000 -0.5683  1.6184  0.0000  0.0000  0.0000  0.0000  1.4174
   7.  F 1 (px)    -0.0896  0.0000  0.0000  0.0000  0.0000  0.1802  0.0640  0.0000
   8.  F 1 (py)     1.0807  0.0000  0.0000  0.0000  0.0000 -0.0640  0.1802  0.0000
   9.  F 1 (pz)     0.0000  1.0014  0.5460  0.0000  0.0000  0.0000  0.0000  1.0227
  10.  F 1 (d5)     0.0000 -0.1267 -0.5972  0.0000  0.0000  0.0000  0.0000  0.9376
  11.  F 1 (d2)     0.0129  0.0000  0.0000  0.0000  0.0000  0.9353  0.3321  0.0000
  12.  F 1 (d3)    -0.1561  0.0000  0.0000  0.0000  0.0000 -0.3321  0.9353  0.0000
  13.  F 1 (d4)     0.0000  0.0000  0.0000  0.6496  0.7592  0.0000  0.0000  0.0000
  14.  F 1 (d1)     0.0000  0.0000  0.0000  0.7592 -0.6496  0.0000  0.0000  0.0000
  15. Cl 2 (s)      0.0000 -0.0097  0.0097  0.0000  0.0000  0.0000  0.0000 -0.0207
  16. Cl 2 (s)      0.0000  0.0139  0.0142  0.0000  0.0000  0.0000  0.0000  0.1066
  17. Cl 2 (px)     0.0009  0.0000  0.0000  0.0000  0.0000  0.0238  0.0084  0.0000
  18. Cl 2 (py)    -0.0107  0.0000  0.0000  0.0000  0.0000 -0.0084  0.0238  0.0000
  19. Cl 2 (pz)     0.0000 -0.0464  0.0205  0.0000  0.0000  0.0000  0.0000 -0.1647
  20. Cl 2 (s)      0.0000 -0.2372  0.3048  0.0000  0.0000  0.0000  0.0000 -0.2475
  21. Cl 2 (px)    -0.0051  0.0000  0.0000  0.0000  0.0000 -0.0614 -0.0218  0.0000
  22. Cl 2 (py)     0.0619  0.0000  0.0000  0.0000  0.0000  0.0218 -0.0614  0.0000
  23. Cl 2 (pz)     0.0000  0.2688 -0.0844  0.0000  0.0000  0.0000  0.0000  0.6947
  24. Cl 2 (s)      0.0000  0.0607 -0.6976  0.0000  0.0000  0.0000  0.0000 -0.5028
  25. Cl 2 (px)     0.0206  0.0000  0.0000  0.0000  0.0000 -0.1089 -0.0387  0.0000
  26. Cl 2 (py)    -0.2486  0.0000  0.0000  0.0000  0.0000  0.0387 -0.1089  0.0000
  27. Cl 2 (pz)     0.0000 -0.1405  0.6077  0.0000  0.0000  0.0000  0.0000  0.2812
  28. Cl 2 (d5)     0.0000  0.0850 -0.2019  0.0000  0.0000  0.0000  0.0000 -0.6940
  29. Cl 2 (d2)    -0.0266  0.0000  0.0000  0.0000  0.0000  0.3489  0.1239  0.0000
  30. Cl 2 (d3)     0.3204  0.0000  0.0000  0.0000  0.0000 -0.1239  0.3489  0.0000
  31. Cl 2 (d4)     0.0000  0.0000  0.0000 -0.0443 -0.0517  0.0000  0.0000  0.0000
  32. Cl 2 (d1)     0.0000  0.0000  0.0000 -0.0517  0.0443  0.0000  0.0000  0.0000


 AO overlap matrix:

           AO          1       2       3       4       5       6       7       8
      ------------ ------- ------- ------- ------- ------- ------- ------- -------
   1.  F 1 (s)      1.0000  0.2443  0.0000  0.0000  0.0000  0.1716  0.0000  0.0000
   2.  F 1 (s)      0.2443  1.0000  0.0000  0.0000  0.0000  0.7635  0.0000  0.0000
   3.  F 1 (px)     0.0000  0.0000  1.0000  0.0000  0.0000  0.0000  0.4995  0.0000
   4.  F 1 (py)     0.0000  0.0000  0.0000  1.0000  0.0000  0.0000  0.0000  0.4995
   5.  F 1 (pz)     0.0000  0.0000  0.0000  0.0000  1.0000  0.0000  0.0000  0.0000
   6.  F 1 (s)      0.1716  0.7635  0.0000  0.0000  0.0000  1.0000  0.0000  0.0000
   7.  F 1 (px)     0.0000  0.0000  0.4995  0.0000  0.0000  0.0000  1.0000  0.0000
   8.  F 1 (py)     0.0000  0.0000  0.0000  0.4995  0.0000  0.0000  0.0000  1.0000
   9.  F 1 (pz)     0.0000  0.0000  0.0000  0.0000  0.4995  0.0000  0.0000  0.0000
  10.  F 1 (d5)     0.0000  0.0000  0.0000  0.0000  0.0000  0.0000  0.0000  0.0000
  11.  F 1 (d2)     0.0000  0.0000  0.0000  0.0000  0.0000  0.0000  0.0000  0.0000
  12.  F 1 (d3)     0.0000  0.0000  0.0000  0.0000  0.0000  0.0000  0.0000  0.0000
  13.  F 1 (d4)     0.0000  0.0000  0.0000  0.0000  0.0000  0.0000  0.0000  0.0000
  14.  F 1 (d1)     0.0000  0.0000  0.0000  0.0000  0.0000  0.0000  0.0000  0.0000
  15. Cl 2 (s)      0.0000  0.0000  0.0000  0.0000  0.0000  0.0021  0.0000  0.0000
  16. Cl 2 (s)      0.0000  0.0001  0.0000  0.0000  0.0004  0.0200  0.0000  0.0000
  17. Cl 2 (px)     0.0000  0.0000  0.0000  0.0000  0.0000  0.0000  0.0082  0.0000
  18. Cl 2 (py)     0.0000  0.0000  0.0000  0.0000  0.0000  0.0000  0.0000  0.0082
  19. Cl 2 (pz)     0.0000 -0.0003  0.0000  0.0000 -0.0008 -0.0153  0.0000  0.0000
  20. Cl 2 (s)      0.0038  0.0389  0.0000  0.0000  0.0488  0.1560  0.0000  0.0000
  21. Cl 2 (px)     0.0000  0.0000  0.0173  0.0000  0.0000  0.0000  0.1249  0.0000
  22. Cl 2 (py)     0.0000  0.0000  0.0000  0.0173  0.0000  0.0000  0.0000  0.1249
  23. Cl 2 (pz)    -0.0105 -0.0863  0.0000  0.0000 -0.0965 -0.2343  0.0000  0.0000
  24. Cl 2 (s)      0.0222  0.1346  0.0000  0.0000  0.0712  0.3146  0.0000  0.0000
  25. Cl 2 (px)     0.0000  0.0000  0.0601  0.0000  0.0000  0.0000  0.2840  0.0000
  26. Cl 2 (py)     0.0000  0.0000  0.0000  0.0601  0.0000  0.0000  0.0000  0.2840
  27. Cl 2 (pz)    -0.0519 -0.2866  0.0000  0.0000 -0.0934 -0.5329  0.0000  0.0000
  28. Cl 2 (d5)     0.0043  0.0634  0.0000  0.0000  0.0929  0.1485  0.0000  0.0000
  29. Cl 2 (d2)     0.0000  0.0000 -0.0211  0.0000  0.0000  0.0000 -0.1371  0.0000
  30. Cl 2 (d3)     0.0000  0.0000  0.0000 -0.0211  0.0000  0.0000  0.0000 -0.1371
  31. Cl 2 (d4)     0.0000  0.0000  0.0000  0.0000  0.0000  0.0000  0.0000  0.0000
  32. Cl 2 (d1)     0.0000  0.0000  0.0000  0.0000  0.0000  0.0000  0.0000  0.0000

           AO          9      10      11      12      13      14      15      16
      ------------ ------- ------- ------- ------- ------- ------- ------- -------
   1.  F 1 (s)      0.0000  0.0000  0.0000  0.0000  0.0000  0.0000  0.0000  0.0000
   2.  F 1 (s)      0.0000  0.0000  0.0000  0.0000  0.0000  0.0000  0.0000  0.0001
   3.  F 1 (px)     0.0000  0.0000  0.0000  0.0000  0.0000  0.0000  0.0000  0.0000
   4.  F 1 (py)     0.0000  0.0000  0.0000  0.0000  0.0000  0.0000  0.0000  0.0000
   5.  F 1 (pz)     0.4995  0.0000  0.0000  0.0000  0.0000  0.0000  0.0000  0.0004
   6.  F 1 (s)      0.0000  0.0000  0.0000  0.0000  0.0000  0.0000  0.0021  0.0200
   7.  F 1 (px)     0.0000  0.0000  0.0000  0.0000  0.0000  0.0000  0.0000  0.0000
   8.  F 1 (py)     0.0000  0.0000  0.0000  0.0000  0.0000  0.0000  0.0000  0.0000
   9.  F 1 (pz)     1.0000  0.0000  0.0000  0.0000  0.0000  0.0000  0.0077  0.0668
  10.  F 1 (d5)     0.0000  1.0000  0.0000  0.0000  0.0000  0.0000  0.0010  0.0163
  11.  F 1 (d2)     0.0000  0.0000  1.0000  0.0000  0.0000  0.0000  0.0000  0.0000
  12.  F 1 (d3)     0.0000  0.0000  0.0000  1.0000  0.0000  0.0000  0.0000  0.0000
  13.  F 1 (d4)     0.0000  0.0000  0.0000  0.0000  1.0000  0.0000  0.0000  0.0000
  14.  F 1 (d1)     0.0000  0.0000  0.0000  0.0000  0.0000  1.0000  0.0000  0.0000
  15. Cl 2 (s)      0.0077  0.0010  0.0000  0.0000  0.0000  0.0000  1.0000  0.2672
  16. Cl 2 (s)      0.0668  0.0163  0.0000  0.0000  0.0000  0.0000  0.2672  1.0000
  17. Cl 2 (px)     0.0000  0.0000  0.0033  0.0000  0.0000  0.0000  0.0000  0.0000
  18. Cl 2 (py)     0.0000  0.0000  0.0000  0.0033  0.0000  0.0000  0.0000  0.0000
  19. Cl 2 (pz)    -0.0433 -0.0198  0.0000  0.0000  0.0000  0.0000  0.0000  0.0000
  20. Cl 2 (s)      0.3122  0.1408  0.0000  0.0000  0.0000  0.0000  0.0112  0.3358
  21. Cl 2 (px)     0.0000  0.0000  0.0942  0.0000  0.0000  0.0000  0.0000  0.0000
  22. Cl 2 (py)     0.0000  0.0000  0.0000  0.0942  0.0000  0.0000  0.0000  0.0000
  23. Cl 2 (pz)    -0.3727 -0.2079  0.0000  0.0000  0.0000  0.0000  0.0000  0.0000
  24. Cl 2 (s)      0.3363  0.0768  0.0000  0.0000  0.0000  0.0000  0.0341  0.2556
  25. Cl 2 (px)     0.0000  0.0000  0.1123  0.0000  0.0000  0.0000  0.0000  0.0000
  26. Cl 2 (py)     0.0000  0.0000  0.0000  0.1123  0.0000  0.0000  0.0000  0.0000
  27. Cl 2 (pz)    -0.2856 -0.0246  0.0000  0.0000  0.0000  0.0000  0.0000  0.0000
  28. Cl 2 (d5)     0.2189  0.2257  0.0000  0.0000  0.0000  0.0000  0.0000  0.0000
  29. Cl 2 (d2)     0.0000  0.0000 -0.1469  0.0000  0.0000  0.0000  0.0000  0.0000
  30. Cl 2 (d3)     0.0000  0.0000  0.0000 -0.1469  0.0000  0.0000  0.0000  0.0000
  31. Cl 2 (d4)     0.0000  0.0000  0.0000  0.0000  0.0222  0.0000  0.0000  0.0000
  32. Cl 2 (d1)     0.0000  0.0000  0.0000  0.0000  0.0000  0.0222  0.0000  0.0000

           AO         17      18      19      20      21      22      23      24
      ------------ ------- ------- ------- ------- ------- ------- ------- -------
   1.  F 1 (s)      0.0000  0.0000  0.0000  0.0038  0.0000  0.0000 -0.0105  0.0222
   2.  F 1 (s)      0.0000  0.0000 -0.0003  0.0389  0.0000  0.0000 -0.0863  0.1346
   3.  F 1 (px)     0.0000  0.0000  0.0000  0.0000  0.0173  0.0000  0.0000  0.0000
   4.  F 1 (py)     0.0000  0.0000  0.0000  0.0000  0.0000  0.0173  0.0000  0.0000
   5.  F 1 (pz)     0.0000  0.0000 -0.0008  0.0488  0.0000  0.0000 -0.0965  0.0712
   6.  F 1 (s)      0.0000  0.0000 -0.0153  0.1560  0.0000  0.0000 -0.2343  0.3146
   7.  F 1 (px)     0.0082  0.0000  0.0000  0.0000  0.1249  0.0000  0.0000  0.0000
   8.  F 1 (py)     0.0000  0.0082  0.0000  0.0000  0.0000  0.1249  0.0000  0.0000
   9.  F 1 (pz)     0.0000  0.0000 -0.0433  0.3122  0.0000  0.0000 -0.3727  0.3363
  10.  F 1 (d5)     0.0000  0.0000 -0.0198  0.1408  0.0000  0.0000 -0.2079  0.0768
  11.  F 1 (d2)     0.0033  0.0000  0.0000  0.0000  0.0942  0.0000  0.0000  0.0000
  12.  F 1 (d3)     0.0000  0.0033  0.0000  0.0000  0.0000  0.0942  0.0000  0.0000
  13.  F 1 (d4)     0.0000  0.0000  0.0000  0.0000  0.0000  0.0000  0.0000  0.0000
  14.  F 1 (d1)     0.0000  0.0000  0.0000  0.0000  0.0000  0.0000  0.0000  0.0000
  15. Cl 2 (s)      0.0000  0.0000  0.0000  0.0112  0.0000  0.0000  0.0000  0.0341
  16. Cl 2 (s)      0.0000  0.0000  0.0000  0.3358  0.0000  0.0000  0.0000  0.2556
  17. Cl 2 (px)     1.0000  0.0000  0.0000  0.0000  0.3254  0.0000  0.0000  0.0000
  18. Cl 2 (py)     0.0000  1.0000  0.0000  0.0000  0.0000  0.3254  0.0000  0.0000
  19. Cl 2 (pz)     0.0000  0.0000  1.0000  0.0000  0.0000  0.0000  0.3254  0.0000
  20. Cl 2 (s)      0.0000  0.0000  0.0000  1.0000  0.0000  0.0000  0.0000  0.8259
  21. Cl 2 (px)     0.3254  0.0000  0.0000  0.0000  1.0000  0.0000  0.0000  0.0000
  22. Cl 2 (py)     0.0000  0.3254  0.0000  0.0000  0.0000  1.0000  0.0000  0.0000
  23. Cl 2 (pz)     0.0000  0.0000  0.3254  0.0000  0.0000  0.0000  1.0000  0.0000
  24. Cl 2 (s)      0.0000  0.0000  0.0000  0.8259  0.0000  0.0000  0.0000  1.0000
  25. Cl 2 (px)     0.0714  0.0000  0.0000  0.0000  0.6243  0.0000  0.0000  0.0000
  26. Cl 2 (py)     0.0000  0.0714  0.0000  0.0000  0.0000  0.6243  0.0000  0.0000
  27. Cl 2 (pz)     0.0000  0.0000  0.0714  0.0000  0.0000  0.0000  0.6243  0.0000
  28. Cl 2 (d5)     0.0000  0.0000  0.0000  0.0000  0.0000  0.0000  0.0000  0.0000
  29. Cl 2 (d2)     0.0000  0.0000  0.0000  0.0000  0.0000  0.0000  0.0000  0.0000
  30. Cl 2 (d3)     0.0000  0.0000  0.0000  0.0000  0.0000  0.0000  0.0000  0.0000
  31. Cl 2 (d4)     0.0000  0.0000  0.0000  0.0000  0.0000  0.0000  0.0000  0.0000
  32. Cl 2 (d1)     0.0000  0.0000  0.0000  0.0000  0.0000  0.0000  0.0000  0.0000

           AO         25      26      27      28      29      30      31      32
      ------------ ------- ------- ------- ------- ------- ------- ------- -------
   1.  F 1 (s)      0.0000  0.0000 -0.0519  0.0043  0.0000  0.0000  0.0000  0.0000
   2.  F 1 (s)      0.0000  0.0000 -0.2866  0.0634  0.0000  0.0000  0.0000  0.0000
   3.  F 1 (px)     0.0601  0.0000  0.0000  0.0000 -0.0211  0.0000  0.0000  0.0000
   4.  F 1 (py)     0.0000  0.0601  0.0000  0.0000  0.0000 -0.0211  0.0000  0.0000
   5.  F 1 (pz)     0.0000  0.0000 -0.0934  0.0929  0.0000  0.0000  0.0000  0.0000
   6.  F 1 (s)      0.0000  0.0000 -0.5329  0.1485  0.0000  0.0000  0.0000  0.0000
   7.  F 1 (px)     0.2840  0.0000  0.0000  0.0000 -0.1371  0.0000  0.0000  0.0000
   8.  F 1 (py)     0.0000  0.2840  0.0000  0.0000  0.0000 -0.1371  0.0000  0.0000
   9.  F 1 (pz)     0.0000  0.0000 -0.2856  0.2189  0.0000  0.0000  0.0000  0.0000
  10.  F 1 (d5)     0.0000  0.0000 -0.0246  0.2257  0.0000  0.0000  0.0000  0.0000
  11.  F 1 (d2)     0.1123  0.0000  0.0000  0.0000 -0.1469  0.0000  0.0000  0.0000
  12.  F 1 (d3)     0.0000  0.1123  0.0000  0.0000  0.0000 -0.1469  0.0000  0.0000
  13.  F 1 (d4)     0.0000  0.0000  0.0000  0.0000  0.0000  0.0000  0.0222  0.0000
  14.  F 1 (d1)     0.0000  0.0000  0.0000  0.0000  0.0000  0.0000  0.0000  0.0222
  15. Cl 2 (s)      0.0000  0.0000  0.0000  0.0000  0.0000  0.0000  0.0000  0.0000
  16. Cl 2 (s)      0.0000  0.0000  0.0000  0.0000  0.0000  0.0000  0.0000  0.0000
  17. Cl 2 (px)     0.0714  0.0000  0.0000  0.0000  0.0000  0.0000  0.0000  0.0000
  18. Cl 2 (py)     0.0000  0.0714  0.0000  0.0000  0.0000  0.0000  0.0000  0.0000
  19. Cl 2 (pz)     0.0000  0.0000  0.0714  0.0000  0.0000  0.0000  0.0000  0.0000
  20. Cl 2 (s)      0.0000  0.0000  0.0000  0.0000  0.0000  0.0000  0.0000  0.0000
  21. Cl 2 (px)     0.6243  0.0000  0.0000  0.0000  0.0000  0.0000  0.0000  0.0000
  22. Cl 2 (py)     0.0000  0.6243  0.0000  0.0000  0.0000  0.0000  0.0000  0.0000
  23. Cl 2 (pz)     0.0000  0.0000  0.6243  0.0000  0.0000  0.0000  0.0000  0.0000
  24. Cl 2 (s)      0.0000  0.0000  0.0000  0.0000  0.0000  0.0000  0.0000  0.0000
  25. Cl 2 (px)     1.0000  0.0000  0.0000  0.0000  0.0000  0.0000  0.0000  0.0000
  26. Cl 2 (py)     0.0000  1.0000  0.0000  0.0000  0.0000  0.0000  0.0000  0.0000
  27. Cl 2 (pz)     0.0000  0.0000  1.0000  0.0000  0.0000  0.0000  0.0000  0.0000
  28. Cl 2 (d5)     0.0000  0.0000  0.0000  1.0000  0.0000  0.0000  0.0000  0.0000
  29. Cl 2 (d2)     0.0000  0.0000  0.0000  0.0000  1.0000  0.0000  0.0000  0.0000
  30. Cl 2 (d3)     0.0000  0.0000  0.0000  0.0000  0.0000  1.0000  0.0000  0.0000
  31. Cl 2 (d4)     0.0000  0.0000  0.0000  0.0000  0.0000  0.0000  1.0000  0.0000
  32. Cl 2 (d1)     0.0000  0.0000  0.0000  0.0000  0.0000  0.0000  0.0000  1.0000


 AO bond-order matrix:

           AO          1       2       3       4       5       6       7       8
      ------------ ------- ------- ------- ------- ------- ------- ------- -------
   1.  F 1 (s)      2.0978 -0.2091  0.0000  0.0000  0.0323 -0.2910  0.0000  0.0000
   2.  F 1 (s)     -0.2091  0.5514  0.0000  0.0000 -0.0906  0.6074  0.0000  0.0000
   3.  F 1 (px)     0.0000  0.0000  0.9058  0.0000  0.0000  0.0000  0.6486  0.0000
   4.  F 1 (py)     0.0000  0.0000  0.0000  0.9058  0.0000  0.0000  0.0000  0.6486
   5.  F 1 (pz)     0.0323 -0.0906  0.0000  0.0000  0.5144 -0.0819  0.0000  0.0000
   6.  F 1 (s)     -0.2910  0.6074  0.0000  0.0000 -0.0819  0.6740  0.0000  0.0000
   7.  F 1 (px)     0.0000  0.0000  0.6486  0.0000  0.0000  0.0000  0.4657  0.0000
   8.  F 1 (py)     0.0000  0.0000  0.0000  0.6486  0.0000  0.0000  0.0000  0.4657
   9.  F 1 (pz)     0.0084 -0.0457  0.0000  0.0000  0.3974 -0.0346  0.0000  0.0000
  10.  F 1 (d5)    -0.0043  0.0048  0.0000  0.0000  0.0408  0.0064  0.0000  0.0000
  11.  F 1 (d2)     0.0000  0.0000  0.0297  0.0000  0.0000  0.0000  0.0207  0.0000
  12.  F 1 (d3)     0.0000  0.0000  0.0000  0.0297  0.0000  0.0000  0.0000  0.0207
  13.  F 1 (d4)     0.0000  0.0000  0.0000  0.0000  0.0000  0.0000  0.0000  0.0000
  14.  F 1 (d1)     0.0000  0.0000  0.0000  0.0000  0.0000  0.0000  0.0000  0.0000
  15. Cl 2 (s)      0.0016 -0.0044  0.0000  0.0000  0.0062 -0.0093  0.0000  0.0000
  16. Cl 2 (s)     -0.0075  0.0186  0.0000  0.0000 -0.0248  0.0440  0.0000  0.0000
  17. Cl 2 (px)     0.0000  0.0000  0.0309  0.0000  0.0000  0.0000  0.0371  0.0000
  18. Cl 2 (py)     0.0000  0.0000  0.0000  0.0309  0.0000  0.0000  0.0000  0.0371
  19. Cl 2 (pz)    -0.0075  0.0069  0.0000  0.0000  0.1671  0.0216  0.0000  0.0000
  20. Cl 2 (s)      0.0194 -0.0471  0.0000  0.0000  0.0594 -0.1045  0.0000  0.0000
  21. Cl 2 (px)     0.0000  0.0000 -0.0954  0.0000  0.0000  0.0000 -0.1078  0.0000
  22. Cl 2 (py)     0.0000  0.0000  0.0000 -0.0954  0.0000  0.0000  0.0000 -0.1078
  23. Cl 2 (pz)     0.0097 -0.0037  0.0000  0.0000 -0.4107 -0.0278  0.0000  0.0000
  24. Cl 2 (s)      0.0233 -0.0392  0.0000  0.0000 -0.0931 -0.0700  0.0000  0.0000
  25. Cl 2 (px)     0.0000  0.0000 -0.0610  0.0000  0.0000  0.0000 -0.0631  0.0000
  26. Cl 2 (py)     0.0000  0.0000  0.0000 -0.0610  0.0000  0.0000  0.0000 -0.0631
  27. Cl 2 (pz)    -0.0123  0.0250  0.0000  0.0000 -0.0908  0.0210  0.0000  0.0000
  28. Cl 2 (d5)    -0.0046  0.0105  0.0000  0.0000  0.0586  0.0145  0.0000  0.0000
  29. Cl 2 (d2)     0.0000  0.0000 -0.0447  0.0000  0.0000  0.0000 -0.0321  0.0000
  30. Cl 2 (d3)     0.0000  0.0000  0.0000 -0.0447  0.0000  0.0000  0.0000 -0.0321
  31. Cl 2 (d4)     0.0000  0.0000  0.0000  0.0000  0.0000  0.0000  0.0000  0.0000
  32. Cl 2 (d1)     0.0000  0.0000  0.0000  0.0000  0.0000  0.0000  0.0000  0.0000

           AO          9      10      11      12      13      14      15      16
      ------------ ------- ------- ------- ------- ------- ------- ------- -------
   1.  F 1 (s)      0.0084 -0.0043  0.0000  0.0000  0.0000  0.0000  0.0016 -0.0075
   2.  F 1 (s)     -0.0457  0.0048  0.0000  0.0000  0.0000  0.0000 -0.0044  0.0186
   3.  F 1 (px)     0.0000  0.0000  0.0297  0.0000  0.0000  0.0000  0.0000  0.0000
   4.  F 1 (py)     0.0000  0.0000  0.0000  0.0297  0.0000  0.0000  0.0000  0.0000
   5.  F 1 (pz)     0.3974  0.0408  0.0000  0.0000  0.0000  0.0000  0.0062 -0.0248
   6.  F 1 (s)     -0.0346  0.0064  0.0000  0.0000  0.0000  0.0000 -0.0093  0.0440
   7.  F 1 (px)     0.0000  0.0000  0.0207  0.0000  0.0000  0.0000  0.0000  0.0000
   8.  F 1 (py)     0.0000  0.0000  0.0000  0.0207  0.0000  0.0000  0.0000  0.0000
   9.  F 1 (pz)     0.3091  0.0318  0.0000  0.0000  0.0000  0.0000  0.0029 -0.0049
  10.  F 1 (d5)     0.0318  0.0036  0.0000  0.0000  0.0000  0.0000  0.0026 -0.0077
  11.  F 1 (d2)     0.0000  0.0000  0.0012  0.0000  0.0000  0.0000  0.0000  0.0000
  12.  F 1 (d3)     0.0000  0.0000  0.0000  0.0012  0.0000  0.0000  0.0000  0.0000
  13.  F 1 (d4)     0.0000  0.0000  0.0000  0.0000  0.0000  0.0000  0.0000  0.0000
  14.  F 1 (d1)     0.0000  0.0000  0.0000  0.0000  0.0000  0.0000  0.0000  0.0000
  15. Cl 2 (s)      0.0029  0.0026  0.0000  0.0000  0.0000  0.0000  2.1647 -0.6294
  16. Cl 2 (s)     -0.0049 -0.0077  0.0000  0.0000  0.0000  0.0000 -0.6294  2.4120
  17. Cl 2 (px)     0.0000  0.0000 -0.0060  0.0000  0.0000  0.0000  0.0000  0.0000
  18. Cl 2 (py)     0.0000  0.0000  0.0000 -0.0060  0.0000  0.0000  0.0000  0.0000
  19. Cl 2 (pz)     0.1391  0.0164  0.0000  0.0000  0.0000  0.0000 -0.0066  0.0305
  20. Cl 2 (s)      0.0097  0.0126  0.0000  0.0000  0.0000  0.0000  0.1089 -0.5397
  21. Cl 2 (px)     0.0000  0.0000  0.0135  0.0000  0.0000  0.0000  0.0000  0.0000
  22. Cl 2 (py)     0.0000  0.0000  0.0000  0.0135  0.0000  0.0000  0.0000  0.0000
  23. Cl 2 (pz)    -0.3262 -0.0328  0.0000  0.0000  0.0000  0.0000  0.0174 -0.0790
  24. Cl 2 (s)     -0.0891 -0.0049  0.0000  0.0000  0.0000  0.0000  0.0597 -0.2534
  25. Cl 2 (px)     0.0000  0.0000  0.0062  0.0000  0.0000  0.0000  0.0000  0.0000
  26. Cl 2 (py)     0.0000  0.0000  0.0000  0.0062  0.0000  0.0000  0.0000  0.0000
  27. Cl 2 (pz)    -0.0720 -0.0065  0.0000  0.0000  0.0000  0.0000  0.0069 -0.0324
  28. Cl 2 (d5)     0.0467  0.0050  0.0000  0.0000  0.0000  0.0000 -0.0021  0.0082
  29. Cl 2 (d2)     0.0000  0.0000 -0.0014  0.0000  0.0000  0.0000  0.0000  0.0000
  30. Cl 2 (d3)     0.0000  0.0000  0.0000 -0.0014  0.0000  0.0000  0.0000  0.0000
  31. Cl 2 (d4)     0.0000  0.0000  0.0000  0.0000  0.0000  0.0000  0.0000  0.0000
  32. Cl 2 (d1)     0.0000  0.0000  0.0000  0.0000  0.0000  0.0000  0.0000  0.0000

           AO         17      18      19      20      21      22      23      24
      ------------ ------- ------- ------- ------- ------- ------- ------- -------
   1.  F 1 (s)      0.0000  0.0000 -0.0075  0.0194  0.0000  0.0000  0.0097  0.0233
   2.  F 1 (s)      0.0000  0.0000  0.0069 -0.0471  0.0000  0.0000 -0.0037 -0.0392
   3.  F 1 (px)     0.0309  0.0000  0.0000  0.0000 -0.0954  0.0000  0.0000  0.0000
   4.  F 1 (py)     0.0000  0.0309  0.0000  0.0000  0.0000 -0.0954  0.0000  0.0000
   5.  F 1 (pz)     0.0000  0.0000  0.1671  0.0594  0.0000  0.0000 -0.4107 -0.0931
   6.  F 1 (s)      0.0000  0.0000  0.0216 -0.1045  0.0000  0.0000 -0.0278 -0.0700
   7.  F 1 (px)     0.0371  0.0000  0.0000  0.0000 -0.1078  0.0000  0.0000  0.0000
   8.  F 1 (py)     0.0000  0.0371  0.0000  0.0000  0.0000 -0.1078  0.0000  0.0000
   9.  F 1 (pz)     0.0000  0.0000  0.1391  0.0097  0.0000  0.0000 -0.3262 -0.0891
  10.  F 1 (d5)     0.0000  0.0000  0.0164  0.0126  0.0000  0.0000 -0.0328 -0.0049
  11.  F 1 (d2)    -0.0060  0.0000  0.0000  0.0000  0.0135  0.0000  0.0000  0.0000
  12.  F 1 (d3)     0.0000 -0.0060  0.0000  0.0000  0.0000  0.0135  0.0000  0.0000
  13.  F 1 (d4)     0.0000  0.0000  0.0000  0.0000  0.0000  0.0000  0.0000  0.0000
  14.  F 1 (d1)     0.0000  0.0000  0.0000  0.0000  0.0000  0.0000  0.0000  0.0000
  15. Cl 2 (s)      0.0000  0.0000 -0.0066  0.1089  0.0000  0.0000  0.0174  0.0597
  16. Cl 2 (s)      0.0000  0.0000  0.0305 -0.5397  0.0000  0.0000 -0.0790 -0.2534
  17. Cl 2 (px)     2.1440  0.0000  0.0000  0.0000 -0.4067  0.0000  0.0000  0.0000
  18. Cl 2 (py)     0.0000  2.1440  0.0000  0.0000  0.0000 -0.4067  0.0000  0.0000
  19. Cl 2 (pz)     0.0000  0.0000  2.0321 -0.0603  0.0000  0.0000 -0.1036 -0.0672
  20. Cl 2 (s)      0.0000  0.0000 -0.0603  1.1999  0.0000  0.0000  0.1520  0.4975
  21. Cl 2 (px)    -0.4067  0.0000  0.0000  0.0000  1.1775  0.0000  0.0000  0.0000
  22. Cl 2 (py)     0.0000 -0.4067  0.0000  0.0000  0.0000  1.1775  0.0000  0.0000
  23. Cl 2 (pz)     0.0000  0.0000 -0.1036  0.1520  0.0000  0.0000  0.3716  0.1647
  24. Cl 2 (s)      0.0000  0.0000 -0.0672  0.4975  0.0000  0.0000  0.1647  0.2368
  25. Cl 2 (px)    -0.2277  0.0000  0.0000  0.0000  0.5801  0.0000  0.0000  0.0000
  26. Cl 2 (py)     0.0000 -0.2277  0.0000  0.0000  0.0000  0.5801  0.0000  0.0000
  27. Cl 2 (pz)     0.0000  0.0000 -0.0435  0.0655  0.0000  0.0000  0.0835  0.0480
  28. Cl 2 (d5)     0.0000  0.0000  0.0186 -0.0126  0.0000  0.0000 -0.0527 -0.0204
  29. Cl 2 (d2)    -0.0032  0.0000  0.0000  0.0000  0.0068  0.0000  0.0000  0.0000
  30. Cl 2 (d3)     0.0000 -0.0032  0.0000  0.0000  0.0000  0.0068  0.0000  0.0000
  31. Cl 2 (d4)     0.0000  0.0000  0.0000  0.0000  0.0000  0.0000  0.0000  0.0000
  32. Cl 2 (d1)     0.0000  0.0000  0.0000  0.0000  0.0000  0.0000  0.0000  0.0000

           AO         25      26      27      28      29      30      31      32
      ------------ ------- ------- ------- ------- ------- ------- ------- -------
   1.  F 1 (s)      0.0000  0.0000 -0.0123 -0.0046  0.0000  0.0000  0.0000  0.0000
   2.  F 1 (s)      0.0000  0.0000  0.0250  0.0105  0.0000  0.0000  0.0000  0.0000
   3.  F 1 (px)    -0.0610  0.0000  0.0000  0.0000 -0.0447  0.0000  0.0000  0.0000
   4.  F 1 (py)     0.0000 -0.0610  0.0000  0.0000  0.0000 -0.0447  0.0000  0.0000
   5.  F 1 (pz)     0.0000  0.0000 -0.0908  0.0586  0.0000  0.0000  0.0000  0.0000
   6.  F 1 (s)      0.0000  0.0000  0.0210  0.0145  0.0000  0.0000  0.0000  0.0000
   7.  F 1 (px)    -0.0631  0.0000  0.0000  0.0000 -0.0321  0.0000  0.0000  0.0000
   8.  F 1 (py)     0.0000 -0.0631  0.0000  0.0000  0.0000 -0.0321  0.0000  0.0000
   9.  F 1 (pz)     0.0000  0.0000 -0.0720  0.0467  0.0000  0.0000  0.0000  0.0000
  10.  F 1 (d5)     0.0000  0.0000 -0.0065  0.0050  0.0000  0.0000  0.0000  0.0000
  11.  F 1 (d2)     0.0062  0.0000  0.0000  0.0000 -0.0014  0.0000  0.0000  0.0000
  12.  F 1 (d3)     0.0000  0.0062  0.0000  0.0000  0.0000 -0.0014  0.0000  0.0000
  13.  F 1 (d4)     0.0000  0.0000  0.0000  0.0000  0.0000  0.0000  0.0000  0.0000
  14.  F 1 (d1)     0.0000  0.0000  0.0000  0.0000  0.0000  0.0000  0.0000  0.0000
  15. Cl 2 (s)      0.0000  0.0000  0.0069 -0.0021  0.0000  0.0000  0.0000  0.0000
  16. Cl 2 (s)      0.0000  0.0000 -0.0324  0.0082  0.0000  0.0000  0.0000  0.0000
  17. Cl 2 (px)    -0.2277  0.0000  0.0000  0.0000 -0.0032  0.0000  0.0000  0.0000
  18. Cl 2 (py)     0.0000 -0.2277  0.0000  0.0000  0.0000 -0.0032  0.0000  0.0000
  19. Cl 2 (pz)     0.0000  0.0000 -0.0435  0.0186  0.0000  0.0000  0.0000  0.0000
  20. Cl 2 (s)      0.0000  0.0000  0.0655 -0.0126  0.0000  0.0000  0.0000  0.0000
  21. Cl 2 (px)     0.5801  0.0000  0.0000  0.0000  0.0068  0.0000  0.0000  0.0000
  22. Cl 2 (py)     0.0000  0.5801  0.0000  0.0000  0.0000  0.0068  0.0000  0.0000
  23. Cl 2 (pz)     0.0000  0.0000  0.0835 -0.0527  0.0000  0.0000  0.0000  0.0000
  24. Cl 2 (s)      0.0000  0.0000  0.0480 -0.0204  0.0000  0.0000  0.0000  0.0000
  25. Cl 2 (px)     0.2864  0.0000  0.0000  0.0000  0.0040  0.0000  0.0000  0.0000
  26. Cl 2 (py)     0.0000  0.2864  0.0000  0.0000  0.0000  0.0040  0.0000  0.0000
  27. Cl 2 (pz)     0.0000  0.0000  0.0212 -0.0111  0.0000  0.0000  0.0000  0.0000
  28. Cl 2 (d5)     0.0000  0.0000 -0.0111  0.0077  0.0000  0.0000  0.0000  0.0000
  29. Cl 2 (d2)     0.0040  0.0000  0.0000  0.0000  0.0022  0.0000  0.0000  0.0000
  30. Cl 2 (d3)     0.0000  0.0040  0.0000  0.0000  0.0000  0.0022  0.0000  0.0000
  31. Cl 2 (d4)     0.0000  0.0000  0.0000  0.0000  0.0000  0.0000  0.0000  0.0000
  32. Cl 2 (d1)     0.0000  0.0000  0.0000  0.0000  0.0000  0.0000  0.0000  0.0000


 AO density matrix:

           AO          1       2       3       4       5       6       7       8
      ------------ ------- ------- ------- ------- ------- ------- ------- -------
   1.  F 1 (s)      1.9998  0.4948  0.0000  0.0000  0.0027  0.3379  0.0000  0.0000
   2.  F 1 (s)      0.4948  1.7486  0.0000  0.0000 -0.1075  1.7473  0.0000  0.0000
   3.  F 1 (px)     0.0000  0.0000  1.6588  0.0000  0.0000  0.0000  1.4665  0.0000
   4.  F 1 (py)     0.0000  0.0000  0.0000  1.6588  0.0000  0.0000  0.0000  1.4665
   5.  F 1 (pz)     0.0027 -0.1075  0.0000  0.0000  1.1329  0.0113  0.0000  0.0000
   6.  F 1 (s)      0.3379  1.7473  0.0000  0.0000  0.0113  1.7932  0.0000  0.0000
   7.  F 1 (px)     0.0000  0.0000  1.4665  0.0000  0.0000  0.0000  1.3438  0.0000
   8.  F 1 (py)     0.0000  0.0000  0.0000  1.4665  0.0000  0.0000  0.0000  1.3438
   9.  F 1 (pz)     0.0015 -0.0943  0.0000  0.0000  1.2387  0.0820  0.0000  0.0000
  10.  F 1 (d5)    -0.0006  0.0183  0.0000  0.0000  0.2136  0.0628  0.0000  0.0000
  11.  F 1 (d2)     0.0000  0.0000  0.0334  0.0000  0.0000  0.0000  0.0675  0.0000
  12.  F 1 (d3)     0.0000  0.0000  0.0000  0.0334  0.0000  0.0000  0.0000  0.0675
  13.  F 1 (d4)     0.0000  0.0000  0.0000  0.0000  0.0000  0.0000  0.0000  0.0000
  14.  F 1 (d1)     0.0000  0.0000  0.0000  0.0000  0.0000  0.0000  0.0000  0.0000
  15. Cl 2 (s)      0.0000  0.0000  0.0000  0.0000  0.0004  0.0043  0.0000  0.0000
  16. Cl 2 (s)      0.0000  0.0002  0.0000  0.0000 -0.0016  0.0397  0.0000  0.0000
  17. Cl 2 (px)     0.0000  0.0000  0.0009  0.0000  0.0000  0.0000  0.0150  0.0000
  18. Cl 2 (py)     0.0000  0.0000  0.0000  0.0009  0.0000  0.0000  0.0000  0.0150
  19. Cl 2 (pz)    -0.0001  0.0021  0.0000  0.0000  0.0118 -0.0310  0.0000  0.0000
  20. Cl 2 (s)      0.0072  0.0960  0.0000  0.0000  0.2266  0.3150  0.0000  0.0000
  21. Cl 2 (px)     0.0000  0.0000  0.0089  0.0000  0.0000  0.0000  0.2912  0.0000
  22. Cl 2 (py)     0.0000  0.0000  0.0000  0.0089  0.0000  0.0000  0.0000  0.2912
  23. Cl 2 (pz)    -0.0177 -0.3311  0.0000  0.0000 -0.8764 -0.4087  0.0000  0.0000
  24. Cl 2 (s)      0.0428  0.3439  0.0000  0.0000  0.1869  0.5485  0.0000  0.0000
  25. Cl 2 (px)     0.0000  0.0000  0.2049  0.0000  0.0000  0.0000  0.4354  0.0000
  26. Cl 2 (py)     0.0000  0.0000  0.0000  0.2049  0.0000  0.0000  0.0000  0.4354
  27. Cl 2 (pz)    -0.0987 -0.8100  0.0000  0.0000 -0.6418 -0.8623  0.0000  0.0000
  28. Cl 2 (d5)     0.0063  0.2278  0.0000  0.0000  0.2767  0.2577  0.0000  0.0000
  29. Cl 2 (d2)     0.0000  0.0000 -0.2123  0.0000  0.0000  0.0000 -0.1858  0.0000
  30. Cl 2 (d3)     0.0000  0.0000  0.0000 -0.2123  0.0000  0.0000  0.0000 -0.1858
  31. Cl 2 (d4)     0.0000  0.0000  0.0000  0.0000  0.0000  0.0000  0.0000  0.0000
  32. Cl 2 (d1)     0.0000  0.0000  0.0000  0.0000  0.0000  0.0000  0.0000  0.0000

           AO          9      10      11      12      13      14      15      16
      ------------ ------- ------- ------- ------- ------- ------- ------- -------
   1.  F 1 (s)      0.0015 -0.0006  0.0000  0.0000  0.0000  0.0000  0.0000  0.0000
   2.  F 1 (s)     -0.0943  0.0183  0.0000  0.0000  0.0000  0.0000  0.0000  0.0002
   3.  F 1 (px)     0.0000  0.0000  0.0334  0.0000  0.0000  0.0000  0.0000  0.0000
   4.  F 1 (py)     0.0000  0.0000  0.0000  0.0334  0.0000  0.0000  0.0000  0.0000
   5.  F 1 (pz)     1.2387  0.2136  0.0000  0.0000  0.0000  0.0000  0.0004 -0.0016
   6.  F 1 (s)      0.0820  0.0628  0.0000  0.0000  0.0000  0.0000  0.0043  0.0397
   7.  F 1 (px)     0.0000  0.0000  0.0675  0.0000  0.0000  0.0000  0.0000  0.0000
   8.  F 1 (py)     0.0000  0.0000  0.0000  0.0675  0.0000  0.0000  0.0000  0.0000
   9.  F 1 (pz)     1.4550  0.2795  0.0000  0.0000  0.0000  0.0000  0.0158  0.1318
  10.  F 1 (d5)     0.2795  0.0621  0.0000  0.0000  0.0000  0.0000  0.0021  0.0334
  11.  F 1 (d2)     0.0000  0.0000  0.0312  0.0000  0.0000  0.0000  0.0000  0.0000
  12.  F 1 (d3)     0.0000  0.0000  0.0000  0.0312  0.0000  0.0000  0.0000  0.0000
  13.  F 1 (d4)     0.0000  0.0000  0.0000  0.0000  0.0000  0.0000  0.0000  0.0000
  14.  F 1 (d1)     0.0000  0.0000  0.0000  0.0000  0.0000  0.0000  0.0000  0.0000
  15. Cl 2 (s)      0.0158  0.0021  0.0000  0.0000  0.0000  0.0000  2.0000  0.5344
  16. Cl 2 (s)      0.1318  0.0334  0.0000  0.0000  0.0000  0.0000  0.5344  1.9999
  17. Cl 2 (px)     0.0000  0.0000  0.0054  0.0000  0.0000  0.0000  0.0000  0.0000
  18. Cl 2 (py)     0.0000  0.0000  0.0000  0.0054  0.0000  0.0000  0.0000  0.0000
  19. Cl 2 (pz)    -0.0819 -0.0451  0.0000  0.0000  0.0000  0.0000  0.0000  0.0001
  20. Cl 2 (s)      0.6725  0.2344  0.0000  0.0000  0.0000  0.0000  0.0218  0.6738
  21. Cl 2 (px)     0.0000  0.0000  0.2259  0.0000  0.0000  0.0000  0.0000  0.0000
  22. Cl 2 (py)     0.0000  0.0000  0.0000  0.2259  0.0000  0.0000  0.0000  0.0000
  23. Cl 2 (pz)    -0.9182 -0.1543  0.0000  0.0000  0.0000  0.0000  0.0005 -0.0028
  24. Cl 2 (s)      0.5971  0.2185  0.0000  0.0000  0.0000  0.0000  0.0692  0.5075
  25. Cl 2 (px)     0.0000  0.0000  0.2081  0.0000  0.0000  0.0000  0.0000  0.0000
  26. Cl 2 (py)     0.0000  0.0000  0.0000  0.2081  0.0000  0.0000  0.0000  0.0000
  27. Cl 2 (pz)    -0.6462 -0.1096  0.0000  0.0000  0.0000  0.0000  0.0005 -0.0026
  28. Cl 2 (d5)     0.2929  0.0520  0.0000  0.0000  0.0000  0.0000  0.0000  0.0006
  29. Cl 2 (d2)     0.0000  0.0000 -0.0027  0.0000  0.0000  0.0000  0.0000  0.0000
  30. Cl 2 (d3)     0.0000  0.0000  0.0000 -0.0027  0.0000  0.0000  0.0000  0.0000
  31. Cl 2 (d4)     0.0000  0.0000  0.0000  0.0000  0.0000  0.0000  0.0000  0.0000
  32. Cl 2 (d1)     0.0000  0.0000  0.0000  0.0000  0.0000  0.0000  0.0000  0.0000

           AO         17      18      19      20      21      22      23      24
      ------------ ------- ------- ------- ------- ------- ------- ------- -------
   1.  F 1 (s)      0.0000  0.0000 -0.0001  0.0072  0.0000  0.0000 -0.0177  0.0428
   2.  F 1 (s)      0.0000  0.0000  0.0021  0.0960  0.0000  0.0000 -0.3311  0.3439
   3.  F 1 (px)     0.0009  0.0000  0.0000  0.0000  0.0089  0.0000  0.0000  0.0000
   4.  F 1 (py)     0.0000  0.0009  0.0000  0.0000  0.0000  0.0089  0.0000  0.0000
   5.  F 1 (pz)     0.0000  0.0000  0.0118  0.2266  0.0000  0.0000 -0.8764  0.1869
   6.  F 1 (s)      0.0000  0.0000 -0.0310  0.3150  0.0000  0.0000 -0.4087  0.5485
   7.  F 1 (px)     0.0150  0.0000  0.0000  0.0000  0.2912  0.0000  0.0000  0.0000
   8.  F 1 (py)     0.0000  0.0150  0.0000  0.0000  0.0000  0.2912  0.0000  0.0000
   9.  F 1 (pz)     0.0000  0.0000 -0.0819  0.6725  0.0000  0.0000 -0.9182  0.5971
  10.  F 1 (d5)     0.0000  0.0000 -0.0451  0.2344  0.0000  0.0000 -0.1543  0.2185
  11.  F 1 (d2)     0.0054  0.0000  0.0000  0.0000  0.2259  0.0000  0.0000  0.0000
  12.  F 1 (d3)     0.0000  0.0054  0.0000  0.0000  0.0000  0.2259  0.0000  0.0000
  13.  F 1 (d4)     0.0000  0.0000  0.0000  0.0000  0.0000  0.0000  0.0000  0.0000
  14.  F 1 (d1)     0.0000  0.0000  0.0000  0.0000  0.0000  0.0000  0.0000  0.0000
  15. Cl 2 (s)      0.0000  0.0000  0.0000  0.0218  0.0000  0.0000  0.0005  0.0692
  16. Cl 2 (s)      0.0000  0.0000  0.0001  0.6738  0.0000  0.0000 -0.0028  0.5075
  17. Cl 2 (px)     1.9999  0.0000  0.0000  0.0000  0.6548  0.0000  0.0000  0.0000
  18. Cl 2 (py)     0.0000  1.9999  0.0000  0.0000  0.0000  0.6548  0.0000  0.0000
  19. Cl 2 (pz)     0.0000  0.0000  1.9995 -0.0026  0.0000  0.0000  0.6705 -0.0016
  20. Cl 2 (s)      0.0000  0.0000 -0.0026  1.9234  0.0000  0.0000  0.1324  1.7681
  21. Cl 2 (px)     0.6548  0.0000  0.0000  0.0000  1.8591  0.0000  0.0000  0.0000
  22. Cl 2 (py)     0.0000  0.6548  0.0000  0.0000  0.0000  1.8591  0.0000  0.0000
  23. Cl 2 (pz)     0.0000  0.0000  0.6705  0.1324  0.0000  0.0000  1.0850  0.0828
  24. Cl 2 (s)      0.0000  0.0000 -0.0016  1.7681  0.0000  0.0000  0.0828  1.6737
  25. Cl 2 (px)     0.1346  0.0000  0.0000  0.0000  1.5399  0.0000  0.0000  0.0000
  26. Cl 2 (py)     0.0000  0.1346  0.0000  0.0000  0.0000  1.5399  0.0000  0.0000
  27. Cl 2 (pz)     0.0000  0.0000  0.1468  0.1356  0.0000  0.0000  0.8334  0.0133
  28. Cl 2 (d5)     0.0000  0.0000  0.0038  0.0160  0.0000  0.0000 -0.2902  0.0466
  29. Cl 2 (d2)    -0.0011  0.0000  0.0000  0.0000  0.0099  0.0000  0.0000  0.0000
  30. Cl 2 (d3)     0.0000 -0.0011  0.0000  0.0000  0.0000  0.0099  0.0000  0.0000
  31. Cl 2 (d4)     0.0000  0.0000  0.0000  0.0000  0.0000  0.0000  0.0000  0.0000
  32. Cl 2 (d1)     0.0000  0.0000  0.0000  0.0000  0.0000  0.0000  0.0000  0.0000

           AO         25      26      27      28      29      30      31      32
      ------------ ------- ------- ------- ------- ------- ------- ------- -------
   1.  F 1 (s)      0.0000  0.0000 -0.0987  0.0063  0.0000  0.0000  0.0000  0.0000
   2.  F 1 (s)      0.0000  0.0000 -0.8100  0.2278  0.0000  0.0000  0.0000  0.0000
   3.  F 1 (px)     0.2049  0.0000  0.0000  0.0000 -0.2123  0.0000  0.0000  0.0000
   4.  F 1 (py)     0.0000  0.2049  0.0000  0.0000  0.0000 -0.2123  0.0000  0.0000
   5.  F 1 (pz)     0.0000  0.0000 -0.6418  0.2767  0.0000  0.0000  0.0000  0.0000
   6.  F 1 (s)      0.0000  0.0000 -0.8623  0.2577  0.0000  0.0000  0.0000  0.0000
   7.  F 1 (px)     0.4354  0.0000  0.0000  0.0000 -0.1858  0.0000  0.0000  0.0000
   8.  F 1 (py)     0.0000  0.4354  0.0000  0.0000  0.0000 -0.1858  0.0000  0.0000
   9.  F 1 (pz)     0.0000  0.0000 -0.6462  0.2929  0.0000  0.0000  0.0000  0.0000
  10.  F 1 (d5)     0.0000  0.0000 -0.1096  0.0520  0.0000  0.0000  0.0000  0.0000
  11.  F 1 (d2)     0.2081  0.0000  0.0000  0.0000 -0.0027  0.0000  0.0000  0.0000
  12.  F 1 (d3)     0.0000  0.2081  0.0000  0.0000  0.0000 -0.0027  0.0000  0.0000
  13.  F 1 (d4)     0.0000  0.0000  0.0000  0.0000  0.0000  0.0000  0.0000  0.0000
  14.  F 1 (d1)     0.0000  0.0000  0.0000  0.0000  0.0000  0.0000  0.0000  0.0000
  15. Cl 2 (s)      0.0000  0.0000  0.0005  0.0000  0.0000  0.0000  0.0000  0.0000
  16. Cl 2 (s)      0.0000  0.0000 -0.0026  0.0006  0.0000  0.0000  0.0000  0.0000
  17. Cl 2 (px)     0.1346  0.0000  0.0000  0.0000 -0.0011  0.0000  0.0000  0.0000
  18. Cl 2 (py)     0.0000  0.1346  0.0000  0.0000  0.0000 -0.0011  0.0000  0.0000
  19. Cl 2 (pz)     0.0000  0.0000  0.1468  0.0038  0.0000  0.0000  0.0000  0.0000
  20. Cl 2 (s)      0.0000  0.0000  0.1356  0.0160  0.0000  0.0000  0.0000  0.0000
  21. Cl 2 (px)     1.5399  0.0000  0.0000  0.0000  0.0099  0.0000  0.0000  0.0000
  22. Cl 2 (py)     0.0000  1.5399  0.0000  0.0000  0.0000  0.0099  0.0000  0.0000
  23. Cl 2 (pz)     0.0000  0.0000  0.8334 -0.2902  0.0000  0.0000  0.0000  0.0000
  24. Cl 2 (s)      0.0000  0.0000  0.0133  0.0466  0.0000  0.0000  0.0000  0.0000
  25. Cl 2 (px)     1.3929  0.0000  0.0000  0.0000 -0.0160  0.0000  0.0000  0.0000
  26. Cl 2 (py)     0.0000  1.3929  0.0000  0.0000  0.0000 -0.0160  0.0000  0.0000
  27. Cl 2 (pz)     0.0000  0.0000  0.8897 -0.3010  0.0000  0.0000  0.0000  0.0000
  28. Cl 2 (d5)     0.0000  0.0000 -0.3010  0.1092  0.0000  0.0000  0.0000  0.0000
  29. Cl 2 (d2)    -0.0160  0.0000  0.0000  0.0000  0.0273  0.0000  0.0000  0.0000
  30. Cl 2 (d3)     0.0000 -0.0160  0.0000  0.0000  0.0000  0.0273  0.0000  0.0000
  31. Cl 2 (d4)     0.0000  0.0000  0.0000  0.0000  0.0000  0.0000  0.0000  0.0000
  32. Cl 2 (d1)     0.0000  0.0000  0.0000  0.0000  0.0000  0.0000  0.0000  0.0000


 MO density matrix:

      MO     1       2       3       4       5       6       7       8       9
     ---- ------  ------  ------  ------  ------  ------  ------  ------  ------
   1.     2.0000  0.0000  0.0000  0.0000  0.0000  0.0000  0.0000  0.0000  0.0000
   2.     0.0000  2.0000  0.0000  0.0000  0.0000  0.0000  0.0000  0.0000  0.0000
   3.     0.0000  0.0000  2.0000  0.0000  0.0000  0.0000  0.0000  0.0000  0.0000
   4.     0.0000  0.0000  0.0000  2.0000  0.0000  0.0000  0.0000  0.0000  0.0000
   5.     0.0000  0.0000  0.0000  0.0000  2.0000  0.0000  0.0000  0.0000  0.0000
   6.     0.0000  0.0000  0.0000  0.0000  0.0000  2.0000  0.0000  0.0000  0.0000
   7.     0.0000  0.0000  0.0000  0.0000  0.0000  0.0000  2.0000  0.0000  0.0000
   8.     0.0000  0.0000  0.0000  0.0000  0.0000  0.0000  0.0000  2.0000  0.0000
   9.     0.0000  0.0000  0.0000  0.0000  0.0000  0.0000  0.0000  0.0000  2.0000
  10.     0.0000  0.0000  0.0000  0.0000  0.0000  0.0000  0.0000  0.0000  0.0000
  11.     0.0000  0.0000  0.0000  0.0000  0.0000  0.0000  0.0000  0.0000  0.0000
  12.     0.0000  0.0000  0.0000  0.0000  0.0000  0.0000  0.0000  0.0000  0.0000
  13.     0.0000  0.0000  0.0000  0.0000  0.0000  0.0000  0.0000  0.0000  0.0000
  14.     0.0000  0.0000  0.0000  0.0000  0.0000  0.0000  0.0000  0.0000  0.0000
  15.     0.0000  0.0000  0.0000  0.0000  0.0000  0.0000  0.0000  0.0000  0.0000
  16.     0.0000  0.0000  0.0000  0.0000  0.0000  0.0000  0.0000  0.0000  0.0000
  17.     0.0000  0.0000  0.0000  0.0000  0.0000  0.0000  0.0000  0.0000  0.0000
  18.     0.0000  0.0000  0.0000  0.0000  0.0000  0.0000  0.0000  0.0000  0.0000
  19.     0.0000  0.0000  0.0000  0.0000  0.0000  0.0000  0.0000  0.0000  0.0000
  20.     0.0000  0.0000  0.0000  0.0000  0.0000  0.0000  0.0000  0.0000  0.0000
  21.     0.0000  0.0000  0.0000  0.0000  0.0000  0.0000  0.0000  0.0000  0.0000
  22.     0.0000  0.0000  0.0000  0.0000  0.0000  0.0000  0.0000  0.0000  0.0000
  23.     0.0000  0.0000  0.0000  0.0000  0.0000  0.0000  0.0000  0.0000  0.0000
  24.     0.0000  0.0000  0.0000  0.0000  0.0000  0.0000  0.0000  0.0000  0.0000
  25.     0.0000  0.0000  0.0000  0.0000  0.0000  0.0000  0.0000  0.0000  0.0000
  26.     0.0000  0.0000  0.0000  0.0000  0.0000  0.0000  0.0000  0.0000  0.0000
  27.     0.0000  0.0000  0.0000  0.0000  0.0000  0.0000  0.0000  0.0000  0.0000
  28.     0.0000  0.0000  0.0000  0.0000  0.0000  0.0000  0.0000  0.0000  0.0000
  29.     0.0000  0.0000  0.0000  0.0000  0.0000  0.0000  0.0000  0.0000  0.0000
  30.     0.0000  0.0000  0.0000  0.0000  0.0000  0.0000  0.0000  0.0000  0.0000
  31.     0.0000  0.0000  0.0000  0.0000  0.0000  0.0000  0.0000  0.0000  0.0000
  32.     0.0000  0.0000  0.0000  0.0000  0.0000  0.0000  0.0000  0.0000  0.0000

      MO    10      11      12      13      14      15      16      17      18
     ---- ------  ------  ------  ------  ------  ------  ------  ------  ------
   1.     0.0000  0.0000  0.0000  0.0000  0.0000  0.0000  0.0000  0.0000  0.0000
   2.     0.0000  0.0000  0.0000  0.0000  0.0000  0.0000  0.0000  0.0000  0.0000
   3.     0.0000  0.0000  0.0000  0.0000  0.0000  0.0000  0.0000  0.0000  0.0000
   4.     0.0000  0.0000  0.0000  0.0000  0.0000  0.0000  0.0000  0.0000  0.0000
   5.     0.0000  0.0000  0.0000  0.0000  0.0000  0.0000  0.0000  0.0000  0.0000
   6.     0.0000  0.0000  0.0000  0.0000  0.0000  0.0000  0.0000  0.0000  0.0000
   7.     0.0000  0.0000  0.0000  0.0000  0.0000  0.0000  0.0000  0.0000  0.0000
   8.     0.0000  0.0000  0.0000  0.0000  0.0000  0.0000  0.0000  0.0000  0.0000
   9.     0.0000  0.0000  0.0000  0.0000  0.0000  0.0000  0.0000  0.0000  0.0000
  10.     2.0000  0.0000  0.0000  0.0000  0.0000  0.0000  0.0000  0.0000  0.0000
  11.     0.0000  2.0000  0.0000  0.0000  0.0000  0.0000  0.0000  0.0000  0.0000
  12.     0.0000  0.0000  2.0000  0.0000  0.0000  0.0000  0.0000  0.0000  0.0000
  13.     0.0000  0.0000  0.0000  2.0000  0.0000  0.0000  0.0000  0.0000  0.0000
  14.     0.0000  0.0000  0.0000  0.0000  0.0000  0.0000  0.0000  0.0000  0.0000
  15.     0.0000  0.0000  0.0000  0.0000  0.0000  0.0000  0.0000  0.0000  0.0000
  16.     0.0000  0.0000  0.0000  0.0000  0.0000  0.0000  0.0000  0.0000  0.0000
  17.     0.0000  0.0000  0.0000  0.0000  0.0000  0.0000  0.0000  0.0000  0.0000
  18.     0.0000  0.0000  0.0000  0.0000  0.0000  0.0000  0.0000  0.0000  0.0000
  19.     0.0000  0.0000  0.0000  0.0000  0.0000  0.0000  0.0000  0.0000  0.0000
  20.     0.0000  0.0000  0.0000  0.0000  0.0000  0.0000  0.0000  0.0000  0.0000
  21.     0.0000  0.0000  0.0000  0.0000  0.0000  0.0000  0.0000  0.0000  0.0000
  22.     0.0000  0.0000  0.0000  0.0000  0.0000  0.0000  0.0000  0.0000  0.0000
  23.     0.0000  0.0000  0.0000  0.0000  0.0000  0.0000  0.0000  0.0000  0.0000
  24.     0.0000  0.0000  0.0000  0.0000  0.0000  0.0000  0.0000  0.0000  0.0000
  25.     0.0000  0.0000  0.0000  0.0000  0.0000  0.0000  0.0000  0.0000  0.0000
  26.     0.0000  0.0000  0.0000  0.0000  0.0000  0.0000  0.0000  0.0000  0.0000
  27.     0.0000  0.0000  0.0000  0.0000  0.0000  0.0000  0.0000  0.0000  0.0000
  28.     0.0000  0.0000  0.0000  0.0000  0.0000  0.0000  0.0000  0.0000  0.0000
  29.     0.0000  0.0000  0.0000  0.0000  0.0000  0.0000  0.0000  0.0000  0.0000
  30.     0.0000  0.0000  0.0000  0.0000  0.0000  0.0000  0.0000  0.0000  0.0000
  31.     0.0000  0.0000  0.0000  0.0000  0.0000  0.0000  0.0000  0.0000  0.0000
  32.     0.0000  0.0000  0.0000  0.0000  0.0000  0.0000  0.0000  0.0000  0.0000

      MO    19      20      21      22      23      24      25      26      27
     ---- ------  ------  ------  ------  ------  ------  ------  ------  ------
   1.     0.0000  0.0000  0.0000  0.0000  0.0000  0.0000  0.0000  0.0000  0.0000
   2.     0.0000  0.0000  0.0000  0.0000  0.0000  0.0000  0.0000  0.0000  0.0000
   3.     0.0000  0.0000  0.0000  0.0000  0.0000  0.0000  0.0000  0.0000  0.0000
   4.     0.0000  0.0000  0.0000  0.0000  0.0000  0.0000  0.0000  0.0000  0.0000
   5.     0.0000  0.0000  0.0000  0.0000  0.0000  0.0000  0.0000  0.0000  0.0000
   6.     0.0000  0.0000  0.0000  0.0000  0.0000  0.0000  0.0000  0.0000  0.0000
   7.     0.0000  0.0000  0.0000  0.0000  0.0000  0.0000  0.0000  0.0000  0.0000
   8.     0.0000  0.0000  0.0000  0.0000  0.0000  0.0000  0.0000  0.0000  0.0000
   9.     0.0000  0.0000  0.0000  0.0000  0.0000  0.0000  0.0000  0.0000  0.0000
  10.     0.0000  0.0000  0.0000  0.0000  0.0000  0.0000  0.0000  0.0000  0.0000
  11.     0.0000  0.0000  0.0000  0.0000  0.0000  0.0000  0.0000  0.0000  0.0000
  12.     0.0000  0.0000  0.0000  0.0000  0.0000  0.0000  0.0000  0.0000  0.0000
  13.     0.0000  0.0000  0.0000  0.0000  0.0000  0.0000  0.0000  0.0000  0.0000
  14.     0.0000  0.0000  0.0000  0.0000  0.0000  0.0000  0.0000  0.0000  0.0000
  15.     0.0000  0.0000  0.0000  0.0000  0.0000  0.0000  0.0000  0.0000  0.0000
  16.     0.0000  0.0000  0.0000  0.0000  0.0000  0.0000  0.0000  0.0000  0.0000
  17.     0.0000  0.0000  0.0000  0.0000  0.0000  0.0000  0.0000  0.0000  0.0000
  18.     0.0000  0.0000  0.0000  0.0000  0.0000  0.0000  0.0000  0.0000  0.0000
  19.     0.0000  0.0000  0.0000  0.0000  0.0000  0.0000  0.0000  0.0000  0.0000
  20.     0.0000  0.0000  0.0000  0.0000  0.0000  0.0000  0.0000  0.0000  0.0000
  21.     0.0000  0.0000  0.0000  0.0000  0.0000  0.0000  0.0000  0.0000  0.0000
  22.     0.0000  0.0000  0.0000  0.0000  0.0000  0.0000  0.0000  0.0000  0.0000
  23.     0.0000  0.0000  0.0000  0.0000  0.0000  0.0000  0.0000  0.0000  0.0000
  24.     0.0000  0.0000  0.0000  0.0000  0.0000  0.0000  0.0000  0.0000  0.0000
  25.     0.0000  0.0000  0.0000  0.0000  0.0000  0.0000  0.0000  0.0000  0.0000
  26.     0.0000  0.0000  0.0000  0.0000  0.0000  0.0000  0.0000  0.0000  0.0000
  27.     0.0000  0.0000  0.0000  0.0000  0.0000  0.0000  0.0000  0.0000  0.0000
  28.     0.0000  0.0000  0.0000  0.0000  0.0000  0.0000  0.0000  0.0000  0.0000
  29.     0.0000  0.0000  0.0000  0.0000  0.0000  0.0000  0.0000  0.0000  0.0000
  30.     0.0000  0.0000  0.0000  0.0000  0.0000  0.0000  0.0000  0.0000  0.0000
  31.     0.0000  0.0000  0.0000  0.0000  0.0000  0.0000  0.0000  0.0000  0.0000
  32.     0.0000  0.0000  0.0000  0.0000  0.0000  0.0000  0.0000  0.0000  0.0000

      MO    28      29      30      31      32
     ---- ------  ------  ------  ------  ------
   1.     0.0000  0.0000  0.0000  0.0000  0.0000
   2.     0.0000  0.0000  0.0000  0.0000  0.0000
   3.     0.0000  0.0000  0.0000  0.0000  0.0000
   4.     0.0000  0.0000  0.0000  0.0000  0.0000
   5.     0.0000  0.0000  0.0000  0.0000  0.0000
   6.     0.0000  0.0000  0.0000  0.0000  0.0000
   7.     0.0000  0.0000  0.0000  0.0000  0.0000
   8.     0.0000  0.0000  0.0000  0.0000  0.0000
   9.     0.0000  0.0000  0.0000  0.0000  0.0000
  10.     0.0000  0.0000  0.0000  0.0000  0.0000
  11.     0.0000  0.0000  0.0000  0.0000  0.0000
  12.     0.0000  0.0000  0.0000  0.0000  0.0000
  13.     0.0000  0.0000  0.0000  0.0000  0.0000
  14.     0.0000  0.0000  0.0000  0.0000  0.0000
  15.     0.0000  0.0000  0.0000  0.0000  0.0000
  16.     0.0000  0.0000  0.0000  0.0000  0.0000
  17.     0.0000  0.0000  0.0000  0.0000  0.0000
  18.     0.0000  0.0000  0.0000  0.0000  0.0000
  19.     0.0000  0.0000  0.0000  0.0000  0.0000
  20.     0.0000  0.0000  0.0000  0.0000  0.0000
  21.     0.0000  0.0000  0.0000  0.0000  0.0000
  22.     0.0000  0.0000  0.0000  0.0000  0.0000
  23.     0.0000  0.0000  0.0000  0.0000  0.0000
  24.     0.0000  0.0000  0.0000  0.0000  0.0000
  25.     0.0000  0.0000  0.0000  0.0000  0.0000
  26.     0.0000  0.0000  0.0000  0.0000  0.0000
  27.     0.0000  0.0000  0.0000  0.0000  0.0000
  28.     0.0000  0.0000  0.0000  0.0000  0.0000
  29.     0.0000  0.0000  0.0000  0.0000  0.0000
  30.     0.0000  0.0000  0.0000  0.0000  0.0000
  31.     0.0000  0.0000  0.0000  0.0000  0.0000
  32.     0.0000  0.0000  0.0000  0.0000  0.0000


 NATURAL POPULATIONS:  Natural atomic orbital occupancies

  NAO Atom No lang   Type(AO)    Occupancy      Energy
 -------------------------------------------------------
   1    F  1  s      Cor( 1s)     2.00000     -26.34996
   2    F  1  s      Val( 2s)     1.93809      -1.51345
   3    F  1  s      Ryd( 3s)     0.00019       2.17418
   4    F  1  px     Val( 2p)     1.99640      -0.67986
   5    F  1  px     Ryd( 3p)     0.00041       1.49896
   6    F  1  py     Val( 2p)     1.99640      -0.67986
   7    F  1  py     Ryd( 3p)     0.00041       1.49896
   8    F  1  pz     Val( 2p)     1.42091      -0.48526
   9    F  1  pz     Ryd( 3p)     0.00107       1.67002
  10    F  1  dxy    Ryd( 3d)     0.00000       2.11157
  11    F  1  dxz    Ryd( 3d)     0.00146       2.12238
  12    F  1  dyz    Ryd( 3d)     0.00146       2.12238
  13    F  1  dx2y2  Ryd( 3d)     0.00000       2.11157
  14    F  1  dz2    Ryd( 3d)     0.00635       2.34106

  15   Cl  2  s      Cor( 1s)     2.00000     -96.48944
  16   Cl  2  s      Cor( 2s)     2.00000     -19.08223
  17   Cl  2  s      Val( 3s)     1.92902      -1.05876
  18   Cl  2  s      Ryd( 4s)     0.00444       0.52359
  19   Cl  2  px     Cor( 2p)     2.00000      -8.11450
  20   Cl  2  px     Val( 3p)     1.99908      -0.51673
  21   Cl  2  px     Ryd( 4p)     0.00059       0.60440
  22   Cl  2  py     Cor( 2p)     2.00000      -8.11450
  23   Cl  2  py     Val( 3p)     1.99908      -0.51673
  24   Cl  2  py     Ryd( 4p)     0.00059       0.60440
  25   Cl  2  pz     Cor( 2p)     1.99999      -8.12017
  26   Cl  2  pz     Val( 3p)     0.68555      -0.21216
  27   Cl  2  pz     Ryd( 4p)     0.00549       0.64082
  28   Cl  2  dxy    Ryd( 3d)     0.00000       1.09037
  29   Cl  2  dxz    Ryd( 3d)     0.00206       1.15464
  30   Cl  2  dyz    Ryd( 3d)     0.00206       1.15464
  31   Cl  2  dx2y2  Ryd( 3d)     0.00000       1.09037
  32   Cl  2  dz2    Ryd( 3d)     0.00890       1.32885


 Summary of Natural Population Analysis:

                                     Natural Population
             Natural    ---------------------------------------------
  Atom No    Charge        Core      Valence    Rydberg      Total
 --------------------------------------------------------------------
    F  1   -0.36313      2.00000     7.35180    0.01133     9.36313
   Cl  2    0.36313      9.99999     6.61274    0.02415    16.63687
 ====================================================================
 * Total *  0.00000     11.99998    13.96454    0.03548    26.00000

                                 Natural Population
 ---------------------------------------------------------
   Core                      11.99998 ( 99.9999% of   12)
   Valence                   13.96454 ( 99.7467% of   14)
   Natural Minimal Basis     25.96452 ( 99.8635% of   26)
   Natural Rydberg Basis      0.03548 (  0.1365% of   26)
 ---------------------------------------------------------

    Atom No         Natural Electron Configuration
 ----------------------------------------------------------------------------
      F  1      [core]2s( 1.94)2p( 5.41)3d( 0.01)
     Cl  2      [core]3s( 1.93)3p( 4.68)3d( 0.01)4p( 0.01)


 PNAOs in the AO basis:

           AO          1       2       3       4       5       6       7       8
      ------------ ------- ------- ------- ------- ------- ------- ------- -------
   1.  F 1 (s)      0.9941 -0.2453 -0.1252  0.0000  0.0000  0.0000  0.0000  0.0000
   2.  F 1 (s)      0.0237  0.5151  1.4867  0.0000  0.0000  0.0000  0.0000  0.0000
   3.  F 1 (px)     0.0000  0.0000  0.0000  0.6100 -0.9800  0.0000  0.0000  0.0000
   4.  F 1 (py)     0.0000  0.0000  0.0000  0.0000  0.0000  0.6100 -0.9800  0.0000
   5.  F 1 (pz)     0.0000  0.0000  0.0000  0.0000  0.0000  0.0000  0.0000  0.6100
   6.  F 1 (s)     -0.0007  0.5759 -1.4379  0.0000  0.0000  0.0000  0.0000  0.0000
   7.  F 1 (px)     0.0000  0.0000  0.0000  0.5443  1.0179  0.0000  0.0000  0.0000
   8.  F 1 (py)     0.0000  0.0000  0.0000  0.0000  0.0000  0.5443  1.0179  0.0000
   9.  F 1 (pz)     0.0000  0.0000  0.0000  0.0000  0.0000  0.0000  0.0000  0.5443
  10.  F 1 (d5)     0.0000  0.0000  0.0000  0.0000  0.0000  0.0000  0.0000  0.0000
  11.  F 1 (d2)     0.0000  0.0000  0.0000  0.0000  0.0000  0.0000  0.0000  0.0000
  12.  F 1 (d3)     0.0000  0.0000  0.0000  0.0000  0.0000  0.0000  0.0000  0.0000
  13.  F 1 (d4)     0.0000  0.0000  0.0000  0.0000  0.0000  0.0000  0.0000  0.0000
  14.  F 1 (d1)     0.0000  0.0000  0.0000  0.0000  0.0000  0.0000  0.0000  0.0000
  15. Cl 2 (s)      0.0000  0.0000  0.0000  0.0000  0.0000  0.0000  0.0000  0.0000
  16. Cl 2 (s)      0.0000  0.0000  0.0000  0.0000  0.0000  0.0000  0.0000  0.0000
  17. Cl 2 (px)     0.0000  0.0000  0.0000  0.0000  0.0000  0.0000  0.0000  0.0000
  18. Cl 2 (py)     0.0000  0.0000  0.0000  0.0000  0.0000  0.0000  0.0000  0.0000
  19. Cl 2 (pz)     0.0000  0.0000  0.0000  0.0000  0.0000  0.0000  0.0000  0.0000
  20. Cl 2 (s)      0.0000  0.0000  0.0000  0.0000  0.0000  0.0000  0.0000  0.0000
  21. Cl 2 (px)     0.0000  0.0000  0.0000  0.0000  0.0000  0.0000  0.0000  0.0000
  22. Cl 2 (py)     0.0000  0.0000  0.0000  0.0000  0.0000  0.0000  0.0000  0.0000
  23. Cl 2 (pz)     0.0000  0.0000  0.0000  0.0000  0.0000  0.0000  0.0000  0.0000
  24. Cl 2 (s)      0.0000  0.0000  0.0000  0.0000  0.0000  0.0000  0.0000  0.0000
  25. Cl 2 (px)     0.0000  0.0000  0.0000  0.0000  0.0000  0.0000  0.0000  0.0000
  26. Cl 2 (py)     0.0000  0.0000  0.0000  0.0000  0.0000  0.0000  0.0000  0.0000
  27. Cl 2 (pz)     0.0000  0.0000  0.0000  0.0000  0.0000  0.0000  0.0000  0.0000
  28. Cl 2 (d5)     0.0000  0.0000  0.0000  0.0000  0.0000  0.0000  0.0000  0.0000
  29. Cl 2 (d2)     0.0000  0.0000  0.0000  0.0000  0.0000  0.0000  0.0000  0.0000
  30. Cl 2 (d3)     0.0000  0.0000  0.0000  0.0000  0.0000  0.0000  0.0000  0.0000
  31. Cl 2 (d4)     0.0000  0.0000  0.0000  0.0000  0.0000  0.0000  0.0000  0.0000
  32. Cl 2 (d1)     0.0000  0.0000  0.0000  0.0000  0.0000  0.0000  0.0000  0.0000

           AO          9      10      11      12      13      14      15      16
      ------------ ------- ------- ------- ------- ------- ------- ------- -------
   1.  F 1 (s)      0.0000  0.0000  0.0000  0.0000  0.0000  0.0000  0.0000  0.0000
   2.  F 1 (s)      0.0000  0.0000  0.0000  0.0000  0.0000  0.0000  0.0000  0.0000
   3.  F 1 (px)     0.0000  0.0000  0.0000  0.0000  0.0000  0.0000  0.0000  0.0000
   4.  F 1 (py)     0.0000  0.0000  0.0000  0.0000  0.0000  0.0000  0.0000  0.0000
   5.  F 1 (pz)    -0.9800  0.0000  0.0000  0.0000  0.0000  0.0000  0.0000  0.0000
   6.  F 1 (s)      0.0000  0.0000  0.0000  0.0000  0.0000  0.0000  0.0000  0.0000
   7.  F 1 (px)     0.0000  0.0000  0.0000  0.0000  0.0000  0.0000  0.0000  0.0000
   8.  F 1 (py)     0.0000  0.0000  0.0000  0.0000  0.0000  0.0000  0.0000  0.0000
[...]
           NBO accepted:    2. Label:LP ( 1)   1
      Eigenvector ( 3) has occupancy 1.99779
            0.0000 0.0000 1.0000 0.0000 0.0000 0.0000 0.0000 0.0000
            0.0000 0.0000 0.0000 0.0000 0.0000 0.0000
           NBO accepted:    3. Label:LP ( 2)   1
      Eigenvector ( 4) has occupancy 1.99779
            0.0000 0.0000 0.0000 1.0000 0.0000 0.0000 0.0000 0.0000
            0.0000 0.0000 0.0000 0.0000 0.0000 0.0000
           NBO accepted:    4. Label:LP ( 3)   1
        4 eigenvector(s) stashed in permanent list

 Search of NHO DM block for the following atom(s):   2
      Select eigenvectors with eigenvalue > 1.900
       2.000 2.000 2.000 2.000 2.000 2.000 2.000 2.000 0.002 0.002 0.000 0.000
       0.000 0.000 0.000 0.000 0.000 0.000
      Eigenvector ( 1) has occupancy 2.00000
            1.0000 0.0000 0.0000 0.0000 0.0000 0.0000 0.0000 0.0000
            0.0000 0.0000 0.0000 0.0000 0.0000 0.0000 0.0000 0.0000
            0.0000 0.0000
           NBO accepted:    5. Label:CR ( 1)   2
      Eigenvector ( 2) has occupancy 2.00000
            0.0000 0.0000 1.0000 0.0000 0.0000 0.0000 0.0000 0.0000
            0.0000 0.0000 0.0000 0.0000 0.0000 0.0000 0.0000 0.0000
            0.0000 0.0000
           NBO accepted:    6. Label:CR ( 2)   2
      Eigenvector ( 3) has occupancy 2.00000
            0.0000 0.0000 0.0000 1.0000 0.0000 0.0000 0.0000 0.0000
            0.0000 0.0000 0.0000 0.0000 0.0000 0.0000 0.0000 0.0000
            0.0000 0.0000
           NBO accepted:    7. Label:CR ( 3)   2
      Eigenvector ( 4) has occupancy 2.00000
            0.0000 1.0000 0.0000 0.0000 0.0000 0.0000 0.0000 0.0000
            0.0000 0.0000 0.0000 0.0000 0.0000 0.0000 0.0000 0.0000
            0.0000 0.0000
           NBO accepted:    8. Label:CR ( 4)   2
      Eigenvector ( 5) has occupancy 1.99999
            0.0000 0.0000 0.0000 0.0000 1.0000 0.0000 0.0000 0.0000
            0.0000 0.0000 0.0000 0.0000 0.0000 0.0000 0.0000 0.0000
            0.0000 0.0000
           NBO accepted:    9. Label:CR ( 5)   2
      Eigenvector ( 6) has occupancy 1.99966
            0.0000 0.0000 0.0000 0.0000 0.0000 1.0000 0.0000 0.0000
            0.0000 0.0000 0.0000 0.0000 0.0000 0.0000 0.0000 0.0000
            0.0000 0.0000
           NBO accepted:   10. Label:LP ( 1)   2
      Eigenvector ( 7) has occupancy 1.99952
            0.0000 0.0000 0.0000 0.0000 0.0000 0.0000 1.0000 0.0000
            0.0000 0.0000 0.0000 0.0000 0.0000 0.0000 0.0000 0.0000
            0.0000 0.0000
           NBO accepted:   11. Label:LP ( 2)   2
      Eigenvector ( 8) has occupancy 1.99952
            0.0000 0.0000 0.0000 0.0000 0.0000 0.0000 0.0000 1.0000
            0.0000 0.0000 0.0000 0.0000 0.0000 0.0000 0.0000 0.0000
            0.0000 0.0000
           NBO accepted:   12. Label:LP ( 3)   2
        8 eigenvector(s) stashed in permanent list

  1-center NBOs projected from the NHO density matrix
       2.006 electrons remain (>1.900); search continues

 Search of NHO DM block for the following atom(s):   1   2
      Select eigenvectors with eigenvalue > 1.900
       2.000 0.000 0.000 0.000 0.000 0.000 0.000 0.000 0.000 0.000 0.000 0.000
       0.000 0.000 0.000 0.000 0.000 0.000 0.000 0.000 0.000 0.000 0.000 0.000
       0.000 0.000 0.000 0.000 0.000 0.000 0.000 0.000
      Eigenvector ( 1) has occupancy 2.00000
            0.0000 0.0000 0.0000 0.0000 0.8265 0.0000 0.0000 0.0000
            0.0000 0.0000 0.0000 0.0000 0.0000 0.0000 0.0000 0.0000
            0.0000 0.0000 0.0000 0.0000 0.0000 0.0000 0.5629 0.0000
            0.0000 0.0000 0.0000 0.0000 0.0000 0.0000 0.0000 0.0000
      Occupancy is 2.000 after deleting minor hybrid components
            0.0000 0.0000 0.0000 0.0000 0.8265 0.0000 0.0000 0.0000
            0.0000 0.0000 0.0000 0.0000 0.0000 0.0000 0.0000 0.0000
            0.0000 0.0000 0.0000 0.0000 0.0000 0.0000 0.5629 0.0000
            0.0000 0.0000 0.0000 0.0000 0.0000 0.0000 0.0000 0.0000
           NBO accepted:   13. Label:BD ( 1)   1   2
      Occupancy is 0.000 for antibonding component
            0.0000 0.0000 0.0000 0.0000-0.5629 0.0000 0.0000 0.0000
            0.0000 0.0000 0.0000 0.0000 0.0000 0.0000 0.0000 0.0000
            0.0000 0.0000 0.0000 0.0000 0.0000 0.0000 0.8265 0.0000
            0.0000 0.0000 0.0000 0.0000 0.0000 0.0000 0.0000 0.0000
           NBO accepted:   14. Label:BD*( 1)   1   2
        2 eigenvector(s) stashed in permanent list

  2-center NBOs projected from the NHO density matrix
       0.006 electrons remain in the fully projected matrix

                            Occupancies       Lewis Structure    Low   High
         Max    Occ     -------------------  -----------------   occ   occ
  Cycle  Ctr   Thresh    Lewis   non-Lewis     CR  BD  nC  LP    (L)   (NL)
 ============================================================================
    1     2     1.90    25.99421   0.00579      6   1   0   6     0      0
 ----------------------------------------------------------------------------

 Structure accepted: No low occupancy Lewis orbitals

 -------------------------------------------------------
   Core                     11.99998 (100.000% of  12)
   Valence Lewis            13.99422 ( 99.959% of  14)
  ==================      =============================
   Total Lewis              25.99421 ( 99.978% of  26)
  -----------------------------------------------------
   Valence non-Lewis         0.00000 (  0.000% of  26)
   Rydberg non-Lewis         0.00579 (  0.022% of  26)
  ==================      =============================
   Total non-Lewis           0.00579 (  0.022% of  26)
 -------------------------------------------------------


     (Occupancy)   Bond orbital / Coefficients / Hybrids
 ------------------ Lewis ------------------------------------------------------
   1. (2.00000) CR ( 1) F  1            s(100.00%)
                                         1.0000  0.0000  0.0000  0.0000  0.0000
                                         0.0000  0.0000  0.0000  0.0000  0.0000
                                         0.0000  0.0000  0.0000  0.0000
   2. (2.00000) CR ( 1)Cl  2            s(100.00%)
                                         1.0000  0.0000  0.0000  0.0000  0.0000
                                         0.0000  0.0000  0.0000  0.0000  0.0000
                                         0.0000  0.0000  0.0000  0.0000  0.0000
                                         0.0000  0.0000  0.0000
   3. (2.00000) CR ( 2)Cl  2            s(100.00%)
                                         0.0000  1.0000  0.0000  0.0000  0.0000
                                         0.0000  0.0000  0.0000  0.0000  0.0000
                                         0.0000  0.0000  0.0000  0.0000  0.0000
                                         0.0000  0.0000  0.0000
   4. (2.00000) CR ( 3)Cl  2            s(  0.00%)p 1.00(100.00%)
                                         0.0000  0.0000  0.0000  0.0000  1.0000
                                         0.0000  0.0000  0.0000  0.0000  0.0000
                                         0.0000  0.0000  0.0000  0.0000  0.0000
                                         0.0000  0.0000  0.0000
   5. (2.00000) CR ( 4)Cl  2            s(  0.00%)p 1.00(100.00%)
                                         0.0000  0.0000  0.0000  0.0000  0.0000
                                         0.0000  0.0000  1.0000  0.0000  0.0000
                                         0.0000  0.0000  0.0000  0.0000  0.0000
                                         0.0000  0.0000  0.0000
   6. (1.99999) CR ( 5)Cl  2            s(  0.00%)p 1.00(100.00%)
                                         0.0000  0.0000  0.0000  0.0000  0.0000
                                         0.0000  0.0000  0.0000  0.0000  0.0000
                                         1.0000  0.0000  0.0000  0.0000  0.0000
                                         0.0000  0.0000  0.0000
   7. (1.99995) LP ( 1) F  1            s( 90.33%)p 0.11(  9.67%)d 0.00(  0.00%)
                                         0.0000  0.9504  0.0005  0.0000  0.0000
                                         0.0000  0.0000 -0.3109  0.0052  0.0000
                                         0.0000  0.0000  0.0000 -0.0055
   8. (1.99779) LP ( 2) F  1            s(  0.00%)p 1.00( 99.94%)d 0.00(  0.06%)
                                         0.0000  0.0000  0.0000  0.8671 -0.0063
                                         0.4974 -0.0036  0.0000  0.0000  0.0000
                                         0.0220  0.0126  0.0000  0.0000
   9. (1.99779) LP ( 3) F  1            s(  0.00%)p 1.00( 99.94%)d 0.00(  0.06%)
                                         0.0000  0.0000  0.0000 -0.4974  0.0036
                                         0.8671 -0.0063  0.0000  0.0000  0.0000
                                        -0.0126  0.0220  0.0000  0.0000
  10. (1.99966) LP ( 1)Cl  2            s( 94.85%)p 0.05(  5.11%)d 0.00(  0.04%)
                                         0.0000  0.0000  0.9739  0.0061  0.0000
                                         0.0000  0.0000  0.0000  0.0000  0.0000
                                         0.0000  0.2260 -0.0050  0.0000  0.0000
                                         0.0000  0.0000 -0.0188
  11. (1.99952) LP ( 2)Cl  2            s(  0.00%)p 1.00(100.00%)d 0.00(  0.00%)
                                         0.0000  0.0000  0.0000  0.0000  0.0000
                                         0.9999  0.0147  0.0000 -0.0011  0.0000
                                         0.0000  0.0000  0.0000  0.0000  0.0025
                                         0.0000  0.0000  0.0000
  12. (1.99952) LP ( 3)Cl  2            s(  0.00%)p 1.00(100.00%)d 0.00(  0.00%)
                                         0.0000  0.0000  0.0000  0.0000  0.0000
                                         0.0011  0.0000  0.0000  0.9999  0.0147
                                         0.0000  0.0000  0.0000  0.0000  0.0000
                                         0.0025  0.0000  0.0000
  13. (2.00000) BD ( 1) F  1-Cl  2
               ( 68.32%)   0.8265* F  1 s(  9.63%)p 9.33( 89.91%)d 0.05(  0.46%)
                                         0.0000  0.3104 -0.0021  0.0000  0.0000
                                         0.0000  0.0000  0.9479  0.0249  0.0000
                                         0.0000  0.0000  0.0000  0.0678
               ( 31.68%)   0.5629*Cl  2 s(  5.78%)p16.07( 92.93%)d 0.22(  1.29%)
                                         0.0000  0.0000  0.2258 -0.0827  0.0000
                                         0.0000  0.0000  0.0000  0.0000  0.0000
                                         0.0000 -0.9595  0.0926  0.0000  0.0000
                                         0.0000  0.0000  0.1135
 ---------------- non-Lewis ----------------------------------------------------
  14. (0.00000) BD*( 1) F  1-Cl  2
               ( 31.68%)   0.5629* F  1 s(  9.63%)p 9.33( 89.91%)d 0.05(  0.46%)
               ( 68.32%)  -0.8265*Cl  2 s(  5.78%)p16.07( 92.93%)d 0.22(  1.29%)
  15. (0.00048) RY ( 1) F  1            s(  0.00%)p 1.00( 63.11%)d 0.58( 36.89%)
                                         0.0000  0.0000  0.0000  0.0211  0.7931
                                        -0.0011 -0.0413  0.0000  0.0000  0.0000
                                        -0.6065  0.0316  0.0000  0.0000
  16. (0.00048) RY ( 2) F  1            s(  0.00%)p 1.00( 63.11%)d 0.58( 36.89%)
                                         0.0000  0.0000  0.0000  0.0011  0.0413
                                         0.0211  0.7931  0.0000  0.0000  0.0000
                                        -0.0316 -0.6065  0.0000  0.0000
  17. (0.00034) RY ( 3) F  1            s( 52.10%)p 0.92( 47.87%)d 0.00(  0.03%)
                                         0.0000  0.0093  0.7217  0.0000  0.0000
                                         0.0000  0.0000  0.0180 -0.6917  0.0000
                                         0.0000  0.0000  0.0000 -0.0175
  18. (0.00000) RY ( 4) F  1            s(  8.85%)p 0.97(  8.55%)d 9.34( 82.60%)
  19. (0.00000) RY ( 5) F  1            s(  0.00%)p 1.00( 36.95%)d 1.71( 63.05%)
  20. (0.00000) RY ( 6) F  1            s(  0.00%)p 1.00( 36.95%)d 1.71( 63.05%)
  21. (0.00000) RY ( 7) F  1            s(  0.00%)p 0.00(  0.00%)d 1.00(100.00%)
  22. (0.00000) RY ( 8) F  1            s(  0.00%)p 0.00(  0.00%)d 1.00(100.00%)
  23. (0.00000) RY ( 9) F  1            s( 39.10%)p 1.13( 44.00%)d 0.43( 16.90%)
  24. (0.00221) RY ( 1)Cl  2            s(  0.00%)p 1.00(  7.34%)d12.63( 92.66%)
                                         0.0000  0.0000  0.0000  0.0000  0.0000
                                        -0.0063  0.2708  0.0000 -0.0001  0.0030
                                         0.0000  0.0000  0.0000  0.0000  0.9625
                                         0.0107  0.0000  0.0000
  25. (0.00221) RY ( 2)Cl  2            s(  0.00%)p 1.00(  7.34%)d12.63( 92.66%)
                                         0.0000  0.0000  0.0000  0.0000  0.0000
                                         0.0001 -0.0030  0.0000 -0.0063  0.2708
                                         0.0000  0.0000  0.0000  0.0000 -0.0107
                                         0.9625  0.0000  0.0000
  26. (0.00005) RY ( 3)Cl  2            s( 56.70%)p 0.10(  5.62%)d 0.66( 37.68%)
  27. (0.00000) RY ( 4)Cl  2            s( 28.81%)p 1.85( 53.21%)d 0.62( 17.98%)
  28. (0.00000) RY ( 5)Cl  2            s(  0.00%)p 1.00( 92.66%)d 0.08(  7.34%)
  29. (0.00000) RY ( 6)Cl  2            s(  0.00%)p 1.00( 92.66%)d 0.08(  7.34%)
  30. (0.00000) RY ( 7)Cl  2            s(  0.00%)p 0.00(  0.00%)d 1.00(100.00%)
  31. (0.00000) RY ( 8)Cl  2            s(  0.00%)p 0.00(  0.00%)d 1.00(100.00%)
  32. (0.00000) RY ( 9)Cl  2            s( 13.85%)p 3.11( 43.13%)d 3.10( 43.01%)


 NHO DIRECTIONALITY AND BOND BENDING (deviation from line of nuclear centers at
                                      the position of maximum hybrid amplitude)

         [Thresholds for printing:  angular deviation  >  1.0 degree]
                                    p- or d-character  > 25.0%
                                    orbital occupancy  >  0.10e

                        Line of Centers        Hybrid 1             Hybrid 2
                        ---------------  -------------------  ------------------
           NBO            Theta   Phi    Theta   Phi    Dev   Theta   Phi    Dev
 ===============================================================================
   8. LP ( 2) F  1          --     --     89.8   29.8   --      --     --    --
   9. LP ( 3) F  1          --     --     89.8  119.8   --      --     --    --
  11. LP ( 2)Cl  2          --     --     89.5  359.9   --      --     --    --
  12. LP ( 3)Cl  2          --     --     89.5  269.9   --      --     --    --


 SECOND ORDER PERTURBATION THEORY ANALYSIS OF FOCK MATRIX IN NBO BASIS

     Threshold for printing:   0.50 kcal/mol
                                                          E(2) E(NL)-E(L) F(L,NL)
      Donor (L) NBO              Acceptor (NL) NBO      kcal/mol   a.u.    a.u.
 ===============================================================================

 within unit  1
    8. LP ( 2) F  1            24. RY ( 1)Cl  2            1.88    1.77   0.052
    8. LP ( 2) F  1            25. RY ( 2)Cl  2            0.59    1.77   0.029
    9. LP ( 3) F  1            24. RY ( 1)Cl  2            0.59    1.77   0.029
    9. LP ( 3) F  1            25. RY ( 2)Cl  2            1.88    1.77   0.052
   10. LP ( 1)Cl  2            17. RY ( 3) F  1            0.69    3.24   0.042
   11. LP ( 2)Cl  2            15. RY ( 1) F  1            0.67    2.22   0.034
   12. LP ( 3)Cl  2            16. RY ( 2) F  1            0.67    2.22   0.034


 NATURAL BOND ORBITALS (Summary):

                                                     Principal Delocalizations
           NBO                 Occupancy    Energy   (geminal,vicinal,remote)
 ===============================================================================
 Molecular unit  1  (FCl)
 ------ Lewis --------------------------------------
    1. CR ( 1) F  1             2.00000   -26.34996
    2. CR ( 1)Cl  2             2.00000   -96.48944
    3. CR ( 2)Cl  2             2.00000   -19.08223
    4. CR ( 3)Cl  2             2.00000    -8.11450
    5. CR ( 4)Cl  2             2.00000    -8.11450
    6. CR ( 5)Cl  2             1.99999    -8.12017
    7. LP ( 1) F  1             1.99995    -1.43161
    8. LP ( 2) F  1             1.99779    -0.68139  24(v),25(v)
    9. LP ( 3) F  1             1.99779    -0.68139  25(v),24(v)
   10. LP ( 1)Cl  2             1.99966    -1.05769  17(v)
   11. LP ( 2)Cl  2             1.99952    -0.51698  15(v)
   12. LP ( 3)Cl  2             1.99952    -0.51698  16(v)
   13. BD ( 1) F  1-Cl  2       2.00000    -0.91155
 ------ non-Lewis ----------------------------------
   14. BD*( 1) F  1-Cl  2       0.00000     0.16396
   15. RY ( 1) F  1             0.00048     1.70646
   16. RY ( 2) F  1             0.00048     1.70646
   17. RY ( 3) F  1             0.00034     2.18141
   18. RY ( 4) F  1             0.00000     2.20282
   19. RY ( 5) F  1             0.00000     1.91642
   20. RY ( 6) F  1             0.00000     1.91642
   21. RY ( 7) F  1             0.00000     2.11157
   22. RY ( 8) F  1             0.00000     2.11157
   23. RY ( 9) F  1             0.00000     1.80474
   24. RY ( 1)Cl  2             0.00221     1.09082
   25. RY ( 2)Cl  2             0.00221     1.09082
   26. RY ( 3)Cl  2             0.00005     0.75104
   27. RY ( 4)Cl  2             0.00000     0.71014
   28. RY ( 5)Cl  2             0.00000     0.66846
   29. RY ( 6)Cl  2             0.00000     0.66846
   30. RY ( 7)Cl  2             0.00000     1.09037
   31. RY ( 8)Cl  2             0.00000     1.09037
   32. RY ( 9)Cl  2             0.00000     0.99565
          -------------------------------
                 Total Lewis   25.99421  ( 99.9777%)
           Valence non-Lewis    0.00000  (  0.0000%)
           Rydberg non-Lewis    0.00579  (  0.0223%)
          -------------------------------
               Total unit  1   26.00000  (100.0000%)
              Charge unit  1    0.00000

 $CHOOSE
   LONE 1 3 2 3 END
   BOND S 1 2 END
 $END

 NBO analysis completed in 0.30 CPU seconds (1 wall second)
 Maximum scratch memory used by NBO was 361115 words (2.76 MB)
 Maximum scratch memory used by G16NBO was 9824 words (0.07 MB)

 Opening RunExU unformatted file "/cluster/work/users/beto93/mol49/Gau-2110011.EUF"
 Read unf file /cluster/work/users/beto93/mol49/Gau-2110011.EUF:
 Label Gaussian matrix elements                                         IVers= 2 NLab= 2 Version=ES64L-G16RevC.01
 Title mol49-NBO                                                       
 NAtoms=     2 NBasis=    32 NBsUse=    32 ICharg=     0 Multip=     1 NE=    26 Len12L=8 Len4L=8 IOpCl= 0 ICGU=111
 GAUSSIAN SCALARS                    NI= 1 NR= 1 NTot=       1 LenBuf=    2 NRI=1 N=    1000
 NPA CHARGES                         NI= 0 NR= 1 NTot=       2 LenBuf= 4000 NRI=1 N=       2
 Recovered energy= -558.815295643     dipole=     -0.000000000000      0.000000000000      0.525586452942
 Unable to Open any file for archive entry.
 1\1\GINC-C1-49\SP\RHF\6-31G(d)\Cl1F1\BETO93\18-Nov-2024\0\\#RHF/6-31G*
  int=nobasistransform Symmetry=None 5D 7F Pop=NBO7Read\\mol49-NBO\\0,1
 \F,0,0.,0.,-1.084794\Cl,0,0.,0.,0.574302\\Version=ES64L-G16RevC.01\HF=
 -558.8152956\RMSD=5.090e-09\Dipole=0.,0.,0.5255865\Quadrupole=-0.36351
 44,-0.3635144,0.7270288,0.,0.,0.\PG=Unknown\\@
 The archive entry for this job was punched.


 ART, GLORY, FREEDOM FAIL, BUT NATURE STILL IS FAIR.

                                           -- BYRON
 Job cpu time:       0 days  0 hours  0 minutes  6.5 seconds.
 Elapsed time:       0 days  0 hours  0 minutes  2.2 seconds.
 File lengths (MBytes):  RWF=     10 Int=      0 D2E=      0 Chk=      1 Scr=      1
 Normal termination of Gaussian 16 at Mon Nov 18 16:40:06 2024.
