 Entering Gaussian System, Link 0=g16
 Initial command:
 /cluster/software/Gaussian/g16_C.01/l1.exe "/cluster/work/users/beto93/mol115/Gau-3688408.inp" -scrdir="/cluster/work/users/beto93/mol115/"
 Entering Link 1 = /cluster/software/Gaussian/g16_C.01/l1.exe PID=   3688422.
  
 Copyright (c) 1988-2019, Gaussian, Inc.  All Rights Reserved.
  
 This is part of the Gaussian(R) 16 program.  It is based on
 the Gaussian(R) 09 system (copyright 2009, Gaussian, Inc.),
 the Gaussian(R) 03 system (copyright 2003, Gaussian, Inc.),
 the Gaussian(R) 98 system (copyright 1998, Gaussian, Inc.),
 the Gaussian(R) 94 system (copyright 1995, Gaussian, Inc.),
 the Gaussian 92(TM) system (copyright 1992, Gaussian, Inc.),
 the Gaussian 90(TM) system (copyright 1990, Gaussian, Inc.),
 the Gaussian 88(TM) system (copyright 1988, Gaussian, Inc.),
 the Gaussian 86(TM) system (copyright 1986, Carnegie Mellon
 University), and the Gaussian 82(TM) system (copyright 1983,
 Carnegie Mellon University). Gaussian is a federally registered
 trademark of Gaussian, Inc.
  
 This software contains proprietary and confidential information,
 including trade secrets, belonging to Gaussian, Inc.
  
 This software is provided under written license and may be
 used, copied, transmitted, or stored only in accord with that
 written license.
  
 The following legend is applicable only to US Government
 contracts under FAR:
  
                    RESTRICTED RIGHTS LEGEND
  
 Use, reproduction and disclosure by the US Government is
 subject to restrictions as set forth in subparagraphs (a)
 and (c) of the Commercial Computer Software - Restricted
 Rights clause in FAR 52.227-19.
  
 Gaussian, Inc.
 340 Quinnipiac St., Bldg. 40, Wallingford CT 06492
  
  
 ---------------------------------------------------------------
 Warning -- This program may not be used in any manner that
 competes with the business of Gaussian, Inc. or will provide
 assistance to any competitor of Gaussian, Inc.  The licensee
 of this program is prohibited from giving any competitor of
 Gaussian, Inc. access to this program.  By using this program,
 the user acknowledges that Gaussian, Inc. is engaged in the
 business of creating and licensing software in the field of
 computational chemistry and represents and warrants to the
 licensee that it is not a competitor of Gaussian, Inc. and that
 it will not use this program in any manner prohibited above.
 ---------------------------------------------------------------
  

 Cite this work as:
 Gaussian 16, Revision C.01,
 M. J. Frisch, G. W. Trucks, H. B. Schlegel, G. E. Scuseria, 
 M. A. Robb, J. R. Cheeseman, G. Scalmani, V. Barone, 
 G. A. Petersson, H. Nakatsuji, X. Li, M. Caricato, A. V. Marenich, 
 J. Bloino, B. G. Janesko, R. Gomperts, B. Mennucci, H. P. Hratchian, 
 J. V. Ortiz, A. F. Izmaylov, J. L. Sonnenberg, D. Williams-Young, 
 F. Ding, F. Lipparini, F. Egidi, J. Goings, B. Peng, A. Petrone, 
 T. Henderson, D. Ranasinghe, V. G. Zakrzewski, J. Gao, N. Rega, 
 G. Zheng, W. Liang, M. Hada, M. Ehara, K. Toyota, R. Fukuda, 
 J. Hasegawa, M. Ishida, T. Nakajima, Y. Honda, O. Kitao, H. Nakai, 
 T. Vreven, K. Throssell, J. A. Montgomery, Jr., J. E. Peralta, 
 F. Ogliaro, M. J. Bearpark, J. J. Heyd, E. N. Brothers, K. N. Kudin, 
 V. N. Staroverov, T. A. Keith, R. Kobayashi, J. Normand, 
 K. Raghavachari, A. P. Rendell, J. C. Burant, S. S. Iyengar, 
 J. Tomasi, M. Cossi, J. M. Millam, M. Klene, C. Adamo, R. Cammi, 
 J. W. Ochterski, R. L. Martin, K. Morokuma, O. Farkas, 
 J. B. Foresman, and D. J. Fox, Gaussian, Inc., Wallingford CT, 2019.
 
 ******************************************
 Gaussian 16:  ES64L-G16RevC.01  3-Jul-2019
                18-Nov-2024 
 ******************************************
 %LindaWorkers=c5-25-ib
 %NProcShared=4
 Will use up to    4 processors via shared memory.
 %mem=25GB
 %chk=mol115.chk
 SetLPE:    new flags="-opt 'Tsnet.Node.lindarsharg: ssh'  -nodelist 'c5-25-ib.saga' -env GAUSS_MDEF=3355443200 -env GAUSS_EXEDIR="/cluster/software/Gaussian/g16_C.01/bsd:/cluster/software/Gaussian/g16_C.01""
 Will use up to    1 processors via Linda.
 -----------------------------------------------------------------
 #RHF/STO-3G int=nobasistransform Symmetry=None 5D 7F Pop=NBO7Read
 -----------------------------------------------------------------
 1/38=1,163=2,172=1/1;
 2/12=2,15=3,17=6,18=5,40=1/2;
 3/6=3,8=11,11=1,25=1,30=1,60=-1,116=1/1,2,3;
 4//1;
 5/5=2,38=5/2;
 6/7=2,8=2,9=2,10=2,28=1,40=2,113=1,114=1,124=2103/1,12;
 99/5=1,9=1/99;
 ----------
 mol115-NBO
 ----------
 Symbolic Z-matrix:
 Charge =  0 Multiplicity = 1
 C                     0.       -0.73972  -0.79233 
 S                     0.        0.        0.86347 
 C                     0.        0.73972  -0.79233 
 H                    -0.91394  -1.25014  -1.07689 
 H                     0.91394  -1.25014  -1.07689 
 H                     0.91394   1.25014  -1.07689 
 H                    -0.91394   1.25014  -1.07689 
 
                          Input orientation:                          
 ---------------------------------------------------------------------
 Center     Atomic      Atomic             Coordinates (Angstroms)
 Number     Number       Type             X           Y           Z
 ---------------------------------------------------------------------
      1          6           0        0.000000   -0.739719   -0.792334
      2         16           0        0.000000    0.000000    0.863474
      3          6           0        0.000000    0.739719   -0.792334
      4          1           0       -0.913940   -1.250142   -1.076894
      5          1           0        0.913940   -1.250142   -1.076894
      6          1           0        0.913940    1.250142   -1.076894
      7          1           0       -0.913940    1.250142   -1.076894
 ---------------------------------------------------------------------
                    Distance matrix (angstroms):
                    1          2          3          4          5
     1  C    0.000000
     2  S    1.813528   0.000000
     3  C    1.479438   1.813528   0.000000
     4  H    1.084801   2.482573   2.208123   0.000000
     5  H    1.084801   2.482573   2.208123   1.827880   0.000000
     6  H    2.208123   2.482573   1.084801   3.097187   2.500284
     7  H    2.208123   2.482573   1.084801   2.500284   3.097187
                    6          7
     6  H    0.000000
     7  H    1.827880   0.000000
 Symmetry turned off by external request.
 Stoichiometry    C2H4S
 Rotational constants (GHZ):          22.1656990          10.8342531           8.0587446
 Standard basis: STO-3G (5D, 7F)
    23 basis functions,    69 primitive gaussians,    23 cartesian basis functions
    16 alpha electrons       16 beta electrons
       nuclear repulsion energy       101.3463833744 Hartrees.
 NAtoms=    7 NActive=    7 NUniq=    7 SFac= 1.00D+00 NAtFMM=   60 NAOKFM=F Big=F
 Integral buffers will be    131072 words long.
 Raffenetti 1 integral format.
 Two-electron integral symmetry is turned off.
 One-electron integrals computed using PRISM.
 NBasis=    23 RedAO= T EigKep=  2.27D-01  NBF=    23
 NBsUse=    23 1.00D-06 EigRej= -1.00D+00 NBFU=    23
 ExpMin= 1.69D-01 ExpMax= 5.33D+02 ExpMxC= 5.33D+02 IAcc=3 IRadAn=         5 AccDes= 0.00D+00
 Harris functional with IExCor=  205 and IRadAn=       5 diagonalized for initial guess.
 HarFok:  IExCor=  205 AccDes= 0.00D+00 IRadAn=         5 IDoV= 1 UseB2=F ITyADJ=14
 ICtDFT=  3500011 ScaDFX=  1.000000  1.000000  1.000000  1.000000
 FoFCou: FMM=F IPFlag=           0 FMFlag=      100000 FMFlg1=           0
         NFxFlg=           0 DoJE=T BraDBF=F KetDBF=T FulRan=T
         wScrn=  0.000000 ICntrl=       500 IOpCl=  0 I1Cent=   200000004 NGrid=           0
         NMat0=    1 NMatS0=      1 NMatT0=    0 NMatD0=    1 NMtDS0=    0 NMtDT0=    0
 Symmetry not used in FoFCou.
 Keep R1 ints in memory in canonical form, NReq=848570.
 Requested convergence on RMS density matrix=1.00D-08 within 128 cycles.
 Requested convergence on MAX density matrix=1.00D-06.
 Requested convergence on             energy=1.00D-06.
 No special actions if energy rises.
 SCF Done:  E(RHF) =  -470.273867531     A.U. after    9 cycles
            NFock=  9  Conv=0.78D-08     -V/T= 2.0110

 **********************************************************************

            Population analysis using the SCF Density.

 **********************************************************************

 Alpha  occ. eigenvalues --  -90.72109 -11.05021 -11.05018  -8.62816  -6.25969
 Alpha  occ. eigenvalues --   -6.25790  -6.25440  -1.07591  -0.78868  -0.75870
 Alpha  occ. eigenvalues --   -0.62151  -0.54032  -0.49195  -0.36043  -0.33811
 Alpha  occ. eigenvalues --   -0.24948
 Alpha virt. eigenvalues --    0.34905   0.49056   0.63374   0.67918   0.67930
 Alpha virt. eigenvalues --    0.76786   0.84556
          Condensed to atoms (all electrons):
               1          2          3          4          5          6
     1  C    4.921486   0.189454   0.345583   0.386144   0.386144  -0.017870
     2  S    0.189454  15.586352   0.189454  -0.014819  -0.014819  -0.014819
     3  C    0.345583   0.189454   4.921486  -0.017870  -0.017870   0.386144
     4  H    0.386144  -0.014819  -0.017870   0.598025  -0.022163   0.001002
     5  H    0.386144  -0.014819  -0.017870  -0.022163   0.598025  -0.003351
     6  H   -0.017870  -0.014819   0.386144   0.001002  -0.003351   0.598025
     7  H   -0.017870  -0.014819   0.386144  -0.003351   0.001002  -0.022163
               7
     1  C   -0.017870
     2  S   -0.014819
     3  C    0.386144
     4  H   -0.003351
     5  H    0.001002
     6  H   -0.022163
     7  H    0.598025
 Mulliken charges:
               1
     1  C   -0.193071
     2  S    0.094017
     3  C   -0.193071
     4  H    0.073031
     5  H    0.073031
     6  H    0.073031
     7  H    0.073031
 Sum of Mulliken charges =   0.00000
 Mulliken charges with hydrogens summed into heavy atoms:
               1
     1  C   -0.047008
     2  S    0.094017
     3  C   -0.047008
 Electronic spatial extent (au):  <R**2>=            196.0719
 Charge=              0.0000 electrons
 Dipole moment (field-independent basis, Debye):
    X=             -0.0000    Y=              0.0000    Z=             -0.8679  Tot=              0.8679
 Quadrupole moment (field-independent basis, Debye-Ang):
   XX=            -23.2399   YY=            -22.7395   ZZ=            -24.3647
   XY=             -0.0000   XZ=              0.0000   YZ=             -0.0000
 Traceless Quadrupole moment (field-independent basis, Debye-Ang):
   XX=              0.2081   YY=              0.7085   ZZ=             -0.9167
   XY=             -0.0000   XZ=              0.0000   YZ=             -0.0000
 Octapole moment (field-independent basis, Debye-Ang**2):
  XXX=             -0.0000  YYY=              0.0000  ZZZ=              6.3729  XYY=             -0.0000
  XXY=              0.0000  XXZ=             -0.3428  XZZ=             -0.0000  YZZ=              0.0000
  YYZ=              1.3356  XYZ=              0.0000
 Hexadecapole moment (field-independent basis, Debye-Ang**3):
 XXXX=            -33.7919 YYYY=            -80.2959 ZZZZ=           -126.3195 XXXY=             -0.0000
 XXXZ=              0.0000 YYYX=             -0.0000 YYYZ=             -0.0000 ZZZX=              0.0000
 ZZZY=             -0.0000 XXYY=            -16.8559 XXZZ=            -26.3103 YYZZ=            -32.6115
 XXYZ=             -0.0000 YYXZ=              0.0000 ZZXY=             -0.0000
 N-N= 1.013463833744D+02 E-N=-1.317509896427D+03  KE= 4.651628449152D+02
 Running external command "gaunbo7 R"
         input file       "/cluster/work/users/beto93/mol115/Gau-3688422.EIn"
         output file      "/cluster/work/users/beto93/mol115/Gau-3688422.EOu"
         message file     "/cluster/work/users/beto93/mol115/Gau-3688422.EMs"
         fchk file        "/cluster/work/users/beto93/mol115/Gau-3688422.EFC"
         mat. el file     "/cluster/work/users/beto93/mol115/Gau-3688422.EUF"

 Writing WrtUnf unformatted file "/cluster/work/users/beto93/mol115/Gau-3688422.EUF"
 Gaussian matrix elements                                         Version   2 NLab=11 Len12L=8 Len4L=8
 Write SHELL TO ATOM MAP                   from file      0 offset           0 length                  11 to matrix element file.
 Write SHELL TYPES                         from file      0 offset           0 length                  11 to matrix element file.
 Write NUMBER OF PRIMITIVES PER SHELL      from file      0 offset           0 length                  11 to matrix element file.
 Write PRIMITIVE EXPONENTS                 from file      0 offset           0 length                  33 to matrix element file.
 Write CONTRACTION COEFFICIENTS            from file      0 offset           0 length                  33 to matrix element file.
 Write P(S=P) CONTRACTION COEFFICIENTS     from file      0 offset           0 length                  33 to matrix element file.
 Write COORDINATES OF EACH SHELL           from file      0 offset           0 length                  33 to matrix element file.
 Write BONDS PER ATOM                      from file      0 offset           0 length                   7 to matrix element file.
 Write BONDED ATOMS                        from file      0 offset           0 length                  14 to matrix element file.
 Write BOND TYPES                          from file      0 offset           0 length                  14 to matrix element file.
 Write ONIOM CHARGE/MULT                   from file      0 offset           0 length                  32 to matrix element file.
 Write ONIOM ATOM LAYERS                   from file      0 offset           0 length                   7 to matrix element file.
 Write ONIOM ATOM MODIFIERS                from file      0 offset           0 length                   7 to matrix element file.
 Write ONIOM ATOM TYPES                    from file      0 offset           0 length                   7 to matrix element file.
 Write ONIOM LINK ATOMS                    from file      0 offset           0 length                   7 to matrix element file.
 Write ONIOM LINK CHARGES                  from file      0 offset           0 length                   7 to matrix element file.
 Write ONIOM LINK DISTANCES                from file      0 offset           0 length                  28 to matrix element file.
 Write SYMINF INTS                         from file      0 offset           0 length                  26 to matrix element file.
 Write ROTTR TO SO                         from file      0 offset           0 length                  12 to matrix element file.
 Write GAUSSIAN SCALARS                    from file    501 offset           0 to matrix element file.
 Write OPTIMIZATION FLAGS                  from file      0 offset           0 length                   7 to matrix element file.
 Write INTEGER ISO                         from file      0 offset           0 length                   7 to matrix element file.
 Write INTEGER SPIN                        from file      0 offset           0 length                   7 to matrix element file.
 Write REAL ZEFFECTIVE                     from file      0 offset           0 length                   7 to matrix element file.
 Write REAL GFACTOR                        from file      0 offset           0 length                   7 to matrix element file.
 Write REAL ZNUCLEAR                       from file      0 offset           0 length                   7 to matrix element file.
 Write MULLIKEN CHARGES                    from file      0 offset           0 length                   7 to matrix element file.
 Write NUCLEAR GRADIENT                    from file  10584 offset           0 length                  21 to matrix element file.
 Array NUCLEAR FORCE CONSTANTS              on  file  10585 does not exist.
 Write ELECTRIC DIPOLE MOMENT              from file      0 offset           0 length                   3 to matrix element file.
 Write NON-ADIABATIC COUPLING              from file  10810 offset           0 length                  21 to matrix element file.
 Write FINITE EM FIELD                     from file  10521 offset           0 length                  35 to matrix element file.
 Write OVERLAP                             from file  10514 offset           0 length                 276 to matrix element file.
 Write CORE HAMILTONIAN ALPHA              from file  10515 offset           0 length                 276 to matrix element file.
 Write CORE HAMILTONIAN BETA               from file  10515 offset         276 length                 276 to matrix element file.
 Write KINETIC ENERGY                      from file  10516 offset           0 length                 276 to matrix element file.
 Write ORTHOGONAL BASIS                    from file  10685 offset           0 length                 529 to matrix element file.
 Write DIPOLE INTEGRALS                    from file  10518 offset           0 length                 828 to matrix element file.
 Array DIP VEL INTEGRALS                    on  file  10572 does not exist.
 Array R X DEL INTEGRALS                    on  file  10572 does not exist.
 Write ALPHA ORBITAL ENERGIES              from file      0 offset           0 length                  23 to matrix element file.
 Write ALPHA MO COEFFICIENTS               from file  10524 offset           0 length                 529 to matrix element file.
 Write ALPHA DENSITY MATRIX                from file      0 offset           0 length                 276 to matrix element file.
 Write ALPHA FOCK MATRIX                   from file  10536 offset           0 length                 276 to matrix element file.
 Write ENERGY-WEIGHTED DENSITY             from file  10571 offset           0 length                 276 to matrix element file.
 Write ALPHA SCF DENSITY MATRIX            from file      0 offset           0 length                 276 to matrix element file.
 No 2e integrals to process.
 Perform NBO analysis...executing G16NBO...

 *********************************** NBO 7.0 ***********************************
             N A T U R A L   A T O M I C   O R B I T A L   A N D
          N A T U R A L   B O N D   O R B I T A L   A N A L Y S I S
 **************************** Espen Tangen (S101595) ***************************
  (c) Copyright 1996-2021 Board of Regents of the University of Wisconsin System
      on behalf of the Theoretical Chemistry Institute.  All rights reserved.

          Cite this program [NBO 7.0.10 (8-Feb-2021)] as:

          NBO 7.0.  E. D. Glendening, J. K. Badenhoop, A. E. Reed,
          J. E. Carpenter, J. A. Bohmann, C. M. Morales, P. Karafiloglou,
          C. R. Landis, and F. Weinhold, Theoretical Chemistry Institute,
          University of Wisconsin, Madison, WI (2018)

       /NPA    / : Natural Population Analysis
       /AOPNAO / : Print the AO to PNAO transformation
       /AONAO  / : Print the AO to NAO transformation
       /AOMO   / : Print the MOs in the AO basis
       /BOAO   / : Print the AO bond-order matrix
       /DMAO   / : Print the AO density matrix
       /DMPNAO / : Print the PNAO density matrix
       /DMNAO  / : Print the NAO density matrix
       /DMMO   / : Print the MO density matrix
       /SAO    / : Print the AO overlap matrix
       /SPNAO  / : Print the PNAO overlap matrix
       /DETAIL / : Write details of NBO search
       /ARCHIVE/ : Write the archive file to lfn47
       /AOINFO / : Write AO information to lfn31
       /FILE   / : Set to mol115.gen*

 Filename set to mol115.gen1

 Job title: mol115-NBO


 MOs in the AO basis:

           AO          1       2       3       4       5       6       7       8
      ------------ ------- ------- ------- ------- ------- ------- ------- -------
   1.  C 1 (s)     -0.0001  0.7018  0.7013  0.0010 -0.0010 -0.0008  0.0000 -0.1486
   2.  C 1 (s)      0.0004  0.0217  0.0296 -0.0065  0.0092  0.0063  0.0000  0.3940
   3.  C 1 (px)     0.0000  0.0000  0.0000  0.0000  0.0000  0.0000 -0.0032  0.0000
   4.  C 1 (py)     0.0001 -0.0019  0.0039 -0.0011  0.0024  0.0001  0.0000  0.1042
   5.  C 1 (pz)     0.0004  0.0009 -0.0004 -0.0061  0.0079  0.0053  0.0000  0.0562
   6.  S 2 (s)      0.9942 -0.0001  0.0000 -0.3674 -0.0065  0.0000  0.0000  0.0424
   7.  S 2 (s)      0.0171  0.0002  0.0000  1.0469  0.0189  0.0000  0.0000 -0.1479
   8.  S 2 (px)     0.0000  0.0000  0.0000  0.0000  0.0000  0.0000  0.9859  0.0000
   9.  S 2 (py)     0.0000  0.0000 -0.0004  0.0000  0.0000  0.9847  0.0000  0.0000
  10.  S 2 (pz)    -0.0002 -0.0006  0.0000 -0.0141  0.9829  0.0000  0.0000  0.0558
  11.  S 2 (s)     -0.0024 -0.0051  0.0000  0.0523 -0.0099  0.0000  0.0000  0.3626
  12.  S 2 (px)     0.0000  0.0000  0.0000  0.0000  0.0000  0.0000  0.0504  0.0000
  13.  S 2 (py)     0.0000  0.0000  0.0030  0.0000  0.0000  0.0552  0.0000  0.0000
  14.  S 2 (pz)     0.0004  0.0045  0.0000 -0.0088  0.0625  0.0000  0.0000 -0.1145
  15.  C 3 (s)     -0.0001  0.7018 -0.7013  0.0010 -0.0010  0.0008  0.0000 -0.1486
  16.  C 3 (s)      0.0004  0.0217 -0.0296 -0.0065  0.0092 -0.0063  0.0000  0.3940
  17.  C 3 (px)     0.0000  0.0000  0.0000  0.0000  0.0000  0.0000 -0.0032  0.0000
  18.  C 3 (py)    -0.0001  0.0019  0.0039  0.0011 -0.0024  0.0001  0.0000 -0.1042
  19.  C 3 (pz)     0.0004  0.0009  0.0004 -0.0061  0.0079 -0.0053  0.0000  0.0562
  20.  H 4 (s)      0.0000 -0.0048 -0.0049 -0.0001  0.0000 -0.0001 -0.0002  0.0764
  21.  H 5 (s)      0.0000 -0.0048 -0.0049 -0.0001  0.0000 -0.0001  0.0002  0.0764
  22.  H 6 (s)      0.0000 -0.0048  0.0049 -0.0001  0.0000  0.0001  0.0002  0.0764
  23.  H 7 (s)      0.0000 -0.0048  0.0049 -0.0001  0.0000  0.0001 -0.0002  0.0764

           AO          9      10      11      12      13      14      15      16
      ------------ ------- ------- ------- ------- ------- ------- ------- -------
   1.  C 1 (s)     -0.1456  0.0801  0.0000 -0.0141  0.0000  0.0029  0.0176  0.0000
   2.  C 1 (s)      0.4600 -0.2518  0.0000  0.0538  0.0000 -0.0169 -0.1189  0.0000
   3.  C 1 (px)     0.0000  0.0000  0.3986  0.0000  0.4081  0.0000  0.0000 -0.0586
   4.  C 1 (py)    -0.1572  0.0159  0.0000  0.4607  0.0000  0.2558 -0.0593  0.0000
   5.  C 1 (pz)    -0.0019  0.1924  0.0000  0.0725  0.0000 -0.4144 -0.4121  0.0000
   6.  S 2 (s)      0.0000  0.0738  0.0000 -0.0311  0.0000  0.0307  0.0000  0.0000
   7.  S 2 (s)      0.0000 -0.2479  0.0000  0.0997  0.0000 -0.0978  0.0000  0.0000
   8.  S 2 (px)     0.0000  0.0000 -0.0552  0.0000  0.0000  0.0000  0.0000 -0.3084
   9.  S 2 (py)     0.0439  0.0000  0.0000  0.0000  0.0000  0.0000 -0.2240  0.0000
  10.  S 2 (pz)     0.0000  0.0065  0.0000  0.0812  0.0000 -0.1756  0.0000  0.0000
  11.  S 2 (s)      0.0000  0.7851  0.0000 -0.3974  0.0000  0.4069  0.0000  0.0000
  12.  S 2 (px)     0.0000  0.0000  0.1599  0.0000  0.0000  0.0000  0.0000  1.0197
  13.  S 2 (py)    -0.1153  0.0000  0.0000  0.0000  0.0000  0.0000  0.6933  0.0000
  14.  S 2 (pz)     0.0000 -0.0186  0.0000 -0.2157  0.0000  0.5303  0.0000  0.0000
  15.  C 3 (s)      0.1456  0.0801  0.0000 -0.0141  0.0000  0.0029 -0.0176  0.0000
  16.  C 3 (s)     -0.4600 -0.2518  0.0000  0.0538  0.0000 -0.0169  0.1189  0.0000
  17.  C 3 (px)     0.0000  0.0000  0.3986  0.0000 -0.4081  0.0000  0.0000 -0.0586
  18.  C 3 (py)    -0.1572 -0.0159  0.0000 -0.4607  0.0000 -0.2558 -0.0593  0.0000
  19.  C 3 (pz)     0.0019  0.1924  0.0000  0.0725  0.0000 -0.4144  0.4121  0.0000
  20.  H 4 (s)      0.2025 -0.1282 -0.2463 -0.1843 -0.3306 -0.0289  0.1269  0.1218
  21.  H 5 (s)      0.2025 -0.1282  0.2463 -0.1843  0.3306 -0.0289  0.1269 -0.1218
  22.  H 6 (s)     -0.2025 -0.1282  0.2463 -0.1843 -0.3306 -0.0289 -0.1269 -0.1218
  23.  H 7 (s)     -0.2025 -0.1282 -0.2463 -0.1843  0.3306 -0.0289 -0.1269  0.1218

           AO         17      18      19      20      21      22      23
      ------------ ------- ------- ------- ------- ------- ------- -------
   1.  C 1 (s)     -0.0491 -0.0742  0.0000 -0.1891 -0.1239  0.0050  0.0000
   2.  C 1 (s)      0.2606  0.3857  0.0000  1.1689  0.8047 -0.0397  0.0000
   3.  C 1 (px)     0.0000  0.0000  0.7277  0.0000  0.0000  0.0000  0.8945
   4.  C 1 (py)    -0.1331  0.0681  0.0000  0.4367 -0.4663  0.9434  0.0000
   5.  C 1 (pz)     0.6314  0.5572  0.0000 -0.2453 -0.2351  0.2422  0.0000
   6.  S 2 (s)      0.0000 -0.0345  0.0000  0.0000  0.0000  0.0000  0.0000
   7.  S 2 (s)      0.0000  0.1018  0.0000  0.0000  0.0017  0.0000  0.0000
   8.  S 2 (px)     0.0000  0.0000  0.0454  0.0000  0.0000  0.0000  0.0000
   9.  S 2 (py)    -0.2289  0.0000  0.0000 -0.0380  0.0000 -0.0268  0.0000
  10.  S 2 (pz)     0.0000 -0.2820  0.0000  0.0000  0.0053  0.0000  0.0000
  11.  S 2 (s)      0.0000 -0.5621  0.0000  0.0000  0.0180  0.0000  0.0000
  12.  S 2 (px)     0.0000  0.0000 -0.1717  0.0000  0.0000  0.0000  0.0000
  13.  S 2 (py)     0.8156  0.0000  0.0000  0.1483  0.0000  0.1122  0.0000
  14.  S 2 (pz)     0.0000  1.0496  0.0000  0.0000 -0.0258  0.0000  0.0000
  15.  C 3 (s)      0.0491 -0.0742  0.0000  0.1891 -0.1239 -0.0050  0.0000
  16.  C 3 (s)     -0.2606  0.3857  0.0000 -1.1689  0.8047  0.0397  0.0000
  17.  C 3 (px)     0.0000  0.0000  0.7277  0.0000  0.0000  0.0000 -0.8945
  18.  C 3 (py)    -0.1331 -0.0681  0.0000  0.4367  0.4663  0.9434  0.0000
  19.  C 3 (pz)    -0.6314  0.5572  0.0000  0.2453 -0.2351 -0.2422  0.0000
  20.  H 4 (s)     -0.0704 -0.0371  0.6186 -0.4539 -0.6308  0.4609  0.6153
  21.  H 5 (s)     -0.0704 -0.0371 -0.6186 -0.4539 -0.6308  0.4609 -0.6153
  22.  H 6 (s)      0.0704 -0.0371 -0.6186  0.4539 -0.6308 -0.4609  0.6153
  23.  H 7 (s)      0.0704 -0.0371  0.6186  0.4539 -0.6308 -0.4609 -0.6153


 AO overlap matrix:

           AO          1       2       3       4       5       6       7       8
      ------------ ------- ------- ------- ------- ------- ------- ------- -------
   1.  C 1 (s)      1.0000  0.2484  0.0000  0.0000  0.0000  0.0000  0.0000  0.0000
   2.  C 1 (s)      0.2484  1.0000  0.0000  0.0000  0.0000  0.0027  0.0222  0.0000
   3.  C 1 (px)     0.0000  0.0000  1.0000  0.0000  0.0000  0.0000  0.0000  0.0046
   4.  C 1 (py)     0.0000  0.0000  0.0000  1.0000  0.0000  0.0020  0.0161  0.0000
   5.  C 1 (pz)     0.0000  0.0000  0.0000  0.0000  1.0000  0.0046  0.0360  0.0000
   6.  S 2 (s)      0.0000  0.0027  0.0000  0.0020  0.0046  1.0000  0.3355  0.0000
   7.  S 2 (s)      0.0000  0.0222  0.0000  0.0161  0.0360  0.3355  1.0000  0.0000
   8.  S 2 (px)     0.0000  0.0000  0.0046  0.0000  0.0000  0.0000  0.0000  1.0000
   9.  S 2 (py)     0.0000 -0.0053  0.0000  0.0004 -0.0093  0.0000  0.0000  0.0000
  10.  S 2 (pz)     0.0000 -0.0118  0.0000 -0.0093 -0.0163  0.0000  0.0000  0.0000
  11.  S 2 (s)      0.0167  0.2246  0.0000  0.1090  0.2441  0.0143  0.2431  0.0000
  12.  S 2 (px)     0.0000  0.0000  0.1146  0.0000  0.0000  0.0000  0.0000  0.2574
  13.  S 2 (py)    -0.0118 -0.1160  0.0000  0.0457 -0.1542  0.0000  0.0000  0.0000
  14.  S 2 (pz)    -0.0264 -0.2596  0.0000 -0.1542 -0.2306  0.0000  0.0000  0.0000
  15.  C 3 (s)      0.0000  0.0309  0.0000  0.0515  0.0000  0.0000  0.0000  0.0000
  16.  C 3 (s)      0.0309  0.3262  0.0000  0.3588  0.0000  0.0027  0.0222  0.0000
  17.  C 3 (px)     0.0000  0.0000  0.1841  0.0000  0.0000  0.0000  0.0000  0.0046
  18.  C 3 (py)    -0.0515 -0.3588  0.0000 -0.3220  0.0000 -0.0020 -0.0161  0.0000
  19.  C 3 (pz)     0.0000  0.0000  0.0000  0.0000  0.1841  0.0046  0.0360  0.0000
  20.  H 4 (s)      0.0630  0.4937 -0.3952 -0.2207 -0.1230  0.0005  0.0039 -0.0009
  21.  H 5 (s)      0.0630  0.4937  0.3952 -0.2207 -0.1230  0.0005  0.0039  0.0009
  22.  H 6 (s)      0.0047  0.0884  0.0478  0.1040 -0.0149  0.0005  0.0039  0.0009
  23.  H 7 (s)      0.0047  0.0884 -0.0478  0.1040 -0.0149  0.0005  0.0039 -0.0009

           AO          9      10      11      12      13      14      15      16
      ------------ ------- ------- ------- ------- ------- ------- ------- -------
   1.  C 1 (s)      0.0000  0.0000  0.0167  0.0000 -0.0118 -0.0264  0.0000  0.0309
   2.  C 1 (s)     -0.0053 -0.0118  0.2246  0.0000 -0.1160 -0.2596  0.0309  0.3262
   3.  C 1 (px)     0.0000  0.0000  0.0000  0.1146  0.0000  0.0000  0.0000  0.0000
   4.  C 1 (py)     0.0004 -0.0093  0.1090  0.0000  0.0457 -0.1542  0.0515  0.3588
   5.  C 1 (pz)    -0.0093 -0.0163  0.2441  0.0000 -0.1542 -0.2306  0.0000  0.0000
   6.  S 2 (s)      0.0000  0.0000  0.0143  0.0000  0.0000  0.0000  0.0000  0.0027
   7.  S 2 (s)      0.0000  0.0000  0.2431  0.0000  0.0000  0.0000  0.0000  0.0222
   8.  S 2 (px)     0.0000  0.0000  0.0000  0.2574  0.0000  0.0000  0.0000  0.0000
   9.  S 2 (py)     1.0000  0.0000  0.0000  0.0000  0.2574  0.0000  0.0000  0.0053
  10.  S 2 (pz)     0.0000  1.0000  0.0000  0.0000  0.0000  0.2574  0.0000 -0.0118
  11.  S 2 (s)      0.0000  0.0000  1.0000  0.0000  0.0000  0.0000  0.0167  0.2246
  12.  S 2 (px)     0.0000  0.0000  0.0000  1.0000  0.0000  0.0000  0.0000  0.0000
  13.  S 2 (py)     0.2574  0.0000  0.0000  0.0000  1.0000  0.0000  0.0118  0.1160
  14.  S 2 (pz)     0.0000  0.2574  0.0000  0.0000  0.0000  1.0000 -0.0264 -0.2596
  15.  C 3 (s)      0.0000  0.0000  0.0167  0.0000  0.0118 -0.0264  1.0000  0.2484
  16.  C 3 (s)      0.0053 -0.0118  0.2246  0.0000  0.1160 -0.2596  0.2484  1.0000
  17.  C 3 (px)     0.0000  0.0000  0.0000  0.1146  0.0000  0.0000  0.0000  0.0000
  18.  C 3 (py)     0.0004  0.0093 -0.1090  0.0000  0.0457  0.1542  0.0000  0.0000
  19.  C 3 (pz)     0.0093 -0.0163  0.2441  0.0000  0.1542 -0.2306  0.0000  0.0000
  20.  H 4 (s)     -0.0012 -0.0018  0.0626 -0.0320 -0.0437 -0.0679  0.0047  0.0884
  21.  H 5 (s)     -0.0012 -0.0018  0.0626  0.0320 -0.0437 -0.0679  0.0047  0.0884
  22.  H 6 (s)      0.0012 -0.0018  0.0626  0.0320  0.0437 -0.0679  0.0630  0.4937
  23.  H 7 (s)      0.0012 -0.0018  0.0626 -0.0320  0.0437 -0.0679  0.0630  0.4937

           AO         17      18      19      20      21      22      23
      ------------ ------- ------- ------- ------- ------- ------- -------
   1.  C 1 (s)      0.0000 -0.0515  0.0000  0.0630  0.0630  0.0047  0.0047
   2.  C 1 (s)      0.0000 -0.3588  0.0000  0.4937  0.4937  0.0884  0.0884
   3.  C 1 (px)     0.1841  0.0000  0.0000 -0.3952  0.3952  0.0478 -0.0478
   4.  C 1 (py)     0.0000 -0.3220  0.0000 -0.2207 -0.2207  0.1040  0.1040
   5.  C 1 (pz)     0.0000  0.0000  0.1841 -0.1230 -0.1230 -0.0149 -0.0149
   6.  S 2 (s)      0.0000 -0.0020  0.0046  0.0005  0.0005  0.0005  0.0005
   7.  S 2 (s)      0.0000 -0.0161  0.0360  0.0039  0.0039  0.0039  0.0039
   8.  S 2 (px)     0.0046  0.0000  0.0000 -0.0009  0.0009  0.0009 -0.0009
   9.  S 2 (py)     0.0000  0.0004  0.0093 -0.0012 -0.0012  0.0012  0.0012
  10.  S 2 (pz)     0.0000  0.0093 -0.0163 -0.0018 -0.0018 -0.0018 -0.0018
  11.  S 2 (s)      0.0000 -0.1090  0.2441  0.0626  0.0626  0.0626  0.0626
  12.  S 2 (px)     0.1146  0.0000  0.0000 -0.0320  0.0320  0.0320 -0.0320
  13.  S 2 (py)     0.0000  0.0457  0.1542 -0.0437 -0.0437  0.0437  0.0437
  14.  S 2 (pz)     0.0000  0.1542 -0.2306 -0.0679 -0.0679 -0.0679 -0.0679
  15.  C 3 (s)      0.0000  0.0000  0.0000  0.0047  0.0047  0.0630  0.0630
  16.  C 3 (s)      0.0000  0.0000  0.0000  0.0884  0.0884  0.4937  0.4937
  17.  C 3 (px)     1.0000  0.0000  0.0000 -0.0478  0.0478  0.3952 -0.3952
  18.  C 3 (py)     0.0000  1.0000  0.0000 -0.1040 -0.1040  0.2207  0.2207
  19.  C 3 (pz)     0.0000  0.0000  1.0000 -0.0149 -0.0149 -0.1230 -0.1230
  20.  H 4 (s)     -0.0478 -0.1040 -0.0149  1.0000  0.1571  0.0148  0.0495
  21.  H 5 (s)      0.0478 -0.1040 -0.0149  0.1571  1.0000  0.0495  0.0148
  22.  H 6 (s)      0.3952  0.2207 -0.1230  0.0148  0.0495  1.0000  0.1571
  23.  H 7 (s)     -0.3952  0.2207 -0.1230  0.0495  0.0148  0.1571  1.0000


 AO bond-order matrix:

           AO          1       2       3       4       5       6       7       8
      ------------ ------- ------- ------- ------- ------- ------- ------- -------
   1.  C 1 (s)      2.0689 -0.2253  0.0000  0.0064 -0.0036 -0.0007  0.0031  0.0000
   2.  C 1 (s)     -0.2253  0.8982  0.0000 -0.0153  0.0658 -0.0028  0.0091  0.0000
   3.  C 1 (px)     0.0000  0.0000  0.6578  0.0000  0.0000  0.0000  0.0000 -0.0141
   4.  C 1 (py)     0.0064 -0.0153  0.0000  0.6342 -0.0779 -0.0008  0.0008  0.0000
   5.  C 1 (pz)    -0.0036  0.0658  0.0000 -0.0779  0.7743  0.0083 -0.0289  0.0000
   6.  S 2 (s)     -0.0007 -0.0028  0.0000 -0.0008  0.0083  2.2650 -0.7968  0.0000
   7.  S 2 (s)      0.0031  0.0091  0.0000  0.0008 -0.0289 -0.7968  2.3991  0.0000
   8.  S 2 (px)     0.0000  0.0000 -0.0141  0.0000  0.0000  0.0000  0.0000  2.1403
   9.  S 2 (py)    -0.0228  0.1060  0.0000  0.0129  0.1949  0.0000  0.0000  0.0000
  10.  S 2 (pz)    -0.0216  0.0736  0.0000  0.0016  0.1817 -0.0129  0.0383  0.0000
  11.  S 2 (s)      0.0246 -0.1674  0.0000 -0.0576 -0.0529  0.1533 -0.5463  0.0000
  12.  S 2 (px)     0.0000  0.0000  0.0076  0.0000  0.0000  0.0000  0.0000 -0.5472
  13.  S 2 (py)     0.0621 -0.2701  0.0000 -0.0460 -0.5704  0.0000  0.0000  0.0000
  14.  S 2 (pz)     0.0464 -0.1205  0.0000  0.0484 -0.4898  0.0401 -0.1197  0.0000
  15.  C 3 (s)      0.0158 -0.0319  0.0000 -0.0919  0.0254 -0.0007  0.0031  0.0000
  16.  C 3 (s)     -0.0319 -0.0086  0.0000  0.2454 -0.1268 -0.0028  0.0091  0.0000
  17.  C 3 (px)     0.0000  0.0000 -0.0084  0.0000  0.0000  0.0000  0.0000 -0.0141
  18.  C 3 (py)     0.0919 -0.2454  0.0000 -0.5212  0.1768  0.0008 -0.0008  0.0000
  19.  C 3 (pz)     0.0254 -0.1268  0.0000 -0.1768  0.0949  0.0083 -0.0289  0.0000
  20.  H 4 (s)     -0.1062  0.2616 -0.4804 -0.2515 -0.1489 -0.0027  0.0097 -0.0484
  21.  H 5 (s)     -0.1062  0.2616  0.4804 -0.2515 -0.1489 -0.0027  0.0097  0.0484
  22.  H 6 (s)      0.0165 -0.0502 -0.0592 -0.0939  0.0618 -0.0027  0.0097  0.0484
  23.  H 7 (s)      0.0165 -0.0502  0.0592 -0.0939  0.0618 -0.0027  0.0097 -0.0484

           AO          9      10      11      12      13      14      15      16
      ------------ ------- ------- ------- ------- ------- ------- ------- -------
   1.  C 1 (s)     -0.0228 -0.0216  0.0246  0.0000  0.0621  0.0464  0.0158 -0.0319
   2.  C 1 (s)      0.1060  0.0736 -0.1674  0.0000 -0.2701 -0.1205 -0.0319 -0.0086
   3.  C 1 (px)     0.0000  0.0000  0.0000  0.0076  0.0000  0.0000  0.0000  0.0000
   4.  C 1 (py)     0.0129  0.0016 -0.0576  0.0000 -0.0460  0.0484 -0.0919  0.2454
   5.  C 1 (pz)     0.1949  0.1817 -0.0529  0.0000 -0.5704 -0.4898  0.0254 -0.1268
   6.  S 2 (s)      0.0000 -0.0129  0.1533  0.0000  0.0000  0.0401 -0.0007 -0.0028
   7.  S 2 (s)      0.0000  0.0383 -0.5463  0.0000  0.0000 -0.1197  0.0031  0.0091
   8.  S 2 (px)     0.0000  0.0000  0.0000 -0.5472  0.0000  0.0000  0.0000  0.0000
   9.  S 2 (py)     2.0433  0.0000  0.0000  0.0000 -0.2120  0.0000  0.0228 -0.1060
  10.  S 2 (pz)     0.0000  2.0136 -0.1778  0.0000  0.0000 -0.1111 -0.0216  0.0736
  11.  S 2 (s)      0.0000 -0.1778  2.1485  0.0000  0.0000  0.4885  0.0246 -0.1674
  12.  S 2 (px)     0.0000  0.0000  0.0000  2.1359  0.0000  0.0000  0.0000  0.0000
  13.  S 2 (py)    -0.2120  0.0000  0.0000  0.0000  0.9941  0.0000 -0.0621  0.2701
  14.  S 2 (pz)     0.0000 -0.1111  0.4885  0.0000  0.0000  0.6904  0.0464 -0.1205
  15.  C 3 (s)      0.0228 -0.0216  0.0246  0.0000 -0.0621  0.0464  2.0689 -0.2253
  16.  C 3 (s)     -0.1060  0.0736 -0.1674  0.0000  0.2701 -0.1205 -0.2253  0.8982
  17.  C 3 (px)     0.0000  0.0000  0.0000  0.0076  0.0000  0.0000  0.0000  0.0000
  18.  C 3 (py)     0.0129 -0.0016  0.0576  0.0000 -0.0460 -0.0484 -0.0064  0.0153
  19.  C 3 (pz)    -0.1949  0.1817 -0.0529  0.0000  0.5704 -0.4898 -0.0036  0.0658
  20.  H 4 (s)     -0.0392 -0.0129 -0.0230  0.1696  0.1292  0.0361  0.0165 -0.0502
  21.  H 5 (s)     -0.0392 -0.0129 -0.0230 -0.1696  0.1292  0.0361  0.0165 -0.0502
  22.  H 6 (s)      0.0392 -0.0129 -0.0230 -0.1696 -0.1292  0.0361 -0.1062  0.2616
  23.  H 7 (s)      0.0392 -0.0129 -0.0230  0.1696 -0.1292  0.0361 -0.1062  0.2616

           AO         17      18      19      20      21      22      23
      ------------ ------- ------- ------- ------- ------- ------- -------
   1.  C 1 (s)      0.0000  0.0919  0.0254 -0.1062 -0.1062  0.0165  0.0165
   2.  C 1 (s)      0.0000 -0.2454 -0.1268  0.2616  0.2616 -0.0502 -0.0502
   3.  C 1 (px)    -0.0084  0.0000  0.0000 -0.4804  0.4804 -0.0592  0.0592
   4.  C 1 (py)     0.0000 -0.5212 -0.1768 -0.2515 -0.2515 -0.0939 -0.0939
   5.  C 1 (pz)     0.0000  0.1768  0.0949 -0.1489 -0.1489  0.0618  0.0618
   6.  S 2 (s)      0.0000  0.0008  0.0083 -0.0027 -0.0027 -0.0027 -0.0027
   7.  S 2 (s)      0.0000 -0.0008 -0.0289  0.0097  0.0097  0.0097  0.0097
   8.  S 2 (px)    -0.0141  0.0000  0.0000 -0.0484  0.0484  0.0484 -0.0484
   9.  S 2 (py)     0.0000  0.0129 -0.1949 -0.0392 -0.0392  0.0392  0.0392
  10.  S 2 (pz)     0.0000 -0.0016  0.1817 -0.0129 -0.0129 -0.0129 -0.0129
  11.  S 2 (s)      0.0000  0.0576 -0.0529 -0.0230 -0.0230 -0.0230 -0.0230
  12.  S 2 (px)     0.0076  0.0000  0.0000  0.1696 -0.1696 -0.1696  0.1696
  13.  S 2 (py)     0.0000 -0.0460  0.5704  0.1292  0.1292 -0.1292 -0.1292
  14.  S 2 (pz)     0.0000 -0.0484 -0.4898  0.0361  0.0361  0.0361  0.0361
  15.  C 3 (s)      0.0000 -0.0064 -0.0036  0.0165  0.0165 -0.1062 -0.1062
  16.  C 3 (s)      0.0000  0.0153  0.0658 -0.0502 -0.0502  0.2616  0.2616
  17.  C 3 (px)     0.6578  0.0000  0.0000  0.0592 -0.0592  0.4804 -0.4804
  18.  C 3 (py)     0.0000  0.6342  0.0779  0.0939  0.0939  0.2515  0.2515
  19.  C 3 (pz)     0.0000  0.0779  0.7743  0.0618  0.0618 -0.1489 -0.1489
  20.  H 4 (s)      0.0592  0.0939  0.0618  0.5980 -0.1411  0.0675 -0.0677
  21.  H 5 (s)     -0.0592  0.0939  0.0618 -0.1411  0.5980 -0.0677  0.0675
  22.  H 6 (s)      0.4804  0.2515 -0.1489  0.0675 -0.0677  0.5980 -0.1411
  23.  H 7 (s)     -0.4804  0.2515 -0.1489 -0.0677  0.0675 -0.1411  0.5980


 AO density matrix:

           AO          1       2       3       4       5       6       7       8
      ------------ ------- ------- ------- ------- ------- ------- ------- -------
   1.  C 1 (s)      1.9995  0.5051  0.0000  0.0011  0.0013  0.0000  0.0001  0.0000
   2.  C 1 (s)      0.5051  1.8558  0.0000 -0.0134 -0.0195  0.0056  0.0424  0.0000
   3.  C 1 (px)     0.0000  0.0000  1.6442  0.0000  0.0000  0.0000  0.0000  0.0058
   4.  C 1 (py)     0.0011 -0.0134  0.0000  1.5858  0.0261  0.0041  0.0318  0.0000
   5.  C 1 (pz)     0.0013 -0.0195  0.0000  0.0261  1.4287  0.0097  0.0646  0.0000
   6.  S 2 (s)      0.0000  0.0056  0.0000  0.0041  0.0097  2.0000  0.6711  0.0000
   7.  S 2 (s)      0.0001  0.0424  0.0000  0.0318  0.0646  0.6711  1.9997  0.0000
   8.  S 2 (px)     0.0000  0.0000  0.0058  0.0000  0.0000  0.0000  0.0000  1.9999
   9.  S 2 (py)    -0.0003 -0.0044  0.0000 -0.0013  0.0078  0.0000  0.0000  0.0000
  10.  S 2 (pz)    -0.0004 -0.0175  0.0000 -0.0173 -0.0084 -0.0001  0.0010  0.0000
  11.  S 2 (s)      0.0324  0.4629  0.0000  0.2211  0.5419  0.0283  0.4884  0.0000
  12.  S 2 (px)     0.0000  0.0000  0.2717  0.0000  0.0000  0.0000  0.0000  0.5156
  13.  S 2 (py)    -0.0185 -0.3215  0.0000  0.1326 -0.7081  0.0000  0.0000  0.0000
  14.  S 2 (pz)    -0.0478 -0.5966  0.0000 -0.3275 -0.7700  0.0010 -0.0127  0.0000
  15.  C 3 (s)      0.0001  0.0595  0.0000  0.0966  0.0018  0.0000  0.0001  0.0000
  16.  C 3 (s)      0.0595  0.6915  0.0000  0.8289 -0.0215  0.0056  0.0424  0.0000
  17.  C 3 (px)     0.0000  0.0000  0.3779  0.0000  0.0000  0.0000  0.0000  0.0058
  18.  C 3 (py)    -0.0966 -0.8289  0.0000 -0.9265  0.1112 -0.0041 -0.0318  0.0000
  19.  C 3 (pz)     0.0018 -0.0215  0.0000 -0.1112  0.5468  0.0097  0.0646  0.0000
  20.  H 4 (s)      0.1185  1.1213 -1.0361 -0.5776 -0.3126  0.0009  0.0082 -0.0043
  21.  H 5 (s)      0.1185  1.1213  1.0361 -0.5776 -0.3126  0.0009  0.0082  0.0043
  22.  H 6 (s)      0.0099  0.1730  0.1157  0.1853 -0.0269  0.0009  0.0082  0.0043
  23.  H 7 (s)      0.0099  0.1730 -0.1157  0.1853 -0.0269  0.0009  0.0082 -0.0043

           AO          9      10      11      12      13      14      15      16
      ------------ ------- ------- ------- ------- ------- ------- ------- -------
   1.  C 1 (s)     -0.0003 -0.0004  0.0324  0.0000 -0.0185 -0.0478  0.0001  0.0595
   2.  C 1 (s)     -0.0044 -0.0175  0.4629  0.0000 -0.3215 -0.5966  0.0595  0.6915
   3.  C 1 (px)     0.0000  0.0000  0.0000  0.2717  0.0000  0.0000  0.0000  0.0000
   4.  C 1 (py)    -0.0013 -0.0173  0.2211  0.0000  0.1326 -0.3275  0.0966  0.8289
   5.  C 1 (pz)     0.0078 -0.0084  0.5419  0.0000 -0.7081 -0.7700  0.0018 -0.0215
   6.  S 2 (s)      0.0000 -0.0001  0.0283  0.0000  0.0000  0.0010  0.0000  0.0056
   7.  S 2 (s)      0.0000  0.0010  0.4884  0.0000  0.0000 -0.0127  0.0001  0.0424
   8.  S 2 (px)     0.0000  0.0000  0.0000  0.5156  0.0000  0.0000  0.0000  0.0000
   9.  S 2 (py)     1.9977  0.0000  0.0000  0.0000  0.5492  0.0000  0.0003  0.0044
  10.  S 2 (pz)     0.0000  1.9968 -0.0072  0.0000  0.0000  0.5559 -0.0004 -0.0175
  11.  S 2 (s)      0.0000 -0.0072  1.9840  0.0000  0.0000  0.0918  0.0324  0.4629
  12.  S 2 (px)     0.0000  0.0000  0.0000  1.9895  0.0000  0.0000  0.0000  0.0000
  13.  S 2 (py)     0.5492  0.0000  0.0000  0.0000  1.4813  0.0000  0.0185  0.3215
  14.  S 2 (pz)     0.0000  0.5559  0.0918  0.0000  0.0000  1.4740 -0.0478 -0.5966
  15.  C 3 (s)      0.0003 -0.0004  0.0324  0.0000  0.0185 -0.0478  1.9995  0.5051
  16.  C 3 (s)      0.0044 -0.0175  0.4629  0.0000  0.3215 -0.5966  0.5051  1.8558
  17.  C 3 (px)     0.0000  0.0000  0.0000  0.2717  0.0000  0.0000  0.0000  0.0000
  18.  C 3 (py)    -0.0013  0.0173 -0.2211  0.0000  0.1326  0.3275 -0.0011  0.0134
  19.  C 3 (pz)    -0.0078 -0.0084  0.5419  0.0000  0.7081 -0.7700  0.0013 -0.0195
  20.  H 4 (s)     -0.0052 -0.0047  0.1229 -0.0312 -0.0455 -0.1246  0.0099  0.1730
  21.  H 5 (s)     -0.0052 -0.0047  0.1229  0.0312 -0.0455 -0.1246  0.0099  0.1730
  22.  H 6 (s)      0.0052 -0.0047  0.1229  0.0312  0.0455 -0.1246  0.1185  1.1213
  23.  H 7 (s)      0.0052 -0.0047  0.1229 -0.0312  0.0455 -0.1246  0.1185  1.1213

           AO         17      18      19      20      21      22      23
      ------------ ------- ------- ------- ------- ------- ------- -------
   1.  C 1 (s)      0.0000 -0.0966  0.0018  0.1185  0.1185  0.0099  0.0099
   2.  C 1 (s)      0.0000 -0.8289 -0.0215  1.1213  1.1213  0.1730  0.1730
   3.  C 1 (px)     0.3779  0.0000  0.0000 -1.0361  1.0361  0.1157 -0.1157
   4.  C 1 (py)     0.0000 -0.9265 -0.1112 -0.5776 -0.5776  0.1853  0.1853
   5.  C 1 (pz)     0.0000  0.1112  0.5468 -0.3126 -0.3126 -0.0269 -0.0269
   6.  S 2 (s)      0.0000 -0.0041  0.0097  0.0009  0.0009  0.0009  0.0009
   7.  S 2 (s)      0.0000 -0.0318  0.0646  0.0082  0.0082  0.0082  0.0082
   8.  S 2 (px)     0.0058  0.0000  0.0000 -0.0043  0.0043  0.0043 -0.0043
   9.  S 2 (py)     0.0000 -0.0013 -0.0078 -0.0052 -0.0052  0.0052  0.0052
  10.  S 2 (pz)     0.0000  0.0173 -0.0084 -0.0047 -0.0047 -0.0047 -0.0047
  11.  S 2 (s)      0.0000 -0.2211  0.5419  0.1229  0.1229  0.1229  0.1229
  12.  S 2 (px)     0.2717  0.0000  0.0000 -0.0312  0.0312  0.0312 -0.0312
  13.  S 2 (py)     0.0000  0.1326  0.7081 -0.0455 -0.0455  0.0455  0.0455
  14.  S 2 (pz)     0.0000  0.3275 -0.7700 -0.1246 -0.1246 -0.1246 -0.1246
  15.  C 3 (s)      0.0000 -0.0011  0.0013  0.0099  0.0099  0.1185  0.1185
  16.  C 3 (s)      0.0000  0.0134 -0.0195  0.1730  0.1730  1.1213  1.1213
  17.  C 3 (px)     1.6442  0.0000  0.0000 -0.1157  0.1157  1.0361 -1.0361
  18.  C 3 (py)     0.0000  1.5858 -0.0261 -0.1853 -0.1853  0.5776  0.5776
  19.  C 3 (pz)     0.0000 -0.0261  1.4287 -0.0269 -0.0269 -0.3126 -0.3126
  20.  H 4 (s)     -0.1157 -0.1853 -0.0269  1.6346  0.2924  0.0598  0.0641
  21.  H 5 (s)      0.1157 -0.1853 -0.0269  0.2924  1.6346  0.0641  0.0598
  22.  H 6 (s)      1.0361  0.5776 -0.3126  0.0598  0.0641  1.6346  0.2924
  23.  H 7 (s)     -1.0361  0.5776 -0.3126  0.0641  0.0598  0.2924  1.6346


 MO density matrix:

      MO     1       2       3       4       5       6       7       8       9
     ---- ------  ------  ------  ------  ------  ------  ------  ------  ------
   1.     2.0000  0.0000  0.0000  0.0000  0.0000  0.0000  0.0000  0.0000  0.0000
   2.     0.0000  2.0000  0.0000  0.0000  0.0000  0.0000  0.0000  0.0000  0.0000
   3.     0.0000  0.0000  2.0000  0.0000  0.0000  0.0000  0.0000  0.0000  0.0000
   4.     0.0000  0.0000  0.0000  2.0000  0.0000  0.0000  0.0000  0.0000  0.0000
   5.     0.0000  0.0000  0.0000  0.0000  2.0000  0.0000  0.0000  0.0000  0.0000
   6.     0.0000  0.0000  0.0000  0.0000  0.0000  2.0000  0.0000  0.0000  0.0000
   7.     0.0000  0.0000  0.0000  0.0000  0.0000  0.0000  2.0000  0.0000  0.0000
   8.     0.0000  0.0000  0.0000  0.0000  0.0000  0.0000  0.0000  2.0000  0.0000
   9.     0.0000  0.0000  0.0000  0.0000  0.0000  0.0000  0.0000  0.0000  2.0000
  10.     0.0000  0.0000  0.0000  0.0000  0.0000  0.0000  0.0000  0.0000  0.0000
  11.     0.0000  0.0000  0.0000  0.0000  0.0000  0.0000  0.0000  0.0000  0.0000
  12.     0.0000  0.0000  0.0000  0.0000  0.0000  0.0000  0.0000  0.0000  0.0000
  13.     0.0000  0.0000  0.0000  0.0000  0.0000  0.0000  0.0000  0.0000  0.0000
  14.     0.0000  0.0000  0.0000  0.0000  0.0000  0.0000  0.0000  0.0000  0.0000
  15.     0.0000  0.0000  0.0000  0.0000  0.0000  0.0000  0.0000  0.0000  0.0000
  16.     0.0000  0.0000  0.0000  0.0000  0.0000  0.0000  0.0000  0.0000  0.0000
  17.     0.0000  0.0000  0.0000  0.0000  0.0000  0.0000  0.0000  0.0000  0.0000
  18.     0.0000  0.0000  0.0000  0.0000  0.0000  0.0000  0.0000  0.0000  0.0000
  19.     0.0000  0.0000  0.0000  0.0000  0.0000  0.0000  0.0000  0.0000  0.0000
  20.     0.0000  0.0000  0.0000  0.0000  0.0000  0.0000  0.0000  0.0000  0.0000
  21.     0.0000  0.0000  0.0000  0.0000  0.0000  0.0000  0.0000  0.0000  0.0000
  22.     0.0000  0.0000  0.0000  0.0000  0.0000  0.0000  0.0000  0.0000  0.0000
  23.     0.0000  0.0000  0.0000  0.0000  0.0000  0.0000  0.0000  0.0000  0.0000

      MO    10      11      12      13      14      15      16      17      18
     ---- ------  ------  ------  ------  ------  ------  ------  ------  ------
   1.     0.0000  0.0000  0.0000  0.0000  0.0000  0.0000  0.0000  0.0000  0.0000
   2.     0.0000  0.0000  0.0000  0.0000  0.0000  0.0000  0.0000  0.0000  0.0000
   3.     0.0000  0.0000  0.0000  0.0000  0.0000  0.0000  0.0000  0.0000  0.0000
   4.     0.0000  0.0000  0.0000  0.0000  0.0000  0.0000  0.0000  0.0000  0.0000
   5.     0.0000  0.0000  0.0000  0.0000  0.0000  0.0000  0.0000  0.0000  0.0000
   6.     0.0000  0.0000  0.0000  0.0000  0.0000  0.0000  0.0000  0.0000  0.0000
   7.     0.0000  0.0000  0.0000  0.0000  0.0000  0.0000  0.0000  0.0000  0.0000
   8.     0.0000  0.0000  0.0000  0.0000  0.0000  0.0000  0.0000  0.0000  0.0000
   9.     0.0000  0.0000  0.0000  0.0000  0.0000  0.0000  0.0000  0.0000  0.0000
  10.     2.0000  0.0000  0.0000  0.0000  0.0000  0.0000  0.0000  0.0000  0.0000
  11.     0.0000  2.0000  0.0000  0.0000  0.0000  0.0000  0.0000  0.0000  0.0000
  12.     0.0000  0.0000  2.0000  0.0000  0.0000  0.0000  0.0000  0.0000  0.0000
  13.     0.0000  0.0000  0.0000  2.0000  0.0000  0.0000  0.0000  0.0000  0.0000
  14.     0.0000  0.0000  0.0000  0.0000  2.0000  0.0000  0.0000  0.0000  0.0000
  15.     0.0000  0.0000  0.0000  0.0000  0.0000  2.0000  0.0000  0.0000  0.0000
  16.     0.0000  0.0000  0.0000  0.0000  0.0000  0.0000  2.0000  0.0000  0.0000
  17.     0.0000  0.0000  0.0000  0.0000  0.0000  0.0000  0.0000  0.0000  0.0000
  18.     0.0000  0.0000  0.0000  0.0000  0.0000  0.0000  0.0000  0.0000  0.0000
  19.     0.0000  0.0000  0.0000  0.0000  0.0000  0.0000  0.0000  0.0000  0.0000
  20.     0.0000  0.0000  0.0000  0.0000  0.0000  0.0000  0.0000  0.0000  0.0000
  21.     0.0000  0.0000  0.0000  0.0000  0.0000  0.0000  0.0000  0.0000  0.0000
  22.     0.0000  0.0000  0.0000  0.0000  0.0000  0.0000  0.0000  0.0000  0.0000
  23.     0.0000  0.0000  0.0000  0.0000  0.0000  0.0000  0.0000  0.0000  0.0000

      MO    19      20      21      22      23
     ---- ------  ------  ------  ------  ------
   1.     0.0000  0.0000  0.0000  0.0000  0.0000
   2.     0.0000  0.0000  0.0000  0.0000  0.0000
   3.     0.0000  0.0000  0.0000  0.0000  0.0000
   4.     0.0000  0.0000  0.0000  0.0000  0.0000
   5.     0.0000  0.0000  0.0000  0.0000  0.0000
   6.     0.0000  0.0000  0.0000  0.0000  0.0000
   7.     0.0000  0.0000  0.0000  0.0000  0.0000
   8.     0.0000  0.0000  0.0000  0.0000  0.0000
   9.     0.0000  0.0000  0.0000  0.0000  0.0000
  10.     0.0000  0.0000  0.0000  0.0000  0.0000
  11.     0.0000  0.0000  0.0000  0.0000  0.0000
  12.     0.0000  0.0000  0.0000  0.0000  0.0000
  13.     0.0000  0.0000  0.0000  0.0000  0.0000
  14.     0.0000  0.0000  0.0000  0.0000  0.0000
  15.     0.0000  0.0000  0.0000  0.0000  0.0000
  16.     0.0000  0.0000  0.0000  0.0000  0.0000
  17.     0.0000  0.0000  0.0000  0.0000  0.0000
  18.     0.0000  0.0000  0.0000  0.0000  0.0000
  19.     0.0000  0.0000  0.0000  0.0000  0.0000
  20.     0.0000  0.0000  0.0000  0.0000  0.0000
  21.     0.0000  0.0000  0.0000  0.0000  0.0000
  22.     0.0000  0.0000  0.0000  0.0000  0.0000
  23.     0.0000  0.0000  0.0000  0.0000  0.0000


 NATURAL POPULATIONS:  Natural atomic orbital occupancies

  NAO Atom No lang   Type(AO)    Occupancy      Energy
 -------------------------------------------------------
   1    C  1  s      Cor( 1s)     2.00000     -11.03915
   2    C  1  s      Val( 2s)     1.10912      -0.22955
   3    C  1  px     Val( 2p)     1.03095       0.07503
   4    C  1  py     Val( 2p)     0.97580       0.08773
   5    C  1  pz     Val( 2p)     1.01153      -0.00367

   6    S  2  s      Cor( 1s)     2.00000     -90.60941
   7    S  2  s      Cor( 2s)     2.00000      -8.66511
   8    S  2  s      Val( 3s)     1.87526      -0.75600
   9    S  2  px     Cor( 2p)     2.00000      -6.25174
  10    S  2  px     Val( 3p)     1.97557      -0.25753
  11    S  2  py     Cor( 2p)     1.99998      -6.25545
  12    S  2  py     Val( 3p)     1.15326      -0.05906
  13    S  2  pz     Cor( 2p)     1.99998      -6.25721
  14    S  2  pz     Val( 3p)     0.93346       0.04193

  15    C  3  s      Cor( 1s)     2.00000     -11.03915
  16    C  3  s      Val( 2s)     1.10912      -0.22955
  17    C  3  px     Val( 2p)     1.03095       0.07503
  18    C  3  py     Val( 2p)     0.97580       0.08773
  19    C  3  pz     Val( 2p)     1.01153      -0.00367

  20    H  4  s      Val( 1s)     0.95193       0.07183

  21    H  5  s      Val( 1s)     0.95193       0.07183

  22    H  6  s      Val( 1s)     0.95193       0.07183

  23    H  7  s      Val( 1s)     0.95193       0.07183


 Summary of Natural Population Analysis:

                                     Natural Population
             Natural    ---------------------------------------------
  Atom No    Charge        Core      Valence    Rydberg      Total
 --------------------------------------------------------------------
    C  1   -0.12739      2.00000     4.12739    0.00000     6.12739
    S  2    0.06249      9.99996     5.93755    0.00000    15.93751
    C  3   -0.12739      2.00000     4.12739    0.00000     6.12739
    H  4    0.04807      0.00000     0.95193    0.00000     0.95193
    H  5    0.04807      0.00000     0.95193    0.00000     0.95193
    H  6    0.04807      0.00000     0.95193    0.00000     0.95193
    H  7    0.04807      0.00000     0.95193    0.00000     0.95193
 ====================================================================
 * Total *  0.00000     13.99996    18.00004    0.00000    32.00000

                                 Natural Population
 ---------------------------------------------------------
   Core                      13.99996 ( 99.9997% of   14)
   Valence                   18.00004 (100.0002% of   18)
   Natural Minimal Basis     32.00000 (100.0000% of   32)
   Natural Rydberg Basis      0.00000 (  0.0000% of   32)
 ---------------------------------------------------------

    Atom No         Natural Electron Configuration
 ----------------------------------------------------------------------------
      C  1      [core]2s( 1.11)2p( 3.02)
      S  2      [core]3s( 1.88)3p( 4.06)
      C  3      [core]2s( 1.11)2p( 3.02)
      H  4            1s( 0.95)
      H  5            1s( 0.95)
      H  6            1s( 0.95)
      H  7            1s( 0.95)


 PNAOs in the AO basis:

           AO          1       2       3       4       5       6       7       8
      ------------ ------- ------- ------- ------- ------- ------- ------- -------
   1.  C 1 (s)      0.9843 -0.3111  0.0000  0.0000  0.0000  0.0000  0.0000  0.0000
   2.  C 1 (s)      0.0569  1.0308  0.0000  0.0000  0.0000  0.0000  0.0000  0.0000
   3.  C 1 (px)     0.0000  0.0000  1.0000  0.0000  0.0000  0.0000  0.0000  0.0000
   4.  C 1 (py)     0.0000  0.0000  0.0000  1.0000  0.0000  0.0000  0.0000  0.0000
   5.  C 1 (pz)     0.0000  0.0000  0.0000  0.0000  1.0000  0.0000  0.0000  0.0000
   6.  S 2 (s)      0.0000  0.0000  0.0000  0.0000  0.0000  0.9798 -0.3928  0.1369
   7.  S 2 (s)      0.0000  0.0000  0.0000  0.0000  0.0000  0.0563  1.0110 -0.4227
   8.  S 2 (px)     0.0000  0.0000  0.0000  0.0000  0.0000  0.0000  0.0000  0.0000
   9.  S 2 (py)     0.0000  0.0000  0.0000  0.0000  0.0000  0.0000  0.0000  0.0000
  10.  S 2 (pz)     0.0000  0.0000  0.0000  0.0000  0.0000  0.0000  0.0000  0.0000
  11.  S 2 (s)      0.0000  0.0000  0.0000  0.0000  0.0000 -0.0025  0.1443  1.0236
  12.  S 2 (px)     0.0000  0.0000  0.0000  0.0000  0.0000  0.0000  0.0000  0.0000
  13.  S 2 (py)     0.0000  0.0000  0.0000  0.0000  0.0000  0.0000  0.0000  0.0000
  14.  S 2 (pz)     0.0000  0.0000  0.0000  0.0000  0.0000  0.0000  0.0000  0.0000
  15.  C 3 (s)      0.0000  0.0000  0.0000  0.0000  0.0000  0.0000  0.0000  0.0000
  16.  C 3 (s)      0.0000  0.0000  0.0000  0.0000  0.0000  0.0000  0.0000  0.0000
  17.  C 3 (px)     0.0000  0.0000  0.0000  0.0000  0.0000  0.0000  0.0000  0.0000
  18.  C 3 (py)     0.0000  0.0000  0.0000  0.0000  0.0000  0.0000  0.0000  0.0000
  19.  C 3 (pz)     0.0000  0.0000  0.0000  0.0000  0.0000  0.0000  0.0000  0.0000
  20.  H 4 (s)      0.0000  0.0000  0.0000  0.0000  0.0000  0.0000  0.0000  0.0000
  21.  H 5 (s)      0.0000  0.0000  0.0000  0.0000  0.0000  0.0000  0.0000  0.0000
  22.  H 6 (s)      0.0000  0.0000  0.0000  0.0000  0.0000  0.0000  0.0000  0.0000
  23.  H 7 (s)      0.0000  0.0000  0.0000  0.0000  0.0000  0.0000  0.0000  0.0000

           AO          9      10      11      12      13      14      15      16
      ------------ ------- ------- ------- ------- ------- ------- ------- -------
   1.  C 1 (s)      0.0000  0.0000  0.0000  0.0000  0.0000  0.0000  0.0000  0.0000
   2.  C 1 (s)      0.0000  0.0000  0.0000  0.0000  0.0000  0.0000  0.0000  0.0000
   3.  C 1 (px)     0.0000  0.0000  0.0000  0.0000  0.0000  0.0000  0.0000  0.0000
   4.  C 1 (py)     0.0000  0.0000  0.0000  0.0000  0.0000  0.0000  0.0000  0.0000
   5.  C 1 (pz)     0.0000  0.0000  0.0000  0.0000  0.0000  0.0000  0.0000  0.0000
   6.  S 2 (s)      0.0000  0.0000  0.0000  0.0000  0.0000  0.0000  0.0000  0.0000
   7.  S 2 (s)      0.0000  0.0000  0.0000  0.0000  0.0000  0.0000  0.0000  0.0000
   8.  S 2 (px)     0.9794 -0.3343  0.0000  0.0000  0.0000  0.0000  0.0000  0.0000
   9.  S 2 (py)     0.0000  0.0000  0.9794 -0.3343  0.0000  0.0000  0.0000  0.0000
  10.  S 2 (pz)     0.0000  0.0000  0.0000  0.0000  0.9794 -0.3343  0.0000  0.0000
  11.  S 2 (s)      0.0000  0.0000  0.0000  0.0000  0.0000  0.0000  0.0000  0.0000
  12.  S 2 (px)     0.0710  1.0324  0.0000  0.0000  0.0000  0.0000  0.0000  0.0000
  13.  S 2 (py)     0.0000  0.0000  0.0710  1.0324  0.0000  0.0000  0.0000  0.0000
  14.  S 2 (pz)     0.0000  0.0000  0.0000  0.0000  0.0710  1.0324  0.0000  0.0000
  15.  C 3 (s)      0.0000  0.0000  0.0000  0.0000  0.0000  0.0000  0.9843 -0.3111
  16.  C 3 (s)      0.0000  0.0000  0.0000  0.0000  0.0000  0.0000  0.0569  1.0308
  17.  C 3 (px)     0.0000  0.0000  0.0000  0.0000  0.0000  0.0000  0.0000  0.0000
  18.  C 3 (py)     0.0000  0.0000  0.0000  0.0000  0.0000  0.0000  0.0000  0.0000
  19.  C 3 (pz)     0.0000  0.0000  0.0000  0.0000  0.0000  0.0000  0.0000  0.0000
  20.  H 4 (s)      0.0000  0.0000  0.0000  0.0000  0.0000  0.0000  0.0000  0.0000
  21.  H 5 (s)      0.0000  0.0000  0.0000  0.0000  0.0000  0.0000  0.0000  0.0000
  22.  H 6 (s)      0.0000  0.0000  0.0000  0.0000  0.0000  0.0000  0.0000  0.0000
  23.  H 7 (s)      0.0000  0.0000  0.0000  0.0000  0.0000  0.0000  0.0000  0.0000

           AO         17      18      19      20      21      22      23
      ------------ ------- ------- ------- ------- ------- ------- -------
   1.  C 1 (s)      0.0000  0.0000  0.0000  0.0000  0.0000  0.0000  0.0000
   2.  C 1 (s)      0.0000  0.0000  0.0000  0.0000  0.0000  0.0000  0.0000
   3.  C 1 (px)     0.0000  0.0000  0.0000  0.0000  0.0000  0.0000  0.0000
   4.  C 1 (py)     0.0000  0.0000  0.0000  0.0000  0.0000  0.0000  0.0000
   5.  C 1 (pz)     0.0000  0.0000  0.0000  0.0000  0.0000  0.0000  0.0000
   6.  S 2 (s)      0.0000  0.0000  0.0000  0.0000  0.0000  0.0000  0.0000
   7.  S 2 (s)      0.0000  0.0000  0.0000  0.0000  0.0000  0.0000  0.0000
   8.  S 2 (px)     0.0000  0.0000  0.0000  0.0000  0.0000  0.0000  0.0000
   9.  S 2 (py)     0.0000  0.0000  0.0000  0.0000  0.0000  0.0000  0.0000
  10.  S 2 (pz)     0.0000  0.0000  0.0000  0.0000  0.0000  0.0000  0.0000
  11.  S 2 (s)      0.0000  0.0000  0.0000  0.0000  0.0000  0.0000  0.0000
  12.  S 2 (px)     0.0000  0.0000  0.0000  0.0000  0.0000  0.0000  0.0000
  13.  S 2 (py)     0.0000  0.0000  0.0000  0.0000  0.0000  0.0000  0.0000
  14.  S 2 (pz)     0.0000  0.0000  0.0000  0.0000  0.0000  0.0000  0.0000
  15.  C 3 (s)      0.0000  0.0000  0.0000  0.0000  0.0000  0.0000  0.0000
  16.  C 3 (s)      0.0000  0.0000  0.0000  0.0000  0.0000  0.0000  0.0000
  17.  C 3 (px)     1.0000  0.0000  0.0000  0.0000  0.0000  0.0000  0.0000
  18.  C 3 (py)     0.0000  1.0000  0.0000  0.0000  0.0000  0.0000  0.0000
  19.  C 3 (pz)     0.0000  0.0000  1.0000  0.0000  0.0000  0.0000  0.0000
  20.  H 4 (s)      0.0000  0.0000  0.0000  1.0000  0.0000  0.0000  0.0000
  21.  H 5 (s)      0.0000  0.0000  0.0000  0.0000  1.0000  0.0000  0.0000
  22.  H 6 (s)      0.0000  0.0000  0.0000  0.0000  0.0000  1.0000  0.0000
  23.  H 7 (s)      0.0000  0.0000  0.0000  0.0000  0.0000  0.0000  1.0000


 PNAO overlap matrix:

           NAO         1       2       3       4       5       6       7       8
      ------------ ------- ------- ------- ------- ------- ------- ------- -------
   1.  C 1( 1s )    1.0000  0.0000  0.0000  0.0000  0.0000  0.0002  0.0054  0.0294
   2.  C 1( 2s )    0.0000  1.0000  0.0000  0.0000  0.0000  0.0035  0.0547  0.2224
   3.  C 1( 2px)    0.0000  0.0000  1.0000  0.0000  0.0000  0.0000  0.0000  0.0000
   4.  C 1( 2py)    0.0000  0.0000  0.0000  1.0000  0.0000  0.0026  0.0312  0.1051
   5.  C 1( 2pz)    0.0000  0.0000  0.0000  0.0000  1.0000  0.0059  0.0698  0.2353
   6.  S 2( 1s )    0.0002  0.0035  0.0000  0.0026  0.0059  1.0000  0.0000  0.0000
   7.  S 2( 2s )    0.0054  0.0547  0.0000  0.0312  0.0698  0.0000  1.0000  0.0000
   8.  S 2( 3s )    0.0294  0.2224  0.0000  0.1051  0.2353  0.0000  0.0000  1.0000
   9.  S 2( 2px)    0.0000  0.0000  0.0126  0.0000  0.0000  0.0000  0.0000  0.0000
  10.  S 2( 3px)    0.0000  0.0000  0.1167  0.0000  0.0000  0.0000  0.0000  0.0000
  11.  S 2( 2py)   -0.0016 -0.0136  0.0000  0.0037 -0.0201  0.0000  0.0000  0.0000
  12.  S 2( 3py)   -0.0187 -0.1178  0.0000  0.0470 -0.1561  0.0000  0.0000  0.0000
  13.  S 2( 2pz)   -0.0036 -0.0304  0.0000 -0.0201 -0.0323  0.0000  0.0000  0.0000
  14.  S 2( 3pz)   -0.0418 -0.2637  0.0000 -0.1561 -0.2327  0.0000  0.0000  0.0000
  15.  C 3( 1s )    0.0045  0.0500  0.0000  0.0711  0.0000  0.0002  0.0054  0.0294
  16.  C 3( 2s )    0.0500  0.3267  0.0000  0.3538  0.0000  0.0035  0.0547  0.2224
  17.  C 3( 2px)    0.0000  0.0000  0.1841  0.0000  0.0000  0.0000  0.0000  0.0000
  18.  C 3( 2py)   -0.0711 -0.3538  0.0000 -0.3220  0.0000 -0.0026 -0.0312 -0.1051
  19.  C 3( 2pz)    0.0000  0.0000  0.0000  0.0000  0.1841  0.0059  0.0698  0.2353
  20.  H 4( 1s )    0.0902  0.4893 -0.3952 -0.2207 -0.1230  0.0005  0.0128  0.0625
  21.  H 5( 1s )    0.0902  0.4893  0.3952 -0.2207 -0.1230  0.0005  0.0128  0.0625
  22.  H 6( 1s )    0.0097  0.0896  0.0478  0.1040 -0.0149  0.0005  0.0128  0.0625
  23.  H 7( 1s )    0.0097  0.0896 -0.0478  0.1040 -0.0149  0.0005  0.0128  0.0625

           NAO         9      10      11      12      13      14      15      16
      ------------ ------- ------- ------- ------- ------- ------- ------- -------
   1.  C 1( 1s )    0.0000  0.0000 -0.0016 -0.0187 -0.0036 -0.0418  0.0045  0.0500
   2.  C 1( 2s )    0.0000  0.0000 -0.0136 -0.1178 -0.0304 -0.2637  0.0500  0.3267
   3.  C 1( 2px)    0.0126  0.1167  0.0000  0.0000  0.0000  0.0000  0.0000  0.0000
   4.  C 1( 2py)    0.0000  0.0000  0.0037  0.0470 -0.0201 -0.1561  0.0711  0.3538
   5.  C 1( 2pz)    0.0000  0.0000 -0.0201 -0.1561 -0.0323 -0.2327  0.0000  0.0000
   6.  S 2( 1s )    0.0000  0.0000  0.0000  0.0000  0.0000  0.0000  0.0002  0.0035
   7.  S 2( 2s )    0.0000  0.0000  0.0000  0.0000  0.0000  0.0000  0.0054  0.0547
   8.  S 2( 3s )    0.0000  0.0000  0.0000  0.0000  0.0000  0.0000  0.0294  0.2224
   9.  S 2( 2px)    1.0000  0.0000  0.0000  0.0000  0.0000  0.0000  0.0000  0.0000
  10.  S 2( 3px)    0.0000  1.0000  0.0000  0.0000  0.0000  0.0000  0.0000  0.0000
  11.  S 2( 2py)    0.0000  0.0000  1.0000  0.0000  0.0000  0.0000  0.0016  0.0136
  12.  S 2( 3py)    0.0000  0.0000  0.0000  1.0000  0.0000  0.0000  0.0187  0.1178
  13.  S 2( 2pz)    0.0000  0.0000  0.0000  0.0000  1.0000  0.0000 -0.0036 -0.0304
  14.  S 2( 3pz)    0.0000  0.0000  0.0000  0.0000  0.0000  1.0000 -0.0418 -0.2637
  15.  C 3( 1s )    0.0000  0.0000  0.0016  0.0187 -0.0036 -0.0418  1.0000  0.0000
  16.  C 3( 2s )    0.0000  0.0000  0.0136  0.1178 -0.0304 -0.2637  0.0000  1.0000
  17.  C 3( 2px)    0.0126  0.1167  0.0000  0.0000  0.0000  0.0000  0.0000  0.0000
  18.  C 3( 2py)    0.0000  0.0000  0.0037  0.0470  0.0201  0.1561  0.0000  0.0000
  19.  C 3( 2pz)    0.0000  0.0000  0.0201  0.1561 -0.0323 -0.2327  0.0000  0.0000
  20.  H 4( 1s )   -0.0031 -0.0327 -0.0043 -0.0448 -0.0066 -0.0695  0.0097  0.0896
  21.  H 5( 1s )    0.0031  0.0327 -0.0043 -0.0448 -0.0066 -0.0695  0.0097  0.0896
  22.  H 6( 1s )    0.0031  0.0327  0.0043  0.0448 -0.0066 -0.0695  0.0902  0.4893
  23.  H 7( 1s )   -0.0031 -0.0327  0.0043  0.0448 -0.0066 -0.0695  0.0902  0.4893

           NAO        17      18      19      20      21      22      23
      ------------ ------- ------- ------- ------- ------- ------- -------
   1.  C 1( 1s )    0.0000 -0.0711  0.0000  0.0902  0.0902  0.0097  0.0097
   2.  C 1( 2s )    0.0000 -0.3538  0.0000  0.4893  0.4893  0.0896  0.0896
   3.  C 1( 2px)    0.1841  0.0000  0.0000 -0.3952  0.3952  0.0478 -0.0478
   4.  C 1( 2py)    0.0000 -0.3220  0.0000 -0.2207 -0.2207  0.1040  0.1040
   5.  C 1( 2pz)    0.0000  0.0000  0.1841 -0.1230 -0.1230 -0.0149 -0.0149
   6.  S 2( 1s )    0.0000 -0.0026  0.0059  0.0005  0.0005  0.0005  0.0005
   7.  S 2( 2s )    0.0000 -0.0312  0.0698  0.0128  0.0128  0.0128  0.0128
   8.  S 2( 3s )    0.0000 -0.1051  0.2353  0.0625  0.0625  0.0625  0.0625
   9.  S 2( 2px)    0.0126  0.0000  0.0000 -0.0031  0.0031  0.0031 -0.0031
  10.  S 2( 3px)    0.1167  0.0000  0.0000 -0.0327  0.0327  0.0327 -0.0327
  11.  S 2( 2py)    0.0000  0.0037  0.0201 -0.0043 -0.0043  0.0043  0.0043
  12.  S 2( 3py)    0.0000  0.0470  0.1561 -0.0448 -0.0448  0.0448  0.0448
  13.  S 2( 2pz)    0.0000  0.0201 -0.0323 -0.0066 -0.0066 -0.0066 -0.0066
  14.  S 2( 3pz)    0.0000  0.1561 -0.2327 -0.0695 -0.0695 -0.0695 -0.0695
  15.  C 3( 1s )    0.0000  0.0000  0.0000  0.0097  0.0097  0.0902  0.0902
  16.  C 3( 2s )    0.0000  0.0000  0.0000  0.0896  0.0896  0.4893  0.4893
  17.  C 3( 2px)    1.0000  0.0000  0.0000 -0.0478  0.0478  0.3952 -0.3952
  18.  C 3( 2py)    0.0000  1.0000  0.0000 -0.1040 -0.1040  0.2207  0.2207
  19.  C 3( 2pz)    0.0000  0.0000  1.0000 -0.0149 -0.0149 -0.1230 -0.1230
  20.  H 4( 1s )   -0.0478 -0.1040 -0.0149  1.0000  0.1571  0.0148  0.0495
  21.  H 5( 1s )    0.0478 -0.1040 -0.0149  0.1571  1.0000  0.0495  0.0148
  22.  H 6( 1s )    0.3952  0.2207 -0.1230  0.0148  0.0495  1.0000  0.1571
  23.  H 7( 1s )   -0.3952  0.2207 -0.1230  0.0495  0.0148  0.1571  1.0000


 PNAO density matrix:

           NAO         1       2       3       4       5       6       7       8
      ------------ ------- ------- ------- ------- ------- ------- ------- -------
   1.  C 1( 1s )    2.0000  0.0000  0.0000  0.0003  0.0002  0.0003  0.0109  0.0586
   2.  C 1( 2s )    0.0000  1.8414  0.0000 -0.0141 -0.0205  0.0069  0.1093  0.4604
   3.  C 1( 2px)    0.0000  0.0000  1.6442  0.0000  0.0000  0.0000  0.0000  0.0000
   4.  C 1( 2py)    0.0003 -0.0141  0.0000  1.5858  0.0261  0.0053  0.0625  0.2134
   5.  C 1( 2pz)    0.0002 -0.0205  0.0000  0.0261  1.4287  0.0118  0.1397  0.5287
   6.  S 2( 1s )    0.0003  0.0069  0.0000  0.0053  0.0118  2.0000  0.0000  0.0000
   7.  S 2( 2s )    0.0109  0.1093  0.0000  0.0625  0.1397  0.0000  2.0000  0.0000
   8.  S 2( 3s )    0.0586  0.4604  0.0000  0.2134  0.5287  0.0000  0.0000  1.9812
   9.  S 2( 2px)    0.0000  0.0000  0.0250  0.0000  0.0000  0.0000  0.0000  0.0000
  10.  S 2( 3px)    0.0000  0.0000  0.2786  0.0000  0.0000  0.0000  0.0000  0.0000
  11.  S 2( 2py)   -0.0032 -0.0274  0.0000  0.0081 -0.0427  0.0000  0.0000  0.0000
  12.  S 2( 3py)   -0.0375 -0.3348  0.0000  0.1373 -0.7337  0.0000  0.0000  0.0000
  13.  S 2( 2pz)   -0.0071 -0.0602  0.0000 -0.0402 -0.0629  0.0000  0.0000 -0.0006
  14.  S 2( 3pz)   -0.0831 -0.6135  0.0000 -0.3323 -0.7922  0.0000  0.0000  0.1053
  15.  C 3( 1s )    0.0090  0.0998  0.0000  0.1423  0.0005  0.0003  0.0109  0.0586
  16.  C 3( 2s )    0.0998  0.6966  0.0000  0.8244 -0.0227  0.0069  0.1093  0.4604
  17.  C 3( 2px)    0.0000  0.0000  0.3779  0.0000  0.0000  0.0000  0.0000  0.0000
  18.  C 3( 2py)   -0.1423 -0.8244  0.0000 -0.9265  0.1112 -0.0053 -0.0625 -0.2134
  19.  C 3( 2pz)    0.0005 -0.0227  0.0000 -0.1112  0.5468  0.0118  0.1397  0.5287
  20.  H 4( 1s )    0.1804  1.1190 -1.0361 -0.5776 -0.3126  0.0010  0.0257  0.1225
  21.  H 5( 1s )    0.1804  1.1190  1.0361 -0.5776 -0.3126  0.0010  0.0257  0.1225
  22.  H 6( 1s )    0.0196  0.1752  0.1157  0.1853 -0.0269  0.0010  0.0257  0.1225
  23.  H 7( 1s )    0.0196  0.1752 -0.1157  0.1853 -0.0269  0.0010  0.0257  0.1225

           NAO         9      10      11      12      13      14      15      16
      ------------ ------- ------- ------- ------- ------- ------- ------- -------
   1.  C 1( 1s )    0.0000  0.0000 -0.0032 -0.0375 -0.0071 -0.0831  0.0090  0.0998
   2.  C 1( 2s )    0.0000  0.0000 -0.0274 -0.3348 -0.0602 -0.6135  0.0998  0.6966
   3.  C 1( 2px)    0.0250  0.2786  0.0000  0.0000  0.0000  0.0000  0.0000  0.0000
   4.  C 1( 2py)    0.0000  0.0000  0.0081  0.1373 -0.0402 -0.3323  0.1423  0.8244
   5.  C 1( 2pz)    0.0000  0.0000 -0.0427 -0.7337 -0.0629 -0.7922  0.0005 -0.0227
   6.  S 2( 1s )    0.0000  0.0000  0.0000  0.0000  0.0000  0.0000  0.0003  0.0069
   7.  S 2( 2s )    0.0000  0.0000  0.0000  0.0000  0.0000  0.0000  0.0109  0.1093
   8.  S 2( 3s )    0.0000  0.0000  0.0000  0.0000 -0.0006  0.1053  0.0586  0.4604
   9.  S 2( 2px)    2.0000  0.0001  0.0000  0.0000  0.0000  0.0000  0.0000  0.0000
  10.  S 2( 3px)    0.0001  1.9882  0.0000  0.0000  0.0000  0.0000  0.0000  0.0000
  11.  S 2( 2py)    0.0000  0.0000  2.0000 -0.0032  0.0000  0.0000  0.0032  0.0274
  12.  S 2( 3py)    0.0000  0.0000 -0.0032  1.4231  0.0000  0.0000  0.0375  0.3348
  13.  S 2( 2pz)    0.0000  0.0000  0.0000  0.0000  2.0000  0.0031 -0.0071 -0.0602
  14.  S 2( 3pz)    0.0000  0.0000  0.0000  0.0000  0.0031  1.4106 -0.0831 -0.6135
  15.  C 3( 1s )    0.0000  0.0000  0.0032  0.0375 -0.0071 -0.0831  2.0000  0.0000
  16.  C 3( 2s )    0.0000  0.0000  0.0274  0.3348 -0.0602 -0.6135  0.0000  1.8414
  17.  C 3( 2px)    0.0250  0.2786  0.0000  0.0000  0.0000  0.0000  0.0000  0.0000
  18.  C 3( 2py)    0.0000  0.0000  0.0081  0.1373  0.0402  0.3323 -0.0003  0.0141
  19.  C 3( 2pz)    0.0000  0.0000  0.0427  0.7337 -0.0629 -0.7922  0.0002 -0.0205
  20.  H 4( 1s )   -0.0065 -0.0308 -0.0084 -0.0452 -0.0135 -0.1271  0.0196  0.1752
  21.  H 5( 1s )    0.0065  0.0308 -0.0084 -0.0452 -0.0135 -0.1271  0.0196  0.1752
  22.  H 6( 1s )    0.0065  0.0308  0.0084  0.0452 -0.0135 -0.1271  0.1804  1.1190
  23.  H 7( 1s )   -0.0065 -0.0308  0.0084  0.0452 -0.0135 -0.1271  0.1804  1.1190

           NAO        17      18      19      20      21      22      23
      ------------ ------- ------- ------- ------- ------- ------- -------
   1.  C 1( 1s )    0.0000 -0.1423  0.0005  0.1804  0.1804  0.0196  0.0196
   2.  C 1( 2s )    0.0000 -0.8244 -0.0227  1.1190  1.1190  0.1752  0.1752
   3.  C 1( 2px)    0.3779  0.0000  0.0000 -1.0361  1.0361  0.1157 -0.1157
   4.  C 1( 2py)    0.0000 -0.9265 -0.1112 -0.5776 -0.5776  0.1853  0.1853
   5.  C 1( 2pz)    0.0000  0.1112  0.5468 -0.3126 -0.3126 -0.0269 -0.0269
   6.  S 2( 1s )    0.0000 -0.0053  0.0118  0.0010  0.0010  0.0010  0.0010
   7.  S 2( 2s )    0.0000 -0.0625  0.1397  0.0257  0.0257  0.0257  0.0257
   8.  S 2( 3s )    0.0000 -0.2134  0.5287  0.1225  0.1225  0.1225  0.1225
   9.  S 2( 2px)    0.0250  0.0000  0.0000 -0.0065  0.0065  0.0065 -0.0065
  10.  S 2( 3px)    0.2786  0.0000  0.0000 -0.0308  0.0308  0.0308 -0.0308
  11.  S 2( 2py)    0.0000  0.0081  0.0427 -0.0084 -0.0084  0.0084  0.0084
  12.  S 2( 3py)    0.0000  0.1373  0.7337 -0.0452 -0.0452  0.0452  0.0452
  13.  S 2( 2pz)    0.0000  0.0402 -0.0629 -0.0135 -0.0135 -0.0135 -0.0135
  14.  S 2( 3pz)    0.0000  0.3323 -0.7922 -0.1271 -0.1271 -0.1271 -0.1271
  15.  C 3( 1s )    0.0000 -0.0003  0.0002  0.0196  0.0196  0.1804  0.1804
  16.  C 3( 2s )    0.0000  0.0141 -0.0205  0.1752  0.1752  1.1190  1.1190
  17.  C 3( 2px)    1.6442  0.0000  0.0000 -0.1157  0.1157  1.0361 -1.0361
  18.  C 3( 2py)    0.0000  1.5858 -0.0261 -0.1853 -0.1853  0.5776  0.5776
  19.  C 3( 2pz)    0.0000 -0.0261  1.4287 -0.0269 -0.0269 -0.3126 -0.3126
  20.  H 4( 1s )   -0.1157 -0.1853 -0.0269  1.6346  0.2924  0.0598  0.0641
  21.  H 5( 1s )    0.1157 -0.1853 -0.0269  0.2924  1.6346  0.0641  0.0598
  22.  H 6( 1s )    1.0361  0.5776 -0.3126  0.0598  0.0641  1.6346  0.2924
  23.  H 7( 1s )   -1.0361  0.5776 -0.3126  0.0641  0.0598  0.2924  1.6346


 NAOs in the AO basis:

           AO          1       2       3       4       5       6       7       8
      ------------ ------- ------- ------- ------- ------- ------- ------- -------
   1.  C 1 (s)      0.9844 -0.3525  0.0000 -0.0048 -0.0010 -0.0001 -0.0027  0.0066
   2.  C 1 (s)      0.0569  1.4864  0.0000  0.0314 -0.0169  0.0000 -0.0002 -0.1116
   3.  C 1 (px)     0.0000  0.0000  1.2127  0.0000  0.0000  0.0000  0.0000  0.0000
   4.  C 1 (py)     0.0000  0.0255  0.0000  1.2106  0.0496  0.0000  0.0000 -0.0323
   5.  C 1 (pz)     0.0000 -0.0136  0.0000  0.0496  1.0964  0.0000  0.0000 -0.1246
   6.  S 2 (s)      0.0010  0.0019  0.0000  0.0020  0.0024  0.9798 -0.3928  0.1393
   7.  S 2 (s)     -0.0027 -0.0057  0.0000 -0.0079 -0.0115  0.0563  1.0110 -0.4290
   8.  S 2 (px)     0.0000  0.0000  0.0067  0.0000  0.0000  0.0000  0.0000  0.0000
   9.  S 2 (py)     0.0008 -0.0097  0.0000 -0.0005 -0.0104  0.0000  0.0000  0.0000
  10.  S 2 (pz)     0.0017 -0.0117  0.0000 -0.0030 -0.0139  0.0000  0.0000  0.0156
  11.  S 2 (s)     -0.0004 -0.1253  0.0000 -0.0458 -0.1738 -0.0025  0.1443  1.1215
  12.  S 2 (px)     0.0000  0.0000 -0.0582  0.0000  0.0000  0.0000  0.0000  0.0000
  13.  S 2 (py)     0.0001  0.0861  0.0000  0.0051  0.1040  0.0000  0.0000  0.0000
  14.  S 2 (pz)     0.0001  0.1271  0.0000  0.0586  0.1557  0.0000  0.0000 -0.0983
  15.  C 3 (s)     -0.0022  0.0073  0.0000 -0.0010 -0.0047 -0.0001 -0.0027  0.0066
  16.  C 3 (s)     -0.0001 -0.2215  0.0000 -0.2788  0.0337  0.0000 -0.0002 -0.1116
  17.  C 3 (px)     0.0000  0.0000 -0.1084  0.0000  0.0000  0.0000  0.0000  0.0000
  18.  C 3 (py)     0.0000  0.2242  0.0000  0.2484 -0.0109  0.0000  0.0000  0.0323
  19.  C 3 (pz)     0.0000  0.0273  0.0000  0.0109 -0.0595  0.0000  0.0000 -0.1246
  20.  H 4 (s)      0.0000 -0.3259  0.3095  0.1705  0.0946  0.0000  0.0000 -0.0070
  21.  H 5 (s)      0.0000 -0.3259 -0.3095  0.1705  0.0946  0.0000  0.0000 -0.0070
  22.  H 6 (s)      0.0000 -0.0051  0.0132 -0.0126 -0.0028  0.0000  0.0000 -0.0070
  23.  H 7 (s)      0.0000 -0.0051 -0.0132 -0.0126 -0.0028  0.0000  0.0000 -0.0070

           AO          9      10      11      12      13      14      15      16
      ------------ ------- ------- ------- ------- ------- ------- ------- -------
   1.  C 1 (s)      0.0000  0.0000  0.0008 -0.0056  0.0017 -0.0052 -0.0022  0.0073
   2.  C 1 (s)      0.0000  0.0000  0.0000  0.0983  0.0001  0.1452 -0.0001 -0.2215
   3.  C 1 (px)     0.0000 -0.0536  0.0000  0.0000  0.0000  0.0000  0.0000  0.0000
   4.  C 1 (py)     0.0000  0.0000  0.0000  0.0047  0.0000  0.0537  0.0000 -0.2242
   5.  C 1 (pz)     0.0000  0.0000  0.0000  0.0958  0.0000  0.1432  0.0000  0.0273
   6.  S 2 (s)      0.0000  0.0000  0.0000  0.0000  0.0000 -0.0034  0.0010  0.0019
   7.  S 2 (s)      0.0000  0.0000  0.0000  0.0000  0.0000  0.0092 -0.0027 -0.0057
   8.  S 2 (px)     0.9794 -0.3361  0.0000  0.0000  0.0000  0.0000  0.0000  0.0000
   9.  S 2 (py)     0.0000  0.0000  0.9794 -0.3415  0.0000  0.0000 -0.0008  0.0097
  10.  S 2 (pz)     0.0000  0.0000  0.0000  0.0000  0.9794 -0.3553  0.0017 -0.0117
  11.  S 2 (s)      0.0000  0.0000  0.0000  0.0000  0.0000 -0.1244 -0.0004 -0.1253
  12.  S 2 (px)     0.0710  1.0419  0.0000  0.0000  0.0000  0.0000  0.0000  0.0000
  13.  S 2 (py)     0.0000  0.0000  0.0710  1.0748  0.0000  0.0000 -0.0001 -0.0861
  14.  S 2 (pz)     0.0000  0.0000  0.0000  0.0000  0.0710  1.1598  0.0001  0.1271
  15.  C 3 (s)      0.0000  0.0000 -0.0008  0.0056  0.0017 -0.0052  0.9844 -0.3525
  16.  C 3 (s)      0.0000  0.0000  0.0000 -0.0983  0.0001  0.1452  0.0569  1.4864
  17.  C 3 (px)     0.0000 -0.0536  0.0000  0.0000  0.0000  0.0000  0.0000  0.0000
  18.  C 3 (py)     0.0000  0.0000  0.0000  0.0047  0.0000 -0.0537  0.0000 -0.0255
  19.  C 3 (pz)     0.0000  0.0000  0.0000 -0.0958  0.0000  0.1432  0.0000 -0.0136
  20.  H 4 (s)      0.0000 -0.0018  0.0000  0.0034  0.0000  0.0054  0.0000 -0.0051
  21.  H 5 (s)      0.0000  0.0018  0.0000  0.0034  0.0000  0.0054  0.0000 -0.0051
  22.  H 6 (s)      0.0000  0.0018  0.0000 -0.0034  0.0000  0.0054  0.0000 -0.3259
  23.  H 7 (s)      0.0000 -0.0018  0.0000 -0.0034  0.0000  0.0054  0.0000 -0.3259

           AO         17      18      19      20      21      22      23
      ------------ ------- ------- ------- ------- ------- ------- -------
   1.  C 1 (s)      0.0000  0.0010 -0.0047  0.0044  0.0044 -0.0010 -0.0010
   2.  C 1 (s)      0.0000  0.2788  0.0337 -0.3847 -0.3847 -0.0061 -0.0061
   3.  C 1 (px)    -0.1084  0.0000  0.0000  0.2940 -0.2940  0.0125 -0.0125
   4.  C 1 (py)     0.0000  0.2484  0.0109  0.1620  0.1620 -0.0120 -0.0120
   5.  C 1 (pz)     0.0000 -0.0109 -0.0595  0.0899  0.0899 -0.0027 -0.0027
   6.  S 2 (s)      0.0000 -0.0020  0.0024  0.0008  0.0008  0.0008  0.0008
   7.  S 2 (s)      0.0000  0.0079 -0.0115 -0.0021 -0.0021 -0.0021 -0.0021
   8.  S 2 (px)     0.0067  0.0000  0.0000  0.0010 -0.0010 -0.0010  0.0010
   9.  S 2 (py)     0.0000 -0.0005  0.0104  0.0004  0.0004 -0.0004 -0.0004
  10.  S 2 (pz)     0.0000  0.0030 -0.0139  0.0005  0.0005  0.0005  0.0005
  11.  S 2 (s)      0.0000  0.0458 -0.1738 -0.0095 -0.0095 -0.0095 -0.0095
  12.  S 2 (px)    -0.0582  0.0000  0.0000 -0.0018  0.0018  0.0018 -0.0018
  13.  S 2 (py)     0.0000  0.0051 -0.1040  0.0035  0.0035 -0.0035 -0.0035
  14.  S 2 (pz)     0.0000 -0.0586  0.1557  0.0056  0.0056  0.0056  0.0056
  15.  C 3 (s)      0.0000  0.0048 -0.0010 -0.0010 -0.0010  0.0044  0.0044
  16.  C 3 (s)      0.0000 -0.0314 -0.0169 -0.0061 -0.0061 -0.3847 -0.3847
  17.  C 3 (px)     1.2127  0.0000  0.0000 -0.0125  0.0125 -0.2940  0.2940
  18.  C 3 (py)     0.0000  1.2106 -0.0496  0.0120  0.0120 -0.1620 -0.1620
  19.  C 3 (pz)     0.0000 -0.0496  1.0964 -0.0027 -0.0027  0.0899  0.0899
  20.  H 4 (s)     -0.0132  0.0126 -0.0028  1.2813 -0.0225 -0.0008 -0.0173
  21.  H 5 (s)      0.0132  0.0126 -0.0028 -0.0225  1.2813 -0.0173 -0.0008
  22.  H 6 (s)     -0.3095 -0.1705  0.0946 -0.0008 -0.0173  1.2813 -0.0225
  23.  H 7 (s)      0.3095 -0.1705  0.0946 -0.0173 -0.0008 -0.0225  1.2813


 NAO density matrix:

           NAO         1       2       3       4       5       6       7       8
      ------------ ------- ------- ------- ------- ------- ------- ------- -------
   1.  C 1( 1s )    2.0000  0.0000  0.0000  0.0005  0.0002  0.0000  0.0000 -0.0002
   2.  C 1( 2s )    0.0000  1.1091  0.0000 -0.0476 -0.0038  0.0000 -0.0002  0.0861
   3.  C 1( 2px)    0.0000  0.0000  1.0309  0.0000  0.0000  0.0000  0.0000  0.0000
   4.  C 1( 2py)    0.0005 -0.0476  0.0000  0.9758 -0.0683  0.0000  0.0001  0.0276
   5.  C 1( 2pz)    0.0002 -0.0038  0.0000 -0.0683  1.0115  0.0000  0.0001  0.2056
   6.  S 2( 1s )    0.0000  0.0000  0.0000  0.0000  0.0000  2.0000  0.0000  0.0000
   7.  S 2( 2s )    0.0000 -0.0002  0.0000  0.0001  0.0001  0.0000  2.0000  0.0000
   8.  S 2( 3s )   -0.0002  0.0861  0.0000  0.0276  0.2056  0.0000  0.0000  1.8753
   9.  S 2( 2px)    0.0000  0.0000 -0.0005  0.0000  0.0000  0.0000  0.0000  0.0000
  10.  S 2( 3px)    0.0000  0.0000  0.1024  0.0000  0.0000  0.0000  0.0000  0.0000
  11.  S 2( 2py)    0.0000 -0.0006  0.0000  0.0010 -0.0032  0.0000  0.0000  0.0000
  12.  S 2( 3py)   -0.0002 -0.2594  0.0000  0.0207 -0.6415  0.0000  0.0000  0.0000
  13.  S 2( 2pz)    0.0000  0.0014  0.0000  0.0000  0.0022  0.0000  0.0000 -0.0014
  14.  S 2( 3pz)    0.0007 -0.2600  0.0000 -0.0743 -0.5983  0.0000  0.0000  0.3647
  15.  C 3( 1s )    0.0000 -0.0003  0.0000  0.0001  0.0007  0.0000  0.0000 -0.0002
  16.  C 3( 2s )   -0.0003  0.2255  0.0000  0.4278 -0.0897  0.0000 -0.0002  0.0861
  17.  C 3( 2px)    0.0000  0.0000  0.1116  0.0000  0.0000  0.0000  0.0000  0.0000
  18.  C 3( 2py)   -0.0001 -0.4278  0.0000 -0.6919  0.1683  0.0000 -0.0001 -0.0276
  19.  C 3( 2pz)    0.0007 -0.0897  0.0000 -0.1683  0.2443  0.0000  0.0001  0.2056
  20.  H 4( 1s )    0.0002  0.5484 -0.6986 -0.3834 -0.2078  0.0000  0.0002 -0.0005
  21.  H 5( 1s )    0.0002  0.5484  0.6986 -0.3834 -0.2078  0.0000  0.0002 -0.0005
  22.  H 6( 1s )    0.0004 -0.0077 -0.0062 -0.0296  0.0217  0.0000  0.0002 -0.0005
  23.  H 7( 1s )    0.0004 -0.0077  0.0062 -0.0296  0.0217  0.0000  0.0002 -0.0005

           NAO         9      10      11      12      13      14      15      16
      ------------ ------- ------- ------- ------- ------- ------- ------- -------
   1.  C 1( 1s )    0.0000  0.0000  0.0000 -0.0002  0.0000  0.0007  0.0000 -0.0003
   2.  C 1( 2s )    0.0000  0.0000 -0.0006 -0.2594  0.0014 -0.2600 -0.0003  0.2255
   3.  C 1( 2px)   -0.0005  0.1024  0.0000  0.0000  0.0000  0.0000  0.0000  0.0000
   4.  C 1( 2py)    0.0000  0.0000  0.0010  0.0207  0.0000 -0.0743  0.0001  0.4278
   5.  C 1( 2pz)    0.0000  0.0000 -0.0032 -0.6415  0.0022 -0.5983  0.0007 -0.0897
   6.  S 2( 1s )    0.0000  0.0000  0.0000  0.0000  0.0000  0.0000  0.0000  0.0000
   7.  S 2( 2s )    0.0000  0.0000  0.0000  0.0000  0.0000  0.0000  0.0000 -0.0002
   8.  S 2( 3s )    0.0000  0.0000  0.0000  0.0000 -0.0014  0.3647 -0.0002  0.0861
   9.  S 2( 2px)    2.0000  0.0001  0.0000  0.0000  0.0000  0.0000  0.0000  0.0000
  10.  S 2( 3px)    0.0001  1.9756  0.0000  0.0000  0.0000  0.0000  0.0000  0.0000
  11.  S 2( 2py)    0.0000  0.0000  2.0000 -0.0039  0.0000  0.0000  0.0000  0.0006
  12.  S 2( 3py)    0.0000  0.0000 -0.0039  1.1533  0.0000  0.0000  0.0002  0.2594
  13.  S 2( 2pz)    0.0000  0.0000  0.0000  0.0000  2.0000  0.0042  0.0000  0.0014
  14.  S 2( 3pz)    0.0000  0.0000  0.0000  0.0000  0.0042  0.9335  0.0007 -0.2600
  15.  C 3( 1s )    0.0000  0.0000  0.0000  0.0002  0.0000  0.0007  2.0000  0.0000
[...]
      Select eigenvectors with eigenvalue > 1.900
       1.995 0.006 0.000 0.000 0.000 0.000 0.000 0.000 0.000 0.000
      Eigenvector ( 1) has occupancy 1.99460
            0.0000 0.0000 0.0000 0.7071 0.0000 0.0000 0.0000 0.0000
            0.7071 0.0000
      Occupancy is 1.995 after deleting minor hybrid components
            0.0000 0.0000 0.0000 0.7071 0.0000 0.0000 0.0000 0.0000
            0.7071 0.0000
           NBO accepted:   12. Label:BD ( 1)   1   3
      Occupancy is 0.006 for antibonding component
            0.0000 0.0000 0.0000 0.7071 0.0000 0.0000 0.0000 0.0000
           -0.7071 0.0000
           NBO accepted:   13. Label:BD*( 1)   1   3
        2 eigenvector(s) stashed in permanent list

 Search of NHO DM block for the following atom(s):   1   4
      Select eigenvectors with eigenvalue > 1.900
       1.994 0.013 0.000 0.000 0.000 0.000
      Eigenvector ( 1) has occupancy 1.99446
            0.0000 0.7253 0.0000 0.0000 0.0000 0.6884
      Occupancy is 1.994 after deleting minor hybrid components
            0.0000 0.7253 0.0000 0.0000 0.0000 0.6884
           NBO accepted:   14. Label:BD ( 1)   1   4
      Occupancy is 0.013 for antibonding component
            0.0000-0.6884 0.0000 0.0000 0.0000 0.7253
           NBO accepted:   15. Label:BD*( 1)   1   4
        2 eigenvector(s) stashed in permanent list

 Search of NHO DM block for the following atom(s):   1   5
      Select eigenvectors with eigenvalue > 1.900
       1.994 0.013 0.000 0.000 0.000 0.000
      Eigenvector ( 1) has occupancy 1.99446
            0.0000 0.0000 0.7253 0.0000 0.0000 0.6884
      Occupancy is 1.994 after deleting minor hybrid components
            0.0000 0.0000 0.7253 0.0000 0.0000 0.6884
           NBO accepted:   16. Label:BD ( 1)   1   5
      Occupancy is 0.013 for antibonding component
            0.0000 0.0000-0.6884 0.0000 0.0000 0.7253
           NBO accepted:   17. Label:BD*( 1)   1   5
        2 eigenvector(s) stashed in permanent list

 Search of NHO DM block for the following atom(s):   2   3
      Select eigenvectors with eigenvalue > 1.900
       1.976 0.021 0.000 0.000 0.000 0.000 0.000 0.000 0.000 0.000 0.000 0.000
       0.000 0.000
      Eigenvector ( 1) has occupancy 1.97633
            0.0000 0.0000 0.0000 0.0000 0.0000 0.0000 0.0000 0.0000
            0.7007 0.0000 0.0000 0.0000 0.0000 0.7134
      Occupancy is 1.976 after deleting minor hybrid components
            0.0000 0.0000 0.0000 0.0000 0.0000 0.0000 0.0000 0.0000
            0.7007 0.0000 0.0000 0.0000 0.0000 0.7134
           NBO accepted:   18. Label:BD ( 1)   2   3
      Occupancy is 0.021 for antibonding component
            0.0000 0.0000 0.0000 0.0000 0.0000 0.0000 0.0000 0.0000
            0.7134 0.0000 0.0000 0.0000 0.0000-0.7007
           NBO accepted:   19. Label:BD*( 1)   2   3
        2 eigenvector(s) stashed in permanent list

 Search of NHO DM block for the following atom(s):   3   6
      Select eigenvectors with eigenvalue > 1.900
       1.994 0.013 0.000 0.000 0.000 0.000
      Eigenvector ( 1) has occupancy 1.99446
            0.0000 0.7253 0.0000 0.0000 0.0000 0.6884
      Occupancy is 1.994 after deleting minor hybrid components
            0.0000 0.7253 0.0000 0.0000 0.0000 0.6884
           NBO accepted:   20. Label:BD ( 1)   3   6
      Occupancy is 0.013 for antibonding component
            0.0000-0.6884 0.0000 0.0000 0.0000 0.7253
           NBO accepted:   21. Label:BD*( 1)   3   6
        2 eigenvector(s) stashed in permanent list

 Search of NHO DM block for the following atom(s):   3   7
      Select eigenvectors with eigenvalue > 1.900
       1.994 0.013 0.000 0.000 0.000 0.000
      Eigenvector ( 1) has occupancy 1.99446
            0.0000 0.0000 0.7253 0.0000 0.0000 0.6884
      Occupancy is 1.994 after deleting minor hybrid components
            0.0000 0.0000 0.7253 0.0000 0.0000 0.6884
           NBO accepted:   22. Label:BD ( 1)   3   7
      Occupancy is 0.013 for antibonding component
            0.0000 0.0000-0.6884 0.0000 0.0000 0.7253
           NBO accepted:   23. Label:BD*( 1)   3   7
        2 eigenvector(s) stashed in permanent list

  2-center NBOs projected from the NHO density matrix
       0.000 electrons remain in the fully projected matrix

                            Occupancies       Lewis Structure    Low   High
         Max    Occ     -------------------  -----------------   occ   occ
  Cycle  Ctr   Thresh    Lewis   non-Lewis     CR  BD  nC  LP    (L)   (NL)
 ============================================================================
    1     2     1.90    31.90060   0.09940      7   7   0   2     0      0
 ----------------------------------------------------------------------------

 Structure accepted: No low occupancy Lewis orbitals

 -------------------------------------------------------
   Core                     13.99996 (100.000% of  14)
   Valence Lewis            17.90064 ( 99.448% of  18)
  ==================      =============================
   Total Lewis              31.90060 ( 99.689% of  32)
  -----------------------------------------------------
   Valence non-Lewis         0.09940 (  0.311% of  32)
   Rydberg non-Lewis         0.00000 (  0.000% of  32)
  ==================      =============================
   Total non-Lewis           0.09940 (  0.311% of  32)
 -------------------------------------------------------


     (Occupancy)   Bond orbital / Coefficients / Hybrids
 ------------------ Lewis ------------------------------------------------------
   1. (2.00000) CR ( 1) C  1            s(100.00%)
                                         1.0000  0.0000  0.0000  0.0000  0.0000
   2. (2.00000) CR ( 1) S  2            s(100.00%)
                                         1.0000  0.0000  0.0000  0.0000  0.0000
                                         0.0000  0.0000  0.0000  0.0000
   3. (2.00000) CR ( 2) S  2            s(100.00%)
                                         0.0000  1.0000  0.0000  0.0000  0.0000
                                         0.0000  0.0000  0.0000  0.0000
   4. (2.00000) CR ( 3) S  2            s(  0.00%)p 1.00(100.00%)
                                         0.0000  0.0000  0.0000  1.0000  0.0000
                                         0.0000  0.0000  0.0000  0.0000
   5. (1.99998) CR ( 4) S  2            s(  0.00%)p 1.00(100.00%)
                                         0.0000  0.0000  0.0000  0.0000  0.0000
                                         1.0000  0.0000  0.0000  0.0000
   6. (1.99998) CR ( 5) S  2            s(  0.00%)p 1.00(100.00%)
                                         0.0000  0.0000  0.0000  0.0000  0.0000
                                         0.0000  0.0000  1.0000  0.0000
   7. (2.00000) CR ( 1) C  3            s(100.00%)
                                         1.0000  0.0000  0.0000  0.0000  0.0000
   8. (1.99997) LP ( 1) S  2            s( 89.53%)p 0.12( 10.47%)
                                         0.0000  0.0000  0.9462  0.0000  0.0000
                                         0.0000  0.0000  0.0000  0.3236
   9. (1.97557) LP ( 2) S  2            s(  0.00%)p 1.00(100.00%)
                                         0.0000  0.0000  0.0000  0.0000  1.0000
                                         0.0000  0.0000  0.0000  0.0000
  10. (1.97633) BD ( 1) C  1- S  2
               ( 50.90%)   0.7134* C  1 s( 14.96%)p 5.69( 85.04%)
                                         0.0000  0.3867  0.0000  0.0440  0.9211
               ( 49.10%)   0.7007* S  2 s(  5.23%)p18.10( 94.77%)
                                         0.0000  0.0000  0.2288  0.0000  0.0000
                                         0.0000 -0.7071  0.0000 -0.6691
  11. (1.99460) BD ( 1) C  1- C  3
               ( 50.00%)   0.7071* C  1 s( 24.30%)p 3.12( 75.70%)
                                         0.0000  0.4929  0.0000  0.8343 -0.2468
               ( 50.00%)   0.7071* C  3 s( 24.30%)p 3.12( 75.70%)
                                         0.0000  0.4929  0.0000 -0.8343 -0.2468
  12. (1.99446) BD ( 1) C  1- H  4
               ( 52.61%)   0.7253* C  1 s( 30.37%)p 2.29( 69.63%)
                                         0.0000  0.5511 -0.7071 -0.3886 -0.2128
               ( 47.39%)   0.6884* H  4 s(100.00%)
                                         1.0000
  13. (1.99446) BD ( 1) C  1- H  5
               ( 52.61%)   0.7253* C  1 s( 30.37%)p 2.29( 69.63%)
                                         0.0000  0.5511  0.7071 -0.3886 -0.2128
               ( 47.39%)   0.6884* H  5 s(100.00%)
                                         1.0000
  14. (1.97633) BD ( 1) S  2- C  3
               ( 49.10%)   0.7007* S  2 s(  5.23%)p18.10( 94.77%)
                                         0.0000  0.0000  0.2288  0.0000  0.0000
                                         0.0000  0.7071  0.0000 -0.6691
               ( 50.90%)   0.7134* C  3 s( 14.96%)p 5.69( 85.04%)
                                         0.0000  0.3867  0.0000 -0.0440  0.9211
  15. (1.99446) BD ( 1) C  3- H  6
               ( 52.61%)   0.7253* C  3 s( 30.37%)p 2.29( 69.63%)
                                         0.0000  0.5511  0.7071  0.3886 -0.2128
               ( 47.39%)   0.6884* H  6 s(100.00%)
                                         1.0000
  16. (1.99446) BD ( 1) C  3- H  7
               ( 52.61%)   0.7253* C  3 s( 30.37%)p 2.29( 69.63%)
                                         0.0000  0.5511 -0.7071  0.3886 -0.2128
               ( 47.39%)   0.6884* H  7 s(100.00%)
                                         1.0000
 ---------------- non-Lewis ----------------------------------------------------
  17. (0.02089) BD*( 1) C  1- S  2
               ( 49.10%)   0.7007* C  1 s( 14.96%)p 5.69( 85.04%)
                                         0.0000  0.3867  0.0000  0.0440  0.9211
               ( 50.90%)  -0.7134* S  2 s(  5.23%)p18.10( 94.77%)
                                         0.0000  0.0000  0.2288  0.0000  0.0000
                                         0.0000 -0.7071  0.0000 -0.6691
  18. (0.00598) BD*( 1) C  1- C  3
               ( 50.00%)   0.7071* C  1 s( 24.30%)p 3.12( 75.70%)
                                         0.0000  0.4929  0.0000  0.8343 -0.2468
               ( 50.00%)  -0.7071* C  3 s( 24.30%)p 3.12( 75.70%)
                                         0.0000  0.4929  0.0000 -0.8343 -0.2468
  19. (0.01291) BD*( 1) C  1- H  4
               ( 47.39%)   0.6884* C  1 s( 30.37%)p 2.29( 69.63%)
                                         0.0000 -0.5511  0.7071  0.3886  0.2128
               ( 52.61%)  -0.7253* H  4 s(100.00%)
                                        -1.0000
  20. (0.01291) BD*( 1) C  1- H  5
               ( 47.39%)   0.6884* C  1 s( 30.37%)p 2.29( 69.63%)
                                         0.0000 -0.5511 -0.7071  0.3886  0.2128
               ( 52.61%)  -0.7253* H  5 s(100.00%)
                                        -1.0000
  21. (0.02089) BD*( 1) S  2- C  3
               ( 50.90%)   0.7134* S  2 s(  5.23%)p18.10( 94.77%)
                                         0.0000  0.0000 -0.2288  0.0000  0.0000
                                         0.0000 -0.7071  0.0000  0.6691
               ( 49.10%)  -0.7007* C  3 s( 14.96%)p 5.69( 85.04%)
                                         0.0000 -0.3867  0.0000  0.0440 -0.9211
  22. (0.01291) BD*( 1) C  3- H  6
               ( 47.39%)   0.6884* C  3 s( 30.37%)p 2.29( 69.63%)
                                         0.0000 -0.5511 -0.7071 -0.3886  0.2128
               ( 52.61%)  -0.7253* H  6 s(100.00%)
                                        -1.0000
  23. (0.01291) BD*( 1) C  3- H  7
               ( 47.39%)   0.6884* C  3 s( 30.37%)p 2.29( 69.63%)
                                         0.0000 -0.5511  0.7071 -0.3886  0.2128
               ( 52.61%)  -0.7253* H  7 s(100.00%)
                                        -1.0000


 NHO DIRECTIONALITY AND BOND BENDING (deviation from line of nuclear centers at
                                      the position of maximum hybrid amplitude)

         [Thresholds for printing:  angular deviation  >  1.0 degree]
                                    p- or d-character  > 25.0%
                                    orbital occupancy  >  0.10e

                        Line of Centers        Hybrid 1             Hybrid 2
                        ---------------  -------------------  ------------------
           NBO            Theta   Phi    Theta   Phi    Dev   Theta   Phi    Dev
 ===============================================================================
   9. LP ( 2) S  2          --     --     89.8    0.0   --      --     --    --
  10. BD ( 1) C  1- S  2   24.1   90.0     4.8   90.0  19.3   131.8  270.0  24.1
  11. BD ( 1) C  1- C  3   90.0   90.0   105.2   90.0  15.2   105.2  270.0  15.2
  14. BD ( 1) S  2- C  3  155.9   90.0   131.8   90.0  24.1     4.8  270.0  19.3


 SECOND ORDER PERTURBATION THEORY ANALYSIS OF FOCK MATRIX IN NBO BASIS

     Threshold for printing:   0.50 kcal/mol
                                                          E(2) E(NL)-E(L) F(L,NL)
      Donor (L) NBO              Acceptor (NL) NBO      kcal/mol   a.u.    a.u.
 ===============================================================================

 within unit  1
    9. LP ( 2) S  2            19. BD*( 1) C  1- H  4      3.37    0.97   0.051
    9. LP ( 2) S  2            20. BD*( 1) C  1- H  5      3.37    0.97   0.051
    9. LP ( 2) S  2            22. BD*( 1) C  3- H  6      3.37    0.97   0.051
    9. LP ( 2) S  2            23. BD*( 1) C  3- H  7      3.37    0.97   0.051
   10. BD ( 1) C  1- S  2      18. BD*( 1) C  1- C  3      1.40    1.19   0.036
   10. BD ( 1) C  1- S  2      19. BD*( 1) C  1- H  4      1.08    1.21   0.032
   10. BD ( 1) C  1- S  2      20. BD*( 1) C  1- H  5      1.08    1.21   0.032
   10. BD ( 1) C  1- S  2      21. BD*( 1) S  2- C  3      8.65    0.92   0.080
   10. BD ( 1) C  1- S  2      22. BD*( 1) C  3- H  6      1.17    1.21   0.034
   10. BD ( 1) C  1- S  2      23. BD*( 1) C  3- H  7      1.17    1.21   0.034
   12. BD ( 1) C  1- H  4      17. BD*( 1) C  1- S  2      0.98    1.07   0.029
   12. BD ( 1) C  1- H  4      18. BD*( 1) C  1- C  3      0.53    1.35   0.024
   12. BD ( 1) C  1- H  4      22. BD*( 1) C  3- H  6      1.55    1.37   0.041
   12. BD ( 1) C  1- H  4      23. BD*( 1) C  3- H  7      0.94    1.37   0.032
   13. BD ( 1) C  1- H  5      17. BD*( 1) C  1- S  2      0.98    1.07   0.029
   13. BD ( 1) C  1- H  5      18. BD*( 1) C  1- C  3      0.53    1.35   0.024
   13. BD ( 1) C  1- H  5      22. BD*( 1) C  3- H  6      0.94    1.37   0.032
   13. BD ( 1) C  1- H  5      23. BD*( 1) C  3- H  7      1.55    1.37   0.041
   14. BD ( 1) S  2- C  3      17. BD*( 1) C  1- S  2      8.65    0.92   0.080
   14. BD ( 1) S  2- C  3      18. BD*( 1) C  1- C  3      1.40    1.19   0.036
   14. BD ( 1) S  2- C  3      19. BD*( 1) C  1- H  4      1.17    1.21   0.034
   14. BD ( 1) S  2- C  3      20. BD*( 1) C  1- H  5      1.17    1.21   0.034
   14. BD ( 1) S  2- C  3      22. BD*( 1) C  3- H  6      1.08    1.21   0.032
   14. BD ( 1) S  2- C  3      23. BD*( 1) C  3- H  7      1.08    1.21   0.032
   15. BD ( 1) C  3- H  6      18. BD*( 1) C  1- C  3      0.53    1.35   0.024
   15. BD ( 1) C  3- H  6      19. BD*( 1) C  1- H  4      1.55    1.37   0.041
   15. BD ( 1) C  3- H  6      20. BD*( 1) C  1- H  5      0.94    1.37   0.032
   15. BD ( 1) C  3- H  6      21. BD*( 1) S  2- C  3      0.98    1.07   0.029
   16. BD ( 1) C  3- H  7      18. BD*( 1) C  1- C  3      0.53    1.35   0.024
   16. BD ( 1) C  3- H  7      19. BD*( 1) C  1- H  4      0.94    1.37   0.032
   16. BD ( 1) C  3- H  7      20. BD*( 1) C  1- H  5      1.55    1.37   0.041
   16. BD ( 1) C  3- H  7      21. BD*( 1) S  2- C  3      0.98    1.07   0.029


 NATURAL BOND ORBITALS (Summary):

                                                     Principal Delocalizations
           NBO                 Occupancy    Energy   (geminal,vicinal,remote)
 ===============================================================================
 Molecular unit  1  (C2H4S)
 ------ Lewis --------------------------------------
    1. CR ( 1) C  1             2.00000   -11.03915
    2. CR ( 1) S  2             2.00000   -90.60941
    3. CR ( 2) S  2             2.00000    -8.66511
    4. CR ( 3) S  2             2.00000    -6.25174
    5. CR ( 4) S  2             1.99998    -6.25545
    6. CR ( 5) S  2             1.99998    -6.25721
    7. CR ( 1) C  3             2.00000   -11.03915
    8. LP ( 1) S  2             1.99997    -0.74031
    9. LP ( 2) S  2             1.97557    -0.25753  19(v),20(v),22(v),23(v)
   10. BD ( 1) C  1- S  2       1.97633    -0.49898  21(g),18(g),22(v),23(v)
                                                     19(g),20(g)
   11. BD ( 1) C  1- C  3       1.99460    -0.67434
   12. BD ( 1) C  1- H  4       1.99446    -0.65185  22(v),17(g),23(v),18(g)
   13. BD ( 1) C  1- H  5       1.99446    -0.65185  23(v),17(g),22(v),18(g)
   14. BD ( 1) S  2- C  3       1.97633    -0.49898  17(g),18(g),19(v),20(v)
                                                     22(g),23(g)
   15. BD ( 1) C  3- H  6       1.99446    -0.65185  19(v),21(g),20(v),18(g)
   16. BD ( 1) C  3- H  7       1.99446    -0.65185  20(v),21(g),19(v),18(g)
 ------ non-Lewis ----------------------------------
   17. BD*( 1) C  1- S  2       0.02089     0.42151
   18. BD*( 1) C  1- C  3       0.00598     0.69423
   19. BD*( 1) C  1- H  4       0.01291     0.71401
   20. BD*( 1) C  1- H  5       0.01291     0.71401
   21. BD*( 1) S  2- C  3       0.02089     0.42151
   22. BD*( 1) C  3- H  6       0.01291     0.71401
   23. BD*( 1) C  3- H  7       0.01291     0.71401
          -------------------------------
                 Total Lewis   31.90060  ( 99.6894%)
           Valence non-Lewis    0.09940  (  0.3106%)
           Rydberg non-Lewis    0.00000  (  0.0000%)
          -------------------------------
               Total unit  1   32.00000  (100.0000%)
              Charge unit  1    0.00000

 $CHOOSE
   LONE 2 2 END
   BOND S 1 2 S 1 3 S 1 4 S 1 5 S 2 3 S 3 6 S 3 7 END
 $END

 NBO analysis completed in 0.22 CPU seconds (0 wall seconds)
 Maximum scratch memory used by NBO was 266062 words (2.03 MB)
 Maximum scratch memory used by G16NBO was 9076 words (0.07 MB)

 Opening RunExU unformatted file "/cluster/work/users/beto93/mol115/Gau-3688422.EUF"
 Read unf file /cluster/work/users/beto93/mol115/Gau-3688422.EUF:
 Label Gaussian matrix elements                                         IVers= 2 NLab= 2 Version=ES64L-G16RevC.01
 Title mol115-NBO                                                      
 NAtoms=     7 NBasis=    23 NBsUse=    23 ICharg=     0 Multip=     1 NE=    32 Len12L=8 Len4L=8 IOpCl= 0 ICGU=111
 GAUSSIAN SCALARS                    NI= 1 NR= 1 NTot=       1 LenBuf=    2 NRI=1 N=    1000
 NPA CHARGES                         NI= 0 NR= 1 NTot=       7 LenBuf= 4000 NRI=1 N=       7
 Recovered energy= -470.273867531     dipole=     -0.000000000000      0.000000000000     -0.341463829259
 Unable to Open any file for archive entry.
 1\1\GINC-C5-25\SP\RHF\STO-3G\C2H4S1\BETO93\18-Nov-2024\0\\#RHF/STO-3G 
 int=nobasistransform Symmetry=None 5D 7F Pop=NBO7Read\\mol115-NBO\\0,1
 \C,0,0.,-0.739719,-0.792334\S,0,0.,0.,0.863474\C,0,0.,0.739719,-0.7923
 34\H,0,-0.91394,-1.250142,-1.076894\H,0,0.91394,-1.250142,-1.076894\H,
 0,0.91394,1.250142,-1.076894\H,0,-0.91394,1.250142,-1.076894\\Version=
 ES64L-G16RevC.01\HF=-470.2738675\RMSD=7.777e-09\Dipole=0.,0.,-0.341463
 8\Quadrupole=0.15475,0.5267764,-0.6815265,0.,0.,0.\PG=Unknown\\@
 The archive entry for this job was punched.


 QED = W**5 (WHICH WAS WHAT WE WANTED)
 Job cpu time:       0 days  0 hours  0 minutes  9.8 seconds.
 Elapsed time:       0 days  0 hours  0 minutes  3.1 seconds.
 File lengths (MBytes):  RWF=     10 Int=      0 D2E=      0 Chk=      1 Scr=      1
 Normal termination of Gaussian 16 at Mon Nov 18 15:41:30 2024.
