 Entering Gaussian System, Link 0=g16
 Initial command:
 /cluster/software/Gaussian/g16_C.01/l1.exe "/cluster/work/users/beto93/mol36/Gau-2835356.inp" -scrdir="/cluster/work/users/beto93/mol36/"
 Entering Link 1 = /cluster/software/Gaussian/g16_C.01/l1.exe PID=   2835357.
  
 Copyright (c) 1988-2019, Gaussian, Inc.  All Rights Reserved.
  
 This is part of the Gaussian(R) 16 program.  It is based on
 the Gaussian(R) 09 system (copyright 2009, Gaussian, Inc.),
 the Gaussian(R) 03 system (copyright 2003, Gaussian, Inc.),
 the Gaussian(R) 98 system (copyright 1998, Gaussian, Inc.),
 the Gaussian(R) 94 system (copyright 1995, Gaussian, Inc.),
 the Gaussian 92(TM) system (copyright 1992, Gaussian, Inc.),
 the Gaussian 90(TM) system (copyright 1990, Gaussian, Inc.),
 the Gaussian 88(TM) system (copyright 1988, Gaussian, Inc.),
 the Gaussian 86(TM) system (copyright 1986, Carnegie Mellon
 University), and the Gaussian 82(TM) system (copyright 1983,
 Carnegie Mellon University). Gaussian is a federally registered
 trademark of Gaussian, Inc.
  
 This software contains proprietary and confidential information,
 including trade secrets, belonging to Gaussian, Inc.
  
 This software is provided under written license and may be
 used, copied, transmitted, or stored only in accord with that
 written license.
  
 The following legend is applicable only to US Government
 contracts under FAR:
  
                    RESTRICTED RIGHTS LEGEND
  
 Use, reproduction and disclosure by the US Government is
 subject to restrictions as set forth in subparagraphs (a)
 and (c) of the Commercial Computer Software - Restricted
 Rights clause in FAR 52.227-19.
  
 Gaussian, Inc.
 340 Quinnipiac St., Bldg. 40, Wallingford CT 06492
  
  
 ---------------------------------------------------------------
 Warning -- This program may not be used in any manner that
 competes with the business of Gaussian, Inc. or will provide
 assistance to any competitor of Gaussian, Inc.  The licensee
 of this program is prohibited from giving any competitor of
 Gaussian, Inc. access to this program.  By using this program,
 the user acknowledges that Gaussian, Inc. is engaged in the
 business of creating and licensing software in the field of
 computational chemistry and represents and warrants to the
 licensee that it is not a competitor of Gaussian, Inc. and that
 it will not use this program in any manner prohibited above.
 ---------------------------------------------------------------
  

 Cite this work as:
 Gaussian 16, Revision C.01,
 M. J. Frisch, G. W. Trucks, H. B. Schlegel, G. E. Scuseria, 
 M. A. Robb, J. R. Cheeseman, G. Scalmani, V. Barone, 
 G. A. Petersson, H. Nakatsuji, X. Li, M. Caricato, A. V. Marenich, 
 J. Bloino, B. G. Janesko, R. Gomperts, B. Mennucci, H. P. Hratchian, 
 J. V. Ortiz, A. F. Izmaylov, J. L. Sonnenberg, D. Williams-Young, 
 F. Ding, F. Lipparini, F. Egidi, J. Goings, B. Peng, A. Petrone, 
 T. Henderson, D. Ranasinghe, V. G. Zakrzewski, J. Gao, N. Rega, 
 G. Zheng, W. Liang, M. Hada, M. Ehara, K. Toyota, R. Fukuda, 
 J. Hasegawa, M. Ishida, T. Nakajima, Y. Honda, O. Kitao, H. Nakai, 
 T. Vreven, K. Throssell, J. A. Montgomery, Jr., J. E. Peralta, 
 F. Ogliaro, M. J. Bearpark, J. J. Heyd, E. N. Brothers, K. N. Kudin, 
 V. N. Staroverov, T. A. Keith, R. Kobayashi, J. Normand, 
 K. Raghavachari, A. P. Rendell, J. C. Burant, S. S. Iyengar, 
 J. Tomasi, M. Cossi, J. M. Millam, M. Klene, C. Adamo, R. Cammi, 
 J. W. Ochterski, R. L. Martin, K. Morokuma, O. Farkas, 
 J. B. Foresman, and D. J. Fox, Gaussian, Inc., Wallingford CT, 2019.
 
 ******************************************
 Gaussian 16:  ES64L-G16RevC.01  3-Jul-2019
                18-Nov-2024 
 ******************************************
 %LindaWorkers=c1-33-ib
 %NProcShared=4
 Will use up to    4 processors via shared memory.
 %mem=25GB
 %chk=mol36.chk
 SetLPE:    new flags="-opt 'Tsnet.Node.lindarsharg: ssh'  -nodelist 'c1-33-ib.saga' -env GAUSS_MDEF=3355443200 -env GAUSS_EXEDIR="/cluster/software/Gaussian/g16_C.01/bsd:/cluster/software/Gaussian/g16_C.01""
 Will use up to    1 processors via Linda.
 -----------------------------------------------------------------
 #RHF/6-31G* int=nobasistransform Symmetry=None 5D 7F Pop=NBO7Read
 -----------------------------------------------------------------
 1/38=1,163=2,172=1/1;
 2/12=2,15=3,17=6,18=5,40=1/2;
 3/5=1,6=6,7=1,8=11,11=1,25=1,30=1,60=-1,116=1/1,2,3;
 4//1;
 5/5=2,38=5/2;
 6/7=2,8=2,9=2,10=2,28=1,40=2,113=1,114=1,124=2103/1,12;
 99/5=1,9=1/99;
 ---------
 mol36-NBO
 ---------
 Symbolic Z-matrix:
 Charge =  0 Multiplicity = 1
 O                     0.        0.73406  -0.05275 
 O                     0.       -0.73406  -0.05275 
 H                     0.83955   0.88075   0.422 
 H                    -0.83955  -0.88075   0.422 
 
                          Input orientation:                          
 ---------------------------------------------------------------------
 Center     Atomic      Atomic             Coordinates (Angstroms)
 Number     Number       Type             X           Y           Z
 ---------------------------------------------------------------------
      1          8           0        0.000000    0.734058   -0.052750
      2          8           0        0.000000   -0.734058   -0.052750
      3          1           0        0.839547    0.880752    0.422001
      4          1           0       -0.839547   -0.880752    0.422001
 ---------------------------------------------------------------------
                    Distance matrix (angstroms):
                    1          2          3          4
     1  O    0.000000
     2  O    1.468116   0.000000
     3  H    0.975575   1.880914   0.000000
     4  H    1.880914   0.975575   2.433568   0.000000
 Symmetry turned off by external request.
 Stoichiometry    H2O2
 Rotational constants (GHZ):         293.6201962          26.1106459          24.9918734
 Standard basis: 6-31G(d) (5D, 7F)
    32 basis functions,    64 primitive gaussians,    34 cartesian basis functions
     9 alpha electrons        9 beta electrons
       nuclear repulsion energy        36.4662831792 Hartrees.
 NAtoms=    4 NActive=    4 NUniq=    4 SFac= 1.00D+00 NAtFMM=   60 NAOKFM=F Big=F
 Integral buffers will be    131072 words long.
 Raffenetti 1 integral format.
 Two-electron integral symmetry is turned off.
 One-electron integrals computed using PRISM.
 NBasis=    32 RedAO= T EigKep=  2.39D-02  NBF=    32
 NBsUse=    32 1.00D-06 EigRej= -1.00D+00 NBFU=    32
 ExpMin= 1.61D-01 ExpMax= 5.48D+03 ExpMxC= 8.25D+02 IAcc=3 IRadAn=         5 AccDes= 0.00D+00
 Harris functional with IExCor=  205 and IRadAn=       5 diagonalized for initial guess.
 HarFok:  IExCor=  205 AccDes= 0.00D+00 IRadAn=         5 IDoV= 1 UseB2=F ITyADJ=14
 ICtDFT=  3500011 ScaDFX=  1.000000  1.000000  1.000000  1.000000
 FoFCou: FMM=F IPFlag=           0 FMFlag=      100000 FMFlg1=           0
         NFxFlg=           0 DoJE=T BraDBF=F KetDBF=T FulRan=T
         wScrn=  0.000000 ICntrl=       500 IOpCl=  0 I1Cent=   200000004 NGrid=           0
         NMat0=    1 NMatS0=      1 NMatT0=    0 NMatD0=    1 NMtDS0=    0 NMtDT0=    0
 Symmetry not used in FoFCou.
 Keep R1 ints in memory in canonical form, NReq=970270.
 Requested convergence on RMS density matrix=1.00D-08 within 128 cycles.
 Requested convergence on MAX density matrix=1.00D-06.
 Requested convergence on             energy=1.00D-06.
 No special actions if energy rises.
 SCF Done:  E(RHF) =  -150.757756721     A.U. after   12 cycles
            NFock= 12  Conv=0.62D-08     -V/T= 2.0021

 **********************************************************************

            Population analysis using the SCF Density.

 **********************************************************************

 Alpha  occ. eigenvalues --  -20.63220 -20.63193  -1.46145  -1.20820  -0.70603
 Alpha  occ. eigenvalues --   -0.69287  -0.59934  -0.51896  -0.47599
 Alpha virt. eigenvalues --    0.21490   0.21814   0.30098   1.04675   1.05030
 Alpha virt. eigenvalues --    1.10496   1.12713   1.22673   1.23206   1.29486
 Alpha virt. eigenvalues --    1.34337   1.60152   1.72030   1.78716   1.80680
 Alpha virt. eigenvalues --    1.98072   2.08563   2.28130   2.60413   2.64652
 Alpha virt. eigenvalues --    2.81249   2.81465   3.30853
          Condensed to atoms (all electrons):
               1          2          3          4
     1  O    8.171940   0.091965   0.247538  -0.027442
     2  O    0.091965   8.171940  -0.027442   0.247538
     3  H    0.247538  -0.027442   0.294294   0.001611
     4  H   -0.027442   0.247538   0.001611   0.294294
 Mulliken charges:
               1
     1  O   -0.484000
     2  O   -0.484000
     3  H    0.484000
     4  H    0.484000
 Sum of Mulliken charges =   0.00000
 Mulliken charges with hydrogens summed into heavy atoms:
               1
     1  O   -0.000000
     2  O    0.000000
 Electronic spatial extent (au):  <R**2>=             66.4674
 Charge=              0.0000 electrons
 Dipole moment (field-independent basis, Debye):
    X=              0.0000    Y=             -0.0000    Z=              1.8580  Tot=              1.8580
 Quadrupole moment (field-independent basis, Debye-Ang):
   XX=             -8.8944   YY=            -11.2812   ZZ=            -11.6672
   XY=              3.2518   XZ=              0.0000   YZ=              0.0000
 Traceless Quadrupole moment (field-independent basis, Debye-Ang):
   XX=              1.7199   YY=             -0.6669   ZZ=             -1.0529
   XY=              3.2518   XZ=              0.0000   YZ=              0.0000
 Octapole moment (field-independent basis, Debye-Ang**2):
  XXX=              0.0000  YYY=             -0.0000  ZZZ=              1.2025  XYY=              0.0000
  XXY=              0.0000  XXZ=              1.5834  XZZ=              0.0000  YZZ=              0.0000
  YYZ=              1.8992  XYZ=              1.6529
 Hexadecapole moment (field-independent basis, Debye-Ang**3):
 XXXX=             -8.6894 YYYY=            -44.1588 ZZZZ=             -9.4649 XXXY=              0.8042
 XXXZ=              0.0000 YYYX=              1.2809 YYYZ=              0.0000 ZZZX=              0.0000
 ZZZY=              0.0000 XXYY=             -7.7096 XXZZ=             -2.8190 YYZZ=             -9.5246
 XXYZ=              0.0000 YYXZ=              0.0000 ZZXY=              0.0471
 N-N= 3.646628317922D+01 E-N=-4.310386622929D+02  KE= 1.504445262604D+02
 Running external command "gaunbo7 R"
         input file       "/cluster/work/users/beto93/mol36/Gau-2835357.EIn"
         output file      "/cluster/work/users/beto93/mol36/Gau-2835357.EOu"
         message file     "/cluster/work/users/beto93/mol36/Gau-2835357.EMs"
         fchk file        "/cluster/work/users/beto93/mol36/Gau-2835357.EFC"
         mat. el file     "/cluster/work/users/beto93/mol36/Gau-2835357.EUF"

 Writing WrtUnf unformatted file "/cluster/work/users/beto93/mol36/Gau-2835357.EUF"
 Gaussian matrix elements                                         Version   2 NLab=11 Len12L=8 Len4L=8
 Write SHELL TO ATOM MAP                   from file      0 offset           0 length                  12 to matrix element file.
 Write SHELL TYPES                         from file      0 offset           0 length                  12 to matrix element file.
 Write NUMBER OF PRIMITIVES PER SHELL      from file      0 offset           0 length                  12 to matrix element file.
 Write PRIMITIVE EXPONENTS                 from file      0 offset           0 length                  30 to matrix element file.
 Write CONTRACTION COEFFICIENTS            from file      0 offset           0 length                  30 to matrix element file.
 Write P(S=P) CONTRACTION COEFFICIENTS     from file      0 offset           0 length                  30 to matrix element file.
 Write COORDINATES OF EACH SHELL           from file      0 offset           0 length                  36 to matrix element file.
 Write BONDS PER ATOM                      from file      0 offset           0 length                   4 to matrix element file.
 Write BONDED ATOMS                        from file      0 offset           0 length                   6 to matrix element file.
 Write BOND TYPES                          from file      0 offset           0 length                   6 to matrix element file.
 Write ONIOM CHARGE/MULT                   from file      0 offset           0 length                  32 to matrix element file.
 Write ONIOM ATOM LAYERS                   from file      0 offset           0 length                   4 to matrix element file.
 Write ONIOM ATOM MODIFIERS                from file      0 offset           0 length                   4 to matrix element file.
 Write ONIOM ATOM TYPES                    from file      0 offset           0 length                   4 to matrix element file.
 Write ONIOM LINK ATOMS                    from file      0 offset           0 length                   4 to matrix element file.
 Write ONIOM LINK CHARGES                  from file      0 offset           0 length                   4 to matrix element file.
 Write ONIOM LINK DISTANCES                from file      0 offset           0 length                  16 to matrix element file.
 Write SYMINF INTS                         from file      0 offset           0 length                  26 to matrix element file.
 Write ROTTR TO SO                         from file      0 offset           0 length                  12 to matrix element file.
 Write GAUSSIAN SCALARS                    from file    501 offset           0 to matrix element file.
 Write OPTIMIZATION FLAGS                  from file      0 offset           0 length                   4 to matrix element file.
 Write INTEGER ISO                         from file      0 offset           0 length                   4 to matrix element file.
 Write INTEGER SPIN                        from file      0 offset           0 length                   4 to matrix element file.
 Write REAL ZEFFECTIVE                     from file      0 offset           0 length                   4 to matrix element file.
 Write REAL GFACTOR                        from file      0 offset           0 length                   4 to matrix element file.
 Write REAL ZNUCLEAR                       from file      0 offset           0 length                   4 to matrix element file.
 Write MULLIKEN CHARGES                    from file      0 offset           0 length                   4 to matrix element file.
 Write NUCLEAR GRADIENT                    from file  10584 offset           0 length                  12 to matrix element file.
 Array NUCLEAR FORCE CONSTANTS              on  file  10585 does not exist.
 Write ELECTRIC DIPOLE MOMENT              from file      0 offset           0 length                   3 to matrix element file.
 Write NON-ADIABATIC COUPLING              from file  10810 offset           0 length                  12 to matrix element file.
 Write FINITE EM FIELD                     from file  10521 offset           0 length                  35 to matrix element file.
 Write OVERLAP                             from file  10514 offset           0 length                 528 to matrix element file.
 Write CORE HAMILTONIAN ALPHA              from file  10515 offset           0 length                 528 to matrix element file.
 Write CORE HAMILTONIAN BETA               from file  10515 offset         528 length                 528 to matrix element file.
 Write KINETIC ENERGY                      from file  10516 offset           0 length                 528 to matrix element file.
 Write ORTHOGONAL BASIS                    from file  10685 offset           0 length                1024 to matrix element file.
 Write DIPOLE INTEGRALS                    from file  10518 offset           0 length                1584 to matrix element file.
 Array DIP VEL INTEGRALS                    on  file  10572 does not exist.
 Array R X DEL INTEGRALS                    on  file  10572 does not exist.
 Write ALPHA ORBITAL ENERGIES              from file      0 offset           0 length                  32 to matrix element file.
 Write ALPHA MO COEFFICIENTS               from file  10524 offset           0 length                1024 to matrix element file.
 Write ALPHA DENSITY MATRIX                from file      0 offset           0 length                 528 to matrix element file.
 Write ALPHA FOCK MATRIX                   from file  10536 offset           0 length                 528 to matrix element file.
 Write ENERGY-WEIGHTED DENSITY             from file  10571 offset           0 length                 528 to matrix element file.
 Write ALPHA SCF DENSITY MATRIX            from file      0 offset           0 length                 528 to matrix element file.
 No 2e integrals to process.
 Perform NBO analysis...executing G16NBO...

 *********************************** NBO 7.0 ***********************************
             N A T U R A L   A T O M I C   O R B I T A L   A N D
          N A T U R A L   B O N D   O R B I T A L   A N A L Y S I S
 **************************** Espen Tangen (S101595) ***************************
  (c) Copyright 1996-2021 Board of Regents of the University of Wisconsin System
      on behalf of the Theoretical Chemistry Institute.  All rights reserved.

          Cite this program [NBO 7.0.10 (8-Feb-2021)] as:

          NBO 7.0.  E. D. Glendening, J. K. Badenhoop, A. E. Reed,
          J. E. Carpenter, J. A. Bohmann, C. M. Morales, P. Karafiloglou,
          C. R. Landis, and F. Weinhold, Theoretical Chemistry Institute,
          University of Wisconsin, Madison, WI (2018)

       /NPA    / : Natural Population Analysis
       /AOPNAO / : Print the AO to PNAO transformation
       /AONAO  / : Print the AO to NAO transformation
       /AOMO   / : Print the MOs in the AO basis
       /BOAO   / : Print the AO bond-order matrix
       /DMAO   / : Print the AO density matrix
       /DMPNAO / : Print the PNAO density matrix
       /DMNAO  / : Print the NAO density matrix
       /DMMO   / : Print the MO density matrix
       /SAO    / : Print the AO overlap matrix
       /SPNAO  / : Print the PNAO overlap matrix
       /DETAIL / : Write details of NBO search
       /ARCHIVE/ : Write the archive file to lfn47
       /AOINFO / : Write AO information to lfn31
       /FILE   / : Set to mol36.gen*

 Filename set to mol36.gen1

 Job title: mol36-NBO


 MOs in the AO basis:

           AO          1       2       3       4       5       6       7       8
      ------------ ------- ------- ------- ------- ------- ------- ------- -------
   1.  O 1 (s)      0.7042  0.7042 -0.1523 -0.1541  0.0499  0.0162 -0.0256  0.0340
   2.  O 1 (s)      0.0153  0.0157  0.3366  0.3525 -0.1237 -0.0392  0.0693 -0.0848
   3.  O 1 (px)     0.0008  0.0008  0.0344  0.0727  0.3748  0.1742  0.1052  0.3781
   4.  O 1 (py)    -0.0010 -0.0006 -0.0704  0.0751 -0.0425  0.1897  0.3259 -0.2117
   5.  O 1 (pz)     0.0005  0.0005  0.0250  0.0362  0.0612  0.3048 -0.2747 -0.1385
   6.  O 1 (s)     -0.0046 -0.0081  0.3177  0.3907 -0.1710 -0.0565  0.1020 -0.1540
   7.  O 1 (px)    -0.0011 -0.0010  0.0237  0.0420  0.2341  0.1075  0.0744  0.2786
   8.  O 1 (py)     0.0003  0.0029 -0.0291  0.0272 -0.0387  0.1140  0.2216 -0.1491
   9.  O 1 (pz)    -0.0006 -0.0006  0.0188  0.0249  0.0325  0.1908 -0.1973 -0.1047
  10.  O 1 (d5)     0.0003  0.0004 -0.0107  0.0018 -0.0074  0.0114  0.0026 -0.0188
  11.  O 1 (d2)    -0.0001 -0.0002  0.0077  0.0121  0.0172  0.0211 -0.0036  0.0072
  12.  O 1 (d3)    -0.0001  0.0000 -0.0011  0.0029  0.0005 -0.0046  0.0180  0.0017
  13.  O 1 (d4)     0.0003  0.0004 -0.0080  0.0181  0.0144  0.0271  0.0267  0.0036
  14.  O 1 (d1)     0.0000 -0.0001  0.0006  0.0042 -0.0142  0.0090  0.0118 -0.0025
  15.  O 2 (s)      0.7042 -0.7042 -0.1523  0.1541 -0.0499  0.0162 -0.0256  0.0340
  16.  O 2 (s)      0.0153 -0.0157  0.3366 -0.3525  0.1237 -0.0392  0.0693 -0.0848
  17.  O 2 (px)    -0.0008  0.0008 -0.0344  0.0727  0.3748 -0.1742 -0.1052 -0.3781
  18.  O 2 (py)     0.0010 -0.0006  0.0704  0.0751 -0.0425 -0.1897 -0.3259  0.2117
  19.  O 2 (pz)     0.0005 -0.0005  0.0250 -0.0362 -0.0612  0.3048 -0.2747 -0.1385
  20.  O 2 (s)     -0.0046  0.0081  0.3177 -0.3907  0.1710 -0.0565  0.1020 -0.1540
  21.  O 2 (px)     0.0011 -0.0010 -0.0237  0.0420  0.2341 -0.1075 -0.0744 -0.2786
  22.  O 2 (py)    -0.0003  0.0029  0.0291  0.0272 -0.0387 -0.1140 -0.2216  0.1491
  23.  O 2 (pz)    -0.0006  0.0006  0.0188 -0.0249 -0.0325  0.1908 -0.1973 -0.1047
  24.  O 2 (d5)     0.0003 -0.0004 -0.0107 -0.0018  0.0074  0.0114  0.0026 -0.0188
  25.  O 2 (d2)     0.0001 -0.0002 -0.0077  0.0121  0.0172 -0.0211  0.0036 -0.0072
  26.  O 2 (d3)     0.0001  0.0000  0.0011  0.0029  0.0005  0.0046 -0.0180 -0.0017
  27.  O 2 (d4)     0.0003 -0.0004 -0.0080 -0.0181 -0.0144  0.0271  0.0267  0.0036
  28.  O 2 (d1)     0.0000  0.0001  0.0006 -0.0042  0.0142  0.0090  0.0118 -0.0025
  29.  H 3 (s)      0.0001  0.0006  0.0822  0.1194  0.1504  0.1722  0.0334  0.1066
  30.  H 3 (s)      0.0018  0.0011 -0.0183 -0.0035  0.0710  0.0804  0.0295  0.0402
  31.  H 4 (s)      0.0001 -0.0006  0.0822 -0.1194 -0.1504  0.1722  0.0334  0.1066
  32.  H 4 (s)      0.0018 -0.0011 -0.0183  0.0035 -0.0710  0.0804  0.0295  0.0402

           AO          9      10      11      12      13      14      15      16
      ------------ ------- ------- ------- ------- ------- ------- ------- -------
   1.  O 1 (s)      0.0157  0.0706  0.0514 -0.0221  0.0253  0.0129  0.0452  0.0154
   2.  O 1 (s)     -0.0412 -0.1286 -0.0763  0.0856 -0.2126 -0.0382 -0.2124 -0.1614
   3.  O 1 (px)    -0.1153 -0.1151 -0.1525 -0.1444 -0.0806 -0.3518  0.3937 -0.0656
   4.  O 1 (py)    -0.0160  0.2838 -0.0524 -0.3771  0.2693  0.1659 -0.4658 -0.1232
   5.  O 1 (pz)     0.4709 -0.0644 -0.0939 -0.0782 -0.2120  0.0091 -0.0989  0.6597
   6.  O 1 (s)     -0.0603 -0.7462 -0.6733 -0.0243  0.4157 -0.0174 -0.3830  0.1203
   7.  O 1 (px)    -0.0964 -0.2778 -0.3536 -0.2917 -0.1650 -0.0047 -0.4279  0.1191
   8.  O 1 (py)    -0.0174  0.4058 -0.0802 -0.6538 -0.5498 -0.2706  0.9622  0.1391
   9.  O 1 (pz)     0.3581 -0.1461 -0.2064 -0.1625  0.0162 -0.1435  0.0622 -0.6147
  10.  O 1 (d5)     0.0128 -0.0024  0.0024  0.0052 -0.0600 -0.0112  0.0359 -0.0099
  11.  O 1 (d2)     0.0157 -0.0069 -0.0113 -0.0017  0.1100  0.0823  0.0317 -0.0111
  12.  O 1 (d3)     0.0040  0.0073  0.0011 -0.0090  0.0044  0.0299  0.0065 -0.0050
  13.  O 1 (d4)    -0.0023 -0.0149 -0.0041  0.0042 -0.0015  0.1169  0.0879 -0.0122
  14.  O 1 (d1)     0.0059  0.0136 -0.0025 -0.0063  0.0639 -0.0003  0.0237  0.0095
  15.  O 2 (s)     -0.0157 -0.0706  0.0514  0.0221 -0.0253  0.0129 -0.0452  0.0154
  16.  O 2 (s)      0.0412  0.1286 -0.0763 -0.0856  0.2126 -0.0382  0.2124 -0.1614
  17.  O 2 (px)    -0.1153 -0.1151  0.1525 -0.1444 -0.0806  0.3518  0.3937  0.0656
  18.  O 2 (py)    -0.0160  0.2838  0.0524 -0.3771  0.2693 -0.1659 -0.4658  0.1232
  19.  O 2 (pz)    -0.4709  0.0644 -0.0939  0.0782  0.2120  0.0091  0.0989  0.6597
  20.  O 2 (s)      0.0603  0.7462 -0.6733  0.0243 -0.4157 -0.0174  0.3830  0.1203
  21.  O 2 (px)    -0.0964 -0.2778  0.3536 -0.2917 -0.1650  0.0047 -0.4279 -0.1191
  22.  O 2 (py)    -0.0174  0.4058  0.0802 -0.6538 -0.5498  0.2706  0.9622 -0.1391
  23.  O 2 (pz)    -0.3581  0.1461 -0.2064  0.1625 -0.0162 -0.1435 -0.0622 -0.6147
  24.  O 2 (d5)    -0.0128  0.0024  0.0024 -0.0052  0.0600 -0.0112 -0.0359 -0.0099
  25.  O 2 (d2)     0.0157 -0.0069  0.0113 -0.0017  0.1100 -0.0823  0.0317  0.0111
  26.  O 2 (d3)     0.0040  0.0073 -0.0011 -0.0090  0.0044 -0.0299  0.0065  0.0050
  27.  O 2 (d4)     0.0023  0.0149 -0.0041 -0.0042  0.0015  0.1169 -0.0879 -0.0122
  28.  O 2 (d1)    -0.0059 -0.0136 -0.0025  0.0063 -0.0639 -0.0003 -0.0237  0.0095
  29.  H 3 (s)      0.0683  0.0473  0.0609  0.0685  0.7419  0.7421  0.2154 -0.0727
  30.  H 3 (s)      0.0428  0.8494  1.0731  0.8325 -0.4556 -0.4710 -0.1193  0.1323
  31.  H 4 (s)     -0.0683 -0.0473  0.0609 -0.0685 -0.7419  0.7421 -0.2154 -0.0727
  32.  H 4 (s)     -0.0428 -0.8494  1.0731 -0.8325  0.4556 -0.4710  0.1193  0.1323

           AO         17      18      19      20      21      22      23      24
      ------------ ------- ------- ------- ------- ------- ------- ------- -------
   1.  O 1 (s)     -0.0256 -0.0222  0.0363  0.0163  0.0447  0.0194  0.0066  0.0116
   2.  O 1 (s)      0.1440  0.2417 -0.3917 -0.0832 -0.9771 -0.7977 -0.1894 -0.6972
   3.  O 1 (px)     0.2334 -0.5419  0.1180 -0.5389 -0.2098 -0.0189 -0.0302 -0.0337
   4.  O 1 (py)     0.1619 -0.2614 -0.5238 -0.3290  0.0939  0.1044  0.0379  0.0681
   5.  O 1 (pz)    -0.5403 -0.1048 -0.1261 -0.3156 -0.1295 -0.0039 -0.0164 -0.0097
   6.  O 1 (s)      0.0706 -0.0333  0.5895 -0.1070  1.3076  1.5234  0.2643  1.4068
   7.  O 1 (px)    -0.1717  0.8740 -0.3599  0.7075  0.6184  0.0054  0.1443  0.2188
   8.  O 1 (py)    -0.3875  0.3067  0.5652  0.9029 -0.0057 -0.7151 -0.0267 -0.6223
   9.  O 1 (pz)     0.8458  0.1513  0.0914  0.5196  0.2660  0.0492  0.1566  0.1009
  10.  O 1 (d5)     0.0122 -0.0586 -0.0911  0.0155  0.1979  0.0514  0.1710  0.0577
  11.  O 1 (d2)    -0.0447 -0.0108  0.0736 -0.0067 -0.0820 -0.0725 -0.0422 -0.3568
  12.  O 1 (d3)     0.0386  0.0051  0.0412  0.0239 -0.1500 -0.0197  0.6083  0.0128
  13.  O 1 (d4)    -0.0503 -0.1283 -0.0600  0.0487  0.0880  0.0379 -0.0594  0.0338
  14.  O 1 (d1)    -0.0291  0.0462 -0.0093 -0.0132  0.0233 -0.4679  0.0303  0.3985
  15.  O 2 (s)      0.0256 -0.0222  0.0363 -0.0163  0.0447 -0.0194  0.0066 -0.0116
  16.  O 2 (s)     -0.1440  0.2417 -0.3917  0.0832 -0.9771  0.7977 -0.1894  0.6972
  17.  O 2 (px)     0.2334  0.5419 -0.1180 -0.5389  0.2098 -0.0189  0.0302 -0.0337
  18.  O 2 (py)     0.1619  0.2614  0.5238 -0.3290 -0.0939  0.1044 -0.0379  0.0681
  19.  O 2 (pz)     0.5403 -0.1048 -0.1261  0.3156 -0.1295  0.0039 -0.0164  0.0097
  20.  O 2 (s)     -0.0706 -0.0333  0.5895  0.1070  1.3076 -1.5234  0.2643 -1.4068
  21.  O 2 (px)    -0.1717 -0.8740  0.3599  0.7075 -0.6184  0.0054 -0.1443  0.2188
  22.  O 2 (py)    -0.3875 -0.3067 -0.5652  0.9029  0.0057 -0.7151  0.0267 -0.6223
  23.  O 2 (pz)    -0.8458  0.1513  0.0914 -0.5196  0.2660 -0.0492  0.1566 -0.1009
  24.  O 2 (d5)    -0.0122 -0.0586 -0.0911 -0.0155  0.1979 -0.0514  0.1710 -0.0577
  25.  O 2 (d2)    -0.0447  0.0108 -0.0736 -0.0067  0.0820 -0.0725  0.0422 -0.3568
  26.  O 2 (d3)     0.0386 -0.0051 -0.0412  0.0239  0.1500 -0.0197 -0.6083  0.0128
  27.  O 2 (d4)     0.0503 -0.1283 -0.0600 -0.0487  0.0880 -0.0379 -0.0594 -0.0338
  28.  O 2 (d1)     0.0291  0.0462 -0.0093  0.0132  0.0233  0.4679  0.0303 -0.3985
  29.  H 3 (s)     -0.2924 -0.1384  0.3954  0.1096 -0.2071 -0.0614 -0.0990 -0.1503
  30.  H 3 (s)      0.2810 -0.0984 -0.4072 -0.7817 -0.6015 -0.1043 -0.1136 -0.1467
  31.  H 4 (s)      0.2924 -0.1384  0.3954 -0.1096 -0.2071  0.0614 -0.0990  0.1503
  32.  H 4 (s)     -0.2810 -0.0984 -0.4072  0.7817 -0.6015  0.1043 -0.1136  0.1467

           AO         25      26      27      28      29      30      31      32
      ------------ ------- ------- ------- ------- ------- ------- ------- -------
   1.  O 1 (s)     -0.0061  0.0005 -0.0322 -0.0060 -0.0033 -0.0173  0.0186 -0.0534
   2.  O 1 (s)      0.1977 -0.2450  0.3987  0.0036 -0.1379 -0.5892  0.1640 -0.6958
   3.  O 1 (px)     0.0376 -0.0269  0.0046  0.0744 -0.0055 -0.0397  0.0894  0.0098
   4.  O 1 (py)    -0.0485  0.0111 -0.3905 -0.0409  0.0124  0.0477  0.0735 -0.0877
   5.  O 1 (pz)     0.0184 -0.0149  0.0030 -0.0026  0.0795 -0.0580  0.0212  0.0064
   6.  O 1 (s)     -0.2898  0.5349 -0.2425  0.0595  0.3416  1.5039 -0.5237  2.3338
   7.  O 1 (px)    -0.1703  0.1442 -0.0566 -0.1821  0.0923  0.4793 -0.7317 -0.0010
   8.  O 1 (py)     0.0134 -0.1767  0.2592  0.0275 -0.1363 -0.4965 -0.1236 -1.6714
   9.  O 1 (pz)    -0.1123  0.0612 -0.0295  0.0442 -0.2372  0.4726 -0.2465 -0.0040
  10.  O 1 (d5)     0.5182  0.5390  0.3268 -0.0160 -0.0794 -0.3184  0.1182 -0.5924
  11.  O 1 (d2)     0.3191  0.3352 -0.2582  0.2001  0.1399  0.5695 -0.6519  0.0144
  12.  O 1 (d3)    -0.1137  0.0099 -0.0158  0.0078  0.8147 -0.2047 -0.1051  0.0091
  13.  O 1 (d4)    -0.2972 -0.2821  0.4277  0.1385  0.0898  0.3058 -0.4244 -1.0038
  14.  O 1 (d1)    -0.0251  0.0998 -0.0318  0.8012  0.0309  0.2016  0.2479  0.0055
  15.  O 2 (s)     -0.0061 -0.0005 -0.0322 -0.0060  0.0033  0.0173  0.0186  0.0534
  16.  O 2 (s)      0.1977  0.2450  0.3987  0.0036  0.1379  0.5892  0.1640  0.6958
  17.  O 2 (px)    -0.0376 -0.0269 -0.0046 -0.0744 -0.0055 -0.0397 -0.0894  0.0098
  18.  O 2 (py)     0.0485  0.0111  0.3905  0.0409  0.0124  0.0477 -0.0735 -0.0877
  19.  O 2 (pz)     0.0184  0.0149  0.0030 -0.0026 -0.0795  0.0580  0.0212 -0.0064
  20.  O 2 (s)     -0.2898 -0.5349 -0.2425  0.0595 -0.3416 -1.5039 -0.5237 -2.3338
  21.  O 2 (px)     0.1703  0.1442  0.0566  0.1821  0.0923  0.4793  0.7317 -0.0010
  22.  O 2 (py)    -0.0134 -0.1767 -0.2592 -0.0275 -0.1363 -0.4965  0.1236 -1.6714
  23.  O 2 (pz)    -0.1123 -0.0612 -0.0295  0.0442  0.2372 -0.4726 -0.2465  0.0040
  24.  O 2 (d5)     0.5182 -0.5390  0.3268 -0.0160  0.0794  0.3184  0.1182  0.5924
  25.  O 2 (d2)    -0.3191  0.3352  0.2582 -0.2001  0.1399  0.5695  0.6519  0.0144
  26.  O 2 (d3)     0.1137  0.0099  0.0158 -0.0078  0.8147 -0.2047  0.1051  0.0091
  27.  O 2 (d4)    -0.2972  0.2821  0.4277  0.1385 -0.0898 -0.3058 -0.4244  1.0038
  28.  O 2 (d1)    -0.0251 -0.0998 -0.0318  0.8012 -0.0309 -0.2016  0.2479 -0.0055
  29.  H 3 (s)      0.1460 -0.1366  0.0528 -0.2221 -0.2191 -0.9424  0.8737 -0.0012
  30.  H 3 (s)      0.1196 -0.0979  0.0520  0.0517  0.0245 -0.0397  0.0192 -0.0007
  31.  H 4 (s)      0.1460  0.1366  0.0528 -0.2221  0.2191  0.9424  0.8737  0.0012
  32.  H 4 (s)      0.1196  0.0979  0.0520  0.0517 -0.0245  0.0397  0.0192  0.0007


 AO overlap matrix:

           AO          1       2       3       4       5       6       7       8
      ------------ ------- ------- ------- ------- ------- ------- ------- -------
   1.  O 1 (s)      1.0000  0.2337  0.0000  0.0000  0.0000  0.1673  0.0000  0.0000
   2.  O 1 (s)      0.2337  1.0000  0.0000  0.0000  0.0000  0.7636  0.0000  0.0000
   3.  O 1 (px)     0.0000  0.0000  1.0000  0.0000  0.0000  0.0000  0.5015  0.0000
   4.  O 1 (py)     0.0000  0.0000  0.0000  1.0000  0.0000  0.0000  0.0000  0.5015
   5.  O 1 (pz)     0.0000  0.0000  0.0000  0.0000  1.0000  0.0000  0.0000  0.0000
   6.  O 1 (s)      0.1673  0.7636  0.0000  0.0000  0.0000  1.0000  0.0000  0.0000
   7.  O 1 (px)     0.0000  0.0000  0.5015  0.0000  0.0000  0.0000  1.0000  0.0000
   8.  O 1 (py)     0.0000  0.0000  0.0000  0.5015  0.0000  0.0000  0.0000  1.0000
   9.  O 1 (pz)     0.0000  0.0000  0.0000  0.0000  0.5015  0.0000  0.0000  0.0000
  10.  O 1 (d5)     0.0000  0.0000  0.0000  0.0000  0.0000  0.0000  0.0000  0.0000
  11.  O 1 (d2)     0.0000  0.0000  0.0000  0.0000  0.0000  0.0000  0.0000  0.0000
  12.  O 1 (d3)     0.0000  0.0000  0.0000  0.0000  0.0000  0.0000  0.0000  0.0000
  13.  O 1 (d4)     0.0000  0.0000  0.0000  0.0000  0.0000  0.0000  0.0000  0.0000
  14.  O 1 (d1)     0.0000  0.0000  0.0000  0.0000  0.0000  0.0000  0.0000  0.0000
  15.  O 2 (s)      0.0000  0.0004  0.0000 -0.0014  0.0000  0.0223  0.0000 -0.0624
  16.  O 2 (s)      0.0004  0.0252  0.0000 -0.0471  0.0000  0.1515  0.0000 -0.3408
  17.  O 2 (px)     0.0000  0.0000  0.0114  0.0000  0.0000  0.0000  0.0939  0.0000
  18.  O 2 (py)     0.0014  0.0471  0.0000 -0.0807  0.0000  0.1354  0.0000 -0.2199
  19.  O 2 (pz)     0.0000  0.0000  0.0000  0.0000  0.0114  0.0000  0.0000  0.0000
  20.  O 2 (s)      0.0223  0.1515  0.0000 -0.1354  0.0000  0.3538  0.0000 -0.5100
  21.  O 2 (px)     0.0000  0.0000  0.0939  0.0000  0.0000  0.0000  0.3538  0.0000
  22.  O 2 (py)     0.0624  0.3408  0.0000 -0.2199  0.0000  0.5100  0.0000 -0.3814
  23.  O 2 (pz)     0.0000  0.0000  0.0000  0.0000  0.0939  0.0000  0.0000  0.0000
  24.  O 2 (d5)    -0.0074 -0.0759  0.0000  0.1007  0.0000 -0.0775  0.0000  0.0596
  25.  O 2 (d2)     0.0000  0.0000  0.0000  0.0000  0.0000  0.0000  0.0000  0.0000
  26.  O 2 (d3)     0.0000  0.0000  0.0000  0.0000  0.0682  0.0000  0.0000  0.0000
  27.  O 2 (d4)    -0.0128 -0.1314  0.0000  0.1744  0.0000 -0.1343  0.0000  0.1031
  28.  O 2 (d1)     0.0000  0.0000  0.0682  0.0000  0.0000  0.0000  0.1863  0.0000
  29.  H 3 (s)      0.0325  0.2366  0.2384  0.0417  0.1348  0.4173  0.4995  0.0873
  30.  H 3 (s)      0.0677  0.3739  0.1273  0.0222  0.0720  0.6754  0.4164  0.0728
  31.  H 4 (s)      0.0001  0.0062 -0.0051 -0.0099  0.0029  0.0691 -0.0817 -0.1571
  32.  H 4 (s)      0.0157  0.1045 -0.0347 -0.0668  0.0196  0.2658 -0.1639 -0.3153

           AO          9      10      11      12      13      14      15      16
      ------------ ------- ------- ------- ------- ------- ------- ------- -------
   1.  O 1 (s)      0.0000  0.0000  0.0000  0.0000  0.0000  0.0000  0.0000  0.0004
   2.  O 1 (s)      0.0000  0.0000  0.0000  0.0000  0.0000  0.0000  0.0004  0.0252
   3.  O 1 (px)     0.0000  0.0000  0.0000  0.0000  0.0000  0.0000  0.0000  0.0000
   4.  O 1 (py)     0.0000  0.0000  0.0000  0.0000  0.0000  0.0000 -0.0014 -0.0471
   5.  O 1 (pz)     0.5015  0.0000  0.0000  0.0000  0.0000  0.0000  0.0000  0.0000
   6.  O 1 (s)      0.0000  0.0000  0.0000  0.0000  0.0000  0.0000  0.0223  0.1515
   7.  O 1 (px)     0.0000  0.0000  0.0000  0.0000  0.0000  0.0000  0.0000  0.0000
   8.  O 1 (py)     0.0000  0.0000  0.0000  0.0000  0.0000  0.0000 -0.0624 -0.3408
   9.  O 1 (pz)     1.0000  0.0000  0.0000  0.0000  0.0000  0.0000  0.0000  0.0000
  10.  O 1 (d5)     0.0000  1.0000  0.0000  0.0000  0.0000  0.0000 -0.0074 -0.0759
  11.  O 1 (d2)     0.0000  0.0000  1.0000  0.0000  0.0000  0.0000  0.0000  0.0000
  12.  O 1 (d3)     0.0000  0.0000  0.0000  1.0000  0.0000  0.0000  0.0000  0.0000
  13.  O 1 (d4)     0.0000  0.0000  0.0000  0.0000  1.0000  0.0000 -0.0128 -0.1314
  14.  O 1 (d1)     0.0000  0.0000  0.0000  0.0000  0.0000  1.0000  0.0000  0.0000
  15.  O 2 (s)      0.0000 -0.0074  0.0000  0.0000 -0.0128  0.0000  1.0000  0.2337
  16.  O 2 (s)      0.0000 -0.0759  0.0000  0.0000 -0.1314  0.0000  0.2337  1.0000
  17.  O 2 (px)     0.0000  0.0000  0.0000  0.0000  0.0000 -0.0682  0.0000  0.0000
  18.  O 2 (py)     0.0000 -0.1007  0.0000  0.0000 -0.1744  0.0000  0.0000  0.0000
  19.  O 2 (pz)     0.0939  0.0000  0.0000 -0.0682  0.0000  0.0000  0.0000  0.0000
  20.  O 2 (s)      0.0000 -0.0775  0.0000  0.0000 -0.1343  0.0000  0.1673  0.7636
  21.  O 2 (px)     0.0000  0.0000  0.0000  0.0000  0.0000 -0.1863  0.0000  0.0000
  22.  O 2 (py)     0.0000 -0.0596  0.0000  0.0000 -0.1031  0.0000  0.0000  0.0000
  23.  O 2 (pz)     0.3538  0.0000  0.0000 -0.1863  0.0000  0.0000  0.0000  0.0000
  24.  O 2 (d5)     0.0000  0.0970  0.0000  0.0000  0.0882  0.0000  0.0000  0.0000
  25.  O 2 (d2)     0.0000  0.0000  0.0460  0.0000  0.0000  0.0000  0.0000  0.0000
  26.  O 2 (d3)     0.1863  0.0000  0.0000 -0.2373  0.0000  0.0000  0.0000  0.0000
  27.  O 2 (d4)     0.0000  0.0882  0.0000  0.0000  0.1988  0.0000  0.0000  0.0000
  28.  O 2 (d1)     0.0000  0.0000  0.0000  0.0000  0.0000 -0.2373  0.0000  0.0000
  29.  H 3 (s)      0.2825 -0.0555  0.2782  0.0486  0.2384  0.0860  0.0001  0.0062
  30.  H 3 (s)      0.2355 -0.0105  0.0525  0.0092  0.0450  0.0162  0.0157  0.1045
  31.  H 4 (s)      0.0462 -0.0172 -0.0083 -0.0160 -0.0198  0.0283  0.0325  0.2366
  32.  H 4 (s)      0.0927 -0.0315 -0.0152 -0.0292 -0.0363  0.0517  0.0677  0.3739

           AO         17      18      19      20      21      22      23      24
      ------------ ------- ------- ------- ------- ------- ------- ------- -------
   1.  O 1 (s)      0.0000  0.0014  0.0000  0.0223  0.0000  0.0624  0.0000 -0.0074
   2.  O 1 (s)      0.0000  0.0471  0.0000  0.1515  0.0000  0.3408  0.0000 -0.0759
   3.  O 1 (px)     0.0114  0.0000  0.0000  0.0000  0.0939  0.0000  0.0000  0.0000
   4.  O 1 (py)     0.0000 -0.0807  0.0000 -0.1354  0.0000 -0.2199  0.0000  0.1007
   5.  O 1 (pz)     0.0000  0.0000  0.0114  0.0000  0.0000  0.0000  0.0939  0.0000
   6.  O 1 (s)      0.0000  0.1354  0.0000  0.3538  0.0000  0.5100  0.0000 -0.0775
   7.  O 1 (px)     0.0939  0.0000  0.0000  0.0000  0.3538  0.0000  0.0000  0.0000
   8.  O 1 (py)     0.0000 -0.2199  0.0000 -0.5100  0.0000 -0.3814  0.0000  0.0596
   9.  O 1 (pz)     0.0000  0.0000  0.0939  0.0000  0.0000  0.0000  0.3538  0.0000
  10.  O 1 (d5)     0.0000 -0.1007  0.0000 -0.0775  0.0000 -0.0596  0.0000  0.0970
  11.  O 1 (d2)     0.0000  0.0000  0.0000  0.0000  0.0000  0.0000  0.0000  0.0000
  12.  O 1 (d3)     0.0000  0.0000 -0.0682  0.0000  0.0000  0.0000 -0.1863  0.0000
  13.  O 1 (d4)     0.0000 -0.1744  0.0000 -0.1343  0.0000 -0.1031  0.0000  0.0882
  14.  O 1 (d1)    -0.0682  0.0000  0.0000  0.0000 -0.1863  0.0000  0.0000  0.0000
  15.  O 2 (s)      0.0000  0.0000  0.0000  0.1673  0.0000  0.0000  0.0000  0.0000
  16.  O 2 (s)      0.0000  0.0000  0.0000  0.7636  0.0000  0.0000  0.0000  0.0000
  17.  O 2 (px)     1.0000  0.0000  0.0000  0.0000  0.5015  0.0000  0.0000  0.0000
  18.  O 2 (py)     0.0000  1.0000  0.0000  0.0000  0.0000  0.5015  0.0000  0.0000
  19.  O 2 (pz)     0.0000  0.0000  1.0000  0.0000  0.0000  0.0000  0.5015  0.0000
  20.  O 2 (s)      0.0000  0.0000  0.0000  1.0000  0.0000  0.0000  0.0000  0.0000
  21.  O 2 (px)     0.5015  0.0000  0.0000  0.0000  1.0000  0.0000  0.0000  0.0000
  22.  O 2 (py)     0.0000  0.5015  0.0000  0.0000  0.0000  1.0000  0.0000  0.0000
  23.  O 2 (pz)     0.0000  0.0000  0.5015  0.0000  0.0000  0.0000  1.0000  0.0000
  24.  O 2 (d5)     0.0000  0.0000  0.0000  0.0000  0.0000  0.0000  0.0000  1.0000
  25.  O 2 (d2)     0.0000  0.0000  0.0000  0.0000  0.0000  0.0000  0.0000  0.0000
  26.  O 2 (d3)     0.0000  0.0000  0.0000  0.0000  0.0000  0.0000  0.0000  0.0000
  27.  O 2 (d4)     0.0000  0.0000  0.0000  0.0000  0.0000  0.0000  0.0000  0.0000
  28.  O 2 (d1)     0.0000  0.0000  0.0000  0.0000  0.0000  0.0000  0.0000  0.0000
  29.  H 3 (s)      0.0051  0.0099  0.0029  0.0691  0.0817  0.1571  0.0462 -0.0172
  30.  H 3 (s)      0.0347  0.0668  0.0196  0.2658  0.1639  0.3153  0.0927 -0.0315
  31.  H 4 (s)     -0.2384 -0.0417  0.1348  0.4173 -0.4995 -0.0873  0.2825 -0.0555
  32.  H 4 (s)     -0.1273 -0.0222  0.0720  0.6754 -0.4164 -0.0728  0.2355 -0.0105

           AO         25      26      27      28      29      30      31      32
      ------------ ------- ------- ------- ------- ------- ------- ------- -------
   1.  O 1 (s)      0.0000  0.0000 -0.0128  0.0000  0.0325  0.0677  0.0001  0.0157
   2.  O 1 (s)      0.0000  0.0000 -0.1314  0.0000  0.2366  0.3739  0.0062  0.1045
   3.  O 1 (px)     0.0000  0.0000  0.0000  0.0682  0.2384  0.1273 -0.0051 -0.0347
   4.  O 1 (py)     0.0000  0.0000  0.1744  0.0000  0.0417  0.0222 -0.0099 -0.0668
   5.  O 1 (pz)     0.0000  0.0682  0.0000  0.0000  0.1348  0.0720  0.0029  0.0196
   6.  O 1 (s)      0.0000  0.0000 -0.1343  0.0000  0.4173  0.6754  0.0691  0.2658
   7.  O 1 (px)     0.0000  0.0000  0.0000  0.1863  0.4995  0.4164 -0.0817 -0.1639
   8.  O 1 (py)     0.0000  0.0000  0.1031  0.0000  0.0873  0.0728 -0.1571 -0.3153
   9.  O 1 (pz)     0.0000  0.1863  0.0000  0.0000  0.2825  0.2355  0.0462  0.0927
  10.  O 1 (d5)     0.0000  0.0000  0.0882  0.0000 -0.0555 -0.0105 -0.0172 -0.0315
  11.  O 1 (d2)     0.0460  0.0000  0.0000  0.0000  0.2782  0.0525 -0.0083 -0.0152
  12.  O 1 (d3)     0.0000 -0.2373  0.0000  0.0000  0.0486  0.0092 -0.0160 -0.0292
  13.  O 1 (d4)     0.0000  0.0000  0.1988  0.0000  0.2384  0.0450 -0.0198 -0.0363
  14.  O 1 (d1)     0.0000  0.0000  0.0000 -0.2373  0.0860  0.0162  0.0283  0.0517
  15.  O 2 (s)      0.0000  0.0000  0.0000  0.0000  0.0001  0.0157  0.0325  0.0677
  16.  O 2 (s)      0.0000  0.0000  0.0000  0.0000  0.0062  0.1045  0.2366  0.3739
  17.  O 2 (px)     0.0000  0.0000  0.0000  0.0000  0.0051  0.0347 -0.2384 -0.1273
  18.  O 2 (py)     0.0000  0.0000  0.0000  0.0000  0.0099  0.0668 -0.0417 -0.0222
  19.  O 2 (pz)     0.0000  0.0000  0.0000  0.0000  0.0029  0.0196  0.1348  0.0720
  20.  O 2 (s)      0.0000  0.0000  0.0000  0.0000  0.0691  0.2658  0.4173  0.6754
  21.  O 2 (px)     0.0000  0.0000  0.0000  0.0000  0.0817  0.1639 -0.4995 -0.4164
  22.  O 2 (py)     0.0000  0.0000  0.0000  0.0000  0.1571  0.3153 -0.0873 -0.0728
  23.  O 2 (pz)     0.0000  0.0000  0.0000  0.0000  0.0462  0.0927  0.2825  0.2355
  24.  O 2 (d5)     0.0000  0.0000  0.0000  0.0000 -0.0172 -0.0315 -0.0555 -0.0105
  25.  O 2 (d2)     1.0000  0.0000  0.0000  0.0000  0.0083  0.0152 -0.2782 -0.0525
  26.  O 2 (d3)     0.0000  1.0000  0.0000  0.0000  0.0160  0.0292 -0.0486 -0.0092
  27.  O 2 (d4)     0.0000  0.0000  1.0000  0.0000 -0.0198 -0.0363  0.2384  0.0450
  28.  O 2 (d1)     0.0000  0.0000  0.0000  1.0000  0.0283  0.0517  0.0860  0.0162
  29.  H 3 (s)      0.0083  0.0160 -0.0198  0.0283  1.0000  0.6583  0.0008  0.0412
  30.  H 3 (s)      0.0152  0.0292 -0.0363  0.0517  0.6583  1.0000  0.0412  0.1817
  31.  H 4 (s)     -0.2782 -0.0486  0.2384  0.0860  0.0008  0.0412  1.0000  0.6583
  32.  H 4 (s)     -0.0525 -0.0092  0.0450  0.0162  0.0412  0.1817  0.6583  1.0000


 AO bond-order matrix:

           AO          1       2       3       4       5       6       7       8
      ------------ ------- ------- ------- ------- ------- ------- ------- -------
   1.  O 1 (s)      2.0871 -0.1917  0.0291 -0.0336  0.0180 -0.2716  0.0159 -0.0173
   2.  O 1 (s)     -0.1917  0.5372 -0.0720  0.0835 -0.0501  0.5809 -0.0498  0.0578
   3.  O 1 (px)     0.0291 -0.0720  0.6892 -0.0475 -0.1120 -0.1504  0.4692 -0.0495
   4.  O 1 (py)    -0.0336  0.0835 -0.0475  0.3994 -0.0231  0.1407 -0.0425  0.2629
   5.  O 1 (pz)     0.0180 -0.0501 -0.1120 -0.0231  0.8298 -0.0813 -0.1105 -0.0315
   6.  O 1 (s)     -0.2716  0.5809 -0.1504  0.1407 -0.0813  0.6476 -0.1033  0.0963
   7.  O 1 (px)     0.0159 -0.0498  0.4692 -0.0425 -0.1105 -0.1033  0.3223 -0.0395
   8.  O 1 (py)    -0.0173  0.0578 -0.0495  0.2629 -0.0315  0.0963 -0.0395  0.1755
   9.  O 1 (pz)     0.0085 -0.0320 -0.1074 -0.0250  0.5977 -0.0525 -0.0975 -0.0274
  10.  O 1 (d5)     0.0023 -0.0025 -0.0186  0.0160  0.0214  0.0006 -0.0139  0.0102
  11.  O 1 (d2)    -0.0030  0.0048  0.0236  0.0014  0.0310  0.0013  0.0144 -0.0006
  12.  O 1 (d3)    -0.0014  0.0034  0.0033  0.0096 -0.0092  0.0045  0.0023  0.0064
  13.  O 1 (d4)    -0.0010  0.0049  0.0312  0.0288  0.0014  0.0056  0.0201  0.0173
  14.  O 1 (d1)    -0.0034  0.0078 -0.0076  0.0137  0.0039  0.0100 -0.0051  0.0091
  15.  O 2 (s)     -0.0027  0.0087  0.0042  0.0239 -0.0028  0.0300  0.0038  0.0002
  16.  O 2 (s)      0.0087 -0.0289 -0.0081 -0.0460  0.0069 -0.0640 -0.0090 -0.0027
  17.  O 2 (px)    -0.0042  0.0081 -0.0530  0.0130 -0.0028  0.0353 -0.0616  0.0074
  18.  O 2 (py)    -0.0239  0.0460  0.0130 -0.3686 -0.0065  0.0096  0.0215 -0.2470
  19.  O 2 (pz)    -0.0028  0.0069  0.0028  0.0065 -0.0773  0.0176  0.0078  0.0068
  20.  O 2 (s)      0.0300 -0.0640 -0.0353 -0.0096  0.0176 -0.0946 -0.0321  0.0233
  21.  O 2 (px)    -0.0038  0.0090 -0.0616  0.0215 -0.0078  0.0321 -0.0588  0.0145
  22.  O 2 (py)    -0.0002  0.0027  0.0074 -0.2470 -0.0068 -0.0233  0.0145 -0.1653
  23.  O 2 (pz)    -0.0033  0.0081  0.0017 -0.0041 -0.0884  0.0172  0.0060 -0.0002
  24.  O 2 (d5)     0.0030 -0.0066 -0.0022  0.0150 -0.0011 -0.0042 -0.0023  0.0098
  25.  O 2 (d2)    -0.0007  0.0012 -0.0016 -0.0017  0.0045  0.0022 -0.0024 -0.0018
  26.  O 2 (d3)     0.0000 -0.0002 -0.0035 -0.0091  0.0172 -0.0013 -0.0029 -0.0065
  27.  O 2 (d4)     0.0063 -0.0138  0.0033  0.0257 -0.0005 -0.0133  0.0028  0.0174
  28.  O 2 (d1)     0.0020 -0.0042  0.0151  0.0104 -0.0044 -0.0049  0.0097  0.0068
  29.  H 3 (s)     -0.0326  0.0698  0.2676  0.0334  0.1526  0.0404  0.1725  0.0100
  30.  H 3 (s)      0.0230 -0.0449  0.1062  0.0274  0.0695 -0.0593  0.0679  0.0133
  31.  H 4 (s)      0.0050 -0.0130  0.0390  0.0275 -0.0302 -0.0269  0.0380  0.0250
  32.  H 4 (s)      0.0008  0.0023  0.0205  0.0432 -0.0280  0.0051  0.0185  0.0277

           AO          9      10      11      12      13      14      15      16
      ------------ ------- ------- ------- ------- ------- ------- ------- -------
   1.  O 1 (s)      0.0085  0.0023 -0.0030 -0.0014 -0.0010 -0.0034 -0.0027  0.0087
   2.  O 1 (s)     -0.0320 -0.0025  0.0048  0.0034  0.0049  0.0078  0.0087 -0.0289
   3.  O 1 (px)    -0.1074 -0.0186  0.0236  0.0033  0.0312 -0.0076  0.0042 -0.0081
   4.  O 1 (py)    -0.0250  0.0160  0.0014  0.0096  0.0288  0.0137  0.0239 -0.0460
   5.  O 1 (pz)     0.5977  0.0214  0.0310 -0.0092  0.0014  0.0039 -0.0028  0.0069
   6.  O 1 (s)     -0.0525  0.0006  0.0013  0.0045  0.0056  0.0100  0.0300 -0.0640
   7.  O 1 (px)    -0.0975 -0.0139  0.0144  0.0023  0.0201 -0.0051  0.0038 -0.0090
   8.  O 1 (py)    -0.0274  0.0102 -0.0006  0.0064  0.0173  0.0091  0.0002 -0.0027
   9.  O 1 (pz)     0.4332  0.0156  0.0212 -0.0062 -0.0010  0.0028 -0.0033  0.0081
  10.  O 1 (d5)     0.0156  0.0017  0.0002  0.0001  0.0006  0.0007  0.0030 -0.0066
  11.  O 1 (d2)     0.0212  0.0002  0.0025 -0.0001  0.0017  0.0001  0.0007 -0.0012
  12.  O 1 (d3)    -0.0062  0.0001 -0.0001  0.0007  0.0008  0.0004  0.0000  0.0002
  13.  O 1 (d4)    -0.0010  0.0006  0.0017  0.0008  0.0041  0.0008  0.0063 -0.0138
  14.  O 1 (d1)     0.0028  0.0007  0.0001  0.0004  0.0008  0.0010  0.0020 -0.0042
  15.  O 2 (s)     -0.0033  0.0030  0.0007  0.0000  0.0063  0.0020  2.0871 -0.1917
  16.  O 2 (s)      0.0081 -0.0066 -0.0012  0.0002 -0.0138 -0.0042 -0.1917  0.5372
  17.  O 2 (px)    -0.0017  0.0022 -0.0016 -0.0035 -0.0033 -0.0151 -0.0291  0.0720
  18.  O 2 (py)     0.0041 -0.0150 -0.0017 -0.0091 -0.0257 -0.0104  0.0336 -0.0835
  19.  O 2 (pz)    -0.0884 -0.0011 -0.0045 -0.0172 -0.0005 -0.0044  0.0180 -0.0501
  20.  O 2 (s)      0.0172 -0.0042 -0.0022  0.0013 -0.0133 -0.0049 -0.2716  0.5809
  21.  O 2 (px)    -0.0060  0.0023 -0.0024 -0.0029 -0.0028 -0.0097 -0.0159  0.0498
  22.  O 2 (py)     0.0002 -0.0098 -0.0018 -0.0065 -0.0174 -0.0068  0.0173 -0.0578
  23.  O 2 (pz)    -0.0865 -0.0019 -0.0047 -0.0123 -0.0015 -0.0042  0.0085 -0.0320
  24.  O 2 (d5)    -0.0019  0.0008 -0.0002 -0.0002  0.0010  0.0000  0.0023 -0.0025
  25.  O 2 (d2)     0.0047  0.0002  0.0002  0.0005  0.0000 -0.0005  0.0030 -0.0048
  26.  O 2 (d3)     0.0123  0.0002  0.0005 -0.0006 -0.0006 -0.0003  0.0014 -0.0034
  27.  O 2 (d4)    -0.0015  0.0010  0.0000  0.0006  0.0020  0.0014 -0.0010  0.0049
  28.  O 2 (d1)    -0.0042  0.0000  0.0005  0.0003  0.0014 -0.0001 -0.0034  0.0078
  29.  H 3 (s)      0.0980 -0.0017  0.0200  0.0012  0.0189  0.0010  0.0050 -0.0130
  30.  H 3 (s)      0.0450  0.0009  0.0072  0.0009  0.0082  0.0004  0.0008  0.0023
  31.  H 4 (s)     -0.0313 -0.0016 -0.0004 -0.0016  0.0022  0.0059 -0.0326  0.0698
  32.  H 4 (s)     -0.0252  0.0008 -0.0002  0.0001  0.0048  0.0035  0.0230 -0.0449

           AO         17      18      19      20      21      22      23      24
      ------------ ------- ------- ------- ------- ------- ------- ------- -------
   1.  O 1 (s)     -0.0042 -0.0239 -0.0028  0.0300 -0.0038 -0.0002 -0.0033  0.0030
   2.  O 1 (s)      0.0081  0.0460  0.0069 -0.0640  0.0090  0.0027  0.0081 -0.0066
   3.  O 1 (px)    -0.0530  0.0130  0.0028 -0.0353 -0.0616  0.0074  0.0017 -0.0022
   4.  O 1 (py)     0.0130 -0.3686  0.0065 -0.0096  0.0215 -0.2470 -0.0041  0.0150
   5.  O 1 (pz)    -0.0028 -0.0065 -0.0773  0.0176 -0.0078 -0.0068 -0.0884 -0.0011
   6.  O 1 (s)      0.0353  0.0096  0.0176 -0.0946  0.0321 -0.0233  0.0172 -0.0042
   7.  O 1 (px)    -0.0616  0.0215  0.0078 -0.0321 -0.0588  0.0145  0.0060 -0.0023
   8.  O 1 (py)     0.0074 -0.2470  0.0068  0.0233  0.0145 -0.1653 -0.0002  0.0098
   9.  O 1 (pz)    -0.0017  0.0041 -0.0884  0.0172 -0.0060  0.0002 -0.0865 -0.0019
  10.  O 1 (d5)     0.0022 -0.0150 -0.0011 -0.0042  0.0023 -0.0098 -0.0019  0.0008
  11.  O 1 (d2)    -0.0016 -0.0017 -0.0045 -0.0022 -0.0024 -0.0018 -0.0047 -0.0002
  12.  O 1 (d3)    -0.0035 -0.0091 -0.0172  0.0013 -0.0029 -0.0065 -0.0123 -0.0002
  13.  O 1 (d4)    -0.0033 -0.0257 -0.0005 -0.0133 -0.0028 -0.0174 -0.0015  0.0010
  14.  O 1 (d1)    -0.0151 -0.0104 -0.0044 -0.0049 -0.0097 -0.0068 -0.0042  0.0000
  15.  O 2 (s)     -0.0291  0.0336  0.0180 -0.2716 -0.0159  0.0173  0.0085  0.0023
  16.  O 2 (s)      0.0720 -0.0835 -0.0501  0.5809  0.0498 -0.0578 -0.0320 -0.0025
  17.  O 2 (px)     0.6892 -0.0475  0.1120  0.1504  0.4692 -0.0495  0.1074  0.0186
  18.  O 2 (py)    -0.0475  0.3994  0.0231 -0.1407 -0.0425  0.2629  0.0250 -0.0160
  19.  O 2 (pz)     0.1120  0.0231  0.8298 -0.0813  0.1105  0.0315  0.5977  0.0214
  20.  O 2 (s)      0.1504 -0.1407 -0.0813  0.6476  0.1033 -0.0963 -0.0525  0.0006
  21.  O 2 (px)     0.4692 -0.0425  0.1105  0.1033  0.3223 -0.0395  0.0975  0.0139
  22.  O 2 (py)    -0.0495  0.2629  0.0315 -0.0963 -0.0395  0.1755  0.0274 -0.0102
  23.  O 2 (pz)     0.1074  0.0250  0.5977 -0.0525  0.0975  0.0274  0.4332  0.0156
  24.  O 2 (d5)     0.0186 -0.0160  0.0214  0.0006  0.0139 -0.0102  0.0156  0.0017
  25.  O 2 (d2)     0.0236  0.0014 -0.0310 -0.0013  0.0144 -0.0006 -0.0212 -0.0002
  26.  O 2 (d3)     0.0033  0.0096  0.0092 -0.0045  0.0023  0.0064  0.0062 -0.0001
  27.  O 2 (d4)    -0.0312 -0.0288  0.0014  0.0056 -0.0201 -0.0173 -0.0010  0.0006
  28.  O 2 (d1)     0.0076 -0.0137  0.0039  0.0100  0.0051 -0.0091  0.0028  0.0007
  29.  H 3 (s)     -0.0390 -0.0275 -0.0302 -0.0269 -0.0380 -0.0250 -0.0313 -0.0016
  30.  H 3 (s)     -0.0205 -0.0432 -0.0280  0.0051 -0.0185 -0.0277 -0.0252  0.0008
  31.  H 4 (s)     -0.2676 -0.0334  0.1526  0.0404 -0.1725 -0.0100  0.0980 -0.0017
  32.  H 4 (s)     -0.1062 -0.0274  0.0695 -0.0593 -0.0679 -0.0133  0.0450  0.0009

           AO         25      26      27      28      29      30      31      32
      ------------ ------- ------- ------- ------- ------- ------- ------- -------
   1.  O 1 (s)     -0.0007  0.0000  0.0063  0.0020 -0.0326  0.0230  0.0050  0.0008
   2.  O 1 (s)      0.0012 -0.0002 -0.0138 -0.0042  0.0698 -0.0449 -0.0130  0.0023
   3.  O 1 (px)    -0.0016 -0.0035  0.0033  0.0151  0.2676  0.1062  0.0390  0.0205
   4.  O 1 (py)    -0.0017 -0.0091  0.0257  0.0104  0.0334  0.0274  0.0275  0.0432
   5.  O 1 (pz)     0.0045  0.0172 -0.0005 -0.0044  0.1526  0.0695 -0.0302 -0.0280
   6.  O 1 (s)      0.0022 -0.0013 -0.0133 -0.0049  0.0404 -0.0593 -0.0269  0.0051
   7.  O 1 (px)    -0.0024 -0.0029  0.0028  0.0097  0.1725  0.0679  0.0380  0.0185
   8.  O 1 (py)    -0.0018 -0.0065  0.0174  0.0068  0.0100  0.0133  0.0250  0.0277
   9.  O 1 (pz)     0.0047  0.0123 -0.0015 -0.0042  0.0980  0.0450 -0.0313 -0.0252
  10.  O 1 (d5)     0.0002  0.0002  0.0010  0.0000 -0.0017  0.0009 -0.0016  0.0008
  11.  O 1 (d2)     0.0002  0.0005  0.0000  0.0005  0.0200  0.0072 -0.0004 -0.0002
  12.  O 1 (d3)     0.0005 -0.0006  0.0006  0.0003  0.0012  0.0009 -0.0016  0.0001
  13.  O 1 (d4)     0.0000 -0.0006  0.0020  0.0014  0.0189  0.0082  0.0022  0.0048
  14.  O 1 (d1)    -0.0005 -0.0003  0.0014 -0.0001  0.0010  0.0004  0.0059  0.0035
  15.  O 2 (s)      0.0030  0.0014 -0.0010 -0.0034  0.0050  0.0008 -0.0326  0.0230
  16.  O 2 (s)     -0.0048 -0.0034  0.0049  0.0078 -0.0130  0.0023  0.0698 -0.0449
  17.  O 2 (px)     0.0236  0.0033 -0.0312  0.0076 -0.0390 -0.0205 -0.2676 -0.1062
  18.  O 2 (py)     0.0014  0.0096 -0.0288 -0.0137 -0.0275 -0.0432 -0.0334 -0.0274
  19.  O 2 (pz)    -0.0310  0.0092  0.0014  0.0039 -0.0302 -0.0280  0.1526  0.0695
  20.  O 2 (s)     -0.0013 -0.0045  0.0056  0.0100 -0.0269  0.0051  0.0404 -0.0593
  21.  O 2 (px)     0.0144  0.0023 -0.0201  0.0051 -0.0380 -0.0185 -0.1725 -0.0679
  22.  O 2 (py)    -0.0006  0.0064 -0.0173 -0.0091 -0.0250 -0.0277 -0.0100 -0.0133
  23.  O 2 (pz)    -0.0212  0.0062 -0.0010  0.0028 -0.0313 -0.0252  0.0980  0.0450
  24.  O 2 (d5)    -0.0002 -0.0001  0.0006  0.0007 -0.0016  0.0008 -0.0017  0.0009
  25.  O 2 (d2)     0.0025 -0.0001 -0.0017 -0.0001  0.0004  0.0002 -0.0200 -0.0072
  26.  O 2 (d3)    -0.0001  0.0007 -0.0008 -0.0004  0.0016 -0.0001 -0.0012 -0.0009
  27.  O 2 (d4)    -0.0017 -0.0008  0.0041  0.0008  0.0022  0.0048  0.0189  0.0082
  28.  O 2 (d1)    -0.0001 -0.0004  0.0008  0.0010  0.0059  0.0035  0.0010  0.0004
  29.  H 3 (s)      0.0004  0.0016  0.0022  0.0059  0.1809  0.0616  0.0147  0.0088
  30.  H 3 (s)      0.0002 -0.0001  0.0048  0.0035  0.0616  0.0323  0.0088  0.0048
  31.  H 4 (s)     -0.0200 -0.0012  0.0189  0.0010  0.0147  0.0088  0.1809  0.0616
  32.  H 4 (s)     -0.0072 -0.0009  0.0082  0.0004  0.0088  0.0048  0.0616  0.0323


 AO density matrix:

           AO          1       2       3       4       5       6       7       8
      ------------ ------- ------- ------- ------- ------- ------- ------- -------
   1.  O 1 (s)      1.9998  0.4742  0.0021 -0.0031  0.0013  0.3297  0.0004 -0.0021
   2.  O 1 (s)      0.4742  1.7163 -0.0786  0.1259 -0.0478  1.7255 -0.0449  0.1282
   3.  O 1 (px)     0.0021 -0.0786  1.4434 -0.0644 -0.1199  0.0102  1.4103 -0.0370
   4.  O 1 (py)    -0.0031  0.1259 -0.0644  0.9806 -0.0362  0.0437 -0.0364  1.0539
   5.  O 1 (pz)     0.0013 -0.0478 -0.1199 -0.0362  1.5888  0.0056 -0.0321 -0.0192
   6.  O 1 (s)      0.3297  1.7255  0.0102  0.0437  0.0056  1.8014  0.0405 -0.0463
   7.  O 1 (px)     0.0004 -0.0449  1.4103 -0.0364 -0.0321  0.0405  1.4386 -0.0050
   8.  O 1 (py)    -0.0021  0.1282 -0.0370  1.0539 -0.0192 -0.0463 -0.0050  1.3304
   9.  O 1 (pz)     0.0002 -0.0259 -0.0335 -0.0189  1.4484  0.0278  0.0428 -0.0050
  10.  O 1 (d5)     0.0006 -0.0243 -0.0477  0.1196  0.0166 -0.0551 -0.0431  0.1667
  11.  O 1 (d2)    -0.0009  0.0485  0.1554  0.0203  0.1139  0.0626  0.1598  0.0278
  12.  O 1 (d3)    -0.0002  0.0089  0.0244  0.0198  0.0148  0.0108  0.0238  0.0230
  13.  O 1 (d4)    -0.0001  0.0203  0.1534  0.2341  0.0641 -0.0158  0.1551  0.3226
  14.  O 1 (d1)    -0.0004  0.0209  0.0373  0.0224  0.0266  0.0258 -0.0076  0.0257
  15.  O 2 (s)      0.0000  0.0005  0.0002  0.0008 -0.0001  0.0434  0.0001 -0.1205
  16.  O 2 (s)      0.0005  0.0744 -0.0144 -0.2755  0.0044  0.3508  0.0008 -0.8590
  17.  O 2 (px)    -0.0002  0.0144  0.0004  0.0025 -0.0037 -0.0077  0.2802  0.0177
  18.  O 2 (py)    -0.0008  0.2755  0.0025 -0.8725 -0.0110  0.2965 -0.0308 -0.8031
  19.  O 2 (pz)    -0.0001  0.0044  0.0037  0.0110 -0.0168  0.0035  0.0036 -0.0074
  20.  O 2 (s)      0.0434  0.3508  0.0077 -0.2965  0.0035  0.6400  0.0088 -0.8843
  21.  O 2 (px)    -0.0001 -0.0008  0.2802 -0.0308 -0.0036 -0.0088  0.5491  0.0026
  22.  O 2 (py)     0.1205  0.8590  0.0177 -0.8031  0.0074  0.8843  0.0026 -0.7213
  23.  O 2 (pz)     0.0001 -0.0081 -0.0024  0.0119  0.2859  0.0065 -0.0005 -0.0101
  24.  O 2 (d5)    -0.0144 -0.1460 -0.0028  0.0876  0.0046 -0.1571  0.0064  0.0921
  25.  O 2 (d2)    -0.0001  0.0075 -0.0058 -0.0137  0.0201 -0.0038  0.0270  0.0118
  26.  O 2 (d3)     0.0001 -0.0077 -0.0286 -0.0260  0.2673 -0.0008 -0.0092 -0.0182
  27.  O 2 (d4)    -0.0249 -0.2606  0.0282  0.1681 -0.0021 -0.2627 -0.0031  0.1454
  28.  O 2 (d1)     0.0003 -0.0264  0.2420  0.0046 -0.0305 -0.0080  0.2284 -0.0017
  29.  H 3 (s)      0.0600  0.6895  0.9322  0.1541  0.5293  0.7792  0.9600  0.1881
  30.  H 3 (s)      0.1296  1.0074  0.6092  0.0976  0.3470  1.1139  0.6586  0.0398
  31.  H 4 (s)      0.0006 -0.0053  0.0167  0.0199 -0.0195  0.1303 -0.1713 -0.2655
  32.  H 4 (s)      0.0303  0.2609 -0.1024 -0.0607  0.0702  0.4405 -0.2146 -0.4355

           AO          9      10      11      12      13      14      15      16
      ------------ ------- ------- ------- ------- ------- ------- ------- -------
   1.  O 1 (s)      0.0002  0.0006 -0.0009 -0.0002 -0.0001 -0.0004  0.0000  0.0005
   2.  O 1 (s)     -0.0259 -0.0243  0.0485  0.0089  0.0203  0.0209  0.0005  0.0744
   3.  O 1 (px)    -0.0335 -0.0477  0.1554  0.0244  0.1534  0.0373  0.0002 -0.0144
   4.  O 1 (py)    -0.0189  0.1196  0.0203  0.0198  0.2341  0.0224  0.0008 -0.2755
   5.  O 1 (pz)     1.4484  0.0166  0.1139  0.0148  0.0641  0.0266 -0.0001  0.0044
   6.  O 1 (s)      0.0278 -0.0551  0.0626  0.0108 -0.0158  0.0258  0.0434  0.3508
   7.  O 1 (px)     0.0428 -0.0431  0.1598  0.0238  0.1551 -0.0076  0.0001  0.0008
   8.  O 1 (py)    -0.0050  0.1667  0.0278  0.0230  0.3226  0.0257 -0.1205 -0.8590
   9.  O 1 (pz)     1.3822  0.0148  0.1102 -0.0352  0.0705  0.0241  0.0001 -0.0081
  10.  O 1 (d5)     0.0148  0.0247 -0.0019  0.0006  0.0379  0.0015 -0.0144 -0.1460
  11.  O 1 (d2)     0.1102 -0.0019  0.0303  0.0083  0.0307  0.0091  0.0001 -0.0075
  12.  O 1 (d3)    -0.0352  0.0006  0.0083  0.0462  0.0088  0.0081 -0.0001  0.0077
  13.  O 1 (d4)     0.0705  0.0379  0.0307  0.0088  0.1036  0.0174 -0.0249 -0.2606
  14.  O 1 (d1)     0.0241  0.0015  0.0091  0.0081  0.0174  0.0432  0.0003 -0.0264
  15.  O 2 (s)      0.0001 -0.0144  0.0001 -0.0001 -0.0249  0.0003  1.9998  0.4742
  16.  O 2 (s)     -0.0081 -0.1460 -0.0075  0.0077 -0.2606 -0.0264  0.4742  1.7163
  17.  O 2 (px)     0.0024  0.0028 -0.0058 -0.0286 -0.0282 -0.2420 -0.0021  0.0786
  18.  O 2 (py)    -0.0119 -0.0876 -0.0137 -0.0260 -0.1681 -0.0046  0.0031 -0.1259
  19.  O 2 (pz)     0.2859  0.0046 -0.0201 -0.2673 -0.0021 -0.0305  0.0013 -0.0478
  20.  O 2 (s)      0.0065 -0.1571  0.0038  0.0008 -0.2627 -0.0080  0.3297  1.7255
  21.  O 2 (px)     0.0005 -0.0064  0.0270 -0.0092  0.0031 -0.2284 -0.0004  0.0449
  22.  O 2 (py)     0.0101 -0.0921  0.0118 -0.0182 -0.1454  0.0017  0.0021 -0.1282
  23.  O 2 (pz)     0.5377  0.0062  0.0056 -0.2404  0.0130 -0.0097  0.0002 -0.0259
  24.  O 2 (d5)     0.0062  0.0142 -0.0032 -0.0018  0.0196 -0.0081  0.0006 -0.0243
  25.  O 2 (d2)    -0.0056  0.0032  0.0018  0.0177  0.0020 -0.0249  0.0009 -0.0485
  26.  O 2 (d3)     0.2404  0.0018  0.0177  0.0036  0.0064 -0.0003  0.0002 -0.0089
  27.  O 2 (d4)     0.0130  0.0196 -0.0020 -0.0064  0.0360  0.0258 -0.0001  0.0203
  28.  O 2 (d1)    -0.0097 -0.0081  0.0249  0.0003  0.0258  0.0121 -0.0004  0.0209
  29.  H 3 (s)      0.5435 -0.0203  0.1823  0.0339  0.1805  0.0542  0.0006 -0.0053
  30.  H 3 (s)      0.3774 -0.0427  0.1371  0.0114  0.0888  0.0227  0.0303  0.2609
  31.  H 4 (s)      0.0959 -0.0523 -0.0036 -0.0796 -0.0682  0.1490  0.0600  0.6895
  32.  H 4 (s)      0.1356 -0.0816 -0.0021 -0.0518 -0.1330  0.0952  0.1296  1.0074

           AO         17      18      19      20      21      22      23      24
      ------------ ------- ------- ------- ------- ------- ------- ------- -------
   1.  O 1 (s)     -0.0002 -0.0008 -0.0001  0.0434 -0.0001  0.1205  0.0001 -0.0144
   2.  O 1 (s)      0.0144  0.2755  0.0044  0.3508 -0.0008  0.8590 -0.0081 -0.1460
   3.  O 1 (px)     0.0004  0.0025  0.0037  0.0077  0.2802  0.0177 -0.0024 -0.0028
   4.  O 1 (py)     0.0025 -0.8725  0.0110 -0.2965 -0.0308 -0.8031  0.0119  0.0876
   5.  O 1 (pz)    -0.0037 -0.0110 -0.0168  0.0035 -0.0036  0.0074  0.2859  0.0046
   6.  O 1 (s)     -0.0077  0.2965  0.0035  0.6400 -0.0088  0.8843  0.0065 -0.1571
   7.  O 1 (px)     0.2802 -0.0308  0.0036  0.0088  0.5491  0.0026 -0.0005  0.0064
   8.  O 1 (py)     0.0177 -0.8031 -0.0074 -0.8843  0.0026 -0.7213 -0.0101  0.0921
   9.  O 1 (pz)     0.0024 -0.0119  0.2859  0.0065  0.0005  0.0101  0.5377  0.0062
  10.  O 1 (d5)     0.0028 -0.0876  0.0046 -0.1571 -0.0064 -0.0921  0.0062  0.0142
  11.  O 1 (d2)    -0.0058 -0.0137 -0.0201  0.0038  0.0270  0.0118  0.0056 -0.0032
  12.  O 1 (d3)    -0.0286 -0.0260 -0.2673  0.0008 -0.0092 -0.0182 -0.2404 -0.0018
  13.  O 1 (d4)    -0.0282 -0.1681 -0.0021 -0.2627  0.0031 -0.1454  0.0130  0.0196
  14.  O 1 (d1)    -0.2420 -0.0046 -0.0305 -0.0080 -0.2284  0.0017 -0.0097 -0.0081
  15.  O 2 (s)     -0.0021  0.0031  0.0013  0.3297 -0.0004  0.0021  0.0002  0.0006
  16.  O 2 (s)      0.0786 -0.1259 -0.0478  1.7255  0.0449 -0.1282 -0.0259 -0.0243
  17.  O 2 (px)     1.4434 -0.0644  0.1199 -0.0102  1.4103 -0.0370  0.0335  0.0477
  18.  O 2 (py)    -0.0644  0.9806  0.0362 -0.0437 -0.0364  1.0539  0.0189 -0.1196
  19.  O 2 (pz)     0.1199  0.0362  1.5888  0.0056  0.0321  0.0192  1.4484  0.0166
  20.  O 2 (s)     -0.0102 -0.0437  0.0056  1.8014 -0.0405  0.0463  0.0278 -0.0551
  21.  O 2 (px)     1.4103 -0.0364  0.0321 -0.0405  1.4386 -0.0050 -0.0428  0.0431
  22.  O 2 (py)    -0.0370  1.0539  0.0192  0.0463 -0.0050  1.3304  0.0050 -0.1667
  23.  O 2 (pz)     0.0335  0.0189  1.4484  0.0278 -0.0428  0.0050  1.3822  0.0148
  24.  O 2 (d5)     0.0477 -0.1196  0.0166 -0.0551  0.0431 -0.1667  0.0148  0.0247
  25.  O 2 (d2)     0.1554  0.0203 -0.1139 -0.0626  0.1598  0.0278 -0.1102  0.0019
  26.  O 2 (d3)     0.0244  0.0198 -0.0148 -0.0108  0.0238  0.0230  0.0352 -0.0006
  27.  O 2 (d4)    -0.1534 -0.2341  0.0641 -0.0158 -0.1551 -0.3226  0.0705  0.0379
  28.  O 2 (d1)    -0.0373 -0.0224  0.0266  0.0258  0.0076 -0.0257  0.0241  0.0015
  29.  H 3 (s)     -0.0167 -0.0199 -0.0195  0.1303  0.1713  0.2655  0.0959 -0.0523
  30.  H 3 (s)      0.1024  0.0607  0.0702  0.4405  0.2146  0.4355  0.1356 -0.0816
  31.  H 4 (s)     -0.9322 -0.1541  0.5293  0.7792 -0.9600 -0.1881  0.5435 -0.0203
  32.  H 4 (s)     -0.6092 -0.0976  0.3470  1.1139 -0.6586 -0.0398  0.3774 -0.0427

           AO         25      26      27      28      29      30      31      32
      ------------ ------- ------- ------- ------- ------- ------- ------- -------
   1.  O 1 (s)     -0.0001  0.0001 -0.0249  0.0003  0.0600  0.1296  0.0006  0.0303
   2.  O 1 (s)      0.0075 -0.0077 -0.2606 -0.0264  0.6895  1.0074 -0.0053  0.2609
   3.  O 1 (px)    -0.0058 -0.0286  0.0282  0.2420  0.9322  0.6092  0.0167 -0.1024
   4.  O 1 (py)    -0.0137 -0.0260  0.1681  0.0046  0.1541  0.0976  0.0199 -0.0607
   5.  O 1 (pz)     0.0201  0.2673 -0.0021 -0.0305  0.5293  0.3470 -0.0195  0.0702
   6.  O 1 (s)     -0.0038 -0.0008 -0.2627 -0.0080  0.7792  1.1139  0.1303  0.4405
   7.  O 1 (px)     0.0270 -0.0092 -0.0031  0.2284  0.9600  0.6586 -0.1713 -0.2146
   8.  O 1 (py)     0.0118 -0.0182  0.1454 -0.0017  0.1881  0.0398 -0.2655 -0.4355
   9.  O 1 (pz)    -0.0056  0.2404  0.0130 -0.0097  0.5435  0.3774  0.0959  0.1356
  10.  O 1 (d5)     0.0032  0.0018  0.0196 -0.0081 -0.0203 -0.0427 -0.0523 -0.0816
  11.  O 1 (d2)     0.0018  0.0177 -0.0020  0.0249  0.1823  0.1371 -0.0036 -0.0021
  12.  O 1 (d3)     0.0177  0.0036 -0.0064  0.0003  0.0339  0.0114 -0.0796 -0.0518
  13.  O 1 (d4)     0.0020  0.0064  0.0360  0.0258  0.1805  0.0888 -0.0682 -0.1330
  14.  O 1 (d1)    -0.0249 -0.0003  0.0258  0.0121  0.0542  0.0227  0.1490  0.0952
  15.  O 2 (s)      0.0009  0.0002 -0.0001 -0.0004  0.0006  0.0303  0.0600  0.1296
  16.  O 2 (s)     -0.0485 -0.0089  0.0203  0.0209 -0.0053  0.2609  0.6895  1.0074
  17.  O 2 (px)     0.1554  0.0244 -0.1534 -0.0373 -0.0167  0.1024 -0.9322 -0.6092
  18.  O 2 (py)     0.0203  0.0198 -0.2341 -0.0224 -0.0199  0.0607 -0.1541 -0.0976
  19.  O 2 (pz)    -0.1139 -0.0148  0.0641  0.0266 -0.0195  0.0702  0.5293  0.3470
  20.  O 2 (s)     -0.0626 -0.0108 -0.0158  0.0258  0.1303  0.4405  0.7792  1.1139
  21.  O 2 (px)     0.1598  0.0238 -0.1551  0.0076  0.1713  0.2146 -0.9600 -0.6586
  22.  O 2 (py)     0.0278  0.0230 -0.3226 -0.0257  0.2655  0.4355 -0.1881 -0.0398
  23.  O 2 (pz)    -0.1102  0.0352  0.0705  0.0241  0.0959  0.1356  0.5435  0.3774
  24.  O 2 (d5)     0.0019 -0.0006  0.0379  0.0015 -0.0523 -0.0816 -0.0203 -0.0427
  25.  O 2 (d2)     0.0303  0.0083 -0.0307 -0.0091  0.0036  0.0021 -0.1823 -0.1371
  26.  O 2 (d3)     0.0083  0.0462 -0.0088 -0.0081  0.0796  0.0518 -0.0339 -0.0114
  27.  O 2 (d4)    -0.0307 -0.0088  0.1036  0.0174 -0.0682 -0.1330  0.1805  0.0888
  28.  O 2 (d1)    -0.0091 -0.0081  0.0174  0.0432  0.1490  0.0952  0.0542  0.0227
  29.  H 3 (s)      0.0036  0.0796 -0.0682  0.1490  1.2118  1.0380  0.0196  0.0766
  30.  H 3 (s)      0.0021  0.0518 -0.1330  0.0952  1.0380  1.0676  0.0766  0.2546
  31.  H 4 (s)     -0.1823 -0.0339  0.1805  0.0542  0.0196  0.0766  1.2118  1.0380
  32.  H 4 (s)     -0.1371 -0.0114  0.0888  0.0227  0.0766  0.2546  1.0380  1.0676


 MO density matrix:

      MO     1       2       3       4       5       6       7       8       9
     ---- ------  ------  ------  ------  ------  ------  ------  ------  ------
   1.     2.0000  0.0000  0.0000  0.0000  0.0000  0.0000  0.0000  0.0000  0.0000
   2.     0.0000  2.0000  0.0000  0.0000  0.0000  0.0000  0.0000  0.0000  0.0000
   3.     0.0000  0.0000  2.0000  0.0000  0.0000  0.0000  0.0000  0.0000  0.0000
   4.     0.0000  0.0000  0.0000  2.0000  0.0000  0.0000  0.0000  0.0000  0.0000
   5.     0.0000  0.0000  0.0000  0.0000  2.0000  0.0000  0.0000  0.0000  0.0000
   6.     0.0000  0.0000  0.0000  0.0000  0.0000  2.0000  0.0000  0.0000  0.0000
   7.     0.0000  0.0000  0.0000  0.0000  0.0000  0.0000  2.0000  0.0000  0.0000
   8.     0.0000  0.0000  0.0000  0.0000  0.0000  0.0000  0.0000  2.0000  0.0000
   9.     0.0000  0.0000  0.0000  0.0000  0.0000  0.0000  0.0000  0.0000  2.0000
  10.     0.0000  0.0000  0.0000  0.0000  0.0000  0.0000  0.0000  0.0000  0.0000
  11.     0.0000  0.0000  0.0000  0.0000  0.0000  0.0000  0.0000  0.0000  0.0000
  12.     0.0000  0.0000  0.0000  0.0000  0.0000  0.0000  0.0000  0.0000  0.0000
  13.     0.0000  0.0000  0.0000  0.0000  0.0000  0.0000  0.0000  0.0000  0.0000
  14.     0.0000  0.0000  0.0000  0.0000  0.0000  0.0000  0.0000  0.0000  0.0000
  15.     0.0000  0.0000  0.0000  0.0000  0.0000  0.0000  0.0000  0.0000  0.0000
  16.     0.0000  0.0000  0.0000  0.0000  0.0000  0.0000  0.0000  0.0000  0.0000
  17.     0.0000  0.0000  0.0000  0.0000  0.0000  0.0000  0.0000  0.0000  0.0000
  18.     0.0000  0.0000  0.0000  0.0000  0.0000  0.0000  0.0000  0.0000  0.0000
  19.     0.0000  0.0000  0.0000  0.0000  0.0000  0.0000  0.0000  0.0000  0.0000
  20.     0.0000  0.0000  0.0000  0.0000  0.0000  0.0000  0.0000  0.0000  0.0000
  21.     0.0000  0.0000  0.0000  0.0000  0.0000  0.0000  0.0000  0.0000  0.0000
  22.     0.0000  0.0000  0.0000  0.0000  0.0000  0.0000  0.0000  0.0000  0.0000
  23.     0.0000  0.0000  0.0000  0.0000  0.0000  0.0000  0.0000  0.0000  0.0000
  24.     0.0000  0.0000  0.0000  0.0000  0.0000  0.0000  0.0000  0.0000  0.0000
  25.     0.0000  0.0000  0.0000  0.0000  0.0000  0.0000  0.0000  0.0000  0.0000
  26.     0.0000  0.0000  0.0000  0.0000  0.0000  0.0000  0.0000  0.0000  0.0000
  27.     0.0000  0.0000  0.0000  0.0000  0.0000  0.0000  0.0000  0.0000  0.0000
  28.     0.0000  0.0000  0.0000  0.0000  0.0000  0.0000  0.0000  0.0000  0.0000
  29.     0.0000  0.0000  0.0000  0.0000  0.0000  0.0000  0.0000  0.0000  0.0000
  30.     0.0000  0.0000  0.0000  0.0000  0.0000  0.0000  0.0000  0.0000  0.0000
  31.     0.0000  0.0000  0.0000  0.0000  0.0000  0.0000  0.0000  0.0000  0.0000
  32.     0.0000  0.0000  0.0000  0.0000  0.0000  0.0000  0.0000  0.0000  0.0000

      MO    10      11      12      13      14      15      16      17      18
     ---- ------  ------  ------  ------  ------  ------  ------  ------  ------
   1.     0.0000  0.0000  0.0000  0.0000  0.0000  0.0000  0.0000  0.0000  0.0000
   2.     0.0000  0.0000  0.0000  0.0000  0.0000  0.0000  0.0000  0.0000  0.0000
   3.     0.0000  0.0000  0.0000  0.0000  0.0000  0.0000  0.0000  0.0000  0.0000
   4.     0.0000  0.0000  0.0000  0.0000  0.0000  0.0000  0.0000  0.0000  0.0000
   5.     0.0000  0.0000  0.0000  0.0000  0.0000  0.0000  0.0000  0.0000  0.0000
   6.     0.0000  0.0000  0.0000  0.0000  0.0000  0.0000  0.0000  0.0000  0.0000
   7.     0.0000  0.0000  0.0000  0.0000  0.0000  0.0000  0.0000  0.0000  0.0000
   8.     0.0000  0.0000  0.0000  0.0000  0.0000  0.0000  0.0000  0.0000  0.0000
   9.     0.0000  0.0000  0.0000  0.0000  0.0000  0.0000  0.0000  0.0000  0.0000
  10.     0.0000  0.0000  0.0000  0.0000  0.0000  0.0000  0.0000  0.0000  0.0000
  11.     0.0000  0.0000  0.0000  0.0000  0.0000  0.0000  0.0000  0.0000  0.0000
  12.     0.0000  0.0000  0.0000  0.0000  0.0000  0.0000  0.0000  0.0000  0.0000
  13.     0.0000  0.0000  0.0000  0.0000  0.0000  0.0000  0.0000  0.0000  0.0000
  14.     0.0000  0.0000  0.0000  0.0000  0.0000  0.0000  0.0000  0.0000  0.0000
  15.     0.0000  0.0000  0.0000  0.0000  0.0000  0.0000  0.0000  0.0000  0.0000
  16.     0.0000  0.0000  0.0000  0.0000  0.0000  0.0000  0.0000  0.0000  0.0000
  17.     0.0000  0.0000  0.0000  0.0000  0.0000  0.0000  0.0000  0.0000  0.0000
  18.     0.0000  0.0000  0.0000  0.0000  0.0000  0.0000  0.0000  0.0000  0.0000
  19.     0.0000  0.0000  0.0000  0.0000  0.0000  0.0000  0.0000  0.0000  0.0000
  20.     0.0000  0.0000  0.0000  0.0000  0.0000  0.0000  0.0000  0.0000  0.0000
  21.     0.0000  0.0000  0.0000  0.0000  0.0000  0.0000  0.0000  0.0000  0.0000
  22.     0.0000  0.0000  0.0000  0.0000  0.0000  0.0000  0.0000  0.0000  0.0000
  23.     0.0000  0.0000  0.0000  0.0000  0.0000  0.0000  0.0000  0.0000  0.0000
  24.     0.0000  0.0000  0.0000  0.0000  0.0000  0.0000  0.0000  0.0000  0.0000
  25.     0.0000  0.0000  0.0000  0.0000  0.0000  0.0000  0.0000  0.0000  0.0000
  26.     0.0000  0.0000  0.0000  0.0000  0.0000  0.0000  0.0000  0.0000  0.0000
  27.     0.0000  0.0000  0.0000  0.0000  0.0000  0.0000  0.0000  0.0000  0.0000
  28.     0.0000  0.0000  0.0000  0.0000  0.0000  0.0000  0.0000  0.0000  0.0000
  29.     0.0000  0.0000  0.0000  0.0000  0.0000  0.0000  0.0000  0.0000  0.0000
  30.     0.0000  0.0000  0.0000  0.0000  0.0000  0.0000  0.0000  0.0000  0.0000
  31.     0.0000  0.0000  0.0000  0.0000  0.0000  0.0000  0.0000  0.0000  0.0000
  32.     0.0000  0.0000  0.0000  0.0000  0.0000  0.0000  0.0000  0.0000  0.0000

      MO    19      20      21      22      23      24      25      26      27
     ---- ------  ------  ------  ------  ------  ------  ------  ------  ------
   1.     0.0000  0.0000  0.0000  0.0000  0.0000  0.0000  0.0000  0.0000  0.0000
   2.     0.0000  0.0000  0.0000  0.0000  0.0000  0.0000  0.0000  0.0000  0.0000
   3.     0.0000  0.0000  0.0000  0.0000  0.0000  0.0000  0.0000  0.0000  0.0000
   4.     0.0000  0.0000  0.0000  0.0000  0.0000  0.0000  0.0000  0.0000  0.0000
   5.     0.0000  0.0000  0.0000  0.0000  0.0000  0.0000  0.0000  0.0000  0.0000
   6.     0.0000  0.0000  0.0000  0.0000  0.0000  0.0000  0.0000  0.0000  0.0000
   7.     0.0000  0.0000  0.0000  0.0000  0.0000  0.0000  0.0000  0.0000  0.0000
   8.     0.0000  0.0000  0.0000  0.0000  0.0000  0.0000  0.0000  0.0000  0.0000
   9.     0.0000  0.0000  0.0000  0.0000  0.0000  0.0000  0.0000  0.0000  0.0000
  10.     0.0000  0.0000  0.0000  0.0000  0.0000  0.0000  0.0000  0.0000  0.0000
  11.     0.0000  0.0000  0.0000  0.0000  0.0000  0.0000  0.0000  0.0000  0.0000
  12.     0.0000  0.0000  0.0000  0.0000  0.0000  0.0000  0.0000  0.0000  0.0000
  13.     0.0000  0.0000  0.0000  0.0000  0.0000  0.0000  0.0000  0.0000  0.0000
  14.     0.0000  0.0000  0.0000  0.0000  0.0000  0.0000  0.0000  0.0000  0.0000
  15.     0.0000  0.0000  0.0000  0.0000  0.0000  0.0000  0.0000  0.0000  0.0000
  16.     0.0000  0.0000  0.0000  0.0000  0.0000  0.0000  0.0000  0.0000  0.0000
  17.     0.0000  0.0000  0.0000  0.0000  0.0000  0.0000  0.0000  0.0000  0.0000
  18.     0.0000  0.0000  0.0000  0.0000  0.0000  0.0000  0.0000  0.0000  0.0000
  19.     0.0000  0.0000  0.0000  0.0000  0.0000  0.0000  0.0000  0.0000  0.0000
  20.     0.0000  0.0000  0.0000  0.0000  0.0000  0.0000  0.0000  0.0000  0.0000
  21.     0.0000  0.0000  0.0000  0.0000  0.0000  0.0000  0.0000  0.0000  0.0000
  22.     0.0000  0.0000  0.0000  0.0000  0.0000  0.0000  0.0000  0.0000  0.0000
  23.     0.0000  0.0000  0.0000  0.0000  0.0000  0.0000  0.0000  0.0000  0.0000
  24.     0.0000  0.0000  0.0000  0.0000  0.0000  0.0000  0.0000  0.0000  0.0000
  25.     0.0000  0.0000  0.0000  0.0000  0.0000  0.0000  0.0000  0.0000  0.0000
  26.     0.0000  0.0000  0.0000  0.0000  0.0000  0.0000  0.0000  0.0000  0.0000
  27.     0.0000  0.0000  0.0000  0.0000  0.0000  0.0000  0.0000  0.0000  0.0000
  28.     0.0000  0.0000  0.0000  0.0000  0.0000  0.0000  0.0000  0.0000  0.0000
  29.     0.0000  0.0000  0.0000  0.0000  0.0000  0.0000  0.0000  0.0000  0.0000
  30.     0.0000  0.0000  0.0000  0.0000  0.0000  0.0000  0.0000  0.0000  0.0000
  31.     0.0000  0.0000  0.0000  0.0000  0.0000  0.0000  0.0000  0.0000  0.0000
  32.     0.0000  0.0000  0.0000  0.0000  0.0000  0.0000  0.0000  0.0000  0.0000

      MO    28      29      30      31      32
     ---- ------  ------  ------  ------  ------
   1.     0.0000  0.0000  0.0000  0.0000  0.0000
   2.     0.0000  0.0000  0.0000  0.0000  0.0000
   3.     0.0000  0.0000  0.0000  0.0000  0.0000
   4.     0.0000  0.0000  0.0000  0.0000  0.0000
   5.     0.0000  0.0000  0.0000  0.0000  0.0000
   6.     0.0000  0.0000  0.0000  0.0000  0.0000
   7.     0.0000  0.0000  0.0000  0.0000  0.0000
   8.     0.0000  0.0000  0.0000  0.0000  0.0000
   9.     0.0000  0.0000  0.0000  0.0000  0.0000
  10.     0.0000  0.0000  0.0000  0.0000  0.0000
  11.     0.0000  0.0000  0.0000  0.0000  0.0000
  12.     0.0000  0.0000  0.0000  0.0000  0.0000
  13.     0.0000  0.0000  0.0000  0.0000  0.0000
  14.     0.0000  0.0000  0.0000  0.0000  0.0000
  15.     0.0000  0.0000  0.0000  0.0000  0.0000
  16.     0.0000  0.0000  0.0000  0.0000  0.0000
  17.     0.0000  0.0000  0.0000  0.0000  0.0000
  18.     0.0000  0.0000  0.0000  0.0000  0.0000
  19.     0.0000  0.0000  0.0000  0.0000  0.0000
  20.     0.0000  0.0000  0.0000  0.0000  0.0000
  21.     0.0000  0.0000  0.0000  0.0000  0.0000
  22.     0.0000  0.0000  0.0000  0.0000  0.0000
  23.     0.0000  0.0000  0.0000  0.0000  0.0000
  24.     0.0000  0.0000  0.0000  0.0000  0.0000
  25.     0.0000  0.0000  0.0000  0.0000  0.0000
  26.     0.0000  0.0000  0.0000  0.0000  0.0000
  27.     0.0000  0.0000  0.0000  0.0000  0.0000
  28.     0.0000  0.0000  0.0000  0.0000  0.0000
  29.     0.0000  0.0000  0.0000  0.0000  0.0000
  30.     0.0000  0.0000  0.0000  0.0000  0.0000
  31.     0.0000  0.0000  0.0000  0.0000  0.0000
  32.     0.0000  0.0000  0.0000  0.0000  0.0000


 NATURAL POPULATIONS:  Natural atomic orbital occupancies

  NAO Atom No lang   Type(AO)    Occupancy      Energy
 -------------------------------------------------------
   1    O  1  s      Cor( 1s)     1.99999     -20.63179
   2    O  1  s      Val( 2s)     1.78394      -1.07390
   3    O  1  s      Ryd( 3s)     0.00116       1.84909
   4    O  1  px     Val( 2p)     1.71186      -0.44758
   5    O  1  px     Ryd( 3p)     0.00092       1.26309
   6    O  1  py     Val( 2p)     1.08087      -0.23000
   7    O  1  py     Ryd( 3p)     0.00077       1.25737
   8    O  1  pz     Val( 2p)     1.90356      -0.50562
   9    O  1  pz     Ryd( 3p)     0.00084       1.20216
  10    O  1  dxy    Ryd( 3d)     0.00083       2.20558
  11    O  1  dxz    Ryd( 3d)     0.00275       2.37169
  12    O  1  dyz    Ryd( 3d)     0.00076       2.21760
  13    O  1  dx2y2  Ryd( 3d)     0.00409       2.60688
  14    O  1  dz2    Ryd( 3d)     0.00197       2.21259

  15    O  2  s      Cor( 1s)     1.99999     -20.63179
  16    O  2  s      Val( 2s)     1.78394      -1.07390
  17    O  2  s      Ryd( 3s)     0.00116       1.84909
  18    O  2  px     Val( 2p)     1.71186      -0.44758
  19    O  2  px     Ryd( 3p)     0.00092       1.26309
  20    O  2  py     Val( 2p)     1.08087      -0.23000
  21    O  2  py     Ryd( 3p)     0.00077       1.25737
  22    O  2  pz     Val( 2p)     1.90356      -0.50562
  23    O  2  pz     Ryd( 3p)     0.00084       1.20216
  24    O  2  dxy    Ryd( 3d)     0.00083       2.20558
  25    O  2  dxz    Ryd( 3d)     0.00275       2.37169
  26    O  2  dyz    Ryd( 3d)     0.00076       2.21760
  27    O  2  dx2y2  Ryd( 3d)     0.00409       2.60688
  28    O  2  dz2    Ryd( 3d)     0.00197       2.21259

  29    H  3  s      Val( 1s)     0.50406       0.30467
  30    H  3  s      Ryd( 2s)     0.00163       0.73965

  31    H  4  s      Val( 1s)     0.50406       0.30467
  32    H  4  s      Ryd( 2s)     0.00163       0.73965


 Summary of Natural Population Analysis:

                                     Natural Population
             Natural    ---------------------------------------------
  Atom No    Charge        Core      Valence    Rydberg      Total
 --------------------------------------------------------------------
    O  1   -0.49431      1.99999     6.48023    0.01409     8.49431
    O  2   -0.49431      1.99999     6.48023    0.01409     8.49431
    H  3    0.49431      0.00000     0.50406    0.00163     0.50569
    H  4    0.49431      0.00000     0.50406    0.00163     0.50569
 ====================================================================
 * Total *  0.00000      3.99999    13.96858    0.03143    18.00000

                                 Natural Population
 ---------------------------------------------------------
   Core                       3.99999 ( 99.9997% of    4)
   Valence                   13.96858 ( 99.7756% of   14)
   Natural Minimal Basis     17.96857 ( 99.8254% of   18)
   Natural Rydberg Basis      0.03143 (  0.1746% of   18)
 ---------------------------------------------------------

    Atom No         Natural Electron Configuration
 ----------------------------------------------------------------------------
      O  1      [core]2s( 1.78)2p( 4.70)3d( 0.01)
      O  2      [core]2s( 1.78)2p( 4.70)3d( 0.01)
      H  3            1s( 0.50)
      H  4            1s( 0.50)


 PNAOs in the AO basis:

           AO          1       2       3       4       5       6       7       8
      ------------ ------- ------- ------- ------- ------- ------- ------- -------
   1.  O 1 (s)      0.9951 -0.2317 -0.1192  0.0000  0.0000  0.0000  0.0000  0.0000
   2.  O 1 (s)      0.0221  0.4871  1.4931  0.0000  0.0000  0.0000  0.0000  0.0000
   3.  O 1 (px)     0.0000  0.0000  0.0000  0.5609  1.0106  0.0000  0.0000  0.0000
   4.  O 1 (py)     0.0000  0.0000  0.0000  0.0000  0.0000  0.5609  1.0106  0.0000
   5.  O 1 (pz)     0.0000  0.0000  0.0000  0.0000  0.0000  0.0000  0.0000  0.5609
   6.  O 1 (s)     -0.0026  0.6010 -1.4277  0.0000  0.0000  0.0000  0.0000  0.0000
   7.  O 1 (px)     0.0000  0.0000  0.0000  0.5930 -0.9921  0.0000  0.0000  0.0000
   8.  O 1 (py)     0.0000  0.0000  0.0000  0.0000  0.0000  0.5930 -0.9921  0.0000
   9.  O 1 (pz)     0.0000  0.0000  0.0000  0.0000  0.0000  0.0000  0.0000  0.5930
  10.  O 1 (d5)     0.0000  0.0000  0.0000  0.0000  0.0000  0.0000  0.0000  0.0000
  11.  O 1 (d2)     0.0000  0.0000  0.0000  0.0000  0.0000  0.0000  0.0000  0.0000
  12.  O 1 (d3)     0.0000  0.0000  0.0000  0.0000  0.0000  0.0000  0.0000  0.0000
  13.  O 1 (d4)     0.0000  0.0000  0.0000  0.0000  0.0000  0.0000  0.0000  0.0000
  14.  O 1 (d1)     0.0000  0.0000  0.0000  0.0000  0.0000  0.0000  0.0000  0.0000
  15.  O 2 (s)      0.0000  0.0000  0.0000  0.0000  0.0000  0.0000  0.0000  0.0000
  16.  O 2 (s)      0.0000  0.0000  0.0000  0.0000  0.0000  0.0000  0.0000  0.0000
  17.  O 2 (px)     0.0000  0.0000  0.0000  0.0000  0.0000  0.0000  0.0000  0.0000
  18.  O 2 (py)     0.0000  0.0000  0.0000  0.0000  0.0000  0.0000  0.0000  0.0000
  19.  O 2 (pz)     0.0000  0.0000  0.0000  0.0000  0.0000  0.0000  0.0000  0.0000
  20.  O 2 (s)      0.0000  0.0000  0.0000  0.0000  0.0000  0.0000  0.0000  0.0000
  21.  O 2 (px)     0.0000  0.0000  0.0000  0.0000  0.0000  0.0000  0.0000  0.0000
  22.  O 2 (py)     0.0000  0.0000  0.0000  0.0000  0.0000  0.0000  0.0000  0.0000
  23.  O 2 (pz)     0.0000  0.0000  0.0000  0.0000  0.0000  0.0000  0.0000  0.0000
  24.  O 2 (d5)     0.0000  0.0000  0.0000  0.0000  0.0000  0.0000  0.0000  0.0000
  25.  O 2 (d2)     0.0000  0.0000  0.0000  0.0000  0.0000  0.0000  0.0000  0.0000
  26.  O 2 (d3)     0.0000  0.0000  0.0000  0.0000  0.0000  0.0000  0.0000  0.0000
  27.  O 2 (d4)     0.0000  0.0000  0.0000  0.0000  0.0000  0.0000  0.0000  0.0000
  28.  O 2 (d1)     0.0000  0.0000  0.0000  0.0000  0.0000  0.0000  0.0000  0.0000
  29.  H 3 (s)      0.0000  0.0000  0.0000  0.0000  0.0000  0.0000  0.0000  0.0000
  30.  H 3 (s)      0.0000  0.0000  0.0000  0.0000  0.0000  0.0000  0.0000  0.0000
  31.  H 4 (s)      0.0000  0.0000  0.0000  0.0000  0.0000  0.0000  0.0000  0.0000
  32.  H 4 (s)      0.0000  0.0000  0.0000  0.0000  0.0000  0.0000  0.0000  0.0000

           AO          9      10      11      12      13      14      15      16
[...]
      Eigenvector ( 3) has occupancy 1.99719
            0.0000 0.0000 1.0000 0.0000 0.0000 0.0000 0.0000 0.0000
            0.0000 0.0000 0.0000 0.0000 0.0000 0.0000
           NBO accepted:    6. Label:LP ( 2)   2
        3 eigenvector(s) stashed in permanent list

  1-center NBOs projected from the NHO density matrix
       6.007 electrons remain (>1.900); search continues

 Search of NHO DM block for the following atom(s):   1   2
      Select eigenvectors with eigenvalue > 1.900
       1.997 0.002 0.000 0.000 0.000 0.000 0.000 0.000 0.000 0.000 0.000 0.000
       0.000 0.000 0.000 0.000 0.000 0.000 0.000 0.000 0.000 0.000 0.000 0.000
       0.000 0.000 0.000 0.000
      Eigenvector ( 1) has occupancy 1.99651
            0.0000 0.0000 0.0000 0.7071 0.0000 0.0000 0.0000 0.0000
            0.0000 0.0000 0.0000 0.0000 0.0000 0.0000 0.0000 0.0000
            0.0000 0.7071 0.0000 0.0000 0.0000 0.0000 0.0000 0.0000
            0.0000 0.0000 0.0000 0.0000
      Occupancy is 1.997 after deleting minor hybrid components
            0.0000 0.0000 0.0000 0.7071 0.0000 0.0000 0.0000 0.0000
            0.0000 0.0000 0.0000 0.0000 0.0000 0.0000 0.0000 0.0000
            0.0000 0.7071 0.0000 0.0000 0.0000 0.0000 0.0000 0.0000
            0.0000 0.0000 0.0000 0.0000
           NBO accepted:    7. Label:BD ( 1)   1   2
      Occupancy is 0.002 for antibonding component
            0.0000 0.0000 0.0000-0.7071 0.0000 0.0000 0.0000 0.0000
            0.0000 0.0000 0.0000 0.0000 0.0000 0.0000 0.0000 0.0000
            0.0000 0.7071 0.0000 0.0000 0.0000 0.0000 0.0000 0.0000
            0.0000 0.0000 0.0000 0.0000
           NBO accepted:    8. Label:BD*( 1)   1   2
        2 eigenvector(s) stashed in permanent list

 Search of NHO DM block for the following atom(s):   1   3
      Select eigenvectors with eigenvalue > 1.900
       1.997 0.003 0.000 0.000 0.000 0.000 0.000 0.000 0.000 0.000 0.000 0.000
       0.000 0.000 0.000 0.000
      Eigenvector ( 1) has occupancy 1.99711
            0.0000 0.0000 0.0000 0.0000 0.8653 0.0000 0.0000 0.0000
            0.0000 0.0000 0.0000 0.0000 0.0000 0.0000 0.5012 0.0000
      Occupancy is 1.997 after deleting minor hybrid components
            0.0000 0.0000 0.0000 0.0000 0.8653 0.0000 0.0000 0.0000
            0.0000 0.0000 0.0000 0.0000 0.0000 0.0000 0.5012 0.0000
           NBO accepted:    9. Label:BD ( 1)   1   3
      Occupancy is 0.003 for antibonding component
            0.0000 0.0000 0.0000 0.0000-0.5012 0.0000 0.0000 0.0000
            0.0000 0.0000 0.0000 0.0000 0.0000 0.0000 0.8653 0.0000
           NBO accepted:   10. Label:BD*( 1)   1   3
        2 eigenvector(s) stashed in permanent list

 Search of NHO DM block for the following atom(s):   2   4
      Select eigenvectors with eigenvalue > 1.900
       1.997 0.003 0.000 0.000 0.000 0.000 0.000 0.000 0.000 0.000 0.000 0.000
       0.000 0.000 0.000 0.000
      Eigenvector ( 1) has occupancy 1.99711
            0.0000 0.0000 0.0000 0.0000 0.8653 0.0000 0.0000 0.0000
            0.0000 0.0000 0.0000 0.0000 0.0000 0.0000 0.5012 0.0000
      Occupancy is 1.997 after deleting minor hybrid components
            0.0000 0.0000 0.0000 0.0000 0.8653 0.0000 0.0000 0.0000
            0.0000 0.0000 0.0000 0.0000 0.0000 0.0000 0.5012 0.0000
           NBO accepted:   11. Label:BD ( 1)   2   4
      Occupancy is 0.003 for antibonding component
            0.0000 0.0000 0.0000 0.0000-0.5012 0.0000 0.0000 0.0000
            0.0000 0.0000 0.0000 0.0000 0.0000 0.0000 0.8653 0.0000
           NBO accepted:   12. Label:BD*( 1)   2   4
        2 eigenvector(s) stashed in permanent list

  2-center NBOs projected from the NHO density matrix
       0.008 electrons remain in the fully projected matrix

                            Occupancies       Lewis Structure    Low   High
         Max    Occ     -------------------  -----------------   occ   occ
  Cycle  Ctr   Thresh    Lewis   non-Lewis     CR  BD  nC  LP    (L)   (NL)
 ============================================================================
    3     2     1.90    17.98408   0.01592      2   3   0   4     0      0
 ----------------------------------------------------------------------------

 Structure accepted: No low occupancy Lewis orbitals

 -------------------------------------------------------
   Core                      3.99999 (100.000% of   4)
   Valence Lewis            13.98409 ( 99.886% of  14)
  ==================      =============================
   Total Lewis              17.98408 ( 99.912% of  18)
  -----------------------------------------------------
   Valence non-Lewis         0.00804 (  0.045% of  18)
   Rydberg non-Lewis         0.00788 (  0.044% of  18)
  ==================      =============================
   Total non-Lewis           0.01592 (  0.088% of  18)
 -------------------------------------------------------


     (Occupancy)   Bond orbital / Coefficients / Hybrids
 ------------------ Lewis ------------------------------------------------------
   1. (1.99999) CR ( 1) O  1            s(100.00%)
                                         1.0000  0.0000  0.0000  0.0000  0.0000
                                         0.0000  0.0000  0.0000  0.0000  0.0000
                                         0.0000  0.0000  0.0000  0.0000
   2. (1.99999) CR ( 1) O  2            s(100.00%)
                                         1.0000  0.0000  0.0000  0.0000  0.0000
                                         0.0000  0.0000  0.0000  0.0000  0.0000
                                         0.0000  0.0000  0.0000  0.0000
   3. (1.99949) LP ( 1) O  1            s( 57.18%)p 0.75( 42.79%)d 0.00(  0.03%)
                                         0.0000  0.7561 -0.0101 -0.5890  0.0047
                                         0.2721 -0.0008  0.0833 -0.0028  0.0132
                                        -0.0048  0.0023 -0.0051  0.0107
   4. (1.99719) LP ( 2) O  1            s(  8.68%)p10.51( 91.24%)d 0.01(  0.07%)
                                         0.0000  0.2946 -0.0005  0.3003 -0.0050
                                         0.1078 -0.0029 -0.9003  0.0066 -0.0019
                                        -0.0139  0.0113  0.0099 -0.0180
   5. (1.99949) LP ( 1) O  2            s( 57.18%)p 0.75( 42.79%)d 0.00(  0.03%)
                                         0.0000  0.7561 -0.0101  0.5890 -0.0047
                                        -0.2721  0.0008  0.0833 -0.0028  0.0132
                                         0.0048 -0.0023 -0.0051  0.0107
   6. (1.99719) LP ( 2) O  2            s(  8.68%)p10.51( 91.24%)d 0.01(  0.07%)
                                         0.0000  0.2946 -0.0005 -0.3003  0.0050
                                        -0.1078  0.0029 -0.9003  0.0066 -0.0019
                                         0.0139 -0.0113  0.0099 -0.0180
   7. (1.99651) BD ( 1) O  1- O  2
               ( 50.00%)   0.7071* O  1 s( 11.24%)p 7.86( 88.40%)d 0.03(  0.36%)
                                         0.0000  0.3346  0.0212 -0.0063 -0.0144
                                        -0.9399 -0.0138 -0.0052 -0.0132 -0.0136
                                         0.0041 -0.0129 -0.0471 -0.0320
               ( 50.00%)   0.7071* O  2 s( 11.24%)p 7.86( 88.40%)d 0.03(  0.36%)
                                         0.0000  0.3346  0.0212  0.0063  0.0144
                                         0.9399  0.0138 -0.0052 -0.0132 -0.0136
                                        -0.0041  0.0129 -0.0471 -0.0320
   8. (1.99711) BD ( 1) O  1- H  3
               ( 74.88%)   0.8653* O  1 s( 22.93%)p 3.35( 76.80%)d 0.01(  0.27%)
                                         0.0000  0.4788  0.0116  0.7486  0.0039
                                         0.1617  0.0177  0.4256  0.0028  0.0012
                                         0.0390  0.0019  0.0333 -0.0058
               ( 25.12%)   0.5012* H  3 s(100.00%)
                                         1.0000 -0.0034
   9. (1.99711) BD ( 1) O  2- H  4
               ( 74.88%)   0.8653* O  2 s( 22.93%)p 3.35( 76.80%)d 0.01(  0.27%)
                                         0.0000  0.4788  0.0116 -0.7486 -0.0039
                                        -0.1617 -0.0177  0.4256  0.0028  0.0012
                                        -0.0390 -0.0019  0.0333 -0.0058
               ( 25.12%)   0.5012* H  4 s(100.00%)
                                         1.0000 -0.0034
 ---------------- non-Lewis ----------------------------------------------------
  10. (0.00174) BD*( 1) O  1- O  2
               ( 50.00%)   0.7071* O  1 s( 11.24%)p 7.86( 88.40%)d 0.03(  0.36%)
                                         0.0000  0.3346  0.0212 -0.0063 -0.0144
                                        -0.9399 -0.0138 -0.0052 -0.0132 -0.0136
                                         0.0041 -0.0129 -0.0471 -0.0320
               ( 50.00%)  -0.7071* O  2 s( 11.24%)p 7.86( 88.40%)d 0.03(  0.36%)
                                         0.0000  0.3346  0.0212  0.0063  0.0144
                                         0.9399  0.0138 -0.0052 -0.0132 -0.0136
                                        -0.0041  0.0129 -0.0471 -0.0320
  11. (0.00315) BD*( 1) O  1- H  3
               ( 25.12%)   0.5012* O  1 s( 22.93%)p 3.35( 76.80%)d 0.01(  0.27%)
                                         0.0000 -0.4788 -0.0116 -0.7486 -0.0039
                                        -0.1617 -0.0177 -0.4256 -0.0028 -0.0012
                                        -0.0390 -0.0019 -0.0333  0.0058
               ( 74.88%)  -0.8653* H  3 s(100.00%)
                                        -1.0000  0.0034
  12. (0.00315) BD*( 1) O  2- H  4
               ( 25.12%)   0.5012* O  2 s( 22.93%)p 3.35( 76.80%)d 0.01(  0.27%)
                                         0.0000 -0.4788 -0.0116  0.7486  0.0039
                                         0.1617  0.0177 -0.4256 -0.0028 -0.0012
                                         0.0390  0.0019 -0.0333  0.0058
               ( 74.88%)  -0.8653* H  4 s(100.00%)
                                        -1.0000  0.0034
  13. (0.00133) RY ( 1) O  1            s( 20.67%)p 3.08( 63.72%)d 0.76( 15.61%)
                                         0.0000 -0.0022  0.4547 -0.0085 -0.6834
                                         0.0047 -0.2564  0.0052  0.3230  0.3313
                                        -0.0416 -0.0557  0.2037  0.0029
  14. (0.00085) RY ( 2) O  1            s(  4.16%)p11.39( 47.38%)d11.65( 48.46%)
                                         0.0000 -0.0080  0.2038 -0.0033 -0.0959
                                         0.0016  0.0136 -0.0019 -0.6815  0.3109
                                         0.1163  0.6099  0.0061 -0.0480
  15. (0.00013) RY ( 3) O  1            s( 19.89%)p 1.35( 26.87%)d 2.68( 53.25%)
                                         0.0000  0.0023  0.4459  0.0048  0.1007
                                         0.0363 -0.5051  0.0094  0.0440 -0.6165
                                        -0.0279  0.2499 -0.2987  0.0014
  16. (0.00000) RY ( 4) O  1            s( 11.87%)p 4.53( 53.80%)d 2.89( 34.33%)
  17. (0.00000) RY ( 5) O  1            s(  1.67%)p23.95( 40.01%)d34.91( 58.32%)
  18. (0.00000) RY ( 6) O  1            s( 20.89%)p 0.57( 11.87%)d 3.22( 67.24%)
  19. (0.00000) RY ( 7) O  1            s( 17.55%)p 2.17( 38.02%)d 2.53( 44.44%)
  20. (0.00000) RY ( 8) O  1            s(  2.48%)p 6.92( 17.18%)d32.35( 80.34%)
  21. (0.00000) RY ( 9) O  1            s(  0.78%)p 2.46(  1.93%)d99.99( 97.29%)
  22. (0.00133) RY ( 1) O  2            s( 20.67%)p 3.08( 63.72%)d 0.76( 15.61%)
                                         0.0000 -0.0022  0.4547  0.0085  0.6834
                                        -0.0047  0.2564  0.0052  0.3230  0.3313
                                         0.0416  0.0557  0.2037  0.0029
  23. (0.00085) RY ( 2) O  2            s(  4.16%)p11.39( 47.38%)d11.65( 48.46%)
                                         0.0000 -0.0080  0.2038  0.0033  0.0959
                                        -0.0016 -0.0136 -0.0019 -0.6815  0.3109
                                        -0.1163 -0.6099  0.0061 -0.0480
  24. (0.00013) RY ( 3) O  2            s( 19.89%)p 1.35( 26.87%)d 2.68( 53.25%)
                                         0.0000  0.0023  0.4459 -0.0048 -0.1007
                                        -0.0363  0.5051  0.0094  0.0440 -0.6165
                                         0.0279 -0.2499 -0.2987  0.0014
  25. (0.00000) RY ( 4) O  2            s( 11.87%)p 4.53( 53.80%)d 2.89( 34.33%)
  26. (0.00000) RY ( 5) O  2            s( 21.64%)p 1.49( 32.18%)d 2.13( 46.19%)
  27. (0.00000) RY ( 6) O  2            s( 20.89%)p 0.57( 11.87%)d 3.22( 67.24%)
  28. (0.00000) RY ( 7) O  2            s(  0.11%)p22.77(  2.41%)d99.99( 97.49%)
  29. (0.00000) RY ( 8) O  2            s(  0.70%)p19.09( 13.32%)d99.99( 85.98%)
  30. (0.00000) RY ( 9) O  2            s(  0.04%)p99.99( 49.23%)d99.99( 50.73%)
  31. (0.00163) RY ( 1) H  3            s(100.00%)
                                         0.0034  1.0000
  32. (0.00163) RY ( 1) H  4            s(100.00%)
                                         0.0034  1.0000


 NHO DIRECTIONALITY AND BOND BENDING (deviation from line of nuclear centers at
                                      the position of maximum hybrid amplitude)

         [Thresholds for printing:  angular deviation  >  1.0 degree]
                                    p- or d-character  > 25.0%
                                    orbital occupancy  >  0.10e

                        Line of Centers        Hybrid 1             Hybrid 2
                        ---------------  -------------------  ------------------
           NBO            Theta   Phi    Theta   Phi    Dev   Theta   Phi    Dev
 ===============================================================================
   3. LP ( 1) O  1          --     --     80.6  156.5   --      --     --    --
   4. LP ( 2) O  1          --     --    159.7   16.3   --      --     --    --
   5. LP ( 1) O  2          --     --     80.6  336.5   --      --     --    --
   6. LP ( 2) O  2          --     --    159.7  196.3   --      --     --    --
   8. BD ( 1) O  1- H  3   60.9    9.9    60.9   11.9   1.7     --     --    --
   9. BD ( 1) O  2- H  4   60.9  189.9    60.9  191.9   1.7     --     --    --


 SECOND ORDER PERTURBATION THEORY ANALYSIS OF FOCK MATRIX IN NBO BASIS

     Threshold for printing:   0.50 kcal/mol
                                                          E(2) E(NL)-E(L) F(L,NL)
      Donor (L) NBO              Acceptor (NL) NBO      kcal/mol   a.u.    a.u.
 ===============================================================================

 within unit  1
    4. LP ( 2) O  1            12. BD*( 1) O  2- H  4      1.03    1.30   0.033
    4. LP ( 2) O  1            23. RY ( 2) O  2            1.08    2.25   0.044
    6. LP ( 2) O  2            11. BD*( 1) O  1- H  3      1.03    1.30   0.033
    6. LP ( 2) O  2            14. RY ( 2) O  1            1.08    2.25   0.044
    7. BD ( 1) O  1- O  2      31. RY ( 1) H  3            0.66    1.60   0.029
    7. BD ( 1) O  1- O  2      32. RY ( 1) H  4            0.66    1.60   0.029
    8. BD ( 1) O  1- H  3      10. BD*( 1) O  1- O  2      0.62    1.27   0.025
    8. BD ( 1) O  1- H  3      12. BD*( 1) O  2- H  4      0.72    1.65   0.031
    8. BD ( 1) O  1- H  3      22. RY ( 1) O  2            1.69    2.47   0.058
    9. BD ( 1) O  2- H  4      10. BD*( 1) O  1- O  2      0.62    1.27   0.025
    9. BD ( 1) O  2- H  4      11. BD*( 1) O  1- H  3      0.72    1.65   0.031
    9. BD ( 1) O  2- H  4      13. RY ( 1) O  1            1.69    2.47   0.058


 NATURAL BOND ORBITALS (Summary):

                                                     Principal Delocalizations
           NBO                 Occupancy    Energy   (geminal,vicinal,remote)
 ===============================================================================
 Molecular unit  1  (H2O2)
 ------ Lewis --------------------------------------
    1. CR ( 1) O  1             1.99999   -20.63179
    2. CR ( 1) O  2             1.99999   -20.63179
    3. LP ( 1) O  1             1.99949    -0.87614
    4. LP ( 2) O  1             1.99719    -0.58599  23(v),12(v)
    5. LP ( 1) O  2             1.99949    -0.87614
    6. LP ( 2) O  2             1.99719    -0.58599  14(v),11(v)
    7. BD ( 1) O  1- O  2       1.99651    -0.85984  31(v),32(v)
    8. BD ( 1) O  1- H  3       1.99711    -0.93362  22(v),12(v),10(g)
    9. BD ( 1) O  2- H  4       1.99711    -0.93362  13(v),11(v),10(g)
 ------ non-Lewis ----------------------------------
   10. BD*( 1) O  1- O  2       0.00174     0.33306
   11. BD*( 1) O  1- H  3       0.00315     0.71741
   12. BD*( 1) O  2- H  4       0.00315     0.71741
   13. RY ( 1) O  1             0.00133     1.53321
   14. RY ( 2) O  1             0.00085     1.65996
   15. RY ( 3) O  1             0.00013     1.93387
   16. RY ( 4) O  1             0.00000     1.89167
   17. RY ( 5) O  1             0.00000     1.88253
   18. RY ( 6) O  1             0.00000     2.17735
   19. RY ( 7) O  1             0.00000     1.81547
   20. RY ( 8) O  1             0.00000     1.97537
   21. RY ( 9) O  1             0.00000     2.30864
   22. RY ( 1) O  2             0.00133     1.53321
   23. RY ( 2) O  2             0.00085     1.65996
   24. RY ( 3) O  2             0.00013     1.93387
   25. RY ( 4) O  2             0.00000     1.89167
   26. RY ( 5) O  2             0.00000     1.84958
   27. RY ( 6) O  2             0.00000     2.17735
   28. RY ( 7) O  2             0.00000     2.13679
   29. RY ( 8) O  2             0.00000     2.22655
   30. RY ( 9) O  2             0.00000     1.76908
   31. RY ( 1) H  3             0.00163     0.73694
   32. RY ( 1) H  4             0.00163     0.73694
          -------------------------------
                 Total Lewis   17.98408  ( 99.9116%)
           Valence non-Lewis    0.00804  (  0.0447%)
           Rydberg non-Lewis    0.00788  (  0.0438%)
          -------------------------------
               Total unit  1   18.00000  (100.0000%)
              Charge unit  1    0.00000

 $CHOOSE
   LONE 1 2 2 2 END
   BOND S 1 2 S 1 3 S 2 4 END
 $END

 NBO analysis completed in 0.36 CPU seconds (0 wall seconds)
 Maximum scratch memory used by NBO was 320749 words (2.45 MB)
 Maximum scratch memory used by G16NBO was 9846 words (0.08 MB)

 Opening RunExU unformatted file "/cluster/work/users/beto93/mol36/Gau-2835357.EUF"
 Read unf file /cluster/work/users/beto93/mol36/Gau-2835357.EUF:
 Label Gaussian matrix elements                                         IVers= 2 NLab= 2 Version=ES64L-G16RevC.01
 Title mol36-NBO                                                       
 NAtoms=     4 NBasis=    32 NBsUse=    32 ICharg=     0 Multip=     1 NE=    18 Len12L=8 Len4L=8 IOpCl= 0 ICGU=111
 GAUSSIAN SCALARS                    NI= 1 NR= 1 NTot=       1 LenBuf=    2 NRI=1 N=    1000
 NPA CHARGES                         NI= 0 NR= 1 NTot=       4 LenBuf= 4000 NRI=1 N=       4
 Recovered energy= -150.757756721     dipole=      0.000000000000     -0.000000000000      0.730986472829
 Unable to Open any file for archive entry.
 1\1\GINC-C1-33\SP\RHF\6-31G(d)\H2O2\BETO93\18-Nov-2024\0\\#RHF/6-31G* 
 int=nobasistransform Symmetry=None 5D 7F Pop=NBO7Read\\mol36-NBO\\0,1\
 O,0,0.,0.734058,-0.05275\O,0,0.,-0.734058,-0.05275\H,0,0.839547,0.8807
 52,0.422001\H,0,-0.839547,-0.880752,0.422001\\Version=ES64L-G16RevC.01
 \HF=-150.7577567\RMSD=6.181e-09\Dipole=0.,0.,0.7309865\Quadrupole=1.27
 86898,-0.4958551,-0.7828347,2.4176569,0.,0.\PG=Unknown\\@
 The archive entry for this job was punched.


 ART, GLORY, FREEDOM FAIL, BUT NATURE STILL IS FAIR.

                                           -- BYRON
 Job cpu time:       0 days  0 hours  0 minutes  7.7 seconds.
 Elapsed time:       0 days  0 hours  0 minutes  2.6 seconds.
 File lengths (MBytes):  RWF=     10 Int=      0 D2E=      0 Chk=      1 Scr=      1
 Normal termination of Gaussian 16 at Mon Nov 18 16:40:06 2024.
