 Entering Gaussian System, Link 0=g16
 Initial command:
 /cluster/software/Gaussian/g16_C.01/l1.exe "/cluster/work/users/beto93/CH3Li/Gau-341058.inp" -scrdir="/cluster/work/users/beto93/CH3Li/"
 Entering Link 1 = /cluster/software/Gaussian/g16_C.01/l1.exe PID=    341059.
  
 Copyright (c) 1988-2019, Gaussian, Inc.  All Rights Reserved.
  
 This is part of the Gaussian(R) 16 program.  It is based on
 the Gaussian(R) 09 system (copyright 2009, Gaussian, Inc.),
 the Gaussian(R) 03 system (copyright 2003, Gaussian, Inc.),
 the Gaussian(R) 98 system (copyright 1998, Gaussian, Inc.),
 the Gaussian(R) 94 system (copyright 1995, Gaussian, Inc.),
 the Gaussian 92(TM) system (copyright 1992, Gaussian, Inc.),
 the Gaussian 90(TM) system (copyright 1990, Gaussian, Inc.),
 the Gaussian 88(TM) system (copyright 1988, Gaussian, Inc.),
 the Gaussian 86(TM) system (copyright 1986, Carnegie Mellon
 University), and the Gaussian 82(TM) system (copyright 1983,
 Carnegie Mellon University). Gaussian is a federally registered
 trademark of Gaussian, Inc.
  
 This software contains proprietary and confidential information,
 including trade secrets, belonging to Gaussian, Inc.
  
 This software is provided under written license and may be
 used, copied, transmitted, or stored only in accord with that
 written license.
  
 The following legend is applicable only to US Government
 contracts under FAR:
  
                    RESTRICTED RIGHTS LEGEND
  
 Use, reproduction and disclosure by the US Government is
 subject to restrictions as set forth in subparagraphs (a)
 and (c) of the Commercial Computer Software - Restricted
 Rights clause in FAR 52.227-19.
  
 Gaussian, Inc.
 340 Quinnipiac St., Bldg. 40, Wallingford CT 06492
  
  
 ---------------------------------------------------------------
 Warning -- This program may not be used in any manner that
 competes with the business of Gaussian, Inc. or will provide
 assistance to any competitor of Gaussian, Inc.  The licensee
 of this program is prohibited from giving any competitor of
 Gaussian, Inc. access to this program.  By using this program,
 the user acknowledges that Gaussian, Inc. is engaged in the
 business of creating and licensing software in the field of
 computational chemistry and represents and warrants to the
 licensee that it is not a competitor of Gaussian, Inc. and that
 it will not use this program in any manner prohibited above.
 ---------------------------------------------------------------
  

 Cite this work as:
 Gaussian 16, Revision C.01,
 M. J. Frisch, G. W. Trucks, H. B. Schlegel, G. E. Scuseria, 
 M. A. Robb, J. R. Cheeseman, G. Scalmani, V. Barone, 
 G. A. Petersson, H. Nakatsuji, X. Li, M. Caricato, A. V. Marenich, 
 J. Bloino, B. G. Janesko, R. Gomperts, B. Mennucci, H. P. Hratchian, 
 J. V. Ortiz, A. F. Izmaylov, J. L. Sonnenberg, D. Williams-Young, 
 F. Ding, F. Lipparini, F. Egidi, J. Goings, B. Peng, A. Petrone, 
 T. Henderson, D. Ranasinghe, V. G. Zakrzewski, J. Gao, N. Rega, 
 G. Zheng, W. Liang, M. Hada, M. Ehara, K. Toyota, R. Fukuda, 
 J. Hasegawa, M. Ishida, T. Nakajima, Y. Honda, O. Kitao, H. Nakai, 
 T. Vreven, K. Throssell, J. A. Montgomery, Jr., J. E. Peralta, 
 F. Ogliaro, M. J. Bearpark, J. J. Heyd, E. N. Brothers, K. N. Kudin, 
 V. N. Staroverov, T. A. Keith, R. Kobayashi, J. Normand, 
 K. Raghavachari, A. P. Rendell, J. C. Burant, S. S. Iyengar, 
 J. Tomasi, M. Cossi, J. M. Millam, M. Klene, C. Adamo, R. Cammi, 
 J. W. Ochterski, R. L. Martin, K. Morokuma, O. Farkas, 
 J. B. Foresman, and D. J. Fox, Gaussian, Inc., Wallingford CT, 2019.
 
 ******************************************
 Gaussian 16:  ES64L-G16RevC.01  3-Jul-2019
                24-Jul-2024 
 ******************************************
 %LindaWorkers=c1-5-ib
 %NProcShared=4
 Will use up to    4 processors via shared memory.
 %mem=25GB
 %chk=a.chk
 SetLPE:    new flags="-opt 'Tsnet.Node.lindarsharg: ssh'  -nodelist 'c1-5-ib.saga' -env GAUSS_MDEF=3355443200 -env GAUSS_EXEDIR="/cluster/software/Gaussian/g16_C.01/bsd:/cluster/software/Gaussian/g16_C.01""
 Will use up to    1 processors via Linda.
 -----------------------
 #RHF/4-31G Pop=NBO7Read
 -----------------------
 1/38=1,163=2,172=1/1;
 2/12=2,17=6,18=5,40=1/2;
 3/5=1,11=1,25=1,30=1,116=1/1,2,3;
 4//1;
 5/5=2,38=5/2;
 6/7=2,8=2,9=2,10=2,28=1,40=2,113=1,114=1,124=2103/1,12;
 99/5=1,9=1/99;
 -----
 NBO-a
 -----
 Symbolic Z-matrix:
 Charge =  0 Multiplicity = 1
 C                     0.       0.         0. 
 Li                   -0.94679   1.63988  -0.66948 
 H                     0.02951  -0.05111   1.0811 
 H                     1.0291   -0.05111  -0.33255 
 H                    -0.47029  -0.91678  -0.33255 
 
                          Input orientation:                          
 ---------------------------------------------------------------------
 Center     Atomic      Atomic             Coordinates (Angstroms)
 Number     Number       Type             X           Y           Z
 ---------------------------------------------------------------------
      1          6           0        0.000002   -0.000003    0.000002
      2          3           0       -0.946785    1.639879   -0.669478
      3          1           0        0.029505   -0.051105    1.081096
      4          1           0        1.029102   -0.051105   -0.332545
      5          1           0       -0.470291   -0.916780   -0.332547
 ---------------------------------------------------------------------
                    Distance matrix (angstroms):
                    1          2          3          4          5
     1  C    0.000000
     2  Li   2.008438   0.000000
     3  H    1.082703   2.622418   0.000000
     4  H    1.082703   2.622419   1.731351   0.000000
     5  H    1.082702   2.622418   1.731351   1.731350   0.000000
 This structure is nearly, but not quite of a higher symmetry.
 Consider Symm=Loose if the higher symmetry is desired.
 Stoichiometry    CH3Li
 Framework group  C1[X(CH3Li)]
 Deg. of freedom     9
 Full point group                 C1      NOp   1
 Largest Abelian subgroup         C1      NOp   1
 Largest concise Abelian subgroup C1      NOp   1
                         Standard orientation:                         
 ---------------------------------------------------------------------
 Center     Atomic      Atomic             Coordinates (Angstroms)
 Number     Number       Type             X           Y           Z
 ---------------------------------------------------------------------
      1          6           0        0.395918    0.003064    0.041605
      2          3           0       -1.601462   -0.012393   -0.168288
      3          1           0        0.798015    1.005111    0.122013
      4          1           0        0.905585   -0.460297   -0.793729
      5          1           0        0.725276   -0.526019    0.926952
 ---------------------------------------------------------------------
 Rotational constants (GHZ):         167.2869550          22.1054260          22.1054241
 Standard basis: 4-31G (6D, 7F)
 There are    24 symmetry adapted cartesian basis functions of A   symmetry.
 There are    24 symmetry adapted basis functions of A   symmetry.
    24 basis functions,    49 primitive gaussians,    24 cartesian basis functions
     6 alpha electrons        6 beta electrons
       nuclear repulsion energy        16.2732303570 Hartrees.
 NAtoms=    5 NActive=    5 NUniq=    5 SFac= 1.00D+00 NAtFMM=   60 NAOKFM=F Big=F
 Integral buffers will be    131072 words long.
 Raffenetti 1 integral format.
 Two-electron integral symmetry is turned on.
 One-electron integrals computed using PRISM.
 NBasis=    24 RedAO= T EigKep=  1.87D-02  NBF=    24
 NBsUse=    24 1.00D-06 EigRej= -1.00D+00 NBFU=    24
 ExpMin= 4.04D-02 ExpMax= 4.87D+02 ExpMxC= 4.87D+02 IAcc=3 IRadAn=         5 AccDes= 0.00D+00
 Harris functional with IExCor=  205 and IRadAn=       5 diagonalized for initial guess.
 HarFok:  IExCor=  205 AccDes= 0.00D+00 IRadAn=         5 IDoV= 1 UseB2=F ITyADJ=14
 ICtDFT=  3500011 ScaDFX=  1.000000  1.000000  1.000000  1.000000
 FoFCou: FMM=F IPFlag=           0 FMFlag=      100000 FMFlg1=           0
         NFxFlg=           0 DoJE=T BraDBF=F KetDBF=T FulRan=T
         wScrn=  0.000000 ICntrl=       500 IOpCl=  0 I1Cent=   200000004 NGrid=           0
         NMat0=    1 NMatS0=      1 NMatT0=    0 NMatD0=    1 NMtDS0=    0 NMtDT0=    0
 Petite list used in FoFCou.
 Keep R1 ints in memory in canonical form, NReq=853733.
 Requested convergence on RMS density matrix=1.00D-08 within 128 cycles.
 Requested convergence on MAX density matrix=1.00D-06.
 Requested convergence on             energy=1.00D-06.
 No special actions if energy rises.
 SCF Done:  E(RHF) =  -46.9596032863     A.U. after   11 cycles
            NFock= 11  Conv=0.63D-08     -V/T= 1.9978

 **********************************************************************

            Population analysis using the SCF Density.

 **********************************************************************

 Orbital symmetries:
       Occupied  (A) (A) (A) (A) (A) (A)
       Virtual   (A) (A) (A) (A) (A) (A) (A) (A) (A) (A) (A) (A)
                 (A) (A) (A) (A) (A) (A)
 The electronic state is 1-A.
 Alpha  occ. eigenvalues --  -11.08780  -2.41968  -0.82839  -0.45214  -0.45214
 Alpha  occ. eigenvalues --   -0.27608
 Alpha virt. eigenvalues --    0.01857   0.07691   0.07691   0.13248   0.25496
 Alpha virt. eigenvalues --    0.25496   0.26129   0.40444   0.41366   0.41366
 Alpha virt. eigenvalues --    0.52246   0.95200   0.95200   1.12996   1.32120
 Alpha virt. eigenvalues --    1.32120   1.37869   1.67680
          Condensed to atoms (all electrons):
               1          2          3          4          5
     1  C    5.319407   0.328196   0.368944   0.368944   0.368944
     2  Li   0.328196   2.284131  -0.024054  -0.024054  -0.024054
     3  H    0.368944  -0.024054   0.639079  -0.041084  -0.041084
     4  H    0.368944  -0.024054  -0.041084   0.639079  -0.041084
     5  H    0.368944  -0.024054  -0.041084  -0.041084   0.639079
 Mulliken charges:
               1
     1  C   -0.754435
     2  Li   0.459836
     3  H    0.098200
     4  H    0.098200
     5  H    0.098200
 Sum of Mulliken charges =   0.00000
 Mulliken charges with hydrogens summed into heavy atoms:
               1
     1  C   -0.459836
     2  Li   0.459836
 Electronic spatial extent (au):  <R**2>=             66.5588
 Charge=              0.0000 electrons
 Dipole moment (field-independent basis, Debye):
    X=             -5.4991    Y=             -0.0426    Z=             -0.5779  Tot=              5.5295
 Quadrupole moment (field-independent basis, Debye-Ang):
   XX=             -0.7343   YY=            -11.5129   ZZ=            -11.3945
   XY=              0.0834   XZ=              1.1327   YZ=              0.0088
 Traceless Quadrupole moment (field-independent basis, Debye-Ang):
   XX=              7.1463   YY=             -3.6323   ZZ=             -3.5140
   XY=              0.0834   XZ=              1.1327   YZ=              0.0088
 Octapole moment (field-independent basis, Debye-Ang**2):
  XXX=            -26.4419  YYY=              0.1181  ZZZ=             -0.4910  XYY=             -1.4273
  XXY=             -0.1842  XXZ=             -2.4800  XZZ=             -1.6649  YZZ=             -0.1624
  YYZ=             -0.1326  XYZ=             -0.0024
 Hexadecapole moment (field-independent basis, Debye-Ang**3):
 XXXX=            -16.9286 YYYY=            -23.1068 ZZZZ=            -23.4051 XXXY=              0.1408
 XXXZ=              2.0092 YYYX=              0.1283 YYYZ=              0.0141 ZZZX=             -1.3479
 ZZZY=             -0.0817 XXYY=            -12.0298 XXZZ=            -11.7071 YYZZ=             -7.7501
 XXYZ=              0.0695 YYXZ=             -0.4279 ZZXY=             -0.2518
 N-N= 1.627323035702D+01 E-N=-1.424973438184D+02  KE= 4.706413129205D+01
 Running external command "gaunbo7 R"
         input file       "/cluster/work/users/beto93/CH3Li/Gau-341059.EIn"
         output file      "/cluster/work/users/beto93/CH3Li/Gau-341059.EOu"
         message file     "/cluster/work/users/beto93/CH3Li/Gau-341059.EMs"
         fchk file        "/cluster/work/users/beto93/CH3Li/Gau-341059.EFC"
         mat. el file     "/cluster/work/users/beto93/CH3Li/Gau-341059.EUF"

 Writing WrtUnf unformatted file "/cluster/work/users/beto93/CH3Li/Gau-341059.EUF"
 Gaussian matrix elements                                         Version   2 NLab=11 Len12L=8 Len4L=8
 Write SHELL TO ATOM MAP                   from file      0 offset           0 length                  12 to matrix element file.
 Write SHELL TYPES                         from file      0 offset           0 length                  12 to matrix element file.
 Write NUMBER OF PRIMITIVES PER SHELL      from file      0 offset           0 length                  12 to matrix element file.
 Write PRIMITIVE EXPONENTS                 from file      0 offset           0 length                  28 to matrix element file.
 Write CONTRACTION COEFFICIENTS            from file      0 offset           0 length                  28 to matrix element file.
 Write P(S=P) CONTRACTION COEFFICIENTS     from file      0 offset           0 length                  28 to matrix element file.
 Write COORDINATES OF EACH SHELL           from file      0 offset           0 length                  36 to matrix element file.
 Write BONDS PER ATOM                      from file      0 offset           0 length                   5 to matrix element file.
 Write BONDED ATOMS                        from file      0 offset           0 length                   8 to matrix element file.
 Write BOND TYPES                          from file      0 offset           0 length                   8 to matrix element file.
 Write ONIOM CHARGE/MULT                   from file      0 offset           0 length                  32 to matrix element file.
 Write ONIOM ATOM LAYERS                   from file      0 offset           0 length                   5 to matrix element file.
 Write ONIOM ATOM MODIFIERS                from file      0 offset           0 length                   5 to matrix element file.
 Write ONIOM ATOM TYPES                    from file      0 offset           0 length                   5 to matrix element file.
 Write ONIOM LINK ATOMS                    from file      0 offset           0 length                   5 to matrix element file.
 Write ONIOM LINK CHARGES                  from file      0 offset           0 length                   5 to matrix element file.
 Write ONIOM LINK DISTANCES                from file      0 offset           0 length                  20 to matrix element file.
 Write SYMINF INTS                         from file      0 offset           0 length                  26 to matrix element file.
 Write ROTTR TO SO                         from file      0 offset           0 length                  12 to matrix element file.
 Write GAUSSIAN SCALARS                    from file    501 offset           0 to matrix element file.
 Write OPTIMIZATION FLAGS                  from file      0 offset           0 length                   5 to matrix element file.
 Write INTEGER ISO                         from file      0 offset           0 length                   5 to matrix element file.
 Write INTEGER SPIN                        from file      0 offset           0 length                   5 to matrix element file.
 Write REAL ZEFFECTIVE                     from file      0 offset           0 length                   5 to matrix element file.
 Write REAL QUADRUPOLEMOMENT               from file      0 offset           0 length                   5 to matrix element file.
 Write REAL GFACTOR                        from file      0 offset           0 length                   5 to matrix element file.
 Write REAL ZNUCLEAR                       from file      0 offset           0 length                   5 to matrix element file.
 Write MULLIKEN CHARGES                    from file      0 offset           0 length                   5 to matrix element file.
 Write NUCLEAR GRADIENT                    from file  10584 offset           0 length                  15 to matrix element file.
 Array NUCLEAR FORCE CONSTANTS              on  file  10585 does not exist.
 Write ELECTRIC DIPOLE MOMENT              from file      0 offset           0 length                   3 to matrix element file.
 Write NON-ADIABATIC COUPLING              from file  10810 offset           0 length                  15 to matrix element file.
 Write FINITE EM FIELD                     from file  10521 offset           0 length                  35 to matrix element file.
 Write OVERLAP                             from file  10514 offset           0 length                 300 to matrix element file.
 Write CORE HAMILTONIAN ALPHA              from file  10515 offset           0 length                 300 to matrix element file.
 Write CORE HAMILTONIAN BETA               from file  10515 offset         300 length                 300 to matrix element file.
 Write KINETIC ENERGY                      from file  10516 offset           0 length                 300 to matrix element file.
 Write ORTHOGONAL BASIS                    from file  10685 offset           0 length                 576 to matrix element file.
 Write DIPOLE INTEGRALS                    from file  10518 offset           0 length                 900 to matrix element file.
 Array DIP VEL INTEGRALS                    on  file  10572 does not exist.
 Array R X DEL INTEGRALS                    on  file  10572 does not exist.
 Write ALPHA ORBITAL ENERGIES              from file      0 offset           0 length                  24 to matrix element file.
 Write ALPHA MO COEFFICIENTS               from file  10524 offset           0 length                 576 to matrix element file.
 Write ALPHA DENSITY MATRIX                from file      0 offset           0 length                 300 to matrix element file.
 Write ALPHA FOCK MATRIX                   from file  10536 offset           0 length                 300 to matrix element file.
 Write ENERGY-WEIGHTED DENSITY             from file  10571 offset           0 length                 300 to matrix element file.
 Write ALPHA SCF DENSITY MATRIX            from file      0 offset           0 length                 300 to matrix element file.
 No 2e integrals to process.
 Perform NBO analysis...executing G16NBO...

 *********************************** NBO 7.0 ***********************************
             N A T U R A L   A T O M I C   O R B I T A L   A N D
          N A T U R A L   B O N D   O R B I T A L   A N A L Y S I S
 **************************** Espen Tangen (S101595) ***************************
  (c) Copyright 1996-2021 Board of Regents of the University of Wisconsin System
      on behalf of the Theoretical Chemistry Institute.  All rights reserved.

          Cite this program [NBO 7.0.10 (8-Feb-2021)] as:

          NBO 7.0.  E. D. Glendening, J. K. Badenhoop, A. E. Reed,
          J. E. Carpenter, J. A. Bohmann, C. M. Morales, P. Karafiloglou,
          C. R. Landis, and F. Weinhold, Theoretical Chemistry Institute,
          University of Wisconsin, Madison, WI (2018)

       /NPA    / : Natural Population Analysis
       /AOPNAO / : Print the AO to PNAO transformation
       /AONAO  / : Print the AO to NAO transformation
       /AONO   / : Print the NOs in the AO basis
       /AOMO   / : Print the MOs in the AO basis
       /BOAO   / : Print the AO bond-order matrix
       /DMAO   / : Print the AO density matrix
       /DMPNAO / : Print the PNAO density matrix
       /DMNAO  / : Print the NAO density matrix
       /DMMO   / : Print the MO density matrix
       /SAO    / : Print the AO overlap matrix
       /SPNAO  / : Print the PNAO overlap matrix
       /DETAIL / : Write details of NBO search
       /ARCHIVE/ : Write the archive file to lfn47
       /AOINFO / : Write AO information to lfn31
       /FILE   / : Set to inpGenNbo

 Filename set to inpGenNbo

 Job title: NBO-a


 MOs in the AO basis:

           AO          1       2       3       4       5       6       7       8
      ------------ ------- ------- ------- ------- ------- ------- ------- -------
   1.  C 1 (s)      0.9936 -0.0014 -0.1908  0.0000  0.0000  0.0495  0.0202  0.0000
   2.  C 1 (s)      0.0589  0.0000  0.2937  0.0000  0.0000 -0.0638 -0.0158  0.0000
   3.  C 1 (px)     0.0013 -0.0024  0.0838  0.0246 -0.0323  0.4149  0.0770 -0.0028
   4.  C 1 (py)     0.0000  0.0000  0.0006  0.2902  0.2569  0.0032  0.0006 -0.0364
   5.  C 1 (pz)     0.0001 -0.0003  0.0088 -0.2557  0.2884  0.0436  0.0081  0.0294
   6.  C 1 (s)     -0.0451  0.0077  0.4281  0.0000  0.0000 -0.2110 -0.1521  0.0000
   7.  C 1 (px)    -0.0023 -0.0033  0.0323  0.0144 -0.0189  0.3990  0.0815 -0.0031
   8.  C 1 (py)     0.0000  0.0000  0.0002  0.1694  0.1500  0.0031  0.0006 -0.0403
   9.  C 1 (pz)    -0.0002 -0.0003  0.0034 -0.1493  0.1684  0.0419  0.0086  0.0326
  10. Li 2 (s)      0.0013  0.9979 -0.0312  0.0000  0.0000  0.1345 -0.1406  0.0000
  11. Li 2 (s)      0.0075  0.0276  0.0155  0.0000  0.0000 -0.2028 -0.1325  0.0000
  12. Li 2 (px)     0.0068 -0.0144  0.0227  0.0014 -0.0018 -0.2367 -0.1304 -0.0036
  13. Li 2 (py)     0.0001 -0.0001  0.0002  0.0163  0.0144 -0.0018 -0.0010 -0.0472
  14. Li 2 (pz)     0.0007 -0.0015  0.0024 -0.0143  0.0162 -0.0249 -0.0137  0.0381
  15. Li 2 (s)     -0.0045 -0.0143  0.0145  0.0000  0.0000 -0.1237  0.8472  0.0000
  16. Li 2 (px)    -0.0045  0.0090  0.0014  0.0011 -0.0014  0.0759 -0.5842  0.0655
  17. Li 2 (py)     0.0000  0.0001  0.0000  0.0130  0.0115  0.0006 -0.0045  0.8490
  18. Li 2 (pz)    -0.0005  0.0009  0.0001 -0.0115  0.0129  0.0080 -0.0614 -0.6859
  19.  H 3 (s)     -0.0009 -0.0001  0.1529  0.2063  0.1971  0.0649  0.0031 -0.0264
  20.  H 3 (s)      0.0097 -0.0009  0.0493  0.2012  0.1922  0.0912  0.1041 -0.1439
  21.  H 4 (s)     -0.0009 -0.0001  0.1529  0.0675 -0.2773  0.0649  0.0031 -0.0068
  22.  H 4 (s)      0.0097 -0.0009  0.0493  0.0659 -0.2704  0.0912  0.1041 -0.0373
  23.  H 5 (s)     -0.0009 -0.0001  0.1529 -0.2739  0.0801  0.0649  0.0031  0.0333
  24.  H 5 (s)      0.0097 -0.0009  0.0493 -0.2671  0.0781  0.0912  0.1041  0.1812

           AO          9      10      11      12      13      14      15      16
      ------------ ------- ------- ------- ------- ------- ------- ------- -------
   1.  C 1 (s)      0.0000  0.0626  0.0000  0.0000  0.0375 -0.1025  0.0000  0.0000
   2.  C 1 (s)      0.0000 -0.0781  0.0000  0.0000  0.0077  0.0030  0.0000  0.0000
   3.  C 1 (px)     0.0040  0.0342 -0.0025 -0.0034 -0.0266  0.2429 -0.0196  0.0240
   4.  C 1 (py)    -0.0295  0.0003  0.0340 -0.0212 -0.0002  0.0019  0.2421  0.1701
   5.  C 1 (pz)    -0.0362  0.0036  0.0210  0.0339 -0.0028  0.0255  0.1689 -0.2410
   6.  C 1 (s)      0.0000 -0.2801  0.0000  0.0000 -0.5488  2.0058  0.0000  0.0000
   7.  C 1 (px)     0.0045  0.1690 -0.0090 -0.0124  0.1115  1.1066 -0.0943  0.1154
   8.  C 1 (py)    -0.0327  0.0013  0.1243 -0.0774  0.0009  0.0086  1.1637  0.8172
   9.  C 1 (pz)    -0.0401  0.0178  0.0768  0.1236  0.0117  0.1163  0.8118 -1.1580
  10. Li 2 (s)      0.0000 -0.1235  0.0000  0.0000 -0.0607 -0.0331  0.0000  0.0000
  11. Li 2 (s)      0.0000 -0.2007  0.0000  0.0000 -1.6931  0.1295  0.0000  0.0000
  12. Li 2 (px)     0.0052 -0.5167 -0.1015 -0.1392  1.2328  0.6076  0.0413 -0.0506
  13. Li 2 (py)    -0.0383 -0.0040  1.3955 -0.8689  0.0095  0.0047 -0.5101 -0.3583
  14. Li 2 (pz)    -0.0469 -0.0543  0.8630  1.3886  0.1295  0.0638 -0.3559  0.5076
  15. Li 2 (s)      0.0000  1.0063  0.0000  0.0000  1.7910  0.7037  0.0000  0.0000
  16. Li 2 (px)    -0.0940  1.4839  0.0792  0.1087 -0.7280  0.3345 -0.0337  0.0412
  17. Li 2 (py)     0.6889  0.0115 -1.0894  0.6783 -0.0056  0.0026  0.4154  0.2917
  18. Li 2 (pz)     0.8438  0.1559 -0.6737 -1.0840 -0.0765  0.0351  0.2898 -0.4134
  19.  H 3 (s)     -0.0232  0.0115 -0.0370  0.0211  0.0007 -0.0040 -0.0305 -0.0197
  20.  H 3 (s)     -0.1262 -0.2371 -0.2222  0.1269  0.0713 -1.3838 -1.5434 -0.9986
  21.  H 4 (s)      0.0345  0.0115  0.0368  0.0215  0.0007 -0.0040  0.0323 -0.0165
  22.  H 4 (s)      0.1877 -0.2371  0.2210  0.1290  0.0713 -1.3838  1.6366 -0.8373
  23.  H 5 (s)     -0.0113  0.0115  0.0002 -0.0426  0.0007 -0.0040 -0.0018  0.0363
  24.  H 5 (s)     -0.0616 -0.2371  0.0012 -0.2559  0.0713 -1.3838 -0.0931  1.8360

           AO         17      18      19      20      21      22      23      24
      ------------ ------- ------- ------- ------- ------- ------- ------- -------
   1.  C 1 (s)      0.1195  0.0000  0.0000 -0.0563  0.0000  0.0000  0.0826 -0.0900
   2.  C 1 (s)     -0.1219  0.0000  0.0000 -0.2120  0.0000  0.0000 -0.3338 -2.3654
   3.  C 1 (px)     0.1807  0.0711  0.0141 -0.9974  0.0674 -0.0784 -0.6199  0.1679
   4.  C 1 (py)     0.0014  0.0843 -0.6861 -0.0077 -0.7928 -0.5871 -0.0048  0.0013
   5.  C 1 (pz)     0.0190 -0.6824 -0.0833 -0.1048 -0.5833  0.7889 -0.0651  0.0176
   6.  C 1 (s)     -1.6978  0.0000  0.0000  0.9686  0.0000  0.0000  0.3517  4.8731
   7.  C 1 (px)     0.4165 -0.1516 -0.0300  1.8445 -0.0767  0.0891  0.5754  0.0216
   8.  C 1 (py)     0.0032 -0.1799  1.4637  0.0143  0.9013  0.6675  0.0044  0.0002
   9.  C 1 (pz)     0.0438  1.4559  0.1778  0.1938  0.6632 -0.8969  0.0605  0.0023
  10. Li 2 (s)      0.1515  0.0000  0.0000  0.1634  0.0000  0.0000  0.0205 -0.1693
  11. Li 2 (s)      2.2548  0.0000  0.0000  0.7406  0.0000  0.0000  0.1365 -1.2068
  12. Li 2 (px)     1.7350  0.0321  0.0064  0.7053  0.0103 -0.0120  0.2347 -1.0643
  13. Li 2 (py)     0.0134  0.0381 -0.3103  0.0055 -0.1211 -0.0897  0.0018 -0.0082
  14. Li 2 (pz)     0.1823 -0.3086 -0.0377  0.0741 -0.0891  0.1206  0.0247 -0.1118
  15. Li 2 (s)     -1.7342  0.0000  0.0000 -0.1790  0.0000  0.0000  0.2803  0.7060
  16. Li 2 (px)    -1.2786  0.0015  0.0003 -0.2453 -0.0103  0.0119  0.1902  0.6522
  17. Li 2 (py)    -0.0099  0.0018 -0.0149 -0.0019  0.1207  0.0894  0.0015  0.0050
  18. Li 2 (pz)    -0.1344 -0.0148 -0.0018 -0.0258  0.0888 -0.1201  0.0200  0.0685
  19.  H 3 (s)      0.0007  0.0580 -0.6860 -0.3375  0.7136  0.4877  0.7552 -0.1478
  20.  H 3 (s)      0.6201  0.0032 -0.0380 -0.3989 -1.1760 -0.8037 -0.7058 -1.0391
  21.  H 4 (s)      0.0007  0.5651  0.3932 -0.3375 -0.7791  0.3742  0.7552 -0.1478
  22.  H 4 (s)      0.6201  0.0313  0.0218 -0.3989  1.2840 -0.6166 -0.7058 -1.0391
  23.  H 5 (s)      0.0007 -0.6231  0.2928 -0.3375  0.0655 -0.8618  0.7552 -0.1478
  24.  H 5 (s)      0.6201 -0.0345  0.0162 -0.3989 -0.1080  1.4203 -0.7058 -1.0391


 NOs in the AO basis:

           AO          1       2       3       4       5       6       7       8
      ------------ ------- ------- ------- ------- ------- ------- ------- -------
   1.  C 1 (s)      0.9739  0.0055  0.2111  0.0975 -0.1442  0.0531  0.0184  0.0181
   2.  C 1 (s)      0.0761  0.0540 -0.1424 -0.0836  0.2308 -0.0677 -0.1040 -0.2047
   3.  C 1 (px)     0.0449  0.0378 -0.2995 -0.1423 -0.2571  0.0364 -0.0593 -0.0459
   4.  C 1 (py)    -0.0061  0.0094  0.1639 -0.3361  0.0088  0.1012  0.1470  0.2344
   5.  C 1 (pz)     0.0032 -0.0142 -0.0773  0.0733  0.0867  0.3626  0.1331  0.0661
   6.  C 1 (s)     -0.0289  0.0611 -0.1531 -0.0981  0.4200 -0.1256 -0.1346 -0.0266
   7.  C 1 (px)     0.0357  0.0276 -0.2587 -0.1175 -0.2732  0.0583  0.1028 -0.1481
   8.  C 1 (py)    -0.0035  0.0055  0.0950 -0.1965  0.0042  0.0594 -0.1001 -0.3975
   9.  C 1 (pz)     0.0029 -0.0077 -0.0539  0.0392  0.0377  0.2156  0.0353  0.3125
  10. Li 2 (s)      0.0675 -0.9773 -0.1882 -0.1310 -0.0418 -0.0278  0.0445 -0.0338
  11. Li 2 (s)     -0.0078 -0.0326  0.1096  0.0441  0.1574 -0.0484  0.3132  0.1778
  12. Li 2 (px)    -0.0133  0.0083  0.1309  0.0544  0.1824 -0.0566  0.0863 -0.4682
  13. Li 2 (py)    -0.0005  0.0006  0.0103 -0.0183  0.0020  0.0052  0.2070  0.2033
  14. Li 2 (pz)    -0.0015 -0.0001  0.0112  0.0107  0.0255  0.0141 -0.6205 -0.7962
  15. Li 2 (s)     -0.0151  0.0112  0.0665  0.0281  0.0967 -0.0286 -0.3341 -0.1054
  16. Li 2 (px)     0.0029 -0.0053 -0.0481 -0.0215 -0.0535  0.0139  0.4850  0.3892
  17. Li 2 (py)    -0.0003  0.0004  0.0071 -0.0152  0.0001  0.0046 -0.8265  0.2015
  18. Li 2 (pz)     0.0002 -0.0014 -0.0071  0.0017 -0.0005  0.0175  0.6137 -0.0990
  19.  H 3 (s)      0.0122  0.0375 -0.0159 -0.3141  0.0603  0.0698  0.1382 -0.1174
  20.  H 3 (s)      0.0169  0.0204  0.0328 -0.2781 -0.0237  0.0927 -0.0767  0.3144
  21.  H 4 (s)      0.0202  0.0399 -0.1644 -0.0121 -0.0280 -0.2812 -0.0661 -0.0751
  22.  H 4 (s)      0.0247  0.0228 -0.1120  0.0164 -0.1098 -0.2496  0.0541  0.2688
  23.  H 5 (s)      0.0186  0.0164 -0.2305  0.1159  0.1156  0.1687 -0.3225 -0.1003
  24.  H 5 (s)      0.0231 -0.0001 -0.1764  0.1413  0.0303  0.1891  0.1140  0.0202

           AO          9      10      11      12      13      14      15      16
      ------------ ------- ------- ------- ------- ------- ------- ------- -------
   1.  C 1 (s)     -0.0030  0.0054 -0.0279  0.0186  0.0182 -0.0217 -0.0253  0.0374
   2.  C 1 (s)     -0.0269 -0.0600  0.2085 -0.2630  0.5500 -0.1189  0.1076 -0.3942
   3.  C 1 (px)     0.0225 -0.0089  0.2808  0.0085  0.4590 -0.3989  0.0297 -0.6711
   4.  C 1 (py)    -0.3508 -0.4361  0.3403  0.1621 -0.0389  0.0725  0.8186  0.1025
   5.  C 1 (pz)    -0.2453 -0.1305  0.0207 -0.2429  0.0287  0.3546  0.2076 -0.5141
   6.  C 1 (s)      0.1493 -0.0518 -0.1477 -0.0556 -1.4510  0.1424  0.1954  0.0183
   7.  C 1 (px)    -0.0291  0.1405  0.0767  0.1203 -1.3240  0.1729 -0.2105 -0.0499
   8.  C 1 (py)     0.3697  0.1945 -0.0541 -0.2203 -0.2175 -0.3615 -0.3088  0.2267
   9.  C 1 (pz)     0.0641 -0.0264  0.1633  0.0104  0.0853  0.3523 -0.5042  0.3787
  10. Li 2 (s)     -0.0489 -0.0023  0.0202 -0.0565  0.0559  0.0016 -0.0348  0.1023
  11. Li 2 (s)     -0.0917  0.1375 -0.0931  0.5742  1.0892 -0.6043 -0.1335 -0.2193
  12. Li 2 (px)    -0.1347  0.0050  0.4286 -0.6305 -1.0456 -0.0821 -0.3937 -0.2812
  13. Li 2 (py)    -0.1375  1.5065  0.1327 -0.2760  0.0508  0.0737  0.6210 -0.0049
  14. Li 2 (pz)     0.2234  0.1603  1.0779  0.4782  0.1212  0.0606 -0.0345  0.2822
  15. Li 2 (s)      0.2448  0.0107  0.1083 -0.1320 -1.8572  0.4709  0.0042 -0.4366
  16. Li 2 (px)    -0.3286  0.0611  0.1423  0.3337  0.3263 -0.3010 -0.2769  0.0515
  17. Li 2 (py)    -0.5658 -1.1475 -0.1270  0.2927 -0.1450 -0.2122 -0.6202  0.0136
  18. Li 2 (pz)    -0.7231 -0.0350 -1.2222 -0.1598 -0.0895  0.1617  0.0885 -0.3837
  19.  H 3 (s)      0.1368  0.0185 -0.3212 -0.0062 -0.1494 -0.3653 -0.2529  0.1277
  20.  H 3 (s)      0.0680  0.0158 -0.1908  0.0514  1.3391  0.7637  0.0001 -0.0480
  21.  H 4 (s)     -0.0964 -0.2347 -0.2545 -0.3317 -0.0359 -0.4559  0.3094  0.2015
  22.  H 4 (s)     -0.1396  0.0686  0.1977  0.2184  0.9914  1.0933 -0.3553  0.3800
  23.  H 5 (s)      0.1856 -0.0844 -0.1893 -0.4885  0.2599  0.1034  0.1756  0.2497
  24.  H 5 (s)      0.0346  0.1049 -0.0261  0.6348  0.1285 -1.1129  0.3815  0.3773

           AO         17      18      19      20      21      22      23      24
      ------------ ------- ------- ------- ------- ------- ------- ------- -------
   1.  C 1 (s)      0.0087  0.0171  0.1568  0.1199  0.0171  0.0569 -0.0037  0.0320
   2.  C 1 (s)     -0.2357 -0.0650  1.2952 -0.6413 -0.6453  1.5897 -0.1130 -0.1223
   3.  C 1 (px)    -0.1689  0.1517 -0.0310  0.1250  0.6366 -0.1270 -0.2525 -0.2532
   4.  C 1 (py)     0.3252  0.1885  0.0223  0.1135 -0.1295 -0.0122 -0.3854 -0.0555
   5.  C 1 (pz)     0.1871 -0.4747 -0.0034  0.1149  0.2575  0.0833  0.5354  0.5622
   6.  C 1 (s)      0.1020  0.0884 -4.6017 -0.0147  0.2169 -2.9313  0.1528  0.1681
   7.  C 1 (px)     0.4608 -0.1651 -0.0804 -0.1395 -1.6124 -0.5029  0.4424  0.1497
   8.  C 1 (py)    -1.4936 -0.4684  0.1080  0.1731  0.1530 -0.0932  1.3849 -0.5643
   9.  C 1 (pz)    -0.9639  1.7897  0.1112 -0.3242 -0.4283 -0.4072 -0.4345 -0.1711
  10. Li 2 (s)      0.0564 -0.0552  0.2016 -0.1121 -0.1729 -0.0537  0.0465  0.0135
  11. Li 2 (s)      0.3459 -0.2062  1.8226 -0.0472 -1.7651 -0.9247  0.6220  0.3030
  12. Li 2 (px)     0.4117  0.1318  1.9714  0.0159 -0.7114 -0.3945 -0.0305 -0.0849
  13. Li 2 (py)     0.3034  0.2257 -0.0052 -0.0384 -0.0327  0.0106 -0.3692  0.2709
  14. Li 2 (pz)     0.3791 -0.3589  0.0444  0.2725 -0.0492  0.1301  0.2167  0.5066
  15. Li 2 (s)     -0.3071  0.4639 -1.4900  0.5473  0.7471  1.1681 -0.4374 -0.1829
  16. Li 2 (px)    -0.2592  0.0285 -1.9019  0.4808 -0.2058  0.6995  0.1091  0.0968
  17. Li 2 (py)    -0.3117 -0.2981  0.0361 -0.0446  0.0167 -0.0405  0.1138 -0.0757
  18. Li 2 (pz)    -0.3458  0.2300 -0.0753 -0.0411 -0.0601 -0.0896 -0.2469 -0.5257
  19.  H 3 (s)     -0.4755 -0.2550  0.1265  0.1753 -0.0148  0.1253 -0.5964  0.9116
  20.  H 3 (s)      1.9826  0.6055  1.2693 -0.1626  0.4964  0.7170 -0.5187 -0.3582
  21.  H 4 (s)      0.2516  0.6846  0.0565  0.2756  0.0941  0.3174  0.5970  0.5098
  22.  H 4 (s)     -1.8759  0.2748  1.7032 -0.0609  0.3346  0.0066 -0.3969 -0.4656
  23.  H 5 (s)     -0.0373 -0.0995  0.0010  0.9403 -0.4328  0.1265 -0.3432 -0.3370
  24.  H 5 (s)      0.0477 -1.4202  1.5672 -0.5438  1.2066  0.7759  0.9045 -0.0296


 AO overlap matrix:

           AO          1       2       3       4       5       6       7       8
      ------------ ------- ------- ------- ------- ------- ------- ------- -------
   1.  C 1 (s)      1.0000  0.1903  0.0000  0.0000  0.0000  0.1846  0.0000  0.0000
   2.  C 1 (s)      0.1903  1.0000  0.0000  0.0000  0.0000  0.8114  0.0000  0.0000
   3.  C 1 (px)     0.0000  0.0000  1.0000  0.0000  0.0000  0.0000  0.5686  0.0000
   4.  C 1 (py)     0.0000  0.0000  0.0000  1.0000  0.0000  0.0000  0.0000  0.5686
   5.  C 1 (pz)     0.0000  0.0000  0.0000  0.0000  1.0000  0.0000  0.0000  0.0000
   6.  C 1 (s)      0.1846  0.8114  0.0000  0.0000  0.0000  1.0000  0.0000  0.0000
   7.  C 1 (px)     0.0000  0.0000  0.5686  0.0000  0.0000  0.0000  1.0000  0.0000
   8.  C 1 (py)     0.0000  0.0000  0.0000  0.5686  0.0000  0.0000  0.0000  1.0000
   9.  C 1 (pz)     0.0000  0.0000  0.0000  0.0000  0.5686  0.0000  0.0000  0.0000
  10. Li 2 (s)      0.0000  0.0045 -0.0100 -0.0001 -0.0011  0.0538 -0.1470 -0.0011
  11. Li 2 (s)      0.0346  0.2105 -0.1173 -0.0009 -0.0123  0.4013 -0.3843 -0.0030
  12. Li 2 (px)     0.0656  0.3586 -0.1209 -0.0017 -0.0228  0.5682 -0.2653 -0.0048
  13. Li 2 (py)     0.0005  0.0028 -0.0017  0.0958 -0.0002  0.0044 -0.0048  0.3514
  14. Li 2 (pz)     0.0069  0.0377 -0.0228 -0.0002  0.0935  0.0597 -0.0648 -0.0005
  15. Li 2 (s)      0.0346  0.2101 -0.0600 -0.0005 -0.0063  0.4186 -0.2444 -0.0019
  16. Li 2 (px)     0.0522  0.2974 -0.0067 -0.0007 -0.0090  0.5207  0.0180 -0.0024
  17. Li 2 (py)     0.0004  0.0023 -0.0007  0.0790 -0.0001  0.0040 -0.0024  0.3220
  18. Li 2 (pz)     0.0055  0.0313 -0.0090 -0.0001  0.0781  0.0547 -0.0320 -0.0002
  19.  H 3 (s)      0.0312  0.2642  0.1309  0.3263  0.0262  0.3792  0.1961  0.4886
  20.  H 3 (s)      0.0875  0.4586  0.0916  0.2282  0.0183  0.6959  0.2119  0.5281
  21.  H 4 (s)      0.0312  0.2642  0.1660 -0.1509 -0.2720  0.3792  0.2485 -0.2259
  22.  H 4 (s)      0.0875  0.4586  0.1161 -0.1055 -0.1902  0.6959  0.2686 -0.2442
  23.  H 5 (s)      0.0312  0.2642  0.1072 -0.1723  0.2883  0.3792  0.1606 -0.2580
  24.  H 5 (s)      0.0875  0.4586  0.0750 -0.1205  0.2016  0.6959  0.1736 -0.2788

           AO          9      10      11      12      13      14      15      16
      ------------ ------- ------- ------- ------- ------- ------- ------- -------
   1.  C 1 (s)      0.0000  0.0000  0.0346  0.0656  0.0005  0.0069  0.0346  0.0522
   2.  C 1 (s)      0.0000  0.0045  0.2105  0.3586  0.0028  0.0377  0.2101  0.2974
   3.  C 1 (px)     0.0000 -0.0100 -0.1173 -0.1209 -0.0017 -0.0228 -0.0600 -0.0067
   4.  C 1 (py)     0.0000 -0.0001 -0.0009 -0.0017  0.0958 -0.0002 -0.0005 -0.0007
   5.  C 1 (pz)     0.5686 -0.0011 -0.0123 -0.0228 -0.0002  0.0935 -0.0063 -0.0090
   6.  C 1 (s)      0.0000  0.0538  0.4013  0.5682  0.0044  0.0597  0.4186  0.5207
   7.  C 1 (px)     0.0000 -0.1470 -0.3843 -0.2653 -0.0048 -0.0648 -0.2444  0.0180
   8.  C 1 (py)     0.0000 -0.0011 -0.0030 -0.0048  0.3514 -0.0005 -0.0019 -0.0024
   9.  C 1 (pz)     1.0000 -0.0154 -0.0404 -0.0648 -0.0005  0.3446 -0.0257 -0.0320
  10. Li 2 (s)     -0.0154  1.0000  0.1397  0.0000  0.0000  0.0000  0.1972  0.0000
  11. Li 2 (s)     -0.0404  0.1397  1.0000  0.0000  0.0000  0.0000  0.9100  0.0000
  12. Li 2 (px)    -0.0648  0.0000  0.0000  1.0000  0.0000  0.0000  0.0000  0.8105
  13. Li 2 (py)    -0.0005  0.0000  0.0000  0.0000  1.0000  0.0000  0.0000  0.0000
  14. Li 2 (pz)     0.3446  0.0000  0.0000  0.0000  0.0000  1.0000  0.0000  0.0000
  15. Li 2 (s)     -0.0257  0.1972  0.9100  0.0000  0.0000  0.0000  1.0000  0.0000
  16. Li 2 (px)    -0.0320  0.0000  0.0000  0.8105  0.0000  0.0000  0.0000  1.0000
  17. Li 2 (py)    -0.0002  0.0000  0.0000  0.0000  0.8105  0.0000  0.0000  0.0000
  18. Li 2 (pz)     0.3187  0.0000  0.0000  0.0000  0.0000  0.8105  0.0000  0.0000
  19.  H 3 (s)      0.0392  0.0001  0.0776  0.1596  0.0677  0.0193  0.1144  0.1971
  20.  H 3 (s)      0.0424  0.0156  0.2483  0.3879  0.1645  0.0469  0.3239  0.4722
  21.  H 4 (s)     -0.4073  0.0001  0.0776  0.1667 -0.0298 -0.0416  0.1144  0.2060
  22.  H 4 (s)     -0.4402  0.0156  0.2483  0.4053 -0.0724 -0.1011  0.3239  0.4934
  23.  H 5 (s)      0.4317  0.0001  0.0776  0.1547 -0.0342  0.0728  0.1144  0.1911
  24.  H 5 (s)      0.4666  0.0156  0.2483  0.3762 -0.0830  0.1771  0.3239  0.4579

           AO         17      18      19      20      21      22      23      24
      ------------ ------- ------- ------- ------- ------- ------- ------- -------
   1.  C 1 (s)      0.0004  0.0055  0.0312  0.0875  0.0312  0.0875  0.0312  0.0875
   2.  C 1 (s)      0.0023  0.0313  0.2642  0.4586  0.2642  0.4586  0.2642  0.4586
   3.  C 1 (px)    -0.0007 -0.0090  0.1309  0.0916  0.1660  0.1161  0.1072  0.0750
   4.  C 1 (py)     0.0790 -0.0001  0.3263  0.2282 -0.1509 -0.1055 -0.1723 -0.1205
   5.  C 1 (pz)    -0.0001  0.0781  0.0262  0.0183 -0.2720 -0.1902  0.2883  0.2016
   6.  C 1 (s)      0.0040  0.0547  0.3792  0.6959  0.3792  0.6959  0.3792  0.6959
   7.  C 1 (px)    -0.0024 -0.0320  0.1961  0.2119  0.2485  0.2686  0.1606  0.1736
   8.  C 1 (py)     0.3220 -0.0002  0.4886  0.5281 -0.2259 -0.2442 -0.2580 -0.2788
   9.  C 1 (pz)    -0.0002  0.3187  0.0392  0.0424 -0.4073 -0.4402  0.4317  0.4666
  10. Li 2 (s)      0.0000  0.0000  0.0001  0.0156  0.0001  0.0156  0.0001  0.0156
  11. Li 2 (s)      0.0000  0.0000  0.0776  0.2483  0.0776  0.2483  0.0776  0.2483
  12. Li 2 (px)     0.0000  0.0000  0.1596  0.3879  0.1667  0.4053  0.1547  0.3762
  13. Li 2 (py)     0.8105  0.0000  0.0677  0.1645 -0.0298 -0.0724 -0.0342 -0.0830
  14. Li 2 (pz)     0.0000  0.8105  0.0193  0.0469 -0.0416 -0.1011  0.0728  0.1771
  15. Li 2 (s)      0.0000  0.0000  0.1144  0.3239  0.1144  0.3239  0.1144  0.3239
  16. Li 2 (px)     0.0000  0.0000  0.1971  0.4722  0.2060  0.4934  0.1911  0.4579
  17. Li 2 (py)     1.0000  0.0000  0.0836  0.2002 -0.0368 -0.0881 -0.0422 -0.1011
  18. Li 2 (pz)     0.0000  1.0000  0.0238  0.0571 -0.0514 -0.1231  0.0900  0.2155
  19.  H 3 (s)      0.0836  0.0238  1.0000  0.6583  0.0225  0.1616  0.0225  0.1616
  20.  H 3 (s)      0.2002  0.0571  0.6583  1.0000  0.1616  0.4218  0.1616  0.4218
  21.  H 4 (s)     -0.0368 -0.0514  0.0225  0.1616  1.0000  0.6583  0.0225  0.1616
  22.  H 4 (s)     -0.0881 -0.1231  0.1616  0.4218  0.6583  1.0000  0.1616  0.4218
  23.  H 5 (s)     -0.0422  0.0900  0.0225  0.1616  0.0225  0.1616  1.0000  0.6583
  24.  H 5 (s)     -0.1011  0.2155  0.1616  0.4218  0.1616  0.4218  0.6583  1.0000


 AO bond-order matrix:

           AO          1       2       3       4       5       6       7       8
      ------------ ------- ------- ------- ------- ------- ------- ------- -------
   1.  C 1 (s)      2.0523 -0.0013  0.0117  0.0001  0.0012 -0.2739  0.0226  0.0002
   2.  C 1 (s)     -0.0013  0.1876 -0.0036  0.0000 -0.0004  0.2731 -0.0323 -0.0002
   3.  C 1 (px)     0.0117 -0.0036  0.3617  0.0005  0.0064 -0.1035  0.3385  0.0013
   4.  C 1 (py)     0.0001  0.0000  0.0005  0.3005  0.0000 -0.0008  0.0013  0.1754
   5.  C 1 (pz)     0.0012 -0.0004  0.0064  0.0000  0.3012 -0.0109  0.0171  0.0001
   6.  C 1 (s)     -0.2739  0.2731 -0.1035 -0.0008 -0.0109  0.4597 -0.1406 -0.0011
   7.  C 1 (px)     0.0226 -0.0323  0.3385  0.0013  0.0171 -0.1406  0.3217  0.0017
   8.  C 1 (py)     0.0002 -0.0002  0.0013  0.1754  0.0001 -0.0011  0.0017  0.1024
   9.  C 1 (pz)     0.0024 -0.0034  0.0171  0.0001  0.1772 -0.0148  0.0230  0.0002
  10. Li 2 (s)      0.0250 -0.0353  0.1016  0.0008  0.0107 -0.0682  0.0987  0.0008
  11. Li 2 (s)     -0.0112  0.0359 -0.1658 -0.0013 -0.0174  0.0987 -0.1611 -0.0012
  12. Li 2 (px)    -0.0186  0.0443 -0.1924 -0.0016 -0.0220  0.1185 -0.1873 -0.0015
  13. Li 2 (py)    -0.0001  0.0003 -0.0016  0.0168 -0.0002  0.0009 -0.0015  0.0098
  14. Li 2 (pz)    -0.0020  0.0047 -0.0220 -0.0002  0.0145  0.0124 -0.0207 -0.0002
  15. Li 2 (s)     -0.0266  0.0238 -0.1002 -0.0008 -0.0105  0.0648 -0.0977 -0.0008
  16. Li 2 (px)    -0.0019 -0.0094  0.0633  0.0004  0.0052 -0.0303  0.0607  0.0004
  17. Li 2 (py)     0.0000 -0.0001  0.0004  0.0135  0.0000 -0.0002  0.0004  0.0079
  18. Li 2 (pz)    -0.0002 -0.0010  0.0052  0.0000  0.0140 -0.0032  0.0056  0.0000
  19.  H 3 (s)     -0.0537  0.0814  0.0769  0.2217  0.0165  0.1035  0.0602  0.1295
  20.  H 3 (s)      0.0094  0.0185  0.0814  0.2162  0.0168  0.0029  0.0744  0.1264
  21.  H 4 (s)     -0.0537  0.0814  0.1007 -0.1026 -0.1861  0.1035  0.0741 -0.0598
  22.  H 4 (s)      0.0094  0.0185  0.1046 -0.1000 -0.1808  0.0029  0.0880 -0.0582
  23.  H 5 (s)     -0.0537  0.0814  0.0608 -0.1172  0.1947  0.1035  0.0508 -0.0683
  24.  H 5 (s)      0.0094  0.0185  0.0657 -0.1142  0.1905  0.0029  0.0653 -0.0665

           AO          9      10      11      12      13      14      15      16
      ------------ ------- ------- ------- ------- ------- ------- ------- -------
   1.  C 1 (s)      0.0024  0.0250 -0.0112 -0.0186 -0.0001 -0.0020 -0.0266 -0.0019
   2.  C 1 (s)     -0.0034 -0.0353  0.0359  0.0443  0.0003  0.0047  0.0238 -0.0094
   3.  C 1 (px)     0.0171  0.1016 -0.1658 -0.1924 -0.0016 -0.0220 -0.1002  0.0633
   4.  C 1 (py)     0.0001  0.0008 -0.0013 -0.0016  0.0168 -0.0002 -0.0008  0.0004
   5.  C 1 (pz)     0.1772  0.0107 -0.0174 -0.0220 -0.0002  0.0145 -0.0105  0.0052
   6.  C 1 (s)     -0.0148 -0.0682  0.0987  0.1185  0.0009  0.0124  0.0648 -0.0303
   7.  C 1 (px)     0.0230  0.0987 -0.1611 -0.1873 -0.0015 -0.0207 -0.0977  0.0607
   8.  C 1 (py)     0.0002  0.0008 -0.0012 -0.0015  0.0098 -0.0002 -0.0008  0.0004
   9.  C 1 (pz)     0.1049  0.0104 -0.0169 -0.0207 -0.0002  0.0076 -0.0103  0.0056
  10. Li 2 (s)      0.0104  2.0296 -0.0005 -0.0938 -0.0007 -0.0099 -0.0628  0.0383
  11. Li 2 (s)     -0.0169 -0.0005  0.0844  0.0961  0.0007  0.0101  0.0498 -0.0303
  12. Li 2 (px)    -0.0207 -0.0938  0.0961  0.1136  0.0009  0.0118  0.0596 -0.0362
  13. Li 2 (py)    -0.0002 -0.0007  0.0007  0.0009  0.0009  0.0001  0.0005 -0.0003
  14. Li 2 (pz)     0.0076 -0.0099  0.0101  0.0118  0.0001  0.0022  0.0063 -0.0039
  15. Li 2 (s)     -0.0103 -0.0628  0.0498  0.0596  0.0005  0.0063  0.0315 -0.0190
  16. Li 2 (px)     0.0056  0.0383 -0.0303 -0.0362 -0.0003 -0.0039 -0.0190  0.0117
  17. Li 2 (py)     0.0000  0.0003 -0.0002 -0.0003  0.0008  0.0000 -0.0001  0.0001
  18. Li 2 (pz)     0.0084  0.0040 -0.0032 -0.0039  0.0000  0.0003 -0.0020  0.0012
  19.  H 3 (s)      0.0113  0.0077 -0.0216 -0.0240  0.0122 -0.0020 -0.0116  0.0102
  20.  H 3 (s)      0.0126  0.0197 -0.0353 -0.0409  0.0118 -0.0038 -0.0212  0.0138
  21.  H 4 (s)     -0.1071  0.0077 -0.0216 -0.0226 -0.0060 -0.0134 -0.0116  0.0112
  22.  H 4 (s)     -0.1028  0.0197 -0.0353 -0.0396 -0.0060 -0.0149 -0.0212  0.0148
  23.  H 5 (s)      0.1153  0.0077 -0.0216 -0.0249 -0.0068  0.0079 -0.0116  0.0095
  24.  H 5 (s)      0.1141  0.0197 -0.0353 -0.0418 -0.0067  0.0059 -0.0212  0.0131

           AO         17      18      19      20      21      22      23      24
      ------------ ------- ------- ------- ------- ------- ------- ------- -------
   1.  C 1 (s)      0.0000 -0.0002 -0.0537  0.0094 -0.0537  0.0094 -0.0537  0.0094
   2.  C 1 (s)     -0.0001 -0.0010  0.0814  0.0185  0.0814  0.0185  0.0814  0.0185
   3.  C 1 (px)     0.0004  0.0052  0.0769  0.0814  0.1007  0.1046  0.0608  0.0657
   4.  C 1 (py)     0.0135  0.0000  0.2217  0.2162 -0.1026 -0.1000 -0.1172 -0.1142
   5.  C 1 (pz)     0.0000  0.0140  0.0165  0.0168 -0.1861 -0.1808  0.1947  0.1905
   6.  C 1 (s)     -0.0002 -0.0032  0.1035  0.0029  0.1035  0.0029  0.1035  0.0029
   7.  C 1 (px)     0.0004  0.0056  0.0602  0.0744  0.0741  0.0880  0.0508  0.0653
   8.  C 1 (py)     0.0079  0.0000  0.1295  0.1264 -0.0598 -0.0582 -0.0683 -0.0665
   9.  C 1 (pz)     0.0000  0.0084  0.0113  0.0126 -0.1071 -0.1028  0.1153  0.1141
  10. Li 2 (s)      0.0003  0.0040  0.0077  0.0197  0.0077  0.0197  0.0077  0.0197
  11. Li 2 (s)     -0.0002 -0.0032 -0.0216 -0.0353 -0.0216 -0.0353 -0.0216 -0.0353
  12. Li 2 (px)    -0.0003 -0.0039 -0.0240 -0.0409 -0.0226 -0.0396 -0.0249 -0.0418
  13. Li 2 (py)     0.0008  0.0000  0.0122  0.0118 -0.0060 -0.0060 -0.0068 -0.0067
  14. Li 2 (pz)     0.0000  0.0003 -0.0020 -0.0038 -0.0134 -0.0149  0.0079  0.0059
  15. Li 2 (s)     -0.0001 -0.0020 -0.0116 -0.0212 -0.0116 -0.0212 -0.0116 -0.0212
  16. Li 2 (px)     0.0001  0.0012  0.0102  0.0138  0.0112  0.0148  0.0095  0.0131
  17. Li 2 (py)     0.0006  0.0000  0.0100  0.0098 -0.0045 -0.0044 -0.0052 -0.0050
  18. Li 2 (pz)     0.0000  0.0007  0.0014  0.0018 -0.0076 -0.0070  0.0094  0.0096
  19.  H 3 (s)      0.0100  0.0014  0.2180  0.1857 -0.0263 -0.0525 -0.0263 -0.0525
  20.  H 3 (s)      0.0098  0.0018  0.1857  0.1766 -0.0525 -0.0558 -0.0525 -0.0558
  21.  H 4 (s)     -0.0045 -0.0076 -0.0263 -0.0525  0.2180  0.1857 -0.0263 -0.0525
  22.  H 4 (s)     -0.0044 -0.0070 -0.0525 -0.0558  0.1857  0.1766 -0.0525 -0.0558
  23.  H 5 (s)     -0.0052  0.0094 -0.0263 -0.0525 -0.0263 -0.0525  0.2180  0.1857
  24.  H 5 (s)     -0.0050  0.0096 -0.0525 -0.0558 -0.0525 -0.0558  0.1857  0.1766


 AO density matrix:

           AO          1       2       3       4       5       6       7       8
      ------------ ------- ------- ------- ------- ------- ------- ------- -------
   1.  C 1 (s)      1.9986  0.4071  0.0010  0.0000  0.0001  0.3649  0.0002  0.0000
   2.  C 1 (s)      0.4071  1.4743  0.0087  0.0001  0.0009  1.6790 -0.0091 -0.0001
   3.  C 1 (px)     0.0010  0.0087  1.2044  0.0005  0.0071  0.0024  1.4220  0.0006
   4.  C 1 (py)     0.0000  0.0001  0.0005  1.1373  0.0001  0.0000  0.0006  1.3399
   5.  C 1 (pz)     0.0001  0.0009  0.0071  0.0001  1.1380  0.0002  0.0086  0.0001
   6.  C 1 (s)      0.3649  1.6790  0.0024  0.0000  0.0002  1.9222 -0.0332 -0.0003
   7.  C 1 (px)     0.0002 -0.0091  1.4220  0.0006  0.0086 -0.0332  1.7167  0.0011
   8.  C 1 (py)     0.0000 -0.0001  0.0006  1.3399  0.0001 -0.0003  0.0011  1.5787
   9.  C 1 (pz)     0.0000 -0.0010  0.0086  0.0001  1.3408 -0.0035  0.0145  0.0001
  10. Li 2 (s)      0.0001  0.0069 -0.0158 -0.0001 -0.0017  0.1074 -0.2927 -0.0023
  11. Li 2 (s)      0.0587  0.6932 -0.6744 -0.0052 -0.0709  0.8151 -0.8454 -0.0065
  12. Li 2 (px)     0.1219  0.9181 -0.3392 -0.0055 -0.0750  1.0534 -0.4093 -0.0066
  13. Li 2 (py)     0.0009  0.0071 -0.0055  0.3745 -0.0006  0.0082 -0.0066  0.4413
  14. Li 2 (pz)     0.0128  0.0965 -0.0750 -0.0006  0.3667  0.1107 -0.0894 -0.0007
  15. Li 2 (s)      0.0579  0.7206 -0.4814 -0.0037 -0.0506  0.8510 -0.6329 -0.0049
  16. Li 2 (px)     0.0943  0.8304  0.0633 -0.0025 -0.0339  0.9520  0.0648 -0.0030
  17. Li 2 (py)     0.0007  0.0064 -0.0025  0.3856 -0.0003  0.0074 -0.0030  0.4544
  18. Li 2 (pz)     0.0099  0.0873 -0.0339 -0.0003  0.3821  0.1000 -0.0409 -0.0003
  19.  H 3 (s)      0.0531  0.7194  0.3706  0.9923  0.0767  0.8246  0.4276  1.1690
  20.  H 3 (s)      0.1646  1.1455  0.2923  0.7815  0.0605  1.3121  0.3255  0.9206
  21.  H 4 (s)      0.0531  0.7194  0.4772 -0.4592 -0.8303  0.8246  0.5531 -0.5411
  22.  H 4 (s)      0.1646  1.1455  0.3762 -0.3616 -0.6539  1.3121  0.4244 -0.4262
  23.  H 5 (s)      0.0531  0.7194  0.2986 -0.5243  0.8740  0.8246  0.3427 -0.6178
  24.  H 5 (s)      0.1646  1.1455  0.2355 -0.4129  0.6884  1.3121  0.2587 -0.4866

           AO          9      10      11      12      13      14      15      16
      ------------ ------- ------- ------- ------- ------- ------- ------- -------
   1.  C 1 (s)      0.0000  0.0001  0.0587  0.1219  0.0009  0.0128  0.0579  0.0943
   2.  C 1 (s)     -0.0010  0.0069  0.6932  0.9181  0.0071  0.0965  0.7206  0.8304
   3.  C 1 (px)     0.0086 -0.0158 -0.6744 -0.3392 -0.0055 -0.0750 -0.4814  0.0633
   4.  C 1 (py)     0.0001 -0.0001 -0.0052 -0.0055  0.3745 -0.0006 -0.0037 -0.0025
   5.  C 1 (pz)     1.3408 -0.0017 -0.0709 -0.0750 -0.0006  0.3667 -0.0506 -0.0339
   6.  C 1 (s)     -0.0035  0.1074  0.8151  1.0534  0.0082  0.1107  0.8510  0.9520
   7.  C 1 (px)     0.0145 -0.2927 -0.8454 -0.4093 -0.0066 -0.0894 -0.6329  0.0648
   8.  C 1 (py)     0.0001 -0.0023 -0.0065 -0.0066  0.4413 -0.0007 -0.0049 -0.0030
   9.  C 1 (pz)     1.5802 -0.0308 -0.0888 -0.0894 -0.0007  0.4319 -0.0665 -0.0409
  10. Li 2 (s)     -0.0308  1.9994  0.3013 -0.0174 -0.0001 -0.0018  0.4093 -0.0065
  11. Li 2 (s)     -0.0888  0.3013  0.7634  0.6358  0.0049  0.0668  0.6830  0.3678
  12. Li 2 (px)    -0.0894 -0.0174  0.6358  0.6848  0.0043  0.0590  0.5955  0.5123
  13. Li 2 (py)    -0.0007 -0.0001  0.0049  0.0043  0.1234  0.0005  0.0046  0.0030
  14. Li 2 (pz)     0.4319 -0.0018  0.0668  0.0590  0.0005  0.1296  0.0626  0.0405
  15. Li 2 (s)     -0.0665  0.4093  0.6830  0.5955  0.0046  0.0626  0.6405  0.3920
  16. Li 2 (px)    -0.0409 -0.0065  0.3678  0.5123  0.0030  0.0405  0.3920  0.4814
  17. Li 2 (py)    -0.0003 -0.0001  0.0028  0.0030  0.1270  0.0003  0.0030  0.0027
  18. Li 2 (pz)     0.4501 -0.0007  0.0386  0.0405  0.0003  0.1313  0.0412  0.0368
  19.  H 3 (s)      0.0895  0.0004  0.1337  0.3438  0.3285  0.0486  0.2089  0.4289
  20.  H 3 (s)      0.0693  0.0318  0.3860  0.6344  0.2616  0.0765  0.4573  0.6662
  21.  H 4 (s)     -0.9792  0.0004  0.1337  0.3789 -0.1495 -0.2502  0.2089  0.4650
  22.  H 4 (s)     -0.7724  0.0318  0.3860  0.6620 -0.1149 -0.1588  0.4573  0.6947
  23.  H 5 (s)      1.0288  0.0004  0.1337  0.3201 -0.1710  0.3112  0.2089  0.4044
  24.  H 5 (s)      0.8091  0.0318  0.3860  0.6157 -0.1318  0.2833  0.4573  0.6470

           AO         17      18      19      20      21      22      23      24
      ------------ ------- ------- ------- ------- ------- ------- ------- -------
   1.  C 1 (s)      0.0007  0.0099  0.0531  0.1646  0.0531  0.1646  0.0531  0.1646
   2.  C 1 (s)      0.0064  0.0873  0.7194  1.1455  0.7194  1.1455  0.7194  1.1455
   3.  C 1 (px)    -0.0025 -0.0339  0.3706  0.2923  0.4772  0.3762  0.2986  0.2355
   4.  C 1 (py)     0.3856 -0.0003  0.9923  0.7815 -0.4592 -0.3616 -0.5243 -0.4129
   5.  C 1 (pz)    -0.0003  0.3821  0.0767  0.0605 -0.8303 -0.6539  0.8740  0.6884
   6.  C 1 (s)      0.0074  0.1000  0.8246  1.3121  0.8246  1.3121  0.8246  1.3121
   7.  C 1 (px)    -0.0030 -0.0409  0.4276  0.3255  0.5531  0.4244  0.3427  0.2587
   8.  C 1 (py)     0.4544 -0.0003  1.1690  0.9206 -0.5411 -0.4262 -0.6178 -0.4866
   9.  C 1 (pz)    -0.0003  0.4501  0.0895  0.0693 -0.9792 -0.7724  1.0288  0.8091
  10. Li 2 (s)     -0.0001 -0.0007  0.0004  0.0318  0.0004  0.0318  0.0004  0.0318
  11. Li 2 (s)      0.0028  0.0386  0.1337  0.3860  0.1337  0.3860  0.1337  0.3860
  12. Li 2 (px)     0.0030  0.0405  0.3438  0.6344  0.3789  0.6620  0.3201  0.6157
  13. Li 2 (py)     0.1270  0.0003  0.3285  0.2616 -0.1495 -0.1149 -0.1710 -0.1318
  14. Li 2 (pz)     0.0003  0.1313  0.0486  0.0765 -0.2502 -0.1588  0.3112  0.2833
  15. Li 2 (s)      0.0030  0.0412  0.2089  0.4573  0.2089  0.4573  0.2089  0.4573
  16. Li 2 (px)     0.0027  0.0368  0.4289  0.6662  0.4650  0.6947  0.4044  0.6470
  17. Li 2 (py)     0.1308  0.0003  0.3388  0.2694 -0.1534 -0.1182 -0.1754 -0.1356
  18. Li 2 (pz)     0.0003  0.1347  0.0579  0.0801 -0.2497 -0.1621  0.3282  0.2930
  19.  H 3 (s)      0.3388  0.0579  1.3440  1.3429  0.0510  0.3246  0.0510  0.3246
  20.  H 3 (s)      0.2694  0.0801  1.3429  1.5101  0.3246  0.7081  0.3246  0.7081
  21.  H 4 (s)     -0.1534 -0.2497  0.0510  0.3246  1.3440  1.3429  0.0510  0.3246
  22.  H 4 (s)     -0.1182 -0.1621  0.3246  0.7081  1.3429  1.5101  0.3246  0.7081
  23.  H 5 (s)     -0.1754  0.3282  0.0510  0.3246  0.0510  0.3246  1.3440  1.3429
  24.  H 5 (s)     -0.1356  0.2930  0.3246  0.7081  0.3246  0.7081  1.3429  1.5101


 MO density matrix:

      MO     1       2       3       4       5       6       7       8       9
     ---- ------  ------  ------  ------  ------  ------  ------  ------  ------
   1.     2.0000  0.0000  0.0000  0.0000  0.0000  0.0000  0.0000  0.0000  0.0000
   2.     0.0000  2.0000  0.0000  0.0000  0.0000  0.0000  0.0000  0.0000  0.0000
   3.     0.0000  0.0000  2.0000  0.0000  0.0000  0.0000  0.0000  0.0000  0.0000
   4.     0.0000  0.0000  0.0000  2.0000  0.0000  0.0000  0.0000  0.0000  0.0000
   5.     0.0000  0.0000  0.0000  0.0000  2.0000  0.0000  0.0000  0.0000  0.0000
   6.     0.0000  0.0000  0.0000  0.0000  0.0000  2.0000  0.0000  0.0000  0.0000
   7.     0.0000  0.0000  0.0000  0.0000  0.0000  0.0000  0.0000  0.0000  0.0000
   8.     0.0000  0.0000  0.0000  0.0000  0.0000  0.0000  0.0000  0.0000  0.0000
   9.     0.0000  0.0000  0.0000  0.0000  0.0000  0.0000  0.0000  0.0000  0.0000
  10.     0.0000  0.0000  0.0000  0.0000  0.0000  0.0000  0.0000  0.0000  0.0000
  11.     0.0000  0.0000  0.0000  0.0000  0.0000  0.0000  0.0000  0.0000  0.0000
  12.     0.0000  0.0000  0.0000  0.0000  0.0000  0.0000  0.0000  0.0000  0.0000
  13.     0.0000  0.0000  0.0000  0.0000  0.0000  0.0000  0.0000  0.0000  0.0000
  14.     0.0000  0.0000  0.0000  0.0000  0.0000  0.0000  0.0000  0.0000  0.0000
  15.     0.0000  0.0000  0.0000  0.0000  0.0000  0.0000  0.0000  0.0000  0.0000
  16.     0.0000  0.0000  0.0000  0.0000  0.0000  0.0000  0.0000  0.0000  0.0000
  17.     0.0000  0.0000  0.0000  0.0000  0.0000  0.0000  0.0000  0.0000  0.0000
  18.     0.0000  0.0000  0.0000  0.0000  0.0000  0.0000  0.0000  0.0000  0.0000
  19.     0.0000  0.0000  0.0000  0.0000  0.0000  0.0000  0.0000  0.0000  0.0000
  20.     0.0000  0.0000  0.0000  0.0000  0.0000  0.0000  0.0000  0.0000  0.0000
  21.     0.0000  0.0000  0.0000  0.0000  0.0000  0.0000  0.0000  0.0000  0.0000
  22.     0.0000  0.0000  0.0000  0.0000  0.0000  0.0000  0.0000  0.0000  0.0000
  23.     0.0000  0.0000  0.0000  0.0000  0.0000  0.0000  0.0000  0.0000  0.0000
  24.     0.0000  0.0000  0.0000  0.0000  0.0000  0.0000  0.0000  0.0000  0.0000

      MO    10      11      12      13      14      15      16      17      18
     ---- ------  ------  ------  ------  ------  ------  ------  ------  ------
   1.     0.0000  0.0000  0.0000  0.0000  0.0000  0.0000  0.0000  0.0000  0.0000
   2.     0.0000  0.0000  0.0000  0.0000  0.0000  0.0000  0.0000  0.0000  0.0000
   3.     0.0000  0.0000  0.0000  0.0000  0.0000  0.0000  0.0000  0.0000  0.0000
   4.     0.0000  0.0000  0.0000  0.0000  0.0000  0.0000  0.0000  0.0000  0.0000
   5.     0.0000  0.0000  0.0000  0.0000  0.0000  0.0000  0.0000  0.0000  0.0000
   6.     0.0000  0.0000  0.0000  0.0000  0.0000  0.0000  0.0000  0.0000  0.0000
   7.     0.0000  0.0000  0.0000  0.0000  0.0000  0.0000  0.0000  0.0000  0.0000
   8.     0.0000  0.0000  0.0000  0.0000  0.0000  0.0000  0.0000  0.0000  0.0000
   9.     0.0000  0.0000  0.0000  0.0000  0.0000  0.0000  0.0000  0.0000  0.0000
  10.     0.0000  0.0000  0.0000  0.0000  0.0000  0.0000  0.0000  0.0000  0.0000
  11.     0.0000  0.0000  0.0000  0.0000  0.0000  0.0000  0.0000  0.0000  0.0000
  12.     0.0000  0.0000  0.0000  0.0000  0.0000  0.0000  0.0000  0.0000  0.0000
  13.     0.0000  0.0000  0.0000  0.0000  0.0000  0.0000  0.0000  0.0000  0.0000
  14.     0.0000  0.0000  0.0000  0.0000  0.0000  0.0000  0.0000  0.0000  0.0000
  15.     0.0000  0.0000  0.0000  0.0000  0.0000  0.0000  0.0000  0.0000  0.0000
  16.     0.0000  0.0000  0.0000  0.0000  0.0000  0.0000  0.0000  0.0000  0.0000
  17.     0.0000  0.0000  0.0000  0.0000  0.0000  0.0000  0.0000  0.0000  0.0000
  18.     0.0000  0.0000  0.0000  0.0000  0.0000  0.0000  0.0000  0.0000  0.0000
  19.     0.0000  0.0000  0.0000  0.0000  0.0000  0.0000  0.0000  0.0000  0.0000
  20.     0.0000  0.0000  0.0000  0.0000  0.0000  0.0000  0.0000  0.0000  0.0000
  21.     0.0000  0.0000  0.0000  0.0000  0.0000  0.0000  0.0000  0.0000  0.0000
  22.     0.0000  0.0000  0.0000  0.0000  0.0000  0.0000  0.0000  0.0000  0.0000
  23.     0.0000  0.0000  0.0000  0.0000  0.0000  0.0000  0.0000  0.0000  0.0000
  24.     0.0000  0.0000  0.0000  0.0000  0.0000  0.0000  0.0000  0.0000  0.0000

      MO    19      20      21      22      23      24
     ---- ------  ------  ------  ------  ------  ------
   1.     0.0000  0.0000  0.0000  0.0000  0.0000  0.0000
   2.     0.0000  0.0000  0.0000  0.0000  0.0000  0.0000
   3.     0.0000  0.0000  0.0000  0.0000  0.0000  0.0000
   4.     0.0000  0.0000  0.0000  0.0000  0.0000  0.0000
   5.     0.0000  0.0000  0.0000  0.0000  0.0000  0.0000
   6.     0.0000  0.0000  0.0000  0.0000  0.0000  0.0000
   7.     0.0000  0.0000  0.0000  0.0000  0.0000  0.0000
   8.     0.0000  0.0000  0.0000  0.0000  0.0000  0.0000
   9.     0.0000  0.0000  0.0000  0.0000  0.0000  0.0000
  10.     0.0000  0.0000  0.0000  0.0000  0.0000  0.0000
  11.     0.0000  0.0000  0.0000  0.0000  0.0000  0.0000
  12.     0.0000  0.0000  0.0000  0.0000  0.0000  0.0000
  13.     0.0000  0.0000  0.0000  0.0000  0.0000  0.0000
  14.     0.0000  0.0000  0.0000  0.0000  0.0000  0.0000
  15.     0.0000  0.0000  0.0000  0.0000  0.0000  0.0000
  16.     0.0000  0.0000  0.0000  0.0000  0.0000  0.0000
  17.     0.0000  0.0000  0.0000  0.0000  0.0000  0.0000
  18.     0.0000  0.0000  0.0000  0.0000  0.0000  0.0000
  19.     0.0000  0.0000  0.0000  0.0000  0.0000  0.0000
  20.     0.0000  0.0000  0.0000  0.0000  0.0000  0.0000
  21.     0.0000  0.0000  0.0000  0.0000  0.0000  0.0000
  22.     0.0000  0.0000  0.0000  0.0000  0.0000  0.0000
  23.     0.0000  0.0000  0.0000  0.0000  0.0000  0.0000
  24.     0.0000  0.0000  0.0000  0.0000  0.0000  0.0000


 NATURAL POPULATIONS:  Natural atomic orbital occupancies

  NAO Atom No lang   Type(AO)    Occupancy      Energy
 -------------------------------------------------------
   1    C  1  s      Cor( 1s)     1.99993     -11.08699
   2    C  1  s      Val( 2s)     1.28435      -0.22343
   3    C  1  s      Ryd( 3s)     0.00455       1.49386
   4    C  1  px     Val( 2p)     1.67161      -0.14367
   5    C  1  px     Ryd( 3p)     0.01112       1.03219
   6    C  1  py     Val( 2p)     1.20877       0.00903
   7    C  1  py     Ryd( 3p)     0.00294       0.98498
   8    C  1  pz     Val( 2p)     1.21385       0.00736
   9    C  1  pz     Ryd( 3p)     0.00303       0.98550

  10   Li  2  s      Cor( 1s)     1.99991      -2.41956
  11   Li  2  s      Val( 2s)     0.17210       0.07436
  12   Li  2  s      Ryd( 3s)     0.00039       0.30851
  13   Li  2  px     Ryd( 3p)     0.02049       0.58228
  14   Li  2  px     Ryd( 2p)     0.00020       0.29203
  15   Li  2  py     Ryd( 3p)     0.00148       0.25064
  16   Li  2  py     Ryd( 2p)     0.00052       0.17111
  17   Li  2  pz     Ryd( 3p)     0.00169       0.25428
  18   Li  2  pz     Ryd( 2p)     0.00051       0.17244

  19    H  3  s      Val( 1s)     0.79966       0.22860
  20    H  3  s      Ryd( 2s)     0.00119       0.87174

  21    H  4  s      Val( 1s)     0.79966       0.22860
  22    H  4  s      Ryd( 2s)     0.00119       0.87174

  23    H  5  s      Val( 1s)     0.79966       0.22860
  24    H  5  s      Ryd( 2s)     0.00119       0.87174


 Summary of Natural Population Analysis:

                                     Natural Population
             Natural    ---------------------------------------------
  Atom No    Charge        Core      Valence    Rydberg      Total
 --------------------------------------------------------------------
    C  1   -1.40013      1.99993     5.37857    0.02163     7.40013
   Li  2    0.80270      1.99991     0.17210    0.02529     2.19730
    H  3    0.19914      0.00000     0.79966    0.00119     0.80086
    H  4    0.19914      0.00000     0.79966    0.00119     0.80086
    H  5    0.19914      0.00000     0.79966    0.00119     0.80086
 ====================================================================
 * Total *  0.00000      3.99984     7.94967    0.05050    12.00000

                                 Natural Population
 ---------------------------------------------------------
   Core                       3.99984 ( 99.9959% of    4)
   Valence                    7.94967 ( 99.3708% of    8)
   Natural Minimal Basis     11.94950 ( 99.5792% of   12)
   Natural Rydberg Basis      0.05050 (  0.4208% of   12)
 ---------------------------------------------------------

    Atom No         Natural Electron Configuration
 ----------------------------------------------------------------------------
      C  1      [core]2s( 1.28)2p( 4.09)3p( 0.02)
     Li  2      [core]2s( 0.17)3p( 0.02)
      H  3            1s( 0.80)
      H  4            1s( 0.80)
      H  5            1s( 0.80)


 PNAOs in the AO basis:

           AO          1       2       3       4       5       6       7       8
      ------------ ------- ------- ------- ------- ------- ------- ------- -------
   1.  C 1 (s)      0.9940 -0.2152 -0.0781  0.0000  0.0000  0.0000  0.0000  0.0000
   2.  C 1 (s)      0.0480  0.1757  1.7056  0.0000  0.0000  0.0000  0.0000  0.0000
   3.  C 1 (px)     0.0000  0.0000  0.0000  0.3853  1.1530  0.0000  0.0000  0.0000
   4.  C 1 (py)     0.0000  0.0000  0.0000  0.0000  0.0000  0.3853  1.1530  0.0000
   5.  C 1 (pz)     0.0000  0.0000  0.0000  0.0000  0.0000  0.0000  0.0000  0.3853
   6.  C 1 (s)     -0.0201  0.8707 -1.4755  0.0000  0.0000  0.0000  0.0000  0.0000
   7.  C 1 (px)     0.0000  0.0000  0.0000  0.7293 -0.9726  0.0000  0.0000  0.0000
   8.  C 1 (py)     0.0000  0.0000  0.0000  0.0000  0.0000  0.7293 -0.9726  0.0000
   9.  C 1 (pz)     0.0000  0.0000  0.0000  0.0000  0.0000  0.0000  0.0000  0.7293
  10. Li 2 (s)      0.0000  0.0000  0.0000  0.0000  0.0000  0.0000  0.0000  0.0000
  11. Li 2 (s)      0.0000  0.0000  0.0000  0.0000  0.0000  0.0000  0.0000  0.0000
  12. Li 2 (px)     0.0000  0.0000  0.0000  0.0000  0.0000  0.0000  0.0000  0.0000
  13. Li 2 (py)     0.0000  0.0000  0.0000  0.0000  0.0000  0.0000  0.0000  0.0000
  14. Li 2 (pz)     0.0000  0.0000  0.0000  0.0000  0.0000  0.0000  0.0000  0.0000
  15. Li 2 (s)      0.0000  0.0000  0.0000  0.0000  0.0000  0.0000  0.0000  0.0000
  16. Li 2 (px)     0.0000  0.0000  0.0000  0.0000  0.0000  0.0000  0.0000  0.0000
  17. Li 2 (py)     0.0000  0.0000  0.0000  0.0000  0.0000  0.0000  0.0000  0.0000
  18. Li 2 (pz)     0.0000  0.0000  0.0000  0.0000  0.0000  0.0000  0.0000  0.0000
  19.  H 3 (s)      0.0000  0.0000  0.0000  0.0000  0.0000  0.0000  0.0000  0.0000
  20.  H 3 (s)      0.0000  0.0000  0.0000  0.0000  0.0000  0.0000  0.0000  0.0000
  21.  H 4 (s)      0.0000  0.0000  0.0000  0.0000  0.0000  0.0000  0.0000  0.0000
  22.  H 4 (s)      0.0000  0.0000  0.0000  0.0000  0.0000  0.0000  0.0000  0.0000
  23.  H 5 (s)      0.0000  0.0000  0.0000  0.0000  0.0000  0.0000  0.0000  0.0000
  24.  H 5 (s)      0.0000  0.0000  0.0000  0.0000  0.0000  0.0000  0.0000  0.0000

           AO          9      10      11      12      13      14      15      16
      ------------ ------- ------- ------- ------- ------- ------- ------- -------
   1.  C 1 (s)      0.0000  0.0000  0.0000  0.0000  0.0000  0.0000  0.0000  0.0000
   2.  C 1 (s)      0.0000  0.0000  0.0000  0.0000  0.0000  0.0000  0.0000  0.0000
   3.  C 1 (px)     0.0000  0.0000  0.0000  0.0000  0.0000  0.0000  0.0000  0.0000
   4.  C 1 (py)     0.0000  0.0000  0.0000  0.0000  0.0000  0.0000  0.0000  0.0000
   5.  C 1 (pz)     1.1530  0.0000  0.0000  0.0000  0.0000  0.0000  0.0000  0.0000
   6.  C 1 (s)      0.0000  0.0000  0.0000  0.0000  0.0000  0.0000  0.0000  0.0000
   7.  C 1 (px)     0.0000  0.0000  0.0000  0.0000  0.0000  0.0000  0.0000  0.0000
   8.  C 1 (py)     0.0000  0.0000  0.0000  0.0000  0.0000  0.0000  0.0000  0.0000
   9.  C 1 (pz)    -0.9726  0.0000  0.0000  0.0000  0.0000  0.0000  0.0000  0.0000
  10. Li 2 (s)      0.0000  0.9985 -0.1415 -0.1830  0.0000  0.0000  0.0000  0.0000
  11. Li 2 (s)      0.0000  0.0331  1.2223 -2.0926  0.0000  0.0000  0.0000  0.0000
  12. Li 2 (px)     0.0000  0.0000  0.0000  0.0000  0.9584 -1.4129  0.0000  0.0000
  13. Li 2 (py)     0.0000  0.0000  0.0000  0.0000  0.0000  0.0000  0.9584 -1.4129
  14. Li 2 (pz)     0.0000  0.0000  0.0000  0.0000  0.0000  0.0000  0.0000  0.0000
  15. Li 2 (s)      0.0000 -0.0166 -0.2417  2.4360  0.0000  0.0000  0.0000  0.0000
  16. Li 2 (px)     0.0000  0.0000  0.0000  0.0000  0.0507  1.7065  0.0000  0.0000
  17. Li 2 (py)     0.0000  0.0000  0.0000  0.0000  0.0000  0.0000  0.0507  1.7065
  18. Li 2 (pz)     0.0000  0.0000  0.0000  0.0000  0.0000  0.0000  0.0000  0.0000
  19.  H 3 (s)      0.0000  0.0000  0.0000  0.0000  0.0000  0.0000  0.0000  0.0000
  20.  H 3 (s)      0.0000  0.0000  0.0000  0.0000  0.0000  0.0000  0.0000  0.0000
  21.  H 4 (s)      0.0000  0.0000  0.0000  0.0000  0.0000  0.0000  0.0000  0.0000
  22.  H 4 (s)      0.0000  0.0000  0.0000  0.0000  0.0000  0.0000  0.0000  0.0000
  23.  H 5 (s)      0.0000  0.0000  0.0000  0.0000  0.0000  0.0000  0.0000  0.0000
  24.  H 5 (s)      0.0000  0.0000  0.0000  0.0000  0.0000  0.0000  0.0000  0.0000

           AO         17      18      19      20      21      22      23      24
      ------------ ------- ------- ------- ------- ------- ------- ------- -------
   1.  C 1 (s)      0.0000  0.0000  0.0000  0.0000  0.0000  0.0000  0.0000  0.0000
   2.  C 1 (s)      0.0000  0.0000  0.0000  0.0000  0.0000  0.0000  0.0000  0.0000
   3.  C 1 (px)     0.0000  0.0000  0.0000  0.0000  0.0000  0.0000  0.0000  0.0000
   4.  C 1 (py)     0.0000  0.0000  0.0000  0.0000  0.0000  0.0000  0.0000  0.0000
   5.  C 1 (pz)     0.0000  0.0000  0.0000  0.0000  0.0000  0.0000  0.0000  0.0000
   6.  C 1 (s)      0.0000  0.0000  0.0000  0.0000  0.0000  0.0000  0.0000  0.0000
   7.  C 1 (px)     0.0000  0.0000  0.0000  0.0000  0.0000  0.0000  0.0000  0.0000
   8.  C 1 (py)     0.0000  0.0000  0.0000  0.0000  0.0000  0.0000  0.0000  0.0000
   9.  C 1 (pz)     0.0000  0.0000  0.0000  0.0000  0.0000  0.0000  0.0000  0.0000
  10. Li 2 (s)      0.0000  0.0000  0.0000  0.0000  0.0000  0.0000  0.0000  0.0000
  11. Li 2 (s)      0.0000  0.0000  0.0000  0.0000  0.0000  0.0000  0.0000  0.0000
  12. Li 2 (px)     0.0000  0.0000  0.0000  0.0000  0.0000  0.0000  0.0000  0.0000
  13. Li 2 (py)     0.0000  0.0000  0.0000  0.0000  0.0000  0.0000  0.0000  0.0000
  14. Li 2 (pz)     0.9584 -1.4129  0.0000  0.0000  0.0000  0.0000  0.0000  0.0000
  15. Li 2 (s)      0.0000  0.0000  0.0000  0.0000  0.0000  0.0000  0.0000  0.0000
  16. Li 2 (px)     0.0000  0.0000  0.0000  0.0000  0.0000  0.0000  0.0000  0.0000
  17. Li 2 (py)     0.0000  0.0000  0.0000  0.0000  0.0000  0.0000  0.0000  0.0000
  18. Li 2 (pz)     0.0507  1.7065  0.0000  0.0000  0.0000  0.0000  0.0000  0.0000
  19.  H 3 (s)      0.0000  0.0000  0.4546  1.2482  0.0000  0.0000  0.0000  0.0000
  20.  H 3 (s)      0.0000  0.0000  0.6403 -1.1639  0.0000  0.0000  0.0000  0.0000
  21.  H 4 (s)      0.0000  0.0000  0.0000  0.0000  0.4546  1.2482  0.0000  0.0000
  22.  H 4 (s)      0.0000  0.0000  0.0000  0.0000  0.6403 -1.1639  0.0000  0.0000
  23.  H 5 (s)      0.0000  0.0000  0.0000  0.0000  0.0000  0.0000  0.4546  1.2482
  24.  H 5 (s)      0.0000  0.0000  0.0000  0.0000  0.0000  0.0000  0.6403 -1.1639


 PNAO overlap matrix:

           NAO         1       2       3       4       5       6       7       8
      ------------ ------- ------- ------- ------- ------- ------- ------- -------
   1.  C 1( 1s )    1.0000  0.0000  0.0000  0.0000  0.0000  0.0000  0.0000  0.0000
   2.  C 1( 2s )    0.0000  1.0000  0.0000  0.0000  0.0000  0.0000  0.0000  0.0000
   3.  C 1( 3s )    0.0000  0.0000  1.0000  0.0000  0.0000  0.0000  0.0000  0.0000
   4.  C 1( 2px)    0.0000  0.0000  0.0000  1.0000  0.0000  0.0000  0.0000  0.0000
   5.  C 1( 3px)    0.0000  0.0000  0.0000  0.0000  1.0000  0.0000  0.0000  0.0000
   6.  C 1( 2py)    0.0000  0.0000  0.0000  0.0000  0.0000  1.0000  0.0000  0.0000
   7.  C 1( 3py)    0.0000  0.0000  0.0000  0.0000  0.0000  0.0000  1.0000  0.0000
   8.  C 1( 2pz)    0.0000  0.0000  0.0000  0.0000  0.0000  0.0000  0.0000  1.0000
   9.  C 1( 3pz)    0.0000  0.0000  0.0000  0.0000  0.0000  0.0000  0.0000  0.0000
  10. Li 2( 1s )   -0.0002  0.0536 -0.0750 -0.1183  0.1363 -0.0009  0.0011 -0.0124
  11. Li 2( 2s )    0.0359  0.3612 -0.2148 -0.3334  0.2323 -0.0026  0.0018 -0.0350
  12. Li 2( 3s )    0.0119  0.1579 -0.1317  0.2109 -0.1127  0.0016 -0.0009  0.0222
  13. Li 2( 3px)    0.0708  0.5462 -0.2357 -0.2295  0.1124 -0.0041  0.0027 -0.0551
  14. Li 2( 2px)   -0.0052  0.0756 -0.1249  0.3571 -0.2105  0.0025 -0.0012  0.0335
  15. Li 2( 3py)    0.0005  0.0042 -0.0018 -0.0041  0.0027  0.2945 -0.2329 -0.0004
  16. Li 2( 2py)    0.0000  0.0006 -0.0010  0.0025 -0.0012  0.0385 -0.0523  0.0003
  17. Li 2( 3pz)    0.0074  0.0574 -0.0248 -0.0551  0.0363 -0.0004  0.0003  0.2887
  18. Li 2( 2pz)   -0.0005  0.0079 -0.0131  0.0335 -0.0166  0.0003 -0.0001  0.0420
  19.  H 3( 1s )    0.0772  0.5957 -0.2117  0.2095 -0.0824  0.5221 -0.2054  0.0419
  20.  H 3( 2s )   -0.0656 -0.3154  0.1537  0.0205  0.0674  0.0511  0.1680  0.0041
  21.  H 4( 1s )    0.0772  0.5957 -0.2117  0.2656 -0.1045 -0.2414  0.0950 -0.4352
  22.  H 4( 2s )   -0.0656 -0.3154  0.1537  0.0260  0.0855 -0.0236 -0.0777 -0.0426
  23.  H 5( 1s )    0.0772  0.5957 -0.2117  0.1716 -0.0675 -0.2757  0.1085  0.4613
  24.  H 5( 2s )   -0.0656 -0.3154  0.1537  0.0168  0.0552 -0.0270 -0.0887  0.0451

           NAO         9      10      11      12      13      14      15      16
      ------------ ------- ------- ------- ------- ------- ------- ------- -------
   1.  C 1( 1s )    0.0000 -0.0002  0.0359  0.0119  0.0708 -0.0052  0.0005  0.0000
   2.  C 1( 2s )    0.0000  0.0536  0.3612  0.1579  0.5462  0.0756  0.0042  0.0006
   3.  C 1( 3s )    0.0000 -0.0750 -0.2148 -0.1317 -0.2357 -0.1249 -0.0018 -0.0010
   4.  C 1( 2px)    0.0000 -0.1183 -0.3334  0.2109 -0.2295  0.3571 -0.0041  0.0025
   5.  C 1( 3px)    0.0000  0.1363  0.2323 -0.1127  0.1124 -0.2105  0.0027 -0.0012
   6.  C 1( 2py)    0.0000 -0.0009 -0.0026  0.0016 -0.0041  0.0025  0.2945  0.0385
   7.  C 1( 3py)    0.0000  0.0011  0.0018 -0.0009  0.0027 -0.0012 -0.2329 -0.0523
   8.  C 1( 2pz)    0.0000 -0.0124 -0.0350  0.0222 -0.0551  0.0335 -0.0004  0.0003
   9.  C 1( 3pz)    1.0000  0.0143  0.0244 -0.0118  0.0363 -0.0166  0.0003 -0.0001
  10. Li 2( 1s )    0.0143  1.0000  0.0000  0.0000  0.0000  0.0000  0.0000  0.0000
  11. Li 2( 2s )    0.0244  0.0000  1.0000  0.0000  0.0000  0.0000  0.0000  0.0000
  12. Li 2( 3s )   -0.0118  0.0000  0.0000  1.0000  0.0000  0.0000  0.0000  0.0000
  13. Li 2( 3px)    0.0363  0.0000  0.0000  0.0000  1.0000  0.0000  0.0000  0.0000
  14. Li 2( 2px)   -0.0166  0.0000  0.0000  0.0000  0.0000  1.0000  0.0000  0.0000
  15. Li 2( 3py)    0.0003  0.0000  0.0000  0.0000  0.0000  0.0000  1.0000  0.0000
  16. Li 2( 2py)   -0.0001  0.0000  0.0000  0.0000  0.0000  0.0000  0.0000  1.0000
  17. Li 2( 3pz)   -0.2291  0.0000  0.0000  0.0000  0.0000  0.0000  0.0000  0.0000
  18. Li 2( 2pz)   -0.0540  0.0000  0.0000  0.0000  0.0000  0.0000  0.0000  0.0000
  19.  H 3( 1s )   -0.0165  0.0121  0.1734  0.2235  0.3275  0.2155  0.1389  0.0914
  20.  H 3( 2s )    0.0135 -0.0205 -0.1757 -0.1650 -0.2573 -0.1615 -0.1091 -0.0685
  21.  H 4( 1s )    0.1712  0.0121  0.1734  0.2235  0.3422  0.2251 -0.0611 -0.0402
  22.  H 4( 2s )   -0.1401 -0.0205 -0.1757 -0.1650 -0.2688 -0.1688  0.0480  0.0301
  23.  H 5( 1s )   -0.1815  0.0121  0.1734  0.2235  0.3176  0.2090 -0.0701 -0.0461
  24.  H 5( 2s )    0.1485 -0.0205 -0.1757 -0.1650 -0.2495 -0.1566  0.0551  0.0346

           NAO        17      18      19      20      21      22      23      24
      ------------ ------- ------- ------- ------- ------- ------- ------- -------
   1.  C 1( 1s )    0.0074 -0.0005  0.0772 -0.0656  0.0772 -0.0656  0.0772 -0.0656
   2.  C 1( 2s )    0.0574  0.0079  0.5957 -0.3154  0.5957 -0.3154  0.5957 -0.3154
   3.  C 1( 3s )   -0.0248 -0.0131 -0.2117  0.1537 -0.2117  0.1537 -0.2117  0.1537
   4.  C 1( 2px)   -0.0551  0.0335  0.2095  0.0205  0.2656  0.0260  0.1716  0.0168
   5.  C 1( 3px)    0.0363 -0.0166 -0.0824  0.0674 -0.1045  0.0855 -0.0675  0.0552
   6.  C 1( 2py)   -0.0004  0.0003  0.5221  0.0511 -0.2414 -0.0236 -0.2757 -0.0270
   7.  C 1( 3py)    0.0003 -0.0001 -0.2054  0.1680  0.0950 -0.0777  0.1085 -0.0887
   8.  C 1( 2pz)    0.2887  0.0420  0.0419  0.0041 -0.4352 -0.0426  0.4613  0.0451
   9.  C 1( 3pz)   -0.2291 -0.0540 -0.0165  0.0135  0.1712 -0.1401 -0.1815  0.1485
  10. Li 2( 1s )    0.0000  0.0000  0.0121 -0.0205  0.0121 -0.0205  0.0121 -0.0205
  11. Li 2( 2s )    0.0000  0.0000  0.1734 -0.1757  0.1734 -0.1757  0.1734 -0.1757
  12. Li 2( 3s )    0.0000  0.0000  0.2235 -0.1650  0.2235 -0.1650  0.2235 -0.1650
  13. Li 2( 3px)    0.0000  0.0000  0.3275 -0.2573  0.3422 -0.2688  0.3176 -0.2495
  14. Li 2( 2px)    0.0000  0.0000  0.2155 -0.1615  0.2251 -0.1688  0.2090 -0.1566
  15. Li 2( 3py)    0.0000  0.0000  0.1389 -0.1091 -0.0611  0.0480 -0.0701  0.0551
  16. Li 2( 2py)    0.0000  0.0000  0.0914 -0.0685 -0.0402  0.0301 -0.0461  0.0346
  17. Li 2( 3pz)    1.0000  0.0000  0.0396 -0.0311 -0.0854  0.0671  0.1495 -0.1174
  18. Li 2( 2pz)    0.0000  1.0000  0.0261 -0.0195 -0.0562  0.0421  0.0984 -0.0737
  19.  H 3( 1s )    0.0396  0.0261  1.0000  0.0000  0.2717 -0.2580  0.2717 -0.2580
  20.  H 3( 2s )   -0.0311 -0.0195  0.0000  1.0000 -0.2580  0.1371 -0.2580  0.1371
  21.  H 4( 1s )   -0.0854 -0.0562  0.2717 -0.2580  1.0000  0.0000  0.2717 -0.2580
  22.  H 4( 2s )    0.0671  0.0421 -0.2580  0.1371  0.0000  1.0000 -0.2580  0.1371
  23.  H 5( 1s )    0.1495  0.0984  0.2717 -0.2580  0.2717 -0.2580  1.0000  0.0000
  24.  H 5( 2s )   -0.1174 -0.0737 -0.2580  0.1371 -0.2580  0.1371  0.0000  1.0000


 PNAO density matrix:

           NAO         1       2       3       4       5       6       7       8
      ------------ ------- ------- ------- ------- ------- ------- ------- -------
   1.  C 1( 1s )    1.9999  0.0000  0.0000  0.0009  0.0011  0.0000  0.0000  0.0001
   2.  C 1( 2s )    0.0000  1.9415  0.0000 -0.0210  0.0336 -0.0002  0.0003 -0.0022
   3.  C 1( 3s )    0.0000  0.0000  0.0109  0.0288 -0.0194  0.0002 -0.0002  0.0030
   4.  C 1( 2px)    0.0009 -0.0210  0.0288  1.8912 -0.0198  0.0010 -0.0002  0.0136
   5.  C 1( 3px)    0.0011  0.0336 -0.0194 -0.0198  0.0358 -0.0002  0.0003 -0.0031
   6.  C 1( 2py)    0.0000 -0.0002  0.0002  0.0010 -0.0002  1.7617  0.0101  0.0001
   7.  C 1( 3py)    0.0000  0.0003 -0.0002 -0.0002  0.0003  0.0101  0.0001  0.0000
   8.  C 1( 2pz)    0.0001 -0.0022  0.0030  0.0136 -0.0031  0.0001  0.0000  1.7632
   9.  C 1( 3pz)    0.0001  0.0035 -0.0020 -0.0031  0.0038  0.0000  0.0000  0.0097
  10. Li 2( 1s )   -0.0005  0.1074 -0.1468 -0.2374  0.2664 -0.0018  0.0021 -0.0250
  11. Li 2( 2s )    0.0740  0.7809 -0.0023 -0.8838  0.0022 -0.0068  0.0000 -0.0929
  12. Li 2( 3s )    0.0257  0.3520  0.0033  0.2979  0.0054  0.0023  0.0000  0.0313
  13. Li 2( 3px)    0.1439  1.0570  0.0022 -0.4077  0.0072 -0.0068  0.0000 -0.0924
  14. Li 2( 2px)   -0.0083  0.1421  0.0045  0.7287  0.0071  0.0044  0.0000  0.0597
  15. Li 2( 3py)    0.0011  0.0082  0.0000 -0.0068  0.0000  0.4711  0.0027 -0.0007
  16. Li 2( 2py)   -0.0001  0.0011  0.0000  0.0044  0.0000  0.1605  0.0009  0.0005
  17. Li 2( 3pz)    0.0151  0.1111  0.0002 -0.0924  0.0005 -0.0007  0.0000  0.4615
  18. Li 2( 2pz)   -0.0009  0.0149  0.0005  0.0597  0.0006  0.0005  0.0000  0.1667
  19.  H 3( 1s )    0.1553  1.2164  0.0060  0.4309  0.0183  1.1842  0.0069  0.0904
  20.  H 3( 2s )   -0.1355 -0.4830  0.0021  0.1601 -0.0094  0.4096  0.0023  0.0324
  21.  H 4( 1s )    0.1553  1.2164  0.0060  0.5580  0.0190 -0.5481 -0.0030 -0.9922
  22.  H 4( 2s )   -0.1355 -0.4830  0.0021  0.2041 -0.0091 -0.1894 -0.0012 -0.3419
  23.  H 5( 1s )    0.1553  1.2164  0.0060  0.3449  0.0178 -0.6258 -0.0034  1.0419
  24.  H 5( 2s )   -0.1355 -0.4830  0.0021  0.1304 -0.0096 -0.2163 -0.0013  0.3614

           NAO         9      10      11      12      13      14      15      16
      ------------ ------- ------- ------- ------- ------- ------- ------- -------
   1.  C 1( 1s )    0.0001 -0.0005  0.0740  0.0257  0.1439 -0.0083  0.0011 -0.0001
   2.  C 1( 2s )    0.0035  0.1074  0.7809  0.3520  1.0570  0.1421  0.0082  0.0011
   3.  C 1( 3s )   -0.0020 -0.1468 -0.0023  0.0033  0.0022  0.0045  0.0000  0.0000
   4.  C 1( 2px)   -0.0031 -0.2374 -0.8838  0.2979 -0.4077  0.7287 -0.0068  0.0044
   5.  C 1( 3px)    0.0038  0.2664  0.0022  0.0054  0.0072  0.0071  0.0000  0.0000
   6.  C 1( 2py)    0.0000 -0.0018 -0.0068  0.0023 -0.0068  0.0044  0.4711  0.1605
   7.  C 1( 3py)    0.0000  0.0021  0.0000  0.0000  0.0000  0.0000  0.0027  0.0009
   8.  C 1( 2pz)    0.0097 -0.0250 -0.0929  0.0313 -0.0924  0.0597 -0.0007  0.0005
   9.  C 1( 3pz)    0.0005  0.0280  0.0002  0.0006  0.0005  0.0006  0.0000  0.0000
  10. Li 2( 1s )    0.0280  1.9999  0.0000  0.0000 -0.0061  0.0074  0.0000  0.0001
  11. Li 2( 2s )    0.0002  0.0000  0.7382  0.0000  0.6273 -0.2910  0.0049 -0.0023
  12. Li 2( 3s )    0.0006  0.0000  0.0000  0.1130  0.1277  0.1439  0.0010  0.0011
  13. Li 2( 3px)    0.0005 -0.0061  0.6273  0.1277  0.6801 -0.0844  0.0043 -0.0010
  14. Li 2( 2px)    0.0006  0.0074 -0.2910  0.1439 -0.0844  0.2984 -0.0010  0.0022
  15. Li 2( 3py)    0.0000  0.0000  0.0049  0.0010  0.0043 -0.0010  0.1260  0.0429
  16. Li 2( 2py)    0.0000  0.0001 -0.0023  0.0011 -0.0010  0.0022  0.0429  0.0146
  17. Li 2( 3pz)    0.0027 -0.0006  0.0659  0.0134  0.0582 -0.0134  0.0005 -0.0001
  18. Li 2( 2pz)    0.0010  0.0008 -0.0306  0.0151 -0.0134  0.0298 -0.0001  0.0002
  19.  H 3( 1s )    0.0022  0.0242  0.2798  0.2965  0.5707  0.2659  0.3202  0.1096
  20.  H 3( 2s )   -0.0009 -0.0414 -0.2744 -0.0635 -0.3086  0.0272  0.1068  0.0374
  21.  H 4( 1s )   -0.0040  0.0242  0.2798  0.2965  0.6047  0.2775 -0.1431 -0.0482
  22.  H 4( 2s )   -0.0030 -0.0414 -0.2744 -0.0635 -0.2968  0.0312 -0.0534 -0.0172
  23.  H 5( 1s )    0.0076  0.0242  0.2798  0.2965  0.5477  0.2581 -0.1638 -0.0552
  24.  H 5( 2s )    0.0010 -0.0414 -0.2744 -0.0635 -0.3165  0.0245 -0.0606 -0.0196

           NAO        17      18      19      20      21      22      23      24
      ------------ ------- ------- ------- ------- ------- ------- ------- -------
   1.  C 1( 1s )    0.0151 -0.0009  0.1553 -0.1355  0.1553 -0.1355  0.1553 -0.1355
   2.  C 1( 2s )    0.1111  0.0149  1.2164 -0.4830  1.2164 -0.4830  1.2164 -0.4830
   3.  C 1( 3s )    0.0002  0.0005  0.0060  0.0021  0.0060  0.0021  0.0060  0.0021
   4.  C 1( 2px)   -0.0924  0.0597  0.4309  0.1601  0.5580  0.2041  0.3449  0.1304
   5.  C 1( 3px)    0.0005  0.0006  0.0183 -0.0094  0.0190 -0.0091  0.0178 -0.0096
   6.  C 1( 2py)   -0.0007  0.0005  1.1842  0.4096 -0.5481 -0.1894 -0.6258 -0.2163
   7.  C 1( 3py)    0.0000  0.0000  0.0069  0.0023 -0.0030 -0.0012 -0.0034 -0.0013
   8.  C 1( 2pz)    0.4615  0.1667  0.0904  0.0324 -0.9922 -0.3419  1.0419  0.3614
   9.  C 1( 3pz)    0.0027  0.0010  0.0022 -0.0009 -0.0040 -0.0030  0.0076  0.0010
  10. Li 2( 1s )   -0.0006  0.0008  0.0242 -0.0414  0.0242 -0.0414  0.0242 -0.0414
  11. Li 2( 2s )    0.0659 -0.0306  0.2798 -0.2744  0.2798 -0.2744  0.2798 -0.2744
  12. Li 2( 3s )    0.0134  0.0151  0.2965 -0.0635  0.2965 -0.0635  0.2965 -0.0635
  13. Li 2( 3px)    0.0582 -0.0134  0.5707 -0.3086  0.6047 -0.2968  0.5477 -0.3165
  14. Li 2( 2px)   -0.0134  0.0298  0.2659  0.0272  0.2775  0.0312  0.2581  0.0245
[...]
           NBO accepted:    9. Label:BD*( 1)   1   5
        2 eigenvector(s) stashed in permanent list

  2-center NBOs projected from the NHO density matrix
       0.201 electrons remain in the fully projected matrix

                            Occupancies       Lewis Structure    Low   High
         Max    Occ     -------------------  -----------------   occ   occ
  Cycle  Ctr   Thresh    Lewis   non-Lewis     CR  BD  nC  LP    (L)   (NL)
 ============================================================================
    2     2     1.80    11.79838   0.20162      2   3   0   1     0      1

 Initiate 2-center NBO search using THRESH = 1.900 and PRJTHR = 0.300

 Search of NAO DM block for core orbitals on atom:   1
      Eigenvector ( 1) has occupancy 1.99993
            1.0000 0.0000 0.0000 0.0000 0.0000 0.0000 0.0000 0.0000
            0.0000
        1 eigenvector(s) stashed in permanent list

 Search of NAO DM block for core orbitals on atom:   2
      Eigenvector ( 1) has occupancy 1.99991
            1.0000 0.0000 0.0000 0.0000 0.0000 0.0000 0.0000 0.0000
            0.0000
        1 eigenvector(s) stashed in permanent list

 Core orbitals projected from the NAO density matrix
       8.000 electrons remain (>1.900); search continues

 Search of NAO DM block for the following atom(s):   1
      Select eigenvectors with eigenvalue > 1.900
       1.807 1.212 1.212 1.170 0.000 0.000 0.000 0.000 0.000

 No NHOs identified in the 1-center search of the NAO density matrix
       8.000 electrons remain (>1.900); search continues

 Search of NAO DM block for the following atom(s):   1   2
      Select eigenvectors with eigenvalue > 1.900
       1.999 1.214 1.214 1.171 0.000 0.000 0.000 0.000 0.000 0.000 0.000 0.000
       0.000 0.000 0.000 0.000 0.000 0.000
      Eigenvector ( 1) has occupancy 1.99924
            0.0000-0.4043 0.0411 0.8515-0.0735 0.0066-0.0006 0.0895
           -0.0077 0.0000-0.2934 0.0000-0.1005 0.0079-0.0008 0.0001
           -0.0106 0.0008
      1 hybrid on atom 1 stashed in prospective list
      1 hybrid on atom 2 stashed in prospective list

 Search of NAO DM block for the following atom(s):   1   3
      Select eigenvectors with eigenvalue > 1.900
       1.998 1.807 1.212 1.185 0.000 0.000 0.000 0.000 0.000 0.000 0.000
      Eigenvector ( 1) has occupancy 1.99755
            0.0000 0.3976 0.0131 0.1661 0.0070 0.6413 0.0316 0.0419
            0.0019 0.6325-0.0006
      1 hybrid on atom 1 stashed in prospective list
      1 hybrid on atom 3 stashed in prospective list

 Search of NAO DM block for the following atom(s):   1   4
      Select eigenvectors with eigenvalue > 1.900
       1.998 1.807 1.212 1.185 0.000 0.000 0.000 0.000 0.000 0.000 0.000
      Eigenvector ( 1) has occupancy 1.99755
            0.0000 0.3976 0.0131 0.2351 0.0104-0.2976-0.0147-0.5448
           -0.0270 0.6325-0.0006
      1 hybrid on atom 1 stashed in prospective list
      1 hybrid on atom 4 stashed in prospective list

 Search of NAO DM block for the following atom(s):   1   5
      Select eigenvectors with eigenvalue > 1.900
       1.998 1.807 1.212 1.185 0.000 0.000 0.000 0.000 0.000 0.000 0.000
      Eigenvector ( 1) has occupancy 1.99755
            0.0000 0.3976 0.0131 0.1195 0.0047-0.3397-0.0168 0.5577
            0.0274 0.6325-0.0006
      1 hybrid on atom 1 stashed in prospective list
      1 hybrid on atom 5 stashed in prospective list

 Stash prospective hybrids having projection expectation value > 0.300
       0.999 0.999 0.998 0.998 0.998 0.998 0.998 0.998
      0 hybrids eliminated in 1 pass
      8 hybrids moved from prospective to permanent list

 NHOs of 2-center eigenvectors projected from the NAO density matrix
       0.008 electrons remain in the fully projected matrix

 Search of NHO DM block for the following atom(s):   1
      Select eigenvectors with eigenvalue > 1.900
       2.000 0.000 0.000 0.000 0.000 0.000 0.000 0.000 0.000
      Eigenvector ( 1) has occupancy 1.99993
            1.0000 0.0000 0.0000 0.0000 0.0000 0.0000 0.0000 0.0000
            0.0000
           NBO accepted:    1. Label:CR ( 1)   1
        1 eigenvector(s) stashed in permanent list

 Search of NHO DM block for the following atom(s):   2
      Select eigenvectors with eigenvalue > 1.900
       2.000 0.002 0.002 0.001 0.000 0.000 0.000 0.000 0.000
      Eigenvector ( 1) has occupancy 1.99991
            1.0000 0.0000 0.0000 0.0000 0.0000 0.0000 0.0000 0.0000
            0.0000
           NBO accepted:    2. Label:CR ( 1)   2
        1 eigenvector(s) stashed in permanent list

  1-center NBOs projected from the NHO density matrix
       8.000 electrons remain (>1.900); search continues

 Search of NHO DM block for the following atom(s):   1   2
      Select eigenvectors with eigenvalue > 1.900
       1.999 0.000 0.000 0.000 0.000 0.000 0.000 0.000 0.000 0.000 0.000 0.000
       0.000 0.000 0.000 0.000 0.000 0.000
      Eigenvector ( 1) has occupancy 1.99915
            0.0000 0.9506 0.0000 0.0000 0.0000 0.0000 0.0000 0.0000
            0.0000 0.0000 0.3105 0.0000 0.0000 0.0000 0.0000 0.0000
            0.0000 0.0000
      Occupancy is 1.999 after deleting minor hybrid components
            0.0000 0.9506 0.0000 0.0000 0.0000 0.0000 0.0000 0.0000
            0.0000 0.0000 0.3105 0.0000 0.0000 0.0000 0.0000 0.0000
            0.0000 0.0000
           NBO accepted:    3. Label:BD ( 1)   1   2
      Occupancy is 0.000 for antibonding component
            0.0000-0.3105 0.0000 0.0000 0.0000 0.0000 0.0000 0.0000
            0.0000 0.0000 0.9506 0.0000 0.0000 0.0000 0.0000 0.0000
            0.0000 0.0000
           NBO accepted:    4. Label:BD*( 1)   1   2
        2 eigenvector(s) stashed in permanent list

 Search of NHO DM block for the following atom(s):   1   3
      Select eigenvectors with eigenvalue > 1.900
       1.997 0.000 0.000 0.000 0.000 0.000 0.000 0.000 0.000 0.000 0.000
      Eigenvector ( 1) has occupancy 1.99734
            0.0000 0.0000 0.7744 0.0000 0.0000 0.0000 0.0000 0.0000
            0.0000 0.6327 0.0000
      Occupancy is 1.997 after deleting minor hybrid components
            0.0000 0.0000 0.7744 0.0000 0.0000 0.0000 0.0000 0.0000
            0.0000 0.6327 0.0000
           NBO accepted:    5. Label:BD ( 1)   1   3
      Occupancy is 0.000 for antibonding component
            0.0000 0.0000-0.6327 0.0000 0.0000 0.0000 0.0000 0.0000
            0.0000 0.7744 0.0000
           NBO accepted:    6. Label:BD*( 1)   1   3
        2 eigenvector(s) stashed in permanent list

 Search of NHO DM block for the following atom(s):   1   4
      Select eigenvectors with eigenvalue > 1.900
       1.997 0.000 0.000 0.000 0.000 0.000 0.000 0.000 0.000 0.000 0.000
      Eigenvector ( 1) has occupancy 1.99734
            0.0000 0.0000 0.0000 0.7744 0.0000 0.0000 0.0000 0.0000
            0.0000 0.6327 0.0000
      Occupancy is 1.997 after deleting minor hybrid components
            0.0000 0.0000 0.0000 0.7744 0.0000 0.0000 0.0000 0.0000
            0.0000 0.6327 0.0000
           NBO accepted:    7. Label:BD ( 1)   1   4
      Occupancy is 0.000 for antibonding component
            0.0000 0.0000 0.0000-0.6327 0.0000 0.0000 0.0000 0.0000
            0.0000 0.7744 0.0000
           NBO accepted:    8. Label:BD*( 1)   1   4
        2 eigenvector(s) stashed in permanent list

 Search of NHO DM block for the following atom(s):   1   5
      Select eigenvectors with eigenvalue > 1.900
       1.997 0.000 0.000 0.000 0.000 0.000 0.000 0.000 0.000 0.000 0.000
      Eigenvector ( 1) has occupancy 1.99734
            0.0000 0.0000 0.0000 0.0000 0.7744 0.0000 0.0000 0.0000
            0.0000 0.6327 0.0000
      Occupancy is 1.997 after deleting minor hybrid components
            0.0000 0.0000 0.0000 0.0000 0.7744 0.0000 0.0000 0.0000
            0.0000 0.6327 0.0000
           NBO accepted:    9. Label:BD ( 1)   1   5
      Occupancy is 0.000 for antibonding component
            0.0000 0.0000 0.0000 0.0000-0.6327 0.0000 0.0000 0.0000
            0.0000 0.7744 0.0000
           NBO accepted:   10. Label:BD*( 1)   1   5
        2 eigenvector(s) stashed in permanent list

  2-center NBOs projected from the NHO density matrix
       0.008 electrons remain in the fully projected matrix

                            Occupancies       Lewis Structure    Low   High
         Max    Occ     -------------------  -----------------   occ   occ
  Cycle  Ctr   Thresh    Lewis   non-Lewis     CR  BD  nC  LP    (L)   (NL)
 ============================================================================
    3     2     1.90    11.99101   0.00899      2   4   0   0     0      0
 ----------------------------------------------------------------------------

 Structure accepted: No low occupancy Lewis orbitals

 -------------------------------------------------------
   Core                      3.99984 ( 99.996% of   4)
   Valence Lewis             7.99117 ( 99.890% of   8)
  ==================      =============================
   Total Lewis              11.99101 ( 99.925% of  12)
  -----------------------------------------------------
   Valence non-Lewis         0.00068 (  0.006% of  12)
   Rydberg non-Lewis         0.00831 (  0.069% of  12)
  ==================      =============================
   Total non-Lewis           0.00899 (  0.075% of  12)
 -------------------------------------------------------


     (Occupancy)   Bond orbital / Coefficients / Hybrids
 ------------------ Lewis ------------------------------------------------------
   1. (1.99993) CR ( 1) C  1            s(100.00%)
                                         1.0000  0.0000  0.0000  0.0000  0.0000
                                         0.0000  0.0000  0.0000  0.0000
   2. (1.99991) CR ( 1)Li  2            s(100.00%)
                                         1.0000  0.0000  0.0000  0.0000  0.0000
                                         0.0000  0.0000  0.0000  0.0000
   3. (1.99915) BD ( 1) C  1-Li  2
               ( 90.36%)   0.9506* C  1 s( 17.46%)p 4.73( 82.54%)
                                         0.0000  0.4156 -0.0436 -0.9002  0.0772
                                        -0.0070  0.0006 -0.0946  0.0081
               (  9.64%)   0.3105*Li  2 s( 89.33%)p 0.12( 10.67%)
                                         0.0000  0.9451 -0.0001  0.3239 -0.0255
                                         0.0025 -0.0002  0.0340 -0.0027
   4. (1.99734) BD ( 1) C  1- H  3
               ( 59.97%)   0.7744* C  1 s( 27.53%)p 2.63( 72.47%)
                                         0.0000  0.5244  0.0179  0.2299  0.0085
                                         0.8167  0.0402  0.0553  0.0024
               ( 40.03%)   0.6327* H  3 s(100.00%)
                                         1.0000 -0.0010
   5. (1.99734) BD ( 1) C  1- H  4
               ( 59.97%)   0.7744* C  1 s( 27.53%)p 2.63( 72.47%)
                                         0.0000  0.5244  0.0179  0.3176  0.0128
                                        -0.3788 -0.0187 -0.6918 -0.0344
               ( 40.03%)   0.6327* H  4 s(100.00%)
                                         1.0000 -0.0010
   6. (1.99734) BD ( 1) C  1- H  5
               ( 59.97%)   0.7744* C  1 s( 27.53%)p 2.63( 72.47%)
                                         0.0000  0.5244  0.0179  0.1705  0.0056
                                        -0.4324 -0.0213  0.7120  0.0348
               ( 40.03%)   0.6327* H  5 s(100.00%)
                                         1.0000 -0.0010
 ---------------- non-Lewis ----------------------------------------------------
   7. (0.00002) BD*( 1) C  1-Li  2
               (  9.64%)   0.3105* C  1 s( 17.46%)p 4.73( 82.54%)
               ( 90.36%)  -0.9506*Li  2 s( 89.33%)p 0.12( 10.67%)
   8. (0.00022) BD*( 1) C  1- H  3
               ( 40.03%)   0.6327* C  1 s( 27.53%)p 2.63( 72.47%)
                                         0.0000 -0.5244 -0.0179 -0.2299 -0.0085
                                        -0.8167 -0.0402 -0.0553 -0.0024
               ( 59.97%)  -0.7744* H  3 s(100.00%)
                                        -1.0000  0.0010
   9. (0.00022) BD*( 1) C  1- H  4
               ( 40.03%)   0.6327* C  1 s( 27.53%)p 2.63( 72.47%)
                                         0.0000 -0.5244 -0.0179 -0.3176 -0.0128
                                         0.3788  0.0187  0.6918  0.0344
               ( 59.97%)  -0.7744* H  4 s(100.00%)
                                        -1.0000  0.0010
  10. (0.00022) BD*( 1) C  1- H  5
               ( 40.03%)   0.6327* C  1 s( 27.53%)p 2.63( 72.47%)
                                         0.0000 -0.5244 -0.0179 -0.1705 -0.0056
                                         0.4324  0.0213 -0.7120 -0.0348
               ( 59.97%)  -0.7744* H  5 s(100.00%)
                                        -1.0000  0.0010
  11. (0.00003) RY ( 1) C  1            s( 57.02%)p 0.75( 42.98%)
  12. (0.00002) RY ( 2) C  1            s( 42.92%)p 1.33( 57.08%)
  13. (0.00000) RY ( 3) C  1            s(  0.00%)p 1.00(100.00%)
  14. (0.00000) RY ( 4) C  1            s(  0.00%)p 1.00(100.00%)
  15. (0.00200) RY ( 1)Li  2            s(  0.00%)p 1.00(100.00%)
                                         0.0000  0.0000  0.0000  0.0492  0.0290
                                         0.6858  0.4045 -0.5188 -0.3060
  16. (0.00200) RY ( 2)Li  2            s(  0.00%)p 1.00(100.00%)
                                         0.0000  0.0000  0.0000 -0.0757 -0.0446
                                         0.5211  0.3073  0.6817  0.4020
  17. (0.00064) RY ( 3)Li  2            s( 61.35%)p 0.63( 38.65%)
                                         0.0000 -0.1935  0.7590  0.5342 -0.3113
                                         0.0041 -0.0024  0.0561 -0.0327
  18. (0.00004) RY ( 4)Li  2            s( 46.31%)p 1.16( 53.69%)
  19. (0.00000) RY ( 5)Li  2            s(  0.00%)p 1.00(100.00%)
  20. (0.00000) RY ( 6)Li  2            s(  3.00%)p32.29( 97.00%)
  21. (0.00000) RY ( 7)Li  2            s(  0.00%)p 1.00(100.00%)
  22. (0.00119) RY ( 1) H  3            s(100.00%)
                                         0.0010  1.0000
  23. (0.00119) RY ( 1) H  4            s(100.00%)
                                         0.0010  1.0000
  24. (0.00119) RY ( 1) H  5            s(100.00%)
                                         0.0010  1.0000


 NHO DIRECTIONALITY AND BOND BENDING (deviation from line of nuclear centers at
                                      the position of maximum hybrid amplitude)

         [Thresholds for printing:  angular deviation  >  1.0 degree]
                                    p- or d-character  > 25.0%
                                    orbital occupancy  >  0.10e

                        Line of Centers        Hybrid 1             Hybrid 2
                        ---------------  -------------------  ------------------
           NBO            Theta   Phi    Theta   Phi    Dev   Theta   Phi    Dev
 ===============================================================================
   4. BD ( 1) C  1- H  3   85.7   68.1    86.1   72.4   4.3     --     --    --
   5. BD ( 1) C  1- H  4  140.5  317.7   143.3  312.5   4.3     --     --    --
   6. BD ( 1) C  1- H  5   35.1  301.9    33.6  294.7   4.3     --     --    --


 SECOND ORDER PERTURBATION THEORY ANALYSIS OF FOCK MATRIX IN NBO BASIS

     Threshold for printing:   0.50 kcal/mol
                                                          E(2) E(NL)-E(L) F(L,NL)
      Donor (L) NBO              Acceptor (NL) NBO      kcal/mol   a.u.    a.u.
 ===============================================================================

 within unit  1
    4. BD ( 1) C  1- H  3      23. RY ( 1) H  4            0.54    1.44   0.025
    4. BD ( 1) C  1- H  3      24. RY ( 1) H  5            0.54    1.44   0.025
    5. BD ( 1) C  1- H  4      22. RY ( 1) H  3            0.54    1.44   0.025
    5. BD ( 1) C  1- H  4      24. RY ( 1) H  5            0.54    1.44   0.025
    6. BD ( 1) C  1- H  5      22. RY ( 1) H  3            0.54    1.44   0.025
    6. BD ( 1) C  1- H  5      23. RY ( 1) H  4            0.54    1.44   0.025


 NATURAL BOND ORBITALS (Summary):

                                                     Principal Delocalizations
           NBO                 Occupancy    Energy   (geminal,vicinal,remote)
 ===============================================================================
 Molecular unit  1  (CH3Li)
 ------ Lewis --------------------------------------
    1. CR ( 1) C  1             1.99993   -11.08699
    2. CR ( 1)Li  2             1.99991    -2.41956
    3. BD ( 1) C  1-Li  2       1.99915    -0.29784
    4. BD ( 1) C  1- H  3       1.99734    -0.56877  23(v),24(v)
    5. BD ( 1) C  1- H  4       1.99734    -0.56877  22(v),24(v)
    6. BD ( 1) C  1- H  5       1.99734    -0.56877  22(v),23(v)
 ------ non-Lewis ----------------------------------
    7. BD*( 1) C  1-Li  2       0.00002     0.20765
    8. BD*( 1) C  1- H  3       0.00022     0.76667
    9. BD*( 1) C  1- H  4       0.00022     0.76667
   10. BD*( 1) C  1- H  5       0.00022     0.76667
   11. RY ( 1) C  1             0.00003     1.26232
   12. RY ( 2) C  1             0.00002     1.27006
   13. RY ( 3) C  1             0.00000     0.97628
   14. RY ( 4) C  1             0.00000     0.97628
   15. RY ( 1)Li  2             0.00200     0.15854
   16. RY ( 2)Li  2             0.00200     0.15854
   17. RY ( 3)Li  2             0.00064     0.33378
   18. RY ( 4)Li  2             0.00004     0.55606
   19. RY ( 5)Li  2             0.00000     0.26318
   20. RY ( 6)Li  2             0.00000     0.21353
   21. RY ( 7)Li  2             0.00000     0.26318
   22. RY ( 1) H  3             0.00119     0.87241
   23. RY ( 1) H  4             0.00119     0.87241
   24. RY ( 1) H  5             0.00119     0.87241
          -------------------------------
                 Total Lewis   11.99101  ( 99.9251%)
           Valence non-Lewis    0.00068  (  0.0057%)
           Rydberg non-Lewis    0.00831  (  0.0692%)
          -------------------------------
               Total unit  1   12.00000  (100.0000%)
              Charge unit  1    0.00000

 $CHOOSE
   BOND S 1 2 S 1 3 S 1 4 S 1 5 END
 $END

 NBO analysis completed in 0.28 CPU seconds (0 wall seconds)
 Maximum scratch memory used by NBO was 266365 words (2.03 MB)
 Maximum scratch memory used by G16NBO was 9129 words (0.07 MB)

 Opening RunExU unformatted file "/cluster/work/users/beto93/CH3Li/Gau-341059.EUF"
 Read unf file /cluster/work/users/beto93/CH3Li/Gau-341059.EUF:
 Label Gaussian matrix elements                                         IVers= 2 NLab= 2 Version=ES64L-G16RevC.01
 Title NBO-a                                                           
 NAtoms=     5 NBasis=    24 NBsUse=    24 ICharg=     0 Multip=     1 NE=    12 Len12L=8 Len4L=8 IOpCl= 0 ICGU=111
 GAUSSIAN SCALARS                    NI= 1 NR= 1 NTot=       1 LenBuf=    2 NRI=1 N=    1000
 NPA CHARGES                         NI= 0 NR= 1 NTot=       5 LenBuf= 4000 NRI=1 N=       5
 Recovered energy= -46.9596032863     dipole=     -2.163501337900     -0.016742248100     -0.227349300626
 Unable to Open any file for archive entry.
 1\1\GINC-C1-5\SP\RHF\4-31G\C1H3Li1\BETO93\24-Jul-2024\0\\#RHF/4-31G Po
 p=NBO7Read\\NBO-a\\0,1\C,0,0.000002,-0.000003,0.000002\Li,0,-0.946785,
 1.639879,-0.669478\H,0,0.029505,-0.051105,1.081096\H,0,1.029102,-0.051
 105,-0.332545\H,0,-0.470291,-0.91678,-0.332547\\Version=ES64L-G16RevC.
 01\State=1-A\HF=-46.9596033\RMSD=6.348e-09\Dipole=-1.0255314,1.7762696
 ,-0.7251605\Quadrupole=-0.9003425,2.7010294,-1.800687,-3.1188859,1.273
 2821,-2.205385\PG=C01 [X(C1H3Li1)]\\@
 The archive entry for this job was punched.


 LOGIC IS A SYSTEMATIC METHOD OF COMING TO THE
 WRONG CONCLUSION WITH CONFIDENCE.
 Job cpu time:       0 days  0 hours  0 minutes  8.6 seconds.
 Elapsed time:       0 days  0 hours  0 minutes  2.8 seconds.
 File lengths (MBytes):  RWF=     10 Int=      0 D2E=      0 Chk=      1 Scr=      1
 Normal termination of Gaussian 16 at Wed Jul 24 13:56:58 2024.
