 Entering Gaussian System, Link 0=g16
 Initial command:
 /cluster/software/Gaussian/g16_C.01/l1.exe "/cluster/work/users/beto93/mol81/Gau-1066594.inp" -scrdir="/cluster/work/users/beto93/mol81/"
 Entering Link 1 = /cluster/software/Gaussian/g16_C.01/l1.exe PID=   1066595.
  
 Copyright (c) 1988-2019, Gaussian, Inc.  All Rights Reserved.
  
 This is part of the Gaussian(R) 16 program.  It is based on
 the Gaussian(R) 09 system (copyright 2009, Gaussian, Inc.),
 the Gaussian(R) 03 system (copyright 2003, Gaussian, Inc.),
 the Gaussian(R) 98 system (copyright 1998, Gaussian, Inc.),
 the Gaussian(R) 94 system (copyright 1995, Gaussian, Inc.),
 the Gaussian 92(TM) system (copyright 1992, Gaussian, Inc.),
 the Gaussian 90(TM) system (copyright 1990, Gaussian, Inc.),
 the Gaussian 88(TM) system (copyright 1988, Gaussian, Inc.),
 the Gaussian 86(TM) system (copyright 1986, Carnegie Mellon
 University), and the Gaussian 82(TM) system (copyright 1983,
 Carnegie Mellon University). Gaussian is a federally registered
 trademark of Gaussian, Inc.
  
 This software contains proprietary and confidential information,
 including trade secrets, belonging to Gaussian, Inc.
  
 This software is provided under written license and may be
 used, copied, transmitted, or stored only in accord with that
 written license.
  
 The following legend is applicable only to US Government
 contracts under FAR:
  
                    RESTRICTED RIGHTS LEGEND
  
 Use, reproduction and disclosure by the US Government is
 subject to restrictions as set forth in subparagraphs (a)
 and (c) of the Commercial Computer Software - Restricted
 Rights clause in FAR 52.227-19.
  
 Gaussian, Inc.
 340 Quinnipiac St., Bldg. 40, Wallingford CT 06492
  
  
 ---------------------------------------------------------------
 Warning -- This program may not be used in any manner that
 competes with the business of Gaussian, Inc. or will provide
 assistance to any competitor of Gaussian, Inc.  The licensee
 of this program is prohibited from giving any competitor of
 Gaussian, Inc. access to this program.  By using this program,
 the user acknowledges that Gaussian, Inc. is engaged in the
 business of creating and licensing software in the field of
 computational chemistry and represents and warrants to the
 licensee that it is not a competitor of Gaussian, Inc. and that
 it will not use this program in any manner prohibited above.
 ---------------------------------------------------------------
  

 Cite this work as:
 Gaussian 16, Revision C.01,
 M. J. Frisch, G. W. Trucks, H. B. Schlegel, G. E. Scuseria, 
 M. A. Robb, J. R. Cheeseman, G. Scalmani, V. Barone, 
 G. A. Petersson, H. Nakatsuji, X. Li, M. Caricato, A. V. Marenich, 
 J. Bloino, B. G. Janesko, R. Gomperts, B. Mennucci, H. P. Hratchian, 
 J. V. Ortiz, A. F. Izmaylov, J. L. Sonnenberg, D. Williams-Young, 
 F. Ding, F. Lipparini, F. Egidi, J. Goings, B. Peng, A. Petrone, 
 T. Henderson, D. Ranasinghe, V. G. Zakrzewski, J. Gao, N. Rega, 
 G. Zheng, W. Liang, M. Hada, M. Ehara, K. Toyota, R. Fukuda, 
 J. Hasegawa, M. Ishida, T. Nakajima, Y. Honda, O. Kitao, H. Nakai, 
 T. Vreven, K. Throssell, J. A. Montgomery, Jr., J. E. Peralta, 
 F. Ogliaro, M. J. Bearpark, J. J. Heyd, E. N. Brothers, K. N. Kudin, 
 V. N. Staroverov, T. A. Keith, R. Kobayashi, J. Normand, 
 K. Raghavachari, A. P. Rendell, J. C. Burant, S. S. Iyengar, 
 J. Tomasi, M. Cossi, J. M. Millam, M. Klene, C. Adamo, R. Cammi, 
 J. W. Ochterski, R. L. Martin, K. Morokuma, O. Farkas, 
 J. B. Foresman, and D. J. Fox, Gaussian, Inc., Wallingford CT, 2019.
 
 ******************************************
 Gaussian 16:  ES64L-G16RevC.01  3-Jul-2019
                18-Nov-2024 
 ******************************************
 %LindaWorkers=c1-36-ib
 %NProcShared=4
 Will use up to    4 processors via shared memory.
 %mem=25GB
 %chk=mol81.chk
 SetLPE:    new flags="-opt 'Tsnet.Node.lindarsharg: ssh'  -nodelist 'c1-36-ib.saga' -env GAUSS_MDEF=3355443200 -env GAUSS_EXEDIR="/cluster/software/Gaussian/g16_C.01/bsd:/cluster/software/Gaussian/g16_C.01""
 Will use up to    1 processors via Linda.
 -----------------------------------------------------------------
 #RHF/6-31G* int=nobasistransform Symmetry=None 5D 7F Pop=NBO7Read
 -----------------------------------------------------------------
 1/38=1,163=2,172=1/1;
 2/12=2,15=3,17=6,18=5,40=1/2;
 3/5=1,6=6,7=1,8=11,11=1,25=1,30=1,60=-1,116=1/1,2,3;
 4//1;
 5/5=2,38=5/2;
 6/7=2,8=2,9=2,10=2,28=1,40=2,113=1,114=1,124=2103/1,12;
 99/5=1,9=1/99;
 ---------
 mol81-NBO
 ---------
 Symbolic Z-matrix:
 Charge =  0 Multiplicity = 1
 C                     0.        0.        0.58772 
 C                     0.        1.26686  -0.26019 
 C                     0.       -1.26686  -0.26019 
 H                    -0.8769    0.        1.24471 
 H                     0.8769    0.        1.24471 
 H                     0.        2.16615   0.36207 
 H                     0.       -2.16615   0.36207 
 H                     0.88362   1.30423  -0.90441 
 H                    -0.88362   1.30423  -0.90441 
 H                    -0.88362  -1.30423  -0.90441 
 H                     0.88362  -1.30423  -0.90441 
 
                          Input orientation:                          
 ---------------------------------------------------------------------
 Center     Atomic      Atomic             Coordinates (Angstroms)
 Number     Number       Type             X           Y           Z
 ---------------------------------------------------------------------
      1          6           0        0.000000    0.000000    0.587716
      2          6           0        0.000000    1.266857   -0.260186
      3          6           0        0.000000   -1.266857   -0.260186
      4          1           0       -0.876898    0.000000    1.244713
      5          1           0        0.876898    0.000000    1.244713
      6          1           0        0.000000    2.166150    0.362066
      7          1           0        0.000000   -2.166150    0.362066
      8          1           0        0.883619    1.304234   -0.904405
      9          1           0       -0.883619    1.304234   -0.904405
     10          1           0       -0.883619   -1.304234   -0.904405
     11          1           0        0.883619   -1.304234   -0.904405
 ---------------------------------------------------------------------
                    Distance matrix (angstroms):
                    1          2          3          4          5
     1  C    0.000000
     2  C    1.524423   0.000000
     3  C    1.524423   2.533714   0.000000
     4  H    1.095717   2.153740   2.153740   0.000000
     5  H    1.095717   2.153740   2.153740   1.753796   0.000000
     6  H    2.177871   1.093584   3.488945   2.498044   2.498044
     7  H    2.177871   3.488945   1.093584   2.498044   2.498044
     8  H    2.169847   1.094165   2.793977   3.069064   2.513917
     9  H    2.169847   1.094165   2.793977   2.513917   3.069064
    10  H    2.169847   2.793977   1.094165   2.513917   3.069064
    11  H    2.169847   2.793977   1.094165   3.069064   2.513917
                    6          7          8          9         10
     6  H    0.000000
     7  H    4.332300   0.000000
     8  H    1.768511   3.798460   0.000000
     9  H    1.768511   3.798460   1.767238   0.000000
    10  H    3.798460   1.768511   3.150752   2.608468   0.000000
    11  H    3.798460   1.768511   2.608468   3.150752   1.767238
                   11
    11  H    0.000000
 Symmetry turned off by external request.
 Stoichiometry    C3H8
 Rotational constants (GHZ):          29.4716056           8.4893510           7.5111403
 Standard basis: 6-31G(d) (5D, 7F)
    58 basis functions,   116 primitive gaussians,    61 cartesian basis functions
    13 alpha electrons       13 beta electrons
       nuclear repulsion energy        82.6505747516 Hartrees.
 NAtoms=   11 NActive=   11 NUniq=   11 SFac= 1.00D+00 NAtFMM=   60 NAOKFM=F Big=F
 Integral buffers will be    131072 words long.
 Raffenetti 1 integral format.
 Two-electron integral symmetry is turned off.
 One-electron integrals computed using PRISM.
 NBasis=    58 RedAO= T EigKep=  6.81D-03  NBF=    58
 NBsUse=    58 1.00D-06 EigRej= -1.00D+00 NBFU=    58
 ExpMin= 1.61D-01 ExpMax= 3.05D+03 ExpMxC= 4.57D+02 IAcc=3 IRadAn=         5 AccDes= 0.00D+00
 Harris functional with IExCor=  205 and IRadAn=       5 diagonalized for initial guess.
 HarFok:  IExCor=  205 AccDes= 0.00D+00 IRadAn=         5 IDoV= 1 UseB2=F ITyADJ=14
 ICtDFT=  3500011 ScaDFX=  1.000000  1.000000  1.000000  1.000000
 FoFCou: FMM=F IPFlag=           0 FMFlag=      100000 FMFlg1=           0
         NFxFlg=           0 DoJE=T BraDBF=F KetDBF=T FulRan=T
         wScrn=  0.000000 ICntrl=       500 IOpCl=  0 I1Cent=   200000004 NGrid=           0
         NMat0=    1 NMatS0=      1 NMatT0=    0 NMatD0=    1 NMtDS0=    0 NMtDT0=    0
 Symmetry not used in FoFCou.
 Keep R1 ints in memory in canonical form, NReq=2320162.
 Requested convergence on RMS density matrix=1.00D-08 within 128 cycles.
 Requested convergence on MAX density matrix=1.00D-06.
 Requested convergence on             energy=1.00D-06.
 No special actions if energy rises.
 SCF Done:  E(RHF) =  -118.262616315     A.U. after   10 cycles
            NFock= 10  Conv=0.80D-08     -V/T= 1.9995

 **********************************************************************

            Population analysis using the SCF Density.

 **********************************************************************

 Alpha  occ. eigenvalues --  -11.21477 -11.20692 -11.20688  -1.05337  -0.92429
 Alpha  occ. eigenvalues --   -0.79854  -0.62390  -0.59739  -0.54933  -0.53028
 Alpha  occ. eigenvalues --   -0.47486  -0.47481  -0.46669
 Alpha virt. eigenvalues --    0.23284   0.29537   0.29606   0.29616   0.31698
 Alpha virt. eigenvalues --    0.34143   0.34976   0.35353   0.39376   0.44290
 Alpha virt. eigenvalues --    0.71322   0.71604   0.74915   0.76108   0.78670
 Alpha virt. eigenvalues --    0.94075   0.97842   0.97889   1.01734   1.14250
 Alpha virt. eigenvalues --    1.16239   1.17261   1.18743   1.20428   1.22914
 Alpha virt. eigenvalues --    1.24910   1.26194   1.26597   1.65003   1.73664
 Alpha virt. eigenvalues --    1.75302   1.81942   2.04021   2.20708   2.24770
 Alpha virt. eigenvalues --    2.29345   2.35710   2.42166   2.57224   2.59638
 Alpha virt. eigenvalues --    2.67244   2.73011   2.76488   2.92569   3.03373
          Condensed to atoms (all electrons):
               1          2          3          4          5          6
     1  C    5.060203   0.336309   0.336309   0.401834   0.401834  -0.036127
     2  C    0.336309   5.125119  -0.063088  -0.042302  -0.042302   0.393596
     3  C    0.336309  -0.063088   5.125119  -0.042302  -0.042302   0.004442
     4  H    0.401834  -0.042302  -0.042302   0.560940  -0.033209  -0.002575
     5  H    0.401834  -0.042302  -0.042302  -0.033209   0.560940  -0.002575
     6  H   -0.036127   0.393596   0.004442  -0.002575  -0.002575   0.536487
     7  H   -0.036127   0.004442   0.393596  -0.002575  -0.002575  -0.000097
     8  H   -0.039179   0.390141  -0.003384   0.004348  -0.003172  -0.028261
     9  H   -0.039179   0.390141  -0.003384  -0.003172   0.004348  -0.028261
    10  H   -0.039179  -0.003384   0.390141  -0.003172   0.004348  -0.000068
    11  H   -0.039179  -0.003384   0.390141   0.004348  -0.003172  -0.000068
               7          8          9         10         11
     1  C   -0.036127  -0.039179  -0.039179  -0.039179  -0.039179
     2  C    0.004442   0.390141   0.390141  -0.003384  -0.003384
     3  C    0.393596  -0.003384  -0.003384   0.390141   0.390141
     4  H   -0.002575   0.004348  -0.003172  -0.003172   0.004348
     5  H   -0.002575  -0.003172   0.004348   0.004348  -0.003172
     6  H   -0.000097  -0.028261  -0.028261  -0.000068  -0.000068
     7  H    0.536487  -0.000068  -0.000068  -0.028261  -0.028261
     8  H   -0.000068   0.547906  -0.030113   0.000078   0.002852
     9  H   -0.000068  -0.030113   0.547906   0.002852   0.000078
    10  H   -0.028261   0.000078   0.002852   0.547906  -0.030113
    11  H   -0.028261   0.002852   0.000078  -0.030113   0.547906
 Mulliken charges:
               1
     1  C   -0.307519
     2  C   -0.485289
     3  C   -0.485289
     4  H    0.157836
     5  H    0.157836
     6  H    0.163509
     7  H    0.163509
     8  H    0.158852
     9  H    0.158852
    10  H    0.158852
    11  H    0.158852
 Sum of Mulliken charges =  -0.00000
 Mulliken charges with hydrogens summed into heavy atoms:
               1
     1  C    0.008153
     2  C   -0.004076
     3  C   -0.004076
 Electronic spatial extent (au):  <R**2>=            226.2461
 Charge=             -0.0000 electrons
 Dipole moment (field-independent basis, Debye):
    X=              0.0000    Y=              0.0000    Z=              0.0651  Tot=              0.0651
 Quadrupole moment (field-independent basis, Debye-Ang):
   XX=            -21.5608   YY=            -22.3843   ZZ=            -21.9994
   XY=              0.0000   XZ=             -0.0000   YZ=              0.0000
 Traceless Quadrupole moment (field-independent basis, Debye-Ang):
   XX=              0.4207   YY=             -0.4028   ZZ=             -0.0179
   XY=              0.0000   XZ=             -0.0000   YZ=              0.0000
 Octapole moment (field-independent basis, Debye-Ang**2):
  XXX=             -0.0000  YYY=             -0.0000  ZZZ=              0.1939  XYY=              0.0000
  XXY=             -0.0000  XXZ=             -0.4740  XZZ=             -0.0000  YZZ=             -0.0000
  YYZ=              1.4525  XYZ=             -0.0000
 Hexadecapole moment (field-independent basis, Debye-Ang**3):
 XXXX=            -42.7968 YYYY=           -201.0794 ZZZZ=            -70.1359 XXXY=              0.0000
 XXXZ=             -0.0000 YYYX=              0.0000 YYYZ=              0.0000 ZZZX=             -0.0000
 ZZZY=              0.0000 XXYY=            -41.6330 XXZZ=            -16.8960 YYZZ=            -44.8404
 XXYZ=              0.0000 YYXZ=              0.0000 ZZXY=              0.0000
 N-N= 8.265057475164D+01 E-N=-4.399071720354D+02  KE= 1.183248299382D+02
 Running external command "gaunbo7 R"
         input file       "/cluster/work/users/beto93/mol81/Gau-1066595.EIn"
         output file      "/cluster/work/users/beto93/mol81/Gau-1066595.EOu"
         message file     "/cluster/work/users/beto93/mol81/Gau-1066595.EMs"
         fchk file        "/cluster/work/users/beto93/mol81/Gau-1066595.EFC"
         mat. el file     "/cluster/work/users/beto93/mol81/Gau-1066595.EUF"

 Writing WrtUnf unformatted file "/cluster/work/users/beto93/mol81/Gau-1066595.EUF"
 Gaussian matrix elements                                         Version   2 NLab=11 Len12L=8 Len4L=8
 Write SHELL TO ATOM MAP                   from file      0 offset           0 length                  28 to matrix element file.
 Write SHELL TYPES                         from file      0 offset           0 length                  28 to matrix element file.
 Write NUMBER OF PRIMITIVES PER SHELL      from file      0 offset           0 length                  28 to matrix element file.
 Write PRIMITIVE EXPONENTS                 from file      0 offset           0 length                  65 to matrix element file.
 Write CONTRACTION COEFFICIENTS            from file      0 offset           0 length                  65 to matrix element file.
 Write P(S=P) CONTRACTION COEFFICIENTS     from file      0 offset           0 length                  65 to matrix element file.
 Write COORDINATES OF EACH SHELL           from file      0 offset           0 length                  84 to matrix element file.
 Write BONDS PER ATOM                      from file      0 offset           0 length                  11 to matrix element file.
 Write BONDED ATOMS                        from file      0 offset           0 length                  20 to matrix element file.
 Write BOND TYPES                          from file      0 offset           0 length                  20 to matrix element file.
 Write ONIOM CHARGE/MULT                   from file      0 offset           0 length                  32 to matrix element file.
 Write ONIOM ATOM LAYERS                   from file      0 offset           0 length                  11 to matrix element file.
 Write ONIOM ATOM MODIFIERS                from file      0 offset           0 length                  11 to matrix element file.
 Write ONIOM ATOM TYPES                    from file      0 offset           0 length                  11 to matrix element file.
 Write ONIOM LINK ATOMS                    from file      0 offset           0 length                  11 to matrix element file.
 Write ONIOM LINK CHARGES                  from file      0 offset           0 length                  11 to matrix element file.
 Write ONIOM LINK DISTANCES                from file      0 offset           0 length                  44 to matrix element file.
 Write SYMINF INTS                         from file      0 offset           0 length                  26 to matrix element file.
 Write ROTTR TO SO                         from file      0 offset           0 length                  12 to matrix element file.
 Write GAUSSIAN SCALARS                    from file    501 offset           0 to matrix element file.
 Write OPTIMIZATION FLAGS                  from file      0 offset           0 length                  11 to matrix element file.
 Write INTEGER ISO                         from file      0 offset           0 length                  11 to matrix element file.
 Write INTEGER SPIN                        from file      0 offset           0 length                  11 to matrix element file.
 Write REAL ZEFFECTIVE                     from file      0 offset           0 length                  11 to matrix element file.
 Write REAL GFACTOR                        from file      0 offset           0 length                  11 to matrix element file.
 Write REAL ZNUCLEAR                       from file      0 offset           0 length                  11 to matrix element file.
 Write MULLIKEN CHARGES                    from file      0 offset           0 length                  11 to matrix element file.
 Write NUCLEAR GRADIENT                    from file  10584 offset           0 length                  33 to matrix element file.
 Array NUCLEAR FORCE CONSTANTS              on  file  10585 does not exist.
 Write ELECTRIC DIPOLE MOMENT              from file      0 offset           0 length                   3 to matrix element file.
 Write NON-ADIABATIC COUPLING              from file  10810 offset           0 length                  33 to matrix element file.
 Write FINITE EM FIELD                     from file  10521 offset           0 length                  35 to matrix element file.
 Write OVERLAP                             from file  10514 offset           0 length                1711 to matrix element file.
 Write CORE HAMILTONIAN ALPHA              from file  10515 offset           0 length                1711 to matrix element file.
 Write CORE HAMILTONIAN BETA               from file  10515 offset        1711 length                1711 to matrix element file.
 Write KINETIC ENERGY                      from file  10516 offset           0 length                1711 to matrix element file.
 Write ORTHOGONAL BASIS                    from file  10685 offset           0 length                3364 to matrix element file.
 Write DIPOLE INTEGRALS                    from file  10518 offset           0 length                5133 to matrix element file.
 Array DIP VEL INTEGRALS                    on  file  10572 does not exist.
 Array R X DEL INTEGRALS                    on  file  10572 does not exist.
 Write ALPHA ORBITAL ENERGIES              from file      0 offset           0 length                  58 to matrix element file.
 Write ALPHA MO COEFFICIENTS               from file  10524 offset           0 length                3364 to matrix element file.
 Write ALPHA DENSITY MATRIX                from file      0 offset           0 length                1711 to matrix element file.
 Write ALPHA FOCK MATRIX                   from file  10536 offset           0 length                1711 to matrix element file.
 Write ENERGY-WEIGHTED DENSITY             from file  10571 offset           0 length                1711 to matrix element file.
 Write ALPHA SCF DENSITY MATRIX            from file      0 offset           0 length                1711 to matrix element file.
 No 2e integrals to process.
 Perform NBO analysis...executing G16NBO...

 *********************************** NBO 7.0 ***********************************
             N A T U R A L   A T O M I C   O R B I T A L   A N D
          N A T U R A L   B O N D   O R B I T A L   A N A L Y S I S
 **************************** Espen Tangen (S101595) ***************************
  (c) Copyright 1996-2021 Board of Regents of the University of Wisconsin System
      on behalf of the Theoretical Chemistry Institute.  All rights reserved.

          Cite this program [NBO 7.0.10 (8-Feb-2021)] as:

          NBO 7.0.  E. D. Glendening, J. K. Badenhoop, A. E. Reed,
          J. E. Carpenter, J. A. Bohmann, C. M. Morales, P. Karafiloglou,
          C. R. Landis, and F. Weinhold, Theoretical Chemistry Institute,
          University of Wisconsin, Madison, WI (2018)

       /NPA    / : Natural Population Analysis
       /AOPNAO / : Print the AO to PNAO transformation
       /AONAO  / : Print the AO to NAO transformation
       /AOMO   / : Print the MOs in the AO basis
       /BOAO   / : Print the AO bond-order matrix
       /DMAO   / : Print the AO density matrix
       /DMPNAO / : Print the PNAO density matrix
       /DMNAO  / : Print the NAO density matrix
       /DMMO   / : Print the MO density matrix
       /SAO    / : Print the AO overlap matrix
       /SPNAO  / : Print the PNAO overlap matrix
       /DETAIL / : Write details of NBO search
       /ARCHIVE/ : Write the archive file to lfn47
       /AOINFO / : Write AO information to lfn31
       /FILE   / : Set to mol81.gen*

 Filename set to mol81.gen1

 Job title: mol81-NBO


 MOs in the AO basis:

           AO          1       2       3       4       5       6       7       8
      ------------ ------- ------- ------- ------- ------- ------- ------- -------
   1.  C 1 (s)      0.9949  0.0000 -0.0529 -0.1455  0.0000 -0.1276  0.0000  0.0211
   2.  C 1 (s)      0.0262  0.0000 -0.0017  0.2747  0.0000  0.2420  0.0000 -0.0416
   3.  C 1 (px)     0.0000  0.0000  0.0000  0.0000  0.0000  0.0000  0.2980  0.0000
   4.  C 1 (py)     0.0000  0.0000  0.0000  0.0000  0.1465  0.0000  0.0000  0.0000
   5.  C 1 (pz)    -0.0001  0.0000  0.0001 -0.0433  0.0000  0.1300  0.0000  0.2324
   6.  C 1 (s)     -0.0197  0.0000  0.0056  0.2334  0.0000  0.3048  0.0000 -0.0575
   7.  C 1 (px)     0.0000  0.0000  0.0000  0.0000  0.0000  0.0000  0.1439  0.0000
   8.  C 1 (py)     0.0000  0.0026  0.0000  0.0000  0.0320  0.0000  0.0000  0.0000
   9.  C 1 (pz)     0.0010  0.0000 -0.0012 -0.0054  0.0000  0.0462  0.0000  0.1112
  10.  C 1 (d5)     0.0000  0.0000  0.0000  0.0001  0.0000  0.0001  0.0000 -0.0075
  11.  C 1 (d2)     0.0000  0.0000  0.0000  0.0000  0.0000  0.0000  0.0168  0.0000
  12.  C 1 (d3)     0.0000  0.0004  0.0000  0.0000 -0.0171  0.0000  0.0000  0.0000
  13.  C 1 (d4)     0.0001  0.0000  0.0004 -0.0042  0.0000  0.0161  0.0000  0.0080
  14.  C 1 (d1)     0.0000  0.0000  0.0000  0.0000  0.0000  0.0000  0.0000  0.0000
  15.  C 2 (s)      0.0373  0.7045  0.7034 -0.1085 -0.1401  0.0802  0.0000 -0.0088
  16.  C 2 (s)      0.0006  0.0186  0.0179  0.2059  0.2641 -0.1514  0.0000  0.0134
  17.  C 2 (px)     0.0000  0.0000  0.0000  0.0000  0.0000  0.0000  0.2223  0.0000
  18.  C 2 (py)     0.0000 -0.0002  0.0000 -0.0528  0.0235 -0.0960  0.0000  0.2560
  19.  C 2 (pz)     0.0000  0.0000  0.0000  0.0279  0.0001  0.0989  0.0000  0.1231
  20.  C 2 (s)      0.0039 -0.0134 -0.0120  0.1726  0.2786 -0.1952  0.0000  0.0379
  21.  C 2 (px)     0.0000  0.0000  0.0000  0.0000  0.0000  0.0000  0.1034  0.0000
  22.  C 2 (py)    -0.0018  0.0010  0.0001 -0.0057  0.0075 -0.0273  0.0000  0.1175
  23.  C 2 (pz)     0.0012  0.0002 -0.0004  0.0030 -0.0032  0.0319  0.0000  0.0647
  24.  C 2 (d5)     0.0000  0.0000  0.0000 -0.0008  0.0009  0.0009  0.0000  0.0035
  25.  C 2 (d2)     0.0000  0.0000  0.0000  0.0000  0.0000  0.0000 -0.0132  0.0000
  26.  C 2 (d3)     0.0003  0.0000  0.0000 -0.0052  0.0034 -0.0123  0.0000  0.0171
  27.  C 2 (d4)     0.0002  0.0000  0.0000 -0.0043  0.0026 -0.0094  0.0000 -0.0069
  28.  C 2 (d1)     0.0000  0.0000  0.0000  0.0000  0.0000  0.0000 -0.0046  0.0000
  29.  C 3 (s)      0.0373 -0.7045  0.7034 -0.1085  0.1401  0.0802  0.0000 -0.0088
  30.  C 3 (s)      0.0006 -0.0186  0.0179  0.2059 -0.2641 -0.1514  0.0000  0.0134
  31.  C 3 (px)     0.0000  0.0000  0.0000  0.0000  0.0000  0.0000  0.2223  0.0000
  32.  C 3 (py)     0.0000 -0.0002  0.0000  0.0528  0.0235  0.0960  0.0000 -0.2560
  33.  C 3 (pz)     0.0000  0.0000  0.0000  0.0279 -0.0001  0.0989  0.0000  0.1231
  34.  C 3 (s)      0.0039  0.0134 -0.0120  0.1726 -0.2786 -0.1952  0.0000  0.0379
  35.  C 3 (px)     0.0000  0.0000  0.0000  0.0000  0.0000  0.0000  0.1034  0.0000
  36.  C 3 (py)     0.0018  0.0010 -0.0001  0.0057  0.0075  0.0273  0.0000 -0.1175
  37.  C 3 (pz)     0.0012 -0.0002 -0.0004  0.0030  0.0032  0.0319  0.0000  0.0647
  38.  C 3 (d5)     0.0000  0.0000  0.0000 -0.0008 -0.0009  0.0009  0.0000  0.0035
  39.  C 3 (d2)     0.0000  0.0000  0.0000  0.0000  0.0000  0.0000 -0.0132  0.0000
  40.  C 3 (d3)    -0.0003  0.0000  0.0000  0.0052  0.0034  0.0123  0.0000 -0.0171
  41.  C 3 (d4)     0.0002  0.0000  0.0000 -0.0043 -0.0026 -0.0094  0.0000 -0.0069
  42.  C 3 (d1)     0.0000  0.0000  0.0000  0.0000  0.0000  0.0000  0.0046  0.0000
  43.  H 4 (s)      0.0001  0.0000 -0.0003  0.0792  0.0000  0.1364 -0.1447  0.0661
  44.  H 4 (s)      0.0032  0.0000  0.0000  0.0110  0.0000  0.0561 -0.0994  0.0508
  45.  H 5 (s)      0.0001  0.0000 -0.0003  0.0792  0.0000  0.1364  0.1447  0.0661
  46.  H 5 (s)      0.0032  0.0000  0.0000  0.0110  0.0000  0.0561  0.0994  0.0508
  47.  H 6 (s)     -0.0002  0.0000  0.0000  0.0568  0.1046 -0.0730  0.0000  0.1826
  48.  H 6 (s)      0.0001  0.0018  0.0024  0.0074  0.0295 -0.0309  0.0000  0.1363
  49.  H 7 (s)     -0.0002  0.0000  0.0000  0.0568 -0.1046 -0.0730  0.0000  0.1826
  50.  H 7 (s)      0.0001 -0.0018  0.0024  0.0074 -0.0295 -0.0309  0.0000  0.1363
  51.  H 8 (s)     -0.0002  0.0001  0.0000  0.0604  0.0959 -0.0930  0.1102 -0.0334
  52.  H 8 (s)      0.0002  0.0025  0.0020  0.0095  0.0237 -0.0405  0.0796 -0.0266
  53.  H 9 (s)     -0.0002  0.0001  0.0000  0.0604  0.0959 -0.0930 -0.1102 -0.0334
  54.  H 9 (s)      0.0002  0.0025  0.0020  0.0095  0.0237 -0.0405 -0.0796 -0.0266
  55.  H10 (s)     -0.0002 -0.0001  0.0000  0.0604 -0.0959 -0.0930 -0.1102 -0.0334
  56.  H10 (s)      0.0002 -0.0025  0.0020  0.0095 -0.0237 -0.0405 -0.0796 -0.0266
  57.  H11 (s)     -0.0002 -0.0001  0.0000  0.0604 -0.0959 -0.0930  0.1102 -0.0334
  58.  H11 (s)      0.0002 -0.0025  0.0020  0.0095 -0.0237 -0.0405  0.0796 -0.0266

           AO          9      10      11      12      13      14      15      16
      ------------ ------- ------- ------- ------- ------- ------- ------- -------
   1.  C 1 (s)      0.0000  0.0000  0.0114  0.0000  0.0000 -0.0663  0.0000  0.0000
   2.  C 1 (s)      0.0000  0.0000 -0.0308  0.0000  0.0000  0.0416  0.0000  0.0000
   3.  C 1 (px)     0.0000  0.0000  0.0000  0.0000  0.3176  0.0000  0.0000  0.1990
   4.  C 1 (py)     0.2251  0.0000  0.0000  0.3291  0.0000  0.0000 -0.0764  0.0000
   5.  C 1 (pz)     0.0000  0.0000  0.3346  0.0000  0.0000  0.1078  0.0000  0.0000
   6.  C 1 (s)      0.0000  0.0000 -0.0101  0.0000  0.0000  1.2428  0.0000  0.0000
   7.  C 1 (px)     0.0000  0.0000  0.0000  0.0000  0.1990  0.0000  0.0000  0.6156
   8.  C 1 (py)     0.1096  0.0000  0.0000  0.1713  0.0000  0.0000 -0.7427  0.0000
   9.  C 1 (pz)     0.0000  0.0000  0.1876  0.0000  0.0000  0.4732  0.0000  0.0000
  10.  C 1 (d5)     0.0000  0.0000  0.0078  0.0000  0.0000  0.0015  0.0000  0.0000
  11.  C 1 (d2)     0.0000  0.0000  0.0000  0.0000  0.0375  0.0000  0.0000 -0.0157
  12.  C 1 (d3)    -0.0061  0.0000  0.0000 -0.0245  0.0000  0.0000 -0.0061  0.0000
  13.  C 1 (d4)     0.0000  0.0000  0.0306  0.0000  0.0000 -0.0045  0.0000  0.0000
  14.  C 1 (d1)     0.0000  0.0117  0.0000  0.0000  0.0000  0.0000  0.0000  0.0000
  15.  C 2 (s)      0.0033  0.0000  0.0168 -0.0187  0.0000 -0.0748 -0.1094  0.0000
  16.  C 2 (s)     -0.0006  0.0000 -0.0327  0.0366  0.0000  0.0521  0.0511  0.0000
  17.  C 2 (px)     0.0000  0.3130  0.0000  0.0000 -0.2021  0.0000  0.0000  0.2014
  18.  C 2 (py)     0.0034  0.0000  0.0675 -0.3205  0.0000  0.0747  0.0763  0.0000
  19.  C 2 (pz)     0.3058  0.0000 -0.2584  0.0054  0.0000 -0.0626 -0.0131  0.0000
  20.  C 2 (s)     -0.0289  0.0000 -0.0608  0.0573  0.0000  1.2883  2.1551  0.0000
  21.  C 2 (px)     0.0000  0.1739  0.0000  0.0000 -0.1246  0.0000  0.0000  0.6771
  22.  C 2 (py)     0.0140  0.0000  0.0286 -0.1857  0.0000  0.3709  0.1100  0.0000
  23.  C 2 (pz)     0.1608  0.0000 -0.1493 -0.0097  0.0000 -0.3523 -0.0054  0.0000
  24.  C 2 (d5)     0.0010  0.0000  0.0059  0.0032  0.0000  0.0039 -0.0040  0.0000
  25.  C 2 (d2)     0.0000 -0.0262  0.0000  0.0000  0.0255  0.0000  0.0000  0.0059
  26.  C 2 (d3)     0.0034  0.0000 -0.0024 -0.0249  0.0000 -0.0069  0.0033  0.0000
  27.  C 2 (d4)    -0.0228  0.0000  0.0239  0.0065  0.0000  0.0008 -0.0073  0.0000
  28.  C 2 (d1)     0.0000  0.0021  0.0000  0.0000 -0.0062  0.0000  0.0000 -0.0068
  29.  C 3 (s)     -0.0033  0.0000  0.0168  0.0187  0.0000 -0.0748  0.1094  0.0000
  30.  C 3 (s)      0.0006  0.0000 -0.0327 -0.0366  0.0000  0.0521 -0.0511  0.0000
  31.  C 3 (px)     0.0000 -0.3130  0.0000  0.0000 -0.2021  0.0000  0.0000  0.2014
  32.  C 3 (py)     0.0034  0.0000 -0.0675 -0.3205  0.0000 -0.0747  0.0763  0.0000
  33.  C 3 (pz)    -0.3058  0.0000 -0.2584 -0.0054  0.0000 -0.0626  0.0131  0.0000
  34.  C 3 (s)      0.0289  0.0000 -0.0608 -0.0573  0.0000  1.2883 -2.1551  0.0000
  35.  C 3 (px)     0.0000 -0.1739  0.0000  0.0000 -0.1246  0.0000  0.0000  0.6771
  36.  C 3 (py)     0.0140  0.0000 -0.0286 -0.1857  0.0000 -0.3709  0.1100  0.0000
  37.  C 3 (pz)    -0.1608  0.0000 -0.1493  0.0097  0.0000 -0.3523  0.0054  0.0000
  38.  C 3 (d5)    -0.0010  0.0000  0.0059 -0.0032  0.0000  0.0039  0.0040  0.0000
  39.  C 3 (d2)     0.0000  0.0262  0.0000  0.0000  0.0255  0.0000  0.0000  0.0059
  40.  C 3 (d3)     0.0034  0.0000  0.0024 -0.0249  0.0000  0.0069  0.0033  0.0000
  41.  C 3 (d4)     0.0228  0.0000  0.0239 -0.0065  0.0000  0.0008  0.0073  0.0000
  42.  C 3 (d1)     0.0000  0.0021  0.0000  0.0000  0.0062  0.0000  0.0000  0.0068
  43.  H 4 (s)      0.0000  0.0000  0.1336  0.0000 -0.1925  0.0086  0.0000  0.0538
  44.  H 4 (s)      0.0000  0.0000  0.1311  0.0000 -0.1909 -0.7302  0.0000  0.9337
  45.  H 5 (s)      0.0000  0.0000  0.1336  0.0000  0.1925  0.0086  0.0000 -0.0538
  46.  H 5 (s)      0.0000  0.0000  0.1311  0.0000  0.1909 -0.7302  0.0000 -0.9337
  47.  H 6 (s)      0.1169  0.0000 -0.0888 -0.1724  0.0000 -0.0178  0.0411  0.0000
  48.  H 6 (s)      0.0935  0.0000 -0.0810 -0.1641  0.0000 -0.6633 -0.8371  0.0000
  49.  H 7 (s)     -0.1169  0.0000 -0.0888  0.1724  0.0000 -0.0178 -0.0411  0.0000
  50.  H 7 (s)     -0.0935  0.0000 -0.0810  0.1641  0.0000 -0.6633  0.8371  0.0000
  51.  H 8 (s)     -0.1190  0.1702  0.0990  0.0112 -0.1277  0.0116 -0.0189 -0.0206
  52.  H 8 (s)     -0.0921  0.1408  0.1056  0.0050 -0.1323 -0.6696 -0.8426 -0.8623
  53.  H 9 (s)     -0.1190 -0.1702  0.0990  0.0112  0.1277  0.0116 -0.0189  0.0206
  54.  H 9 (s)     -0.0921 -0.1408  0.1056  0.0050  0.1323 -0.6696 -0.8426  0.8623
  55.  H10 (s)      0.1190  0.1702  0.0990 -0.0112  0.1277  0.0116  0.0189  0.0206
  56.  H10 (s)      0.0921  0.1408  0.1056 -0.0050  0.1323 -0.6696  0.8426  0.8623
  57.  H11 (s)      0.1190 -0.1702  0.0990 -0.0112 -0.1277  0.0116  0.0189 -0.0206
  58.  H11 (s)      0.0921 -0.1408  0.1056 -0.0050 -0.1323 -0.6696  0.8426 -0.8623

           AO         17      18      19      20      21      22      23      24
      ------------ ------- ------- ------- ------- ------- ------- ------- -------
   1.  C 1 (s)     -0.0582 -0.1081  0.0000  0.0000  0.0000 -0.0969  0.0000  0.0000
   2.  C 1 (s)      0.0010  0.0502  0.0000  0.0000  0.0000  0.0165  0.0000  0.0000
   3.  C 1 (px)     0.0000  0.0000  0.2669  0.0000  0.0000  0.0000  0.0000  0.0000
   4.  C 1 (py)     0.0000  0.0000  0.0000  0.0000 -0.0598  0.0000  0.3030 -0.4896
   5.  C 1 (pz)     0.1065  0.0896  0.0000  0.0000  0.0000 -0.2472  0.0000  0.0000
   6.  C 1 (s)      1.2248  2.1542  0.0000  0.0000  0.0000  2.2918  0.0000  0.0000
   7.  C 1 (px)     0.0000  0.0000  1.6738  0.0000  0.0000  0.0000  0.0000  0.0000
   8.  C 1 (py)     0.0000  0.0000  0.0000  0.0000 -0.0086  0.0000  2.1841  0.7239
   9.  C 1 (pz)    -0.0891  0.6690  0.0000  0.0000  0.0000 -1.9387  0.0000  0.0000
  10.  C 1 (d5)    -0.0206  0.0108  0.0000  0.0000  0.0000 -0.0051  0.0000  0.0000
  11.  C 1 (d2)     0.0000  0.0000  0.0009  0.0000  0.0000  0.0000  0.0000  0.0000
  12.  C 1 (d3)     0.0000  0.0000  0.0000  0.0000 -0.0131  0.0000  0.0157  0.1059
  13.  C 1 (d4)    -0.0095  0.0019  0.0000  0.0000  0.0000  0.0117  0.0000  0.0000
  14.  C 1 (d1)     0.0000  0.0000  0.0000 -0.0280  0.0000  0.0000  0.0000  0.0000
  15.  C 2 (s)      0.0260  0.0647  0.0000  0.0000 -0.0116  0.0550  0.0274 -0.0054
  16.  C 2 (s)      0.0185 -0.0339  0.0000  0.0000  0.0340  0.0055 -0.0075 -0.0968
  17.  C 2 (px)     0.0000  0.0000 -0.1256 -0.2130  0.0000  0.0000  0.0000  0.0000
  18.  C 2 (py)     0.0741 -0.0609  0.0000  0.0000 -0.1938  0.0780  0.1462  0.3345
  19.  C 2 (pz)     0.1827 -0.0465  0.0000  0.0000 -0.1751 -0.1008 -0.1404 -0.3527
  20.  C 2 (s)     -0.7394 -1.1141  0.0000  0.0000 -0.0245 -1.3580 -0.7362 -0.1471
  21.  C 2 (px)     0.0000  0.0000 -1.0176 -1.1013  0.0000  0.0000  0.0000  0.0000
  22.  C 2 (py)     0.5119 -0.2747  0.0000  0.0000 -0.8055  1.3283  0.9629 -0.5276
  23.  C 2 (pz)     0.6887 -0.5509  0.0000  0.0000 -0.8277 -0.4622 -1.2378  0.4486
  24.  C 2 (d5)     0.0038  0.0031  0.0000  0.0000  0.0023 -0.0158  0.0168  0.0127
  25.  C 2 (d2)     0.0000  0.0000  0.0037 -0.0152  0.0000  0.0000  0.0000  0.0000
  26.  C 2 (d3)    -0.0071  0.0010  0.0000  0.0000  0.0031 -0.0126 -0.0167  0.0366
  27.  C 2 (d4)     0.0114 -0.0127  0.0000  0.0000  0.0012 -0.0070 -0.0051  0.0627
  28.  C 2 (d1)     0.0000  0.0000 -0.0185  0.0020  0.0000  0.0000  0.0000  0.0000
  29.  C 3 (s)      0.0260  0.0647  0.0000  0.0000  0.0116  0.0550 -0.0274  0.0054
  30.  C 3 (s)      0.0185 -0.0339  0.0000  0.0000 -0.0340  0.0055  0.0075  0.0968
  31.  C 3 (px)     0.0000  0.0000 -0.1256  0.2130  0.0000  0.0000  0.0000  0.0000
  32.  C 3 (py)    -0.0741  0.0609  0.0000  0.0000 -0.1938 -0.0780  0.1462  0.3345
  33.  C 3 (pz)     0.1827 -0.0465  0.0000  0.0000  0.1751 -0.1008  0.1404  0.3527
  34.  C 3 (s)     -0.7394 -1.1141  0.0000  0.0000  0.0245 -1.3580  0.7362  0.1471
  35.  C 3 (px)     0.0000  0.0000 -1.0176  1.1013  0.0000  0.0000  0.0000  0.0000
  36.  C 3 (py)    -0.5119  0.2747  0.0000  0.0000 -0.8055 -1.3283  0.9629 -0.5276
  37.  C 3 (pz)     0.6887 -0.5509  0.0000  0.0000  0.8277 -0.4622  1.2378 -0.4486
  38.  C 3 (d5)     0.0038  0.0031  0.0000  0.0000 -0.0023 -0.0158 -0.0168 -0.0127
  39.  C 3 (d2)     0.0000  0.0000  0.0037  0.0152  0.0000  0.0000  0.0000  0.0000
  40.  C 3 (d3)     0.0071 -0.0010  0.0000  0.0000  0.0031  0.0126 -0.0167  0.0366
  41.  C 3 (d4)     0.0114 -0.0127  0.0000  0.0000 -0.0012 -0.0070  0.0051 -0.0627
  42.  C 3 (d1)     0.0000  0.0000  0.0185  0.0020  0.0000  0.0000  0.0000  0.0000
  43.  H 4 (s)     -0.0187 -0.0066  0.0061  0.0000  0.0000  0.0582  0.0000  0.0000
  44.  H 4 (s)     -0.6041 -1.1714  1.4205  0.0000  0.0000  0.5403  0.0000  0.0000
  45.  H 5 (s)     -0.0187 -0.0066 -0.0061  0.0000  0.0000  0.0582  0.0000  0.0000
  46.  H 5 (s)     -0.6041 -1.1714 -1.4205  0.0000  0.0000  0.5403  0.0000  0.0000
  47.  H 6 (s)     -0.0386  0.0419  0.0000  0.0000  0.0295 -0.0302 -0.0598 -0.0519
  48.  H 6 (s)     -0.8435  1.0906  0.0000  0.0000  1.4838 -0.1451 -0.0535  0.0557
  49.  H 7 (s)     -0.0386  0.0419  0.0000  0.0000 -0.0295 -0.0302  0.0598  0.0519
  50.  H 7 (s)     -0.8435  1.0906  0.0000  0.0000 -1.4838 -0.1451  0.0535 -0.0557
  51.  H 8 (s)      0.0231 -0.0258 -0.0040  0.0643 -0.0055 -0.0303 -0.0343  0.1651
  52.  H 8 (s)      0.7963  0.1110  0.7792  1.1971 -0.6346 -0.0202 -0.5707 -0.0436
  53.  H 9 (s)      0.0231 -0.0258  0.0040 -0.0643 -0.0055 -0.0303 -0.0343  0.1651
  54.  H 9 (s)      0.7963  0.1110 -0.7792 -1.1971 -0.6346 -0.0202 -0.5707 -0.0436
  55.  H10 (s)      0.0231 -0.0258  0.0040  0.0643  0.0055 -0.0303  0.0343 -0.1651
  56.  H10 (s)      0.7963  0.1110 -0.7792  1.1971  0.6346 -0.0202  0.5707  0.0436
  57.  H11 (s)      0.0231 -0.0258 -0.0040 -0.0643  0.0055 -0.0303  0.0343 -0.1651
  58.  H11 (s)      0.7963  0.1110  0.7792 -1.1971  0.6346 -0.0202  0.5707  0.0436

           AO         25      26      27      28      29      30      31      32
      ------------ ------- ------- ------- ------- ------- ------- ------- -------
   1.  C 1 (s)      0.0054  0.0000  0.0240  0.0000 -0.0636  0.0000  0.0000  0.0000
   2.  C 1 (s)     -0.0583  0.0000  0.0730  0.0000  0.4884  0.0000  0.0000  0.0000
   3.  C 1 (px)     0.0000 -0.2581  0.0000  0.0000  0.0000 -0.7989  0.0000  0.0000
   4.  C 1 (py)     0.0000  0.0000  0.0000  0.0000  0.0000  0.0000 -0.9963  0.1068
   5.  C 1 (pz)     0.0051  0.0000 -0.5821  0.0000 -0.7340  0.0000  0.0000  0.0000
   6.  C 1 (s)      0.4976  0.0000  0.1602  0.0000 -1.2488  0.0000  0.0000  0.0000
   7.  C 1 (px)     0.0000  0.3322  0.0000  0.0000  0.0000  2.3924  0.0000  0.0000
   8.  C 1 (py)     0.0000  0.0000  0.0000  0.0000  0.0000  0.0000  2.1681 -1.2203
   9.  C 1 (pz)    -0.1903  0.0000  1.4001  0.0000  1.4979  0.0000  0.0000  0.0000
  10.  C 1 (d5)    -0.0188  0.0000  0.0196  0.0000  0.0141  0.0000  0.0000  0.0000
  11.  C 1 (d2)     0.0000 -0.0905  0.0000  0.0000  0.0000 -0.0972  0.0000  0.0000
  12.  C 1 (d3)     0.0000  0.0000  0.0000  0.0000  0.0000  0.0000 -0.1028 -0.0414
  13.  C 1 (d4)    -0.0662  0.0000 -0.1060  0.0000  0.0607  0.0000  0.0000  0.0000
  14.  C 1 (d1)     0.0000  0.0000  0.0000  0.0318  0.0000  0.0000  0.0000  0.0000
  15.  C 2 (s)     -0.0045  0.0000 -0.0068  0.0000  0.0338  0.0000 -0.0349 -0.0209
  16.  C 2 (s)      0.1385  0.0000  0.0360  0.0000 -0.2136  0.0000  0.1919 -0.1379
  17.  C 2 (px)     0.0000 -0.3375  0.0000 -0.5503  0.0000  0.5116  0.0000  0.0000
  18.  C 2 (py)    -0.4396  0.0000 -0.1694  0.0000  0.4431  0.0000 -0.3528 -0.4254
  19.  C 2 (pz)    -0.2049  0.0000  0.4281  0.0000 -0.3706  0.0000  0.2785 -0.4643
  20.  C 2 (s)     -0.4054  0.0000  0.5290  0.0000  0.5820  0.0000 -0.7591  1.1102
  21.  C 2 (px)     0.0000  0.6586  0.0000  1.0144  0.0000 -1.6233  0.0000  0.0000
  22.  C 2 (py)     0.5963  0.0000  0.0502  0.0000 -0.7926  0.0000  0.9056  1.1252
  23.  C 2 (pz)     0.4043  0.0000 -0.8255  0.0000  0.6101  0.0000 -0.8806  1.4982
  24.  C 2 (d5)     0.0113  0.0000  0.0213  0.0000 -0.0159  0.0000 -0.0025 -0.0811
  25.  C 2 (d2)     0.0000  0.0728  0.0000  0.0837  0.0000 -0.0189  0.0000  0.0000
  26.  C 2 (d3)    -0.0543  0.0000 -0.0354  0.0000 -0.0646  0.0000  0.0765 -0.0691
  27.  C 2 (d4)     0.0732  0.0000 -0.0513  0.0000 -0.0410  0.0000  0.0277  0.0253
  28.  C 2 (d1)     0.0000 -0.0207  0.0000  0.0210  0.0000 -0.0691  0.0000  0.0000
  29.  C 3 (s)     -0.0045  0.0000 -0.0068  0.0000  0.0338  0.0000  0.0349  0.0209
  30.  C 3 (s)      0.1385  0.0000  0.0360  0.0000 -0.2136  0.0000 -0.1919  0.1379
  31.  C 3 (px)     0.0000 -0.3375  0.0000  0.5503  0.0000  0.5116  0.0000  0.0000
  32.  C 3 (py)     0.4396  0.0000  0.1694  0.0000 -0.4431  0.0000 -0.3528 -0.4254
  33.  C 3 (pz)    -0.2049  0.0000  0.4281  0.0000 -0.3706  0.0000 -0.2785  0.4643
  34.  C 3 (s)     -0.4054  0.0000  0.5290  0.0000  0.5820  0.0000  0.7591 -1.1102
  35.  C 3 (px)     0.0000  0.6586  0.0000 -1.0144  0.0000 -1.6233  0.0000  0.0000
  36.  C 3 (py)    -0.5963  0.0000 -0.0502  0.0000  0.7926  0.0000  0.9056  1.1252
  37.  C 3 (pz)     0.4043  0.0000 -0.8255  0.0000  0.6101  0.0000  0.8806 -1.4982
  38.  C 3 (d5)     0.0113  0.0000  0.0213  0.0000 -0.0159  0.0000  0.0025  0.0811
  39.  C 3 (d2)     0.0000  0.0728  0.0000 -0.0837  0.0000 -0.0189  0.0000  0.0000
  40.  C 3 (d3)     0.0543  0.0000  0.0354  0.0000  0.0646  0.0000  0.0765 -0.0691
  41.  C 3 (d4)     0.0732  0.0000 -0.0513  0.0000 -0.0410  0.0000 -0.0277 -0.0253
  42.  C 3 (d1)     0.0000  0.0207  0.0000  0.0210  0.0000  0.0691  0.0000  0.0000
  43.  H 4 (s)     -0.1357  0.3603 -0.2163  0.0000 -0.1954  0.2303  0.0000  0.0000
  44.  H 4 (s)      0.0198 -0.0677 -0.0479  0.0000 -0.3522  0.5585  0.0000  0.0000
  45.  H 5 (s)     -0.1357 -0.3603 -0.2163  0.0000 -0.1954 -0.2303  0.0000  0.0000
  46.  H 5 (s)      0.0198  0.0677 -0.0479  0.0000 -0.3522 -0.5585  0.0000  0.0000
  47.  H 6 (s)     -0.3807  0.0000 -0.0471  0.0000 -0.0332  0.0000 -0.0929 -0.4304
  48.  H 6 (s)      0.1964  0.0000  0.0289  0.0000  0.0513  0.0000 -0.2348 -0.8439
  49.  H 7 (s)     -0.3807  0.0000 -0.0471  0.0000 -0.0332  0.0000  0.0929  0.4304
  50.  H 7 (s)      0.1964  0.0000  0.0289  0.0000  0.0513  0.0000  0.2348  0.8439
  51.  H 8 (s)      0.1786 -0.3099 -0.1297 -0.3074  0.1024  0.0412 -0.1315 -0.0116
  52.  H 8 (s)      0.0346 -0.0469 -0.1214 -0.0139  0.1609  0.5618 -0.2025  0.1824
  53.  H 9 (s)      0.1786  0.3099 -0.1297  0.3074  0.1024 -0.0412 -0.1315 -0.0116
  54.  H 9 (s)      0.0346  0.0469 -0.1214  0.0139  0.1609 -0.5618 -0.2025  0.1824
  55.  H10 (s)      0.1786  0.3099 -0.1297 -0.3074  0.1024 -0.0412  0.1315  0.0116
  56.  H10 (s)      0.0346  0.0469 -0.1214 -0.0139  0.1609 -0.5618  0.2025 -0.1824
  57.  H11 (s)      0.1786 -0.3099 -0.1297  0.3074  0.1024  0.0412  0.1315  0.0116
  58.  H11 (s)      0.0346 -0.0469 -0.1214  0.0139  0.1609  0.5618  0.2025 -0.1824

           AO         33      34      35      36      37      38      39      40
      ------------ ------- ------- ------- ------- ------- ------- ------- -------
   1.  C 1 (s)      0.0000  0.0000  0.0392  0.0000 -0.0078  0.0000 -0.0310  0.0000
   2.  C 1 (s)      0.0000  0.0000 -0.4194  0.0000 -0.0144  0.0000  0.6341  0.0000
   3.  C 1 (px)    -0.8221  0.0000  0.0000  0.0000  0.0000 -0.3407  0.0000  0.0000
   4.  C 1 (py)     0.0000  0.0308  0.0000  0.0000  0.0000  0.0000  0.0000 -0.0312
   5.  C 1 (pz)     0.0000  0.0000 -0.5870  0.0000  0.1237  0.0000  0.3369  0.0000
   6.  C 1 (s)      0.0000  0.0000  0.9116  0.0000  0.0644  0.0000 -1.6844  0.0000
   7.  C 1 (px)     1.3776  0.0000  0.0000  0.0000  0.0000 -0.0545  0.0000  0.0000
   8.  C 1 (py)     0.0000 -0.3282  0.0000  0.0000  0.0000  0.0000  0.0000  0.0412
   9.  C 1 (pz)     0.0000  0.0000  0.7403  0.0000  0.1254  0.0000 -0.2133  0.0000
  10.  C 1 (d5)     0.0000  0.0000  0.0819  0.0000  0.0994  0.0000  0.0339  0.0000
  11.  C 1 (d2)     0.1495  0.0000  0.0000  0.0000  0.0000  0.1830  0.0000  0.0000
  12.  C 1 (d3)     0.0000 -0.0011  0.0000  0.0000  0.0000  0.0000  0.0000  0.0559
  13.  C 1 (d4)     0.0000  0.0000  0.0930  0.0000 -0.0488  0.0000 -0.0415  0.0000
  14.  C 1 (d1)     0.0000  0.0000  0.0000  0.1149  0.0000  0.0000  0.0000  0.0000
  15.  C 2 (s)      0.0000 -0.0127  0.0273  0.0000 -0.0364  0.0000  0.0245  0.0345
  16.  C 2 (s)      0.0000  0.0328  0.0286  0.0000  0.3196  0.0000 -1.0394 -1.0530
  17.  C 2 (px)    -0.4768  0.0000  0.0000  0.6255  0.0000  0.3310  0.0000  0.0000
  18.  C 2 (py)     0.0000  0.2529 -0.3853  0.0000 -0.1922  0.0000 -0.2863 -0.3610
  19.  C 2 (pz)     0.0000  0.5037 -0.1535  0.0000 -0.5327  0.0000 -0.0042  0.1781
  20.  C 2 (s)      0.0000  0.2423 -0.1203  0.0000 -0.3516  0.0000  2.2085  2.0950
  21.  C 2 (px)     0.5685  0.0000  0.0000 -0.9821  0.0000  0.0024  0.0000  0.0000
  22.  C 2 (py)     0.0000 -0.3930  0.2497  0.0000  0.2705  0.0000  0.3204  0.6036
  23.  C 2 (pz)     0.0000 -0.5360  0.3732  0.0000  0.6286  0.0000  0.0360 -0.2367
  24.  C 2 (d5)     0.0000 -0.0137 -0.0358  0.0000  0.0168  0.0000  0.0222  0.0036
  25.  C 2 (d2)    -0.0976  0.0000  0.0000  0.1631  0.0000  0.1257  0.0000  0.0000
  26.  C 2 (d3)     0.0000 -0.1147  0.0801  0.0000  0.0311  0.0000  0.0416  0.0450
  27.  C 2 (d4)     0.0000  0.1302 -0.0348  0.0000 -0.1199  0.0000 -0.0285  0.0624
  28.  C 2 (d1)     0.0362  0.0000  0.0000 -0.0297  0.0000  0.1064  0.0000  0.0000
  29.  C 3 (s)      0.0000  0.0127  0.0273  0.0000 -0.0364  0.0000  0.0245 -0.0345
  30.  C 3 (s)      0.0000 -0.0328  0.0286  0.0000  0.3196  0.0000 -1.0394  1.0530
  31.  C 3 (px)    -0.4768  0.0000  0.0000 -0.6255  0.0000  0.3310  0.0000  0.0000
  32.  C 3 (py)     0.0000  0.2529  0.3853  0.0000  0.1922  0.0000  0.2863 -0.3610
  33.  C 3 (pz)     0.0000 -0.5037 -0.1535  0.0000 -0.5327  0.0000 -0.0042 -0.1781
  34.  C 3 (s)      0.0000 -0.2423 -0.1203  0.0000 -0.3516  0.0000  2.2085 -2.0950
  35.  C 3 (px)     0.5685  0.0000  0.0000  0.9821  0.0000  0.0024  0.0000  0.0000
  36.  C 3 (py)     0.0000 -0.3930 -0.2497  0.0000 -0.2705  0.0000 -0.3204  0.6036
  37.  C 3 (pz)     0.0000  0.5360  0.3732  0.0000  0.6286  0.0000  0.0360  0.2367
  38.  C 3 (d5)     0.0000  0.0137 -0.0358  0.0000  0.0168  0.0000  0.0222 -0.0036
  39.  C 3 (d2)    -0.0976  0.0000  0.0000 -0.1631  0.0000  0.1257  0.0000  0.0000
  40.  C 3 (d3)     0.0000 -0.1147 -0.0801  0.0000 -0.0311  0.0000 -0.0416  0.0450
  41.  C 3 (d4)     0.0000 -0.1302 -0.0348  0.0000 -0.1199  0.0000 -0.0285 -0.0624
  42.  C 3 (d1)    -0.0362  0.0000  0.0000 -0.0297  0.0000 -0.1064  0.0000  0.0000
  43.  H 4 (s)     -0.3974  0.0000  0.4785  0.0000 -0.2451 -0.5602 -0.4194  0.0000
  44.  H 4 (s)      1.2031  0.0000 -0.7458  0.0000  0.0088  0.5790  0.6891  0.0000
  45.  H 5 (s)      0.3974  0.0000  0.4785  0.0000 -0.2451  0.5602 -0.4194  0.0000
  46.  H 5 (s)     -1.2031  0.0000 -0.7458  0.0000  0.0088 -0.5790  0.6891  0.0000
  47.  H 6 (s)      0.0000 -0.6373  0.5052  0.0000  0.1905  0.0000  0.3998  0.3065
  48.  H 6 (s)      0.0000  1.0124 -0.6202  0.0000 -0.6084  0.0000 -0.9554 -0.8033
  49.  H 7 (s)      0.0000  0.6373  0.5052  0.0000  0.1905  0.0000  0.3998 -0.3065
  50.  H 7 (s)      0.0000 -1.0124 -0.6202  0.0000 -0.6084  0.0000 -0.9554  0.8033
  51.  H 8 (s)      0.2558  0.2637  0.1444 -0.4854 -0.4758 -0.4307  0.1400  0.3912
  52.  H 8 (s)     -0.6216 -0.5137  0.2389  1.0568  0.6422  0.3965 -0.4814 -0.8372
  53.  H 9 (s)     -0.2558  0.2637  0.1444  0.4854 -0.4758  0.4307  0.1400  0.3912
  54.  H 9 (s)      0.6216 -0.5137  0.2389 -1.0568  0.6422 -0.3965 -0.4814 -0.8372
  55.  H10 (s)     -0.2558 -0.2637  0.1444 -0.4854 -0.4758  0.4307  0.1400 -0.3912
  56.  H10 (s)      0.6216  0.5137  0.2389  1.0568  0.6422 -0.3965 -0.4814  0.8372
  57.  H11 (s)      0.2558 -0.2637  0.1444  0.4854 -0.4758 -0.4307  0.1400 -0.3912
  58.  H11 (s)     -0.6216  0.5137  0.2389 -1.0568  0.6422  0.3965 -0.4814  0.8372

           AO         41      42      43      44      45      46      47      48
      ------------ ------- ------- ------- ------- ------- ------- ------- -------
   1.  C 1 (s)     -0.0116  0.0000  0.0000 -0.0601 -0.1524  0.0000  0.0000  0.0000
   2.  C 1 (s)     -1.5100  0.0000  0.0000 -0.6553 -1.9890  0.0000  0.0000  0.0000
   3.  C 1 (px)     0.0000  0.0000  0.0000  0.0000  0.0000  0.0000 -0.0200  0.0000
   4.  C 1 (py)     0.0000 -0.0676  0.0000  0.0000  0.0000 -0.1487  0.0000  0.3564
   5.  C 1 (pz)    -0.1413  0.0000  0.0000  0.1180  0.0472  0.0000  0.0000  0.0000
   6.  C 1 (s)      2.4893  0.0000  0.0000  2.5011  7.0519  0.0000  0.0000  0.0000
   7.  C 1 (px)     0.0000  0.0000  0.0000  0.0000  0.0000  0.0000  1.5019  0.0000
   8.  C 1 (py)     0.0000 -1.5880  0.0000  0.0000  0.0000  0.9775  0.0000 -0.0934
   9.  C 1 (pz)     0.5923  0.0000  0.0000 -0.2900 -1.1626  0.0000  0.0000  0.0000
  10.  C 1 (d5)    -0.0096  0.0000  0.0000  0.5764 -0.2623  0.0000  0.0000  0.0000
  11.  C 1 (d2)     0.0000  0.0000  0.0000  0.0000  0.0000  0.0000  0.2275  0.0000
  12.  C 1 (d3)     0.0000  0.0922  0.0000  0.0000  0.0000 -0.2924  0.0000  0.5640
  13.  C 1 (d4)     0.1007  0.0000  0.0000  0.0372 -0.0917  0.0000  0.0000  0.0000
  14.  C 1 (d1)     0.0000  0.0000  0.5817  0.0000  0.0000  0.0000  0.0000  0.0000
  15.  C 2 (s)     -0.0374 -0.0958  0.0000  0.0234  0.0841  0.0164  0.0000 -0.0159
  16.  C 2 (s)     -1.0268 -1.5217  0.0000  0.3413  0.8084 -0.1687  0.0000  0.2846
  17.  C 2 (px)     0.0000  0.0000 -0.1071  0.0000  0.0000  0.0000  0.0645  0.0000
  18.  C 2 (py)     0.0440  0.2701  0.0000  0.0691  0.1435  0.2117  0.0000 -0.1358
  19.  C 2 (pz)    -0.0703  0.0338  0.0000  0.0992 -0.0285  0.0238  0.0000  0.1013
  20.  C 2 (s)      1.9309  4.0757  0.0000 -1.3456 -3.8237 -0.3575  0.0000 -0.2038
  21.  C 2 (px)     0.0000  0.0000 -0.1219  0.0000  0.0000  0.0000 -0.7627  0.0000
  22.  C 2 (py)     0.3352 -1.0569  0.0000  0.3422  0.8206 -0.2535  0.0000  0.1969
  23.  C 2 (pz)    -0.0756 -0.0267  0.0000 -0.2262 -0.8665 -0.5311  0.0000 -0.2649
  24.  C 2 (d5)    -0.0188  0.0399  0.0000 -0.4327  0.1699 -0.6520  0.0000 -0.2872
  25.  C 2 (d2)     0.0000  0.0000  0.0447  0.0000  0.0000  0.0000  0.0207  0.0000
  26.  C 2 (d3)     0.0400 -0.0009  0.0000  0.0850  0.0181 -0.0484  0.0000  0.3860
  27.  C 2 (d4)     0.0326 -0.0011  0.0000 -0.0043  0.0767 -0.1103  0.0000  0.2796
  28.  C 2 (d1)     0.0000  0.0000 -0.5005  0.0000  0.0000  0.0000  0.6972  0.0000
  29.  C 3 (s)     -0.0374  0.0958  0.0000  0.0234  0.0841 -0.0164  0.0000  0.0159
  30.  C 3 (s)     -1.0268  1.5217  0.0000  0.3413  0.8084  0.1687  0.0000 -0.2846
  31.  C 3 (px)     0.0000  0.0000  0.1071  0.0000  0.0000  0.0000  0.0645  0.0000
  32.  C 3 (py)    -0.0440  0.2701  0.0000 -0.0691 -0.1435  0.2117  0.0000 -0.1358
  33.  C 3 (pz)    -0.0703 -0.0338  0.0000  0.0992 -0.0285 -0.0238  0.0000 -0.1013
  34.  C 3 (s)      1.9309 -4.0757  0.0000 -1.3456 -3.8237  0.3575  0.0000  0.2038
  35.  C 3 (px)     0.0000  0.0000  0.1219  0.0000  0.0000  0.0000 -0.7627  0.0000
  36.  C 3 (py)    -0.3352 -1.0569  0.0000 -0.3422 -0.8206 -0.2535  0.0000  0.1969
  37.  C 3 (pz)    -0.0756  0.0267  0.0000 -0.2262 -0.8665  0.5311  0.0000  0.2649
  38.  C 3 (d5)    -0.0188 -0.0399  0.0000 -0.4327  0.1699  0.6520  0.0000  0.2872
  39.  C 3 (d2)     0.0000  0.0000 -0.0447  0.0000  0.0000  0.0000  0.0207  0.0000
  40.  C 3 (d3)    -0.0400 -0.0009  0.0000 -0.0850 -0.0181 -0.0484  0.0000  0.3860
  41.  C 3 (d4)     0.0326  0.0011  0.0000 -0.0043  0.0767  0.1103  0.0000 -0.2796
  42.  C 3 (d1)     0.0000  0.0000 -0.5005  0.0000  0.0000  0.0000 -0.6972  0.0000
  43.  H 4 (s)      0.0421  0.0000  0.0000 -0.3427 -0.5752  0.0000  0.4605  0.0000
  44.  H 4 (s)     -0.9513  0.0000  0.0000 -0.1504 -0.4104  0.0000  0.3712  0.0000
  45.  H 5 (s)      0.0421  0.0000  0.0000 -0.3427 -0.5752  0.0000 -0.4605  0.0000
  46.  H 5 (s)     -0.9513  0.0000  0.0000 -0.1504 -0.4104  0.0000 -0.3712  0.0000
  47.  H 6 (s)     -0.2730 -0.3264  0.0000 -0.0335  0.4036  0.0981  0.0000 -0.1078
  48.  H 6 (s)     -0.4910 -0.0094  0.0000  0.1586  0.4108  0.2214  0.0000  0.0980
  49.  H 7 (s)     -0.2730  0.3264  0.0000 -0.0335  0.4036 -0.0981  0.0000  0.1078
  50.  H 7 (s)     -0.4910  0.0094  0.0000  0.1586  0.4108 -0.2214  0.0000 -0.0980
  51.  H 8 (s)     -0.1940 -0.4696  0.1370  0.1467  0.2521  0.0489  0.1066 -0.1459
  52.  H 8 (s)     -0.3861 -0.5327 -0.0032  0.0660  0.1346 -0.1528  0.2126  0.0056
  53.  H 9 (s)     -0.1940 -0.4696 -0.1370  0.1467  0.2521  0.0489 -0.1066 -0.1459
  54.  H 9 (s)     -0.3861 -0.5327  0.0032  0.0660  0.1346 -0.1528 -0.2126  0.0056
  55.  H10 (s)     -0.1940  0.4696  0.1370  0.1467  0.2521 -0.0489 -0.1066  0.1459
  56.  H10 (s)     -0.3861  0.5327 -0.0032  0.0660  0.1346  0.1528 -0.2126 -0.0056
  57.  H11 (s)     -0.1940  0.4696 -0.1370  0.1467  0.2521 -0.0489  0.1066  0.1459
  58.  H11 (s)     -0.3861  0.5327  0.0032  0.0660  0.1346  0.1528  0.2126 -0.0056

           AO         49      50      51      52      53      54      55      56
      ------------ ------- ------- ------- ------- ------- ------- ------- -------
   1.  C 1 (s)     -0.0187  0.0000 -0.0472  0.0000  0.0000  0.0000  0.0000 -0.0326
   2.  C 1 (s)      0.5286  0.0000  0.1090  0.0000  0.0000  0.0000  0.0000  0.0044
   3.  C 1 (px)     0.0000  0.0000  0.0000 -0.0878  0.0000  0.1115  0.0000  0.0000
   4.  C 1 (py)     0.0000  0.0000  0.0000  0.0000 -0.0888  0.0000  0.0000  0.0000
   5.  C 1 (pz)    -0.1793  0.0000 -0.1054  0.0000  0.0000  0.0000  0.0000 -0.1497
   6.  C 1 (s)     -0.5047  0.0000  0.9208  0.0000  0.0000  0.0000  0.0000  0.6803
   7.  C 1 (px)     0.0000  0.0000  0.0000  0.2303  0.0000  0.3422  0.0000  0.0000
   8.  C 1 (py)     0.0000  0.0000  0.0000  0.0000  0.3522  0.0000  0.0000  0.0000
   9.  C 1 (pz)     0.8793  0.0000 -0.5812  0.0000  0.0000  0.0000  0.0000 -0.5416
  10.  C 1 (d5)    -0.4299  0.0000  0.4096  0.0000  0.0000  0.0000  0.0000  0.5139
  11.  C 1 (d2)     0.0000  0.0000  0.0000  0.0156  0.0000  1.1087  0.0000  0.0000
  12.  C 1 (d3)     0.0000  0.0000  0.0000  0.0000 -0.0098  0.0000  0.0000  0.0000
  13.  C 1 (d4)     0.6022  0.0000  0.2717  0.0000  0.0000  0.0000  0.0000 -0.2827
  14.  C 1 (d1)     0.0000  0.7162  0.0000  0.0000  0.0000  0.0000 -0.5086  0.0000
  15.  C 2 (s)     -0.0183  0.0000  0.0046  0.0000  0.0007  0.0000  0.0000  0.0143
  16.  C 2 (s)      0.1630  0.0000  0.2009  0.0000  0.0390  0.0000  0.0000 -0.0093
  17.  C 2 (px)     0.0000 -0.0478  0.0000 -0.1057  0.0000  0.0512 -0.0800  0.0000
  18.  C 2 (py)    -0.1648  0.0000  0.0437  0.0000 -0.0414  0.0000  0.0000  0.0762
  19.  C 2 (pz)     0.0508  0.0000  0.0899  0.0000 -0.0758  0.0000  0.0000 -0.0916
  20.  C 2 (s)      0.3751  0.0000 -0.6873  0.0000 -0.2819  0.0000  0.0000 -0.4027
  21.  C 2 (px)     0.0000 -0.4434  0.0000 -0.3770  0.0000 -0.0800 -0.1147  0.0000
  22.  C 2 (py)    -0.1329  0.0000  0.5128  0.0000 -0.2713  0.0000  0.0000  0.1866
  23.  C 2 (pz)    -0.3015  0.0000  0.0309  0.0000 -0.4318  0.0000  0.0000 -0.2313
  24.  C 2 (d5)    -0.2314  0.0000  0.4407  0.0000 -0.0519  0.0000  0.0000  0.2307
  25.  C 2 (d2)     0.0000  0.3263  0.0000  0.7944  0.0000 -0.0071  0.7333  0.0000
  26.  C 2 (d3)     0.1670  0.0000  0.5106  0.0000 -0.4874  0.0000  0.0000 -0.1752
  27.  C 2 (d4)     0.3673  0.0000 -0.0633  0.0000  0.6190  0.0000  0.0000  0.7017
  28.  C 2 (d1)     0.0000  0.4805  0.0000 -0.0488  0.0000 -0.2496 -0.1981  0.0000
  29.  C 3 (s)     -0.0183  0.0000  0.0046  0.0000 -0.0007  0.0000  0.0000  0.0143
  30.  C 3 (s)      0.1630  0.0000  0.2009  0.0000 -0.0390  0.0000  0.0000 -0.0093
  31.  C 3 (px)     0.0000  0.0478  0.0000 -0.1057  0.0000  0.0512  0.0800  0.0000
  32.  C 3 (py)     0.1648  0.0000 -0.0437  0.0000 -0.0414  0.0000  0.0000 -0.0762
  33.  C 3 (pz)     0.0508  0.0000  0.0899  0.0000  0.0758  0.0000  0.0000 -0.0916
  34.  C 3 (s)      0.3751  0.0000 -0.6873  0.0000  0.2819  0.0000  0.0000 -0.4027
  35.  C 3 (px)     0.0000  0.4434  0.0000 -0.3770  0.0000 -0.0800  0.1147  0.0000
  36.  C 3 (py)     0.1329  0.0000 -0.5128  0.0000 -0.2713  0.0000  0.0000 -0.1866
  37.  C 3 (pz)    -0.3015  0.0000  0.0309  0.0000  0.4318  0.0000  0.0000 -0.2313
  38.  C 3 (d5)    -0.2314  0.0000  0.4407  0.0000  0.0519  0.0000  0.0000  0.2307
  39.  C 3 (d2)     0.0000 -0.3263  0.0000  0.7944  0.0000 -0.0071 -0.7333  0.0000
  40.  C 3 (d3)    -0.1670  0.0000 -0.5106  0.0000 -0.4874  0.0000  0.0000  0.1752
  41.  C 3 (d4)     0.3673  0.0000 -0.0633  0.0000 -0.6190  0.0000  0.0000  0.7017
  42.  C 3 (d1)     0.0000  0.4805  0.0000  0.0488  0.0000  0.2496 -0.1981  0.0000
  43.  H 4 (s)     -0.3288  0.0000 -0.1600  0.0004  0.0000  0.6383  0.0000  0.0933
  44.  H 4 (s)     -0.0193  0.0000  0.1357  0.0427  0.0000 -0.1315  0.0000  0.0901
  45.  H 5 (s)     -0.3288  0.0000 -0.1600 -0.0004  0.0000 -0.6383  0.0000  0.0933
  46.  H 5 (s)     -0.0193  0.0000  0.1357 -0.0427  0.0000  0.1315  0.0000  0.0901
  47.  H 6 (s)      0.0935  0.0000 -0.3851  0.0000  0.6120  0.0000  0.0000  0.3601
  48.  H 6 (s)      0.0153  0.0000  0.0383  0.0000  0.0312  0.0000  0.0000 -0.0748
  49.  H 7 (s)      0.0935  0.0000 -0.3851  0.0000 -0.6120  0.0000  0.0000  0.3601
  50.  H 7 (s)      0.0153  0.0000  0.0383  0.0000 -0.0312  0.0000  0.0000 -0.0748
  51.  H 8 (s)     -0.2197  0.2892  0.0935  0.4844 -0.2965 -0.0133  0.4152 -0.2307
  52.  H 8 (s)     -0.0164  0.0674  0.0565 -0.0143  0.0658  0.0158 -0.1562  0.0260
  53.  H 9 (s)     -0.2197 -0.2892  0.0935 -0.4844 -0.2965  0.0133 -0.4152 -0.2307
  54.  H 9 (s)     -0.0164 -0.0674  0.0565  0.0143  0.0658 -0.0158  0.1562  0.0260
  55.  H10 (s)     -0.2197  0.2892  0.0935 -0.4844  0.2965  0.0133  0.4152 -0.2307
  56.  H10 (s)     -0.0164  0.0674  0.0565  0.0143 -0.0658 -0.0158 -0.1562  0.0260
  57.  H11 (s)     -0.2197 -0.2892  0.0935  0.4844  0.2965 -0.0133 -0.4152 -0.2307
  58.  H11 (s)     -0.0164 -0.0674  0.0565 -0.0143 -0.0658  0.0158  0.1562  0.0260

           AO         57      58
      ------------ ------- -------
   1.  C 1 (s)     -0.0671  0.0000
   2.  C 1 (s)      0.0070  0.0000
   3.  C 1 (px)     0.0000  0.0000
   4.  C 1 (py)     0.0000  0.4469
   5.  C 1 (pz)    -0.2837  0.0000
   6.  C 1 (s)      1.4633  0.0000
   7.  C 1 (px)     0.0000  0.0000
   8.  C 1 (py)     0.0000  1.0982
   9.  C 1 (pz)    -0.4977  0.0000
  10.  C 1 (d5)    -0.3016  0.0000
  11.  C 1 (d2)     0.0000  0.0000
  12.  C 1 (d3)     0.0000 -1.0550
  13.  C 1 (d4)    -0.9439  0.0000
  14.  C 1 (d1)     0.0000  0.0000
  15.  C 2 (s)      0.0318  0.0477
  16.  C 2 (s)      0.0002  0.0418
  17.  C 2 (px)     0.0000  0.0000
  18.  C 2 (py)     0.2055  0.2329
  19.  C 2 (pz)    -0.1455 -0.1714
  20.  C 2 (s)     -0.7407 -0.9937
  21.  C 2 (px)     0.0000  0.0000
  22.  C 2 (py)     0.3894  0.6065
  23.  C 2 (pz)    -0.2679 -0.3567
  24.  C 2 (d5)    -0.1883  0.0961
  25.  C 2 (d2)     0.0000  0.0000
  26.  C 2 (d3)     0.6102  0.5502
  27.  C 2 (d4)     0.1960  0.4455
  28.  C 2 (d1)     0.0000  0.0000
  29.  C 3 (s)      0.0318 -0.0477
  30.  C 3 (s)      0.0002 -0.0418
  31.  C 3 (px)     0.0000  0.0000
  32.  C 3 (py)    -0.2055  0.2329
  33.  C 3 (pz)    -0.1455  0.1714
  34.  C 3 (s)     -0.7407  0.9937
  35.  C 3 (px)     0.0000  0.0000
  36.  C 3 (py)    -0.3894  0.6065
  37.  C 3 (pz)    -0.2679  0.3567
  38.  C 3 (d5)    -0.1883 -0.0961
  39.  C 3 (d2)     0.0000  0.0000
  40.  C 3 (d3)    -0.6102  0.5502
  41.  C 3 (d4)     0.1960 -0.4455
  42.  C 3 (d1)     0.0000  0.0000
  43.  H 4 (s)      0.2083  0.0000
  44.  H 4 (s)     -0.0784  0.0000
  45.  H 5 (s)      0.2083  0.0000
  46.  H 5 (s)     -0.0784  0.0000
  47.  H 6 (s)     -0.1623 -0.0583
  48.  H 6 (s)      0.0980 -0.0815
  49.  H 7 (s)     -0.1623  0.0583
  50.  H 7 (s)      0.0980  0.0815
  51.  H 8 (s)     -0.0309 -0.0531
  52.  H 8 (s)      0.0048  0.0107
  53.  H 9 (s)     -0.0309 -0.0531
  54.  H 9 (s)      0.0048  0.0107
  55.  H10 (s)     -0.0309  0.0531
  56.  H10 (s)      0.0048 -0.0107
  57.  H11 (s)     -0.0309  0.0531
  58.  H11 (s)      0.0048 -0.0107


 AO overlap matrix:

           AO          1       2       3       4       5       6       7       8
      ------------ ------- ------- ------- ------- ------- ------- ------- -------
   1.  C 1 (s)      1.0000  0.2191  0.0000  0.0000  0.0000  0.1843  0.0000  0.0000
   2.  C 1 (s)      0.2191  1.0000  0.0000  0.0000  0.0000  0.8123  0.0000  0.0000
   3.  C 1 (px)     0.0000  0.0000  1.0000  0.0000  0.0000  0.0000  0.5698  0.0000
   4.  C 1 (py)     0.0000  0.0000  0.0000  1.0000  0.0000  0.0000  0.0000  0.5698
   5.  C 1 (pz)     0.0000  0.0000  0.0000  0.0000  1.0000  0.0000  0.0000  0.0000
   6.  C 1 (s)      0.1843  0.8123  0.0000  0.0000  0.0000  1.0000  0.0000  0.0000
   7.  C 1 (px)     0.0000  0.0000  0.5698  0.0000  0.0000  0.0000  1.0000  0.0000
   8.  C 1 (py)     0.0000  0.0000  0.0000  0.5698  0.0000  0.0000  0.0000  1.0000
   9.  C 1 (pz)     0.0000  0.0000  0.0000  0.0000  0.5698  0.0000  0.0000  0.0000
  10.  C 1 (d5)     0.0000  0.0000  0.0000  0.0000  0.0000  0.0000  0.0000  0.0000
  11.  C 1 (d2)     0.0000  0.0000  0.0000  0.0000  0.0000  0.0000  0.0000  0.0000
  12.  C 1 (d3)     0.0000  0.0000  0.0000  0.0000  0.0000  0.0000  0.0000  0.0000
  13.  C 1 (d4)     0.0000  0.0000  0.0000  0.0000  0.0000  0.0000  0.0000  0.0000
  14.  C 1 (d1)     0.0000  0.0000  0.0000  0.0000  0.0000  0.0000  0.0000  0.0000
  15.  C 2 (s)      0.0000  0.0080  0.0000  0.0164 -0.0110  0.0478  0.0000  0.0906
  16.  C 2 (s)      0.0080  0.1269  0.0000  0.1606 -0.1075  0.2850  0.0000  0.4203
  17.  C 2 (px)     0.0000  0.0000  0.0672  0.0000  0.0000  0.0000  0.1907  0.0000
  18.  C 2 (py)    -0.0164 -0.1606  0.0000 -0.1590  0.1514 -0.1875  0.0000 -0.0970
  19.  C 2 (pz)     0.0110  0.1075  0.0000  0.1514 -0.0341  0.1255  0.0000  0.1925
  20.  C 2 (s)      0.0478  0.2850  0.0000  0.1875 -0.1255  0.4966  0.0000  0.4883
  21.  C 2 (px)     0.0000  0.0000  0.1907  0.0000  0.0000  0.0000  0.4966  0.0000
  22.  C 2 (py)    -0.0906 -0.4203  0.0000 -0.0970  0.1925 -0.4883  0.0000  0.0164
  23.  C 2 (pz)     0.0606  0.2813  0.0000  0.1925  0.0618  0.3268  0.0000  0.3214
  24.  C 2 (d5)    -0.0007 -0.0064  0.0000  0.0419  0.0777 -0.0035  0.0000  0.0623
  25.  C 2 (d2)     0.0000  0.0000  0.0611  0.0000  0.0000  0.0000  0.0787  0.0000
  26.  C 2 (d3)    -0.0153 -0.1429  0.0000 -0.1793  0.0696 -0.0774  0.0000 -0.0470
  27.  C 2 (d4)    -0.0114 -0.1067  0.0000 -0.0883  0.1202 -0.0578  0.0000  0.0237
  28.  C 2 (d1)     0.0000  0.0000 -0.0912  0.0000  0.0000  0.0000 -0.1176  0.0000
  29.  C 3 (s)      0.0000  0.0080  0.0000 -0.0164 -0.0110  0.0478  0.0000 -0.0906
  30.  C 3 (s)      0.0080  0.1269  0.0000 -0.1606 -0.1075  0.2850  0.0000 -0.4203
  31.  C 3 (px)     0.0000  0.0000  0.0672  0.0000  0.0000  0.0000  0.1907  0.0000
  32.  C 3 (py)     0.0164  0.1606  0.0000 -0.1590 -0.1514  0.1875  0.0000 -0.0970
  33.  C 3 (pz)     0.0110  0.1075  0.0000 -0.1514 -0.0341  0.1255  0.0000 -0.1925
  34.  C 3 (s)      0.0478  0.2850  0.0000 -0.1875 -0.1255  0.4966  0.0000 -0.4883
  35.  C 3 (px)     0.0000  0.0000  0.1907  0.0000  0.0000  0.0000  0.4966  0.0000
  36.  C 3 (py)     0.0906  0.4203  0.0000 -0.0970 -0.1925  0.4883  0.0000  0.0164
  37.  C 3 (pz)     0.0606  0.2813  0.0000 -0.1925  0.0618  0.3268  0.0000 -0.3214
  38.  C 3 (d5)    -0.0007 -0.0064  0.0000 -0.0419  0.0777 -0.0035  0.0000 -0.0623
  39.  C 3 (d2)     0.0000  0.0000  0.0611  0.0000  0.0000  0.0000  0.0787  0.0000
  40.  C 3 (d3)     0.0153  0.1429  0.0000 -0.1793 -0.0696  0.0774  0.0000 -0.0470
  41.  C 3 (d4)    -0.0114 -0.1067  0.0000  0.0883  0.1202 -0.0578  0.0000 -0.0237
  42.  C 3 (d1)     0.0000  0.0000  0.0912  0.0000  0.0000  0.0000  0.1176  0.0000
  43.  H 4 (s)      0.0319  0.2701 -0.2927  0.0000  0.2193  0.3748 -0.4118  0.0000
  44.  H 4 (s)      0.0916  0.4736 -0.2126  0.0000  0.1593  0.7019 -0.4670  0.0000
  45.  H 5 (s)      0.0319  0.2701  0.2927  0.0000  0.2193  0.3748  0.4118  0.0000
  46.  H 5 (s)      0.0916  0.4736  0.2126  0.0000  0.1593  0.7019  0.4670  0.0000
  47.  H 6 (s)      0.0000  0.0064  0.0000  0.0139 -0.0015  0.0672  0.0000  0.1815
  48.  H 6 (s)      0.0128  0.1006  0.0000  0.1055 -0.0110  0.2473  0.0000  0.4065
  49.  H 7 (s)      0.0000  0.0064  0.0000 -0.0139 -0.0015  0.0672  0.0000 -0.1815
  50.  H 7 (s)      0.0128  0.1006  0.0000 -0.1055 -0.0110  0.2473  0.0000 -0.4065
  51.  H 8 (s)      0.0000  0.0066  0.0059  0.0087 -0.0100  0.0684  0.0753  0.1112
  52.  H 8 (s)      0.0130  0.1022  0.0437  0.0645 -0.0738  0.2499  0.1675  0.2473
  53.  H 9 (s)      0.0000  0.0066 -0.0059  0.0087 -0.0100  0.0684 -0.0753  0.1112
  54.  H 9 (s)      0.0130  0.1022 -0.0437  0.0645 -0.0738  0.2499 -0.1675  0.2473
  55.  H10 (s)      0.0000  0.0066 -0.0059 -0.0087 -0.0100  0.0684 -0.0753 -0.1112
  56.  H10 (s)      0.0130  0.1022 -0.0437 -0.0645 -0.0738  0.2499 -0.1675 -0.2473
  57.  H11 (s)      0.0000  0.0066  0.0059 -0.0087 -0.0100  0.0684  0.0753 -0.1112
  58.  H11 (s)      0.0130  0.1022  0.0437 -0.0645 -0.0738  0.2499  0.1675 -0.2473

           AO          9      10      11      12      13      14      15      16
      ------------ ------- ------- ------- ------- ------- ------- ------- -------
   1.  C 1 (s)      0.0000  0.0000  0.0000  0.0000  0.0000  0.0000  0.0000  0.0080
   2.  C 1 (s)      0.0000  0.0000  0.0000  0.0000  0.0000  0.0000  0.0080  0.1269
   3.  C 1 (px)     0.0000  0.0000  0.0000  0.0000  0.0000  0.0000  0.0000  0.0000
   4.  C 1 (py)     0.0000  0.0000  0.0000  0.0000  0.0000  0.0000  0.0164  0.1606
   5.  C 1 (pz)     0.5698  0.0000  0.0000  0.0000  0.0000  0.0000 -0.0110 -0.1075
   6.  C 1 (s)      0.0000  0.0000  0.0000  0.0000  0.0000  0.0000  0.0478  0.2850
   7.  C 1 (px)     0.0000  0.0000  0.0000  0.0000  0.0000  0.0000  0.0000  0.0000
   8.  C 1 (py)     0.0000  0.0000  0.0000  0.0000  0.0000  0.0000  0.0906  0.4203
   9.  C 1 (pz)     1.0000  0.0000  0.0000  0.0000  0.0000  0.0000 -0.0606 -0.2813
  10.  C 1 (d5)     0.0000  1.0000  0.0000  0.0000  0.0000  0.0000 -0.0007 -0.0064
  11.  C 1 (d2)     0.0000  0.0000  1.0000  0.0000  0.0000  0.0000  0.0000  0.0000
  12.  C 1 (d3)     0.0000  0.0000  0.0000  1.0000  0.0000  0.0000 -0.0153 -0.1429
  13.  C 1 (d4)     0.0000  0.0000  0.0000  0.0000  1.0000  0.0000 -0.0114 -0.1067
  14.  C 1 (d1)     0.0000  0.0000  0.0000  0.0000  0.0000  1.0000  0.0000  0.0000
  15.  C 2 (s)     -0.0606 -0.0007  0.0000 -0.0153 -0.0114  0.0000  1.0000  0.2191
  16.  C 2 (s)     -0.2813 -0.0064  0.0000 -0.1429 -0.1067  0.0000  0.2191  1.0000
  17.  C 2 (px)     0.0000  0.0000 -0.0611  0.0000  0.0000  0.0912  0.0000  0.0000
  18.  C 2 (py)     0.1925 -0.0419  0.0000  0.1793  0.0883  0.0000  0.0000  0.0000
  19.  C 2 (pz)     0.0618 -0.0777  0.0000 -0.0696 -0.1202  0.0000  0.0000  0.0000
  20.  C 2 (s)     -0.3268 -0.0035  0.0000 -0.0774 -0.0578  0.0000  0.1843  0.8123
  21.  C 2 (px)     0.0000  0.0000 -0.0787  0.0000  0.0000  0.1176  0.0000  0.0000
  22.  C 2 (py)     0.3214 -0.0623  0.0000  0.0470 -0.0237  0.0000  0.0000  0.0000
  23.  C 2 (pz)     0.2815 -0.0947  0.0000  0.0335 -0.0629  0.0000  0.0000  0.0000
  24.  C 2 (d5)     0.0947 -0.1175  0.0000  0.0794 -0.0843  0.0000  0.0000  0.0000
  25.  C 2 (d2)     0.0000  0.0000 -0.0381  0.0000  0.0000  0.1110  0.0000  0.0000
  26.  C 2 (d3)    -0.0335  0.0794  0.0000  0.1367  0.1435  0.0000  0.0000  0.0000
  27.  C 2 (d4)     0.0629 -0.0843  0.0000  0.1435  0.0604  0.0000  0.0000  0.0000
  28.  C 2 (d1)     0.0000  0.0000  0.1110  0.0000  0.0000 -0.1297  0.0000  0.0000
  29.  C 3 (s)     -0.0606 -0.0007  0.0000  0.0153 -0.0114  0.0000  0.0000  0.0000
  30.  C 3 (s)     -0.2813 -0.0064  0.0000  0.1429 -0.1067  0.0000  0.0000  0.0025
  31.  C 3 (px)     0.0000  0.0000 -0.0611  0.0000  0.0000 -0.0912  0.0000  0.0000
  32.  C 3 (py)    -0.1925  0.0419  0.0000  0.1793 -0.0883  0.0000  0.0000  0.0059
  33.  C 3 (pz)     0.0618 -0.0777  0.0000  0.0696 -0.1202  0.0000  0.0000  0.0000
  34.  C 3 (s)     -0.3268 -0.0035  0.0000  0.0774 -0.0578  0.0000  0.0044  0.0445
  35.  C 3 (px)     0.0000  0.0000 -0.0787  0.0000  0.0000 -0.1176  0.0000  0.0000
  36.  C 3 (py)    -0.3214  0.0623  0.0000  0.0470  0.0237  0.0000  0.0168  0.1321
  37.  C 3 (pz)     0.2815 -0.0947  0.0000 -0.0335 -0.0629  0.0000  0.0000  0.0000
  38.  C 3 (d5)     0.0947 -0.1175  0.0000 -0.0794 -0.0843  0.0000  0.0000 -0.0023
  39.  C 3 (d2)     0.0000  0.0000 -0.0381  0.0000  0.0000 -0.1110  0.0000  0.0000
  40.  C 3 (d3)     0.0335 -0.0794  0.0000  0.1367 -0.1435  0.0000  0.0000  0.0000
  41.  C 3 (d4)     0.0629 -0.0843  0.0000 -0.1435  0.0604  0.0000  0.0000 -0.0040
  42.  C 3 (d1)     0.0000  0.0000 -0.1110  0.0000  0.0000 -0.1297  0.0000  0.0000
  43.  H 4 (s)      0.3085  0.0132 -0.2791  0.0000  0.1863  0.0000  0.0000  0.0071
  44.  H 4 (s)      0.3499  0.0032 -0.0673  0.0000  0.0449  0.0000  0.0135  0.1053
  45.  H 5 (s)      0.3085  0.0132  0.2791  0.0000  0.1863  0.0000  0.0000  0.0071
  46.  H 5 (s)      0.3499  0.0032  0.0673  0.0000  0.0449  0.0000  0.0135  0.1053
  47.  H 6 (s)     -0.0189 -0.0059  0.0000 -0.0022 -0.0104  0.0000  0.0322  0.2714
  48.  H 6 (s)     -0.0423 -0.0284  0.0000 -0.0105 -0.0502  0.0000  0.0918  0.4745
  49.  H 7 (s)     -0.0189 -0.0059  0.0000  0.0022 -0.0104  0.0000  0.0000  0.0000
  50.  H 7 (s)     -0.0423 -0.0284  0.0000  0.0105 -0.0502  0.0000  0.0002  0.0038
  51.  H 8 (s)     -0.1272  0.0026 -0.0061 -0.0090 -0.0021  0.0054  0.0321  0.2711
  52.  H 8 (s)     -0.2829  0.0124 -0.0287 -0.0423 -0.0100  0.0251  0.0917  0.4743
  53.  H 9 (s)     -0.1272  0.0026  0.0061 -0.0090 -0.0021 -0.0054  0.0321  0.2711
  54.  H 9 (s)     -0.2829  0.0124  0.0287 -0.0423 -0.0100 -0.0251  0.0917  0.4743
  55.  H10 (s)     -0.1272  0.0026  0.0061  0.0090 -0.0021  0.0054  0.0000  0.0003
  56.  H10 (s)     -0.2829  0.0124  0.0287  0.0423 -0.0100  0.0251  0.0023  0.0262
  57.  H11 (s)     -0.1272  0.0026 -0.0061  0.0090 -0.0021 -0.0054  0.0000  0.0003
  58.  H11 (s)     -0.2829  0.0124 -0.0287  0.0423 -0.0100 -0.0251  0.0023  0.0262

           AO         17      18      19      20      21      22      23      24
      ------------ ------- ------- ------- ------- ------- ------- ------- -------
   1.  C 1 (s)      0.0000 -0.0164  0.0110  0.0478  0.0000 -0.0906  0.0606 -0.0007
   2.  C 1 (s)      0.0000 -0.1606  0.1075  0.2850  0.0000 -0.4203  0.2813 -0.0064
   3.  C 1 (px)     0.0672  0.0000  0.0000  0.0000  0.1907  0.0000  0.0000  0.0000
   4.  C 1 (py)     0.0000 -0.1590  0.1514  0.1875  0.0000 -0.0970  0.1925  0.0419
   5.  C 1 (pz)     0.0000  0.1514 -0.0341 -0.1255  0.0000  0.1925  0.0618  0.0777
   6.  C 1 (s)      0.0000 -0.1875  0.1255  0.4966  0.0000 -0.4883  0.3268 -0.0035
   7.  C 1 (px)     0.1907  0.0000  0.0000  0.0000  0.4966  0.0000  0.0000  0.0000
   8.  C 1 (py)     0.0000 -0.0970  0.1925  0.4883  0.0000  0.0164  0.3214  0.0623
   9.  C 1 (pz)     0.0000  0.1925  0.0618 -0.3268  0.0000  0.3214  0.2815  0.0947
  10.  C 1 (d5)     0.0000 -0.0419 -0.0777 -0.0035  0.0000 -0.0623 -0.0947 -0.1175
  11.  C 1 (d2)    -0.0611  0.0000  0.0000  0.0000 -0.0787  0.0000  0.0000  0.0000
  12.  C 1 (d3)     0.0000  0.1793 -0.0696 -0.0774  0.0000  0.0470  0.0335  0.0794
  13.  C 1 (d4)     0.0000  0.0883 -0.1202 -0.0578  0.0000 -0.0237 -0.0629 -0.0843
  14.  C 1 (d1)     0.0912  0.0000  0.0000  0.0000  0.1176  0.0000  0.0000  0.0000
  15.  C 2 (s)      0.0000  0.0000  0.0000  0.1843  0.0000  0.0000  0.0000  0.0000
  16.  C 2 (s)      0.0000  0.0000  0.0000  0.8123  0.0000  0.0000  0.0000  0.0000
  17.  C 2 (px)     1.0000  0.0000  0.0000  0.0000  0.5698  0.0000  0.0000  0.0000
  18.  C 2 (py)     0.0000  1.0000  0.0000  0.0000  0.0000  0.5698  0.0000  0.0000
  19.  C 2 (pz)     0.0000  0.0000  1.0000  0.0000  0.0000  0.0000  0.5698  0.0000
  20.  C 2 (s)      0.0000  0.0000  0.0000  1.0000  0.0000  0.0000  0.0000  0.0000
  21.  C 2 (px)     0.5698  0.0000  0.0000  0.0000  1.0000  0.0000  0.0000  0.0000
  22.  C 2 (py)     0.0000  0.5698  0.0000  0.0000  0.0000  1.0000  0.0000  0.0000
  23.  C 2 (pz)     0.0000  0.0000  0.5698  0.0000  0.0000  0.0000  1.0000  0.0000
  24.  C 2 (d5)     0.0000  0.0000  0.0000  0.0000  0.0000  0.0000  0.0000  1.0000
  25.  C 2 (d2)     0.0000  0.0000  0.0000  0.0000  0.0000  0.0000  0.0000  0.0000
  26.  C 2 (d3)     0.0000  0.0000  0.0000  0.0000  0.0000  0.0000  0.0000  0.0000
  27.  C 2 (d4)     0.0000  0.0000  0.0000  0.0000  0.0000  0.0000  0.0000  0.0000
  28.  C 2 (d1)     0.0000  0.0000  0.0000  0.0000  0.0000  0.0000  0.0000  0.0000
  29.  C 3 (s)      0.0000  0.0000  0.0000  0.0044  0.0000 -0.0168  0.0000  0.0000
  30.  C 3 (s)      0.0000 -0.0059  0.0000  0.0445  0.0000 -0.1321  0.0000 -0.0023
  31.  C 3 (px)     0.0011  0.0000  0.0000  0.0000  0.0280  0.0000  0.0000  0.0000
  32.  C 3 (py)     0.0000 -0.0128  0.0000  0.0551  0.0000 -0.1399  0.0000 -0.0055
  33.  C 3 (pz)     0.0000  0.0000  0.0011  0.0000  0.0000  0.0000  0.0280  0.0000
  34.  C 3 (s)      0.0000 -0.0551  0.0000  0.1446  0.0000 -0.2843  0.0000 -0.0174
  35.  C 3 (px)     0.0280  0.0000  0.0000  0.0000  0.1446  0.0000  0.0000  0.0000
  36.  C 3 (py)     0.0000 -0.1399  0.0000  0.2843  0.0000 -0.4146  0.0000 -0.0388
  37.  C 3 (pz)     0.0000  0.0000  0.0280  0.0000  0.0000  0.0000  0.1446  0.0000
  38.  C 3 (d5)     0.0000  0.0055  0.0000 -0.0174  0.0000  0.0388  0.0000  0.0024
  39.  C 3 (d2)     0.0000  0.0000  0.0000  0.0000  0.0000  0.0000  0.0000  0.0000
  40.  C 3 (d3)     0.0000  0.0000  0.0015  0.0000  0.0000  0.0000  0.0306  0.0000
  41.  C 3 (d4)     0.0000  0.0095  0.0000 -0.0301  0.0000  0.0672  0.0000  0.0040
  42.  C 3 (d1)     0.0015  0.0000  0.0000  0.0000  0.0306  0.0000  0.0000  0.0000
  43.  H 4 (s)     -0.0063 -0.0091  0.0108  0.0707 -0.0773 -0.1117  0.1327  0.0032
  44.  H 4 (s)     -0.0448 -0.0647  0.0768  0.2551 -0.1697 -0.2452  0.2912  0.0140
  45.  H 5 (s)      0.0063 -0.0091  0.0108  0.0707  0.0773 -0.1117  0.1327  0.0032
  46.  H 5 (s)      0.0448 -0.0647  0.0768  0.2551  0.1697 -0.2452  0.2912  0.0140
  47.  H 6 (s)      0.0000  0.3019  0.2089  0.3756  0.0000  0.4233  0.2929 -0.0048
  48.  H 6 (s)      0.0000  0.2185  0.1512  0.7029  0.0000  0.4796  0.3318 -0.0012
  49.  H 7 (s)      0.0000  0.0000  0.0000  0.0019  0.0000 -0.0080  0.0014  0.0000
  50.  H 7 (s)      0.0000 -0.0059  0.0011  0.0277  0.0000 -0.0723  0.0131 -0.0019
  51.  H 8 (s)      0.2961  0.0125 -0.2159  0.3754  0.4156  0.0176 -0.3030  0.0067
  52.  H 8 (s)      0.2145  0.0091 -0.1564  0.7026  0.4711  0.0199 -0.3434  0.0016
  53.  H 9 (s)     -0.2961  0.0125 -0.2159  0.3754 -0.4156  0.0176 -0.3030  0.0067
  54.  H 9 (s)     -0.2145  0.0091 -0.1564  0.7026 -0.4711  0.0199 -0.3434  0.0016
  55.  H10 (s)     -0.0002 -0.0006 -0.0002  0.0153 -0.0168 -0.0489 -0.0123 -0.0002
  56.  H10 (s)     -0.0108 -0.0314 -0.0079  0.1004 -0.0673 -0.1958 -0.0491 -0.0093
  57.  H11 (s)      0.0002 -0.0006 -0.0002  0.0153  0.0168 -0.0489 -0.0123 -0.0002
  58.  H11 (s)      0.0108 -0.0314 -0.0079  0.1004  0.0673 -0.1958 -0.0491 -0.0093

           AO         25      26      27      28      29      30      31      32
      ------------ ------- ------- ------- ------- ------- ------- ------- -------
   1.  C 1 (s)      0.0000 -0.0153 -0.0114  0.0000  0.0000  0.0080  0.0000  0.0164
   2.  C 1 (s)      0.0000 -0.1429 -0.1067  0.0000  0.0080  0.1269  0.0000  0.1606
   3.  C 1 (px)     0.0611  0.0000  0.0000 -0.0912  0.0000  0.0000  0.0672  0.0000
   4.  C 1 (py)     0.0000 -0.1793 -0.0883  0.0000 -0.0164 -0.1606  0.0000 -0.1590
   5.  C 1 (pz)     0.0000  0.0696  0.1202  0.0000 -0.0110 -0.1075  0.0000 -0.1514
   6.  C 1 (s)      0.0000 -0.0774 -0.0578  0.0000  0.0478  0.2850  0.0000  0.1875
   7.  C 1 (px)     0.0787  0.0000  0.0000 -0.1176  0.0000  0.0000  0.1907  0.0000
   8.  C 1 (py)     0.0000 -0.0470  0.0237  0.0000 -0.0906 -0.4203  0.0000 -0.0970
   9.  C 1 (pz)     0.0000 -0.0335  0.0629  0.0000 -0.0606 -0.2813  0.0000 -0.1925
  10.  C 1 (d5)     0.0000  0.0794 -0.0843  0.0000 -0.0007 -0.0064  0.0000  0.0419
  11.  C 1 (d2)    -0.0381  0.0000  0.0000  0.1110  0.0000  0.0000 -0.0611  0.0000
  12.  C 1 (d3)     0.0000  0.1367  0.1435  0.0000  0.0153  0.1429  0.0000  0.1793
  13.  C 1 (d4)     0.0000  0.1435  0.0604  0.0000 -0.0114 -0.1067  0.0000 -0.0883
  14.  C 1 (d1)     0.1110  0.0000  0.0000 -0.1297  0.0000  0.0000 -0.0912  0.0000
  15.  C 2 (s)      0.0000  0.0000  0.0000  0.0000  0.0000  0.0000  0.0000  0.0000
  16.  C 2 (s)      0.0000  0.0000  0.0000  0.0000  0.0000  0.0025  0.0000  0.0059
  17.  C 2 (px)     0.0000  0.0000  0.0000  0.0000  0.0000  0.0000  0.0011  0.0000
  18.  C 2 (py)     0.0000  0.0000  0.0000  0.0000  0.0000 -0.0059  0.0000 -0.0128
  19.  C 2 (pz)     0.0000  0.0000  0.0000  0.0000  0.0000  0.0000  0.0000  0.0000
  20.  C 2 (s)      0.0000  0.0000  0.0000  0.0000  0.0044  0.0445  0.0000  0.0551
  21.  C 2 (px)     0.0000  0.0000  0.0000  0.0000  0.0000  0.0000  0.0280  0.0000
  22.  C 2 (py)     0.0000  0.0000  0.0000  0.0000 -0.0168 -0.1321  0.0000 -0.1399
  23.  C 2 (pz)     0.0000  0.0000  0.0000  0.0000  0.0000  0.0000  0.0000  0.0000
  24.  C 2 (d5)     0.0000  0.0000  0.0000  0.0000  0.0000 -0.0023  0.0000 -0.0055
  25.  C 2 (d2)     1.0000  0.0000  0.0000  0.0000  0.0000  0.0000  0.0000  0.0000
  26.  C 2 (d3)     0.0000  1.0000  0.0000  0.0000  0.0000  0.0000  0.0000  0.0000
  27.  C 2 (d4)     0.0000  0.0000  1.0000  0.0000  0.0000 -0.0040  0.0000 -0.0095
  28.  C 2 (d1)     0.0000  0.0000  0.0000  1.0000  0.0000  0.0000 -0.0015  0.0000
  29.  C 3 (s)      0.0000  0.0000  0.0000  0.0000  1.0000  0.2191  0.0000  0.0000
  30.  C 3 (s)      0.0000  0.0000 -0.0040  0.0000  0.2191  1.0000  0.0000  0.0000
  31.  C 3 (px)     0.0000  0.0000  0.0000 -0.0015  0.0000  0.0000  1.0000  0.0000
  32.  C 3 (py)     0.0000  0.0000 -0.0095  0.0000  0.0000  0.0000  0.0000  1.0000
  33.  C 3 (pz)     0.0000 -0.0015  0.0000  0.0000  0.0000  0.0000  0.0000  0.0000
  34.  C 3 (s)      0.0000  0.0000 -0.0301  0.0000  0.1843  0.8123  0.0000  0.0000
  35.  C 3 (px)     0.0000  0.0000  0.0000 -0.0306  0.0000  0.0000  0.5698  0.0000
  36.  C 3 (py)     0.0000  0.0000 -0.0672  0.0000  0.0000  0.0000  0.0000  0.5698
  37.  C 3 (pz)     0.0000 -0.0306  0.0000  0.0000  0.0000  0.0000  0.0000  0.0000
  38.  C 3 (d5)     0.0000  0.0000  0.0040  0.0000  0.0000  0.0000  0.0000  0.0000
  39.  C 3 (d2)     0.0001  0.0000  0.0000  0.0000  0.0000  0.0000  0.0000  0.0000
  40.  C 3 (d3)     0.0000 -0.0018  0.0000  0.0000  0.0000  0.0000  0.0000  0.0000
  41.  C 3 (d4)     0.0000  0.0000  0.0069  0.0000  0.0000  0.0000  0.0000  0.0000
  42.  C 3 (d1)     0.0000  0.0000  0.0000 -0.0018  0.0000  0.0000  0.0000  0.0000
  43.  H 4 (s)     -0.0067 -0.0097 -0.0021  0.0056  0.0000  0.0071 -0.0063  0.0091
  44.  H 4 (s)     -0.0297 -0.0429 -0.0094  0.0250  0.0135  0.1053 -0.0448  0.0647
  45.  H 5 (s)      0.0067 -0.0097 -0.0021 -0.0056  0.0000  0.0071  0.0063  0.0091
  46.  H 5 (s)      0.0297 -0.0429 -0.0094 -0.0250  0.0135  0.1053  0.0448  0.0647
  47.  H 6 (s)      0.0000  0.2730 -0.1973  0.0000  0.0000  0.0000  0.0000  0.0000
  48.  H 6 (s)      0.0000  0.0656 -0.0474  0.0000  0.0002  0.0038  0.0000  0.0059
  49.  H 7 (s)      0.0000  0.0000  0.0000  0.0000  0.0322  0.2714  0.0000 -0.3019
  50.  H 7 (s)      0.0000 -0.0013 -0.0036  0.0000  0.0918  0.4745  0.0000 -0.2185
  51.  H 8 (s)     -0.2772 -0.0117  0.1897  0.0161  0.0000  0.0003  0.0002  0.0006
  52.  H 8 (s)     -0.0666 -0.0028  0.0456  0.0039  0.0023  0.0262  0.0108  0.0314
  53.  H 9 (s)      0.2772 -0.0117  0.1897 -0.0161  0.0000  0.0003 -0.0002  0.0006
  54.  H 9 (s)      0.0666 -0.0028  0.0456 -0.0039  0.0023  0.0262 -0.0108  0.0314
  55.  H10 (s)      0.0001  0.0001 -0.0003  0.0002  0.0321  0.2711 -0.2961 -0.0125
  56.  H10 (s)      0.0028  0.0082 -0.0144  0.0112  0.0917  0.4743 -0.2145 -0.0091
  57.  H11 (s)     -0.0001  0.0001 -0.0003 -0.0002  0.0321  0.2711  0.2961 -0.0125
  58.  H11 (s)     -0.0028  0.0082 -0.0144 -0.0112  0.0917  0.4743  0.2145 -0.0091

           AO         33      34      35      36      37      38      39      40
      ------------ ------- ------- ------- ------- ------- ------- ------- -------
   1.  C 1 (s)      0.0110  0.0478  0.0000  0.0906  0.0606 -0.0007  0.0000  0.0153
   2.  C 1 (s)      0.1075  0.2850  0.0000  0.4203  0.2813 -0.0064  0.0000  0.1429
   3.  C 1 (px)     0.0000  0.0000  0.1907  0.0000  0.0000  0.0000  0.0611  0.0000
   4.  C 1 (py)    -0.1514 -0.1875  0.0000 -0.0970 -0.1925 -0.0419  0.0000 -0.1793
   5.  C 1 (pz)    -0.0341 -0.1255  0.0000 -0.1925  0.0618  0.0777  0.0000 -0.0696
   6.  C 1 (s)      0.1255  0.4966  0.0000  0.4883  0.3268 -0.0035  0.0000  0.0774
   7.  C 1 (px)     0.0000  0.0000  0.4966  0.0000  0.0000  0.0000  0.0787  0.0000
   8.  C 1 (py)    -0.1925 -0.4883  0.0000  0.0164 -0.3214 -0.0623  0.0000 -0.0470
[...]
                                         0.0000 -0.0313  0.0232  0.0017
  16. (0.01184) BD*( 1) C  1- H  4
               ( 39.17%)   0.6258* C  1 s( 22.72%)p 3.39( 77.11%)d 0.01(  0.17%)
                                         0.0000 -0.4766  0.0108  0.7061 -0.0187
                                         0.0000  0.0000 -0.5217 -0.0041  0.0000
                                         0.0336  0.0000 -0.0237  0.0002
               ( 60.83%)  -0.7799* H  4 s(100.00%)
                                        -1.0000 -0.0020
  17. (0.01184) BD*( 1) C  1- H  5
               ( 39.17%)   0.6258* C  1 s( 22.72%)p 3.39( 77.11%)d 0.01(  0.17%)
                                         0.0000 -0.4766  0.0108 -0.7061  0.0187
                                         0.0000  0.0000 -0.5217 -0.0041  0.0000
                                        -0.0336  0.0000 -0.0237  0.0002
               ( 60.83%)  -0.7799* H  5 s(100.00%)
                                        -1.0000 -0.0020
  18. (0.00419) BD*( 1) C  2- H  6
               ( 39.12%)   0.6254* C  2 s( 23.93%)p 3.17( 75.90%)d 0.01(  0.16%)
                                         0.0000 -0.4892  0.0020  0.0000  0.0000
                                        -0.7135 -0.0021 -0.4998  0.0156  0.0000
                                         0.0000 -0.0334  0.0230 -0.0011
               ( 60.88%)  -0.7803* H  6 s(100.00%)
                                        -1.0000 -0.0001
  19. (0.00663) BD*( 1) C  2- H  8
               ( 39.35%)   0.6273* C  2 s( 23.57%)p 3.24( 76.26%)d 0.01(  0.17%)
                                         0.0000 -0.4855  0.0044 -0.7063  0.0064
                                        -0.0268 -0.0163  0.5126  0.0023 -0.0001
                                         0.0334  0.0004 -0.0234  0.0000
               ( 60.65%)  -0.7788* H  8 s(100.00%)
                                        -1.0000 -0.0009
  20. (0.00663) BD*( 1) C  2- H  9
               ( 39.35%)   0.6273* C  2 s( 23.57%)p 3.24( 76.26%)d 0.01(  0.17%)
                                         0.0000 -0.4855  0.0044  0.7063 -0.0064
                                        -0.0268 -0.0163  0.5126  0.0023  0.0001
                                        -0.0334  0.0004 -0.0234  0.0000
               ( 60.65%)  -0.7788* H  9 s(100.00%)
                                        -1.0000 -0.0009
  21. (0.00419) BD*( 1) C  3- H  7
               ( 39.12%)   0.6254* C  3 s( 23.93%)p 3.17( 75.90%)d 0.01(  0.16%)
                                         0.0000 -0.4892  0.0020  0.0000  0.0000
                                         0.7135  0.0021 -0.4998  0.0156  0.0000
                                         0.0000  0.0334  0.0230 -0.0011
               ( 60.88%)  -0.7803* H  7 s(100.00%)
                                        -1.0000 -0.0001
  22. (0.00663) BD*( 1) C  3- H 10
               ( 39.35%)   0.6273* C  3 s( 23.57%)p 3.24( 76.26%)d 0.01(  0.17%)
                                         0.0000 -0.4855  0.0044  0.7063 -0.0064
                                         0.0268  0.0163  0.5126  0.0023 -0.0001
                                        -0.0334 -0.0004 -0.0234  0.0000
               ( 60.65%)  -0.7788* H 10 s(100.00%)
                                        -1.0000 -0.0009
  23. (0.00663) BD*( 1) C  3- H 11
               ( 39.35%)   0.6273* C  3 s( 23.57%)p 3.24( 76.26%)d 0.01(  0.17%)
                                         0.0000 -0.4855  0.0044 -0.7063  0.0064
                                         0.0268  0.0163  0.5126  0.0023  0.0001
                                         0.0334 -0.0004 -0.0234  0.0000
               ( 60.65%)  -0.7788* H 11 s(100.00%)
                                        -1.0000 -0.0009
  24. (0.00313) RY ( 1) C  1            s(  0.00%)p 1.00( 88.53%)d 0.13( 11.47%)
                                         0.0000  0.0000  0.0000  0.0411  0.9400
                                         0.0000  0.0000  0.0000  0.0000  0.0000
                                        -0.3386  0.0000  0.0000  0.0000
  25. (0.00113) RY ( 2) C  1            s( 14.57%)p 4.17( 60.78%)d 1.69( 24.65%)
                                         0.0000 -0.0086  0.3817  0.0000  0.0000
                                         0.0000  0.0000  0.0279  0.7791  0.0000
                                         0.0000  0.0000 -0.4086 -0.2820
  26. (0.00080) RY ( 3) C  1            s(  0.00%)p 1.00( 89.96%)d 0.11( 10.04%)
                                         0.0000  0.0000  0.0000  0.0000  0.0000
                                        -0.0095  0.9484  0.0000  0.0000  0.0000
                                         0.0000  0.3169  0.0000  0.0000
  27. (0.00016) RY ( 4) C  1            s( 64.19%)p 0.00(  0.06%)d 0.56( 35.74%)
                                         0.0000 -0.0011  0.8012  0.0000  0.0000
                                         0.0000  0.0000 -0.0077 -0.0238  0.0000
                                         0.0000  0.0000  0.5623  0.2032
  28. (0.00012) RY ( 5) C  1            s(  0.00%)p 0.00(  0.00%)d 1.00(100.00%)
                                         0.0000  0.0000  0.0000  0.0000  0.0000
                                         0.0000  0.0000  0.0000  0.0000  1.0000
                                         0.0000  0.0000  0.0000  0.0000
  29. (0.00009) RY ( 6) C  1            s(  0.00%)p 1.00( 10.24%)d 8.76( 89.76%)
  30. (0.00000) RY ( 7) C  1            s( 21.18%)p 1.75( 37.08%)d 1.97( 41.74%)
  31. (0.00000) RY ( 8) C  1            s(  0.00%)p 1.00( 11.69%)d 7.55( 88.31%)
  32. (0.00000) RY ( 9) C  1            s(  0.01%)p 1.00(  2.34%)d41.64( 97.65%)
  33. (0.00279) RY ( 1) C  2            s(  4.95%)p17.96( 88.90%)d 1.24(  6.15%)
                                         0.0000  0.0089  0.2223  0.0000  0.0000
                                        -0.0142 -0.6979 -0.0213 -0.6335  0.0000
                                         0.0000  0.1411 -0.1692 -0.1141
  34. (0.00158) RY ( 2) C  2            s(  0.00%)p 1.00( 85.89%)d 0.16( 14.11%)
                                         0.0000  0.0000  0.0000  0.0245  0.9265
                                         0.0000  0.0000  0.0000  0.0000 -0.1598
                                         0.3399  0.0000  0.0000  0.0000
  35. (0.00025) RY ( 3) C  2            s( 79.77%)p 0.05(  4.06%)d 0.20( 16.17%)
                                         0.0000 -0.0005  0.8931  0.0000  0.0000
                                         0.0126 -0.0131  0.0066  0.2006  0.0000
                                         0.0000  0.0120  0.3385  0.2167
  36. (0.00006) RY ( 4) C  2            s(  3.81%)p24.65( 93.90%)d 0.60(  2.29%)
  37. (0.00001) RY ( 5) C  2            s(  0.00%)p 1.00(  3.45%)d27.98( 96.55%)
  38. (0.00000) RY ( 6) C  2            s( 11.32%)p 0.78(  8.80%)d 7.06( 79.88%)
  39. (0.00000) RY ( 7) C  2            s(  0.00%)p 1.00( 10.88%)d 8.19( 89.12%)
  40. (0.00000) RY ( 8) C  2            s(  0.09%)p10.09(  0.94%)d99.99( 98.96%)
  41. (0.00000) RY ( 9) C  2            s(  0.06%)p59.60(  3.82%)d99.99( 96.11%)
  42. (0.00279) RY ( 1) C  3            s(  4.95%)p17.96( 88.90%)d 1.24(  6.15%)
                                         0.0000  0.0089  0.2223  0.0000  0.0000
                                         0.0142  0.6979 -0.0213 -0.6335  0.0000
                                         0.0000 -0.1411 -0.1692 -0.1141
  43. (0.00158) RY ( 2) C  3            s(  0.00%)p 1.00( 85.89%)d 0.16( 14.11%)
                                         0.0000  0.0000  0.0000  0.0245  0.9265
                                         0.0000  0.0000  0.0000  0.0000  0.1598
                                         0.3399  0.0000  0.0000  0.0000
  44. (0.00025) RY ( 3) C  3            s( 79.77%)p 0.05(  4.06%)d 0.20( 16.17%)
                                         0.0000 -0.0005  0.8931  0.0000  0.0000
                                        -0.0126  0.0131  0.0066  0.2006  0.0000
                                         0.0000 -0.0120  0.3385  0.2167
  45. (0.00006) RY ( 4) C  3            s(  3.81%)p24.65( 93.90%)d 0.60(  2.29%)
  46. (0.00001) RY ( 5) C  3            s(  0.00%)p 1.00(  3.45%)d27.98( 96.55%)
  47. (0.00000) RY ( 6) C  3            s( 11.32%)p 0.78(  8.80%)d 7.06( 79.88%)
  48. (0.00000) RY ( 7) C  3            s(  0.00%)p 1.00( 10.88%)d 8.19( 89.12%)
  49. (0.00000) RY ( 8) C  3            s(  0.09%)p10.09(  0.94%)d99.99( 98.96%)
  50. (0.00000) RY ( 9) C  3            s(  0.06%)p59.60(  3.82%)d99.99( 96.11%)
  51. (0.00173) RY ( 1) H  4            s(100.00%)
                                        -0.0020  1.0000
  52. (0.00173) RY ( 1) H  5            s(100.00%)
                                        -0.0020  1.0000
  53. (0.00085) RY ( 1) H  6            s(100.00%)
                                        -0.0001  1.0000
  54. (0.00085) RY ( 1) H  7            s(100.00%)
                                        -0.0001  1.0000
  55. (0.00121) RY ( 1) H  8            s(100.00%)
                                        -0.0009  1.0000
  56. (0.00121) RY ( 1) H  9            s(100.00%)
                                        -0.0009  1.0000
  57. (0.00121) RY ( 1) H 10            s(100.00%)
                                        -0.0009  1.0000
  58. (0.00121) RY ( 1) H 11            s(100.00%)
                                        -0.0009  1.0000


 NHO DIRECTIONALITY AND BOND BENDING (deviation from line of nuclear centers at
                                      the position of maximum hybrid amplitude)

         [Thresholds for printing:  angular deviation  >  1.0 degree]
                                    p- or d-character  > 25.0%
                                    orbital occupancy  >  0.10e

                        Line of Centers        Hybrid 1             Hybrid 2
                        ---------------  -------------------  ------------------
           NBO            Theta   Phi    Theta   Phi    Dev   Theta   Phi    Dev
 ===============================================================================
    None exceeding thresholds


 SECOND ORDER PERTURBATION THEORY ANALYSIS OF FOCK MATRIX IN NBO BASIS

     Threshold for printing:   0.50 kcal/mol
                                                          E(2) E(NL)-E(L) F(L,NL)
      Donor (L) NBO              Acceptor (NL) NBO      kcal/mol   a.u.    a.u.
 ===============================================================================

 within unit  1
    4. BD ( 1) C  1- C  2      15. BD*( 1) C  1- C  3      0.57    1.37   0.025
    4. BD ( 1) C  1- C  2      16. BD*( 1) C  1- H  4      0.52    1.43   0.024
    4. BD ( 1) C  1- C  2      17. BD*( 1) C  1- H  5      0.52    1.43   0.024
    4. BD ( 1) C  1- C  2      18. BD*( 1) C  2- H  6      0.58    1.43   0.026
    4. BD ( 1) C  1- C  2      19. BD*( 1) C  2- H  8      0.50    1.42   0.024
    4. BD ( 1) C  1- C  2      20. BD*( 1) C  2- H  9      0.50    1.42   0.024
    4. BD ( 1) C  1- C  2      21. BD*( 1) C  3- H  7      2.06    1.43   0.048
    4. BD ( 1) C  1- C  2      42. RY ( 1) C  3            2.03    1.79   0.054
    4. BD ( 1) C  1- C  2      51. RY ( 1) H  4            0.59    1.54   0.027
    4. BD ( 1) C  1- C  2      52. RY ( 1) H  5            0.59    1.54   0.027
    5. BD ( 1) C  1- C  3      14. BD*( 1) C  1- C  2      0.57    1.37   0.025
    5. BD ( 1) C  1- C  3      16. BD*( 1) C  1- H  4      0.52    1.43   0.024
    5. BD ( 1) C  1- C  3      17. BD*( 1) C  1- H  5      0.52    1.43   0.024
    5. BD ( 1) C  1- C  3      18. BD*( 1) C  2- H  6      2.06    1.43   0.048
    5. BD ( 1) C  1- C  3      21. BD*( 1) C  3- H  7      0.58    1.43   0.026
    5. BD ( 1) C  1- C  3      22. BD*( 1) C  3- H 10      0.50    1.42   0.024
    5. BD ( 1) C  1- C  3      23. BD*( 1) C  3- H 11      0.50    1.42   0.024
    5. BD ( 1) C  1- C  3      33. RY ( 1) C  2            2.03    1.79   0.054
    5. BD ( 1) C  1- C  3      51. RY ( 1) H  4            0.59    1.54   0.027
    5. BD ( 1) C  1- C  3      52. RY ( 1) H  5            0.59    1.54   0.027
    6. BD ( 1) C  1- H  4      19. BD*( 1) C  2- H  8      3.63    1.35   0.062
    6. BD ( 1) C  1- H  4      23. BD*( 1) C  3- H 11      3.63    1.35   0.062
    6. BD ( 1) C  1- H  4      34. RY ( 2) C  2            0.88    1.76   0.035
    6. BD ( 1) C  1- H  4      43. RY ( 2) C  3            0.88    1.76   0.035
    7. BD ( 1) C  1- H  5      20. BD*( 1) C  2- H  9      3.63    1.35   0.062
    7. BD ( 1) C  1- H  5      22. BD*( 1) C  3- H 10      3.63    1.35   0.062
    7. BD ( 1) C  1- H  5      34. RY ( 2) C  2            0.88    1.76   0.035
    7. BD ( 1) C  1- H  5      43. RY ( 2) C  3            0.88    1.76   0.035
    8. BD ( 1) C  2- H  6      15. BD*( 1) C  1- C  3      3.74    1.30   0.062
    8. BD ( 1) C  2- H  6      25. RY ( 2) C  1            0.61    1.99   0.031
    9. BD ( 1) C  2- H  8      16. BD*( 1) C  1- H  4      3.37    1.36   0.061
    9. BD ( 1) C  2- H  8      24. RY ( 1) C  1            0.87    1.88   0.036
   10. BD ( 1) C  2- H  9      17. BD*( 1) C  1- H  5      3.37    1.36   0.061
   10. BD ( 1) C  2- H  9      24. RY ( 1) C  1            0.87    1.88   0.036
   11. BD ( 1) C  3- H  7      14. BD*( 1) C  1- C  2      3.74    1.30   0.062
   11. BD ( 1) C  3- H  7      25. RY ( 2) C  1            0.61    1.99   0.031
   12. BD ( 1) C  3- H 10      17. BD*( 1) C  1- H  5      3.37    1.36   0.061
   12. BD ( 1) C  3- H 10      24. RY ( 1) C  1            0.87    1.88   0.036
   13. BD ( 1) C  3- H 11      16. BD*( 1) C  1- H  4      3.37    1.36   0.061
   13. BD ( 1) C  3- H 11      24. RY ( 1) C  1            0.87    1.88   0.036


 NATURAL BOND ORBITALS (Summary):

                                                     Principal Delocalizations
           NBO                 Occupancy    Energy   (geminal,vicinal,remote)
 ===============================================================================
 Molecular unit  1  (C3H8)
 ------ Lewis --------------------------------------
    1. CR ( 1) C  1             1.99999   -11.21468
    2. CR ( 1) C  2             1.99999   -11.20685
    3. CR ( 1) C  3             1.99999   -11.20685
    4. BD ( 1) C  1- C  2       1.99151    -0.69863  21(v),42(v),51(v),52(v)
                                                     18(g),15(g),16(g),17(g)
                                                     19(g),20(g)
    5. BD ( 1) C  1- C  3       1.99151    -0.69863  18(v),33(v),51(v),52(v)
                                                     21(g),14(g),16(g),17(g)
                                                     22(g),23(g)
    6. BD ( 1) C  1- H  4       1.98402    -0.62314  19(v),23(v),34(v),43(v)
    7. BD ( 1) C  1- H  5       1.98402    -0.62314  20(v),22(v),34(v),43(v)
    8. BD ( 1) C  2- H  6       1.99179    -0.63129  15(v),25(v)
    9. BD ( 1) C  2- H  8       1.99208    -0.63081  16(v),24(v)
   10. BD ( 1) C  2- H  9       1.99208    -0.63081  17(v),24(v)
   11. BD ( 1) C  3- H  7       1.99179    -0.63129  14(v),25(v)
   12. BD ( 1) C  3- H 10       1.99208    -0.63081  17(v),24(v)
   13. BD ( 1) C  3- H 11       1.99208    -0.63081  16(v),24(v)
 ------ non-Lewis ----------------------------------
   14. BD*( 1) C  1- C  2       0.00685     0.66799
   15. BD*( 1) C  1- C  3       0.00685     0.66799
   16. BD*( 1) C  1- H  4       0.01184     0.73326
   17. BD*( 1) C  1- H  5       0.01184     0.73326
   18. BD*( 1) C  2- H  6       0.00419     0.73499
   19. BD*( 1) C  2- H  8       0.00663     0.72594
   20. BD*( 1) C  2- H  9       0.00663     0.72594
   21. BD*( 1) C  3- H  7       0.00419     0.73499
   22. BD*( 1) C  3- H 10       0.00663     0.72594
   23. BD*( 1) C  3- H 11       0.00663     0.72594
   24. RY ( 1) C  1             0.00313     1.24989
   25. RY ( 2) C  1             0.00113     1.36166
   26. RY ( 3) C  1             0.00080     1.03724
   27. RY ( 4) C  1             0.00016     1.96066
   28. RY ( 5) C  1             0.00012     2.15127
   29. RY ( 6) C  1             0.00009     2.36013
   30. RY ( 7) C  1             0.00000     1.60395
   31. RY ( 8) C  1             0.00000     2.25682
   32. RY ( 9) C  1             0.00000     2.17340
   33. RY ( 1) C  2             0.00279     1.09178
   34. RY ( 2) C  2             0.00158     1.13443
   35. RY ( 3) C  2             0.00025     1.61999
   36. RY ( 4) C  2             0.00006     0.81019
   37. RY ( 5) C  2             0.00001     2.09453
   38. RY ( 6) C  2             0.00000     2.12348
   39. RY ( 7) C  2             0.00000     2.24176
   40. RY ( 8) C  2             0.00000     2.24384
   41. RY ( 9) C  2             0.00000     2.41136
   42. RY ( 1) C  3             0.00279     1.09178
   43. RY ( 2) C  3             0.00158     1.13443
   44. RY ( 3) C  3             0.00025     1.61999
   45. RY ( 4) C  3             0.00006     0.81019
   46. RY ( 5) C  3             0.00001     2.09453
   47. RY ( 6) C  3             0.00000     2.12348
   48. RY ( 7) C  3             0.00000     2.24176
   49. RY ( 8) C  3             0.00000     2.24384
   50. RY ( 9) C  3             0.00000     2.41136
   51. RY ( 1) H  4             0.00173     0.83824
   52. RY ( 1) H  5             0.00173     0.83824
   53. RY ( 1) H  6             0.00085     0.83114
   54. RY ( 1) H  7             0.00085     0.83114
   55. RY ( 1) H  8             0.00121     0.84512
   56. RY ( 1) H  9             0.00121     0.84512
   57. RY ( 1) H 10             0.00121     0.84512
   58. RY ( 1) H 11             0.00121     0.84512
          -------------------------------
                 Total Lewis   25.90294  ( 99.6267%)
           Valence non-Lewis    0.07228  (  0.2780%)
           Rydberg non-Lewis    0.02479  (  0.0953%)
          -------------------------------
               Total unit  1   26.00000  (100.0000%)
              Charge unit  1    0.00000

 $CHOOSE
   BOND S 1 2 S 1 3 S 1 4 S 1 5 S 2 6 S 2 8 S 2 9 S 3 7 S 3 10 S 3 11 END
 $END

 NBO analysis completed in 0.63 CPU seconds (1 wall second)
 Maximum scratch memory used by NBO was 341370 words (2.60 MB)
 Maximum scratch memory used by G16NBO was 13671 words (0.10 MB)

 Opening RunExU unformatted file "/cluster/work/users/beto93/mol81/Gau-1066595.EUF"
 Read unf file /cluster/work/users/beto93/mol81/Gau-1066595.EUF:
 Label Gaussian matrix elements                                         IVers= 2 NLab= 2 Version=ES64L-G16RevC.01
 Title mol81-NBO                                                       
 NAtoms=    11 NBasis=    58 NBsUse=    58 ICharg=     0 Multip=     1 NE=    26 Len12L=8 Len4L=8 IOpCl= 0 ICGU=111
 GAUSSIAN SCALARS                    NI= 1 NR= 1 NTot=       1 LenBuf=    2 NRI=1 N=    1000
 NPA CHARGES                         NI= 0 NR= 1 NTot=      11 LenBuf= 4000 NRI=1 N=      11
 Recovered energy= -118.262616315     dipole=      0.000000000000      0.000000000000      0.025606491408
 Unable to Open any file for archive entry.
 1\1\GINC-C1-36\SP\RHF\6-31G(d)\C3H8\BETO93\18-Nov-2024\0\\#RHF/6-31G* 
 int=nobasistransform Symmetry=None 5D 7F Pop=NBO7Read\\mol81-NBO\\0,1\
 C,0,0.,0.,0.587716\C,0,0.,1.266857,-0.260186\C,0,0.,-1.266857,-0.26018
 6\H,0,-0.876898,0.,1.244713\H,0,0.876898,0.,1.244713\H,0,0.,2.16615,0.
 362066\H,0,0.,-2.16615,0.362066\H,0,0.883619,1.304234,-0.904405\H,0,-0
 .883619,1.304234,-0.904405\H,0,-0.883619,-1.304234,-0.904405\H,0,0.883
 619,-1.304234,-0.904405\\Version=ES64L-G16RevC.01\HF=-118.2626163\RMSD
 =8.021e-09\Dipole=0.,0.,0.0256065\Quadrupole=0.3127912,-0.299489,-0.01
 33022,0.,0.,0.\PG=Unknown\\@
 The archive entry for this job was punched.


 Democracy is the recurrent suspicion that more than half of the people
 are right more than half of the time.
 -- E. B. White
 Job cpu time:       0 days  0 hours  0 minutes  9.8 seconds.
 Elapsed time:       0 days  0 hours  0 minutes  3.1 seconds.
 File lengths (MBytes):  RWF=     10 Int=      0 D2E=      0 Chk=      1 Scr=      1
 Normal termination of Gaussian 16 at Mon Nov 18 16:40:41 2024.
