 Entering Gaussian System, Link 0=g16
 Initial command:
 /cluster/software/Gaussian/g16_C.01/l1.exe "/cluster/work/users/beto93/mol36/Gau-897300.inp" -scrdir="/cluster/work/users/beto93/mol36/"
 Entering Link 1 = /cluster/software/Gaussian/g16_C.01/l1.exe PID=    897303.
  
 Copyright (c) 1988-2019, Gaussian, Inc.  All Rights Reserved.
  
 This is part of the Gaussian(R) 16 program.  It is based on
 the Gaussian(R) 09 system (copyright 2009, Gaussian, Inc.),
 the Gaussian(R) 03 system (copyright 2003, Gaussian, Inc.),
 the Gaussian(R) 98 system (copyright 1998, Gaussian, Inc.),
 the Gaussian(R) 94 system (copyright 1995, Gaussian, Inc.),
 the Gaussian 92(TM) system (copyright 1992, Gaussian, Inc.),
 the Gaussian 90(TM) system (copyright 1990, Gaussian, Inc.),
 the Gaussian 88(TM) system (copyright 1988, Gaussian, Inc.),
 the Gaussian 86(TM) system (copyright 1986, Carnegie Mellon
 University), and the Gaussian 82(TM) system (copyright 1983,
 Carnegie Mellon University). Gaussian is a federally registered
 trademark of Gaussian, Inc.
  
 This software contains proprietary and confidential information,
 including trade secrets, belonging to Gaussian, Inc.
  
 This software is provided under written license and may be
 used, copied, transmitted, or stored only in accord with that
 written license.
  
 The following legend is applicable only to US Government
 contracts under FAR:
  
                    RESTRICTED RIGHTS LEGEND
  
 Use, reproduction and disclosure by the US Government is
 subject to restrictions as set forth in subparagraphs (a)
 and (c) of the Commercial Computer Software - Restricted
 Rights clause in FAR 52.227-19.
  
 Gaussian, Inc.
 340 Quinnipiac St., Bldg. 40, Wallingford CT 06492
  
  
 ---------------------------------------------------------------
 Warning -- This program may not be used in any manner that
 competes with the business of Gaussian, Inc. or will provide
 assistance to any competitor of Gaussian, Inc.  The licensee
 of this program is prohibited from giving any competitor of
 Gaussian, Inc. access to this program.  By using this program,
 the user acknowledges that Gaussian, Inc. is engaged in the
 business of creating and licensing software in the field of
 computational chemistry and represents and warrants to the
 licensee that it is not a competitor of Gaussian, Inc. and that
 it will not use this program in any manner prohibited above.
 ---------------------------------------------------------------
  

 Cite this work as:
 Gaussian 16, Revision C.01,
 M. J. Frisch, G. W. Trucks, H. B. Schlegel, G. E. Scuseria, 
 M. A. Robb, J. R. Cheeseman, G. Scalmani, V. Barone, 
 G. A. Petersson, H. Nakatsuji, X. Li, M. Caricato, A. V. Marenich, 
 J. Bloino, B. G. Janesko, R. Gomperts, B. Mennucci, H. P. Hratchian, 
 J. V. Ortiz, A. F. Izmaylov, J. L. Sonnenberg, D. Williams-Young, 
 F. Ding, F. Lipparini, F. Egidi, J. Goings, B. Peng, A. Petrone, 
 T. Henderson, D. Ranasinghe, V. G. Zakrzewski, J. Gao, N. Rega, 
 G. Zheng, W. Liang, M. Hada, M. Ehara, K. Toyota, R. Fukuda, 
 J. Hasegawa, M. Ishida, T. Nakajima, Y. Honda, O. Kitao, H. Nakai, 
 T. Vreven, K. Throssell, J. A. Montgomery, Jr., J. E. Peralta, 
 F. Ogliaro, M. J. Bearpark, J. J. Heyd, E. N. Brothers, K. N. Kudin, 
 V. N. Staroverov, T. A. Keith, R. Kobayashi, J. Normand, 
 K. Raghavachari, A. P. Rendell, J. C. Burant, S. S. Iyengar, 
 J. Tomasi, M. Cossi, J. M. Millam, M. Klene, C. Adamo, R. Cammi, 
 J. W. Ochterski, R. L. Martin, K. Morokuma, O. Farkas, 
 J. B. Foresman, and D. J. Fox, Gaussian, Inc., Wallingford CT, 2019.
 
 ******************************************
 Gaussian 16:  ES64L-G16RevC.01  3-Jul-2019
                18-Nov-2024 
 ******************************************
 %LindaWorkers=c2-8-ib
 %NProcShared=4
 Will use up to    4 processors via shared memory.
 %mem=25GB
 %chk=mol36.chk
 SetLPE:    new flags="-opt 'Tsnet.Node.lindarsharg: ssh'  -nodelist 'c2-8-ib.saga' -env GAUSS_MDEF=3355443200 -env GAUSS_EXEDIR="/cluster/software/Gaussian/g16_C.01/bsd:/cluster/software/Gaussian/g16_C.01""
 Will use up to    1 processors via Linda.
 -----------------------------------------------------------------
 #RHF/STO-3G int=nobasistransform Symmetry=None 5D 7F Pop=NBO7Read
 -----------------------------------------------------------------
 1/38=1,163=2,172=1/1;
 2/12=2,15=3,17=6,18=5,40=1/2;
 3/6=3,8=11,11=1,25=1,30=1,60=-1,116=1/1,2,3;
 4//1;
 5/5=2,38=5/2;
 6/7=2,8=2,9=2,10=2,28=1,40=2,113=1,114=1,124=2103/1,12;
 99/5=1,9=1/99;
 ---------
 mol36-NBO
 ---------
 Symbolic Z-matrix:
 Charge =  0 Multiplicity = 1
 O                     0.        0.73406  -0.05275 
 O                     0.       -0.73406  -0.05275 
 H                     0.83955   0.88075   0.422 
 H                    -0.83955  -0.88075   0.422 
 
                          Input orientation:                          
 ---------------------------------------------------------------------
 Center     Atomic      Atomic             Coordinates (Angstroms)
 Number     Number       Type             X           Y           Z
 ---------------------------------------------------------------------
      1          8           0        0.000000    0.734058   -0.052750
      2          8           0        0.000000   -0.734058   -0.052750
      3          1           0        0.839547    0.880752    0.422001
      4          1           0       -0.839547   -0.880752    0.422001
 ---------------------------------------------------------------------
                    Distance matrix (angstroms):
                    1          2          3          4
     1  O    0.000000
     2  O    1.468116   0.000000
     3  H    0.975575   1.880914   0.000000
     4  H    1.880914   0.975575   2.433568   0.000000
 Symmetry turned off by external request.
 Stoichiometry    H2O2
 Rotational constants (GHZ):         293.6201962          26.1106459          24.9918734
 Standard basis: STO-3G (5D, 7F)
    12 basis functions,    36 primitive gaussians,    12 cartesian basis functions
     9 alpha electrons        9 beta electrons
       nuclear repulsion energy        36.4662831792 Hartrees.
 NAtoms=    4 NActive=    4 NUniq=    4 SFac= 1.00D+00 NAtFMM=   60 NAOKFM=F Big=F
 Integral buffers will be    131072 words long.
 Raffenetti 1 integral format.
 Two-electron integral symmetry is turned off.
 One-electron integrals computed using PRISM.
 NBasis=    12 RedAO= T EigKep=  3.70D-01  NBF=    12
 NBsUse=    12 1.00D-06 EigRej= -1.00D+00 NBFU=    12
 ExpMin= 1.69D-01 ExpMax= 1.31D+02 ExpMxC= 1.31D+02 IAcc=3 IRadAn=         5 AccDes= 0.00D+00
 Harris functional with IExCor=  205 and IRadAn=       5 diagonalized for initial guess.
 HarFok:  IExCor=  205 AccDes= 0.00D+00 IRadAn=         5 IDoV= 1 UseB2=F ITyADJ=14
 ICtDFT=  3500011 ScaDFX=  1.000000  1.000000  1.000000  1.000000
 FoFCou: FMM=F IPFlag=           0 FMFlag=      100000 FMFlg1=           0
         NFxFlg=           0 DoJE=T BraDBF=F KetDBF=T FulRan=T
         wScrn=  0.000000 ICntrl=       500 IOpCl=  0 I1Cent=   200000004 NGrid=           0
         NMat0=    1 NMatS0=      1 NMatT0=    0 NMatD0=    1 NMtDS0=    0 NMtDT0=    0
 Symmetry not used in FoFCou.
 Keep R1 ints in memory in canonical form, NReq=807057.
 Requested convergence on RMS density matrix=1.00D-08 within 128 cycles.
 Requested convergence on MAX density matrix=1.00D-06.
 Requested convergence on             energy=1.00D-06.
 No special actions if energy rises.
 SCF Done:  E(RHF) =  -148.757521315     A.U. after   10 cycles
            NFock= 10  Conv=0.23D-08     -V/T= 2.0083

 **********************************************************************

            Population analysis using the SCF Density.

 **********************************************************************

 Alpha  occ. eigenvalues --  -20.31303 -20.31232  -1.38255  -1.12518  -0.59147
 Alpha  occ. eigenvalues --   -0.58477  -0.48045  -0.39953  -0.36465
 Alpha virt. eigenvalues --    0.44767   0.61085   0.63691
          Condensed to atoms (all electrons):
               1          2          3          4
     1  O    7.813247   0.165970   0.240806  -0.022709
     2  O    0.165970   7.813247  -0.022709   0.240806
     3  H    0.240806  -0.022709   0.582187   0.002399
     4  H   -0.022709   0.240806   0.002399   0.582187
 Mulliken charges:
               1
     1  O   -0.197316
     2  O   -0.197316
     3  H    0.197316
     4  H    0.197316
 Sum of Mulliken charges =  -0.00000
 Mulliken charges with hydrogens summed into heavy atoms:
               1
     1  O   -0.000000
     2  O   -0.000000
 Electronic spatial extent (au):  <R**2>=             64.3241
 Charge=             -0.0000 electrons
 Dipole moment (field-independent basis, Debye):
    X=              0.0000    Y=              0.0000    Z=              1.3869  Tot=              1.3869
 Quadrupole moment (field-independent basis, Debye-Ang):
   XX=             -8.4822   YY=            -10.3155   ZZ=            -10.1623
   XY=              2.1826   XZ=              0.0000   YZ=              0.0000
 Traceless Quadrupole moment (field-independent basis, Debye-Ang):
   XX=              1.1711   YY=             -0.6622   ZZ=             -0.5089
   XY=              2.1826   XZ=              0.0000   YZ=              0.0000
 Octapole moment (field-independent basis, Debye-Ang**2):
  XXX=              0.0000  YYY=              0.0000  ZZZ=              0.0916  XYY=              0.0000
  XXY=              0.0000  XXZ=              0.6829  XZZ=              0.0000  YZZ=              0.0000
  YYZ=              1.0733  XYZ=              0.9460
 Hexadecapole moment (field-independent basis, Debye-Ang**3):
 XXXX=             -9.0138 YYYY=            -38.2488 ZZZZ=             -6.7936 XXXY=             -1.4518
 XXXZ=              0.0000 YYYX=             -1.0033 YYYZ=              0.0000 ZZZX=              0.0000
 ZZZY=              0.0000 XXYY=             -7.1973 XXZZ=             -2.5059 YYZZ=             -7.8165
 XXYZ=              0.0000 YYXZ=              0.0000 ZZXY=             -0.6079
 N-N= 3.646628317922D+01 E-N=-4.268711342916D+02  KE= 1.475314312208D+02
 Running external command "gaunbo7 R"
         input file       "/cluster/work/users/beto93/mol36/Gau-897303.EIn"
         output file      "/cluster/work/users/beto93/mol36/Gau-897303.EOu"
         message file     "/cluster/work/users/beto93/mol36/Gau-897303.EMs"
         fchk file        "/cluster/work/users/beto93/mol36/Gau-897303.EFC"
         mat. el file     "/cluster/work/users/beto93/mol36/Gau-897303.EUF"

 Writing WrtUnf unformatted file "/cluster/work/users/beto93/mol36/Gau-897303.EUF"
 Gaussian matrix elements                                         Version   2 NLab=11 Len12L=8 Len4L=8
 Write SHELL TO ATOM MAP                   from file      0 offset           0 length                   6 to matrix element file.
 Write SHELL TYPES                         from file      0 offset           0 length                   6 to matrix element file.
 Write NUMBER OF PRIMITIVES PER SHELL      from file      0 offset           0 length                   6 to matrix element file.
 Write PRIMITIVE EXPONENTS                 from file      0 offset           0 length                  18 to matrix element file.
 Write CONTRACTION COEFFICIENTS            from file      0 offset           0 length                  18 to matrix element file.
 Write P(S=P) CONTRACTION COEFFICIENTS     from file      0 offset           0 length                  18 to matrix element file.
 Write COORDINATES OF EACH SHELL           from file      0 offset           0 length                  18 to matrix element file.
 Write BONDS PER ATOM                      from file      0 offset           0 length                   4 to matrix element file.
 Write BONDED ATOMS                        from file      0 offset           0 length                   6 to matrix element file.
 Write BOND TYPES                          from file      0 offset           0 length                   6 to matrix element file.
 Write ONIOM CHARGE/MULT                   from file      0 offset           0 length                  32 to matrix element file.
 Write ONIOM ATOM LAYERS                   from file      0 offset           0 length                   4 to matrix element file.
 Write ONIOM ATOM MODIFIERS                from file      0 offset           0 length                   4 to matrix element file.
 Write ONIOM ATOM TYPES                    from file      0 offset           0 length                   4 to matrix element file.
 Write ONIOM LINK ATOMS                    from file      0 offset           0 length                   4 to matrix element file.
 Write ONIOM LINK CHARGES                  from file      0 offset           0 length                   4 to matrix element file.
 Write ONIOM LINK DISTANCES                from file      0 offset           0 length                  16 to matrix element file.
 Write SYMINF INTS                         from file      0 offset           0 length                  26 to matrix element file.
 Write ROTTR TO SO                         from file      0 offset           0 length                  12 to matrix element file.
 Write GAUSSIAN SCALARS                    from file    501 offset           0 to matrix element file.
 Write OPTIMIZATION FLAGS                  from file      0 offset           0 length                   4 to matrix element file.
 Write INTEGER ISO                         from file      0 offset           0 length                   4 to matrix element file.
 Write INTEGER SPIN                        from file      0 offset           0 length                   4 to matrix element file.
 Write REAL ZEFFECTIVE                     from file      0 offset           0 length                   4 to matrix element file.
 Write REAL GFACTOR                        from file      0 offset           0 length                   4 to matrix element file.
 Write REAL ZNUCLEAR                       from file      0 offset           0 length                   4 to matrix element file.
 Write MULLIKEN CHARGES                    from file      0 offset           0 length                   4 to matrix element file.
 Write NUCLEAR GRADIENT                    from file  10584 offset           0 length                  12 to matrix element file.
 Array NUCLEAR FORCE CONSTANTS              on  file  10585 does not exist.
 Write ELECTRIC DIPOLE MOMENT              from file      0 offset           0 length                   3 to matrix element file.
 Write NON-ADIABATIC COUPLING              from file  10810 offset           0 length                  12 to matrix element file.
 Write FINITE EM FIELD                     from file  10521 offset           0 length                  35 to matrix element file.
 Write OVERLAP                             from file  10514 offset           0 length                  78 to matrix element file.
 Write CORE HAMILTONIAN ALPHA              from file  10515 offset           0 length                  78 to matrix element file.
 Write CORE HAMILTONIAN BETA               from file  10515 offset          78 length                  78 to matrix element file.
 Write KINETIC ENERGY                      from file  10516 offset           0 length                  78 to matrix element file.
 Write ORTHOGONAL BASIS                    from file  10685 offset           0 length                 144 to matrix element file.
 Write DIPOLE INTEGRALS                    from file  10518 offset           0 length                 234 to matrix element file.
 Array DIP VEL INTEGRALS                    on  file  10572 does not exist.
 Array R X DEL INTEGRALS                    on  file  10572 does not exist.
 Write ALPHA ORBITAL ENERGIES              from file      0 offset           0 length                  12 to matrix element file.
 Write ALPHA MO COEFFICIENTS               from file  10524 offset           0 length                 144 to matrix element file.
 Write ALPHA DENSITY MATRIX                from file      0 offset           0 length                  78 to matrix element file.
 Write ALPHA FOCK MATRIX                   from file  10536 offset           0 length                  78 to matrix element file.
 Write ENERGY-WEIGHTED DENSITY             from file  10571 offset           0 length                  78 to matrix element file.
 Write ALPHA SCF DENSITY MATRIX            from file      0 offset           0 length                  78 to matrix element file.
 No 2e integrals to process.
 Perform NBO analysis...executing G16NBO...

 *********************************** NBO 7.0 ***********************************
             N A T U R A L   A T O M I C   O R B I T A L   A N D
          N A T U R A L   B O N D   O R B I T A L   A N A L Y S I S
 **************************** Espen Tangen (S101595) ***************************
  (c) Copyright 1996-2021 Board of Regents of the University of Wisconsin System
      on behalf of the Theoretical Chemistry Institute.  All rights reserved.

          Cite this program [NBO 7.0.10 (8-Feb-2021)] as:

          NBO 7.0.  E. D. Glendening, J. K. Badenhoop, A. E. Reed,
          J. E. Carpenter, J. A. Bohmann, C. M. Morales, P. Karafiloglou,
          C. R. Landis, and F. Weinhold, Theoretical Chemistry Institute,
          University of Wisconsin, Madison, WI (2018)

       /NPA    / : Natural Population Analysis
       /AOPNAO / : Print the AO to PNAO transformation
       /AONAO  / : Print the AO to NAO transformation
       /AOMO   / : Print the MOs in the AO basis
       /BOAO   / : Print the AO bond-order matrix
       /DMAO   / : Print the AO density matrix
       /DMPNAO / : Print the PNAO density matrix
       /DMNAO  / : Print the NAO density matrix
       /DMMO   / : Print the MO density matrix
       /SAO    / : Print the AO overlap matrix
       /SPNAO  / : Print the PNAO overlap matrix
       /DETAIL / : Write details of NBO search
       /ARCHIVE/ : Write the archive file to lfn47
       /AOINFO / : Write AO information to lfn31
       /FILE   / : Set to mol36.gen*

 Filename set to mol36.gen1

 Job title: mol36-NBO


 MOs in the AO basis:

           AO          1       2       3       4       5       6       7       8
      ------------ ------- ------- ------- ------- ------- ------- ------- -------
   1.  O 1 (s)      0.7029  0.7034 -0.1662 -0.1713  0.0692  0.0286  0.0281  0.0502
   2.  O 1 (s)      0.0187  0.0156  0.5942  0.6558 -0.3392 -0.1678 -0.1232 -0.2615
   3.  O 1 (px)     0.0021  0.0022  0.0471  0.0871  0.4988  0.2015 -0.1773  0.5093
   4.  O 1 (py)    -0.0027  0.0008 -0.0878  0.0812 -0.0704  0.2797 -0.4455 -0.3513
   5.  O 1 (pz)     0.0011  0.0013  0.0370  0.0472  0.0550  0.4021  0.4590 -0.2036
   6.  O 2 (s)     -0.7029  0.7034 -0.1662  0.1713 -0.0692  0.0286  0.0281  0.0502
   7.  O 2 (s)     -0.0187  0.0156  0.5942 -0.6558  0.3392 -0.1678 -0.1232 -0.2615
   8.  O 2 (px)     0.0021 -0.0022 -0.0471  0.0871  0.4988 -0.2015  0.1773 -0.5093
   9.  O 2 (py)    -0.0027 -0.0008  0.0878  0.0812 -0.0704 -0.2797  0.4455  0.3513
  10.  O 2 (pz)    -0.0011  0.0013  0.0370 -0.0472 -0.0550  0.4021  0.4590 -0.2036
  11.  H 3 (s)     -0.0040 -0.0047  0.0968  0.1699  0.3001  0.3280 -0.0643  0.1875
  12.  H 4 (s)      0.0040 -0.0047  0.0968 -0.1699 -0.3001  0.3280 -0.0643  0.1875

           AO          9      10      11      12
      ------------ ------- ------- ------- -------
   1.  O 1 (s)      0.0212  0.0736  0.0671  0.0502
   2.  O 1 (s)     -0.1104 -0.3930 -0.4488 -0.3481
   3.  O 1 (px)    -0.2054 -0.0929 -0.5316 -0.5080
   4.  O 1 (py)    -0.0311  0.7980 -0.1161 -0.2322
   5.  O 1 (pz)     0.6831 -0.0480 -0.2824 -0.3043
   6.  O 2 (s)     -0.0212 -0.0736  0.0671 -0.0502
   7.  O 2 (s)      0.1104  0.3930 -0.4488  0.3481
   8.  O 2 (px)    -0.2054 -0.0929  0.5316 -0.5080
   9.  O 2 (py)    -0.0311  0.7980  0.1161 -0.2322
  10.  O 2 (pz)    -0.6831  0.0480 -0.2824  0.3043
  11.  H 3 (s)      0.1261  0.1697  0.7853  0.8063
  12.  H 4 (s)     -0.1261 -0.1697  0.7853 -0.8063


 AO overlap matrix:

           AO          1       2       3       4       5       6       7       8
      ------------ ------- ------- ------- ------- ------- ------- ------- -------
   1.  O 1 (s)      1.0000  0.2367  0.0000  0.0000  0.0000  0.0000  0.0090  0.0000
   2.  O 1 (s)      0.2367  1.0000  0.0000  0.0000  0.0000  0.0090  0.1608  0.0000
   3.  O 1 (px)     0.0000  0.0000  1.0000  0.0000  0.0000  0.0000  0.0000  0.0771
   4.  O 1 (py)     0.0000  0.0000  0.0000  1.0000  0.0000 -0.0169 -0.2063  0.0000
   5.  O 1 (pz)     0.0000  0.0000  0.0000  0.0000  1.0000  0.0000  0.0000  0.0000
   6.  O 2 (s)      0.0000  0.0090  0.0000 -0.0169  0.0000  1.0000  0.2367  0.0000
   7.  O 2 (s)      0.0090  0.1608  0.0000 -0.2063  0.0000  0.2367  1.0000  0.0000
   8.  O 2 (px)     0.0000  0.0000  0.0771  0.0000  0.0000  0.0000  0.0000  1.0000
   9.  O 2 (py)     0.0169  0.2063  0.0000 -0.2318  0.0000  0.0000  0.0000  0.0000
  10.  O 2 (pz)     0.0000  0.0000  0.0000  0.0000  0.0771  0.0000  0.0000  0.0000
  11.  H 3 (s)      0.0517  0.4628  0.3330  0.0582  0.1883  0.0066  0.0966  0.0466
  12.  H 4 (s)      0.0066  0.0966 -0.0466 -0.0896  0.0263  0.0517  0.4628 -0.3330

           AO          9      10      11      12
      ------------ ------- ------- ------- -------
   1.  O 1 (s)      0.0169  0.0000  0.0517  0.0066
   2.  O 1 (s)      0.2063  0.0000  0.4628  0.0966
   3.  O 1 (px)     0.0000  0.0000  0.3330 -0.0466
   4.  O 1 (py)    -0.2318  0.0000  0.0582 -0.0896
   5.  O 1 (pz)     0.0000  0.0771  0.1883  0.0263
   6.  O 2 (s)      0.0000  0.0000  0.0066  0.0517
   7.  O 2 (s)      0.0000  0.0000  0.0966  0.4628
   8.  O 2 (px)     0.0000  0.0000  0.0466 -0.3330
   9.  O 2 (py)     1.0000  0.0000  0.0896 -0.0582
  10.  O 2 (pz)     0.0000  1.0000  0.0263  0.1883
  11.  H 3 (s)      0.0896  0.0263  1.0000  0.0560
  12.  H 4 (s)     -0.0582  0.1883  0.0560  1.0000


 AO bond-order matrix:

           AO          1       2       3       4       5       6       7       8
      ------------ ------- ------- ------- ------- ------- ------- ------- -------
   1.  O 1 (s)      2.1104 -0.4682  0.0735 -0.0567  0.0399 -0.0042  0.0316 -0.0068
   2.  O 1 (s)     -0.4682  2.0453 -0.4131  0.2563 -0.2237  0.0316 -0.1851  0.0556
   3.  O 1 (px)     0.0735 -0.4131  1.2645 -0.1387 -0.4221  0.0068 -0.0556 -0.0702
   4.  O 1 (py)    -0.0567  0.2563 -0.1387  0.8406 -0.0902  0.0287 -0.0657  0.0521
   5.  O 1 (pz)     0.0399 -0.2237 -0.4221 -0.0902  1.7742 -0.0042  0.0285 -0.0128
   6.  O 2 (s)     -0.0042  0.0316  0.0068  0.0287 -0.0042  2.1104 -0.4682 -0.0735
   7.  O 2 (s)      0.0316 -0.1851 -0.0556 -0.0657  0.0285 -0.4682  2.0453  0.4131
   8.  O 2 (px)    -0.0068  0.0556 -0.0702  0.0521 -0.0128 -0.0735  0.4131  1.2645
   9.  O 2 (py)    -0.0287  0.0657  0.0521 -0.7906  0.0049  0.0567 -0.2563 -0.1387
  10.  O 2 (pz)    -0.0042  0.0285  0.0128 -0.0049 -0.1136  0.0399 -0.2237  0.4221
  11.  H 3 (s)     -0.0218 -0.0861  0.6322  0.0695  0.3568  0.0122 -0.0687 -0.0779
  12.  H 4 (s)      0.0122 -0.0687  0.0779  0.1145 -0.0859 -0.0218 -0.0861 -0.6322

           AO          9      10      11      12
      ------------ ------- ------- ------- -------
   1.  O 1 (s)     -0.0287 -0.0042 -0.0218  0.0122
   2.  O 1 (s)      0.0657  0.0285 -0.0861 -0.0687
   3.  O 1 (px)     0.0521  0.0128  0.6322  0.0779
   4.  O 1 (py)    -0.7906 -0.0049  0.0695  0.1145
   5.  O 1 (pz)     0.0049 -0.1136  0.3568 -0.0859
   6.  O 2 (s)      0.0567  0.0399  0.0122 -0.0218
   7.  O 2 (s)     -0.2563 -0.2237 -0.0687 -0.0861
   8.  O 2 (px)    -0.1387  0.4221 -0.0779 -0.6322
   9.  O 2 (py)     0.8406  0.0902 -0.1145 -0.0695
  10.  O 2 (pz)     0.0902  1.7742 -0.0859  0.3568
  11.  H 3 (s)     -0.1145 -0.0859  0.5822  0.0428
  12.  H 4 (s)     -0.0695  0.3568  0.0428  0.5822


 AO density matrix:

           AO          1       2       3       4       5       6       7       8
      ------------ ------- ------- ------- ------- ------- ------- ------- -------
   1.  O 1 (s)      1.9999  0.4749  0.0044 -0.0042  0.0024  0.0000  0.0172 -0.0004
   2.  O 1 (s)      0.4749  1.9795 -0.0441  0.0814 -0.0241  0.0172  0.3353 -0.0003
   3.  O 1 (px)     0.0044 -0.0441  1.7401 -0.0635 -0.1457  0.0004  0.0003  0.1766
   4.  O 1 (py)    -0.0042  0.0814 -0.0635  1.3311 -0.0410 -0.0281 -0.5066  0.0174
   5.  O 1 (pz)     0.0024 -0.0241 -0.1457 -0.0410  1.9175  0.0000  0.0017 -0.0016
   6.  O 2 (s)      0.0000  0.0172  0.0004 -0.0281  0.0000  1.9999  0.4749 -0.0044
   7.  O 2 (s)      0.0172  0.3353  0.0003 -0.5066  0.0017  0.4749  1.9795  0.0441
   8.  O 2 (px)    -0.0004 -0.0003  0.1766  0.0174 -0.0016 -0.0044  0.0441  1.7401
   9.  O 2 (py)     0.0281  0.5066  0.0174 -1.1093  0.0003  0.0042 -0.0814 -0.0635
  10.  O 2 (pz)     0.0000  0.0017  0.0016 -0.0003  0.1632  0.0024 -0.0241  0.1457
  11.  H 3 (s)      0.0965  0.9966  1.0442  0.1613  0.5890  0.0132  0.1837  0.0751
  12.  H 4 (s)      0.0132  0.1837 -0.0751 -0.1105  0.0426  0.0965  0.9966 -1.0442

           AO          9      10      11      12
      ------------ ------- ------- ------- -------
   1.  O 1 (s)      0.0281  0.0000  0.0965  0.0132
   2.  O 1 (s)      0.5066  0.0017  0.9966  0.1837
   3.  O 1 (px)     0.0174  0.0016  1.0442 -0.0751
   4.  O 1 (py)    -1.1093 -0.0003  0.1613 -0.1105
   5.  O 1 (pz)     0.0003  0.1632  0.5890  0.0426
   6.  O 2 (s)      0.0042  0.0024  0.0132  0.0965
   7.  O 2 (s)     -0.0814 -0.0241  0.1837  0.9966
   8.  O 2 (px)    -0.0635  0.1457  0.0751 -1.0442
   9.  O 2 (py)     1.3311  0.0410  0.1105 -0.1613
  10.  O 2 (pz)     0.0410  1.9175  0.0426  0.5890
  11.  H 3 (s)      0.1105  0.0426  1.4457  0.1102
  12.  H 4 (s)     -0.1613  0.5890  0.1102  1.4457


 MO density matrix:

      MO     1       2       3       4       5       6       7       8       9
     ---- ------  ------  ------  ------  ------  ------  ------  ------  ------
   1.     2.0000  0.0000  0.0000  0.0000  0.0000  0.0000  0.0000  0.0000  0.0000
   2.     0.0000  2.0000  0.0000  0.0000  0.0000  0.0000  0.0000  0.0000  0.0000
   3.     0.0000  0.0000  2.0000  0.0000  0.0000  0.0000  0.0000  0.0000  0.0000
   4.     0.0000  0.0000  0.0000  2.0000  0.0000  0.0000  0.0000  0.0000  0.0000
   5.     0.0000  0.0000  0.0000  0.0000  2.0000  0.0000  0.0000  0.0000  0.0000
   6.     0.0000  0.0000  0.0000  0.0000  0.0000  2.0000  0.0000  0.0000  0.0000
   7.     0.0000  0.0000  0.0000  0.0000  0.0000  0.0000  2.0000  0.0000  0.0000
   8.     0.0000  0.0000  0.0000  0.0000  0.0000  0.0000  0.0000  2.0000  0.0000
   9.     0.0000  0.0000  0.0000  0.0000  0.0000  0.0000  0.0000  0.0000  2.0000
  10.     0.0000  0.0000  0.0000  0.0000  0.0000  0.0000  0.0000  0.0000  0.0000
  11.     0.0000  0.0000  0.0000  0.0000  0.0000  0.0000  0.0000  0.0000  0.0000
  12.     0.0000  0.0000  0.0000  0.0000  0.0000  0.0000  0.0000  0.0000  0.0000

      MO    10      11      12
     ---- ------  ------  ------
   1.     0.0000  0.0000  0.0000
   2.     0.0000  0.0000  0.0000
   3.     0.0000  0.0000  0.0000
   4.     0.0000  0.0000  0.0000
   5.     0.0000  0.0000  0.0000
   6.     0.0000  0.0000  0.0000
   7.     0.0000  0.0000  0.0000
   8.     0.0000  0.0000  0.0000
   9.     0.0000  0.0000  0.0000
  10.     0.0000  0.0000  0.0000
  11.     0.0000  0.0000  0.0000
  12.     0.0000  0.0000  0.0000


 NATURAL POPULATIONS:  Natural atomic orbital occupancies

  NAO Atom No lang   Type(AO)    Occupancy      Energy
 -------------------------------------------------------
   1    O  1  s      Cor( 1s)     1.99999     -20.26535
   2    O  1  s      Val( 2s)     1.82342      -1.05788
   3    O  1  px     Val( 2p)     1.49542      -0.23105
   4    O  1  py     Val( 2p)     1.04106      -0.06360
   5    O  1  pz     Val( 2p)     1.83966      -0.36334

   6    O  2  s      Cor( 1s)     1.99999     -20.26535
   7    O  2  s      Val( 2s)     1.82342      -1.05788
   8    O  2  px     Val( 2p)     1.49542      -0.23105
   9    O  2  py     Val( 2p)     1.04106      -0.06360
  10    O  2  pz     Val( 2p)     1.83966      -0.36334

  11    H  3  s      Val( 1s)     0.80044       0.05197

  12    H  4  s      Val( 1s)     0.80044       0.05197


 Summary of Natural Population Analysis:

                                     Natural Population
             Natural    ---------------------------------------------
  Atom No    Charge        Core      Valence    Rydberg      Total
 --------------------------------------------------------------------
    O  1   -0.19956      1.99999     6.19957    0.00000     8.19956
    O  2   -0.19956      1.99999     6.19957    0.00000     8.19956
    H  3    0.19956      0.00000     0.80044    0.00000     0.80044
    H  4    0.19956      0.00000     0.80044    0.00000     0.80044
 ====================================================================
 * Total *  0.00000      3.99998    14.00002    0.00000    18.00000

                                 Natural Population
 ---------------------------------------------------------
   Core                       3.99998 ( 99.9996% of    4)
   Valence                   14.00002 (100.0001% of   14)
   Natural Minimal Basis     18.00000 (100.0000% of   18)
   Natural Rydberg Basis      0.00000 (  0.0000% of   18)
 ---------------------------------------------------------

    Atom No         Natural Electron Configuration
 ----------------------------------------------------------------------------
      O  1      [core]2s( 1.82)2p( 4.38)
      O  2      [core]2s( 1.82)2p( 4.38)
      H  3            1s( 0.80)
      H  4            1s( 0.80)


 PNAOs in the AO basis:

           AO          1       2       3       4       5       6       7       8
      ------------ ------- ------- ------- ------- ------- ------- ------- -------
   1.  O 1 (s)      0.9807 -0.3123  0.0000  0.0000  0.0000  0.0000  0.0000  0.0000
   2.  O 1 (s)      0.0713  1.0268  0.0000  0.0000  0.0000  0.0000  0.0000  0.0000
   3.  O 1 (px)     0.0000  0.0000  1.0000  0.0000  0.0000  0.0000  0.0000  0.0000
   4.  O 1 (py)     0.0000  0.0000  0.0000  1.0000  0.0000  0.0000  0.0000  0.0000
   5.  O 1 (pz)     0.0000  0.0000  0.0000  0.0000  1.0000  0.0000  0.0000  0.0000
   6.  O 2 (s)      0.0000  0.0000  0.0000  0.0000  0.0000  0.9807 -0.3123  0.0000
   7.  O 2 (s)      0.0000  0.0000  0.0000  0.0000  0.0000  0.0713  1.0268  0.0000
   8.  O 2 (px)     0.0000  0.0000  0.0000  0.0000  0.0000  0.0000  0.0000  1.0000
   9.  O 2 (py)     0.0000  0.0000  0.0000  0.0000  0.0000  0.0000  0.0000  0.0000
  10.  O 2 (pz)     0.0000  0.0000  0.0000  0.0000  0.0000  0.0000  0.0000  0.0000
  11.  H 3 (s)      0.0000  0.0000  0.0000  0.0000  0.0000  0.0000  0.0000  0.0000
  12.  H 4 (s)      0.0000  0.0000  0.0000  0.0000  0.0000  0.0000  0.0000  0.0000

           AO          9      10      11      12
      ------------ ------- ------- ------- -------
   1.  O 1 (s)      0.0000  0.0000  0.0000  0.0000
   2.  O 1 (s)      0.0000  0.0000  0.0000  0.0000
   3.  O 1 (px)     0.0000  0.0000  0.0000  0.0000
   4.  O 1 (py)     0.0000  0.0000  0.0000  0.0000
   5.  O 1 (pz)     0.0000  0.0000  0.0000  0.0000
   6.  O 2 (s)      0.0000  0.0000  0.0000  0.0000
   7.  O 2 (s)      0.0000  0.0000  0.0000  0.0000
   8.  O 2 (px)     0.0000  0.0000  0.0000  0.0000
   9.  O 2 (py)     1.0000  0.0000  0.0000  0.0000
  10.  O 2 (pz)     0.0000  1.0000  0.0000  0.0000
  11.  H 3 (s)      0.0000  0.0000  1.0000  0.0000
  12.  H 4 (s)      0.0000  0.0000  0.0000  1.0000


 PNAO overlap matrix:

           NAO         1       2       3       4       5       6       7       8
      ------------ ------- ------- ------- ------- ------- ------- ------- -------
   1.  O 1( 1s )    1.0000  0.0000  0.0000  0.0000  0.0000  0.0021  0.0206  0.0000
   2.  O 1( 2s )    0.0000  1.0000  0.0000  0.0000  0.0000  0.0206  0.1638  0.0000
   3.  O 1( 2px)    0.0000  0.0000  1.0000  0.0000  0.0000  0.0000  0.0000  0.0771
   4.  O 1( 2py)    0.0000  0.0000  0.0000  1.0000  0.0000 -0.0312 -0.2066  0.0000
   5.  O 1( 2pz)    0.0000  0.0000  0.0000  0.0000  1.0000  0.0000  0.0000  0.0000
   6.  O 2( 1s )    0.0021  0.0206  0.0000 -0.0312  0.0000  1.0000  0.0000  0.0000
   7.  O 2( 2s )    0.0206  0.1638  0.0000 -0.2066  0.0000  0.0000  1.0000  0.0000
   8.  O 2( 2px)    0.0000  0.0000  0.0771  0.0000  0.0000  0.0000  0.0000  1.0000
   9.  O 2( 2py)    0.0312  0.2066  0.0000 -0.2318  0.0000  0.0000  0.0000  0.0000
  10.  O 2( 2pz)    0.0000  0.0000  0.0000  0.0000  0.0771  0.0000  0.0000  0.0000
  11.  H 3( 1s )    0.0837  0.4591  0.3330  0.0582  0.1883  0.0134  0.0971  0.0466
  12.  H 4( 1s )    0.0134  0.0971 -0.0466 -0.0896  0.0263  0.0837  0.4591 -0.3330

           NAO         9      10      11      12
      ------------ ------- ------- ------- -------
   1.  O 1( 1s )    0.0312  0.0000  0.0837  0.0134
   2.  O 1( 2s )    0.2066  0.0000  0.4591  0.0971
   3.  O 1( 2px)    0.0000  0.0000  0.3330 -0.0466
   4.  O 1( 2py)   -0.2318  0.0000  0.0582 -0.0896
   5.  O 1( 2pz)    0.0000  0.0771  0.1883  0.0263
   6.  O 2( 1s )    0.0000  0.0000  0.0134  0.0837
   7.  O 2( 2s )    0.0000  0.0000  0.0971  0.4591
   8.  O 2( 2px)    0.0000  0.0000  0.0466 -0.3330
   9.  O 2( 2py)    1.0000  0.0000  0.0896 -0.0582
  10.  O 2( 2pz)    0.0000  1.0000  0.0263  0.1883
  11.  H 3( 1s )    0.0896  0.0263  1.0000  0.0560
  12.  H 4( 1s )   -0.0582  0.1883  0.0560  1.0000


 PNAO density matrix:

           NAO         1       2       3       4       5       6       7       8
      ------------ ------- ------- ------- ------- ------- ------- ------- -------
   1.  O 1( 1s )    2.0000  0.0000  0.0012  0.0017  0.0007  0.0041  0.0415 -0.0004
   2.  O 1( 2s )    0.0000  1.9774 -0.0467  0.0849 -0.0255  0.0415  0.3425 -0.0002
   3.  O 1( 2px)    0.0012 -0.0467  1.7401 -0.0635 -0.1457  0.0004  0.0002  0.1766
   4.  O 1( 2py)    0.0017  0.0849 -0.0635  1.3311 -0.0410 -0.0637 -0.5113  0.0174
   5.  O 1( 2pz)    0.0007 -0.0255 -0.1457 -0.0410  1.9175  0.0002  0.0017 -0.0016
   6.  O 2( 1s )    0.0041  0.0415  0.0004 -0.0637  0.0002  2.0000  0.0000 -0.0012
   7.  O 2( 2s )    0.0415  0.3425  0.0002 -0.5113  0.0017  0.0000  1.9774  0.0467
   8.  O 2( 2px)   -0.0004 -0.0002  0.1766  0.0174 -0.0016 -0.0012  0.0467  1.7401
   9.  O 2( 2py)    0.0637  0.5113  0.0174 -1.1093  0.0003 -0.0017 -0.0849 -0.0635
  10.  O 2( 2pz)    0.0002  0.0017  0.0016 -0.0003  0.1632  0.0007 -0.0255  0.1457
  11.  H 3( 1s )    0.1657  0.9932  1.0442  0.1613  0.5890  0.0261  0.1845  0.0751
  12.  H 4( 1s )    0.0261  0.1845 -0.0751 -0.1105  0.0426  0.1657  0.9932 -1.0442

           NAO         9      10      11      12
      ------------ ------- ------- ------- -------
   1.  O 1( 1s )    0.0637  0.0002  0.1657  0.0261
   2.  O 1( 2s )    0.5113  0.0017  0.9932  0.1845
   3.  O 1( 2px)    0.0174  0.0016  1.0442 -0.0751
   4.  O 1( 2py)   -1.1093 -0.0003  0.1613 -0.1105
   5.  O 1( 2pz)    0.0003  0.1632  0.5890  0.0426
   6.  O 2( 1s )   -0.0017  0.0007  0.0261  0.1657
   7.  O 2( 2s )   -0.0849 -0.0255  0.1845  0.9932
   8.  O 2( 2px)   -0.0635  0.1457  0.0751 -1.0442
   9.  O 2( 2py)    1.3311  0.0410  0.1105 -0.1613
  10.  O 2( 2pz)    0.0410  1.9175  0.0426  0.5890
  11.  H 3( 1s )    0.1105  0.0426  1.4457  0.1102
  12.  H 4( 1s )   -0.1613  0.5890  0.1102  1.4457


 NAOs in the AO basis:

           AO          1       2       3       4       5       6       7       8
      ------------ ------- ------- ------- ------- ------- ------- ------- -------
   1.  O 1 (s)      0.9807 -0.3249 -0.0075  0.0038 -0.0043 -0.0010  0.0054  0.0002
   2.  O 1 (s)      0.0713  1.1542  0.0803 -0.0233  0.0460 -0.0001 -0.0793  0.0001
   3.  O 1 (px)     0.0000  0.0648  1.0575  0.0117  0.0308  0.0000 -0.0001 -0.0295
   4.  O 1 (py)     0.0000 -0.0189  0.0117  1.0456  0.0063  0.0000  0.1028  0.0040
   5.  O 1 (pz)     0.0000  0.0371  0.0308  0.0063  1.0198  0.0000  0.0054  0.0007
   6.  O 2 (s)     -0.0010  0.0054 -0.0002 -0.0063 -0.0006  0.9807 -0.3249  0.0075
   7.  O 2 (s)     -0.0001 -0.0793 -0.0001  0.1279  0.0068  0.0713  1.1542 -0.0803
   8.  O 2 (px)     0.0000  0.0001 -0.0295  0.0040  0.0007  0.0000 -0.0648  1.0575
   9.  O 2 (py)     0.0000 -0.1028  0.0040  0.1322  0.0013  0.0000  0.0189  0.0117
  10.  O 2 (pz)     0.0000  0.0054 -0.0007 -0.0013 -0.0365  0.0000  0.0371 -0.0308
  11.  H 3 (s)      0.0000 -0.2514 -0.2068 -0.0432 -0.1166  0.0000 -0.0210 -0.0203
  12.  H 4 (s)      0.0000 -0.0210  0.0203  0.0146 -0.0069  0.0000 -0.2514  0.2068

           AO          9      10      11      12
      ------------ ------- ------- ------- -------
   1.  O 1 (s)      0.0063 -0.0006  0.0094  0.0002
   2.  O 1 (s)     -0.1279  0.0068 -0.3602 -0.0301
   3.  O 1 (px)     0.0040 -0.0007 -0.2378  0.0234
   4.  O 1 (py)     0.1322 -0.0013 -0.0497  0.0168
   5.  O 1 (pz)     0.0013 -0.0365 -0.1341 -0.0079
   6.  O 2 (s)     -0.0038 -0.0043  0.0002  0.0094
   7.  O 2 (s)      0.0233  0.0460 -0.0301 -0.3602
   8.  O 2 (px)     0.0117 -0.0308 -0.0234  0.2378
   9.  O 2 (py)     1.0456 -0.0063 -0.0168  0.0497
  10.  O 2 (pz)    -0.0063  1.0198 -0.0079 -0.1341
  11.  H 3 (s)     -0.0146 -0.0069  1.2099 -0.0178
  12.  H 4 (s)      0.0432 -0.1166 -0.0178  1.2099


 NAO density matrix:

           NAO         1       2       3       4       5       6       7       8
      ------------ ------- ------- ------- ------- ------- ------- ------- -------
   1.  O 1( 1s )    2.0000  0.0003  0.0016  0.0021  0.0009  0.0000  0.0007 -0.0006
   2.  O 1( 2s )    0.0003  1.8234 -0.2400  0.1908 -0.1324  0.0007  0.0517  0.0188
   3.  O 1( 2px)    0.0016 -0.2400  1.4954 -0.1065 -0.2834  0.0006 -0.0188  0.0320
   4.  O 1( 2py)    0.0021  0.1908 -0.1065  1.0411 -0.0679 -0.0015 -0.2525  0.0214
   5.  O 1( 2pz)    0.0009 -0.1324 -0.2834 -0.0679  1.8397  0.0002 -0.0019 -0.0051
   6.  O 2( 1s )    0.0000  0.0007  0.0006 -0.0015  0.0002  2.0000  0.0003 -0.0016
   7.  O 2( 2s )    0.0007  0.0517 -0.0188 -0.2525 -0.0019  0.0003  1.8234  0.2400
   8.  O 2( 2px)   -0.0006  0.0188  0.0320  0.0214 -0.0051 -0.0016  0.2400  1.4954
   9.  O 2( 2py)    0.0015  0.2525  0.0214 -0.9285 -0.0016 -0.0021 -0.1908 -0.1065
  10.  O 2( 2pz)    0.0002 -0.0019  0.0051  0.0016  0.0160  0.0009 -0.1324  0.2834
  11.  H 3( 1s )   -0.0024  0.3789  0.7767  0.1252  0.4376 -0.0009  0.0022 -0.0135
  12.  H 4( 1s )   -0.0009  0.0022  0.0135  0.0631 -0.0277 -0.0024  0.3789 -0.7767

           NAO         9      10      11      12
      ------------ ------- ------- ------- -------
   1.  O 1( 1s )    0.0015  0.0002 -0.0024 -0.0009
   2.  O 1( 2s )    0.2525 -0.0019  0.3789  0.0022
   3.  O 1( 2px)    0.0214  0.0051  0.7767  0.0135
   4.  O 1( 2py)   -0.9285  0.0016  0.1252  0.0631
   5.  O 1( 2pz)   -0.0016  0.0160  0.4376 -0.0277
   6.  O 2( 1s )   -0.0021  0.0009 -0.0009 -0.0024
   7.  O 2( 2s )   -0.1908 -0.1324  0.0022  0.3789
   8.  O 2( 2px)   -0.1065  0.2834 -0.0135 -0.7767
   9.  O 2( 2py)    1.0411  0.0679 -0.0631 -0.1252
  10.  O 2( 2pz)    0.0679  1.8397 -0.0277  0.4376
  11.  H 3( 1s )   -0.0631 -0.0277  0.8004  0.0359
  12.  H 4( 1s )   -0.1252  0.4376  0.0359  0.8004


 NATURAL BOND ORBITAL ANALYSIS:

 Initiate 2-center NBO search using THRESH = 1.900 and PRJTHR = 0.300

 Search of NAO DM block for core orbitals on atom:   1
      Eigenvector ( 1) has occupancy 1.99999
            1.0000 0.0000 0.0000 0.0000 0.0000
        1 eigenvector(s) stashed in permanent list

 Search of NAO DM block for core orbitals on atom:   2
      Eigenvector ( 1) has occupancy 1.99999
            1.0000 0.0000 0.0000 0.0000 0.0000
        1 eigenvector(s) stashed in permanent list

 Core orbitals projected from the NAO density matrix
      14.000 electrons remain (>1.900); search continues

 Search of NAO DM block for the following atom(s):   1
      Select eigenvectors with eigenvalue > 1.900
       2.000 1.999 1.218 0.982 0.000
      Eigenvector ( 1) has occupancy 2.00000
            0.0000 0.7749-0.5480 0.1977 0.2451
      Eigenvector ( 2) has occupancy 1.99894
            0.0000-0.4243-0.2573-0.1169 0.8603
      2 hybrids on atom 1 stashed in prospective list

 Search of NAO DM block for the following atom(s):   2
      Select eigenvectors with eigenvalue > 1.900
       2.000 1.999 1.218 0.982 0.000
      Eigenvector ( 1) has occupancy 2.00000
            0.0000 0.7749 0.5480-0.1977 0.2451
      Eigenvector ( 2) has occupancy 1.99894
            0.0000-0.4243 0.2573 0.1169 0.8603
      2 hybrids on atom 2 stashed in prospective list

 Stash prospective hybrids having projection expectation value > 0.300
       1.000 1.000 1.000 1.000
      0 hybrids eliminated in 1 pass
      4 hybrids moved from prospective to permanent list

 NHOs of 1-center eigenvectors projected from the NAO density matrix
       6.002 electrons remain (>1.900); search continues

 Search of NAO DM block for the following atom(s):   1   2
      Select eigenvectors with eigenvalue > 1.900
       2.000 1.237 1.165 0.000 0.000 0.000 0.000 0.000 0.000 0.000
      Eigenvector ( 1) has occupancy 2.00000
            0.0000 0.2016 0.0517-0.6754 0.0231 0.0000 0.2016-0.0517
            0.6754 0.0231
      1 hybrid on atom 1 stashed in prospective list
      1 hybrid on atom 2 stashed in prospective list

 Search of NAO DM block for the following atom(s):   1   3
      Select eigenvectors with eigenvalue > 1.900
       1.999 1.000 0.002 0.000 0.000 0.000
      Eigenvector ( 1) has occupancy 1.99946
            0.0000 0.3137 0.6172 0.0519 0.3464 0.6308
      1 hybrid on atom 1 stashed in prospective list
      1 hybrid on atom 3 stashed in prospective list

 Search of NAO DM block for the following atom(s):   2   4
      Select eigenvectors with eigenvalue > 1.900
       1.999 1.000 0.002 0.000 0.000 0.000
      Eigenvector ( 1) has occupancy 1.99946
            0.0000 0.3137-0.6172-0.0519 0.3464 0.6308
      1 hybrid on atom 2 stashed in prospective list
      1 hybrid on atom 4 stashed in prospective list

 Stash prospective hybrids having projection expectation value > 0.300
       0.985 0.985 0.985 0.985 0.985 0.985
      0 hybrids eliminated in 1 pass
      6 hybrids moved from prospective to permanent list

 NHOs of 2-center eigenvectors projected from the NAO density matrix
       0.000 electrons remain in the fully projected matrix

 Search of NHO DM block for the following atom(s):   1
      Select eigenvectors with eigenvalue > 1.900
       2.000 2.000 1.999 0.000 0.000
      Eigenvector ( 1) has occupancy 1.99999
            1.0000 0.0000 0.0000 0.0000 0.0000
           NBO accepted:    1. Label:CR ( 1)   1
      Eigenvector ( 2) has occupancy 2.00000
            0.0000 1.0000 0.0000 0.0000 0.0000
           NBO accepted:    2. Label:LP ( 1)   1
      Eigenvector ( 3) has occupancy 1.99894
            0.0000 0.0000 1.0000 0.0000 0.0000
           NBO accepted:    3. Label:LP ( 2)   1
        3 eigenvector(s) stashed in permanent list

 Search of NHO DM block for the following atom(s):   2
      Select eigenvectors with eigenvalue > 1.900
       2.000 2.000 1.999 0.000 0.000
      Eigenvector ( 1) has occupancy 1.99999
            1.0000 0.0000 0.0000 0.0000 0.0000
           NBO accepted:    4. Label:CR ( 1)   2
      Eigenvector ( 2) has occupancy 2.00000
            0.0000 1.0000 0.0000 0.0000 0.0000
           NBO accepted:    5. Label:LP ( 1)   2
      Eigenvector ( 3) has occupancy 1.99894
            0.0000 0.0000 1.0000 0.0000 0.0000
           NBO accepted:    6. Label:LP ( 2)   2
        3 eigenvector(s) stashed in permanent list

  1-center NBOs projected from the NHO density matrix
       6.002 electrons remain (>1.900); search continues

 Search of NHO DM block for the following atom(s):   1   2
      Select eigenvectors with eigenvalue > 1.900
       1.996 0.004 0.000 0.000 0.000 0.000 0.000 0.000 0.000 0.000
      Eigenvector ( 1) has occupancy 1.99617
            0.0000 0.0000 0.0000 0.7071 0.0000 0.0000 0.0000 0.0000
            0.7071 0.0000
      Occupancy is 1.996 after deleting minor hybrid components
            0.0000 0.0000 0.0000 0.7071 0.0000 0.0000 0.0000 0.0000
            0.7071 0.0000
           NBO accepted:    7. Label:BD ( 1)   1   2
      Occupancy is 0.004 for antibonding component
            0.0000 0.0000 0.0000 0.7071 0.0000 0.0000 0.0000 0.0000
           -0.7071 0.0000
           NBO accepted:    8. Label:BD*( 1)   1   2
        2 eigenvector(s) stashed in permanent list

 Search of NHO DM block for the following atom(s):   1   3
      Select eigenvectors with eigenvalue > 1.900
       1.998 0.004 0.000 0.000 0.000 0.000
      Eigenvector ( 1) has occupancy 1.99753
            0.0000 0.0000 0.0000 0.0000 0.7748 0.6322
      Occupancy is 1.998 after deleting minor hybrid components
            0.0000 0.0000 0.0000 0.0000 0.7748 0.6322
           NBO accepted:    9. Label:BD ( 1)   1   3
      Occupancy is 0.004 for antibonding component
            0.0000 0.0000 0.0000 0.0000-0.6322 0.7748
           NBO accepted:   10. Label:BD*( 1)   1   3
        2 eigenvector(s) stashed in permanent list

 Search of NHO DM block for the following atom(s):   2   4
      Select eigenvectors with eigenvalue > 1.900
       1.998 0.004 0.000 0.000 0.000 0.000
      Eigenvector ( 1) has occupancy 1.99753
            0.0000 0.0000 0.0000 0.0000 0.7748 0.6322
      Occupancy is 1.998 after deleting minor hybrid components
            0.0000 0.0000 0.0000 0.0000 0.7748 0.6322
           NBO accepted:   11. Label:BD ( 1)   2   4
      Occupancy is 0.004 for antibonding component
            0.0000 0.0000 0.0000 0.0000-0.6322 0.7748
           NBO accepted:   12. Label:BD*( 1)   2   4
        2 eigenvector(s) stashed in permanent list

  2-center NBOs projected from the NHO density matrix
       0.000 electrons remain in the fully projected matrix

                            Occupancies       Lewis Structure    Low   High
         Max    Occ     -------------------  -----------------   occ   occ
  Cycle  Ctr   Thresh    Lewis   non-Lewis     CR  BD  nC  LP    (L)   (NL)
 ============================================================================
    1     2     1.90    17.98909   0.01091      2   3   0   4     0      0
 ----------------------------------------------------------------------------

 Structure accepted: No low occupancy Lewis orbitals

 -------------------------------------------------------
   Core                      3.99998 (100.000% of   4)
   Valence Lewis            13.98910 ( 99.922% of  14)
  ==================      =============================
   Total Lewis              17.98909 ( 99.939% of  18)
  -----------------------------------------------------
   Valence non-Lewis         0.01091 (  0.061% of  18)
   Rydberg non-Lewis         0.00000 (  0.000% of  18)
  ==================      =============================
   Total non-Lewis           0.01091 (  0.061% of  18)
 -------------------------------------------------------


     (Occupancy)   Bond orbital / Coefficients / Hybrids
 ------------------ Lewis ------------------------------------------------------
   1. (1.99999) CR ( 1) O  1            s(100.00%)
                                         1.0000  0.0000  0.0000  0.0000  0.0000
   2. (1.99999) CR ( 1) O  2            s(100.00%)
                                         1.0000  0.0000  0.0000  0.0000  0.0000
   3. (2.00000) LP ( 1) O  1            s( 60.05%)p 0.67( 39.95%)
                                         0.0000  0.7749 -0.5480  0.1977  0.2451
   4. (1.99894) LP ( 2) O  1            s( 18.00%)p 4.56( 82.00%)
                                         0.0000  0.4243  0.2573  0.1169 -0.8603
   5. (2.00000) LP ( 1) O  2            s( 60.05%)p 0.67( 39.95%)
                                         0.0000  0.7749  0.5480 -0.1977  0.2451
   6. (1.99894) LP ( 2) O  2            s( 18.00%)p 4.56( 82.00%)
                                         0.0000  0.4243 -0.2573 -0.1169 -0.8603
   7. (1.99617) BD ( 1) O  1- O  2
               ( 50.00%)   0.7071* O  1 s(  6.72%)p13.88( 93.28%)
                                         0.0000  0.2592  0.0193 -0.9656  0.0024
               ( 50.00%)   0.7071* O  2 s(  6.72%)p13.88( 93.28%)
                                         0.0000  0.2592 -0.0193  0.9656  0.0024
   8. (1.99753) BD ( 1) O  1- H  3
               ( 60.04%)   0.7748* O  1 s( 15.23%)p 5.57( 84.77%)
                                         0.0000  0.3903  0.7957  0.1218  0.4470
               ( 39.96%)   0.6322* H  3 s(100.00%)
                                         1.0000
   9. (1.99753) BD ( 1) O  2- H  4
               ( 60.04%)   0.7748* O  2 s( 15.23%)p 5.57( 84.77%)
                                         0.0000  0.3903 -0.7957 -0.1218  0.4470
               ( 39.96%)   0.6322* H  4 s(100.00%)
                                         1.0000
 ---------------- non-Lewis ----------------------------------------------------
  10. (0.00374) BD*( 1) O  1- O  2
               ( 50.00%)   0.7071* O  1 s(  6.72%)p13.88( 93.28%)
                                         0.0000  0.2592  0.0193 -0.9656  0.0024
               ( 50.00%)  -0.7071* O  2 s(  6.72%)p13.88( 93.28%)
                                         0.0000  0.2592 -0.0193  0.9656  0.0024
  11. (0.00359) BD*( 1) O  1- H  3
               ( 39.96%)   0.6322* O  1 s( 15.23%)p 5.57( 84.77%)
                                         0.0000 -0.3903 -0.7957 -0.1218 -0.4470
               ( 60.04%)  -0.7748* H  3 s(100.00%)
                                        -1.0000
  12. (0.00359) BD*( 1) O  2- H  4
               ( 39.96%)   0.6322* O  2 s( 15.23%)p 5.57( 84.77%)
                                         0.0000 -0.3903  0.7957  0.1218 -0.4470
               ( 60.04%)  -0.7748* H  4 s(100.00%)
                                        -1.0000


 NHO DIRECTIONALITY AND BOND BENDING (deviation from line of nuclear centers at
                                      the position of maximum hybrid amplitude)

         [Thresholds for printing:  angular deviation  >  1.0 degree]
                                    p- or d-character  > 25.0%
                                    orbital occupancy  >  0.10e

                        Line of Centers        Hybrid 1             Hybrid 2
                        ---------------  -------------------  ------------------
           NBO            Theta   Phi    Theta   Phi    Dev   Theta   Phi    Dev
 ===============================================================================
   3. LP ( 1) O  1          --     --     64.9  160.2   --      --     --    --
   4. LP ( 2) O  1          --     --    161.0   22.5   --      --     --    --
   5. LP ( 1) O  2          --     --     64.9  340.2   --      --     --    --
   6. LP ( 2) O  2          --     --    161.0  202.5   --      --     --    --
   7. BD ( 1) O  1- O  2   90.0  270.0    89.7  271.4   1.5    89.7   91.4   1.5
   8. BD ( 1) O  1- H  3   60.9    9.9    60.9    8.5   1.2     --     --    --
   9. BD ( 1) O  2- H  4   60.9  189.9    60.9  188.5   1.2     --     --    --


 SECOND ORDER PERTURBATION THEORY ANALYSIS OF FOCK MATRIX IN NBO BASIS

     Threshold for printing:   0.50 kcal/mol
                                                          E(2) E(NL)-E(L) F(L,NL)
      Donor (L) NBO              Acceptor (NL) NBO      kcal/mol   a.u.    a.u.
 ===============================================================================

 within unit  1
    4. LP ( 2) O  1            12. BD*( 1) O  2- H  4      0.75    1.16   0.026
    6. LP ( 2) O  2            11. BD*( 1) O  1- H  3      0.75    1.16   0.026
    7. BD ( 1) O  1- O  2      11. BD*( 1) O  1- H  3      1.16    1.29   0.035
    7. BD ( 1) O  1- O  2      12. BD*( 1) O  2- H  4      1.16    1.29   0.035
    8. BD ( 1) O  1- H  3      10. BD*( 1) O  1- O  2      1.51    1.26   0.039
    8. BD ( 1) O  1- H  3      12. BD*( 1) O  2- H  4      0.52    1.43   0.024
    9. BD ( 1) O  2- H  4      10. BD*( 1) O  1- O  2      1.51    1.26   0.039
    9. BD ( 1) O  2- H  4      11. BD*( 1) O  1- H  3      0.52    1.43   0.024


 NATURAL BOND ORBITALS (Summary):

                                                     Principal Delocalizations
           NBO                 Occupancy    Energy   (geminal,vicinal,remote)
 ===============================================================================
 Molecular unit  1  (H2O2)
 ------ Lewis --------------------------------------
    1. CR ( 1) O  1             1.99999   -20.26535
    2. CR ( 1) O  2             1.99999   -20.26535
    3. LP ( 1) O  1             2.00000    -0.82732
    4. LP ( 2) O  1             1.99894    -0.53965  12(v)
    5. LP ( 1) O  2             2.00000    -0.82732
    6. LP ( 2) O  2             1.99894    -0.53965  11(v)
    7. BD ( 1) O  1- O  2       1.99617    -0.66643  11(g),12(g)
    8. BD ( 1) O  1- H  3       1.99753    -0.80805  10(g),12(v)
    9. BD ( 1) O  2- H  4       1.99753    -0.80805  10(g),11(v)
 ------ non-Lewis ----------------------------------
   10. BD*( 1) O  1- O  2       0.00374     0.45134
   11. BD*( 1) O  1- H  3       0.00359     0.61866
   12. BD*( 1) O  2- H  4       0.00359     0.61866
          -------------------------------
                 Total Lewis   17.98909  ( 99.9394%)
           Valence non-Lewis    0.01091  (  0.0606%)
           Rydberg non-Lewis    0.00000  (  0.0000%)
          -------------------------------
               Total unit  1   18.00000  (100.0000%)
              Charge unit  1    0.00000

 $CHOOSE
   LONE 1 2 2 2 END
   BOND S 1 2 S 1 3 S 2 4 END
 $END

 NBO analysis completed in 0.15 CPU seconds (1 wall second)
 Maximum scratch memory used by NBO was 222062 words (1.69 MB)
 Maximum scratch memory used by G16NBO was 8368 words (0.06 MB)

 Opening RunExU unformatted file "/cluster/work/users/beto93/mol36/Gau-897303.EUF"
 Read unf file /cluster/work/users/beto93/mol36/Gau-897303.EUF:
 Label Gaussian matrix elements                                         IVers= 2 NLab= 2 Version=ES64L-G16RevC.01
 Title mol36-NBO                                                       
 NAtoms=     4 NBasis=    12 NBsUse=    12 ICharg=     0 Multip=     1 NE=    18 Len12L=8 Len4L=8 IOpCl= 0 ICGU=111
 GAUSSIAN SCALARS                    NI= 1 NR= 1 NTot=       1 LenBuf=    2 NRI=1 N=    1000
 NPA CHARGES                         NI= 0 NR= 1 NTot=       4 LenBuf= 4000 NRI=1 N=       4
 Recovered energy= -148.757521315     dipole=      0.000000000000      0.000000000000      0.545639487459
 Unable to Open any file for archive entry.
 1\1\GINC-C2-8\SP\RHF\STO-3G\H2O2\BETO93\18-Nov-2024\0\\#RHF/STO-3G int
 =nobasistransform Symmetry=None 5D 7F Pop=NBO7Read\\mol36-NBO\\0,1\O,0
 ,0.,0.734058,-0.05275\O,0,0.,-0.734058,-0.05275\H,0,0.839547,0.880752,
 0.422001\H,0,-0.839547,-0.880752,0.422001\\Version=ES64L-G16RevC.01\HF
 =-148.7575213\RMSD=2.281e-09\Dipole=0.,0.,0.5456395\Quadrupole=0.87069
 94,-0.4923236,-0.3783758,1.6227066,0.,0.\PG=Unknown\\@
 The archive entry for this job was punched.


 ON A TOMBSTONE, "HERE LIES LESTER MOORE,
 FOUR SLUGS FROM A 44, NO LES, NO MORE".
 Job cpu time:       0 days  0 hours  0 minutes 18.9 seconds.
 Elapsed time:       0 days  0 hours  0 minutes  6.4 seconds.
 File lengths (MBytes):  RWF=     10 Int=      0 D2E=      0 Chk=      1 Scr=      1
 Normal termination of Gaussian 16 at Mon Nov 18 15:41:21 2024.
