 Entering Gaussian System, Link 0=g16
 Initial command:
 /cluster/software/Gaussian/g16_C.01/l1.exe "/cluster/work/users/beto93/LiH/Gau-1873571.inp" -scrdir="/cluster/work/users/beto93/LiH/"
 Entering Link 1 = /cluster/software/Gaussian/g16_C.01/l1.exe PID=   1873572.
  
 Copyright (c) 1988-2019, Gaussian, Inc.  All Rights Reserved.
  
 This is part of the Gaussian(R) 16 program.  It is based on
 the Gaussian(R) 09 system (copyright 2009, Gaussian, Inc.),
 the Gaussian(R) 03 system (copyright 2003, Gaussian, Inc.),
 the Gaussian(R) 98 system (copyright 1998, Gaussian, Inc.),
 the Gaussian(R) 94 system (copyright 1995, Gaussian, Inc.),
 the Gaussian 92(TM) system (copyright 1992, Gaussian, Inc.),
 the Gaussian 90(TM) system (copyright 1990, Gaussian, Inc.),
 the Gaussian 88(TM) system (copyright 1988, Gaussian, Inc.),
 the Gaussian 86(TM) system (copyright 1986, Carnegie Mellon
 University), and the Gaussian 82(TM) system (copyright 1983,
 Carnegie Mellon University). Gaussian is a federally registered
 trademark of Gaussian, Inc.
  
 This software contains proprietary and confidential information,
 including trade secrets, belonging to Gaussian, Inc.
  
 This software is provided under written license and may be
 used, copied, transmitted, or stored only in accord with that
 written license.
  
 The following legend is applicable only to US Government
 contracts under FAR:
  
                    RESTRICTED RIGHTS LEGEND
  
 Use, reproduction and disclosure by the US Government is
 subject to restrictions as set forth in subparagraphs (a)
 and (c) of the Commercial Computer Software - Restricted
 Rights clause in FAR 52.227-19.
  
 Gaussian, Inc.
 340 Quinnipiac St., Bldg. 40, Wallingford CT 06492
  
  
 ---------------------------------------------------------------
 Warning -- This program may not be used in any manner that
 competes with the business of Gaussian, Inc. or will provide
 assistance to any competitor of Gaussian, Inc.  The licensee
 of this program is prohibited from giving any competitor of
 Gaussian, Inc. access to this program.  By using this program,
 the user acknowledges that Gaussian, Inc. is engaged in the
 business of creating and licensing software in the field of
 computational chemistry and represents and warrants to the
 licensee that it is not a competitor of Gaussian, Inc. and that
 it will not use this program in any manner prohibited above.
 ---------------------------------------------------------------
  

 Cite this work as:
 Gaussian 16, Revision C.01,
 M. J. Frisch, G. W. Trucks, H. B. Schlegel, G. E. Scuseria, 
 M. A. Robb, J. R. Cheeseman, G. Scalmani, V. Barone, 
 G. A. Petersson, H. Nakatsuji, X. Li, M. Caricato, A. V. Marenich, 
 J. Bloino, B. G. Janesko, R. Gomperts, B. Mennucci, H. P. Hratchian, 
 J. V. Ortiz, A. F. Izmaylov, J. L. Sonnenberg, D. Williams-Young, 
 F. Ding, F. Lipparini, F. Egidi, J. Goings, B. Peng, A. Petrone, 
 T. Henderson, D. Ranasinghe, V. G. Zakrzewski, J. Gao, N. Rega, 
 G. Zheng, W. Liang, M. Hada, M. Ehara, K. Toyota, R. Fukuda, 
 J. Hasegawa, M. Ishida, T. Nakajima, Y. Honda, O. Kitao, H. Nakai, 
 T. Vreven, K. Throssell, J. A. Montgomery, Jr., J. E. Peralta, 
 F. Ogliaro, M. J. Bearpark, J. J. Heyd, E. N. Brothers, K. N. Kudin, 
 V. N. Staroverov, T. A. Keith, R. Kobayashi, J. Normand, 
 K. Raghavachari, A. P. Rendell, J. C. Burant, S. S. Iyengar, 
 J. Tomasi, M. Cossi, J. M. Millam, M. Klene, C. Adamo, R. Cammi, 
 J. W. Ochterski, R. L. Martin, K. Morokuma, O. Farkas, 
 J. B. Foresman, and D. J. Fox, Gaussian, Inc., Wallingford CT, 2019.
 
 ******************************************
 Gaussian 16:  ES64L-G16RevC.01  3-Jul-2019
                24-Jul-2024 
 ******************************************
 %LindaWorkers=c2-2-ib
 %NProcShared=4
 Will use up to    4 processors via shared memory.
 %mem=25GB
 %chk=a.chk
 SetLPE:    new flags="-opt 'Tsnet.Node.lindarsharg: ssh'  -nodelist 'c2-2-ib.saga' -env GAUSS_MDEF=3355443200 -env GAUSS_EXEDIR="/cluster/software/Gaussian/g16_C.01/bsd:/cluster/software/Gaussian/g16_C.01""
 Will use up to    1 processors via Linda.
 ------------------------
 #RHF/6-31G* Pop=NBO7Read
 ------------------------
 1/38=1,163=2,172=1/1;
 2/12=2,17=6,18=5,40=1/2;
 3/5=1,6=6,7=1,11=1,25=1,30=1,116=1/1,2,3;
 4//1;
 5/5=2,38=5/2;
 6/7=2,8=2,9=2,10=2,28=1,40=2,113=1,114=1,124=2103/1,12;
 99/5=1,9=1/99;
 -----
 NBO-a
 -----
 Symbolic Z-matrix:
 Charge =  0 Multiplicity = 1
 Li                    0.        0.        0.03959 
 H                     0.        0.        1.55041 
 
                          Input orientation:                          
 ---------------------------------------------------------------------
 Center     Atomic      Atomic             Coordinates (Angstroms)
 Number     Number       Type             X           Y           Z
 ---------------------------------------------------------------------
      1          3           0        0.000000    0.000000    0.039594
      2          1           0        0.000000    0.000000    1.550406
 ---------------------------------------------------------------------
 Stoichiometry    HLi
 Framework group  C*V[C*(HLi)]
 Deg. of freedom     1
 Full point group                 C*V     NOp   4
 Largest Abelian subgroup         C2V     NOp   4
 Largest concise Abelian subgroup C1      NOp   1
                         Standard orientation:                         
 ---------------------------------------------------------------------
 Center     Atomic      Atomic             Coordinates (Angstroms)
 Number     Number       Type             X           Y           Z
 ---------------------------------------------------------------------
      1          3           0        0.000000    0.000000    0.377703
      2          1           0        0.000000    0.000000   -1.133109
 ---------------------------------------------------------------------
 Rotational constants (GHZ):           0.0000000         251.2482468         251.2482468
 Standard basis: 6-31G(d) (6D, 7F)
 There are    10 symmetry adapted cartesian basis functions of A1  symmetry.
 There are     1 symmetry adapted cartesian basis functions of A2  symmetry.
 There are     3 symmetry adapted cartesian basis functions of B1  symmetry.
 There are     3 symmetry adapted cartesian basis functions of B2  symmetry.
 There are    10 symmetry adapted basis functions of A1  symmetry.
 There are     1 symmetry adapted basis functions of A2  symmetry.
 There are     3 symmetry adapted basis functions of B1  symmetry.
 There are     3 symmetry adapted basis functions of B2  symmetry.
    17 basis functions,    32 primitive gaussians,    17 cartesian basis functions
     2 alpha electrons        2 beta electrons
       nuclear repulsion energy         1.0507803967 Hartrees.
 NAtoms=    2 NActive=    2 NUniq=    2 SFac= 1.00D+00 NAtFMM=   60 NAOKFM=F Big=F
 Integral buffers will be    131072 words long.
 Raffenetti 1 integral format.
 Two-electron integral symmetry is turned on.
 One-electron integrals computed using PRISM.
 NBasis=    17 RedAO= T EigKep=  6.78D-03  NBF=    10     1     3     3
 NBsUse=    17 1.00D-06 EigRej= -1.00D+00 NBFU=    10     1     3     3
 ExpMin= 3.60D-02 ExpMax= 6.42D+02 ExpMxC= 9.68D+01 IAcc=3 IRadAn=         5 AccDes= 0.00D+00
 Harris functional with IExCor=  205 and IRadAn=       5 diagonalized for initial guess.
 HarFok:  IExCor=  205 AccDes= 0.00D+00 IRadAn=         5 IDoV= 1 UseB2=F ITyADJ=14
 ICtDFT=  3500011 ScaDFX=  1.000000  1.000000  1.000000  1.000000
 FoFCou: FMM=F IPFlag=           0 FMFlag=      100000 FMFlg1=           0
         NFxFlg=           0 DoJE=T BraDBF=F KetDBF=T FulRan=T
         wScrn=  0.000000 ICntrl=       500 IOpCl=  0 I1Cent=   200000004 NGrid=           0
         NMat0=    1 NMatS0=      1 NMatT0=    0 NMatD0=    1 NMtDS0=    0 NMtDT0=    0
 Petite list used in FoFCou.
 Initial guess orbital symmetries:
       Occupied  (SG) (SG)
       Virtual   (SG) (PI) (PI) (SG) (PI) (PI) (SG) (SG) (PI) (PI)
                 (DLTA) (DLTA) (SG) (SG) (SG)
 The electronic state of the initial guess is 1-SG.
 Keep R1 ints in memory in symmetry-blocked form, NReq=838063.
 Requested convergence on RMS density matrix=1.00D-08 within 128 cycles.
 Requested convergence on MAX density matrix=1.00D-06.
 Requested convergence on             energy=1.00D-06.
 No special actions if energy rises.
 SCF Done:  E(RHF) =  -7.97873188709     A.U. after    9 cycles
            NFock=  9  Conv=0.65D-08     -V/T= 1.9915

 **********************************************************************

            Population analysis using the SCF Density.

 **********************************************************************

 Orbital symmetries:
       Occupied  (SG) (SG)
       Virtual   (SG) (PI) (PI) (SG) (SG) (PI) (PI) (SG) (PI) (PI)
                 (DLTA) (DLTA) (SG) (SG) (SG)
 The electronic state is 1-SG.
 Alpha  occ. eigenvalues --   -2.44502  -0.30484
 Alpha virt. eigenvalues --    0.01035   0.06102   0.06102   0.14249   0.19454
 Alpha virt. eigenvalues --    0.22289   0.22289   0.36811   0.57204   0.57204
 Alpha virt. eigenvalues --    0.58214   0.58214   0.80381   1.19112   1.39047
          Condensed to atoms (all electrons):
               1          2
     1  Li   2.436572   0.410837
     2  H    0.410837   0.741754
 Mulliken charges:
               1
     1  Li   0.152591
     2  H   -0.152591
 Sum of Mulliken charges =   0.00000
 Mulliken charges with hydrogens summed into heavy atoms:
               1
     1  Li   0.000000
 Electronic spatial extent (au):  <R**2>=             19.0603
 Charge=              0.0000 electrons
 Dipole moment (field-independent basis, Debye):
    X=              0.0000    Y=              0.0000    Z=              5.7421  Tot=              5.7421
 Quadrupole moment (field-independent basis, Debye-Ang):
   XX=             -5.3378   YY=             -5.3378   ZZ=             -6.7384
   XY=              0.0000   XZ=              0.0000   YZ=              0.0000
 Traceless Quadrupole moment (field-independent basis, Debye-Ang):
   XX=              0.4669   YY=              0.4669   ZZ=             -0.9337
   XY=              0.0000   XZ=              0.0000   YZ=              0.0000
 Octapole moment (field-independent basis, Debye-Ang**2):
  XXX=              0.0000  YYY=              0.0000  ZZZ=             12.5023  XYY=              0.0000
  XXY=              0.0000  XXZ=              3.7714  XZZ=              0.0000  YZZ=              0.0000
  YYZ=              3.7714  XYZ=              0.0000
 Hexadecapole moment (field-independent basis, Debye-Ang**3):
 XXXX=            -11.9055 YYYY=            -11.9055 ZZZZ=            -28.3245 XXXY=              0.0000
 XXXZ=              0.0000 YYYX=              0.0000 YYYZ=              0.0000 ZZZX=              0.0000
 ZZZY=              0.0000 XXYY=             -3.9685 XXZZ=             -6.5583 YYZZ=             -6.5583
 XXYZ=              0.0000 YYXZ=              0.0000 ZZXY=              0.0000
 N-N= 1.050780396740D+00 E-N=-2.060640837108D+01  KE= 8.047101054070D+00
 Symmetry A1   KE= 8.047101054070D+00
 Symmetry A2   KE= 3.142814527869D-52
 Symmetry B1   KE= 0.000000000000D+00
 Symmetry B2   KE= 0.000000000000D+00
 Running external command "gaunbo7 R"
         input file       "/cluster/work/users/beto93/LiH/Gau-1873572.EIn"
         output file      "/cluster/work/users/beto93/LiH/Gau-1873572.EOu"
         message file     "/cluster/work/users/beto93/LiH/Gau-1873572.EMs"
         fchk file        "/cluster/work/users/beto93/LiH/Gau-1873572.EFC"
         mat. el file     "/cluster/work/users/beto93/LiH/Gau-1873572.EUF"

 Writing WrtUnf unformatted file "/cluster/work/users/beto93/LiH/Gau-1873572.EUF"
 Gaussian matrix elements                                         Version   2 NLab=11 Len12L=8 Len4L=8
 Write SHELL TO ATOM MAP                   from file      0 offset           0 length                   6 to matrix element file.
 Write SHELL TYPES                         from file      0 offset           0 length                   6 to matrix element file.
 Write NUMBER OF PRIMITIVES PER SHELL      from file      0 offset           0 length                   6 to matrix element file.
 Write PRIMITIVE EXPONENTS                 from file      0 offset           0 length                  15 to matrix element file.
 Write CONTRACTION COEFFICIENTS            from file      0 offset           0 length                  15 to matrix element file.
 Write P(S=P) CONTRACTION COEFFICIENTS     from file      0 offset           0 length                  15 to matrix element file.
 Write COORDINATES OF EACH SHELL           from file      0 offset           0 length                  18 to matrix element file.
 Write BONDS PER ATOM                      from file      0 offset           0 length                   2 to matrix element file.
 Write BONDED ATOMS                        from file      0 offset           0 length                   2 to matrix element file.
 Write BOND TYPES                          from file      0 offset           0 length                   2 to matrix element file.
 Write ONIOM CHARGE/MULT                   from file      0 offset           0 length                  32 to matrix element file.
 Write ONIOM ATOM LAYERS                   from file      0 offset           0 length                   2 to matrix element file.
 Write ONIOM ATOM MODIFIERS                from file      0 offset           0 length                   2 to matrix element file.
 Write ONIOM ATOM TYPES                    from file      0 offset           0 length                   2 to matrix element file.
 Write ONIOM LINK ATOMS                    from file      0 offset           0 length                   2 to matrix element file.
 Write ONIOM LINK CHARGES                  from file      0 offset           0 length                   2 to matrix element file.
 Write ONIOM LINK DISTANCES                from file      0 offset           0 length                   8 to matrix element file.
 Write SYMINF INTS                         from file      0 offset           0 length                  26 to matrix element file.
 Write ROTTR TO SO                         from file      0 offset           0 length                  12 to matrix element file.
 Write GAUSSIAN SCALARS                    from file    501 offset           0 to matrix element file.
 Write OPTIMIZATION FLAGS                  from file      0 offset           0 length                   2 to matrix element file.
 Write INTEGER ISO                         from file      0 offset           0 length                   2 to matrix element file.
 Write INTEGER SPIN                        from file      0 offset           0 length                   2 to matrix element file.
 Write REAL ZEFFECTIVE                     from file      0 offset           0 length                   2 to matrix element file.
 Write REAL QUADRUPOLEMOMENT               from file      0 offset           0 length                   2 to matrix element file.
 Write REAL GFACTOR                        from file      0 offset           0 length                   2 to matrix element file.
 Write REAL ZNUCLEAR                       from file      0 offset           0 length                   2 to matrix element file.
 Write MULLIKEN CHARGES                    from file      0 offset           0 length                   2 to matrix element file.
 Write NUCLEAR GRADIENT                    from file  10584 offset           0 length                   6 to matrix element file.
 Array NUCLEAR FORCE CONSTANTS              on  file  10585 does not exist.
 Write ELECTRIC DIPOLE MOMENT              from file      0 offset           0 length                   3 to matrix element file.
 Write NON-ADIABATIC COUPLING              from file  10810 offset           0 length                   6 to matrix element file.
 Write FINITE EM FIELD                     from file  10521 offset           0 length                  35 to matrix element file.
 Write OVERLAP                             from file  10514 offset           0 length                 153 to matrix element file.
 Write CORE HAMILTONIAN ALPHA              from file  10515 offset           0 length                 153 to matrix element file.
 Write CORE HAMILTONIAN BETA               from file  10515 offset         153 length                 153 to matrix element file.
 Write KINETIC ENERGY                      from file  10516 offset           0 length                 153 to matrix element file.
 Write ORTHOGONAL BASIS                    from file  10685 offset           0 length                 289 to matrix element file.
 Write DIPOLE INTEGRALS                    from file  10518 offset           0 length                 459 to matrix element file.
 Array DIP VEL INTEGRALS                    on  file  10572 does not exist.
 Array R X DEL INTEGRALS                    on  file  10572 does not exist.
 Write ALPHA ORBITAL ENERGIES              from file      0 offset           0 length                  17 to matrix element file.
 Write ALPHA MO COEFFICIENTS               from file  10524 offset           0 length                 289 to matrix element file.
 Write ALPHA DENSITY MATRIX                from file      0 offset           0 length                 153 to matrix element file.
 Write ALPHA FOCK MATRIX                   from file  10536 offset           0 length                 153 to matrix element file.
 Write ENERGY-WEIGHTED DENSITY             from file  10571 offset           0 length                 153 to matrix element file.
 Write ALPHA SCF DENSITY MATRIX            from file      0 offset           0 length                 153 to matrix element file.
 No 2e integrals to process.
 Perform NBO analysis...executing G16NBO...

 *********************************** NBO 7.0 ***********************************
             N A T U R A L   A T O M I C   O R B I T A L   A N D
          N A T U R A L   B O N D   O R B I T A L   A N A L Y S I S
 **************************** Espen Tangen (S101595) ***************************
  (c) Copyright 1996-2021 Board of Regents of the University of Wisconsin System
      on behalf of the Theoretical Chemistry Institute.  All rights reserved.

          Cite this program [NBO 7.0.10 (8-Feb-2021)] as:

          NBO 7.0.  E. D. Glendening, J. K. Badenhoop, A. E. Reed,
          J. E. Carpenter, J. A. Bohmann, C. M. Morales, P. Karafiloglou,
          C. R. Landis, and F. Weinhold, Theoretical Chemistry Institute,
          University of Wisconsin, Madison, WI (2018)

       /NPA    / : Natural Population Analysis
       /AOPNAO / : Print the AO to PNAO transformation
       /AONAO  / : Print the AO to NAO transformation
       /AONO   / : Print the NOs in the AO basis
       /AOMO   / : Print the MOs in the AO basis
       /BOAO   / : Print the AO bond-order matrix
       /DMAO   / : Print the AO density matrix
       /DMPNAO / : Print the PNAO density matrix
       /DMNAO  / : Print the NAO density matrix
       /DMMO   / : Print the MO density matrix
       /SAO    / : Print the AO overlap matrix
       /SPNAO  / : Print the PNAO overlap matrix
       /DETAIL / : Write details of NBO search
       /ARCHIVE/ : Write the archive file to lfn47
       /AOINFO / : Write AO information to lfn31
       /FILE   / : Set to inpGenNbo

 Filename set to inpGenNbo

 Job title: NBO-a


 MOs in the AO basis:

           AO          1       2       3       4       5       6       7       8
      ------------ ------- ------- ------- ------- ------- ------- ------- -------
   1. Li 1 (s)      0.9980 -0.1373 -0.1394  0.0000  0.0000  0.0430  0.0392  0.0000
   2. Li 1 (s)     -0.0082  0.2330 -0.4176  0.0000  0.0000  0.4868  2.6904  0.0000
   3. Li 1 (px)     0.0000  0.0000  0.0000  0.0090  0.0000  0.0000  0.0000  1.6710
   4. Li 1 (py)     0.0000  0.0000  0.0000  0.0000  0.0090  0.0000  0.0000  0.0000
   5. Li 1 (pz)     0.0116 -0.2781  0.1668  0.0000  0.0000 -0.6026  0.9686  0.0000
   6. Li 1 (s)     -0.0009  0.1489  1.0096  0.0000  0.0000 -0.9483 -2.1352  0.0000
   7. Li 1 (px)     0.0000  0.0000  0.0000  0.9925  0.0000  0.0000  0.0000 -1.3472
   8. Li 1 (py)     0.0000  0.0000  0.0000  0.0000  0.9925  0.0000  0.0000  0.0000
   9. Li 1 (pz)    -0.0058  0.0202  0.4974  0.0000  0.0000  1.3341 -0.5995  0.0000
  10. Li 1 (d1)     0.0082 -0.0152  0.0692  0.0000  0.0000 -0.0750 -0.2668  0.0000
  11. Li 1 (d4)     0.0082 -0.0152  0.0692  0.0000  0.0000 -0.0750 -0.2668  0.0000
  12. Li 1 (d6)     0.0058  0.0478  0.0938  0.0000  0.0000 -0.1082 -0.2411  0.0000
  13. Li 1 (d2)     0.0000  0.0000  0.0000  0.0000  0.0000  0.0000  0.0000  0.0000
  14. Li 1 (d3)     0.0000  0.0000  0.0000  0.0258  0.0000  0.0000  0.0000  0.0633
  15. Li 1 (d5)     0.0000  0.0000  0.0000  0.0000  0.0258  0.0000  0.0000  0.0000
  16.  H 2 (s)      0.0034  0.2963 -0.0605  0.0000  0.0000  0.0956 -0.0151  0.0000
  17.  H 2 (s)      0.0061  0.3715 -0.0905  0.0000  0.0000  0.5614  0.2300  0.0000

           AO          9      10      11      12      13      14      15      16
      ------------ ------- ------- ------- ------- ------- ------- ------- -------
   1. Li 1 (s)      0.0000  0.0939  0.0000  0.0000  0.0000  0.0000 -0.1925  0.0874
   2. Li 1 (s)      0.0000  1.9882  0.0000  0.0000  0.0000  0.0000 -1.2202  8.7837
   3. Li 1 (px)     0.0000  0.0000  0.0000 -0.1063  0.0000  0.0000  0.0000  0.0000
   4. Li 1 (py)     1.6710  0.0000 -0.1063  0.0000  0.0000  0.0000  0.0000  0.0000
   5. Li 1 (pz)     0.0000 -1.5722  0.0000  0.0000  0.0000  0.0000  1.8841 -0.1626
   6. Li 1 (s)      0.0000 -0.7818  0.0000  0.0000  0.0000  0.0000  0.0227 -2.7584
   7. Li 1 (px)     0.0000  0.0000  0.0000  0.0599  0.0000  0.0000  0.0000  0.0000
   8. Li 1 (py)    -1.3472  0.0000  0.0599  0.0000  0.0000  0.0000  0.0000  0.0000
   9. Li 1 (pz)     0.0000  0.6082  0.0000  0.0000  0.0000  0.0000 -0.3244  0.1049
  10. Li 1 (d1)     0.0000 -0.0152  0.0000  0.0000  0.0000  0.8660  0.5833 -3.0014
  11. Li 1 (d4)     0.0000 -0.0152  0.0000  0.0000  0.0000 -0.8660  0.5833 -3.0014
  12. Li 1 (d6)     0.0000 -0.3882  0.0000  0.0000  0.0000  0.0000 -1.5407 -2.6865
  13. Li 1 (d2)     0.0000  0.0000  0.0000  0.0000  1.0000  0.0000  0.0000  0.0000
  14. Li 1 (d3)     0.0000  0.0000  0.0000  0.9977  0.0000  0.0000  0.0000  0.0000
  15. Li 1 (d5)     0.0633  0.0000  0.9977  0.0000  0.0000  0.0000  0.0000  0.0000
  16.  H 2 (s)      0.0000 -0.0740  0.0000  0.0000  0.0000  0.0000 -0.1071 -0.3749
  17.  H 2 (s)      0.0000 -1.2446  0.0000  0.0000  0.0000  0.0000  2.6103  0.1853

           AO         17
      ------------ -------
   1. Li 1 (s)      0.1515
   2. Li 1 (s)      3.9613
   3. Li 1 (px)     0.0000
   4. Li 1 (py)     0.0000
   5. Li 1 (pz)    -0.0222
   6. Li 1 (s)     -0.9640
   7. Li 1 (px)     0.0000
   8. Li 1 (py)     0.0000
   9. Li 1 (pz)    -0.2542
  10. Li 1 (d1)    -1.1221
  11. Li 1 (d4)    -1.1221
  12. Li 1 (d6)    -1.5642
  13. Li 1 (d2)     0.0000
  14. Li 1 (d3)     0.0000
  15. Li 1 (d5)     0.0000
  16.  H 2 (s)      1.3781
  17.  H 2 (s)     -1.3427


 NOs in the AO basis:

           AO          1       2       3       4       5       6       7       8
      ------------ ------- ------- ------- ------- ------- ------- ------- -------
   1. Li 1 (s)      0.9712  0.2678  0.0000  0.0176  0.0000  0.0000  0.0520 -0.0963
   2. Li 1 (s)      0.0226 -0.2321  0.0002  0.0554  0.0000  0.0000 -0.7270 -0.1185
   3. Li 1 (px)     0.0000  0.0000 -0.0002 -0.9594 -1.3429  0.0059  0.0662 -0.0464
   4. Li 1 (py)     0.0000  0.0000  1.0000  0.0000 -0.0059 -1.3429  0.0006  0.0000
   5. Li 1 (pz)    -0.0252  0.2772 -0.0001 -0.0740  0.0000  0.0000  0.0791 -0.5581
   6. Li 1 (s)      0.0188 -0.1478 -0.0001 -0.0065  0.0000  0.0000 -0.0453  1.0372
   7. Li 1 (px)     0.0000  0.0000  0.0000  0.0000  1.6744 -0.0074  0.0000  0.0000
   8. Li 1 (py)     0.0000  0.0000  0.0000  0.0000  0.0074  1.6744  0.0000  0.0000
   9. Li 1 (pz)    -0.0031 -0.0208  0.0008 -0.1643  0.0000  0.0000 -0.2546  0.9461
  10. Li 1 (d1)     0.0061  0.0162  0.0004  0.1637  0.0000  0.0000 -0.3118 -0.5473
  11. Li 1 (d4)     0.0061  0.0162 -0.0001 -0.1514  0.0000  0.0000 -0.2938 -0.2299
  12. Li 1 (d6)     0.0121 -0.0466  0.0001 -0.0918  0.0000  0.0000  0.3161 -0.9005
  13. Li 1 (d2)     0.0000  0.0000  0.0000  0.0000  0.0000  0.0000  0.0000  0.0000
  14. Li 1 (d3)     0.0000  0.0000  0.0000  0.0000  0.0000  0.0000  0.0000  0.0000
  15. Li 1 (d5)     0.0000  0.0000  0.0000  0.0000  0.0000  0.0000  0.0000  0.0000
  16.  H 2 (s)      0.0424 -0.2933  0.0003  0.0063  0.0000  0.0000 -0.2641 -0.2592
  17.  H 2 (s)      0.0551 -0.3675 -0.0003 -0.1010  0.0000  0.0000  0.6785  0.6563

           AO          9      10      11      12      13      14      15      16
      ------------ ------- ------- ------- ------- ------- ------- ------- -------
   1. Li 1 (s)      0.0344 -0.0722  0.0349  0.0000  0.0000  0.0000 -0.2575 -0.1069
   2. Li 1 (s)     -0.5870  0.7936 -0.0174  0.0000  0.0000  0.0000 -4.0391 -9.3353
   3. Li 1 (px)    -0.0256  0.0342  0.2661  0.0000  0.0000  0.0000 -0.0092 -0.0006
   4. Li 1 (py)    -0.0006 -0.0001  0.0003  0.0000  0.0000  0.0000  0.0000  0.0000
   5. Li 1 (pz)    -0.4197  0.7755 -0.3689  0.0000  0.0000  0.0000  1.9109 -0.3900
   6. Li 1 (s)     -0.2608  0.7920  0.0925  0.0000  0.0000  0.0000  0.6225  3.6515
   7. Li 1 (px)     0.0000  0.0000  0.0000  0.0000  0.0000  0.0000  0.0000  0.0000
   8. Li 1 (py)     0.0000  0.0000  0.0000  0.0000  0.0000  0.0000  0.0000  0.0000
   9. Li 1 (pz)     1.0155 -0.5938 -0.2376  0.0000  0.0000  0.0000 -0.2732  0.0427
  10. Li 1 (d1)     0.6701 -0.3783  0.7530  0.0000  0.0000  0.0000  1.4913  2.7582
  11. Li 1 (d4)    -0.2489 -1.1897 -0.3054  0.0000  0.0000  0.0000  1.2403  2.8155
  12. Li 1 (d6)     0.3077 -0.2129 -0.5573  0.0000  0.0000  0.0000  0.2195  3.1181
  13. Li 1 (d2)     0.0000  0.0000  0.0000  0.0062  0.0000  1.0000  0.0000  0.0000
  14. Li 1 (d3)     0.0000  0.0000  0.0000 -1.0000  0.0000  0.0062  0.0000  0.0000
  15. Li 1 (d5)     0.0000  0.0000  0.0000  0.0000  1.0000  0.0000  0.0000  0.0000
  16.  H 2 (s)      0.3613  0.0335  0.1037  0.0000  0.0000  0.0000 -0.8617  0.0360
  17.  H 2 (s)      0.1062 -0.0981 -0.2467  0.0000  0.0000  0.0000  2.9387 -0.5316

           AO         17
      ------------ -------
   1. Li 1 (s)     -0.0405
   2. Li 1 (s)     -0.9768
   3. Li 1 (px)    -0.0156
   4. Li 1 (py)     0.0000
   5. Li 1 (pz)     1.5289
   6. Li 1 (s)      0.3535
   7. Li 1 (px)     0.0000
   8. Li 1 (py)     0.0000
   9. Li 1 (pz)    -0.6586
  10. Li 1 (d1)     0.1594
  11. Li 1 (d4)     0.4914
  12. Li 1 (d6)    -1.0614
  13. Li 1 (d2)     0.0000
  14. Li 1 (d3)     0.0000
  15. Li 1 (d5)     0.0000
  16.  H 2 (s)      1.0230
  17.  H 2 (s)      0.8213


 AO overlap matrix:

           AO          1       2       3       4       5       6       7       8
      ------------ ------- ------- ------- ------- ------- ------- ------- -------
   1. Li 1 (s)      1.0000  0.1453  0.0000  0.0000  0.0000  0.1857  0.0000  0.0000
   2. Li 1 (s)      0.1453  1.0000  0.0000  0.0000  0.0000  0.9055  0.0000  0.0000
   3. Li 1 (px)     0.0000  0.0000  1.0000  0.0000  0.0000  0.0000  0.8021  0.0000
   4. Li 1 (py)     0.0000  0.0000  0.0000  1.0000  0.0000  0.0000  0.0000  0.8021
   5. Li 1 (pz)     0.0000  0.0000  0.0000  0.0000  1.0000  0.0000  0.0000  0.0000
   6. Li 1 (s)      0.1857  0.9055  0.0000  0.0000  0.0000  1.0000  0.0000  0.0000
   7. Li 1 (px)     0.0000  0.0000  0.8021  0.0000  0.0000  0.0000  1.0000  0.0000
   8. Li 1 (py)     0.0000  0.0000  0.0000  0.8021  0.0000  0.0000  0.0000  1.0000
   9. Li 1 (pz)     0.0000  0.0000  0.0000  0.0000  0.8021  0.0000  0.0000  0.0000
  10. Li 1 (d1)     0.0996  0.7243  0.0000  0.0000  0.0000  0.5965  0.0000  0.0000
  11. Li 1 (d4)     0.0996  0.7243  0.0000  0.0000  0.0000  0.5965  0.0000  0.0000
  12. Li 1 (d6)     0.0996  0.7243  0.0000  0.0000  0.0000  0.5965  0.0000  0.0000
  13. Li 1 (d2)     0.0000  0.0000  0.0000  0.0000  0.0000  0.0000  0.0000  0.0000
  14. Li 1 (d3)     0.0000  0.0000  0.0000  0.0000  0.0000  0.0000  0.0000  0.0000
  15. Li 1 (d5)     0.0000  0.0000  0.0000  0.0000  0.0000  0.0000  0.0000  0.0000
  16.  H 2 (s)      0.0286  0.2596  0.0000  0.0000 -0.3632  0.2045  0.0000  0.0000
  17.  H 2 (s)      0.1551  0.5888  0.0000  0.0000 -0.6355  0.5340  0.0000  0.0000

           AO          9      10      11      12      13      14      15      16
      ------------ ------- ------- ------- ------- ------- ------- ------- -------
   1. Li 1 (s)      0.0000  0.0996  0.0996  0.0996  0.0000  0.0000  0.0000  0.0286
   2. Li 1 (s)      0.0000  0.7243  0.7243  0.7243  0.0000  0.0000  0.0000  0.2596
   3. Li 1 (px)     0.0000  0.0000  0.0000  0.0000  0.0000  0.0000  0.0000  0.0000
   4. Li 1 (py)     0.0000  0.0000  0.0000  0.0000  0.0000  0.0000  0.0000  0.0000
   5. Li 1 (pz)     0.8021  0.0000  0.0000  0.0000  0.0000  0.0000  0.0000 -0.3632
   6. Li 1 (s)      0.0000  0.5965  0.5965  0.5965  0.0000  0.0000  0.0000  0.2045
   7. Li 1 (px)     0.0000  0.0000  0.0000  0.0000  0.0000  0.0000  0.0000  0.0000
   8. Li 1 (py)     0.0000  0.0000  0.0000  0.0000  0.0000  0.0000  0.0000  0.0000
   9. Li 1 (pz)     1.0000  0.0000  0.0000  0.0000  0.0000  0.0000  0.0000 -0.2105
  10. Li 1 (d1)     0.0000  1.0000  0.3333  0.3333  0.0000  0.0000  0.0000  0.0522
  11. Li 1 (d4)     0.0000  0.3333  1.0000  0.3333  0.0000  0.0000  0.0000  0.0522
  12. Li 1 (d6)     0.0000  0.3333  0.3333  1.0000  0.0000  0.0000  0.0000  0.5171
  13. Li 1 (d2)     0.0000  0.0000  0.0000  0.0000  1.0000  0.0000  0.0000  0.0000
  14. Li 1 (d3)     0.0000  0.0000  0.0000  0.0000  0.0000  1.0000  0.0000  0.0000
  15. Li 1 (d5)     0.0000  0.0000  0.0000  0.0000  0.0000  0.0000  1.0000  0.0000
  16.  H 2 (s)     -0.2105  0.0522  0.0522  0.5171  0.0000  0.0000  0.0000  1.0000
  17.  H 2 (s)     -0.4728  0.3061  0.3061  0.6653  0.0000  0.0000  0.0000  0.6583

           AO         17
      ------------ -------
   1. Li 1 (s)      0.1551
   2. Li 1 (s)      0.5888
   3. Li 1 (px)     0.0000
   4. Li 1 (py)     0.0000
   5. Li 1 (pz)    -0.6355
   6. Li 1 (s)      0.5340
   7. Li 1 (px)     0.0000
   8. Li 1 (py)     0.0000
   9. Li 1 (pz)    -0.4728
  10. Li 1 (d1)     0.3061
  11. Li 1 (d4)     0.3061
  12. Li 1 (d6)     0.6653
  13. Li 1 (d2)     0.0000
  14. Li 1 (d3)     0.0000
  15. Li 1 (d5)     0.0000
  16.  H 2 (s)      0.6583
  17.  H 2 (s)      1.0000


 AO bond-order matrix:

           AO          1       2       3       4       5       6       7       8
      ------------ ------- ------- ------- ------- ------- ------- ------- -------
   1. Li 1 (s)      2.0298 -0.0804  0.0000  0.0000  0.0995 -0.0427  0.0000  0.0000
   2. Li 1 (s)     -0.0804  0.1087  0.0000  0.0000 -0.1298  0.0694  0.0000  0.0000
   3. Li 1 (px)     0.0000  0.0000  0.0000  0.0000  0.0000  0.0000  0.0000  0.0000
   4. Li 1 (py)     0.0000  0.0000  0.0000  0.0000  0.0000  0.0000  0.0000  0.0000
   5. Li 1 (pz)     0.0995 -0.1298  0.0000  0.0000  0.1549 -0.0829  0.0000  0.0000
   6. Li 1 (s)     -0.0427  0.0694  0.0000  0.0000 -0.0829  0.0444  0.0000  0.0000
   7. Li 1 (px)     0.0000  0.0000  0.0000  0.0000  0.0000  0.0000  0.0000  0.0000
   8. Li 1 (py)     0.0000  0.0000  0.0000  0.0000  0.0000  0.0000  0.0000  0.0000
   9. Li 1 (pz)    -0.0172  0.0095  0.0000  0.0000 -0.0114  0.0060  0.0000  0.0000
  10. Li 1 (d1)     0.0204 -0.0072  0.0000  0.0000  0.0086 -0.0045  0.0000  0.0000
  11. Li 1 (d4)     0.0204 -0.0072  0.0000  0.0000  0.0086 -0.0045  0.0000  0.0000
  12. Li 1 (d6)    -0.0015  0.0222  0.0000  0.0000 -0.0265  0.0142  0.0000  0.0000
  13. Li 1 (d2)     0.0000  0.0000  0.0000  0.0000  0.0000  0.0000  0.0000  0.0000
  14. Li 1 (d3)     0.0000  0.0000  0.0000  0.0000  0.0000  0.0000  0.0000  0.0000
  15. Li 1 (d5)     0.0000  0.0000  0.0000  0.0000  0.0000  0.0000  0.0000  0.0000
  16.  H 2 (s)     -0.0747  0.1380  0.0000  0.0000 -0.1647  0.0883  0.0000  0.0000
  17.  H 2 (s)     -0.0898  0.1730  0.0000  0.0000 -0.2065  0.1107  0.0000  0.0000

           AO          9      10      11      12      13      14      15      16
      ------------ ------- ------- ------- ------- ------- ------- ------- -------
   1. Li 1 (s)     -0.0172  0.0204  0.0204 -0.0015  0.0000  0.0000  0.0000 -0.0747
   2. Li 1 (s)      0.0095 -0.0072 -0.0072  0.0222  0.0000  0.0000  0.0000  0.1380
   3. Li 1 (px)     0.0000  0.0000  0.0000  0.0000  0.0000  0.0000  0.0000  0.0000
   4. Li 1 (py)     0.0000  0.0000  0.0000  0.0000  0.0000  0.0000  0.0000  0.0000
   5. Li 1 (pz)    -0.0114  0.0086  0.0086 -0.0265  0.0000  0.0000  0.0000 -0.1647
   6. Li 1 (s)      0.0060 -0.0045 -0.0045  0.0142  0.0000  0.0000  0.0000  0.0883
   7. Li 1 (px)     0.0000  0.0000  0.0000  0.0000  0.0000  0.0000  0.0000  0.0000
   8. Li 1 (py)     0.0000  0.0000  0.0000  0.0000  0.0000  0.0000  0.0000  0.0000
   9. Li 1 (pz)     0.0009 -0.0007 -0.0007  0.0019  0.0000  0.0000  0.0000  0.0119
  10. Li 1 (d1)    -0.0007  0.0006  0.0006 -0.0014  0.0000  0.0000  0.0000 -0.0090
  11. Li 1 (d4)    -0.0007  0.0006  0.0006 -0.0014  0.0000  0.0000  0.0000 -0.0090
  12. Li 1 (d6)     0.0019 -0.0014 -0.0014  0.0046  0.0000  0.0000  0.0000  0.0284
  13. Li 1 (d2)     0.0000  0.0000  0.0000  0.0000  0.0000  0.0000  0.0000  0.0000
  14. Li 1 (d3)     0.0000  0.0000  0.0000  0.0000  0.0000  0.0000  0.0000  0.0000
  15. Li 1 (d5)     0.0000  0.0000  0.0000  0.0000  0.0000  0.0000  0.0000  0.0000
  16.  H 2 (s)      0.0119 -0.0090 -0.0090  0.0284  0.0000  0.0000  0.0000  0.1757
  17.  H 2 (s)      0.0149 -0.0112 -0.0112  0.0356  0.0000  0.0000  0.0000  0.2202

           AO         17
      ------------ -------
   1. Li 1 (s)     -0.0898
   2. Li 1 (s)      0.1730
   3. Li 1 (px)     0.0000
   4. Li 1 (py)     0.0000
   5. Li 1 (pz)    -0.2065
   6. Li 1 (s)      0.1107
   7. Li 1 (px)     0.0000
   8. Li 1 (py)     0.0000
   9. Li 1 (pz)     0.0149
  10. Li 1 (d1)    -0.0112
  11. Li 1 (d4)    -0.0112
  12. Li 1 (d6)     0.0356
  13. Li 1 (d2)     0.0000
  14. Li 1 (d3)     0.0000
  15. Li 1 (d5)     0.0000
  16.  H 2 (s)      0.2202
  17.  H 2 (s)      0.2761


 AO density matrix:

           AO          1       2       3       4       5       6       7       8
      ------------ ------- ------- ------- ------- ------- ------- ------- -------
   1. Li 1 (s)      1.9998  0.3024  0.0000  0.0000  0.0132  0.3787  0.0000  0.0000
   2. Li 1 (s)      0.3024  0.9102  0.0000  0.0000 -0.7942  0.8532  0.0000  0.0000
   3. Li 1 (px)     0.0000  0.0000  0.0000  0.0000  0.0000  0.0000  0.0000  0.0000
   4. Li 1 (py)     0.0000  0.0000  0.0000  0.0000  0.0000  0.0000  0.0000  0.0000
   5. Li 1 (pz)     0.0132 -0.7942  0.0000  0.0000  0.7335 -0.7306  0.0000  0.0000
   6. Li 1 (s)      0.3787  0.8532  0.0000  0.0000 -0.7306  0.8046  0.0000  0.0000
   7. Li 1 (px)     0.0000  0.0000  0.0000  0.0000  0.0000  0.0000  0.0000  0.0000
   8. Li 1 (py)     0.0000  0.0000  0.0000  0.0000  0.0000  0.0000  0.0000  0.0000
   9. Li 1 (pz)     0.0068 -0.5786  0.0000  0.0000  0.5340 -0.5324  0.0000  0.0000
  10. Li 1 (d1)     0.2097  0.5177  0.0000  0.0000 -0.4463  0.4872  0.0000  0.0000
  11. Li 1 (d4)     0.2097  0.5177  0.0000  0.0000 -0.4463  0.4872  0.0000  0.0000
  12. Li 1 (d6)     0.2091  0.9296  0.0000  0.0000 -0.8257  0.8664  0.0000  0.0000
  13. Li 1 (d2)     0.0000  0.0000  0.0000  0.0000  0.0000  0.0000  0.0000  0.0000
  14. Li 1 (d3)     0.0000  0.0000  0.0000  0.0000  0.0000  0.0000  0.0000  0.0000
  15. Li 1 (d5)     0.0000  0.0000  0.0000  0.0000  0.0000  0.0000  0.0000  0.0000
  16.  H 2 (s)      0.0571  0.9923  0.0000  0.0000 -0.9056  0.9165  0.0000  0.0000
  17.  H 2 (s)      0.3089  1.2997  0.0000  0.0000 -1.1521  1.2122  0.0000  0.0000

           AO          9      10      11      12      13      14      15      16
      ------------ ------- ------- ------- ------- ------- ------- ------- -------
   1. Li 1 (s)      0.0068  0.2097  0.2097  0.2091  0.0000  0.0000  0.0000  0.0571
   2. Li 1 (s)     -0.5786  0.5177  0.5177  0.9296  0.0000  0.0000  0.0000  0.9923
   3. Li 1 (px)     0.0000  0.0000  0.0000  0.0000  0.0000  0.0000  0.0000  0.0000
   4. Li 1 (py)     0.0000  0.0000  0.0000  0.0000  0.0000  0.0000  0.0000  0.0000
   5. Li 1 (pz)     0.5340 -0.4463 -0.4463 -0.8257  0.0000  0.0000  0.0000 -0.9056
   6. Li 1 (s)     -0.5324  0.4872  0.4872  0.8664  0.0000  0.0000  0.0000  0.9165
   7. Li 1 (px)     0.0000  0.0000  0.0000  0.0000  0.0000  0.0000  0.0000  0.0000
   8. Li 1 (py)     0.0000  0.0000  0.0000  0.0000  0.0000  0.0000  0.0000  0.0000
   9. Li 1 (pz)     0.3887 -0.3252 -0.3252 -0.6014  0.0000  0.0000  0.0000 -0.6594
  10. Li 1 (d1)    -0.3252  0.2952  0.2952  0.5268  0.0000  0.0000  0.0000  0.5590
  11. Li 1 (d4)    -0.3252  0.2952  0.2952  0.5268  0.0000  0.0000  0.0000  0.5590
  12. Li 1 (d6)    -0.6014  0.5268  0.5268  0.9546  0.0000  0.0000  0.0000  1.0277
  13. Li 1 (d2)     0.0000  0.0000  0.0000  0.0000  0.0000  0.0000  0.0000  0.0000
  14. Li 1 (d3)     0.0000  0.0000  0.0000  0.0000  0.0000  0.0000  0.0000  0.0000
  15. Li 1 (d5)     0.0000  0.0000  0.0000  0.0000  0.0000  0.0000  0.0000  0.0000
  16.  H 2 (s)     -0.6594  0.5590  0.5590  1.0277  0.0000  0.0000  0.0000  1.1208
  17.  H 2 (s)     -0.8392  0.7369  0.7369  1.3338  0.0000  0.0000  0.0000  1.4346

           AO         17
      ------------ -------
   1. Li 1 (s)      0.3089
   2. Li 1 (s)      1.2997
   3. Li 1 (px)     0.0000
   4. Li 1 (py)     0.0000
   5. Li 1 (pz)    -1.1521
   6. Li 1 (s)      1.2122
   7. Li 1 (px)     0.0000
   8. Li 1 (py)     0.0000
   9. Li 1 (pz)    -0.8392
  10. Li 1 (d1)     0.7369
  11. Li 1 (d4)     0.7369
  12. Li 1 (d6)     1.3338
  13. Li 1 (d2)     0.0000
  14. Li 1 (d3)     0.0000
  15. Li 1 (d5)     0.0000
  16.  H 2 (s)      1.4346
  17.  H 2 (s)      1.8639


 MO density matrix:

      MO     1       2       3       4       5       6       7       8       9
     ---- ------  ------  ------  ------  ------  ------  ------  ------  ------
   1.     2.0000  0.0000  0.0000  0.0000  0.0000  0.0000  0.0000  0.0000  0.0000
   2.     0.0000  2.0000  0.0000  0.0000  0.0000  0.0000  0.0000  0.0000  0.0000
   3.     0.0000  0.0000  0.0000  0.0000  0.0000  0.0000  0.0000  0.0000  0.0000
   4.     0.0000  0.0000  0.0000  0.0000  0.0000  0.0000  0.0000  0.0000  0.0000
   5.     0.0000  0.0000  0.0000  0.0000  0.0000  0.0000  0.0000  0.0000  0.0000
   6.     0.0000  0.0000  0.0000  0.0000  0.0000  0.0000  0.0000  0.0000  0.0000
   7.     0.0000  0.0000  0.0000  0.0000  0.0000  0.0000  0.0000  0.0000  0.0000
   8.     0.0000  0.0000  0.0000  0.0000  0.0000  0.0000  0.0000  0.0000  0.0000
   9.     0.0000  0.0000  0.0000  0.0000  0.0000  0.0000  0.0000  0.0000  0.0000
  10.     0.0000  0.0000  0.0000  0.0000  0.0000  0.0000  0.0000  0.0000  0.0000
  11.     0.0000  0.0000  0.0000  0.0000  0.0000  0.0000  0.0000  0.0000  0.0000
  12.     0.0000  0.0000  0.0000  0.0000  0.0000  0.0000  0.0000  0.0000  0.0000
  13.     0.0000  0.0000  0.0000  0.0000  0.0000  0.0000  0.0000  0.0000  0.0000
  14.     0.0000  0.0000  0.0000  0.0000  0.0000  0.0000  0.0000  0.0000  0.0000
  15.     0.0000  0.0000  0.0000  0.0000  0.0000  0.0000  0.0000  0.0000  0.0000
  16.     0.0000  0.0000  0.0000  0.0000  0.0000  0.0000  0.0000  0.0000  0.0000
  17.     0.0000  0.0000  0.0000  0.0000  0.0000  0.0000  0.0000  0.0000  0.0000

      MO    10      11      12      13      14      15      16      17
     ---- ------  ------  ------  ------  ------  ------  ------  ------
   1.     0.0000  0.0000  0.0000  0.0000  0.0000  0.0000  0.0000  0.0000
   2.     0.0000  0.0000  0.0000  0.0000  0.0000  0.0000  0.0000  0.0000
   3.     0.0000  0.0000  0.0000  0.0000  0.0000  0.0000  0.0000  0.0000
   4.     0.0000  0.0000  0.0000  0.0000  0.0000  0.0000  0.0000  0.0000
   5.     0.0000  0.0000  0.0000  0.0000  0.0000  0.0000  0.0000  0.0000
   6.     0.0000  0.0000  0.0000  0.0000  0.0000  0.0000  0.0000  0.0000
   7.     0.0000  0.0000  0.0000  0.0000  0.0000  0.0000  0.0000  0.0000
   8.     0.0000  0.0000  0.0000  0.0000  0.0000  0.0000  0.0000  0.0000
   9.     0.0000  0.0000  0.0000  0.0000  0.0000  0.0000  0.0000  0.0000
  10.     0.0000  0.0000  0.0000  0.0000  0.0000  0.0000  0.0000  0.0000
  11.     0.0000  0.0000  0.0000  0.0000  0.0000  0.0000  0.0000  0.0000
  12.     0.0000  0.0000  0.0000  0.0000  0.0000  0.0000  0.0000  0.0000
  13.     0.0000  0.0000  0.0000  0.0000  0.0000  0.0000  0.0000  0.0000
  14.     0.0000  0.0000  0.0000  0.0000  0.0000  0.0000  0.0000  0.0000
  15.     0.0000  0.0000  0.0000  0.0000  0.0000  0.0000  0.0000  0.0000
  16.     0.0000  0.0000  0.0000  0.0000  0.0000  0.0000  0.0000  0.0000
  17.     0.0000  0.0000  0.0000  0.0000  0.0000  0.0000  0.0000  0.0000


 NATURAL POPULATIONS:  Natural atomic orbital occupancies

  NAO Atom No lang   Type(AO)    Occupancy      Energy
 -------------------------------------------------------
   1   Li  1  s      Cor( 1s)     1.99994      -2.44493
   2   Li  1  s      Val( 2s)     0.22748       0.03094
   3   Li  1  s      Ryd( 3s)     0.00000       0.55665
   4   Li  1  s      Ryd( 4s)     0.00000       0.87556
   5   Li  1  px     Ryd( 3p)     0.00000       0.11973
   6   Li  1  px     Ryd( 2p)     0.00000       0.16592
   7   Li  1  py     Ryd( 3p)     0.00000       0.11973
   8   Li  1  py     Ryd( 2p)     0.00000       0.16592
   9   Li  1  pz     Ryd( 3p)     0.03104       0.32952
  10   Li  1  pz     Ryd( 2p)     0.00002       0.19704
  11   Li  1  dxy    Ryd( 3d)     0.00000       0.58214
  12   Li  1  dxz    Ryd( 3d)     0.00000       0.57030
  13   Li  1  dyz    Ryd( 3d)     0.00000       0.57030
  14   Li  1  dx2y2  Ryd( 3d)     0.00000       0.58214
  15   Li  1  dz2    Ryd( 3d)     0.00024       0.79919

  16    H  2  s      Val( 1s)     1.74128      -0.24356
  17    H  2  s      Ryd( 2s)     0.00001       1.25060


 Summary of Natural Population Analysis:

                                     Natural Population
             Natural    ---------------------------------------------
  Atom No    Charge        Core      Valence    Rydberg      Total
 --------------------------------------------------------------------
   Li  1    0.74128      1.99994     0.22748    0.03129     2.25872
    H  2   -0.74128      0.00000     1.74128    0.00001     1.74128
 ====================================================================
 * Total *  0.00000      1.99994     1.96876    0.03130     4.00000

                                 Natural Population
 ---------------------------------------------------------
   Core                       1.99994 ( 99.9971% of    2)
   Valence                    1.96876 ( 98.4379% of    2)
   Natural Minimal Basis      3.96870 ( 99.2175% of    4)
   Natural Rydberg Basis      0.03130 (  0.7825% of    4)
 ---------------------------------------------------------

    Atom No         Natural Electron Configuration
 ----------------------------------------------------------------------------
     Li  1      [core]2s( 0.23)3p( 0.03)
      H  2            1s( 1.74)


 PNAOs in the AO basis:

           AO          1       2       3       4       5       6       7       8
      ------------ ------- ------- ------- ------- ------- ------- ------- -------
   1. Li 1 (s)      0.9986 -0.1684  0.0814  0.1461  0.0000  0.0000  0.0000  0.0000
   2. Li 1 (s)     -0.0056  0.5604 -0.6154  9.9253  0.0000  0.0000  0.0000  0.0000
   3. Li 1 (px)     0.0000  0.0000  0.0000  0.0000  1.1577 -1.2096  0.0000  0.0000
   4. Li 1 (py)     0.0000  0.0000  0.0000  0.0000  0.0000  0.0000  1.1577 -1.2096
   5. Li 1 (pz)     0.0000  0.0000  0.0000  0.0000  0.0000  0.0000  0.0000  0.0000
   6. Li 1 (s)     -0.0010  0.2379 -1.3988 -3.6831  0.0000  0.0000  0.0000  0.0000
   7. Li 1 (px)     0.0000  0.0000  0.0000  0.0000 -0.2061  1.6616  0.0000  0.0000
   8. Li 1 (py)     0.0000  0.0000  0.0000  0.0000  0.0000  0.0000 -0.2061  1.6616
   9. Li 1 (pz)     0.0000  0.0000  0.0000  0.0000  0.0000  0.0000  0.0000  0.0000
  10. Li 1 (d1)     0.0080  0.1079  0.8799 -3.0207  0.0000  0.0000  0.0000  0.0000
  11. Li 1 (d4)     0.0080  0.1079  0.8799 -3.0207  0.0000  0.0000  0.0000  0.0000
  12. Li 1 (d6)     0.0080  0.1079  0.8799 -3.0207  0.0000  0.0000  0.0000  0.0000
  13. Li 1 (d2)     0.0000  0.0000  0.0000  0.0000  0.0000  0.0000  0.0000  0.0000
  14. Li 1 (d3)     0.0000  0.0000  0.0000  0.0000  0.0000  0.0000  0.0000  0.0000
  15. Li 1 (d5)     0.0000  0.0000  0.0000  0.0000  0.0000  0.0000  0.0000  0.0000
  16.  H 2 (s)      0.0000  0.0000  0.0000  0.0000  0.0000  0.0000  0.0000  0.0000
  17.  H 2 (s)      0.0000  0.0000  0.0000  0.0000  0.0000  0.0000  0.0000  0.0000

           AO          9      10      11      12      13      14      15      16
      ------------ ------- ------- ------- ------- ------- ------- ------- -------
   1. Li 1 (s)      0.0000  0.0000  0.0000  0.0000  0.0000  0.0000  0.0000  0.0000
   2. Li 1 (s)      0.0000  0.0000  0.0000  0.0000  0.0000  0.0000  0.0000  0.0000
   3. Li 1 (px)     0.0000  0.0000  0.0000  0.0000  0.0000  0.0000  0.0000  0.0000
   4. Li 1 (py)     0.0000  0.0000  0.0000  0.0000  0.0000  0.0000  0.0000  0.0000
   5. Li 1 (pz)     1.1577 -1.2096  0.0000  0.0000  0.0000  0.0000  0.0000  0.0000
   6. Li 1 (s)      0.0000  0.0000  0.0000  0.0000  0.0000  0.0000  0.0000  0.0000
   7. Li 1 (px)     0.0000  0.0000  0.0000  0.0000  0.0000  0.0000  0.0000  0.0000
   8. Li 1 (py)     0.0000  0.0000  0.0000  0.0000  0.0000  0.0000  0.0000  0.0000
   9. Li 1 (pz)    -0.2061  1.6616  0.0000  0.0000  0.0000  0.0000  0.0000  0.0000
  10. Li 1 (d1)     0.0000  0.0000  0.0000  0.0000  0.0000  0.8660 -0.5000  0.0000
  11. Li 1 (d4)     0.0000  0.0000  0.0000  0.0000  0.0000 -0.8660 -0.5000  0.0000
  12. Li 1 (d6)     0.0000  0.0000  0.0000  0.0000  0.0000  0.0000  1.0000  0.0000
  13. Li 1 (d2)     0.0000  0.0000  1.0000  0.0000  0.0000  0.0000  0.0000  0.0000
  14. Li 1 (d3)     0.0000  0.0000  0.0000  1.0000  0.0000  0.0000  0.0000  0.0000
  15. Li 1 (d5)     0.0000  0.0000  0.0000  0.0000  1.0000  0.0000  0.0000  0.0000
  16.  H 2 (s)      0.0000  0.0000  0.0000  0.0000  0.0000  0.0000  0.0000  0.1974
  17.  H 2 (s)      0.0000  0.0000  0.0000  0.0000  0.0000  0.0000  0.0000  0.8590

           AO         17
      ------------ -------
   1. Li 1 (s)      0.0000
   2. Li 1 (s)      0.0000
   3. Li 1 (px)     0.0000
   4. Li 1 (py)     0.0000
   5. Li 1 (pz)     0.0000
   6. Li 1 (s)      0.0000
   7. Li 1 (px)     0.0000
   8. Li 1 (py)     0.0000
   9. Li 1 (pz)     0.0000
  10. Li 1 (d1)     0.0000
  11. Li 1 (d4)     0.0000
  12. Li 1 (d6)     0.0000
  13. Li 1 (d2)     0.0000
  14. Li 1 (d3)     0.0000
  15. Li 1 (d5)     0.0000
  16.  H 2 (s)      1.3137
  17.  H 2 (s)     -1.0134


 PNAO overlap matrix:

           NAO         1       2       3       4       5       6       7       8
      ------------ ------- ------- ------- ------- ------- ------- ------- -------
   1. Li 1( 1s )    1.0000  0.0000  0.0000  0.0000  0.0000  0.0000  0.0000  0.0000
   2. Li 1( 2s )    0.0000  1.0000  0.0000  0.0000  0.0000  0.0000  0.0000  0.0000
   3. Li 1( 3s )    0.0000  0.0000  1.0000  0.0000  0.0000  0.0000  0.0000  0.0000
   4. Li 1( 4s )    0.0000  0.0000  0.0000  1.0000  0.0000  0.0000  0.0000  0.0000
   5. Li 1( 3px)    0.0000  0.0000  0.0000  0.0000  1.0000  0.0000  0.0000  0.0000
   6. Li 1( 2px)    0.0000  0.0000  0.0000  0.0000  0.0000  1.0000  0.0000  0.0000
   7. Li 1( 3py)    0.0000  0.0000  0.0000  0.0000  0.0000  0.0000  1.0000  0.0000
   8. Li 1( 2py)    0.0000  0.0000  0.0000  0.0000  0.0000  0.0000  0.0000  1.0000
   9. Li 1( 3pz)    0.0000  0.0000  0.0000  0.0000  0.0000  0.0000  0.0000  0.0000
  10. Li 1( 2pz)    0.0000  0.0000  0.0000  0.0000  0.0000  0.0000  0.0000  0.0000
  11. Li 1( 3d1)    0.0000  0.0000  0.0000  0.0000  0.0000  0.0000  0.0000  0.0000
  12. Li 1( 3d2)    0.0000  0.0000  0.0000  0.0000  0.0000  0.0000  0.0000  0.0000
  13. Li 1( 3d3)    0.0000  0.0000  0.0000  0.0000  0.0000  0.0000  0.0000  0.0000
  14. Li 1( 3d4)    0.0000  0.0000  0.0000  0.0000  0.0000  0.0000  0.0000  0.0000
  15. Li 1( 3d5)    0.0000  0.0000  0.0000  0.0000  0.0000  0.0000  0.0000  0.0000
  16.  H 2( 1s )    0.1447  0.5391  0.0440  0.0251  0.0000  0.0000  0.0000  0.0000
  17.  H 2( 2s )   -0.1215 -0.2395  0.1078 -0.1059  0.0000  0.0000  0.0000  0.0000

           NAO         9      10      11      12      13      14      15      16
      ------------ ------- ------- ------- ------- ------- ------- ------- -------
   1. Li 1( 1s )    0.0000  0.0000  0.0000  0.0000  0.0000  0.0000  0.0000  0.1447
   2. Li 1( 2s )    0.0000  0.0000  0.0000  0.0000  0.0000  0.0000  0.0000  0.5391
   3. Li 1( 3s )    0.0000  0.0000  0.0000  0.0000  0.0000  0.0000  0.0000  0.0440
   4. Li 1( 4s )    0.0000  0.0000  0.0000  0.0000  0.0000  0.0000  0.0000  0.0251
   5. Li 1( 3px)    0.0000  0.0000  0.0000  0.0000  0.0000  0.0000  0.0000  0.0000
   6. Li 1( 2px)    0.0000  0.0000  0.0000  0.0000  0.0000  0.0000  0.0000  0.0000
   7. Li 1( 3py)    0.0000  0.0000  0.0000  0.0000  0.0000  0.0000  0.0000  0.0000
   8. Li 1( 2py)    0.0000  0.0000  0.0000  0.0000  0.0000  0.0000  0.0000  0.0000
   9. Li 1( 3pz)    1.0000  0.0000  0.0000  0.0000  0.0000  0.0000  0.0000 -0.6227
  10. Li 1( 2pz)    0.0000  1.0000  0.0000  0.0000  0.0000  0.0000  0.0000  0.0032
  11. Li 1( 3d1)    0.0000  0.0000  1.0000  0.0000  0.0000  0.0000  0.0000  0.0000
  12. Li 1( 3d2)    0.0000  0.0000  0.0000  1.0000  0.0000  0.0000  0.0000  0.0000
  13. Li 1( 3d3)    0.0000  0.0000  0.0000  0.0000  1.0000  0.0000  0.0000  0.0000
  14. Li 1( 3d4)    0.0000  0.0000  0.0000  0.0000  0.0000  1.0000  0.0000  0.0000
  15. Li 1( 3d5)    0.0000  0.0000  0.0000  0.0000  0.0000  0.0000  1.0000  0.4004
  16.  H 2( 1s )   -0.6227  0.0032  0.0000  0.0000  0.0000  0.0000  0.4004  1.0000
  17.  H 2( 2s )    0.1515  0.1347  0.0000  0.0000  0.0000  0.0000  0.2468  0.0000

           NAO        17
      ------------ -------
   1. Li 1( 1s )   -0.1215
   2. Li 1( 2s )   -0.2395
   3. Li 1( 3s )    0.1078
   4. Li 1( 4s )   -0.1059
   5. Li 1( 3px)    0.0000
   6. Li 1( 2px)    0.0000
   7. Li 1( 3py)    0.0000
   8. Li 1( 2py)    0.0000
   9. Li 1( 3pz)    0.1515
  10. Li 1( 2pz)    0.1347
  11. Li 1( 3d1)    0.0000
  12. Li 1( 3d2)    0.0000
  13. Li 1( 3d3)    0.0000
  14. Li 1( 3d4)    0.0000
  15. Li 1( 3d5)    0.2468
  16.  H 2( 1s )    0.0000
  17.  H 2( 2s )    1.0000


 PNAO density matrix:

           NAO         1       2       3       4       5       6       7       8
      ------------ ------- ------- ------- ------- ------- ------- ------- -------
   1. Li 1( 1s )    1.9999  0.0000  0.0000  0.0000  0.0000  0.0000  0.0000  0.0000
   2. Li 1( 2s )    0.0000  0.8867  0.0000  0.0000  0.0000  0.0000  0.0000  0.0000
   3. Li 1( 3s )    0.0000  0.0000  0.0000  0.0000  0.0000  0.0000  0.0000  0.0000
   4. Li 1( 4s )    0.0000  0.0000  0.0000  0.0000  0.0000  0.0000  0.0000  0.0000
   5. Li 1( 3px)    0.0000  0.0000  0.0000  0.0000  0.0000  0.0000  0.0000  0.0000
   6. Li 1( 2px)    0.0000  0.0000  0.0000  0.0000  0.0000  0.0000  0.0000  0.0000
   7. Li 1( 3py)    0.0000  0.0000  0.0000  0.0000  0.0000  0.0000  0.0000  0.0000
   8. Li 1( 2py)    0.0000  0.0000  0.0000  0.0000  0.0000  0.0000  0.0000  0.0000
   9. Li 1( 3pz)    0.0054 -0.8126  0.0000  0.0000  0.0000  0.0000  0.0000  0.0000
  10. Li 1( 2pz)   -0.0048  0.0000  0.0000  0.0000  0.0000  0.0000  0.0000  0.0000
  11. Li 1( 3d1)    0.0000  0.0000  0.0000  0.0000  0.0000  0.0000  0.0000  0.0000
  12. Li 1( 3d2)    0.0000  0.0000  0.0000  0.0000  0.0000  0.0000  0.0000  0.0000
  13. Li 1( 3d3)    0.0000  0.0000  0.0000  0.0000  0.0000  0.0000  0.0000  0.0000
  14. Li 1( 3d4)    0.0000  0.0000  0.0000  0.0000  0.0000  0.0000  0.0000  0.0000
  15. Li 1( 3d5)    0.0038  0.4172  0.0000  0.0000  0.0000  0.0000  0.0000  0.0000
  16.  H 2( 1s )    0.2902  1.2854  0.0000  0.0000  0.0000  0.0000  0.0000  0.0000
  17.  H 2( 2s )   -0.2377  0.0238  0.0000  0.0000  0.0000  0.0000  0.0000  0.0000

           NAO         9      10      11      12      13      14      15      16
      ------------ ------- ------- ------- ------- ------- ------- ------- -------
   1. Li 1( 1s )    0.0054 -0.0048  0.0000  0.0000  0.0000  0.0000  0.0038  0.2902
   2. Li 1( 2s )   -0.8126  0.0000  0.0000  0.0000  0.0000  0.0000  0.4172  1.2854
   3. Li 1( 3s )    0.0000  0.0000  0.0000  0.0000  0.0000  0.0000  0.0000  0.0000
   4. Li 1( 4s )    0.0000  0.0000  0.0000  0.0000  0.0000  0.0000  0.0000  0.0000
   5. Li 1( 3px)    0.0000  0.0000  0.0000  0.0000  0.0000  0.0000  0.0000  0.0000
   6. Li 1( 2px)    0.0000  0.0000  0.0000  0.0000  0.0000  0.0000  0.0000  0.0000
   7. Li 1( 3py)    0.0000  0.0000  0.0000  0.0000  0.0000  0.0000  0.0000  0.0000
   8. Li 1( 2py)    0.0000  0.0000  0.0000  0.0000  0.0000  0.0000  0.0000  0.0000
   9. Li 1( 3pz)    0.7447  0.0000  0.0000  0.0000  0.0000  0.0000 -0.3823 -1.1772
  10. Li 1( 2pz)    0.0000  0.0000  0.0000  0.0000  0.0000  0.0000  0.0000 -0.0007
  11. Li 1( 3d1)    0.0000  0.0000  0.0000  0.0000  0.0000  0.0000  0.0000  0.0000
  12. Li 1( 3d2)    0.0000  0.0000  0.0000  0.0000  0.0000  0.0000  0.0000  0.0000
  13. Li 1( 3d3)    0.0000  0.0000  0.0000  0.0000  0.0000  0.0000  0.0000  0.0000
  14. Li 1( 3d4)    0.0000  0.0000  0.0000  0.0000  0.0000  0.0000  0.0000  0.0000
  15. Li 1( 3d5)   -0.3823  0.0000  0.0000  0.0000  0.0000  0.0000  0.1963  0.6053
  16.  H 2( 1s )   -1.1772 -0.0007  0.0000  0.0000  0.0000  0.0000  0.6053  1.9054
  17.  H 2( 2s )   -0.0224  0.0006  0.0000  0.0000  0.0000  0.0000  0.0107  0.0000

           NAO        17
      ------------ -------
   1. Li 1( 1s )   -0.2377
   2. Li 1( 2s )    0.0238
   3. Li 1( 3s )    0.0000
   4. Li 1( 4s )    0.0000
   5. Li 1( 3px)    0.0000
   6. Li 1( 2px)    0.0000
   7. Li 1( 3py)    0.0000
   8. Li 1( 2py)    0.0000
   9. Li 1( 3pz)   -0.0224
  10. Li 1( 2pz)    0.0006
  11. Li 1( 3d1)    0.0000
  12. Li 1( 3d2)    0.0000
  13. Li 1( 3d3)    0.0000
  14. Li 1( 3d4)    0.0000
  15. Li 1( 3d5)    0.0107
  16.  H 2( 1s )    0.0000
  17.  H 2( 2s )    0.0289


 NAOs in the AO basis:

           AO          1       2       3       4       5       6       7       8
      ------------ ------- ------- ------- ------- ------- ------- ------- -------
   1. Li 1 (s)      0.9986 -0.1415  0.0108  0.1820  0.0000  0.0000  0.0000  0.0000
   2. Li 1 (s)     -0.0056  0.6179 -2.9496  9.7560  0.0000  0.0000  0.0000  0.0000
   3. Li 1 (px)     0.0000  0.0000  0.0000  0.0000  1.0047 -1.3394  0.0000  0.0000
   4. Li 1 (py)     0.0000  0.0000  0.0000  0.0000  0.0000  0.0000  1.0047 -1.3394
   5. Li 1 (pz)     0.0000 -0.0026  0.0715 -0.1545  0.0000  0.0000  0.0000  0.0000
   6. Li 1 (s)     -0.0010  0.5162 -0.4457 -3.8924  0.0000  0.0000  0.0000  0.0000
   7. Li 1 (px)     0.0000  0.0000  0.0000  0.0000 -0.0059  1.6744  0.0000  0.0000
   8. Li 1 (py)     0.0000  0.0000  0.0000  0.0000  0.0000  0.0000 -0.0059  1.6744
   9. Li 1 (pz)     0.0000 -0.0016  0.0136 -0.0042  0.0000  0.0000  0.0000  0.0000
  10. Li 1 (d1)     0.0080  0.0394  1.6001 -2.7671  0.0000  0.0000  0.0000  0.0000
  11. Li 1 (d4)     0.0080  0.0394  1.6001 -2.7671  0.0000  0.0000  0.0000  0.0000
  12. Li 1 (d6)     0.0080  0.0397  1.5801 -2.7152  0.0000  0.0000  0.0000  0.0000
  13. Li 1 (d2)     0.0000  0.0000  0.0000  0.0000  0.0000  0.0000  0.0000  0.0000
  14. Li 1 (d3)     0.0000  0.0000  0.0000  0.0000  0.0000  0.0000  0.0000  0.0000
  15. Li 1 (d5)     0.0000  0.0000  0.0000  0.0000  0.0000  0.0000  0.0000  0.0000
  16.  H 2 (s)      0.0000 -0.0722 -0.2011  0.1483  0.0000  0.0000  0.0000  0.0000
  17.  H 2 (s)      0.0000 -0.4051  0.1541 -0.3825  0.0000  0.0000  0.0000  0.0000

           AO          9      10      11      12      13      14      15      16
      ------------ ------- ------- ------- ------- ------- ------- ------- -------
   1. Li 1 (s)     -0.1426  0.0021  0.0000  0.0000  0.0000  0.0000  0.1203 -0.1155
   2. Li 1 (s)     -0.8594  0.0922  0.0000  0.0000  0.0000  0.0000  0.9456 -0.0993
   3. Li 1 (px)     0.0000  0.0000  0.0000  0.0000  0.0000  0.0000  0.0000  0.0000
   4. Li 1 (py)     0.0000  0.0000  0.0000  0.0000  0.0000  0.0000  0.0000  0.0000
   5. Li 1 (pz)     1.9587 -1.4226  0.0000  0.0000  0.0000  0.0000 -1.2177 -0.0217
   6. Li 1 (s)     -0.1006 -0.0196  0.0000  0.0000  0.0000  0.0000 -0.0120 -0.0402
   7. Li 1 (px)     0.0000  0.0000  0.0000  0.0000  0.0000  0.0000  0.0000  0.0000
   8. Li 1 (py)     0.0000  0.0000  0.0000  0.0000  0.0000  0.0000  0.0000  0.0000
   9. Li 1 (pz)    -0.1321  1.7006  0.0000  0.0000  0.0000  0.0000  0.1632  0.0029
  10. Li 1 (d1)     0.0181 -0.0327  0.0000  0.0000  0.0000  0.8660 -0.6825 -0.0202
  11. Li 1 (d4)     0.0181 -0.0327  0.0000  0.0000  0.0000 -0.8660 -0.6825 -0.0202
  12. Li 1 (d6)    -0.2856  0.0623  0.0000  0.0000  0.0000  0.0000  1.5190 -0.0189
  13. Li 1 (d2)     0.0000  0.0000  1.0000  0.0000  0.0000  0.0000  0.0000  0.0000
  14. Li 1 (d3)     0.0000  0.0000  0.0000  1.0000  0.0000  0.0000  0.0000  0.0000
  15. Li 1 (d5)     0.0000  0.0000  0.0000  0.0000  1.0000  0.0000  0.0000  0.0000
  16.  H 2 (s)     -0.1761 -0.1890  0.0000  0.0000  0.0000  0.0000 -0.2408  0.3229
  17.  H 2 (s)      2.0385 -0.0394  0.0000  0.0000  0.0000  0.0000 -1.7017  0.8364

           AO         17
      ------------ -------
   1. Li 1 (s)      0.1252
   2. Li 1 (s)      0.2782
   3. Li 1 (px)     0.0000
   4. Li 1 (py)     0.0000
   5. Li 1 (pz)    -0.2878
   6. Li 1 (s)      0.1463
   7. Li 1 (px)     0.0000
   8. Li 1 (py)     0.0000
   9. Li 1 (pz)     0.0383
  10. Li 1 (d1)     0.0587
  11. Li 1 (d4)     0.0587
  12. Li 1 (d6)     0.0763
  13. Li 1 (d2)     0.0000
  14. Li 1 (d3)     0.0000
  15. Li 1 (d5)     0.0000
  16.  H 2 (s)      1.3641
  17.  H 2 (s)     -1.6210


 NAO density matrix:

           NAO         1       2       3       4       5       6       7       8
      ------------ ------- ------- ------- ------- ------- ------- ------- -------
   1. Li 1( 1s )    1.9999 -0.0003 -0.0005  0.0000  0.0000  0.0000  0.0000  0.0000
   2. Li 1( 2s )   -0.0003  0.2275  0.0000  0.0000  0.0000  0.0000  0.0000  0.0000
   3. Li 1( 3s )   -0.0005  0.0000  0.0000  0.0000  0.0000  0.0000  0.0000  0.0000
   4. Li 1( 4s )    0.0000  0.0000  0.0000  0.0000  0.0000  0.0000  0.0000  0.0000
   5. Li 1( 3px)    0.0000  0.0000  0.0000  0.0000  0.0000  0.0000  0.0000  0.0000
   6. Li 1( 2px)    0.0000  0.0000  0.0000  0.0000  0.0000  0.0000  0.0000  0.0000
   7. Li 1( 3py)    0.0000  0.0000  0.0000  0.0000  0.0000  0.0000  0.0000  0.0000
   8. Li 1( 2py)    0.0000  0.0000  0.0000  0.0000  0.0000  0.0000  0.0000  0.0000
   9. Li 1( 3pz)    0.0076 -0.0840  0.0000  0.0000  0.0000  0.0000  0.0000  0.0000
  10. Li 1( 2pz)   -0.0063 -0.0001  0.0000  0.0000  0.0000  0.0000  0.0000  0.0000
  11. Li 1( 3d1)    0.0000  0.0000  0.0000  0.0000  0.0000  0.0000  0.0000  0.0000
  12. Li 1( 3d2)    0.0000  0.0000  0.0000  0.0000  0.0000  0.0000  0.0000  0.0000
  13. Li 1( 3d3)    0.0000  0.0000  0.0000  0.0000  0.0000  0.0000  0.0000  0.0000
  14. Li 1( 3d4)    0.0000  0.0000  0.0000  0.0000  0.0000  0.0000  0.0000  0.0000
  15. Li 1( 3d5)   -0.0009  0.0073  0.0000  0.0000  0.0000  0.0000  0.0000  0.0000
  16.  H 2( 1s )    0.0011  0.6294  0.0000  0.0000  0.0000  0.0000  0.0000  0.0000
  17.  H 2( 2s )    0.0041  0.0000  0.0000  0.0000  0.0000  0.0000  0.0000  0.0000

           NAO         9      10      11      12      13      14      15      16
      ------------ ------- ------- ------- ------- ------- ------- ------- -------
   1. Li 1( 1s )    0.0076 -0.0063  0.0000  0.0000  0.0000  0.0000 -0.0009  0.0011
   2. Li 1( 2s )   -0.0840 -0.0001  0.0000  0.0000  0.0000  0.0000  0.0073  0.6294
   3. Li 1( 3s )    0.0000  0.0000  0.0000  0.0000  0.0000  0.0000  0.0000  0.0000
   4. Li 1( 4s )    0.0000  0.0000  0.0000  0.0000  0.0000  0.0000  0.0000  0.0000
   5. Li 1( 3px)    0.0000  0.0000  0.0000  0.0000  0.0000  0.0000  0.0000  0.0000
   6. Li 1( 2px)    0.0000  0.0000  0.0000  0.0000  0.0000  0.0000  0.0000  0.0000
   7. Li 1( 3py)    0.0000  0.0000  0.0000  0.0000  0.0000  0.0000  0.0000  0.0000
   8. Li 1( 2py)    0.0000  0.0000  0.0000  0.0000  0.0000  0.0000  0.0000  0.0000
   9. Li 1( 3pz)    0.0310  0.0000  0.0000  0.0000  0.0000  0.0000 -0.0027 -0.2324
  10. Li 1( 2pz)    0.0000  0.0000  0.0000  0.0000  0.0000  0.0000  0.0000 -0.0002
  11. Li 1( 3d1)    0.0000  0.0000  0.0000  0.0000  0.0000  0.0000  0.0000  0.0000
  12. Li 1( 3d2)    0.0000  0.0000  0.0000  0.0000  0.0000  0.0000  0.0000  0.0000
  13. Li 1( 3d3)    0.0000  0.0000  0.0000  0.0000  0.0000  0.0000  0.0000  0.0000
  14. Li 1( 3d4)    0.0000  0.0000  0.0000  0.0000  0.0000  0.0000  0.0000  0.0000
  15. Li 1( 3d5)   -0.0027  0.0000  0.0000  0.0000  0.0000  0.0000  0.0002  0.0202
  16.  H 2( 1s )   -0.2324 -0.0002  0.0000  0.0000  0.0000  0.0000  0.0202  1.7413
  17.  H 2( 2s )    0.0000  0.0000  0.0000  0.0000  0.0000  0.0000  0.0000  0.0000

           NAO        17
      ------------ -------
   1. Li 1( 1s )    0.0041
   2. Li 1( 2s )    0.0000
   3. Li 1( 3s )    0.0000
   4. Li 1( 4s )    0.0000
   5. Li 1( 3px)    0.0000
   6. Li 1( 2px)    0.0000
   7. Li 1( 3py)    0.0000
   8. Li 1( 2py)    0.0000
   9. Li 1( 3pz)    0.0000
  10. Li 1( 2pz)    0.0000
  11. Li 1( 3d1)    0.0000
  12. Li 1( 3d2)    0.0000
  13. Li 1( 3d3)    0.0000
  14. Li 1( 3d4)    0.0000
  15. Li 1( 3d5)    0.0000
  16.  H 2( 1s )    0.0000
  17.  H 2( 2s )    0.0000


 NATURAL BOND ORBITAL ANALYSIS:

 Initiate 2-center NBO search using THRESH = 1.900 and PRJTHR = 0.300

 Search of NAO DM block for core orbitals on atom:   1
      Eigenvector ( 1) has occupancy 1.99994
            1.0000 0.0000 0.0000 0.0000 0.0000 0.0000 0.0000 0.0000
            0.0000 0.0000 0.0000 0.0000 0.0000 0.0000 0.0000
        1 eigenvector(s) stashed in permanent list

 Core orbitals projected from the NAO density matrix
       2.000 electrons remain (>1.900); search continues

 Search of NAO DM block for the following atom(s):   2
      Select eigenvectors with eigenvalue > 1.900
       1.741 0.000

 No NHOs identified in the 1-center search of the NAO density matrix
       2.000 electrons remain (>1.900); search continues

 Search of NAO DM block for the following atom(s):   1   2
      Select eigenvectors with eigenvalue > 1.900
       2.000 0.000 0.000 0.000 0.000 0.000 0.000 0.000 0.000 0.000 0.000 0.000
       0.000 0.000 0.000 0.000 0.000
      Eigenvector ( 1) has occupancy 2.00000
            0.0000 0.3373 0.0000 0.0000 0.0000 0.0000 0.0000 0.0000
           -0.1245-0.0001 0.0000 0.0000 0.0000 0.0000 0.0108 0.9331
            0.0000
      1 hybrid on atom 1 stashed in prospective list
      1 hybrid on atom 2 stashed in prospective list

 Stash prospective hybrids having projection expectation value > 0.300
       1.000 1.000
      0 hybrids eliminated in 1 pass
      2 hybrids moved from prospective to permanent list

 NHOs of 2-center eigenvectors projected from the NAO density matrix
       0.000 electrons remain in the fully projected matrix

 Search of NHO DM block for the following atom(s):   1
      Select eigenvectors with eigenvalue > 1.900
       2.000 0.000 0.000 0.000 0.000 0.000 0.000 0.000 0.000 0.000 0.000 0.000
       0.000 0.000 0.000
      Eigenvector ( 1) has occupancy 1.99994
            1.0000 0.0000 0.0000 0.0000 0.0000 0.0000 0.0000 0.0000
            0.0000 0.0000 0.0000 0.0000 0.0000 0.0000 0.0000
           NBO accepted:    1. Label:CR ( 1)   1
        1 eigenvector(s) stashed in permanent list

  1-center NBOs projected from the NHO density matrix
       2.000 electrons remain (>1.900); search continues

 Search of NHO DM block for the following atom(s):   1   2
      Select eigenvectors with eigenvalue > 1.900
       2.000 0.000 0.000 0.000 0.000 0.000 0.000 0.000 0.000 0.000 0.000 0.000
       0.000 0.000 0.000 0.000 0.000
      Eigenvector ( 1) has occupancy 2.00000
            0.0000 0.3597 0.0000 0.0000 0.0000 0.0000 0.0000 0.0000
            0.0000 0.0000 0.0000 0.0000 0.0000 0.0000 0.0000 0.9331
            0.0000
      Occupancy is 2.000 after deleting minor hybrid components
            0.0000 0.3597 0.0000 0.0000 0.0000 0.0000 0.0000 0.0000
            0.0000 0.0000 0.0000 0.0000 0.0000 0.0000 0.0000 0.9331
            0.0000
           NBO accepted:    2. Label:BD ( 1)   1   2
      Occupancy is 0.000 for antibonding component
            0.0000 0.9331 0.0000 0.0000 0.0000 0.0000 0.0000 0.0000
            0.0000 0.0000 0.0000 0.0000 0.0000 0.0000 0.0000-0.3597
            0.0000
           NBO accepted:    3. Label:BD*( 1)   1   2
        2 eigenvector(s) stashed in permanent list

  2-center NBOs projected from the NHO density matrix
       0.000 electrons remain in the fully projected matrix

                            Occupancies       Lewis Structure    Low   High
         Max    Occ     -------------------  -----------------   occ   occ
  Cycle  Ctr   Thresh    Lewis   non-Lewis     CR  BD  nC  LP    (L)   (NL)
 ============================================================================
    1     2     1.90     3.99994   0.00006      1   1   0   0     0      0
 ----------------------------------------------------------------------------

 Structure accepted: No low occupancy Lewis orbitals

 -------------------------------------------------------
   Core                      1.99994 ( 99.997% of   2)
   Valence Lewis             2.00000 (100.000% of   2)
  ==================      =============================
   Total Lewis               3.99994 ( 99.999% of   4)
  -----------------------------------------------------
   Valence non-Lewis         0.00000 (  0.000% of   4)
   Rydberg non-Lewis         0.00005 (  0.001% of   4)
  ==================      =============================
   Total non-Lewis           0.00006 (  0.001% of   4)
 -------------------------------------------------------


     (Occupancy)   Bond orbital / Coefficients / Hybrids
 ------------------ Lewis ------------------------------------------------------
   1. (1.99994) CR ( 1)Li  1            s(100.00%)
                                         1.0000  0.0000  0.0000  0.0000  0.0000
                                         0.0000  0.0000  0.0000  0.0000  0.0000
                                         0.0000  0.0000  0.0000  0.0000  0.0000
   2. (2.00000) BD ( 1)Li  1- H  2
               ( 12.94%)   0.3597*Li  1 s( 87.92%)p 0.14( 11.98%)d 0.00(  0.09%)
                                         0.0000  0.9377  0.0000  0.0000  0.0000
                                         0.0000  0.0000  0.0000 -0.3462 -0.0003
                                         0.0000  0.0000  0.0000  0.0000  0.0302
               ( 87.06%)   0.9331* H  2 s(100.00%)
                                         1.0000  0.0000
 ---------------- non-Lewis ----------------------------------------------------
   3. (0.00000) BD*( 1)Li  1- H  2
               ( 87.06%)   0.9331*Li  1 s( 87.92%)p 0.14( 11.98%)d 0.00(  0.09%)
               ( 12.94%)  -0.3597* H  2 s(100.00%)
   4. (0.00004) RY ( 1)Li  1            s(  7.02%)p13.14( 92.24%)d 0.11(  0.74%)
   5. (0.00000) RY ( 2)Li  1            s( 29.60%)p 0.43( 12.64%)d 1.95( 57.76%)
   6. (0.00000) RY ( 3)Li  1            s( 10.04%)p 3.46( 34.73%)d 5.50( 55.23%)
   7. (0.00000) RY ( 4)Li  1            s(  0.00%)p 1.00(100.00%)d 0.00(  0.00%)
   8. (0.00000) RY ( 5)Li  1            s(  0.00%)p 1.00(100.00%)d 0.00(  0.00%)
   9. (0.00000) RY ( 6)Li  1            s(  0.00%)p 1.00(100.00%)d 0.00(  0.00%)
  10. (0.00000) RY ( 7)Li  1            s(  0.00%)p 0.00(  0.00%)d 1.00(100.00%)
  11. (0.00000) RY ( 8)Li  1            s(  0.00%)p 0.00(  0.00%)d 1.00(100.00%)
  12. (0.00000) RY ( 9)Li  1            s(  0.00%)p 0.00(  0.00%)d 1.00(100.00%)
  13. (0.00000) RY (10)Li  1            s(  0.00%)p 1.00(100.00%)d 0.00(  0.00%)
  14. (0.00000) RY (11)Li  1            s( 15.93%)p 0.42(  6.76%)d 4.85( 77.31%)
  15. (0.00000) RY (12)Li  1            s( 58.10%)p 0.63( 36.57%)d 0.09(  5.32%)
  16. (0.00000) RY (13)Li  1            s( 91.38%)p 0.06(  5.08%)d 0.04(  3.54%)
  17. (0.00001) RY ( 1) H  2            s(100.00%)


 NHO DIRECTIONALITY AND BOND BENDING (deviation from line of nuclear centers at
                                      the position of maximum hybrid amplitude)

         [Thresholds for printing:  angular deviation  >  1.0 degree]
                                    p- or d-character  > 25.0%
                                    orbital occupancy  >  0.10e

                        Line of Centers        Hybrid 1             Hybrid 2
                        ---------------  -------------------  ------------------
           NBO            Theta   Phi    Theta   Phi    Dev   Theta   Phi    Dev
 ===============================================================================
    None exceeding thresholds


 SECOND ORDER PERTURBATION THEORY ANALYSIS OF FOCK MATRIX IN NBO BASIS

     Threshold for printing:   0.50 kcal/mol
                                                          E(2) E(NL)-E(L) F(L,NL)
      Donor (L) NBO              Acceptor (NL) NBO      kcal/mol   a.u.    a.u.
 ===============================================================================

 within unit  1
       None above threshold


 NATURAL BOND ORBITALS (Summary):

                                                     Principal Delocalizations
           NBO                 Occupancy    Energy   (geminal,vicinal,remote)
 ===============================================================================
 Molecular unit  1  (HLi)
 ------ Lewis --------------------------------------
    1. CR ( 1)Li  1             1.99994    -2.44493
    2. BD ( 1)Li  1- H  2       2.00000    -0.30484
 ------ non-Lewis ----------------------------------
    3. BD*( 1)Li  1- H  2       0.00000     0.16889
    4. RY ( 1)Li  1             0.00004     0.32165
    5. RY ( 2)Li  1             0.00000     0.52955
    6. RY ( 3)Li  1             0.00000     0.46863
    7. RY ( 4)Li  1             0.00000     0.09575
    8. RY ( 5)Li  1             0.00000     0.18118
    9. RY ( 6)Li  1             0.00000     0.11169
   10. RY ( 7)Li  1             0.00000     0.57412
   11. RY ( 8)Li  1             0.00000     0.57821
   12. RY ( 9)Li  1             0.00000     0.57041
   13. RY (10)Li  1             0.00000     0.18267
   14. RY (11)Li  1             0.00000     0.57192
   15. RY (12)Li  1             0.00000     0.51832
   16. RY (13)Li  1             0.00000     0.85337
   17. RY ( 1) H  2             0.00001     1.25060
          -------------------------------
                 Total Lewis    3.99994  ( 99.9985%)
           Valence non-Lewis    0.00000  (  0.0001%)
           Rydberg non-Lewis    0.00005  (  0.0013%)
          -------------------------------
               Total unit  1    4.00000  (100.0000%)
              Charge unit  1    0.00000

 $CHOOSE
   BOND S 1 2 END
 $END

 NBO analysis completed in 0.15 CPU seconds (0 wall seconds)
 Maximum scratch memory used by NBO was 324077 words (2.47 MB)
 Maximum scratch memory used by G16NBO was 8594 words (0.07 MB)

 Opening RunExU unformatted file "/cluster/work/users/beto93/LiH/Gau-1873572.EUF"
 Read unf file /cluster/work/users/beto93/LiH/Gau-1873572.EUF:
 Label Gaussian matrix elements                                         IVers= 2 NLab= 2 Version=ES64L-G16RevC.01
 Title NBO-a                                                           
 NAtoms=     2 NBasis=    17 NBsUse=    17 ICharg=     0 Multip=     1 NE=     4 Len12L=8 Len4L=8 IOpCl= 0 ICGU=111
 GAUSSIAN SCALARS                    NI= 1 NR= 1 NTot=       1 LenBuf=    2 NRI=1 N=    1000
 NPA CHARGES                         NI= 0 NR= 1 NTot=       2 LenBuf= 4000 NRI=1 N=       2
 Recovered energy= -7.97873188709     dipole=      0.000000000000      0.000000000000      2.259115198140
 Unable to Open any file for archive entry.
 1\1\GINC-C2-2\SP\RHF\6-31G(d)\H1Li1\BETO93\24-Jul-2024\0\\#RHF/6-31G* 
 Pop=NBO7Read\\NBO-a\\0,1\Li,0,0.,0.,0.039594\H,0,0.,0.,1.550406\\Versi
 on=ES64L-G16RevC.01\State=1-SG\HF=-7.9787319\RMSD=6.534e-09\Dipole=0.,
 0.,-2.2591152\Quadrupole=0.3470991,0.3470991,-0.6941982,0.,0.,0.\PG=C*
 V [C*(H1Li1)]\\@
 The archive entry for this job was punched.


 A MAN BEGINS CUTTING HIS WISDOM TEETH THE 1ST
 TIME HE BITES OFF MORE THAN HE CAN CHEW.
 Job cpu time:       0 days  0 hours  0 minutes 11.0 seconds.
 Elapsed time:       0 days  0 hours  0 minutes  3.7 seconds.
 File lengths (MBytes):  RWF=     10 Int=      0 D2E=      0 Chk=      1 Scr=      1
 Normal termination of Gaussian 16 at Wed Jul 24 13:51:41 2024.
