 Entering Gaussian System, Link 0=g16
 Initial command:
 /cluster/software/Gaussian/g16_C.01/l1.exe "/cluster/work/users/beto93/SiH4/Gau-3586819.inp" -scrdir="/cluster/work/users/beto93/SiH4/"
 Entering Link 1 = /cluster/software/Gaussian/g16_C.01/l1.exe PID=   3586821.
  
 Copyright (c) 1988-2019, Gaussian, Inc.  All Rights Reserved.
  
 This is part of the Gaussian(R) 16 program.  It is based on
 the Gaussian(R) 09 system (copyright 2009, Gaussian, Inc.),
 the Gaussian(R) 03 system (copyright 2003, Gaussian, Inc.),
 the Gaussian(R) 98 system (copyright 1998, Gaussian, Inc.),
 the Gaussian(R) 94 system (copyright 1995, Gaussian, Inc.),
 the Gaussian 92(TM) system (copyright 1992, Gaussian, Inc.),
 the Gaussian 90(TM) system (copyright 1990, Gaussian, Inc.),
 the Gaussian 88(TM) system (copyright 1988, Gaussian, Inc.),
 the Gaussian 86(TM) system (copyright 1986, Carnegie Mellon
 University), and the Gaussian 82(TM) system (copyright 1983,
 Carnegie Mellon University). Gaussian is a federally registered
 trademark of Gaussian, Inc.
  
 This software contains proprietary and confidential information,
 including trade secrets, belonging to Gaussian, Inc.
  
 This software is provided under written license and may be
 used, copied, transmitted, or stored only in accord with that
 written license.
  
 The following legend is applicable only to US Government
 contracts under FAR:
  
                    RESTRICTED RIGHTS LEGEND
  
 Use, reproduction and disclosure by the US Government is
 subject to restrictions as set forth in subparagraphs (a)
 and (c) of the Commercial Computer Software - Restricted
 Rights clause in FAR 52.227-19.
  
 Gaussian, Inc.
 340 Quinnipiac St., Bldg. 40, Wallingford CT 06492
  
  
 ---------------------------------------------------------------
 Warning -- This program may not be used in any manner that
 competes with the business of Gaussian, Inc. or will provide
 assistance to any competitor of Gaussian, Inc.  The licensee
 of this program is prohibited from giving any competitor of
 Gaussian, Inc. access to this program.  By using this program,
 the user acknowledges that Gaussian, Inc. is engaged in the
 business of creating and licensing software in the field of
 computational chemistry and represents and warrants to the
 licensee that it is not a competitor of Gaussian, Inc. and that
 it will not use this program in any manner prohibited above.
 ---------------------------------------------------------------
  

 Cite this work as:
 Gaussian 16, Revision C.01,
 M. J. Frisch, G. W. Trucks, H. B. Schlegel, G. E. Scuseria, 
 M. A. Robb, J. R. Cheeseman, G. Scalmani, V. Barone, 
 G. A. Petersson, H. Nakatsuji, X. Li, M. Caricato, A. V. Marenich, 
 J. Bloino, B. G. Janesko, R. Gomperts, B. Mennucci, H. P. Hratchian, 
 J. V. Ortiz, A. F. Izmaylov, J. L. Sonnenberg, D. Williams-Young, 
 F. Ding, F. Lipparini, F. Egidi, J. Goings, B. Peng, A. Petrone, 
 T. Henderson, D. Ranasinghe, V. G. Zakrzewski, J. Gao, N. Rega, 
 G. Zheng, W. Liang, M. Hada, M. Ehara, K. Toyota, R. Fukuda, 
 J. Hasegawa, M. Ishida, T. Nakajima, Y. Honda, O. Kitao, H. Nakai, 
 T. Vreven, K. Throssell, J. A. Montgomery, Jr., J. E. Peralta, 
 F. Ogliaro, M. J. Bearpark, J. J. Heyd, E. N. Brothers, K. N. Kudin, 
 V. N. Staroverov, T. A. Keith, R. Kobayashi, J. Normand, 
 K. Raghavachari, A. P. Rendell, J. C. Burant, S. S. Iyengar, 
 J. Tomasi, M. Cossi, J. M. Millam, M. Klene, C. Adamo, R. Cammi, 
 J. W. Ochterski, R. L. Martin, K. Morokuma, O. Farkas, 
 J. B. Foresman, and D. J. Fox, Gaussian, Inc., Wallingford CT, 2019.
 
 ******************************************
 Gaussian 16:  ES64L-G16RevC.01  3-Jul-2019
                27-Sep-2024 
 ******************************************
 %LindaWorkers=c5-24-ib
 %NProcShared=4
 Will use up to    4 processors via shared memory.
 %mem=25GB
 %chk=CH4.chk
 SetLPE:    new flags="-opt 'Tsnet.Node.lindarsharg: ssh'  -nodelist 'c5-24-ib.saga' -env GAUSS_MDEF=3355443200 -env GAUSS_EXEDIR="/cluster/software/Gaussian/g16_C.01/bsd:/cluster/software/Gaussian/g16_C.01""
 Will use up to    1 processors via Linda.
 ----------------------------------------------------------
 #OPT=VeryTight Int=UltraFine RHF/STO-3G 5D 7F Pop=NBO7Read
 ----------------------------------------------------------
 1/7=1,18=20,19=15,38=1,163=2/1,3;
 2/9=110,12=2,17=6,18=5,40=1/2;
 3/6=3,8=11,11=1,25=1,30=1,71=1,75=-5,116=1/1,2,3;
 4//1;
 5/5=2,38=5/2;
 6/7=2,8=2,9=2,10=2,28=1,40=2,113=1,114=1,124=2103/1,12;
 7//1,2,3,16;
 1/7=1,18=20,19=15/3(2);
 2/9=110/2;
 99//99;
 2/9=110/2;
 3/6=3,8=11,11=1,25=1,30=1,71=1,75=-5,116=1/1,2,3;
 4/5=5,16=3,69=1/1;
 5/5=2,38=5/2;
 7//1,2,3,16;
 1/7=1,18=20,19=15/3(-5);
 2/9=110/2;
 6/7=2,8=2,9=2,10=2,19=2,28=1,40=2,113=1,114=1,124=2103/1,12;
 99/9=1/99;
 --------
 NBO-SiH4
 --------
 Symbolic Z-matrix:
 Charge =  0 Multiplicity = 1
 Si                    0.        0.        0. 
 H                     0.        0.        1.07 
 H                     1.00881   0.       -0.35666 
 H                    -0.5044    0.87365  -0.35667 
 H                    -0.5044   -0.87365  -0.35667 
 

 GradGradGradGradGradGradGradGradGradGradGradGradGradGradGradGradGradGrad
 Berny optimization.
 Initialization pass.
                           ----------------------------
                           !    Initial Parameters    !
                           ! (Angstroms and Degrees)  !
 --------------------------                            --------------------------
 ! Name  Definition              Value          Derivative Info.                !
 --------------------------------------------------------------------------------
 ! R1    R(1,2)                  1.07           estimate D2E/DX2                !
 ! R2    R(1,3)                  1.07           estimate D2E/DX2                !
 ! R3    R(1,4)                  1.07           estimate D2E/DX2                !
 ! R4    R(1,5)                  1.07           estimate D2E/DX2                !
 ! A1    A(2,1,3)              109.471          estimate D2E/DX2                !
 ! A2    A(2,1,4)              109.4714         estimate D2E/DX2                !
 ! A3    A(2,1,5)              109.4714         estimate D2E/DX2                !
 ! A4    A(3,1,4)              109.4712         estimate D2E/DX2                !
 ! A5    A(3,1,5)              109.4712         estimate D2E/DX2                !
 ! A6    A(4,1,5)              109.4712         estimate D2E/DX2                !
 ! D1    D(2,1,4,3)            119.9998         estimate D2E/DX2                !
 ! D2    D(2,1,5,3)           -119.9998         estimate D2E/DX2                !
 ! D3    D(2,1,5,4)            120.0003         estimate D2E/DX2                !
 ! D4    D(3,1,5,4)           -119.9999         estimate D2E/DX2                !
 --------------------------------------------------------------------------------
 Trust Radius=3.00D-01 FncErr=1.00D-07 GrdErr=1.00D-07 EigMax=2.50D+02 EigMin=1.00D-04
 Number of steps in this run=     24 maximum allowed number of steps=    100.
 GradGradGradGradGradGradGradGradGradGradGradGradGradGradGradGradGradGrad

                          Input orientation:                          
 ---------------------------------------------------------------------
 Center     Atomic      Atomic             Coordinates (Angstroms)
 Number     Number       Type             X           Y           Z
 ---------------------------------------------------------------------
      1         14           0        0.000000    0.000000    0.000000
      2          1           0        0.000000    0.000000    1.070000
      3          1           0        1.008807    0.000000   -0.356663
      4          1           0       -0.504401    0.873651   -0.356669
      5          1           0       -0.504401   -0.873651   -0.356669
 ---------------------------------------------------------------------
                    Distance matrix (angstroms):
                    1          2          3          4          5
     1  Si   0.000000
     2  H    1.070000   0.000000
     3  H    1.070000   1.747300   0.000000
     4  H    1.070000   1.747304   1.747302   0.000000
     5  H    1.070000   1.747304   1.747302   1.747302   0.000000
 This structure is nearly, but not quite of a higher symmetry.
 Consider Symm=Loose if the higher symmetry is desired.
 This structure is nearly, but not quite of a higher symmetry.
 Consider Symm=Loose if the higher symmetry is desired.
 Stoichiometry    H4Si
 Framework group  CS[SG(H2Si),X(H2)]
 Deg. of freedom     6
 Full point group                 CS      NOp   2
 Largest Abelian subgroup         CS      NOp   2
 Largest concise Abelian subgroup CS      NOp   2
                         Standard orientation:                         
 ---------------------------------------------------------------------
 Center     Atomic      Atomic             Coordinates (Angstroms)
 Number     Number       Type             X           Y           Z
 ---------------------------------------------------------------------
      1         14           0        0.000000    0.000000   -0.000000
      2          1           0        0.000000    1.070000   -0.000000
      3          1           0       -1.008807   -0.356663    0.000000
      4          1           0        0.504401   -0.356669    0.873651
      5          1           0        0.504401   -0.356669   -0.873651
 ---------------------------------------------------------------------
 Rotational constants (GHZ):         164.2466730         164.2463829         164.2462041
 Standard basis: STO-3G (5D, 7F)
 There are    10 symmetry adapted cartesian basis functions of A'  symmetry.
 There are     3 symmetry adapted cartesian basis functions of A"  symmetry.
 There are    10 symmetry adapted basis functions of A'  symmetry.
 There are     3 symmetry adapted basis functions of A"  symmetry.
    13 basis functions,    39 primitive gaussians,    13 cartesian basis functions
     9 alpha electrons        9 beta electrons
       nuclear repulsion energy        29.5123834138 Hartrees.
 NAtoms=    5 NActive=    5 NUniq=    4 SFac= 1.56D+00 NAtFMM=   60 NAOKFM=F Big=F
 Integral buffers will be    131072 words long.
 Raffenetti 1 integral format.
 Two-electron integral symmetry is turned on.
 One-electron integrals computed using PRISM.
 NBasis=    13 RedAO= T EigKep=  9.60D-02  NBF=    10     3
 NBsUse=    13 1.00D-06 EigRej= -1.00D+00 NBFU=    10     3
 ExpMin= 1.61D-01 ExpMax= 4.08D+02 ExpMxC= 4.08D+02 IAcc=3 IRadAn=         5 AccDes= 0.00D+00
 Harris functional with IExCor=  205 and IRadAn=       5 diagonalized for initial guess.
 HarFok:  IExCor=  205 AccDes= 0.00D+00 IRadAn=         5 IDoV= 1 UseB2=F ITyADJ=14
 ICtDFT=  3500011 ScaDFX=  1.000000  1.000000  1.000000  1.000000
 FoFCou: FMM=F IPFlag=           0 FMFlag=      100000 FMFlg1=           0
         NFxFlg=           0 DoJE=T BraDBF=F KetDBF=T FulRan=T
         wScrn=  0.000000 ICntrl=       500 IOpCl=  0 I1Cent=   200000004 NGrid=           0
         NMat0=    1 NMatS0=      1 NMatT0=    0 NMatD0=    1 NMtDS0=    0 NMtDT0=    0
 Petite list used in FoFCou.
 Initial guess orbital symmetries:
       Occupied  (A') (A') (A') (A") (A') (A') (A') (A") (A')
       Virtual   (A') (A") (A') (A')
 The electronic state of the initial guess is 1-A'.
 Keep R1 ints in memory in symmetry-blocked form, NReq=809878.
 Requested convergence on RMS density matrix=1.00D-08 within 128 cycles.
 Requested convergence on MAX density matrix=1.00D-06.
 Requested convergence on             energy=1.00D-06.
 No special actions if energy rises.
 SCF Done:  E(RHF) =  -287.466452787     A.U. after    6 cycles
            NFock=  6  Conv=0.54D-08     -V/T= 2.0048

 **********************************************************************

            Population analysis using the SCF Density.

 **********************************************************************

 Orbital symmetries:
       Occupied  (A') (A') (A') (A") (A') (A') (A') (A") (A')
       Virtual   (A') (A") (A') (A')
 The electronic state is 1-A'.
 Alpha  occ. eigenvalues --  -67.89659  -5.95613  -3.97976  -3.97976  -3.97976
 Alpha  occ. eigenvalues --   -0.82510  -0.51666  -0.51666  -0.51666
 Alpha virt. eigenvalues --    0.71859   0.71859   0.71860   1.11362
          Condensed to atoms (all electrons):
               1          2          3          4          5
     1  Si  11.588628   0.378666   0.378666   0.378666   0.378666
     2  H    0.378666   0.928410  -0.027633  -0.027633  -0.027633
     3  H    0.378666  -0.027633   0.928410  -0.027633  -0.027633
     4  H    0.378666  -0.027633  -0.027633   0.928410  -0.027633
     5  H    0.378666  -0.027633  -0.027633  -0.027633   0.928410
 Mulliken charges:
               1
     1  Si   0.896709
     2  H   -0.224177
     3  H   -0.224177
     4  H   -0.224177
     5  H   -0.224177
 Sum of Mulliken charges =  -0.00000
 Mulliken charges with hydrogens summed into heavy atoms:
               1
     1  Si  -0.000000
 Electronic spatial extent (au):  <R**2>=             48.4379
 Charge=             -0.0000 electrons
 Dipole moment (field-independent basis, Debye):
    X=              0.0000    Y=              0.0000    Z=              0.0000  Tot=              0.0000
 Quadrupole moment (field-independent basis, Debye-Ang):
   XX=            -14.3846   YY=            -14.3846   ZZ=            -14.3846
   XY=              0.0000   XZ=             -0.0000   YZ=              0.0000
 Traceless Quadrupole moment (field-independent basis, Debye-Ang):
   XX=              0.0000   YY=             -0.0000   ZZ=              0.0000
   XY=              0.0000   XZ=             -0.0000   YZ=              0.0000
 Octapole moment (field-independent basis, Debye-Ang**2):
  XXX=              1.2603  YYY=             -1.7824  ZZZ=             -0.0000  XYY=             -0.0000
  XXY=              0.8912  XXZ=             -0.0000  XZZ=             -1.2603  YZZ=              0.8912
  YYZ=             -0.0000  XYZ=             -0.0000
 Hexadecapole moment (field-independent basis, Debye-Ang**3):
 XXXX=            -24.0782 YYYY=            -24.3132 ZZZZ=            -24.0782 XXXY=             -0.3324
 XXXZ=             -0.0000 YYYX=              0.0000 YYYZ=              0.0000 ZZZX=             -0.0000
 ZZZY=              0.0000 XXYY=             -7.7910 XXZZ=             -8.0260 YYZZ=             -7.7910
 XXYZ=              0.0000 YYXZ=             -0.0000 ZZXY=              0.3324
 N-N= 2.951238341384D+01 E-N=-7.437092519853D+02  KE= 2.860857491145D+02
 Symmetry A'   KE= 2.610810105254D+02
 Symmetry A"   KE= 2.500473858908D+01
 Running external command "gaunbo7 R"
         input file       "/cluster/work/users/beto93/SiH4/Gau-3586821.EIn"
         output file      "/cluster/work/users/beto93/SiH4/Gau-3586821.EOu"
         message file     "/cluster/work/users/beto93/SiH4/Gau-3586821.EMs"
         fchk file        "/cluster/work/users/beto93/SiH4/Gau-3586821.EFC"
         mat. el file     "/cluster/work/users/beto93/SiH4/Gau-3586821.EUF"

 Writing WrtUnf unformatted file "/cluster/work/users/beto93/SiH4/Gau-3586821.EUF"
 Gaussian matrix elements                                         Version   2 NLab=11 Len12L=8 Len4L=8
 Write SHELL TO ATOM MAP                   from file      0 offset           0 length                   7 to matrix element file.
 Write SHELL TYPES                         from file      0 offset           0 length                   7 to matrix element file.
 Write NUMBER OF PRIMITIVES PER SHELL      from file      0 offset           0 length                   7 to matrix element file.
 Write PRIMITIVE EXPONENTS                 from file      0 offset           0 length                  21 to matrix element file.
 Write CONTRACTION COEFFICIENTS            from file      0 offset           0 length                  21 to matrix element file.
 Write P(S=P) CONTRACTION COEFFICIENTS     from file      0 offset           0 length                  21 to matrix element file.
 Write COORDINATES OF EACH SHELL           from file      0 offset           0 length                  21 to matrix element file.
 Write BONDS PER ATOM                      from file      0 offset           0 length                   5 to matrix element file.
 Write BONDED ATOMS                        from file      0 offset           0 length                   8 to matrix element file.
 Write BOND TYPES                          from file      0 offset           0 length                   8 to matrix element file.
 Write ONIOM CHARGE/MULT                   from file      0 offset           0 length                  32 to matrix element file.
 Write ONIOM ATOM LAYERS                   from file      0 offset           0 length                   5 to matrix element file.
 Write ONIOM ATOM MODIFIERS                from file      0 offset           0 length                   5 to matrix element file.
 Write ONIOM ATOM TYPES                    from file      0 offset           0 length                   5 to matrix element file.
 Write ONIOM LINK ATOMS                    from file      0 offset           0 length                   5 to matrix element file.
 Write ONIOM LINK CHARGES                  from file      0 offset           0 length                   5 to matrix element file.
 Write ONIOM LINK DISTANCES                from file      0 offset           0 length                  20 to matrix element file.
 Write SYMINF INTS                         from file      0 offset           0 length                  26 to matrix element file.
 Write ROTTR TO SO                         from file      0 offset           0 length                  12 to matrix element file.
 Write GAUSSIAN SCALARS                    from file    501 offset           0 to matrix element file.
 Write OPTIMIZATION FLAGS                  from file      0 offset           0 length                   5 to matrix element file.
 Write INTEGER ISO                         from file      0 offset           0 length                   5 to matrix element file.
 Write INTEGER SPIN                        from file      0 offset           0 length                   5 to matrix element file.
 Write REAL ZEFFECTIVE                     from file      0 offset           0 length                   5 to matrix element file.
 Write REAL GFACTOR                        from file      0 offset           0 length                   5 to matrix element file.
 Write REAL ZNUCLEAR                       from file      0 offset           0 length                   5 to matrix element file.
 Write MULLIKEN CHARGES                    from file      0 offset           0 length                   5 to matrix element file.
 Write NUCLEAR GRADIENT                    from file  10584 offset           0 length                  15 to matrix element file.
 Array NUCLEAR FORCE CONSTANTS              on  file  10585 does not exist.
 Write ELECTRIC DIPOLE MOMENT              from file      0 offset           0 length                   3 to matrix element file.
 Write NON-ADIABATIC COUPLING              from file  10810 offset           0 length                  15 to matrix element file.
 Write RED INT COORD DIMS                  from file      0 offset           0 length                   4 to matrix element file.
 Write RED INT COORD ATOMS                 from file      0 offset           0 length                  56 to matrix element file.
 Write RED INT COORD VALS                  from file      0 offset           0 length                  14 to matrix element file.
 Write RED INT COORD IFLAGS                from file      0 offset           0 length                  14 to matrix element file.
 Write RED INT COORD RFLAGS                from file      0 offset           0 length                  14 to matrix element file.
 Write RED INT COORD CONSTRAINT            from file      0 offset           0 length                  28 to matrix element file.
 Write FINITE EM FIELD                     from file  10521 offset           0 length                  35 to matrix element file.
 Write OVERLAP                             from file  10514 offset           0 length                  91 to matrix element file.
 Write CORE HAMILTONIAN ALPHA              from file  10515 offset           0 length                  91 to matrix element file.
 Write CORE HAMILTONIAN BETA               from file  10515 offset          91 length                  91 to matrix element file.
 Write KINETIC ENERGY                      from file  10516 offset           0 length                  91 to matrix element file.
 Write ORTHOGONAL BASIS                    from file  10685 offset           0 length                 169 to matrix element file.
 Write DIPOLE INTEGRALS                    from file  10518 offset           0 length                 273 to matrix element file.
 Array DIP VEL INTEGRALS                    on  file  10572 does not exist.
 Array R X DEL INTEGRALS                    on  file  10572 does not exist.
 Write ALPHA ORBITAL ENERGIES              from file      0 offset           0 length                  13 to matrix element file.
 Write ALPHA MO COEFFICIENTS               from file  10524 offset           0 length                 169 to matrix element file.
 Write ALPHA DENSITY MATRIX                from file      0 offset           0 length                  91 to matrix element file.
 Write ALPHA FOCK MATRIX                   from file  10536 offset           0 length                  91 to matrix element file.
 Write ENERGY-WEIGHTED DENSITY             from file  10571 offset           0 length                  91 to matrix element file.
 Write ALPHA SCF DENSITY MATRIX            from file      0 offset           0 length                  91 to matrix element file.
 No 2e integrals to process.
 Perform NBO analysis...executing G16NBO...

 *********************************** NBO 7.0 ***********************************
             N A T U R A L   A T O M I C   O R B I T A L   A N D
          N A T U R A L   B O N D   O R B I T A L   A N A L Y S I S
 **************************** Espen Tangen (S101595) ***************************
  (c) Copyright 1996-2021 Board of Regents of the University of Wisconsin System
      on behalf of the Theoretical Chemistry Institute.  All rights reserved.

          Cite this program [NBO 7.0.10 (8-Feb-2021)] as:

          NBO 7.0.  E. D. Glendening, J. K. Badenhoop, A. E. Reed,
          J. E. Carpenter, J. A. Bohmann, C. M. Morales, P. Karafiloglou,
          C. R. Landis, and F. Weinhold, Theoretical Chemistry Institute,
          University of Wisconsin, Madison, WI (2018)

       /NPA    / : Natural Population Analysis
       /AOPNAO / : Print the AO to PNAO transformation
       /AONAO  / : Print the AO to NAO transformation
       /AONO   / : Print the NOs in the AO basis
       /AOMO   / : Print the MOs in the AO basis
       /BOAO   / : Print the AO bond-order matrix
       /DMAO   / : Print the AO density matrix
       /DMPNAO / : Print the PNAO density matrix
       /DMNAO  / : Print the NAO density matrix
       /DMMO   / : Print the MO density matrix
       /SAO    / : Print the AO overlap matrix
       /SPNAO  / : Print the PNAO overlap matrix
       /DETAIL / : Write details of NBO search
       /ARCHIVE/ : Write the archive file to lfn47
       /AOINFO / : Write AO information to lfn31
       /FILE   / : Set to SiH4

 Filename set to SiH4

 Job title: NBO-SiH4


 MOs in the AO basis:

           AO          1       2       3       4       5       6       7       8
      ------------ ------- ------- ------- ------- ------- ------- ------- -------
   1. Si 1 (s)      0.9939 -0.3436  0.0000  0.0000  0.0000  0.0810  0.0000  0.0000
   2. Si 1 (s)      0.0189  1.0384  0.0000  0.0000  0.0000 -0.3217  0.0000  0.0000
   3. Si 1 (px)     0.0000  0.0000 -0.6506  0.0000  0.7262  0.0000  0.1491  0.0000
   4. Si 1 (py)     0.0000  0.0000  0.7262  0.0000  0.6506  0.0000 -0.1902  0.0000
   5. Si 1 (pz)     0.0000  0.0000  0.0000  0.9750  0.0000  0.0000  0.0000 -0.2417
   6. Si 1 (s)     -0.0057  0.0714  0.0000  0.0000  0.0000  0.4589  0.0000  0.0000
   7. Si 1 (px)     0.0000  0.0000 -0.0597  0.0000  0.0666  0.0000 -0.2569  0.0000
   8. Si 1 (py)     0.0000  0.0000  0.0666  0.0000  0.0597  0.0000  0.3278  0.0000
   9. Si 1 (pz)     0.0000  0.0000  0.0000  0.0895  0.0000  0.0000  0.0000  0.4165
  10.  H 2 (s)      0.0014 -0.0100 -0.0125  0.0000 -0.0112  0.2403  0.5015  0.0000
  11.  H 3 (s)      0.0014 -0.0100 -0.0064  0.0000  0.0155  0.2403  0.2035  0.0000
  12.  H 4 (s)      0.0014 -0.0100  0.0094 -0.0137 -0.0022  0.2403 -0.3525  0.5203
  13.  H 5 (s)      0.0014 -0.0100  0.0094  0.0137 -0.0022  0.2403 -0.3525 -0.5203

           AO          9      10      11      12      13
      ------------ ------- ------- ------- ------- -------
   1. Si 1 (s)      0.0000  0.0000  0.0000  0.0000  0.0698
   2. Si 1 (s)      0.0000  0.0000  0.0000  0.0000 -0.1020
   3. Si 1 (px)     0.1902 -0.2312  0.0000  0.1958  0.0000
   4. Si 1 (py)     0.1491 -0.1958  0.0000 -0.2312  0.0000
   5. Si 1 (pz)     0.0000  0.0000 -0.3030  0.0000  0.0000
   6. Si 1 (s)      0.0000  0.0000  0.0000  0.0000  2.5256
   7. Si 1 (px)    -0.3278  1.1366  0.0000 -0.9627  0.0000
   8. Si 1 (py)    -0.2569  0.9627  0.0000  1.1366  0.0000
   9. Si 1 (pz)     0.0000  0.0000  1.4895  0.0000  0.0000
  10.  H 2 (s)     -0.3931 -0.8297  0.0000 -0.9796 -1.0014
  11.  H 3 (s)      0.6039  1.2001  0.0000 -0.4557 -1.0014
  12.  H 4 (s)     -0.1054 -0.1852 -1.0481  0.7176 -1.0014
  13.  H 5 (s)     -0.1054 -0.1852  1.0481  0.7176 -1.0014


 NOs in the AO basis:

           AO          1       2       3       4       5       6       7       8
      ------------ ------- ------- ------- ------- ------- ------- ------- -------
   1. Si 1 (s)      0.7443  0.5646  0.4821  0.0293  0.0348  0.0496  0.0267  0.0072
   2. Si 1 (s)      0.4640 -0.6138 -0.7088 -0.0872 -0.2292 -0.1477 -0.0667  0.0017
   3. Si 1 (px)     0.0515 -0.2443  0.1830 -0.0842  0.1197  0.4908 -0.7654  0.2393
   4. Si 1 (py)    -0.0856  0.6399 -0.6595  0.0083 -0.0063  0.2540 -0.1541  0.0743
   5. Si 1 (pz)    -0.0202 -0.0492  0.0501  0.7545 -0.3670 -0.0186  0.0536  0.5336
   6. Si 1 (s)     -0.1068  0.1107  0.1032 -0.1944 -0.3547 -0.0756 -0.0920  0.0427
   7. Si 1 (px)     0.0135 -0.0502  0.0067 -0.0635 -0.1076  0.3270  0.2335  0.0071
   8. Si 1 (py)     0.0054  0.0627 -0.0498  0.0452  0.0437  0.0159 -0.0465  0.0651
   9. Si 1 (pz)    -0.0040  0.0029  0.0071  0.1797 -0.1204  0.0725 -0.1028 -0.3429
  10.  H 2 (s)     -0.0477  0.0779  0.1097 -0.0281 -0.1012 -0.0458 -0.0866  0.1039
  11.  H 3 (s)     -0.0863  0.1188  0.0908 -0.0389 -0.0233 -0.4016 -0.4534  0.0175
  12.  H 4 (s)     -0.0720  0.0774  0.0680 -0.0310 -0.3652  0.2497  0.0574 -0.4879
  13.  H 5 (s)     -0.0675  0.0586  0.0635 -0.2704 -0.1711  0.0744  0.3128  0.4507

           AO          9      10      11      12      13
      ------------ ------- ------- ------- ------- -------
   1. Si 1 (s)      0.0451  0.0021 -0.0073 -0.0184  0.0669
   2. Si 1 (s)     -0.0339 -0.0031  0.0107  0.0269 -0.0977
   3. Si 1 (px)     0.0895 -0.0231 -0.0072 -0.2912 -0.0802
   4. Si 1 (py)     0.2519  0.2964 -0.0575 -0.0166 -0.0201
   5. Si 1 (pz)     0.1093 -0.0581 -0.2957  0.0189 -0.0253
   6. Si 1 (s)     -0.0424  0.0759 -0.2647 -0.6661  2.4205
   7. Si 1 (px)    -0.0399  0.1137  0.0353  1.4315  0.3942
   8. Si 1 (py)    -0.4054 -1.4568  0.2828  0.0815  0.0990
   9. Si 1 (pz)    -0.0338  0.2855  1.4536 -0.0928  0.1245
  10.  H 2 (s)     -0.6422  1.2254 -0.1388  0.1939 -1.0450
  11.  H 3 (s)      0.2552 -0.3562  0.2149  1.4506 -0.6109
  12.  H 4 (s)      0.1017 -0.6957 -0.8510 -0.2287 -1.1790
  13.  H 5 (s)      0.2081 -0.2939  1.1947 -0.3594 -1.0038


 AO overlap matrix:

           AO          1       2       3       4       5       6       7       8
      ------------ ------- ------- ------- ------- ------- ------- ------- -------
   1. Si 1 (s)      1.0000  0.3142  0.0000  0.0000  0.0000  0.0136  0.0000  0.0000
   2. Si 1 (s)      0.3142  1.0000  0.0000  0.0000  0.0000  0.2542  0.0000  0.0000
   3. Si 1 (px)     0.0000  0.0000  1.0000  0.0000  0.0000  0.0000  0.2685  0.0000
   4. Si 1 (py)     0.0000  0.0000  0.0000  1.0000  0.0000  0.0000  0.0000  0.2685
   5. Si 1 (pz)     0.0000  0.0000  0.0000  0.0000  1.0000  0.0000  0.0000  0.0000
   6. Si 1 (s)      0.0136  0.2542  0.0000  0.0000  0.0000  1.0000  0.0000  0.0000
   7. Si 1 (px)     0.0000  0.0000  0.2685  0.0000  0.0000  0.0000  1.0000  0.0000
   8. Si 1 (py)     0.0000  0.0000  0.0000  0.2685  0.0000  0.0000  0.0000  1.0000
   9. Si 1 (pz)     0.0000  0.0000  0.0000  0.0000  0.2685  0.0000  0.0000  0.0000
  10.  H 2 (s)      0.0174  0.1450  0.0000  0.0818  0.0000  0.5696  0.0000  0.5803
  11.  H 3 (s)      0.0174  0.1450 -0.0771 -0.0273  0.0000  0.5696 -0.5471 -0.1934
  12.  H 4 (s)      0.0174  0.1450  0.0385 -0.0273  0.0668  0.5696  0.2736 -0.1934
  13.  H 5 (s)      0.0174  0.1450  0.0385 -0.0273 -0.0668  0.5696  0.2736 -0.1934

           AO          9      10      11      12      13
      ------------ ------- ------- ------- ------- -------
   1. Si 1 (s)      0.0000  0.0174  0.0174  0.0174  0.0174
   2. Si 1 (s)      0.0000  0.1450  0.1450  0.1450  0.1450
   3. Si 1 (px)     0.0000  0.0000 -0.0771  0.0385  0.0385
   4. Si 1 (py)     0.0000  0.0818 -0.0273 -0.0273 -0.0273
   5. Si 1 (pz)     0.2685  0.0000  0.0000  0.0668 -0.0668
   6. Si 1 (s)      0.0000  0.5696  0.5696  0.5696  0.5696
   7. Si 1 (px)     0.0000  0.0000 -0.5471  0.2736  0.2736
   8. Si 1 (py)     0.0000  0.5803 -0.1934 -0.1934 -0.1934
   9. Si 1 (pz)     1.0000  0.0000  0.0000  0.4738 -0.4738
  10.  H 2 (s)      0.0000  1.0000  0.1780  0.1780  0.1780
  11.  H 3 (s)      0.0000  0.1780  1.0000  0.1780  0.1780
  12.  H 4 (s)      0.4738  0.1780  0.1780  1.0000  0.1780
  13.  H 5 (s)     -0.4738  0.1780  0.1780  0.1780  1.0000


 AO bond-order matrix:

           AO          1       2       3       4       5       6       7       8
      ------------ ------- ------- ------- ------- ------- ------- ------- -------
   1. Si 1 (s)      2.2249 -0.7282  0.0000  0.0000  0.0000  0.0138  0.0000  0.0000
   2. Si 1 (s)     -0.7282  2.3640  0.0000  0.0000  0.0000 -0.1471  0.0000  0.0000
   3. Si 1 (px)     0.0000  0.0000  2.0183  0.0000  0.0000  0.0000 -0.0269  0.0000
   4. Si 1 (py)     0.0000  0.0000  0.0000  2.0183  0.0000  0.0000  0.0000 -0.0269
   5. Si 1 (pz)     0.0000  0.0000  0.0000  0.0000  2.0183  0.0000  0.0000  0.0000
   6. Si 1 (s)      0.0138 -0.1471  0.0000  0.0000  0.0000  0.4315  0.0000  0.0000
   7. Si 1 (px)     0.0000  0.0000 -0.0269  0.0000  0.0000  0.0000  0.3629  0.0000
   8. Si 1 (py)     0.0000  0.0000  0.0000 -0.0269  0.0000  0.0000  0.0000  0.3629
   9. Si 1 (pz)     0.0000  0.0000  0.0000  0.0000 -0.0269  0.0000  0.0000  0.0000
  10.  H 2 (s)      0.0485 -0.1753  0.0000 -0.3407  0.0000  0.2191  0.0000  0.5278
  11.  H 3 (s)      0.0485 -0.1753  0.3212  0.1136  0.0000  0.2191 -0.4976 -0.1759
  12.  H 4 (s)      0.0485 -0.1753 -0.1606  0.1136 -0.2782  0.2191  0.2488 -0.1759
  13.  H 5 (s)      0.0485 -0.1753 -0.1606  0.1136  0.2782  0.2191  0.2488 -0.1759

           AO          9      10      11      12      13
      ------------ ------- ------- ------- ------- -------
   1. Si 1 (s)      0.0000  0.0485  0.0485  0.0485  0.0485
   2. Si 1 (s)      0.0000 -0.1753 -0.1753 -0.1753 -0.1753
   3. Si 1 (px)     0.0000  0.0000  0.3212 -0.1606 -0.1606
   4. Si 1 (py)     0.0000 -0.3407  0.1136  0.1136  0.1136
   5. Si 1 (pz)    -0.0269  0.0000  0.0000 -0.2782  0.2782
   6. Si 1 (s)      0.0000  0.2191  0.2191  0.2191  0.2191
   7. Si 1 (px)     0.0000  0.0000 -0.4976  0.2488  0.2488
   8. Si 1 (py)     0.0000  0.5278 -0.1759 -0.1759 -0.1759
   9. Si 1 (pz)     0.3629  0.0000  0.0000  0.4309 -0.4309
  10.  H 2 (s)      0.0000  0.9284 -0.1552 -0.1552 -0.1552
  11.  H 3 (s)      0.0000 -0.1552  0.9284 -0.1552 -0.1552
  12.  H 4 (s)      0.4309 -0.1552 -0.1552  0.9284 -0.1552
  13.  H 5 (s)     -0.4309 -0.1552 -0.1552 -0.1552  0.9284


 AO density matrix:

           AO          1       2       3       4       5       6       7       8
      ------------ ------- ------- ------- ------- ------- ------- ------- -------
   1. Si 1 (s)      2.0000  0.6285  0.0000  0.0000  0.0000  0.0262  0.0000  0.0000
   2. Si 1 (s)      0.6285  1.9993  0.0000  0.0000  0.0000  0.5166  0.0000  0.0000
   3. Si 1 (px)     0.0000  0.0000  1.9963  0.0000  0.0000  0.0000  0.5727  0.0000
   4. Si 1 (py)     0.0000  0.0000  0.0000  1.9963  0.0000  0.0000  0.0000  0.5727
   5. Si 1 (pz)     0.0000  0.0000  0.0000  0.0000  1.9963  0.0000  0.0000  0.0000
   6. Si 1 (s)      0.0262  0.5166  0.0000  0.0000  0.0000  1.9040  0.0000  0.0000
   7. Si 1 (px)     0.0000  0.0000  0.5727  0.0000  0.0000  0.0000  1.6557  0.0000
   8. Si 1 (py)     0.0000  0.0000  0.0000  0.5727  0.0000  0.0000  0.0000  1.6557
   9. Si 1 (pz)     0.0000  0.0000  0.0000  0.0000  0.5727  0.0000  0.0000  0.0000
  10.  H 2 (s)      0.0354  0.2858  0.0000  0.1450  0.0000  1.1879  0.0000  1.3395
  11.  H 3 (s)      0.0354  0.2858 -0.1367 -0.0483  0.0000  1.1879 -1.2629 -0.4465
  12.  H 4 (s)      0.0354  0.2858  0.0683 -0.0483  0.1184  1.1879  0.6315 -0.4465
  13.  H 5 (s)      0.0354  0.2858  0.0683 -0.0483 -0.1184  1.1879  0.6315 -0.4465

           AO          9      10      11      12      13
      ------------ ------- ------- ------- ------- -------
   1. Si 1 (s)      0.0000  0.0354  0.0354  0.0354  0.0354
   2. Si 1 (s)      0.0000  0.2858  0.2858  0.2858  0.2858
   3. Si 1 (px)     0.0000  0.0000 -0.1367  0.0683  0.0683
   4. Si 1 (py)     0.0000  0.1450 -0.0483 -0.0483 -0.0483
   5. Si 1 (pz)     0.5727  0.0000  0.0000  0.1184 -0.1184
   6. Si 1 (s)      0.0000  1.1879  1.1879  1.1879  1.1879
   7. Si 1 (px)     0.0000  0.0000 -1.2629  0.6315  0.6315
   8. Si 1 (py)     0.0000  1.3395 -0.4465 -0.4465 -0.4465
   9. Si 1 (pz)     1.6557  0.0000  0.0000  1.0937 -1.0937
  10.  H 2 (s)      0.0000  1.8824  0.3623  0.3623  0.3623
  11.  H 3 (s)      0.0000  0.3623  1.8824  0.3623  0.3623
  12.  H 4 (s)      1.0937  0.3623  0.3623  1.8824  0.3623
  13.  H 5 (s)     -1.0937  0.3623  0.3623  0.3623  1.8824


 MO density matrix:

      MO     1       2       3       4       5       6       7       8       9
     ---- ------  ------  ------  ------  ------  ------  ------  ------  ------
   1.     2.0000  0.0000  0.0000  0.0000  0.0000  0.0000  0.0000  0.0000  0.0000
   2.     0.0000  2.0000  0.0000  0.0000  0.0000  0.0000  0.0000  0.0000  0.0000
   3.     0.0000  0.0000  2.0000  0.0000  0.0000  0.0000  0.0000  0.0000  0.0000
   4.     0.0000  0.0000  0.0000  2.0000  0.0000  0.0000  0.0000  0.0000  0.0000
   5.     0.0000  0.0000  0.0000  0.0000  2.0000  0.0000  0.0000  0.0000  0.0000
   6.     0.0000  0.0000  0.0000  0.0000  0.0000  2.0000  0.0000  0.0000  0.0000
   7.     0.0000  0.0000  0.0000  0.0000  0.0000  0.0000  2.0000  0.0000  0.0000
   8.     0.0000  0.0000  0.0000  0.0000  0.0000  0.0000  0.0000  2.0000  0.0000
   9.     0.0000  0.0000  0.0000  0.0000  0.0000  0.0000  0.0000  0.0000  2.0000
  10.     0.0000  0.0000  0.0000  0.0000  0.0000  0.0000  0.0000  0.0000  0.0000
  11.     0.0000  0.0000  0.0000  0.0000  0.0000  0.0000  0.0000  0.0000  0.0000
  12.     0.0000  0.0000  0.0000  0.0000  0.0000  0.0000  0.0000  0.0000  0.0000
  13.     0.0000  0.0000  0.0000  0.0000  0.0000  0.0000  0.0000  0.0000  0.0000

      MO    10      11      12      13
     ---- ------  ------  ------  ------
   1.     0.0000  0.0000  0.0000  0.0000
   2.     0.0000  0.0000  0.0000  0.0000
   3.     0.0000  0.0000  0.0000  0.0000
   4.     0.0000  0.0000  0.0000  0.0000
   5.     0.0000  0.0000  0.0000  0.0000
   6.     0.0000  0.0000  0.0000  0.0000
   7.     0.0000  0.0000  0.0000  0.0000
   8.     0.0000  0.0000  0.0000  0.0000
   9.     0.0000  0.0000  0.0000  0.0000
  10.     0.0000  0.0000  0.0000  0.0000
  11.     0.0000  0.0000  0.0000  0.0000
  12.     0.0000  0.0000  0.0000  0.0000
  13.     0.0000  0.0000  0.0000  0.0000


 NATURAL POPULATIONS:  Natural atomic orbital occupancies

  NAO Atom No lang   Type(AO)    Occupancy      Energy
 -------------------------------------------------------
   1   Si  1  s      Cor( 1s)     2.00000     -66.51588
   2   Si  1  s      Cor( 2s)     2.00000      -7.32584
   3   Si  1  s      Val( 3s)     0.85366       0.28142
   4   Si  1  px     Cor( 2p)     2.00000      -3.97738
   5   Si  1  px     Val( 3p)     0.80270       0.22187
   6   Si  1  py     Cor( 2p)     2.00000      -3.97738
   7   Si  1  py     Val( 3p)     0.80270       0.22187
   8   Si  1  pz     Cor( 2p)     2.00000      -3.97738
   9   Si  1  pz     Val( 3p)     0.80270       0.22187

  10    H  2  s      Val( 1s)     1.18456      -0.01771

  11    H  3  s      Val( 1s)     1.18456      -0.01771

  12    H  4  s      Val( 1s)     1.18456      -0.01771

  13    H  5  s      Val( 1s)     1.18456      -0.01771


 Summary of Natural Population Analysis:

                                     Natural Population
             Natural    ---------------------------------------------
  Atom No    Charge        Core      Valence    Rydberg      Total
 --------------------------------------------------------------------
   Si  1    0.73824     10.00000     3.26176    0.00000    13.26176
    H  2   -0.18456      0.00000     1.18456    0.00000     1.18456
    H  3   -0.18456      0.00000     1.18456    0.00000     1.18456
    H  4   -0.18456      0.00000     1.18456    0.00000     1.18456
    H  5   -0.18456      0.00000     1.18456    0.00000     1.18456
 ====================================================================
 * Total *  0.00000     10.00000     8.00000    0.00000    18.00000

                                 Natural Population
 ---------------------------------------------------------
   Core                      10.00000 (100.0000% of   10)
   Valence                    8.00000 (100.0000% of    8)
   Natural Minimal Basis     18.00000 (100.0000% of   18)
   Natural Rydberg Basis      0.00000 (  0.0000% of   18)
 ---------------------------------------------------------

    Atom No         Natural Electron Configuration
 ----------------------------------------------------------------------------
     Si  1      [core]3s( 0.85)3p( 2.41)
      H  2            1s( 1.18)
      H  3            1s( 1.18)
      H  4            1s( 1.18)
      H  5            1s( 1.18)


 PNAOs in the AO basis:

           AO          1       2       3       4       5       6       7       8
      ------------ ------- ------- ------- ------- ------- ------- ------- -------
   1. Si 1 (s)      0.9315 -0.4844  0.1143  0.0000  0.0000  0.0000  0.0000  0.0000
   2. Si 1 (s)      0.1735  1.0095 -0.3781  0.0000  0.0000  0.0000  0.0000  0.0000
   3. Si 1 (px)     0.0000  0.0000  0.0000  0.9684 -0.3741  0.0000  0.0000  0.0000
   4. Si 1 (py)     0.0000  0.0000  0.0000  0.0000  0.0000  0.9684 -0.3741  0.0000
   5. Si 1 (pz)     0.0000  0.0000  0.0000  0.0000  0.0000  0.0000  0.0000  0.9684
   6. Si 1 (s)      0.0053  0.0907  1.0327  0.0000  0.0000  0.0000  0.0000  0.0000
   7. Si 1 (px)     0.0000  0.0000  0.0000  0.1003  1.0333  0.0000  0.0000  0.0000
   8. Si 1 (py)     0.0000  0.0000  0.0000  0.0000  0.0000  0.1003  1.0333  0.0000
   9. Si 1 (pz)     0.0000  0.0000  0.0000  0.0000  0.0000  0.0000  0.0000  0.1003
  10.  H 2 (s)      0.0000  0.0000  0.0000  0.0000  0.0000  0.0000  0.0000  0.0000
  11.  H 3 (s)      0.0000  0.0000  0.0000  0.0000  0.0000  0.0000  0.0000  0.0000
  12.  H 4 (s)      0.0000  0.0000  0.0000  0.0000  0.0000  0.0000  0.0000  0.0000
  13.  H 5 (s)      0.0000  0.0000  0.0000  0.0000  0.0000  0.0000  0.0000  0.0000

           AO          9      10      11      12      13
      ------------ ------- ------- ------- ------- -------
   1. Si 1 (s)      0.0000  0.0000  0.0000  0.0000  0.0000
   2. Si 1 (s)      0.0000  0.0000  0.0000  0.0000  0.0000
   3. Si 1 (px)     0.0000  0.0000  0.0000  0.0000  0.0000
   4. Si 1 (py)     0.0000  0.0000  0.0000  0.0000  0.0000
   5. Si 1 (pz)    -0.3741  0.0000  0.0000  0.0000  0.0000
   6. Si 1 (s)      0.0000  0.0000  0.0000  0.0000  0.0000
   7. Si 1 (px)     0.0000  0.0000  0.0000  0.0000  0.0000
   8. Si 1 (py)     0.0000  0.0000  0.0000  0.0000  0.0000
   9. Si 1 (pz)     1.0333  0.0000  0.0000  0.0000  0.0000
  10.  H 2 (s)      0.0000  1.0000  0.0000  0.0000  0.0000
  11.  H 3 (s)      0.0000  0.0000  1.0000  0.0000  0.0000
  12.  H 4 (s)      0.0000  0.0000  0.0000  1.0000  0.0000
  13.  H 5 (s)      0.0000  0.0000  0.0000  0.0000  1.0000


 PNAO overlap matrix:

           NAO         1       2       3       4       5       6       7       8
      ------------ ------- ------- ------- ------- ------- ------- ------- -------
   1. Si 1( 1s )    1.0000  0.0000  0.0000  0.0000  0.0000  0.0000  0.0000  0.0000
   2. Si 1( 2s )    0.0000  1.0000  0.0000  0.0000  0.0000  0.0000  0.0000  0.0000
   3. Si 1( 3s )    0.0000  0.0000  1.0000  0.0000  0.0000  0.0000  0.0000  0.0000
   4. Si 1( 2px)    0.0000  0.0000  0.0000  1.0000  0.0000  0.0000  0.0000  0.0000
   5. Si 1( 3px)    0.0000  0.0000  0.0000  0.0000  1.0000  0.0000  0.0000  0.0000
   6. Si 1( 2py)    0.0000  0.0000  0.0000  0.0000  0.0000  1.0000  0.0000  0.0000
   7. Si 1( 3py)    0.0000  0.0000  0.0000  0.0000  0.0000  0.0000  1.0000  0.0000
   8. Si 1( 2pz)    0.0000  0.0000  0.0000  0.0000  0.0000  0.0000  0.0000  1.0000
   9. Si 1( 3pz)    0.0000  0.0000  0.0000  0.0000  0.0000  0.0000  0.0000  0.0000
  10.  H 2( 1s )    0.0444  0.1895  0.5354  0.0000  0.0000  0.1374  0.5690  0.0000
  11.  H 3( 1s )    0.0444  0.1895  0.5354 -0.1295 -0.5365 -0.0458 -0.1897  0.0000
  12.  H 4( 1s )    0.0444  0.1895  0.5354  0.0648  0.2682 -0.0458 -0.1897  0.1122
  13.  H 5( 1s )    0.0444  0.1895  0.5354  0.0648  0.2682 -0.0458 -0.1897 -0.1122

           NAO         9      10      11      12      13
      ------------ ------- ------- ------- ------- -------
   1. Si 1( 1s )    0.0000  0.0444  0.0444  0.0444  0.0444
   2. Si 1( 2s )    0.0000  0.1895  0.1895  0.1895  0.1895
   3. Si 1( 3s )    0.0000  0.5354  0.5354  0.5354  0.5354
   4. Si 1( 2px)    0.0000  0.0000 -0.1295  0.0648  0.0648
   5. Si 1( 3px)    0.0000  0.0000 -0.5365  0.2682  0.2682
   6. Si 1( 2py)    0.0000  0.1374 -0.0458 -0.0458 -0.0458
   7. Si 1( 3py)    0.0000  0.5690 -0.1897 -0.1897 -0.1897
   8. Si 1( 2pz)    0.0000  0.0000  0.0000  0.1122 -0.1122
   9. Si 1( 3pz)    1.0000  0.0000  0.0000  0.4646 -0.4646
  10.  H 2( 1s )    0.0000  1.0000  0.1780  0.1780  0.1780
  11.  H 3( 1s )    0.0000  0.1780  1.0000  0.1780  0.1780
  12.  H 4( 1s )    0.4646  0.1780  0.1780  1.0000  0.1780
  13.  H 5( 1s )   -0.4646  0.1780  0.1780  0.1780  1.0000


 PNAO density matrix:

           NAO         1       2       3       4       5       6       7       8
      ------------ ------- ------- ------- ------- ------- ------- ------- -------
   1. Si 1( 1s )    2.0000  0.0000  0.0000  0.0000  0.0000  0.0000  0.0000  0.0000
   2. Si 1( 2s )    0.0000  2.0000  0.0000  0.0000  0.0000  0.0000  0.0000  0.0000
   3. Si 1( 3s )    0.0000  0.0000  1.8909  0.0000  0.0000  0.0000  0.0000  0.0000
   4. Si 1( 2px)    0.0000  0.0000  0.0000  2.0000  0.0000  0.0000  0.0000  0.0000
   5. Si 1( 3px)    0.0000  0.0000  0.0000  0.0000  1.6044  0.0000  0.0000  0.0000
   6. Si 1( 2py)    0.0000  0.0000  0.0000  0.0000  0.0000  2.0000  0.0000  0.0000
   7. Si 1( 3py)    0.0000  0.0000  0.0000  0.0000  0.0000  0.0000  1.6044  0.0000
   8. Si 1( 2pz)    0.0000  0.0000  0.0000  0.0000  0.0000  0.0000  0.0000  2.0000
   9. Si 1( 3pz)    0.0000  0.0000  0.0000  0.0000  0.0000  0.0000  0.0000  0.0000
  10.  H 2( 1s )    0.0888  0.3791  1.1227  0.0000  0.0000  0.2748  1.3298  0.0000
  11.  H 3( 1s )    0.0888  0.3791  1.1227 -0.2591 -1.2538 -0.0916 -0.4433  0.0000
  12.  H 4( 1s )    0.0888  0.3791  1.1227  0.1295  0.6269 -0.0916 -0.4433  0.2244
  13.  H 5( 1s )    0.0888  0.3791  1.1227  0.1295  0.6269 -0.0916 -0.4433 -0.2244

           NAO         9      10      11      12      13
      ------------ ------- ------- ------- ------- -------
   1. Si 1( 1s )    0.0000  0.0888  0.0888  0.0888  0.0888
   2. Si 1( 2s )    0.0000  0.3791  0.3791  0.3791  0.3791
   3. Si 1( 3s )    0.0000  1.1227  1.1227  1.1227  1.1227
   4. Si 1( 2px)    0.0000  0.0000 -0.2591  0.1295  0.1295
   5. Si 1( 3px)    0.0000  0.0000 -1.2538  0.6269  0.6269
   6. Si 1( 2py)    0.0000  0.2748 -0.0916 -0.0916 -0.0916
   7. Si 1( 3py)    0.0000  1.3298 -0.4433 -0.4433 -0.4433
   8. Si 1( 2pz)    0.0000  0.0000  0.0000  0.2244 -0.2244
   9. Si 1( 3pz)    1.6044  0.0000  0.0000  1.0858 -1.0858
  10.  H 2( 1s )    0.0000  1.8824  0.3623  0.3623  0.3623
  11.  H 3( 1s )    0.0000  0.3623  1.8824  0.3623  0.3623
  12.  H 4( 1s )    1.0858  0.3623  0.3623  1.8824  0.3623
  13.  H 5( 1s )   -1.0858  0.3623  0.3623  0.3623  1.8824


 NAOs in the AO basis:

           AO          1       2       3       4       5       6       7       8
      ------------ ------- ------- ------- ------- ------- ------- ------- -------
   1. Si 1 (s)      0.9315 -0.4844  0.1187  0.0000  0.0000  0.0000  0.0000  0.0000
   2. Si 1 (s)      0.1735  1.0095 -0.3153  0.0000  0.0000  0.0000  0.0000  0.0000
   3. Si 1 (px)     0.0000  0.0000  0.0000  0.9684 -0.4037  0.0000  0.0000  0.0000
   4. Si 1 (py)     0.0000  0.0000  0.0000  0.0000  0.0000  0.9684 -0.4037  0.0000
   5. Si 1 (pz)     0.0000  0.0000  0.0000  0.0000  0.0000  0.0000  0.0000  0.9684
   6. Si 1 (s)      0.0053  0.0907  2.2097  0.0000  0.0000  0.0000  0.0000  0.0000
   7. Si 1 (px)     0.0000  0.0000  0.0000  0.1003  1.4147  0.0000  0.0000  0.0000
   8. Si 1 (py)     0.0000  0.0000  0.0000  0.0000  0.0000  0.1003  1.4147  0.0000
   9. Si 1 (pz)     0.0000  0.0000  0.0000  0.0000  0.0000  0.0000  0.0000  0.1003
  10.  H 2 (s)      0.0000  0.0000 -0.6010  0.0000  0.0000  0.0000 -0.5894  0.0000
  11.  H 3 (s)      0.0000  0.0000 -0.6010  0.0000  0.5557  0.0000  0.1965  0.0000
  12.  H 4 (s)      0.0000  0.0000 -0.6010  0.0000 -0.2778  0.0000  0.1965  0.0000
  13.  H 5 (s)      0.0000  0.0000 -0.6010  0.0000 -0.2778  0.0000  0.1965  0.0000

           AO          9      10      11      12      13
      ------------ ------- ------- ------- ------- -------
   1. Si 1 (s)      0.0000  0.0154  0.0154  0.0154  0.0154
   2. Si 1 (s)      0.0000 -0.1046 -0.1046 -0.1046 -0.1046
   3. Si 1 (px)     0.0000  0.0000  0.0121 -0.0060 -0.0060
   4. Si 1 (py)     0.0000 -0.0128  0.0043  0.0043  0.0043
   5. Si 1 (pz)    -0.4037  0.0000  0.0000 -0.0105  0.0105
   6. Si 1 (s)      0.0000 -0.6526 -0.6526 -0.6526 -0.6526
   7. Si 1 (px)     0.0000  0.0000  0.5090 -0.2545 -0.2545
   8. Si 1 (py)     0.0000 -0.5398  0.1799  0.1799  0.1799
   9. Si 1 (pz)     1.4147  0.0000  0.0000 -0.4408  0.4408
  10.  H 2 (s)      0.0000  1.5496  0.0410  0.0410  0.0410
  11.  H 3 (s)      0.0000  0.0410  1.5496  0.0410  0.0410
  12.  H 4 (s)     -0.4812  0.0410  0.0410  1.5496  0.0410
  13.  H 5 (s)      0.4812  0.0410  0.0410  0.0410  1.5496


 NAO density matrix:

           NAO         1       2       3       4       5       6       7       8
      ------------ ------- ------- ------- ------- ------- ------- ------- -------
   1. Si 1( 1s )    2.0000  0.0000  0.0000  0.0000  0.0000  0.0000  0.0000  0.0000
   2. Si 1( 2s )    0.0000  2.0000  0.0000  0.0000  0.0000  0.0000  0.0000  0.0000
   3. Si 1( 3s )    0.0000  0.0000  0.8537  0.0000  0.0000  0.0000  0.0000  0.0000
   4. Si 1( 2px)    0.0000  0.0000  0.0000  2.0000  0.0000  0.0000  0.0000  0.0000
   5. Si 1( 3px)    0.0000  0.0000  0.0000  0.0000  0.8027  0.0000  0.0000  0.0000
   6. Si 1( 2py)    0.0000  0.0000  0.0000  0.0000  0.0000  2.0000  0.0000  0.0000
   7. Si 1( 3py)    0.0000  0.0000  0.0000  0.0000  0.0000  0.0000  0.8027  0.0000
   8. Si 1( 2pz)    0.0000  0.0000  0.0000  0.0000  0.0000  0.0000  0.0000  2.0000
   9. Si 1( 3pz)    0.0000  0.0000  0.0000  0.0000  0.0000  0.0000  0.0000  0.0000
  10.  H 2( 1s )    0.0000  0.0000  0.4946  0.0000  0.0000  0.0000  0.8490  0.0000
  11.  H 3( 1s )    0.0000  0.0000  0.4946  0.0000 -0.8004  0.0000 -0.2830  0.0000
  12.  H 4( 1s )    0.0000  0.0000  0.4946  0.0000  0.4002  0.0000 -0.2830  0.0000
  13.  H 5( 1s )    0.0000  0.0000  0.4946  0.0000  0.4002  0.0000 -0.2830  0.0000

           NAO         9      10      11      12      13
      ------------ ------- ------- ------- ------- -------
   1. Si 1( 1s )    0.0000  0.0000  0.0000  0.0000  0.0000
   2. Si 1( 2s )    0.0000  0.0000  0.0000  0.0000  0.0000
   3. Si 1( 3s )    0.0000  0.4946  0.4946  0.4946  0.4946
   4. Si 1( 2px)    0.0000  0.0000  0.0000  0.0000  0.0000
   5. Si 1( 3px)    0.0000  0.0000 -0.8004  0.4002  0.4002
   6. Si 1( 2py)    0.0000  0.0000  0.0000  0.0000  0.0000
   7. Si 1( 3py)    0.0000  0.8490 -0.2830 -0.2830 -0.2830
   8. Si 1( 2pz)    0.0000  0.0000  0.0000  0.0000  0.0000
   9. Si 1( 3pz)    0.8027  0.0000  0.0000  0.6932 -0.6932
  10.  H 2( 1s )    0.0000  1.1846 -0.0127 -0.0127 -0.0127
  11.  H 3( 1s )    0.0000 -0.0127  1.1846 -0.0127 -0.0127
  12.  H 4( 1s )    0.6932 -0.0127 -0.0127  1.1846 -0.0127
  13.  H 5( 1s )   -0.6932 -0.0127 -0.0127 -0.0127  1.1846


 NATURAL BOND ORBITAL ANALYSIS:

 Initiate 2-center NBO search using THRESH = 1.900 and PRJTHR = 0.300

 Search of NAO DM block for core orbitals on atom:   1
      Eigenvector ( 1) has occupancy 2.00000
            1.0000 0.0000 0.0000 0.0000 0.0000 0.0000 0.0000 0.0000
            0.0000
      Eigenvector ( 2) has occupancy 2.00000
            0.0000 1.0000 0.0000 0.0000 0.0000 0.0000 0.0000 0.0000
            0.0000
      Eigenvector ( 3) has occupancy 2.00000
            0.0000 0.0000 0.0000 1.0000 0.0000 0.0000 0.0000 0.0000
            0.0000
      Eigenvector ( 4) has occupancy 2.00000
            0.0000 0.0000 0.0000 0.0000 0.0000 1.0000 0.0000 0.0000
            0.0000
      Eigenvector ( 5) has occupancy 2.00000
            0.0000 0.0000 0.0000 0.0000 0.0000 0.0000 0.0000 1.0000
            0.0000
        5 eigenvector(s) stashed in permanent list

 Core orbitals projected from the NAO density matrix
       8.000 electrons remain (>1.900); search continues

 Search of NAO DM block for the following atom(s):   1
      Select eigenvectors with eigenvalue > 1.900
       0.854 0.803 0.803 0.803 0.000 0.000 0.000 0.000 0.000

 No NHOs identified in the 1-center search of the NAO density matrix
       8.000 electrons remain (>1.900); search continues

 Search of NAO DM block for the following atom(s):   1   2
      Select eigenvectors with eigenvalue > 1.900
       2.000 0.841 0.803 0.803 0.000 0.000 0.000 0.000 0.000 0.000
      Eigenvector ( 1) has occupancy 2.00000
            0.0000 0.0000 0.3320 0.0000 0.0000 0.0000 0.5456 0.0000
            0.0000 0.7695
      1 hybrid on atom 1 stashed in prospective list
      1 hybrid on atom 2 stashed in prospective list

 Search of NAO DM block for the following atom(s):   1   3
      Select eigenvectors with eigenvalue > 1.900
       2.000 0.841 0.803 0.803 0.000 0.000 0.000 0.000 0.000 0.000
      Eigenvector ( 1) has occupancy 2.00000
            0.0000 0.0000 0.3320 0.0000-0.5144 0.0000-0.1819 0.0000
            0.0000 0.7695
      1 hybrid on atom 1 stashed in prospective list
      1 hybrid on atom 3 stashed in prospective list

 Search of NAO DM block for the following atom(s):   1   4
      Select eigenvectors with eigenvalue > 1.900
       2.000 0.841 0.803 0.803 0.000 0.000 0.000 0.000 0.000 0.000
      Eigenvector ( 1) has occupancy 2.00000
            0.0000 0.0000 0.3320 0.0000 0.2572 0.0000-0.1819 0.0000
            0.4455 0.7695
      1 hybrid on atom 1 stashed in prospective list
      1 hybrid on atom 4 stashed in prospective list

 Search of NAO DM block for the following atom(s):   1   5
      Select eigenvectors with eigenvalue > 1.900
       2.000 0.841 0.803 0.803 0.000 0.000 0.000 0.000 0.000 0.000
      Eigenvector ( 1) has occupancy 2.00000
            0.0000 0.0000 0.3320 0.0000 0.2572 0.0000-0.1819 0.0000
           -0.4455 0.7695
      1 hybrid on atom 1 stashed in prospective list
      1 hybrid on atom 5 stashed in prospective list

 Stash prospective hybrids having projection expectation value > 0.300
       0.998 0.998 0.998 0.998 0.998 0.998 0.998 0.998
      0 hybrids eliminated in 1 pass
      8 hybrids moved from prospective to permanent list

 NHOs of 2-center eigenvectors projected from the NAO density matrix
       0.000 electrons remain in the fully projected matrix

 Search of NHO DM block for the following atom(s):   1
      Select eigenvectors with eigenvalue > 1.900
       2.000 2.000 2.000 2.000 2.000 0.000 0.000 0.000 0.000
      Eigenvector ( 1) has occupancy 2.00000
            1.0000 0.0000 0.0000 0.0000 0.0000 0.0000 0.0000 0.0000
            0.0000
           NBO accepted:    1. Label:CR ( 1)   1
      Eigenvector ( 2) has occupancy 2.00000
            0.0000 1.0000 0.0000 0.0000 0.0000 0.0000 0.0000 0.0000
            0.0000
           NBO accepted:    2. Label:CR ( 2)   1
      Eigenvector ( 3) has occupancy 2.00000
            0.0000 0.0000 1.0000 0.0000 0.0000 0.0000 0.0000 0.0000
            0.0000
           NBO accepted:    3. Label:CR ( 3)   1
      Eigenvector ( 4) has occupancy 2.00000
            0.0000 0.0000 0.0000 1.0000 0.0000 0.0000 0.0000 0.0000
            0.0000
           NBO accepted:    4. Label:CR ( 4)   1
      Eigenvector ( 5) has occupancy 2.00000
            0.0000 0.0000 0.0000 0.0000 1.0000 0.0000 0.0000 0.0000
            0.0000
           NBO accepted:    5. Label:CR ( 5)   1
        5 eigenvector(s) stashed in permanent list

  1-center NBOs projected from the NHO density matrix
       8.000 electrons remain (>1.900); search continues

 Search of NHO DM block for the following atom(s):   1   2
      Select eigenvectors with eigenvalue > 1.900
       2.000 0.000 0.000 0.000 0.000 0.000 0.000 0.000 0.000 0.000
      Eigenvector ( 1) has occupancy 1.99975
            0.0000 0.0000 0.0000 0.0000 0.0000 0.6385 0.0000 0.0000
            0.0000 0.7696
      Occupancy is 2.000 after deleting minor hybrid components
            0.0000 0.0000 0.0000 0.0000 0.0000 0.6385 0.0000 0.0000
            0.0000 0.7696
           NBO accepted:    6. Label:BD ( 1)   1   2
      Occupancy is 0.000 for antibonding component
            0.0000 0.0000 0.0000 0.0000 0.0000 0.7696 0.0000 0.0000
            0.0000-0.6385
           NBO accepted:    7. Label:BD*( 1)   1   2
        2 eigenvector(s) stashed in permanent list

 Search of NHO DM block for the following atom(s):   1   3
      Select eigenvectors with eigenvalue > 1.900
       2.000 0.000 0.000 0.000 0.000 0.000 0.000 0.000 0.000 0.000
      Eigenvector ( 1) has occupancy 1.99975
            0.0000 0.0000 0.0000 0.0000 0.0000 0.0000 0.6385 0.0000
            0.0000 0.7696
      Occupancy is 2.000 after deleting minor hybrid components
            0.0000 0.0000 0.0000 0.0000 0.0000 0.0000 0.6385 0.0000
            0.0000 0.7696
           NBO accepted:    8. Label:BD ( 1)   1   3
      Occupancy is 0.000 for antibonding component
            0.0000 0.0000 0.0000 0.0000 0.0000 0.0000 0.7696 0.0000
            0.0000-0.6385
           NBO accepted:    9. Label:BD*( 1)   1   3
        2 eigenvector(s) stashed in permanent list

 Search of NHO DM block for the following atom(s):   1   4
      Select eigenvectors with eigenvalue > 1.900
       2.000 0.000 0.000 0.000 0.000 0.000 0.000 0.000 0.000 0.000
      Eigenvector ( 1) has occupancy 1.99975
            0.0000 0.0000 0.0000 0.0000 0.0000 0.0000 0.0000 0.6385
            0.0000 0.7696
      Occupancy is 2.000 after deleting minor hybrid components
            0.0000 0.0000 0.0000 0.0000 0.0000 0.0000 0.0000 0.6385
            0.0000 0.7696
           NBO accepted:   10. Label:BD ( 1)   1   4
      Occupancy is 0.000 for antibonding component
            0.0000 0.0000 0.0000 0.0000 0.0000 0.0000 0.0000 0.7696
            0.0000-0.6385
           NBO accepted:   11. Label:BD*( 1)   1   4
        2 eigenvector(s) stashed in permanent list

 Search of NHO DM block for the following atom(s):   1   5
      Select eigenvectors with eigenvalue > 1.900
       2.000 0.000 0.000 0.000 0.000 0.000 0.000 0.000 0.000 0.000
      Eigenvector ( 1) has occupancy 1.99975
            0.0000 0.0000 0.0000 0.0000 0.0000 0.0000 0.0000 0.0000
            0.6385 0.7696
      Occupancy is 2.000 after deleting minor hybrid components
            0.0000 0.0000 0.0000 0.0000 0.0000 0.0000 0.0000 0.0000
            0.6385 0.7696
           NBO accepted:   12. Label:BD ( 1)   1   5
      Occupancy is 0.000 for antibonding component
            0.0000 0.0000 0.0000 0.0000 0.0000 0.0000 0.0000 0.0000
            0.7696-0.6385
           NBO accepted:   13. Label:BD*( 1)   1   5
        2 eigenvector(s) stashed in permanent list

  2-center NBOs projected from the NHO density matrix
       0.000 electrons remain in the fully projected matrix

                            Occupancies       Lewis Structure    Low   High
         Max    Occ     -------------------  -----------------   occ   occ
  Cycle  Ctr   Thresh    Lewis   non-Lewis     CR  BD  nC  LP    (L)   (NL)
 ============================================================================
    1     2     1.90    17.99900   0.00100      5   4   0   0     0      0
 ----------------------------------------------------------------------------

 Structure accepted: No low occupancy Lewis orbitals

 -------------------------------------------------------
   Core                     10.00000 (100.000% of  10)
   Valence Lewis             7.99900 ( 99.987% of   8)
  ==================      =============================
   Total Lewis              17.99900 ( 99.994% of  18)
  -----------------------------------------------------
   Valence non-Lewis         0.00100 (  0.006% of  18)
   Rydberg non-Lewis         0.00000 (  0.000% of  18)
  ==================      =============================
   Total non-Lewis           0.00100 (  0.006% of  18)
 -------------------------------------------------------


     (Occupancy)   Bond orbital / Coefficients / Hybrids
 ------------------ Lewis ------------------------------------------------------
   1. (2.00000) CR ( 1)Si  1            s(100.00%)
                                         1.0000  0.0000  0.0000  0.0000  0.0000
                                         0.0000  0.0000  0.0000  0.0000
   2. (2.00000) CR ( 2)Si  1            s(100.00%)
                                         0.0000  1.0000  0.0000  0.0000  0.0000
                                         0.0000  0.0000  0.0000  0.0000
   3. (2.00000) CR ( 3)Si  1            s(  0.00%)p 1.00(100.00%)
                                         0.0000  0.0000  0.0000  1.0000  0.0000
                                         0.0000  0.0000  0.0000  0.0000
   4. (2.00000) CR ( 4)Si  1            s(  0.00%)p 1.00(100.00%)
                                         0.0000  0.0000  0.0000  0.0000  0.0000
                                         1.0000  0.0000  0.0000  0.0000
   5. (2.00000) CR ( 5)Si  1            s(  0.00%)p 1.00(100.00%)
                                         0.0000  0.0000  0.0000  0.0000  0.0000
                                         0.0000  0.0000  1.0000  0.0000
   6. (1.99975) BD ( 1)Si  1- H  2
               ( 40.77%)   0.6385*Si  1 s( 25.00%)p 3.00( 75.00%)
                                         0.0000  0.0000  0.5000  0.0000  0.0000
                                         0.0000  0.8660  0.0000  0.0000
               ( 59.23%)   0.7696* H  2 s(100.00%)
                                         1.0000
   7. (1.99975) BD ( 1)Si  1- H  3
               ( 40.77%)   0.6385*Si  1 s( 25.00%)p 3.00( 75.00%)
                                         0.0000  0.0000  0.5000  0.0000 -0.8165
                                         0.0000 -0.2887  0.0000  0.0000
               ( 59.23%)   0.7696* H  3 s(100.00%)
                                         1.0000
   8. (1.99975) BD ( 1)Si  1- H  4
               ( 40.77%)   0.6385*Si  1 s( 25.00%)p 3.00( 75.00%)
                                         0.0000  0.0000  0.5000  0.0000  0.4082
                                         0.0000 -0.2887  0.0000  0.7071
               ( 59.23%)   0.7696* H  4 s(100.00%)
                                         1.0000
   9. (1.99975) BD ( 1)Si  1- H  5
               ( 40.77%)   0.6385*Si  1 s( 25.00%)p 3.00( 75.00%)
                                         0.0000  0.0000  0.5000  0.0000  0.4082
                                         0.0000 -0.2887  0.0000 -0.7071
               ( 59.23%)   0.7696* H  5 s(100.00%)
                                         1.0000
 ---------------- non-Lewis ----------------------------------------------------
  10. (0.00025) BD*( 1)Si  1- H  2
               ( 59.23%)   0.7696*Si  1 s( 25.00%)p 3.00( 75.00%)
                                         0.0000  0.0000 -0.5000  0.0000  0.0000
                                         0.0000 -0.8660  0.0000  0.0000
               ( 40.77%)  -0.6385* H  2 s(100.00%)
                                        -1.0000
  11. (0.00025) BD*( 1)Si  1- H  3
               ( 59.23%)   0.7696*Si  1 s( 25.00%)p 3.00( 75.00%)
                                         0.0000  0.0000 -0.5000  0.0000  0.8165
                                         0.0000  0.2887  0.0000  0.0000
               ( 40.77%)  -0.6385* H  3 s(100.00%)
                                        -1.0000
  12. (0.00025) BD*( 1)Si  1- H  4
               ( 59.23%)   0.7696*Si  1 s( 25.00%)p 3.00( 75.00%)
                                         0.0000  0.0000 -0.5000  0.0000 -0.4082
                                         0.0000  0.2887  0.0000 -0.7071
               ( 40.77%)  -0.6385* H  4 s(100.00%)
                                        -1.0000
  13. (0.00025) BD*( 1)Si  1- H  5
               ( 59.23%)   0.7696*Si  1 s( 25.00%)p 3.00( 75.00%)
                                         0.0000  0.0000 -0.5000  0.0000 -0.4082
                                         0.0000  0.2887  0.0000  0.7071
               ( 40.77%)  -0.6385* H  5 s(100.00%)
                                        -1.0000


 NHO DIRECTIONALITY AND BOND BENDING (deviation from line of nuclear centers at
                                      the position of maximum hybrid amplitude)

         [Thresholds for printing:  angular deviation  >  1.0 degree]
                                    p- or d-character  > 25.0%
                                    orbital occupancy  >  0.10e

                        Line of Centers        Hybrid 1             Hybrid 2
                        ---------------  -------------------  ------------------
           NBO            Theta   Phi    Theta   Phi    Dev   Theta   Phi    Dev
 ===============================================================================
   6. BD ( 1)Si  1- H  2   90.0   90.0    90.0   49.2  40.8     --     --    --
   7. BD ( 1)Si  1- H  3   90.0  199.5   124.5  176.1  40.8     --     --    --
   8. BD ( 1)Si  1- H  4   35.3  324.7     5.5  144.7  40.8     --     --    --
   9. BD ( 1)Si  1- H  5  144.7  324.7   174.5  144.7  40.8     --     --    --


 SECOND ORDER PERTURBATION THEORY ANALYSIS OF FOCK MATRIX IN NBO BASIS

     Threshold for printing:   0.50 kcal/mol
                                                          E(2) E(NL)-E(L) F(L,NL)
      Donor (L) NBO              Acceptor (NL) NBO      kcal/mol   a.u.    a.u.
 ===============================================================================

 within unit  1
       None above threshold


 NATURAL BOND ORBITALS (Summary):

                                                     Principal Delocalizations
           NBO                 Occupancy    Energy   (geminal,vicinal,remote)
 ===============================================================================
 Molecular unit  1  (H4Si)
 ------ Lewis --------------------------------------
    1. CR ( 1)Si  1             2.00000   -66.51588
    2. CR ( 2)Si  1             2.00000    -7.32584
    3. CR ( 3)Si  1             2.00000    -3.97738
    4. CR ( 4)Si  1             2.00000    -3.97738
    5. CR ( 5)Si  1             2.00000    -3.97738
    6. BD ( 1)Si  1- H  2       1.99975    -0.59809
    7. BD ( 1)Si  1- H  3       1.99975    -0.59808
    8. BD ( 1)Si  1- H  4       1.99975    -0.59809
    9. BD ( 1)Si  1- H  5       1.99975    -0.59809
 ------ non-Lewis ----------------------------------
   10. BD*( 1)Si  1- H  2       0.00025     0.81713
   11. BD*( 1)Si  1- H  3       0.00025     0.81713
   12. BD*( 1)Si  1- H  4       0.00025     0.81713
   13. BD*( 1)Si  1- H  5       0.00025     0.81713
          -------------------------------
                 Total Lewis   17.99900  ( 99.9944%)
           Valence non-Lewis    0.00100  (  0.0056%)
           Rydberg non-Lewis    0.00000  (  0.0000%)
          -------------------------------
               Total unit  1   18.00000  (100.0000%)
              Charge unit  1    0.00000

 $CHOOSE
   BOND S 1 2 S 1 3 S 1 4 S 1 5 END
 $END

 NBO analysis completed in 0.15 CPU seconds (1 wall second)
 Maximum scratch memory used by NBO was 262570 words (2.00 MB)
 Maximum scratch memory used by G16NBO was 8427 words (0.06 MB)

 Opening RunExU unformatted file "/cluster/work/users/beto93/SiH4/Gau-3586821.EUF"
 Read unf file /cluster/work/users/beto93/SiH4/Gau-3586821.EUF:
 Label Gaussian matrix elements                                         IVers= 2 NLab= 2 Version=ES64L-G16RevC.01
 Title NBO-SiH4                                                        
 NAtoms=     5 NBasis=    13 NBsUse=    13 ICharg=     0 Multip=     1 NE=    18 Len12L=8 Len4L=8 IOpCl= 0 ICGU=111
 GAUSSIAN SCALARS                    NI= 1 NR= 1 NTot=       1 LenBuf=    2 NRI=1 N=    1000
 NPA CHARGES                         NI= 0 NR= 1 NTot=       5 LenBuf= 4000 NRI=1 N=       5
 Recovered energy= -287.466452787     dipole=      0.000002749448      0.000000756098      0.000000000000
 Calling FoFJK, ICntrl=      2127 FMM=F ISym2X=1 I1Cent= 0 IOpClX= 0 NMat=1 NMatS=1 NMatT=0.
 ***** Axes restored to original set *****
 -------------------------------------------------------------------
 Center     Atomic                   Forces (Hartrees/Bohr)
 Number     Number              X              Y              Z
 -------------------------------------------------------------------
      1       14          -0.000000346   -0.000000000    0.000000803
      2        1          -0.000000547    0.000000000    0.430558708
      3        1           0.405935104   -0.000000000   -0.143518350
      4        1          -0.202967106    0.351550387   -0.143520581
      5        1          -0.202967106   -0.351550387   -0.143520581
 -------------------------------------------------------------------
 Cartesian Forces:  Max     0.430558708 RMS     0.222339767

 GradGradGradGradGradGradGradGradGradGradGradGradGradGradGradGradGradGrad
 Berny optimization.
 FormGI is forming the generalized inverse of G from B-inverse, IUseBI=4.
 Internal  Forces:  Max     0.430559494 RMS     0.230143524
 Search for a local minimum.
 Step number   1 out of a maximum of   24
 All quantities printed in internal units (Hartrees-Bohrs-Radians)
 Mixed Optimization -- RFO/linear search
 Second derivative matrix not updated -- first step.
 The second derivative matrix:
                          R1        R2        R3        R4        A1
           R1           0.68630
           R2           0.00000   0.68630
           R3           0.00000   0.00000   0.68630
           R4           0.00000   0.00000   0.00000   0.68630
           A1           0.00000   0.00000   0.00000   0.00000   0.16000
           A2           0.00000   0.00000   0.00000   0.00000   0.00000
           A3           0.00000   0.00000   0.00000   0.00000   0.00000
           A4           0.00000   0.00000   0.00000   0.00000   0.00000
           A5           0.00000   0.00000   0.00000   0.00000   0.00000
           A6           0.00000   0.00000   0.00000   0.00000   0.00000
           D1           0.00000   0.00000   0.00000   0.00000   0.00000
           D2           0.00000   0.00000   0.00000   0.00000   0.00000
           D3           0.00000   0.00000   0.00000   0.00000   0.00000
           D4           0.00000   0.00000   0.00000   0.00000   0.00000
                          A2        A3        A4        A5        A6
           A2           0.16000
           A3           0.00000   0.16000
           A4           0.00000   0.00000   0.16000
           A5           0.00000   0.00000   0.00000   0.16000
           A6           0.00000   0.00000   0.00000   0.00000   0.16000
           D1           0.00000   0.00000   0.00000   0.00000   0.00000
           D2           0.00000   0.00000   0.00000   0.00000   0.00000
           D3           0.00000   0.00000   0.00000   0.00000   0.00000
           D4           0.00000   0.00000   0.00000   0.00000   0.00000
                          D1        D2        D3        D4
           D1           0.05792
           D2           0.00000   0.05792
           D3           0.00000   0.00000   0.05792
           D4           0.00000   0.00000   0.00000   0.05792
 ITU=  0
     Eigenvalues ---    0.08933   0.09343   0.11236   0.16000   0.16000
     Eigenvalues ---    0.68630   0.68630   0.68630   0.68630
 RFO step:  Lambda=-5.83822952D-01 EMin= 8.93319743D-02
 Linear search not attempted -- first point.
 Maximum step size (   0.300) exceeded in Quadratic search.
    -- Step size scaled by   0.442
 Iteration  1 RMS(Cart)=  0.08017837 RMS(Int)=  0.00000001
 Iteration  2 RMS(Cart)=  0.00000001 RMS(Int)=  0.00000000
 ClnCor:  largest displacement from symmetrization is 8.05D-08 for atom     5.
 Variable       Old X    -DE/DX   Delta X   Delta X   Delta X     New X
                                 (Linear)    (Quad)   (Total)
    R1        2.02201   0.43056   0.00000   0.15000   0.15000   2.17201
    R2        2.02201   0.43056   0.00000   0.15000   0.15000   2.17201
    R3        2.02201   0.43056   0.00000   0.15000   0.15000   2.17201
    R4        2.02201   0.43056   0.00000   0.15000   0.15000   2.17201
    A1        1.91063   0.00000   0.00000   0.00000   0.00000   1.91063
    A2        1.91064  -0.00000   0.00000  -0.00000  -0.00000   1.91064
    A3        1.91064  -0.00000   0.00000  -0.00000  -0.00000   1.91064
    A4        1.91063  -0.00000   0.00000  -0.00000  -0.00000   1.91063
    A5        1.91063   0.00000   0.00000   0.00000  -0.00000   1.91063
    A6        1.91063   0.00000   0.00000   0.00000   0.00000   1.91063
    D1        2.09439   0.00000   0.00000   0.00000   0.00000   2.09439
    D2       -2.09439  -0.00000   0.00000  -0.00000  -0.00000  -2.09439
    D3        2.09440  -0.00000   0.00000  -0.00000  -0.00000   2.09440
    D4       -2.09439  -0.00000   0.00000  -0.00000  -0.00000  -2.09439
         Item               Value     Threshold  Converged?
 Maximum Force            0.430559     0.000002     NO 
 RMS     Force            0.230144     0.000001     NO 
 Maximum Displacement     0.150000     0.000006     NO 
 RMS     Displacement     0.080178     0.000004     NO 
 Predicted change in Energy=-2.274522D-01
 GradGradGradGradGradGradGradGradGradGradGradGradGradGradGradGradGradGrad

                          Input orientation:                          
 ---------------------------------------------------------------------
 Center     Atomic      Atomic             Coordinates (Angstroms)
 Number     Number       Type             X           Y           Z
 ---------------------------------------------------------------------
      1         14           0       -0.000000    0.000000    0.000000
      2          1           0       -0.000000    0.000000    1.149377
      3          1           0        1.083644   -0.000000   -0.383122
      4          1           0       -0.541819    0.938462   -0.383128
      5          1           0       -0.541819   -0.938462   -0.383128
 ---------------------------------------------------------------------
                    Distance matrix (angstroms):
                    1          2          3          4          5
     1  Si   0.000000
     2  H    1.149377   0.000000
     3  H    1.149377   1.876922   0.000000
     4  H    1.149376   1.876925   1.876923   0.000000
     5  H    1.149376   1.876925   1.876923   1.876924   0.000000
 Stoichiometry    H4Si
 Framework group  CS[SG(H2Si),X(H2)]
 Deg. of freedom     6
 Full point group                 CS      NOp   2
 Largest Abelian subgroup         CS      NOp   2
 Largest concise Abelian subgroup CS      NOp   2
                         Standard orientation:                         
 ---------------------------------------------------------------------
 Center     Atomic      Atomic             Coordinates (Angstroms)
 Number     Number       Type             X           Y           Z
 ---------------------------------------------------------------------
      1         14           0        0.000000    0.000000    0.000000
      2          1           0       -1.125741    0.231893    0.000000
      3          1           0        0.156613   -1.138656   -0.000000
      4          1           0        0.484564    0.453380    0.938462
      5          1           0        0.484564    0.453380   -0.938462
 ---------------------------------------------------------------------
 Rotational constants (GHZ):         142.3440735         142.3438495         142.3436858
 Standard basis: STO-3G (5D, 7F)
 There are    10 symmetry adapted cartesian basis functions of A'  symmetry.
 There are     3 symmetry adapted cartesian basis functions of A"  symmetry.
 There are    10 symmetry adapted basis functions of A'  symmetry.
 There are     3 symmetry adapted basis functions of A"  symmetry.
    13 basis functions,    39 primitive gaussians,    13 cartesian basis functions
     9 alpha electrons        9 beta electrons
       nuclear repulsion energy        27.4742415520 Hartrees.
 NAtoms=    5 NActive=    5 NUniq=    4 SFac= 1.56D+00 NAtFMM=   60 NAOKFM=F Big=F
 Integral buffers will be    131072 words long.
 Raffenetti 1 integral format.
 Two-electron integral symmetry is turned on.
 One-electron integrals computed using PRISM.
 NBasis=    13 RedAO= T EigKep=  1.27D-01  NBF=    10     3
 NBsUse=    13 1.00D-06 EigRej= -1.00D+00 NBFU=    10     3
 Initial guess from the checkpoint file:  "CH4.chk"
 B after Tr=    -0.000000    0.000000    0.000000
         Rot=    0.775163    0.000000    0.000000   -0.631761 Ang= -78.36 deg.
 Initial guess orbital symmetries:
       Occupied  (A') (A') (A') (A") (A') (A') (A') (A") (A')
       Virtual   (A') (A") (A') (A')
 ExpMin= 1.61D-01 ExpMax= 4.08D+02 ExpMxC= 4.08D+02 IAcc=3 IRadAn=         5 AccDes= 0.00D+00
 Harris functional with IExCor=  205 and IRadAn=       5 diagonalized for initial guess.
 HarFok:  IExCor=  205 AccDes= 0.00D+00 IRadAn=         5 IDoV= 1 UseB2=F ITyADJ=14
 ICtDFT=  3500011 ScaDFX=  1.000000  1.000000  1.000000  1.000000
 FoFCou: FMM=F IPFlag=           0 FMFlag=      100000 FMFlg1=           0
         NFxFlg=           0 DoJE=T BraDBF=F KetDBF=T FulRan=T
         wScrn=  0.000000 ICntrl=       500 IOpCl=  0 I1Cent=   200000004 NGrid=           0
         NMat0=    1 NMatS0=      1 NMatT0=    0 NMatD0=    1 NMtDS0=    0 NMtDT0=    0
 Petite list used in FoFCou.
 Keep R1 ints in memory in symmetry-blocked form, NReq=809878.
 Requested convergence on RMS density matrix=1.00D-08 within 128 cycles.
 Requested convergence on MAX density matrix=1.00D-06.
 Requested convergence on             energy=1.00D-06.
 No special actions if energy rises.
 SCF Done:  E(RHF) =  -287.677366690     A.U. after    7 cycles
            NFock=  7  Conv=0.44D-10     -V/T= 2.0083
 Calling FoFJK, ICntrl=      2127 FMM=F ISym2X=1 I1Cent= 0 IOpClX= 0 NMat=1 NMatS=1 NMatT=0.
 ***** Axes restored to original set *****
 -------------------------------------------------------------------
 Center     Atomic                   Forces (Hartrees/Bohr)
 Number     Number              X              Y              Z
 -------------------------------------------------------------------
      1       14          -0.000000042   -0.000000000    0.000000413
      2        1          -0.000000506    0.000000000    0.279843406
      3        1           0.263839158   -0.000000000   -0.093280401
      4        1          -0.131919305    0.228491584   -0.093281709
      5        1          -0.131919305   -0.228491584   -0.093281709
 -------------------------------------------------------------------
 Cartesian Forces:  Max     0.279843406 RMS     0.144510631

 GradGradGradGradGradGradGradGradGradGradGradGradGradGradGradGradGradGrad
 Berny optimization.
 Using GEDIIS/GDIIS optimizer.
 FormGI is forming the generalized inverse of G from B-inverse, IUseBI=4.
 Internal  Forces:  Max     0.279843857 RMS     0.149582714
 Search for a local minimum.
 Step number   2 out of a maximum of   24
 All quantities printed in internal units (Hartrees-Bohrs-Radians)
 Mixed Optimization -- RFO/linear search
 Update second derivatives using D2CorX and points    1    2
 DE= -2.11D-01 DEPred=-2.27D-01 R= 9.27D-01
 TightC=F SS=  1.41D+00  RLast= 3.00D-01 DXNew= 5.0454D-01 9.0000D-01
 Trust test= 9.27D-01 RLast= 3.00D-01 DXMaxT set to 5.05D-01
 The second derivative matrix:
                          R1        R2        R3        R4        A1
           R1           0.76591
           R2           0.07962   0.76591
           R3           0.07962   0.07962   0.76592
           R4           0.07962   0.07962   0.07962   0.76592
           A1          -0.00000  -0.00000  -0.00000  -0.00000   0.16000
           A2           0.00000   0.00000   0.00000   0.00000   0.00000
           A3          -0.00000  -0.00000  -0.00000  -0.00000   0.00000
           A4          -0.00000  -0.00000  -0.00000  -0.00000  -0.00000
           A5          -0.00000  -0.00000  -0.00000  -0.00000  -0.00000
           A6           0.00000   0.00000   0.00000   0.00000   0.00000
           D1           0.00000   0.00000   0.00000   0.00000  -0.00000
           D2          -0.00000  -0.00000  -0.00000  -0.00000   0.00000
           D3          -0.00000  -0.00000  -0.00000  -0.00000   0.00000
           D4          -0.00000  -0.00000  -0.00000  -0.00000  -0.00000
                          A2        A3        A4        A5        A6
           A2           0.16000
           A3          -0.00000   0.16000
           A4           0.00000   0.00000   0.16000
           A5           0.00000   0.00000   0.00000   0.16000
           A6          -0.00000  -0.00000  -0.00000  -0.00000   0.16000
           D1          -0.00000  -0.00000  -0.00000  -0.00000   0.00000
           D2          -0.00000   0.00000   0.00000   0.00000  -0.00000
           D3          -0.00000   0.00000   0.00000   0.00000  -0.00000
           D4           0.00000   0.00000   0.00000   0.00000  -0.00000
                          D1        D2        D3        D4
           D1           0.05792
           D2          -0.00000   0.05792
           D3          -0.00000   0.00000   0.05792
           D4          -0.00000   0.00000   0.00000   0.05792
 ITU=  1  0
 Use linear search instead of GDIIS.
 Linear search step of   0.600 exceeds DXMaxT=   0.505 but not scaled.
 Quartic linear search produced a step of  2.00000.
 Iteration  1 RMS(Cart)=  0.10690450 RMS(Int)=  0.05345225
 Iteration  2 RMS(Cart)=  0.05345225 RMS(Int)=  0.00000000
 Iteration  3 RMS(Cart)=  0.00000000 RMS(Int)=  0.00000000
 ClnCor:  largest displacement from symmetrization is 9.13D-15 for atom     5.
 Variable       Old X    -DE/DX   Delta X   Delta X   Delta X     New X
                                 (Linear)    (Quad)   (Total)
    R1        2.17201   0.27984   0.30000   0.00000   0.30000   2.47201
    R2        2.17201   0.27984   0.30000   0.00000   0.30000   2.47201
    R3        2.17201   0.27984   0.30000   0.00000   0.30000   2.47201
[...]


 NAO density matrix:

           NAO         1       2       3       4       5       6       7       8
      ------------ ------- ------- ------- ------- ------- ------- ------- -------
   1. Si 1( 2s )    2.0000  0.0000  0.0000  0.0000  0.0000  0.0000  0.0000  0.0000
   2. Si 1( 1s )    0.0000  2.0000  0.0000  0.0000  0.0000  0.0000  0.0000  0.0000
   3. Si 1( 3s )    0.0000  0.0000  1.0852  0.0000  0.0000  0.0000  0.0000  0.0000
   4. Si 1( 2px)    0.0000  0.0000  0.0000  2.0000  0.0000  0.0000  0.0000  0.0000
   5. Si 1( 3px)    0.0000  0.0000  0.0000  0.0000  0.7314  0.0000  0.0000  0.0000
   6. Si 1( 2py)    0.0000  0.0000  0.0000  0.0000  0.0000  2.0000  0.0000  0.0000
   7. Si 1( 3py)    0.0000  0.0000  0.0000  0.0000  0.0000  0.0000  0.7314  0.0000
   8. Si 1( 2pz)    0.0000  0.0000  0.0000  0.0000  0.0000  0.0000  0.0000  2.0000
   9. Si 1( 3pz)    0.0000  0.0000  0.0000  0.0000  0.0000  0.0000  0.0000  0.0000
  10.  H 2( 1s )    0.0000  0.0000  0.4982  0.0000 -0.6358  0.0000  0.0000  0.0000
  11.  H 3( 1s )    0.0000  0.0000  0.4982  0.0000 -0.2972  0.0000  0.0000  0.0000
  12.  H 4( 1s )    0.0000  0.0000  0.4982  0.0000  0.4665  0.0000  0.6811  0.0000
  13.  H 5( 1s )    0.0000  0.0000  0.4982  0.0000  0.4665  0.0000 -0.6811  0.0000

           NAO         9      10      11      12      13
      ------------ ------- ------- ------- ------- -------
   1. Si 1( 2s )    0.0000  0.0000  0.0000  0.0000  0.0000
   2. Si 1( 1s )    0.0000  0.0000  0.0000  0.0000  0.0000
   3. Si 1( 3s )    0.0000  0.4982  0.4982  0.4982  0.4982
   4. Si 1( 2px)    0.0000  0.0000  0.0000  0.0000  0.0000
   5. Si 1( 3px)    0.0000 -0.6358 -0.2972  0.4665  0.4665
   6. Si 1( 2py)    0.0000  0.0000  0.0000  0.0000  0.0000
   7. Si 1( 3py)    0.0000  0.0000  0.0000  0.6811 -0.6811
   8. Si 1( 2pz)    0.0000  0.0000  0.0000  0.0000  0.0000
   9. Si 1( 3pz)    0.7314 -0.5400  0.7795 -0.1197 -0.1197
  10.  H 2( 1s )   -0.5400  1.1802 -0.0885 -0.0885 -0.0885
  11.  H 3( 1s )    0.7795 -0.0885  1.1802 -0.0885 -0.0885
  12.  H 4( 1s )   -0.1197 -0.0885 -0.0885  1.1802 -0.0885
  13.  H 5( 1s )   -0.1197 -0.0885 -0.0885 -0.0885  1.1802


 NATURAL BOND ORBITAL ANALYSIS:

 Initiate 2-center NBO search using THRESH = 1.900 and PRJTHR = 0.300

 Search of NAO DM block for core orbitals on atom:   1
      Eigenvector ( 1) has occupancy 2.00000
            1.0000 0.0000 0.0000 0.0000 0.0000 0.0000 0.0000 0.0000
            0.0000
      Eigenvector ( 2) has occupancy 2.00000
            0.0000 1.0000 0.0000 0.0000 0.0000 0.0000 0.0000 0.0000
            0.0000
      Eigenvector ( 3) has occupancy 2.00000
            0.0000 0.0000 0.0000 1.0000 0.0000 0.0000 0.0000 0.0000
            0.0000
      Eigenvector ( 4) has occupancy 2.00000
            0.0000 0.0000 0.0000 0.0000 0.0000 1.0000 0.0000 0.0000
            0.0000
      Eigenvector ( 5) has occupancy 2.00000
            0.0000 0.0000 0.0000 0.0000 0.0000 0.0000 0.0000 1.0000
            0.0000
        5 eigenvector(s) stashed in permanent list

 Core orbitals projected from the NAO density matrix
       8.000 electrons remain (>1.900); search continues

 Search of NAO DM block for the following atom(s):   1
      Select eigenvectors with eigenvalue > 1.900
       1.085 0.731 0.731 0.731 0.000 0.000 0.000 0.000 0.000

 No NHOs identified in the 1-center search of the NAO density matrix
       8.000 electrons remain (>1.900); search continues

 Search of NAO DM block for the following atom(s):   1   2
      Select eigenvectors with eigenvalue > 1.900
       2.000 0.997 0.731 0.731 0.000 0.000 0.000 0.000 0.000 0.000
      Eigenvector ( 1) has occupancy 2.00000
            0.0000 0.0000 0.4142 0.0000-0.3812 0.0000 0.0000 0.0000
           -0.3237 0.7605
      1 hybrid on atom 1 stashed in prospective list
      1 hybrid on atom 2 stashed in prospective list

 Search of NAO DM block for the following atom(s):   1   3
      Select eigenvectors with eigenvalue > 1.900
       2.000 0.997 0.731 0.731 0.000 0.000 0.000 0.000 0.000 0.000
      Eigenvector ( 1) has occupancy 2.00000
            0.0000 0.0000 0.4142 0.0000-0.1782 0.0000 0.0000 0.0000
            0.4673 0.7605
      1 hybrid on atom 1 stashed in prospective list
      1 hybrid on atom 3 stashed in prospective list

 Search of NAO DM block for the following atom(s):   1   4
      Select eigenvectors with eigenvalue > 1.900
       2.000 0.997 0.731 0.731 0.000 0.000 0.000 0.000 0.000 0.000
      Eigenvector ( 1) has occupancy 2.00000
            0.0000 0.0000 0.4142 0.0000 0.2797 0.0000 0.4083 0.0000
           -0.0718 0.7605
      1 hybrid on atom 1 stashed in prospective list
      1 hybrid on atom 4 stashed in prospective list

 Search of NAO DM block for the following atom(s):   1   5
      Select eigenvectors with eigenvalue > 1.900
       2.000 0.997 0.731 0.731 0.000 0.000 0.000 0.000 0.000 0.000
      Eigenvector ( 1) has occupancy 2.00000
            0.0000 0.0000 0.4142 0.0000 0.2797 0.0000-0.4083 0.0000
           -0.0718 0.7605
      1 hybrid on atom 1 stashed in prospective list
      1 hybrid on atom 5 stashed in prospective list

 Stash prospective hybrids having projection expectation value > 0.300
       0.907 0.907 0.907 0.907 0.907 0.907 0.907 0.907
      0 hybrids eliminated in 1 pass
      8 hybrids moved from prospective to permanent list

 NHOs of 2-center eigenvectors projected from the NAO density matrix
       0.000 electrons remain in the fully projected matrix

 Search of NHO DM block for the following atom(s):   1
      Select eigenvectors with eigenvalue > 1.900
       2.000 2.000 2.000 2.000 2.000 0.000 0.000 0.000 0.000
      Eigenvector ( 1) has occupancy 2.00000
            1.0000 0.0000 0.0000 0.0000 0.0000 0.0000 0.0000 0.0000
            0.0000
           NBO accepted:    1. Label:CR ( 1)   1
      Eigenvector ( 2) has occupancy 2.00000
            0.0000 1.0000 0.0000 0.0000 0.0000 0.0000 0.0000 0.0000
            0.0000
           NBO accepted:    2. Label:CR ( 2)   1
      Eigenvector ( 3) has occupancy 2.00000
            0.0000 0.0000 1.0000 0.0000 0.0000 0.0000 0.0000 0.0000
            0.0000
           NBO accepted:    3. Label:CR ( 3)   1
      Eigenvector ( 4) has occupancy 2.00000
            0.0000 0.0000 0.0000 1.0000 0.0000 0.0000 0.0000 0.0000
            0.0000
           NBO accepted:    4. Label:CR ( 4)   1
      Eigenvector ( 5) has occupancy 2.00000
            0.0000 0.0000 0.0000 0.0000 1.0000 0.0000 0.0000 0.0000
            0.0000
           NBO accepted:    5. Label:CR ( 5)   1
        5 eigenvector(s) stashed in permanent list

  1-center NBOs projected from the NHO density matrix
       8.000 electrons remain (>1.900); search continues

 Search of NHO DM block for the following atom(s):   1   2
      Select eigenvectors with eigenvalue > 1.900
       1.988 0.012 0.000 0.000 0.000 0.000 0.000 0.000 0.000 0.000
      Eigenvector ( 1) has occupancy 1.98809
            0.0000 0.0000 0.0000 0.0000 0.0000 0.6394 0.0000 0.0000
            0.0000 0.7689
      Occupancy is 1.988 after deleting minor hybrid components
            0.0000 0.0000 0.0000 0.0000 0.0000 0.6394 0.0000 0.0000
            0.0000 0.7689
           NBO accepted:    6. Label:BD ( 1)   1   2
      Occupancy is 0.012 for antibonding component
            0.0000 0.0000 0.0000 0.0000 0.0000 0.7689 0.0000 0.0000
            0.0000-0.6394
           NBO accepted:    7. Label:BD*( 1)   1   2
        2 eigenvector(s) stashed in permanent list

 Search of NHO DM block for the following atom(s):   1   3
      Select eigenvectors with eigenvalue > 1.900
       1.988 0.012 0.000 0.000 0.000 0.000 0.000 0.000 0.000 0.000
      Eigenvector ( 1) has occupancy 1.98809
            0.0000 0.0000 0.0000 0.0000 0.0000 0.0000 0.6394 0.0000
            0.0000 0.7689
      Occupancy is 1.988 after deleting minor hybrid components
            0.0000 0.0000 0.0000 0.0000 0.0000 0.0000 0.6394 0.0000
            0.0000 0.7689
           NBO accepted:    8. Label:BD ( 1)   1   3
      Occupancy is 0.012 for antibonding component
            0.0000 0.0000 0.0000 0.0000 0.0000 0.0000 0.7689 0.0000
            0.0000-0.6394
           NBO accepted:    9. Label:BD*( 1)   1   3
        2 eigenvector(s) stashed in permanent list

 Search of NHO DM block for the following atom(s):   1   4
      Select eigenvectors with eigenvalue > 1.900
       1.988 0.012 0.000 0.000 0.000 0.000 0.000 0.000 0.000 0.000
      Eigenvector ( 1) has occupancy 1.98809
            0.0000 0.0000 0.0000 0.0000 0.0000 0.0000 0.0000 0.6394
            0.0000 0.7689
      Occupancy is 1.988 after deleting minor hybrid components
            0.0000 0.0000 0.0000 0.0000 0.0000 0.0000 0.0000 0.6394
            0.0000 0.7689
           NBO accepted:   10. Label:BD ( 1)   1   4
      Occupancy is 0.012 for antibonding component
            0.0000 0.0000 0.0000 0.0000 0.0000 0.0000 0.0000 0.7689
            0.0000-0.6394
           NBO accepted:   11. Label:BD*( 1)   1   4
        2 eigenvector(s) stashed in permanent list

 Search of NHO DM block for the following atom(s):   1   5
      Select eigenvectors with eigenvalue > 1.900
       1.988 0.012 0.000 0.000 0.000 0.000 0.000 0.000 0.000 0.000
      Eigenvector ( 1) has occupancy 1.98809
            0.0000 0.0000 0.0000 0.0000 0.0000 0.0000 0.0000 0.0000
            0.6394 0.7689
      Occupancy is 1.988 after deleting minor hybrid components
            0.0000 0.0000 0.0000 0.0000 0.0000 0.0000 0.0000 0.0000
            0.6394 0.7689
           NBO accepted:   12. Label:BD ( 1)   1   5
      Occupancy is 0.012 for antibonding component
            0.0000 0.0000 0.0000 0.0000 0.0000 0.0000 0.0000 0.0000
            0.7689-0.6394
           NBO accepted:   13. Label:BD*( 1)   1   5
        2 eigenvector(s) stashed in permanent list

  2-center NBOs projected from the NHO density matrix
       0.000 electrons remain in the fully projected matrix

                            Occupancies       Lewis Structure    Low   High
         Max    Occ     -------------------  -----------------   occ   occ
  Cycle  Ctr   Thresh    Lewis   non-Lewis     CR  BD  nC  LP    (L)   (NL)
 ============================================================================
    1     2     1.90    17.95235   0.04765      5   4   0   0     0      0
 ----------------------------------------------------------------------------

 Structure accepted: No low occupancy Lewis orbitals

 -------------------------------------------------------
   Core                     10.00000 (100.000% of  10)
   Valence Lewis             7.95235 ( 99.404% of   8)
  ==================      =============================
   Total Lewis              17.95235 ( 99.735% of  18)
  -----------------------------------------------------
   Valence non-Lewis         0.04765 (  0.265% of  18)
   Rydberg non-Lewis         0.00000 (  0.000% of  18)
  ==================      =============================
   Total non-Lewis           0.04765 (  0.265% of  18)
 -------------------------------------------------------


     (Occupancy)   Bond orbital / Coefficients / Hybrids
 ------------------ Lewis ------------------------------------------------------
   1. (2.00000) CR ( 1)Si  1            s(100.00%)
                                         1.0000  0.0000  0.0000  0.0000  0.0000
                                         0.0000  0.0000  0.0000  0.0000
   2. (2.00000) CR ( 2)Si  1            s(100.00%)
                                         0.0000  1.0000  0.0000  0.0000  0.0000
                                         0.0000  0.0000  0.0000  0.0000
   3. (2.00000) CR ( 3)Si  1            s(  0.00%)p 1.00(100.00%)
                                         0.0000  0.0000  0.0000  1.0000  0.0000
                                         0.0000  0.0000  0.0000  0.0000
   4. (2.00000) CR ( 4)Si  1            s(  0.00%)p 1.00(100.00%)
                                         0.0000  0.0000  0.0000  0.0000  0.0000
                                         1.0000  0.0000  0.0000  0.0000
   5. (2.00000) CR ( 5)Si  1            s(  0.00%)p 1.00(100.00%)
                                         0.0000  0.0000  0.0000  0.0000  0.0000
                                         0.0000  0.0000  1.0000  0.0000
   6. (1.98809) BD ( 1)Si  1- H  2
               ( 40.88%)   0.6394*Si  1 s( 25.00%)p 3.00( 75.00%)
                                         0.0000  0.0000  0.5000  0.0000 -0.6601
                                         0.0000  0.0000  0.0000 -0.5606
               ( 59.12%)   0.7689* H  2 s(100.00%)
                                         1.0000
   7. (1.98809) BD ( 1)Si  1- H  3
               ( 40.88%)   0.6394*Si  1 s( 25.00%)p 3.00( 75.00%)
                                         0.0000  0.0000  0.5000  0.0000 -0.3085
                                         0.0000  0.0000  0.0000  0.8092
               ( 59.12%)   0.7689* H  3 s(100.00%)
                                         1.0000
   8. (1.98809) BD ( 1)Si  1- H  4
               ( 40.88%)   0.6394*Si  1 s( 25.00%)p 3.00( 75.00%)
                                         0.0000  0.0000  0.5000  0.0000  0.4843
                                         0.0000  0.7071  0.0000 -0.1243
               ( 59.12%)   0.7689* H  4 s(100.00%)
                                         1.0000
   9. (1.98809) BD ( 1)Si  1- H  5
               ( 40.88%)   0.6394*Si  1 s( 25.00%)p 3.00( 75.00%)
                                         0.0000  0.0000  0.5000  0.0000  0.4843
                                         0.0000 -0.7071  0.0000 -0.1243
               ( 59.12%)   0.7689* H  5 s(100.00%)
                                         1.0000
 ---------------- non-Lewis ----------------------------------------------------
  10. (0.01191) BD*( 1)Si  1- H  2
               ( 59.12%)   0.7689*Si  1 s( 25.00%)p 3.00( 75.00%)
                                         0.0000  0.0000 -0.5000  0.0000  0.6601
                                         0.0000  0.0000  0.0000  0.5606
               ( 40.88%)  -0.6394* H  2 s(100.00%)
                                        -1.0000
  11. (0.01191) BD*( 1)Si  1- H  3
               ( 59.12%)   0.7689*Si  1 s( 25.00%)p 3.00( 75.00%)
                                         0.0000  0.0000 -0.5000  0.0000  0.3085
                                         0.0000  0.0000  0.0000 -0.8092
               ( 40.88%)  -0.6394* H  3 s(100.00%)
                                        -1.0000
  12. (0.01191) BD*( 1)Si  1- H  4
               ( 59.12%)   0.7689*Si  1 s( 25.00%)p 3.00( 75.00%)
                                         0.0000  0.0000 -0.5000  0.0000 -0.4843
                                         0.0000 -0.7071  0.0000  0.1243
               ( 40.88%)  -0.6394* H  4 s(100.00%)
                                        -1.0000
  13. (0.01191) BD*( 1)Si  1- H  5
               ( 59.12%)   0.7689*Si  1 s( 25.00%)p 3.00( 75.00%)
                                         0.0000  0.0000 -0.5000  0.0000 -0.4843
                                         0.0000  0.7071  0.0000  0.1243
               ( 40.88%)  -0.6394* H  5 s(100.00%)
                                        -1.0000


 SECOND ORDER PERTURBATION THEORY ANALYSIS OF FOCK MATRIX IN NBO BASIS

     Threshold for printing:   0.50 kcal/mol
                                                          E(2) E(NL)-E(L) F(L,NL)
      Donor (L) NBO              Acceptor (NL) NBO      kcal/mol   a.u.    a.u.
 ===============================================================================

 within unit  1
    6. BD ( 1)Si  1- H  2      11. BD*( 1)Si  1- H  3      3.46    1.08   0.054
    6. BD ( 1)Si  1- H  2      12. BD*( 1)Si  1- H  4      3.46    1.08   0.054
    6. BD ( 1)Si  1- H  2      13. BD*( 1)Si  1- H  5      3.46    1.08   0.054
    7. BD ( 1)Si  1- H  3      10. BD*( 1)Si  1- H  2      3.46    1.08   0.054
    7. BD ( 1)Si  1- H  3      12. BD*( 1)Si  1- H  4      3.46    1.08   0.054
    7. BD ( 1)Si  1- H  3      13. BD*( 1)Si  1- H  5      3.46    1.08   0.054
    8. BD ( 1)Si  1- H  4      10. BD*( 1)Si  1- H  2      3.46    1.08   0.054
    8. BD ( 1)Si  1- H  4      11. BD*( 1)Si  1- H  3      3.46    1.08   0.054
    8. BD ( 1)Si  1- H  4      13. BD*( 1)Si  1- H  5      3.46    1.08   0.054
    9. BD ( 1)Si  1- H  5      10. BD*( 1)Si  1- H  2      3.46    1.08   0.054
    9. BD ( 1)Si  1- H  5      11. BD*( 1)Si  1- H  3      3.46    1.08   0.054
    9. BD ( 1)Si  1- H  5      12. BD*( 1)Si  1- H  4      3.46    1.08   0.054


 NATURAL BOND ORBITALS (Summary):

                                                     Principal Delocalizations
           NBO                 Occupancy    Energy   (geminal,vicinal,remote)
 ===============================================================================
 Molecular unit  1  (H4Si)
 ------ Lewis --------------------------------------
    1. CR ( 1)Si  1             2.00000    -8.97278
    2. CR ( 2)Si  1             2.00000   -64.92814
    3. CR ( 3)Si  1             2.00000    -3.97216
    4. CR ( 4)Si  1             2.00000    -3.97216
    5. CR ( 5)Si  1             2.00000    -3.97216
    6. BD ( 1)Si  1- H  2       1.98809    -0.50157  11(g),12(g),13(g)
    7. BD ( 1)Si  1- H  3       1.98809    -0.50157  10(g),12(g),13(g)
    8. BD ( 1)Si  1- H  4       1.98809    -0.50157  10(g),11(g),13(g)
    9. BD ( 1)Si  1- H  5       1.98809    -0.50157  10(g),11(g),12(g)
 ------ non-Lewis ----------------------------------
   10. BD*( 1)Si  1- H  2       0.01191     0.57366
   11. BD*( 1)Si  1- H  3       0.01191     0.57366
   12. BD*( 1)Si  1- H  4       0.01191     0.57366
   13. BD*( 1)Si  1- H  5       0.01191     0.57366
          -------------------------------
                 Total Lewis   17.95235  ( 99.7353%)
           Valence non-Lewis    0.04765  (  0.2647%)
           Rydberg non-Lewis    0.00000  (  0.0000%)
          -------------------------------
               Total unit  1   18.00000  (100.0000%)
              Charge unit  1    0.00000

 $CHOOSE
   BOND S 1 2 S 1 3 S 1 4 S 1 5 END
 $END

 NBO analysis completed in 0.14 CPU seconds (1 wall second)
 Maximum scratch memory used by NBO was 262570 words (2.00 MB)
 Maximum scratch memory used by G16NBO was 8427 words (0.06 MB)

 Opening RunExU unformatted file "/cluster/work/users/beto93/SiH4/Gau-3586821.EUF"
 Read unf file /cluster/work/users/beto93/SiH4/Gau-3586821.EUF:
 Label Gaussian matrix elements                                         IVers= 2 NLab= 2 Version=ES64L-G16RevC.01
 Title NBO-SiH4                                                        
 NAtoms=     5 NBasis=    13 NBsUse=    13 ICharg=     0 Multip=     1 NE=    18 Len12L=8 Len4L=8 IOpCl= 0 ICGU=111
 GAUSSIAN SCALARS                    NI= 1 NR= 1 NTot=       1 LenBuf=    2 NRI=1 N=    1000
 NPA CHARGES                         NI= 0 NR= 1 NTot=       5 LenBuf= 4000 NRI=1 N=       5
 Recovered energy= -287.917281445     dipole=      0.000000122441     -0.000000021389     -0.000000165664
 Unable to Open any file for archive entry.
 1\1\GINC-C5-24\FOpt\RHF\STO-3G\H4Si1\BETO93\27-Sep-2024\0\\#OPT=VeryTi
 ght Int=UltraFine RHF/STO-3G 5D 7F Pop=NBO7Read\\NBO-SiH4\\0,1\Si,0.00
 0000944,0.,-0.0000002644\H,-0.0000025948,0.0000000063,1.4214866666\H,1
 .3401929687,0.0000000049,-0.4738256535\H,-0.6700930987,1.1606392406,-0
 .4738310512\H,-0.6700930963,-1.1606392427,-0.4738310495\\Version=ES64L
 -G16RevC.01\State=1-A\HF=-287.9172814\RMSD=2.026e-09\RMSF=1.403e-08\Di
 pole=-0.0000002,0.,0.\Quadrupole=0.,0.,0.,0.,0.,0.\PG=C01 [X(H4Si1)]\\
 @
 The archive entry for this job was punched.


 THE GREAT THING ABOUT BEING IMPERFECT IS THE JOY IT BRINGS OTHERS.
   -- SIGN OUTSIDE LAKE AGASSIZ JR. HIGH SCHOOL, FARGO, N.D.
 Job cpu time:       0 days  0 hours  0 minutes 54.2 seconds.
 Elapsed time:       0 days  0 hours  0 minutes 20.4 seconds.
 File lengths (MBytes):  RWF=     10 Int=      0 D2E=      0 Chk=      1 Scr=      1
 Normal termination of Gaussian 16 at Fri Sep 27 11:22:00 2024.
