 Entering Gaussian System, Link 0=g16
 Initial command:
 /cluster/software/Gaussian/g16_C.01/l1.exe "/cluster/work/users/beto93/mol113/Gau-2207990.inp" -scrdir="/cluster/work/users/beto93/mol113/"
 Entering Link 1 = /cluster/software/Gaussian/g16_C.01/l1.exe PID=   2207993.
  
 Copyright (c) 1988-2019, Gaussian, Inc.  All Rights Reserved.
  
 This is part of the Gaussian(R) 16 program.  It is based on
 the Gaussian(R) 09 system (copyright 2009, Gaussian, Inc.),
 the Gaussian(R) 03 system (copyright 2003, Gaussian, Inc.),
 the Gaussian(R) 98 system (copyright 1998, Gaussian, Inc.),
 the Gaussian(R) 94 system (copyright 1995, Gaussian, Inc.),
 the Gaussian 92(TM) system (copyright 1992, Gaussian, Inc.),
 the Gaussian 90(TM) system (copyright 1990, Gaussian, Inc.),
 the Gaussian 88(TM) system (copyright 1988, Gaussian, Inc.),
 the Gaussian 86(TM) system (copyright 1986, Carnegie Mellon
 University), and the Gaussian 82(TM) system (copyright 1983,
 Carnegie Mellon University). Gaussian is a federally registered
 trademark of Gaussian, Inc.
  
 This software contains proprietary and confidential information,
 including trade secrets, belonging to Gaussian, Inc.
  
 This software is provided under written license and may be
 used, copied, transmitted, or stored only in accord with that
 written license.
  
 The following legend is applicable only to US Government
 contracts under FAR:
  
                    RESTRICTED RIGHTS LEGEND
  
 Use, reproduction and disclosure by the US Government is
 subject to restrictions as set forth in subparagraphs (a)
 and (c) of the Commercial Computer Software - Restricted
 Rights clause in FAR 52.227-19.
  
 Gaussian, Inc.
 340 Quinnipiac St., Bldg. 40, Wallingford CT 06492
  
  
 ---------------------------------------------------------------
 Warning -- This program may not be used in any manner that
 competes with the business of Gaussian, Inc. or will provide
 assistance to any competitor of Gaussian, Inc.  The licensee
 of this program is prohibited from giving any competitor of
 Gaussian, Inc. access to this program.  By using this program,
 the user acknowledges that Gaussian, Inc. is engaged in the
 business of creating and licensing software in the field of
 computational chemistry and represents and warrants to the
 licensee that it is not a competitor of Gaussian, Inc. and that
 it will not use this program in any manner prohibited above.
 ---------------------------------------------------------------
  

 Cite this work as:
 Gaussian 16, Revision C.01,
 M. J. Frisch, G. W. Trucks, H. B. Schlegel, G. E. Scuseria, 
 M. A. Robb, J. R. Cheeseman, G. Scalmani, V. Barone, 
 G. A. Petersson, H. Nakatsuji, X. Li, M. Caricato, A. V. Marenich, 
 J. Bloino, B. G. Janesko, R. Gomperts, B. Mennucci, H. P. Hratchian, 
 J. V. Ortiz, A. F. Izmaylov, J. L. Sonnenberg, D. Williams-Young, 
 F. Ding, F. Lipparini, F. Egidi, J. Goings, B. Peng, A. Petrone, 
 T. Henderson, D. Ranasinghe, V. G. Zakrzewski, J. Gao, N. Rega, 
 G. Zheng, W. Liang, M. Hada, M. Ehara, K. Toyota, R. Fukuda, 
 J. Hasegawa, M. Ishida, T. Nakajima, Y. Honda, O. Kitao, H. Nakai, 
 T. Vreven, K. Throssell, J. A. Montgomery, Jr., J. E. Peralta, 
 F. Ogliaro, M. J. Bearpark, J. J. Heyd, E. N. Brothers, K. N. Kudin, 
 V. N. Staroverov, T. A. Keith, R. Kobayashi, J. Normand, 
 K. Raghavachari, A. P. Rendell, J. C. Burant, S. S. Iyengar, 
 J. Tomasi, M. Cossi, J. M. Millam, M. Klene, C. Adamo, R. Cammi, 
 J. W. Ochterski, R. L. Martin, K. Morokuma, O. Farkas, 
 J. B. Foresman, and D. J. Fox, Gaussian, Inc., Wallingford CT, 2019.
 
 ******************************************
 Gaussian 16:  ES64L-G16RevC.01  3-Jul-2019
                18-Nov-2024 
 ******************************************
 %LindaWorkers=c2-23-ib
 %NProcShared=4
 Will use up to    4 processors via shared memory.
 %mem=25GB
 %chk=mol113.chk
 SetLPE:    new flags="-opt 'Tsnet.Node.lindarsharg: ssh'  -nodelist 'c2-23-ib.saga' -env GAUSS_MDEF=3355443200 -env GAUSS_EXEDIR="/cluster/software/Gaussian/g16_C.01/bsd:/cluster/software/Gaussian/g16_C.01""
 Will use up to    1 processors via Linda.
 -----------------------------------------------------------------
 #RHF/6-31G* int=nobasistransform Symmetry=None 5D 7F Pop=NBO7Read
 -----------------------------------------------------------------
 1/38=1,163=2,172=1/1;
 2/12=2,15=3,17=6,18=5,40=1/2;
 3/5=1,6=6,7=1,8=11,11=1,25=1,30=1,60=-1,116=1/1,2,3;
 4//1;
 5/5=2,38=5/2;
 6/7=2,8=2,9=2,10=2,28=1,40=2,113=1,114=1,124=2103/1,12;
 99/5=1,9=1/99;
 ----------
 mol113-NBO
 ----------
 Symbolic Z-matrix:
 Charge =  0 Multiplicity = 1
 C                     1.16818  -0.40038   0. 
 C                     0.        0.55946   0. 
 O                    -1.19008  -0.22767   0. 
 H                    -1.94662   0.38153   0. 
 H                     0.04256   1.20751   0.88693 
 H                     0.04256   1.20751  -0.88693 
 H                     2.11589   0.1448    0. 
 H                     1.1286   -1.03723   0.88588 
 H                     1.1286   -1.03723  -0.88588 
 
                          Input orientation:                          
 ---------------------------------------------------------------------
 Center     Atomic      Atomic             Coordinates (Angstroms)
 Number     Number       Type             X           Y           Z
 ---------------------------------------------------------------------
      1          6           0        1.168181   -0.400382    0.000000
      2          6           0        0.000000    0.559462    0.000000
      3          8           0       -1.190083   -0.227669    0.000000
      4          1           0       -1.946623    0.381525    0.000000
      5          1           0        0.042557    1.207508    0.886933
      6          1           0        0.042557    1.207508   -0.886933
      7          1           0        2.115891    0.144800    0.000000
      8          1           0        1.128599   -1.037234    0.885881
      9          1           0        1.128599   -1.037234   -0.885881
 ---------------------------------------------------------------------
                    Distance matrix (angstroms):
                    1          2          3          4          5
     1  C    0.000000
     2  C    1.511935   0.000000
     3  O    2.364580   1.426840   0.000000
     4  H    3.211446   1.954739   0.971324   0.000000
     5  H    2.153831   1.099284   2.089446   2.329321   0.000000
     6  H    2.153831   1.099284   2.089446   2.329321   1.773866
     7  H    1.093333   2.156140   3.326890   4.069405   2.492932
     8  H    1.091757   2.146616   2.610836   3.500665   2.493663
     9  H    1.091757   2.146616   2.610836   3.500665   3.059612
                    6          7          8          9
     6  H    0.000000
     7  H    2.492932   0.000000
     8  H    3.059612   1.776720   0.000000
     9  H    2.493663   1.776720   1.771762   0.000000
 Symmetry turned off by external request.
 Stoichiometry    C2H6O
 Rotational constants (GHZ):          34.8177165           9.4666598           8.2088404
 Standard basis: 6-31G(d) (5D, 7F)
    54 basis functions,   108 primitive gaussians,    57 cartesian basis functions
    13 alpha electrons       13 beta electrons
       nuclear repulsion energy        81.8333951614 Hartrees.
 NAtoms=    9 NActive=    9 NUniq=    9 SFac= 1.00D+00 NAtFMM=   60 NAOKFM=F Big=F
 Integral buffers will be    131072 words long.
 Raffenetti 1 integral format.
 Two-electron integral symmetry is turned off.
 One-electron integrals computed using PRISM.
 NBasis=    54 RedAO= T EigKep=  7.24D-03  NBF=    54
 NBsUse=    54 1.00D-06 EigRej= -1.00D+00 NBFU=    54
 ExpMin= 1.61D-01 ExpMax= 5.48D+03 ExpMxC= 8.25D+02 IAcc=3 IRadAn=         5 AccDes= 0.00D+00
 Harris functional with IExCor=  205 and IRadAn=       5 diagonalized for initial guess.
 HarFok:  IExCor=  205 AccDes= 0.00D+00 IRadAn=         5 IDoV= 1 UseB2=F ITyADJ=14
 ICtDFT=  3500011 ScaDFX=  1.000000  1.000000  1.000000  1.000000
 FoFCou: FMM=F IPFlag=           0 FMFlag=      100000 FMFlg1=           0
         NFxFlg=           0 DoJE=T BraDBF=F KetDBF=T FulRan=T
         wScrn=  0.000000 ICntrl=       500 IOpCl=  0 I1Cent=   200000004 NGrid=           0
         NMat0=    1 NMatS0=      1 NMatT0=    0 NMatD0=    1 NMtDS0=    0 NMtDT0=    0
 Symmetry not used in FoFCou.
 Keep R1 ints in memory in canonical form, NReq=1951310.
 Requested convergence on RMS density matrix=1.00D-08 within 128 cycles.
 Requested convergence on MAX density matrix=1.00D-06.
 Requested convergence on             energy=1.00D-06.
 No special actions if energy rises.
 SCF Done:  E(RHF) =  -154.073000302     A.U. after   12 cycles
            NFock= 12  Conv=0.14D-08     -V/T= 2.0005

 **********************************************************************

            Population analysis using the SCF Density.

 **********************************************************************

 Alpha  occ. eigenvalues --  -20.55261 -11.27206 -11.20816  -1.34785  -1.01034
 Alpha  occ. eigenvalues --   -0.83076  -0.69186  -0.64161  -0.56534  -0.52995
 Alpha  occ. eigenvalues --   -0.52174  -0.48568  -0.43680
 Alpha virt. eigenvalues --    0.22451   0.26362   0.30841   0.30964   0.32770
 Alpha virt. eigenvalues --    0.35030   0.39484   0.41296   0.72359   0.75961
 Alpha virt. eigenvalues --    0.79574   0.81547   0.90647   0.93907   1.08768
 Alpha virt. eigenvalues --    1.11873   1.16130   1.17783   1.18729   1.21333
 Alpha virt. eigenvalues --    1.26422   1.29746   1.31425   1.45416   1.68719
 Alpha virt. eigenvalues --    1.71620   1.76301   2.00923   2.03888   2.09656
 Alpha virt. eigenvalues --    2.23226   2.26978   2.36792   2.49792   2.56259
 Alpha virt. eigenvalues --    2.66842   2.72503   2.74377   2.84176   2.96384
 Alpha virt. eigenvalues --    3.20540
          Condensed to atoms (all electrons):
               1          2          3          4          5          6
     1  C    5.136130   0.346011  -0.057484   0.006005  -0.044805  -0.044805
     2  C    0.346011   4.755609   0.210184  -0.027954   0.398715   0.398715
     3  O   -0.057484   0.210184   8.433018   0.259087  -0.039202  -0.039202
     4  H    0.006005  -0.027954   0.259087   0.322606  -0.003035  -0.003035
     5  H   -0.044805   0.398715  -0.039202  -0.003035   0.597238  -0.049276
     6  H   -0.044805   0.398715  -0.039202  -0.003035  -0.049276   0.597238
     7  H    0.381109  -0.036750   0.002651  -0.000189  -0.000269  -0.000269
     8  H    0.388310  -0.035833   0.001731  -0.000144  -0.005229   0.004747
     9  H    0.388310  -0.035833   0.001731  -0.000144   0.004747  -0.005229
               7          8          9
     1  C    0.381109   0.388310   0.388310
     2  C   -0.036750  -0.035833  -0.035833
     3  O    0.002651   0.001731   0.001731
     4  H   -0.000189  -0.000144  -0.000144
     5  H   -0.000269  -0.005229   0.004747
     6  H   -0.000269   0.004747  -0.005229
     7  H    0.547615  -0.025543  -0.025543
     8  H   -0.025543   0.520402  -0.027408
     9  H   -0.025543  -0.027408   0.520402
 Mulliken charges:
               1
     1  C   -0.498782
     2  C    0.027136
     3  O   -0.772515
     4  H    0.446803
     5  H    0.141117
     6  H    0.141117
     7  H    0.157188
     8  H    0.178968
     9  H    0.178968
 Sum of Mulliken charges =  -0.00000
 Mulliken charges with hydrogens summed into heavy atoms:
               1
     1  C    0.016342
     2  C    0.309370
     3  O   -0.325712
 Electronic spatial extent (au):  <R**2>=            192.7486
 Charge=             -0.0000 electrons
 Dipole moment (field-independent basis, Debye):
    X=              0.0839    Y=              1.8016    Z=             -0.0000  Tot=              1.8035
 Quadrupole moment (field-independent basis, Debye-Ang):
   XX=            -17.6584   YY=            -19.8915   ZZ=            -20.1253
   XY=             -2.5519   XZ=             -0.0000   YZ=             -0.0000
 Traceless Quadrupole moment (field-independent basis, Debye-Ang):
   XX=              1.5667   YY=             -0.6664   ZZ=             -0.9002
   XY=             -2.5519   XZ=             -0.0000   YZ=             -0.0000
 Octapole moment (field-independent basis, Debye-Ang**2):
  XXX=            -14.8274  YYY=              0.1058  ZZZ=             -0.0000  XYY=             -1.9741
  XXY=              4.8809  XXZ=             -0.0000  XZZ=             -1.4366  YZZ=             -0.1573
  YYZ=             -0.0000  XYZ=              0.0000
 Hexadecapole moment (field-independent basis, Debye-Ang**3):
 XXXX=           -128.9596 YYYY=            -59.7484 ZZZZ=            -32.3219 XXXY=              2.6552
 XXXZ=             -0.0000 YYYX=              7.7805 YYYZ=             -0.0000 ZZZX=             -0.0000
 ZZZY=             -0.0000 XXYY=            -34.5572 XXZZ=            -32.0600 YYZZ=            -13.9415
 XXYZ=              0.0000 YYXZ=             -0.0000 ZZXY=              1.9356
 N-N= 8.183339516142D+01 E-N=-5.256178192118D+02  KE= 1.539945124911D+02
 Running external command "gaunbo7 R"
         input file       "/cluster/work/users/beto93/mol113/Gau-2207993.EIn"
         output file      "/cluster/work/users/beto93/mol113/Gau-2207993.EOu"
         message file     "/cluster/work/users/beto93/mol113/Gau-2207993.EMs"
         fchk file        "/cluster/work/users/beto93/mol113/Gau-2207993.EFC"
         mat. el file     "/cluster/work/users/beto93/mol113/Gau-2207993.EUF"

 Writing WrtUnf unformatted file "/cluster/work/users/beto93/mol113/Gau-2207993.EUF"
 Gaussian matrix elements                                         Version   2 NLab=11 Len12L=8 Len4L=8
 Write SHELL TO ATOM MAP                   from file      0 offset           0 length                  24 to matrix element file.
 Write SHELL TYPES                         from file      0 offset           0 length                  24 to matrix element file.
 Write NUMBER OF PRIMITIVES PER SHELL      from file      0 offset           0 length                  24 to matrix element file.
 Write PRIMITIVE EXPONENTS                 from file      0 offset           0 length                  57 to matrix element file.
 Write CONTRACTION COEFFICIENTS            from file      0 offset           0 length                  57 to matrix element file.
 Write P(S=P) CONTRACTION COEFFICIENTS     from file      0 offset           0 length                  57 to matrix element file.
 Write COORDINATES OF EACH SHELL           from file      0 offset           0 length                  72 to matrix element file.
 Write BONDS PER ATOM                      from file      0 offset           0 length                   9 to matrix element file.
 Write BONDED ATOMS                        from file      0 offset           0 length                  16 to matrix element file.
 Write BOND TYPES                          from file      0 offset           0 length                  16 to matrix element file.
 Write ONIOM CHARGE/MULT                   from file      0 offset           0 length                  32 to matrix element file.
 Write ONIOM ATOM LAYERS                   from file      0 offset           0 length                   9 to matrix element file.
 Write ONIOM ATOM MODIFIERS                from file      0 offset           0 length                   9 to matrix element file.
 Write ONIOM ATOM TYPES                    from file      0 offset           0 length                   9 to matrix element file.
 Write ONIOM LINK ATOMS                    from file      0 offset           0 length                   9 to matrix element file.
 Write ONIOM LINK CHARGES                  from file      0 offset           0 length                   9 to matrix element file.
 Write ONIOM LINK DISTANCES                from file      0 offset           0 length                  36 to matrix element file.
 Write SYMINF INTS                         from file      0 offset           0 length                  26 to matrix element file.
 Write ROTTR TO SO                         from file      0 offset           0 length                  12 to matrix element file.
 Write GAUSSIAN SCALARS                    from file    501 offset           0 to matrix element file.
 Write OPTIMIZATION FLAGS                  from file      0 offset           0 length                   9 to matrix element file.
 Write INTEGER ISO                         from file      0 offset           0 length                   9 to matrix element file.
 Write INTEGER SPIN                        from file      0 offset           0 length                   9 to matrix element file.
 Write REAL ZEFFECTIVE                     from file      0 offset           0 length                   9 to matrix element file.
 Write REAL GFACTOR                        from file      0 offset           0 length                   9 to matrix element file.
 Write REAL ZNUCLEAR                       from file      0 offset           0 length                   9 to matrix element file.
 Write MULLIKEN CHARGES                    from file      0 offset           0 length                   9 to matrix element file.
 Write NUCLEAR GRADIENT                    from file  10584 offset           0 length                  27 to matrix element file.
 Array NUCLEAR FORCE CONSTANTS              on  file  10585 does not exist.
 Write ELECTRIC DIPOLE MOMENT              from file      0 offset           0 length                   3 to matrix element file.
 Write NON-ADIABATIC COUPLING              from file  10810 offset           0 length                  27 to matrix element file.
 Write FINITE EM FIELD                     from file  10521 offset           0 length                  35 to matrix element file.
 Write OVERLAP                             from file  10514 offset           0 length                1485 to matrix element file.
 Write CORE HAMILTONIAN ALPHA              from file  10515 offset           0 length                1485 to matrix element file.
 Write CORE HAMILTONIAN BETA               from file  10515 offset        1485 length                1485 to matrix element file.
 Write KINETIC ENERGY                      from file  10516 offset           0 length                1485 to matrix element file.
 Write ORTHOGONAL BASIS                    from file  10685 offset           0 length                2916 to matrix element file.
 Write DIPOLE INTEGRALS                    from file  10518 offset           0 length                4455 to matrix element file.
 Array DIP VEL INTEGRALS                    on  file  10572 does not exist.
 Array R X DEL INTEGRALS                    on  file  10572 does not exist.
 Write ALPHA ORBITAL ENERGIES              from file      0 offset           0 length                  54 to matrix element file.
 Write ALPHA MO COEFFICIENTS               from file  10524 offset           0 length                2916 to matrix element file.
 Write ALPHA DENSITY MATRIX                from file      0 offset           0 length                1485 to matrix element file.
 Write ALPHA FOCK MATRIX                   from file  10536 offset           0 length                1485 to matrix element file.
 Write ENERGY-WEIGHTED DENSITY             from file  10571 offset           0 length                1485 to matrix element file.
 Write ALPHA SCF DENSITY MATRIX            from file      0 offset           0 length                1485 to matrix element file.
 No 2e integrals to process.
 Perform NBO analysis...executing G16NBO...

 *********************************** NBO 7.0 ***********************************
             N A T U R A L   A T O M I C   O R B I T A L   A N D
          N A T U R A L   B O N D   O R B I T A L   A N A L Y S I S
 **************************** Espen Tangen (S101595) ***************************
  (c) Copyright 1996-2021 Board of Regents of the University of Wisconsin System
      on behalf of the Theoretical Chemistry Institute.  All rights reserved.

          Cite this program [NBO 7.0.10 (8-Feb-2021)] as:

          NBO 7.0.  E. D. Glendening, J. K. Badenhoop, A. E. Reed,
          J. E. Carpenter, J. A. Bohmann, C. M. Morales, P. Karafiloglou,
          C. R. Landis, and F. Weinhold, Theoretical Chemistry Institute,
          University of Wisconsin, Madison, WI (2018)

       /NPA    / : Natural Population Analysis
       /AOPNAO / : Print the AO to PNAO transformation
       /AONAO  / : Print the AO to NAO transformation
       /AOMO   / : Print the MOs in the AO basis
       /BOAO   / : Print the AO bond-order matrix
       /DMAO   / : Print the AO density matrix
       /DMPNAO / : Print the PNAO density matrix
       /DMNAO  / : Print the NAO density matrix
       /DMMO   / : Print the MO density matrix
       /SAO    / : Print the AO overlap matrix
       /SPNAO  / : Print the PNAO overlap matrix
       /DETAIL / : Write details of NBO search
       /ARCHIVE/ : Write the archive file to lfn47
       /AOINFO / : Write AO information to lfn31
       /FILE   / : Set to mol113.gen*

 Filename set to mol113.gen1

 Job title: mol113-NBO


 MOs in the AO basis:

           AO          1       2       3       4       5       6       7       8
      ------------ ------- ------- ------- ------- ------- ------- ------- -------
   1.  C 1 (s)      0.0000  0.0048  0.9962 -0.0164 -0.1562  0.1151  0.0133  0.0000
   2.  C 1 (s)      0.0000 -0.0003  0.0260  0.0306  0.2975 -0.2167 -0.0187  0.0000
   3.  C 1 (px)     0.0003  0.0001 -0.0001 -0.0218 -0.0412 -0.0937 -0.1189  0.0000
   4.  C 1 (py)    -0.0001  0.0000  0.0001  0.0094  0.0401  0.0908 -0.0618  0.0000
   5.  C 1 (pz)     0.0000  0.0000  0.0000  0.0000  0.0000  0.0000  0.0000  0.2120
   6.  C 1 (s)     -0.0015  0.0041 -0.0181  0.0333  0.2718 -0.2587 -0.0521  0.0000
   7.  C 1 (px)     0.0004 -0.0018  0.0007 -0.0090  0.0024 -0.0282 -0.0416  0.0000
   8.  C 1 (py)    -0.0003  0.0015 -0.0004  0.0045  0.0086  0.0280 -0.0301  0.0000
   9.  C 1 (pz)     0.0000  0.0000  0.0000  0.0000  0.0000  0.0000  0.0000  0.0974
  10.  C 1 (d5)     0.0000  0.0002  0.0000 -0.0021 -0.0022 -0.0084  0.0038  0.0000
  11.  C 1 (d2)     0.0000  0.0000  0.0000  0.0000  0.0000  0.0000  0.0000 -0.0069
  12.  C 1 (d3)     0.0000  0.0000  0.0000  0.0000  0.0000  0.0000  0.0000 -0.0103
  13.  C 1 (d4)    -0.0001 -0.0001  0.0000  0.0020  0.0000  0.0017  0.0010  0.0000
  14.  C 1 (d1)     0.0001  0.0003  0.0000 -0.0038 -0.0038 -0.0144 -0.0061  0.0000
  15.  C 2 (s)     -0.0001  0.9963 -0.0050 -0.0715 -0.1222 -0.1291  0.0083  0.0000
  16.  C 2 (s)     -0.0006  0.0253 -0.0005  0.1398  0.2407  0.2552 -0.0135  0.0000
  17.  C 2 (px)    -0.0005 -0.0006  0.0000 -0.0767  0.1044 -0.0541 -0.0907  0.0000
  18.  C 2 (py)    -0.0002 -0.0005  0.0001 -0.0500 -0.0290  0.1161 -0.2442  0.0000
  19.  C 2 (pz)     0.0000  0.0000  0.0000  0.0000  0.0000  0.0000  0.0000  0.3448
  20.  C 2 (s)      0.0060 -0.0161  0.0039  0.0294  0.2021  0.2758 -0.0383  0.0000
  21.  C 2 (px)    -0.0016 -0.0014  0.0017  0.0013  0.0250 -0.0079 -0.0138  0.0000
  22.  C 2 (py)    -0.0017  0.0004 -0.0011  0.0154  0.0047  0.0567 -0.1023  0.0000
  23.  C 2 (pz)     0.0000  0.0000  0.0000  0.0000  0.0000  0.0000  0.0000  0.1533
  24.  C 2 (d5)    -0.0001 -0.0001  0.0003 -0.0094 -0.0001  0.0119 -0.0176  0.0000
  25.  C 2 (d2)     0.0000  0.0000  0.0000  0.0000  0.0000  0.0000  0.0000 -0.0014
  26.  C 2 (d3)     0.0000  0.0000  0.0000  0.0000  0.0000  0.0000  0.0000  0.0186
  27.  C 2 (d4)     0.0001  0.0001  0.0000  0.0074 -0.0038 -0.0071 -0.0008  0.0000
  28.  C 2 (d1)     0.0000  0.0002  0.0003  0.0152 -0.0135  0.0088  0.0161  0.0000
  29.  O 3 (s)      0.9958 -0.0001  0.0000 -0.2056  0.0521  0.0394 -0.0284  0.0000
  30.  O 3 (s)      0.0227  0.0002 -0.0002  0.4478 -0.1162 -0.0908  0.0709  0.0000
  31.  O 3 (px)     0.0002  0.0001 -0.0001  0.0092  0.1097  0.1551  0.3874  0.0000
  32.  O 3 (py)     0.0017  0.0001  0.0000  0.0815 -0.0037  0.0754 -0.1765  0.0000
  33.  O 3 (pz)     0.0000  0.0000  0.0000  0.0000  0.0000  0.0000  0.0000  0.2616
  34.  O 3 (s)     -0.0107  0.0009  0.0000  0.4815 -0.1543 -0.1299  0.0999  0.0000
  35.  O 3 (px)    -0.0015 -0.0001  0.0004  0.0107  0.0526  0.0900  0.2341  0.0000
  36.  O 3 (py)    -0.0026 -0.0003 -0.0002  0.0562 -0.0046  0.0391 -0.1134  0.0000
  37.  O 3 (pz)     0.0000  0.0000  0.0000  0.0000  0.0000  0.0000  0.0000  0.1715
  38.  O 3 (d5)     0.0004  0.0004 -0.0001 -0.0142  0.0006 -0.0025  0.0086  0.0000
  39.  O 3 (d2)     0.0000  0.0000  0.0000  0.0000  0.0000  0.0000  0.0000  0.0042
  40.  O 3 (d3)     0.0000  0.0000  0.0000  0.0000  0.0000  0.0000  0.0000  0.0152
  41.  O 3 (d4)    -0.0002 -0.0003  0.0001  0.0036  0.0013 -0.0041  0.0100  0.0000
  42.  O 3 (d1)    -0.0002 -0.0006 -0.0001 -0.0037  0.0138  0.0186  0.0311  0.0000
  43.  H 4 (s)      0.0005  0.0000  0.0001  0.1181 -0.0712 -0.0655 -0.2135  0.0000
  44.  H 4 (s)      0.0015  0.0004  0.0003 -0.0091 -0.0128 -0.0243 -0.1004  0.0000
  45.  H 5 (s)     -0.0004  0.0001 -0.0002  0.0259  0.0747  0.1305 -0.0885  0.1614
  46.  H 5 (s)     -0.0004  0.0030  0.0001  0.0011  0.0119  0.0474 -0.0521  0.1172
  47.  H 6 (s)     -0.0004  0.0001 -0.0002  0.0259  0.0747  0.1305 -0.0885 -0.1614
  48.  H 6 (s)     -0.0004  0.0030  0.0001  0.0011  0.0119  0.0474 -0.0521 -0.1172
  49.  H 7 (s)      0.0000 -0.0002  0.0000  0.0043  0.0947 -0.1041 -0.0856  0.0000
  50.  H 7 (s)      0.0004  0.0002  0.0030 -0.0033  0.0128 -0.0429 -0.0556  0.0000
  51.  H 8 (s)      0.0000 -0.0002  0.0001  0.0064  0.0914 -0.1099  0.0129  0.1017
  52.  H 8 (s)     -0.0001  0.0002  0.0032  0.0012  0.0153 -0.0408  0.0123  0.0673
  53.  H 9 (s)      0.0000 -0.0002  0.0001  0.0064  0.0914 -0.1099  0.0129 -0.1017
  54.  H 9 (s)     -0.0001  0.0002  0.0032  0.0012  0.0153 -0.0408  0.0123 -0.0673

           AO          9      10      11      12      13      14      15      16
      ------------ ------- ------- ------- ------- ------- ------- ------- -------
   1.  C 1 (s)     -0.0084  0.0047  0.0000 -0.0211  0.0000  0.0348 -0.1024  0.0000
   2.  C 1 (s)      0.0111 -0.0128  0.0000  0.0424  0.0000 -0.0315  0.0554  0.0000
   3.  C 1 (px)     0.0466  0.3490  0.0000 -0.1944  0.0000 -0.0642  0.0746  0.0000
   4.  C 1 (py)    -0.2761  0.1916  0.0000  0.2447  0.0000  0.0139 -0.0633  0.0000
   5.  C 1 (pz)     0.0000  0.0000  0.3697  0.0000  0.1026  0.0000  0.0000 -0.2233
   6.  C 1 (s)      0.0791  0.0034  0.0000  0.0942  0.0000 -0.4885  1.9960  0.0000
   7.  C 1 (px)     0.0208  0.1751  0.0000 -0.0860  0.0000 -0.3130  0.1264  0.0000
   8.  C 1 (py)    -0.1209  0.1179  0.0000  0.1504  0.0000  0.1525 -0.4093  0.0000
   9.  C 1 (pz)     0.0000  0.0000  0.2276  0.0000  0.0391  0.0000  0.0000 -0.7755
  10.  C 1 (d5)     0.0178 -0.0184  0.0000 -0.0142  0.0000 -0.0026 -0.0089  0.0000
  11.  C 1 (d2)     0.0000  0.0000  0.0002  0.0000  0.0027  0.0000  0.0000  0.0115
  12.  C 1 (d3)     0.0000  0.0000 -0.0329  0.0000 -0.0164  0.0000  0.0000 -0.0158
  13.  C 1 (d4)    -0.0065  0.0162  0.0000  0.0089  0.0000  0.0128  0.0092  0.0000
  14.  C 1 (d1)     0.0041  0.0253  0.0000 -0.0141  0.0000  0.0060 -0.0005  0.0000
  15.  C 2 (s)      0.0052  0.0156  0.0000 -0.0146  0.0000  0.0545 -0.0530  0.0000
  16.  C 2 (s)     -0.0084 -0.0304  0.0000  0.0439  0.0000 -0.0084  0.0763  0.0000
  17.  C 2 (px)    -0.2833 -0.1759  0.0000  0.1228  0.0000 -0.0698 -0.0739  0.0000
  18.  C 2 (py)     0.0183 -0.0049  0.0000 -0.3262  0.0000 -0.1575  0.0542  0.0000
  19.  C 2 (pz)     0.0000  0.0000 -0.1196  0.0000 -0.2608  0.0000  0.0000 -0.2846
  20.  C 2 (s)     -0.0605 -0.0781  0.0000 -0.0171  0.0000 -1.1438  0.7675  0.0000
  21.  C 2 (px)    -0.1380 -0.0769  0.0000  0.0564  0.0000 -0.2258 -0.3456  0.0000
  22.  C 2 (py)     0.0439  0.0133  0.0000 -0.1415  0.0000 -0.4059  0.4698  0.0000
  23.  C 2 (pz)     0.0000  0.0000 -0.0862  0.0000 -0.1105  0.0000  0.0000 -0.9522
  24.  C 2 (d5)    -0.0046 -0.0074  0.0000 -0.0214  0.0000  0.0034 -0.0026  0.0000
  25.  C 2 (d2)     0.0000  0.0000  0.0153  0.0000 -0.0161  0.0000  0.0000 -0.0133
  26.  C 2 (d3)     0.0000  0.0000 -0.0120  0.0000 -0.0404  0.0000  0.0000  0.0124
  27.  C 2 (d4)     0.0077  0.0133  0.0000  0.0229  0.0000 -0.0077 -0.0090  0.0000
  28.  C 2 (d1)     0.0160  0.0215  0.0000 -0.0129  0.0000 -0.0042 -0.0103  0.0000
  29.  O 3 (s)      0.0439 -0.0118  0.0000  0.0364  0.0000  0.0630  0.0389  0.0000
  30.  O 3 (s)     -0.1059  0.0241  0.0000 -0.0885  0.0000 -0.0947 -0.0392  0.0000
  31.  O 3 (px)     0.1270  0.2179  0.0000 -0.0324  0.0000  0.1205  0.0426  0.0000
  32.  O 3 (py)     0.3946  0.0766  0.0000  0.3349  0.0000 -0.1240 -0.1604  0.0000
  33.  O 3 (pz)     0.0000  0.0000 -0.3084  0.0000  0.4989  0.0000  0.0000  0.0259
  34.  O 3 (s)     -0.1740  0.0631  0.0000 -0.1573  0.0000 -0.7844 -0.5744  0.0000
  35.  O 3 (px)     0.0918  0.1646  0.0000 -0.0180  0.0000  0.3154  0.1366  0.0000
  36.  O 3 (py)     0.2828  0.0553  0.0000  0.2690  0.0000 -0.2733 -0.3407  0.0000
  37.  O 3 (pz)     0.0000  0.0000 -0.2293  0.0000  0.4197  0.0000  0.0000  0.1503
  38.  O 3 (d5)    -0.0135 -0.0007  0.0000 -0.0146  0.0000  0.0078  0.0025  0.0000
  39.  O 3 (d2)     0.0000  0.0000 -0.0004  0.0000 -0.0038  0.0000  0.0000 -0.0065
  40.  O 3 (d3)     0.0000  0.0000 -0.0161  0.0000  0.0188  0.0000  0.0000  0.0019
  41.  O 3 (d4)    -0.0196 -0.0053  0.0000 -0.0066  0.0000  0.0071  0.0078  0.0000
  42.  O 3 (d1)     0.0091  0.0186  0.0000 -0.0083  0.0000  0.0069  0.0095  0.0000
  43.  H 4 (s)      0.0492 -0.0750  0.0000  0.1191  0.0000  0.0659  0.0262  0.0000
  44.  H 4 (s)      0.0139 -0.0571  0.0000  0.0807  0.0000  1.1757  0.6969  0.0000
  45.  H 5 (s)     -0.0068 -0.0256 -0.0629 -0.1199 -0.1799 -0.0040  0.0021  0.0361
  46.  H 5 (s)     -0.0069 -0.0213 -0.0574 -0.1219 -0.2002  0.6963 -0.6183  1.1992
  47.  H 6 (s)     -0.0068 -0.0256  0.0629 -0.1199  0.1799 -0.0040  0.0021 -0.0361
  48.  H 6 (s)     -0.0069 -0.0213  0.0574 -0.1219  0.2002  0.6963 -0.6183 -1.1992
  49.  H 7 (s)     -0.0566  0.2715  0.0000 -0.0115  0.0000  0.0371  0.0450  0.0000
  50.  H 7 (s)     -0.0583  0.2378  0.0000 -0.0321  0.0000  0.5537 -0.6216  0.0000
  51.  H 8 (s)      0.1090 -0.0896  0.2044 -0.0779  0.0698 -0.0218 -0.0249  0.0463
  52.  H 8 (s)      0.0759 -0.0705  0.1594 -0.0862  0.0977  0.2076 -0.9909  1.0442
  53.  H 9 (s)      0.1090 -0.0896 -0.2044 -0.0779 -0.0698 -0.0218 -0.0249 -0.0463
  54.  H 9 (s)      0.0759 -0.0705 -0.1594 -0.0862 -0.0977  0.2076 -0.9909 -1.0442

           AO         17      18      19      20      21      22      23      24
      ------------ ------- ------- ------- ------- ------- ------- ------- -------
   1.  C 1 (s)      0.1029 -0.0055  0.0000  0.0065  0.0636  0.0000  0.0000 -0.0083
   2.  C 1 (s)     -0.0366  0.0034  0.0000 -0.0378  0.0181  0.0724  0.0000  0.0947
   3.  C 1 (px)    -0.0575 -0.2318  0.0000  0.0859  0.1052 -0.3064  0.0000 -0.5119
   4.  C 1 (py)     0.0273 -0.2345  0.0000 -0.0976 -0.1579  0.5438  0.0000 -0.2522
   5.  C 1 (pz)     0.0000  0.0000  0.2198  0.0000  0.0000  0.0000 -0.5942  0.0000
   6.  C 1 (s)     -2.0108  0.1225  0.0000 -0.0788 -1.6212  0.6008  0.0000 -0.0973
   7.  C 1 (px)    -0.1039 -1.1120  0.0000  0.1337  1.6298  0.2136  0.0000  0.9906
   8.  C 1 (py)    -0.2610 -1.0929  0.0000 -0.7090 -1.1464 -0.7801  0.0000  0.6854
   9.  C 1 (pz)     0.0000  0.0000  1.4536  0.0000  0.0000  0.0000  1.1200  0.0000
  10.  C 1 (d5)    -0.0061 -0.0080  0.0000 -0.0065 -0.0057 -0.0684  0.0000  0.0804
  11.  C 1 (d2)     0.0000  0.0000  0.0163  0.0000  0.0000  0.0000  0.0033  0.0000
  12.  C 1 (d3)     0.0000  0.0000  0.0043  0.0000  0.0000  0.0000  0.1108  0.0000
  13.  C 1 (d4)    -0.0015  0.0047  0.0000 -0.0201  0.0118  0.0212  0.0000 -0.0352
  14.  C 1 (d1)    -0.0008  0.0038  0.0000 -0.0069 -0.0207 -0.0615  0.0000 -0.0579
  15.  C 2 (s)     -0.1111  0.0127  0.0000  0.0504 -0.0921  0.0237  0.0000 -0.0148
  16.  C 2 (s)      0.0637  0.0115  0.0000 -0.0361  0.0679  0.0323  0.0000  0.1787
  17.  C 2 (px)     0.0193 -0.0208  0.0000  0.2711  0.1059  0.3822  0.0000 -0.3515
  18.  C 2 (py)     0.1154 -0.0372  0.0000  0.0300 -0.2493 -0.4332  0.0000 -0.2014
  19.  C 2 (pz)     0.0000  0.0000 -0.2585  0.0000  0.0000  0.0000 -0.1876  0.0000
  20.  C 2 (s)      2.1495 -0.3154  0.0000 -0.6319  1.9906  0.0232  0.0000  0.0756
  21.  C 2 (px)     0.3499  0.1699  0.0000  1.6531  0.8122 -0.5771  0.0000  0.1589
  22.  C 2 (py)     0.4462  0.3589  0.0000  0.6153 -1.8163  1.1660  0.0000  0.0869
  23.  C 2 (pz)     0.0000  0.0000 -1.3322  0.0000  0.0000  0.0000  0.3062  0.0000
  24.  C 2 (d5)    -0.0020 -0.0012  0.0000 -0.0110  0.0163 -0.0739  0.0000 -0.0286
  25.  C 2 (d2)     0.0000  0.0000  0.0094  0.0000  0.0000  0.0000  0.0271  0.0000
  26.  C 2 (d3)     0.0000  0.0000 -0.0067  0.0000  0.0000  0.0000 -0.0717  0.0000
  27.  C 2 (d4)    -0.0027 -0.0185  0.0000 -0.0025 -0.0002  0.0054  0.0000  0.0306
  28.  C 2 (d1)    -0.0028 -0.0094  0.0000  0.0224  0.0029 -0.0723  0.0000 -0.0451
  29.  O 3 (s)      0.0284 -0.0100  0.0000 -0.0489  0.0279 -0.0178  0.0000 -0.0097
  30.  O 3 (s)     -0.0468 -0.0215  0.0000  0.0575 -0.0194  0.0482  0.0000  0.0584
  31.  O 3 (px)     0.0194 -0.0885  0.0000  0.2985 -0.0896 -0.0501  0.0000 -0.0043
  32.  O 3 (py)    -0.0581  0.0450  0.0000  0.1029 -0.0145 -0.0096  0.0000 -0.1765
  33.  O 3 (pz)     0.0000  0.0000  0.0900  0.0000  0.0000  0.0000 -0.1011  0.0000
  34.  O 3 (s)     -0.3407  0.3857  0.0000  0.8456 -0.5537  0.2084  0.0000  0.0328
  35.  O 3 (px)     0.0638 -0.0847  0.0000  0.8886 -0.4560  0.2217  0.0000 -0.1104
  36.  O 3 (py)    -0.1838  0.1585  0.0000  0.3363 -0.0089 -0.1040  0.0000  0.0191
  37.  O 3 (pz)     0.0000  0.0000  0.2188  0.0000  0.0000  0.0000 -0.0380  0.0000
  38.  O 3 (d5)    -0.0016 -0.0113  0.0000 -0.0117  0.0066 -0.0088  0.0000 -0.0084
  39.  O 3 (d2)     0.0000  0.0000 -0.0088  0.0000  0.0000  0.0000  0.0218  0.0000
  40.  O 3 (d3)     0.0000  0.0000  0.0072  0.0000  0.0000  0.0000 -0.0155  0.0000
  41.  O 3 (d4)     0.0031  0.0062  0.0000  0.0085  0.0121  0.0000  0.0000 -0.0028
  42.  O 3 (d1)     0.0034 -0.0069  0.0000  0.0147 -0.0048 -0.0096  0.0000  0.0914
  43.  H 4 (s)      0.0418  0.0110  0.0000  0.0496  0.0078 -0.0176  0.0000 -0.2798
  44.  H 4 (s)      0.4830 -0.3913  0.0000  0.8193 -0.0106 -0.1783  0.0000  0.2435
  45.  H 5 (s)     -0.0181  0.0026 -0.0168 -0.0316  0.0721 -0.1604 -0.2850 -0.1610
  46.  H 5 (s)     -1.1964  0.0502  1.1873  0.0225  0.4265 -0.0727 -0.0015  0.0344
  47.  H 6 (s)     -0.0181  0.0026  0.0168 -0.0316  0.0721 -0.1604  0.2850 -0.1610
  48.  H 6 (s)     -1.1964  0.0502 -1.1873  0.0225  0.4265 -0.0727  0.0015  0.0344
  49.  H 7 (s)      0.0129  0.0438  0.0000 -0.0782 -0.0404 -0.0224  0.0000 -0.4917
  50.  H 7 (s)      0.9707  1.8968  0.0000 -0.0531 -0.1658  0.0210  0.0000 -0.1773
  51.  H 8 (s)     -0.0080 -0.0182 -0.0364  0.0111 -0.0564 -0.1852 -0.4382  0.1955
  52.  H 8 (s)      0.6510 -0.9120 -1.3071 -0.3010 -0.2899 -0.0012 -0.0423  0.0707
  53.  H 9 (s)     -0.0080 -0.0182  0.0364  0.0111 -0.0564 -0.1852  0.4382  0.1955
  54.  H 9 (s)      0.6510 -0.9120  1.3071 -0.3010 -0.2899 -0.0012  0.0423  0.0707

           AO         25      26      27      28      29      30      31      32
      ------------ ------- ------- ------- ------- ------- ------- ------- -------
   1.  C 1 (s)      0.0075  0.0000 -0.0446 -0.0037  0.0000 -0.0342  0.0402  0.0000
   2.  C 1 (s)     -0.0874  0.0000  0.3272 -0.2028  0.0000 -0.0446  0.0246  0.0000
   3.  C 1 (px)     0.3499  0.0000 -0.4717 -0.3846  0.0000  0.5140  0.2654  0.0000
   4.  C 1 (py)     0.1252  0.0000  0.6025 -0.0850  0.0000  0.3625  0.6332  0.0000
   5.  C 1 (pz)     0.0000  0.5278  0.0000  0.0000 -0.3690  0.0000  0.0000  0.7954
   6.  C 1 (s)      0.1603  0.0000 -1.0708  0.6781  0.0000  0.2270 -0.3251  0.0000
   7.  C 1 (px)    -0.8080  0.0000  0.8932  0.5578  0.0000 -0.4867 -0.5519  0.0000
   8.  C 1 (py)    -0.4284  0.0000 -1.3510  0.5501  0.0000 -0.6424 -0.7477  0.0000
   9.  C 1 (pz)     0.0000 -1.5623  0.0000  0.0000  0.5173  0.0000  0.0000 -1.0340
  10.  C 1 (d5)    -0.0417  0.0000  0.0244  0.0284  0.0000  0.0788  0.1361  0.0000
  11.  C 1 (d2)     0.0000 -0.0769  0.0000  0.0000  0.0554  0.0000  0.0000  0.0401
  12.  C 1 (d3)     0.0000 -0.0226  0.0000  0.0000 -0.0671  0.0000  0.0000  0.2120
  13.  C 1 (d4)     0.0422  0.0000 -0.0171  0.0739  0.0000 -0.0792 -0.0836  0.0000
  14.  C 1 (d1)     0.0315  0.0000  0.1048  0.0231  0.0000 -0.1016 -0.0388  0.0000
  15.  C 2 (s)     -0.0304  0.0000  0.0459  0.0284  0.0000 -0.0394  0.0328  0.0000
  16.  C 2 (s)      0.4239  0.0000 -0.2623 -0.2129  0.0000  0.1051 -0.1380  0.0000
  17.  C 2 (px)    -0.6893  0.0000 -0.6458 -0.0688  0.0000 -0.0715  0.0527  0.0000
  18.  C 2 (py)    -0.6000  0.0000  0.5337 -0.1737  0.0000  0.3408 -0.3452  0.0000
  19.  C 2 (pz)     0.0000 -0.6956  0.0000  0.0000 -0.9218  0.0000  0.0000 -0.1536
  20.  C 2 (s)     -0.7688  0.0000  0.8322 -0.0283  0.0000 -0.2894  0.5696  0.0000
  21.  C 2 (px)     1.1074  0.0000  1.4513 -0.1574  0.0000 -0.0323 -0.1368  0.0000
  22.  C 2 (py)     1.1950  0.0000 -1.1442  0.3184  0.0000 -0.3814  0.0505  0.0000
  23.  C 2 (pz)     0.0000  2.0469  0.0000  0.0000  1.5463  0.0000  0.0000  0.1191
  24.  C 2 (d5)     0.0267  0.0000 -0.0456  0.0554  0.0000 -0.0178  0.0658  0.0000
  25.  C 2 (d2)     0.0000 -0.0073  0.0000  0.0000  0.0112  0.0000  0.0000  0.1018
  26.  C 2 (d3)     0.0000 -0.1006  0.0000  0.0000  0.1906  0.0000  0.0000  0.0504
  27.  C 2 (d4)    -0.0494  0.0000  0.0262 -0.1425  0.0000  0.0607  0.0493  0.0000
  28.  C 2 (d1)    -0.0362  0.0000 -0.0768 -0.0502  0.0000 -0.0400  0.0525  0.0000
  29.  O 3 (s)      0.0266  0.0000 -0.0044  0.0007  0.0000  0.0344 -0.0040  0.0000
  30.  O 3 (s)     -0.2332  0.0000 -0.0040  0.0545  0.0000 -0.2438  0.1159  0.0000
  31.  O 3 (px)    -0.2534  0.0000  0.0792  0.0975  0.0000 -0.0106  0.1984  0.0000
  32.  O 3 (py)    -0.0758  0.0000  0.0747 -0.5069  0.0000 -0.2632  0.0802  0.0000
  33.  O 3 (pz)     0.0000 -0.3020  0.0000  0.0000  0.1082  0.0000  0.0000  0.2257
  34.  O 3 (s)      0.8501  0.0000  0.0902  0.0525  0.0000  0.1240 -0.2693  0.0000
  35.  O 3 (px)     0.2249  0.0000 -0.0556  0.4341  0.0000  0.0424 -0.4340  0.0000
  36.  O 3 (py)     0.0400  0.0000  0.1179  0.2628  0.0000  0.1552 -0.0760  0.0000
  37.  O 3 (pz)     0.0000 -0.1047  0.0000  0.0000 -0.2372  0.0000  0.0000 -0.2015
  38.  O 3 (d5)    -0.0924  0.0000 -0.0033 -0.0885  0.0000 -0.0437  0.0180  0.0000
  39.  O 3 (d2)     0.0000  0.0044  0.0000  0.0000 -0.0667  0.0000  0.0000 -0.0378
  40.  O 3 (d3)     0.0000  0.0027  0.0000  0.0000 -0.0547  0.0000  0.0000 -0.0456
  41.  O 3 (d4)     0.0890  0.0000 -0.0274  0.0572  0.0000 -0.0312  0.0257  0.0000
  42.  O 3 (d1)     0.0801  0.0000  0.0313 -0.1090  0.0000 -0.0776  0.0158  0.0000
  43.  H 4 (s)      0.0867  0.0000 -0.0832  0.8419  0.0000  0.4709 -0.1175  0.0000
  44.  H 4 (s)      0.1016  0.0000  0.3245 -0.4877  0.0000 -0.4802 -0.0177  0.0000
  45.  H 5 (s)     -0.0688 -0.3320  0.1299  0.3213  0.5683 -0.3689  0.4379  0.2664
  46.  H 5 (s)     -0.1323 -0.4852  0.2993 -0.3330 -1.4065  0.4459 -0.3322 -0.2350
  47.  H 6 (s)     -0.0688  0.3320  0.1299  0.3213 -0.5683 -0.3689  0.4379 -0.2664
  48.  H 6 (s)     -0.1323  0.4852  0.2993 -0.3330  1.4065  0.4459 -0.3322  0.2350
  49.  H 7 (s)      0.2028  0.0000  0.0291  0.0858  0.0000 -0.7844 -0.2180  0.0000
  50.  H 7 (s)      0.0163  0.0000 -0.0756 -0.6716  0.0000  1.0477  1.0302  0.0000
  51.  H 8 (s)     -0.0604  0.0879 -0.1576  0.0269  0.1379 -0.0088  0.5907 -0.6566
  52.  H 8 (s)      0.0297  0.4359 -0.2784  0.1379 -0.5151 -0.4743 -0.6184  1.1992
  53.  H 9 (s)     -0.0604 -0.0879 -0.1576  0.0269 -0.1379 -0.0088  0.5907  0.6566
  54.  H 9 (s)      0.0297 -0.4359 -0.2784  0.1379  0.5151 -0.4743 -0.6184 -1.1992

           AO         33      34      35      36      37      38      39      40
      ------------ ------- ------- ------- ------- ------- ------- ------- -------
   1.  C 1 (s)     -0.0569  0.0095  0.0000 -0.0027  0.0387 -0.1108  0.0000 -0.0102
   2.  C 1 (s)      0.1659 -1.8882  0.0000 -0.0651  0.4018 -1.4842  0.0000 -0.0506
   3.  C 1 (px)     0.1451 -0.2443  0.0000  0.2223  0.0983  0.1389  0.0000  0.1366
   4.  C 1 (py)    -0.2280  0.1431  0.0000  0.0860 -0.0318 -0.0340  0.0000  0.1211
   5.  C 1 (pz)     0.0000  0.0000  0.0527  0.0000  0.0000  0.0000 -0.1118  0.0000
   6.  C 1 (s)     -0.3030  3.7118  0.0000 -0.4351 -2.1812  4.6665  0.0000 -0.1436
   7.  C 1 (px)     0.1926  0.6268  0.0000 -0.1921  0.0938 -1.1835  0.0000 -0.0397
   8.  C 1 (py)     0.2399 -0.3517  0.0000 -0.5657 -0.8697  0.4920  0.0000 -0.2265
   9.  C 1 (pz)     0.0000  0.0000  0.4910  0.0000  0.0000  0.0000 -0.1120  0.0000
  10.  C 1 (d5)     0.0340  0.0503  0.0000 -0.0038 -0.0832 -0.0926  0.0000  0.1932
  11.  C 1 (d2)     0.0000  0.0000  0.1073  0.0000  0.0000  0.0000 -0.4800  0.0000
  12.  C 1 (d3)     0.0000  0.0000  0.0190  0.0000  0.0000  0.0000  0.0904  0.0000
  13.  C 1 (d4)     0.0222 -0.0167  0.0000 -0.0253 -0.1532 -0.1501  0.0000  0.3661
  14.  C 1 (d1)    -0.0190  0.0733  0.0000  0.0372  0.0882 -0.0090  0.0000  0.0274
  15.  C 2 (s)      0.0052 -0.0383  0.0000 -0.0161 -0.0632  0.0685  0.0000 -0.0283
  16.  C 2 (s)     -1.4376 -0.6830  0.0000 -0.7288 -1.0773  0.7218  0.0000 -0.3580
  17.  C 2 (px)    -0.1429 -0.0845  0.0000 -0.0036 -0.0180 -0.0041  0.0000  0.0084
  18.  C 2 (py)    -0.3917  0.0578  0.0000 -0.0113 -0.1330 -0.0276  0.0000  0.1225
  19.  C 2 (pz)     0.0000  0.0000  0.1497  0.0000  0.0000  0.0000  0.0739  0.0000
  20.  C 2 (s)      3.1841  1.1690  0.0000  0.9393  3.4434 -2.8708  0.0000  1.2822
  21.  C 2 (px)    -0.1898 -0.1127  0.0000  0.8121  0.6067 -1.3040  0.0000 -0.1369
  22.  C 2 (py)     0.6848  0.1868  0.0000  0.0636 -0.4214  0.5072  0.0000 -0.2086
  23.  C 2 (pz)     0.0000  0.0000 -1.0925  0.0000  0.0000  0.0000 -0.1720  0.0000
  24.  C 2 (d5)     0.0310  0.0189  0.0000  0.1531 -0.0009  0.0647  0.0000 -0.2166
  25.  C 2 (d2)     0.0000  0.0000  0.0058  0.0000  0.0000  0.0000  0.6259  0.0000
  26.  C 2 (d3)     0.0000  0.0000  0.1403  0.0000  0.0000  0.0000 -0.0706  0.0000
  27.  C 2 (d4)    -0.0183  0.0076  0.0000  0.0097  0.1425  0.1419  0.0000 -0.5050
  28.  C 2 (d1)     0.0277  0.0508  0.0000 -0.0856  0.0429  0.1085  0.0000  0.1361
  29.  O 3 (s)      0.0300  0.0256  0.0000 -0.0527  0.0319 -0.0291  0.0000 -0.0153
  30.  O 3 (s)     -0.2254 -0.2361  0.0000  0.3855 -0.4419  0.5421  0.0000  0.3131
  31.  O 3 (px)     0.0195 -0.1392  0.0000 -0.5721  0.5573  0.4008  0.0000  0.1971
  32.  O 3 (py)     0.3302  0.1463  0.0000 -0.4563 -0.4572 -0.1291  0.0000 -0.0400
  33.  O 3 (pz)     0.0000  0.0000 -0.8726  0.0000  0.0000  0.0000 -0.0058  0.0000
  34.  O 3 (s)     -0.2075  0.0203  0.0000 -0.2018  0.3319 -0.5097  0.0000 -0.5821
  35.  O 3 (px)    -0.2138  0.0218  0.0000  0.7126 -1.3273 -0.8029  0.0000 -0.7248
  36.  O 3 (py)    -0.5846 -0.2591  0.0000  0.8865  0.6109  0.2031  0.0000  0.1715
  37.  O 3 (pz)     0.0000  0.0000  1.2476  0.0000  0.0000  0.0000  0.1518  0.0000
  38.  O 3 (d5)     0.0253  0.0122  0.0000  0.1170  0.1006 -0.1455  0.0000  0.0933
  39.  O 3 (d2)     0.0000  0.0000 -0.1130  0.0000  0.0000  0.0000 -0.3011  0.0000
  40.  O 3 (d3)     0.0000  0.0000 -0.0356  0.0000  0.0000  0.0000 -0.2910  0.0000
  41.  O 3 (d4)    -0.0201 -0.0173  0.0000 -0.0313 -0.0206  0.0861  0.0000  0.4515
  42.  O 3 (d1)    -0.0525 -0.0396  0.0000  0.0342  0.0259  0.1028  0.0000 -0.0176
  43.  H 4 (s)      0.0616  0.0141  0.0000 -0.5586 -0.1156 -0.1864  0.0000 -0.2651
  44.  H 4 (s)     -0.1542 -0.0929  0.0000  0.7314 -0.8383 -0.2455  0.0000 -0.1693
  45.  H 5 (s)      0.2187 -0.2405  0.2275  0.0827 -0.2732  0.2782 -0.0081 -0.2259
  46.  H 5 (s)     -1.1576 -0.2153  0.2022 -0.3863 -0.3244  0.1376  0.1288 -0.0936
  47.  H 6 (s)      0.2187 -0.2405 -0.2275  0.0827 -0.2732  0.2782  0.0081 -0.2259
  48.  H 6 (s)     -1.1576 -0.2153 -0.2022 -0.3863 -0.3244  0.1376 -0.1288 -0.0936
  49.  H 7 (s)     -0.5224  0.1619  0.0000 -0.0771  0.4139 -0.3542  0.0000 -0.1507
  50.  H 7 (s)      0.1477 -1.1731  0.0000  0.3113  0.2737 -0.1403  0.0000  0.1888
  51.  H 8 (s)     -0.3505  0.2103 -0.1441 -0.0600  0.0354 -0.5300  0.1575 -0.0087
  52.  H 8 (s)      0.2844 -1.1055 -0.0932 -0.1277  0.0575 -0.4200 -0.0217 -0.0800
  53.  H 9 (s)     -0.3505  0.2103  0.1441 -0.0600  0.0354 -0.5300 -0.1575 -0.0087
  54.  H 9 (s)      0.2844 -1.1055  0.0932 -0.1277  0.0575 -0.4200  0.0217 -0.0800

           AO         41      42      43      44      45      46      47      48
      ------------ ------- ------- ------- ------- ------- ------- ------- -------
   1.  C 1 (s)      0.0588  0.0000  0.0075  0.0000 -0.0261  0.0003  0.0000  0.0070
   2.  C 1 (s)      0.6203  0.0000 -0.3058  0.0000  0.3407 -0.0281  0.0000  0.0600
   3.  C 1 (px)     0.0578  0.0000  0.2135  0.0000 -0.2122 -0.0348  0.0000  0.1284
   4.  C 1 (py)    -0.0400  0.0000 -0.0265  0.0000  0.1392 -0.0292  0.0000  0.0952
   5.  C 1 (pz)     0.0000 -0.0234  0.0000  0.0462  0.0000  0.0000 -0.1253  0.0000
   6.  C 1 (s)     -2.9161  0.0000  0.1072  0.0000  0.1400  0.1547  0.0000 -0.4193
   7.  C 1 (px)     0.7876  0.0000 -0.4713  0.0000  0.0254 -0.2724  0.0000  0.4921
   8.  C 1 (py)    -0.6274  0.0000 -0.4487  0.0000 -0.3329 -0.1602  0.0000  0.1332
   9.  C 1 (pz)     0.0000 -0.1317  0.0000 -0.8423  0.0000  0.0000 -0.3032  0.0000
  10.  C 1 (d5)     0.0463  0.0000  0.2807  0.0000  0.5274  0.1480  0.0000 -0.5847
  11.  C 1 (d2)     0.0000  0.0083  0.0000  0.8146  0.0000  0.0000  0.3157  0.0000
  12.  C 1 (d3)     0.0000  0.0844  0.0000  0.0019  0.0000  0.0000  0.6189  0.0000
  13.  C 1 (d4)    -0.1109  0.0000  0.6520  0.0000  0.1288 -0.1264  0.0000  0.1039
  14.  C 1 (d1)     0.0096  0.0000 -0.2226  0.0000  0.4163 -0.2630  0.0000  0.6509
  15.  C 2 (s)     -0.1046  0.0000  0.0059  0.0000 -0.0142 -0.0173  0.0000 -0.0303
  16.  C 2 (s)     -1.2228  0.0000 -0.0746  0.0000  0.3761  0.1548  0.0000  0.0801
  17.  C 2 (px)    -0.1260  0.0000 -0.0478  0.0000  0.2548 -0.2805  0.0000  0.0041
  18.  C 2 (py)    -0.0106  0.0000 -0.0034  0.0000 -0.1420 -0.0636  0.0000 -0.0998
  19.  C 2 (pz)     0.0000  0.0055  0.0000  0.0504  0.0000  0.0000 -0.1177  0.0000
  20.  C 2 (s)      4.9509  0.0000 -0.0316  0.0000 -0.3388  0.3346  0.0000  0.7091
  21.  C 2 (px)    -0.0394  0.0000  0.6711  0.0000 -0.1482  0.0709  0.0000  0.0350
  22.  C 2 (py)    -1.0685  0.0000  0.0738  0.0000  0.5541  0.5665  0.0000 -0.3288
  23.  C 2 (pz)     0.0000  0.4227  0.0000  1.2918  0.0000  0.0000 -0.3423  0.0000
  24.  C 2 (d5)    -0.0868  0.0000  0.0155  0.0000  0.4847  0.6299  0.0000  0.2211
  25.  C 2 (d2)     0.0000  0.0283  0.0000  0.3087  0.0000  0.0000  0.5047  0.0000
  26.  C 2 (d3)     0.0000  0.2103  0.0000  0.2456  0.0000  0.0000 -0.3815  0.0000
  27.  C 2 (d4)     0.1909  0.0000  0.0574  0.0000  0.0971 -0.0094  0.0000 -0.4297
  28.  C 2 (d1)     0.1192  0.0000 -0.2872  0.0000  0.4420 -0.3941  0.0000 -0.1605
  29.  O 3 (s)     -0.0114  0.0000 -0.0182  0.0000  0.0089 -0.0281  0.0000 -0.0172
  30.  O 3 (s)      1.2899  0.0000  0.0199  0.0000 -0.1029  0.5372  0.0000  0.2617
  31.  O 3 (px)    -0.0202  0.0000  0.2345  0.0000 -0.0596  0.2615  0.0000  0.1946
  32.  O 3 (py)     0.1543  0.0000 -0.0761  0.0000 -0.0273  0.2513  0.0000  0.0971
  33.  O 3 (pz)     0.0000  0.0558  0.0000  0.1405  0.0000  0.0000 -0.1110  0.0000
  34.  O 3 (s)     -3.0572  0.0000  0.3863  0.0000  0.2161 -0.5486  0.0000 -0.3791
  35.  O 3 (px)    -0.5621  0.0000 -0.2738  0.0000  0.2226 -0.0791  0.0000 -0.3771
  36.  O 3 (py)    -0.9219  0.0000  0.3577  0.0000 -0.0729 -0.4623  0.0000 -0.0797
  37.  O 3 (pz)     0.0000 -0.1632  0.0000 -0.3777  0.0000  0.0000  0.2968  0.0000
  38.  O 3 (d5)    -0.4249  0.0000 -0.1650  0.0000  0.0218  0.4108  0.0000 -0.0669
  39.  O 3 (d2)     0.0000 -0.6475  0.0000 -0.2447  0.0000  0.0000  0.4122  0.0000
  40.  O 3 (d3)     0.0000  0.7150  0.0000 -0.3637  0.0000  0.0000  0.4144  0.0000
  41.  O 3 (d4)    -0.0248  0.0000 -0.5268  0.0000 -0.1142  0.1996  0.0000 -0.3638
  42.  O 3 (d1)     0.0304  0.0000  0.0856  0.0000  0.1417 -0.1750  0.0000 -0.0915
  43.  H 4 (s)      0.3318  0.0000 -0.1517  0.0000  0.1844  0.2360  0.0000 -0.0754
  44.  H 4 (s)      0.2149  0.0000 -0.0095  0.0000 -0.0520  0.0625  0.0000 -0.0359
  45.  H 5 (s)     -0.3637 -0.1813  0.0173 -0.4656 -0.2131 -0.3381  0.3066 -0.2022
  46.  H 5 (s)     -0.3314 -0.1512 -0.0260 -0.3087  0.0170 -0.1004  0.0368  0.0570
  47.  H 6 (s)     -0.3637  0.1813  0.0173  0.4656 -0.2131 -0.3381 -0.3066 -0.2022
  48.  H 6 (s)     -0.3314  0.1512 -0.0260  0.3087  0.0170 -0.1004 -0.0368  0.0570
  49.  H 7 (s)      0.2579  0.0000  0.1405  0.0000 -0.0590  0.2867  0.0000 -0.6484
  50.  H 7 (s)      0.2223  0.0000  0.2008  0.0000  0.0813  0.0018  0.0000  0.0577
  51.  H 8 (s)      0.1714  0.0360 -0.0143  0.1818 -0.2563 -0.0952  0.4437  0.2731
  52.  H 8 (s)      0.1014  0.0582 -0.1819  0.2178  0.0239 -0.0140 -0.0187 -0.0280
  53.  H 9 (s)      0.1714 -0.0360 -0.0143 -0.1818 -0.2563 -0.0952 -0.4437  0.2731
  54.  H 9 (s)      0.1014 -0.0582 -0.1819 -0.2178  0.0239 -0.0140  0.0187 -0.0280

           AO         49      50      51      52      53      54
      ------------ ------- ------- ------- ------- ------- -------
   1.  C 1 (s)      0.0000 -0.0146  0.0000 -0.0103  0.0498  0.0298
   2.  C 1 (s)      0.0000 -0.0654  0.0000  0.1377  0.0307  0.0578
   3.  C 1 (px)     0.0000 -0.0651  0.0000 -0.1552  0.2617  0.0802
   4.  C 1 (py)     0.0000  0.0878  0.0000  0.0638 -0.2397 -0.1141
   5.  C 1 (pz)    -0.0656  0.0000  0.0737  0.0000  0.0000  0.0000
   6.  C 1 (s)      0.0000  0.6450  0.0000  0.2976 -1.1642 -0.4028
   7.  C 1 (px)     0.0000 -0.1289  0.0000 -0.1754  0.6048  0.2787
   8.  C 1 (py)     0.0000  0.4279  0.0000  0.2376 -0.4438 -0.0852
   9.  C 1 (pz)    -0.2476  0.0000  0.1387  0.0000  0.0000  0.0000
  10.  C 1 (d5)     0.0000 -0.5155  0.0000 -0.2478  0.3618  0.1792
  11.  C 1 (d2)    -0.2472  0.0000 -0.1295  0.0000  0.0000  0.0000
  12.  C 1 (d3)     0.8550  0.0000 -0.3944  0.0000  0.0000  0.0000
  13.  C 1 (d4)     0.0000  0.5642  0.0000  0.3805  0.0914 -0.1481
  14.  C 1 (d1)     0.0000 -0.0398  0.0000 -0.0518  0.7922  0.2501
  15.  C 2 (s)      0.0000  0.0150  0.0000  0.0500 -0.0658  0.0383
  16.  C 2 (s)      0.0000 -0.1821  0.0000  0.0817  0.0782 -0.3191
  17.  C 2 (px)     0.0000 -0.0767  0.0000  0.1473  0.0715  0.7198
  18.  C 2 (py)     0.0000  0.1282  0.0000  0.2281 -0.3302  0.3305
  19.  C 2 (pz)     0.0315  0.0000  0.0568  0.0000  0.0000  0.0000
  20.  C 2 (s)      0.0000 -0.0267  0.0000 -1.4391  1.5976 -0.9696
  21.  C 2 (px)     0.0000 -0.5917  0.0000  0.2551  0.3503  0.8019
  22.  C 2 (py)     0.0000  0.3723  0.0000  0.6482 -0.4728  0.2697
  23.  C 2 (pz)     0.2280  0.0000 -0.1694  0.0000  0.0000  0.0000
  24.  C 2 (d5)     0.0000  0.1136  0.0000  0.5029 -0.5606  0.2807
  25.  C 2 (d2)    -0.3421  0.0000  0.5317  0.0000  0.0000  0.0000
  26.  C 2 (d3)     0.6633  0.0000  0.7676  0.0000  0.0000  0.0000
  27.  C 2 (d4)     0.0000  0.4846  0.0000  0.2930  0.5973 -0.2537
  28.  C 2 (d1)     0.0000  0.2211  0.0000 -0.0978 -0.5420 -0.9206
  29.  O 3 (s)      0.0000  0.0177  0.0000 -0.0240  0.0051 -0.0357
  30.  O 3 (s)      0.0000  0.2902  0.0000 -0.6737  0.2508 -0.5550
  31.  O 3 (px)     0.0000 -0.0725  0.0000 -0.0215  0.0110 -0.0317
  32.  O 3 (py)     0.0000  0.0393  0.0000 -0.0174  0.0477  0.0619
  33.  O 3 (pz)     0.0206  0.0000 -0.0369  0.0000  0.0000  0.0000
  34.  O 3 (s)      0.0000 -0.8398  0.0000  1.8383 -0.6731  1.6775
  35.  O 3 (px)     0.0000  0.4313  0.0000  0.2767 -0.2069  1.3570
  36.  O 3 (py)     0.0000 -0.6254  0.0000  0.5969 -0.3236  0.4713
  37.  O 3 (pz)    -0.0621  0.0000  0.2232  0.0000  0.0000  0.0000
  38.  O 3 (d5)     0.0000  0.4671  0.0000 -0.6588  0.1965 -0.3866
  39.  O 3 (d2)     0.0869  0.0000  0.5942  0.0000  0.0000  0.0000
  40.  O 3 (d3)    -0.1928  0.0000  0.3307  0.0000  0.0000  0.0000
  41.  O 3 (d4)     0.0000  0.2310  0.0000  0.5480  0.2274  0.3509
  42.  O 3 (d1)     0.0000  0.4714  0.0000 -0.4382 -0.3619  1.0448
  43.  H 4 (s)      0.0000  0.8531  0.0000 -0.8965 -0.0122  0.3700
  44.  H 4 (s)      0.0000 -0.0210  0.0000  0.0659  0.1064  0.1672
  45.  H 5 (s)     -0.3539  0.0096 -0.3559 -0.0249  0.1345 -0.0013
  46.  H 5 (s)      0.0785 -0.1470  0.2113  0.0232 -0.1137  0.0839
  47.  H 6 (s)      0.3539  0.0096  0.3559 -0.0249  0.1345 -0.0013
  48.  H 6 (s)     -0.0785 -0.1470 -0.2113  0.0232 -0.1137  0.0839
  49.  H 7 (s)      0.0000 -0.3525  0.0000 -0.1356 -0.1816  0.0014
  50.  H 7 (s)      0.0000  0.0312  0.0000 -0.0208  0.0569 -0.1403
  51.  H 8 (s)      0.4638  0.2562 -0.2377  0.1218 -0.0387 -0.0178
  52.  H 8 (s)     -0.1031 -0.0560  0.0392  0.0779  0.0128  0.0694
  53.  H 9 (s)     -0.4638  0.2562  0.2377  0.1218 -0.0387 -0.0178
  54.  H 9 (s)      0.1031 -0.0560 -0.0392  0.0779  0.0128  0.0694


 AO overlap matrix:

           AO          1       2       3       4       5       6       7       8
      ------------ ------- ------- ------- ------- ------- ------- ------- -------
   1.  C 1 (s)      1.0000  0.2191  0.0000  0.0000  0.0000  0.1843  0.0000  0.0000
   2.  C 1 (s)      0.2191  1.0000  0.0000  0.0000  0.0000  0.8123  0.0000  0.0000
   3.  C 1 (px)     0.0000  0.0000  1.0000  0.0000  0.0000  0.0000  0.5698  0.0000
   4.  C 1 (py)     0.0000  0.0000  0.0000  1.0000  0.0000  0.0000  0.0000  0.5698
   5.  C 1 (pz)     0.0000  0.0000  0.0000  0.0000  1.0000  0.0000  0.0000  0.0000
   6.  C 1 (s)      0.1843  0.8123  0.0000  0.0000  0.0000  1.0000  0.0000  0.0000
   7.  C 1 (px)     0.0000  0.0000  0.5698  0.0000  0.0000  0.0000  1.0000  0.0000
   8.  C 1 (py)     0.0000  0.0000  0.0000  0.5698  0.0000  0.0000  0.0000  1.0000
   9.  C 1 (pz)     0.0000  0.0000  0.0000  0.0000  0.5698  0.0000  0.0000  0.0000
  10.  C 1 (d5)     0.0000  0.0000  0.0000  0.0000  0.0000  0.0000  0.0000  0.0000
  11.  C 1 (d2)     0.0000  0.0000  0.0000  0.0000  0.0000  0.0000  0.0000  0.0000
  12.  C 1 (d3)     0.0000  0.0000  0.0000  0.0000  0.0000  0.0000  0.0000  0.0000
  13.  C 1 (d4)     0.0000  0.0000  0.0000  0.0000  0.0000  0.0000  0.0000  0.0000
  14.  C 1 (d1)     0.0000  0.0000  0.0000  0.0000  0.0000  0.0000  0.0000  0.0000
  15.  C 2 (s)      0.0000  0.0086 -0.0162  0.0133  0.0000  0.0488 -0.0854  0.0701
  16.  C 2 (s)      0.0086  0.1314 -0.1537  0.1263  0.0000  0.2899 -0.3943  0.3240
  17.  C 2 (px)     0.0162  0.1537 -0.1305  0.1647  0.0000  0.1760 -0.0549  0.2046
  18.  C 2 (py)    -0.0133 -0.1263  0.1647 -0.0654  0.0000 -0.1446  0.2046  0.0260
  19.  C 2 (pz)     0.0000  0.0000  0.0000  0.0000  0.0699  0.0000  0.0000  0.0000
  20.  C 2 (s)      0.0488  0.2899 -0.1760  0.1446  0.0000  0.5023 -0.4554  0.3742
  21.  C 2 (px)     0.0854  0.3943 -0.0549  0.2046  0.0000  0.4554  0.0893  0.3393
  22.  C 2 (py)    -0.0701 -0.3240  0.2046  0.0260  0.0000 -0.3742  0.3393  0.2235
  23.  C 2 (pz)     0.0000  0.0000  0.0000  0.0000  0.1941  0.0000  0.0000  0.0000
  24.  C 2 (d5)    -0.0103 -0.0915  0.0920 -0.0756  0.0000 -0.0485  0.0088 -0.0072
  25.  C 2 (d2)     0.0000  0.0000  0.0000  0.0000  0.0881  0.0000  0.0000  0.0000
  26.  C 2 (d3)     0.0000  0.0000  0.0000  0.0000 -0.0724  0.0000  0.0000  0.0000
  27.  C 2 (d4)     0.0035  0.0307  0.0401  0.1118  0.0000  0.0163  0.0861  0.1108
  28.  C 2 (d1)    -0.0175 -0.1555  0.1704 -0.1114  0.0000 -0.0823  0.0325  0.0092
  29.  O 3 (s)      0.0000  0.0000  0.0000  0.0000  0.0000  0.0044 -0.0158  0.0012
  30.  O 3 (s)      0.0000  0.0010 -0.0028  0.0002  0.0000  0.0349 -0.1088  0.0080
  31.  O 3 (px)     0.0000  0.0021 -0.0055  0.0004  0.0000  0.0332 -0.0870  0.0077
  32.  O 3 (py)     0.0000 -0.0002  0.0004  0.0004  0.0000 -0.0024  0.0077  0.0176
  33.  O 3 (pz)     0.0000  0.0000  0.0000  0.0000  0.0004  0.0000  0.0000  0.0000
  34.  O 3 (s)      0.0016  0.0275 -0.0428  0.0031  0.0000  0.1207 -0.2720  0.0199
  35.  O 3 (px)     0.0069  0.0843 -0.1163  0.0099  0.0000  0.2150 -0.3670  0.0355
  36.  O 3 (py)    -0.0005 -0.0062  0.0099  0.0178  0.0000 -0.0157  0.0355  0.1149
  37.  O 3 (pz)     0.0000  0.0000  0.0000  0.0000  0.0185  0.0000  0.0000  0.0000
  38.  O 3 (d5)     0.0000 -0.0052  0.0114 -0.0008  0.0000 -0.0229  0.0443 -0.0032
  39.  O 3 (d2)     0.0000  0.0000  0.0000  0.0000  0.0036  0.0000  0.0000  0.0000
  40.  O 3 (d3)     0.0000  0.0000  0.0000  0.0000 -0.0003  0.0000  0.0000  0.0000
  41.  O 3 (d4)     0.0000  0.0089 -0.0194  0.0019  0.0000  0.0392 -0.0755  0.0118
  42.  O 3 (d1)     0.0000 -0.0013  0.0031  0.0033  0.0000 -0.0058  0.0143  0.0418
  43.  H 4 (s)      0.0000  0.0000 -0.0001  0.0000  0.0000  0.0046 -0.0177  0.0044
  44.  H 4 (s)      0.0006  0.0087 -0.0123  0.0031  0.0000  0.0480 -0.1134  0.0285
  45.  H 5 (s)      0.0000  0.0071 -0.0081  0.0116  0.0064  0.0707 -0.0992  0.1417
  46.  H 5 (s)      0.0135  0.1053 -0.0574  0.0820  0.0453  0.2550 -0.2178  0.3111
  47.  H 6 (s)      0.0000  0.0071 -0.0081  0.0116 -0.0064  0.0707 -0.0992  0.1417
  48.  H 6 (s)      0.0135  0.1053 -0.0574  0.0820 -0.0453  0.2550 -0.2178  0.3111
  49.  H 7 (s)      0.0323  0.2716  0.3183  0.1831  0.0000  0.3757  0.4462  0.2567
  50.  H 7 (s)      0.0918  0.4746  0.2303  0.1325  0.0000  0.7030  0.5055  0.2908
  51.  H 8 (s)      0.0325  0.2726 -0.0134 -0.2148  0.2988  0.3763 -0.0187 -0.3003
  52.  H 8 (s)      0.0920  0.4753 -0.0096 -0.1550  0.2156  0.7037 -0.0211 -0.3400
  53.  H 9 (s)      0.0325  0.2726 -0.0134 -0.2148 -0.2988  0.3763 -0.0187 -0.3003
  54.  H 9 (s)      0.0920  0.4753 -0.0096 -0.1550 -0.2156  0.7037 -0.0211 -0.3400

           AO          9      10      11      12      13      14      15      16
      ------------ ------- ------- ------- ------- ------- ------- ------- -------
   1.  C 1 (s)      0.0000  0.0000  0.0000  0.0000  0.0000  0.0000  0.0000  0.0086
   2.  C 1 (s)      0.0000  0.0000  0.0000  0.0000  0.0000  0.0000  0.0086  0.1314
   3.  C 1 (px)     0.0000  0.0000  0.0000  0.0000  0.0000  0.0000 -0.0162 -0.1537
   4.  C 1 (py)     0.0000  0.0000  0.0000  0.0000  0.0000  0.0000  0.0133  0.1263
   5.  C 1 (pz)     0.5698  0.0000  0.0000  0.0000  0.0000  0.0000  0.0000  0.0000
   6.  C 1 (s)      0.0000  0.0000  0.0000  0.0000  0.0000  0.0000  0.0488  0.2899
   7.  C 1 (px)     0.0000  0.0000  0.0000  0.0000  0.0000  0.0000 -0.0854 -0.3943
   8.  C 1 (py)     0.0000  0.0000  0.0000  0.0000  0.0000  0.0000  0.0701  0.3240
   9.  C 1 (pz)     1.0000  0.0000  0.0000  0.0000  0.0000  0.0000  0.0000  0.0000
  10.  C 1 (d5)     0.0000  1.0000  0.0000  0.0000  0.0000  0.0000 -0.0103 -0.0915
  11.  C 1 (d2)     0.0000  0.0000  1.0000  0.0000  0.0000  0.0000  0.0000  0.0000
  12.  C 1 (d3)     0.0000  0.0000  0.0000  1.0000  0.0000  0.0000  0.0000  0.0000
  13.  C 1 (d4)     0.0000  0.0000  0.0000  0.0000  1.0000  0.0000  0.0035  0.0307
  14.  C 1 (d1)     0.0000  0.0000  0.0000  0.0000  0.0000  1.0000 -0.0175 -0.1555
  15.  C 2 (s)      0.0000 -0.0103  0.0000  0.0000  0.0035 -0.0175  1.0000  0.2191
  16.  C 2 (s)      0.0000 -0.0915  0.0000  0.0000  0.0307 -0.1555  0.2191  1.0000
  17.  C 2 (px)     0.0000 -0.0920  0.0000  0.0000 -0.0401 -0.1704  0.0000  0.0000
  18.  C 2 (py)     0.0000  0.0756  0.0000  0.0000 -0.1118  0.1114  0.0000  0.0000
  19.  C 2 (pz)     0.1941  0.0000 -0.0881  0.0724  0.0000  0.0000  0.0000  0.0000
  20.  C 2 (s)      0.0000 -0.0485  0.0000  0.0000  0.0163 -0.0823  0.1843  0.8123
  21.  C 2 (px)     0.0000 -0.0088  0.0000  0.0000 -0.0861 -0.0325  0.0000  0.0000
  22.  C 2 (py)     0.0000  0.0072  0.0000  0.0000 -0.1108 -0.0092  0.0000  0.0000
  23.  C 2 (pz)     0.5023  0.0000 -0.1105  0.0908  0.0000  0.0000  0.0000  0.0000
  24.  C 2 (d5)     0.0000  0.0908  0.0000  0.0000 -0.0177  0.0894  0.0000  0.0000
  25.  C 2 (d2)     0.1105  0.0000 -0.1107  0.1223  0.0000  0.0000  0.0000  0.0000
  26.  C 2 (d3)    -0.0908  0.0000  0.1223 -0.0623  0.0000  0.0000  0.0000  0.0000
  27.  C 2 (d4)     0.0000 -0.0177  0.0000  0.0000 -0.1959 -0.0775  0.0000  0.0000
  28.  C 2 (d1)     0.0000  0.0894  0.0000  0.0000 -0.0775  0.1806  0.0000  0.0000
  29.  O 3 (s)      0.0000  0.0000  0.0000  0.0000  0.0000  0.0000  0.0000  0.0075
  30.  O 3 (s)      0.0000 -0.0009  0.0000  0.0000  0.0015 -0.0002  0.0016  0.0866
  31.  O 3 (px)     0.0000 -0.0020  0.0000  0.0000  0.0033 -0.0005  0.0037  0.0984
  32.  O 3 (py)     0.0000  0.0001  0.0000  0.0000 -0.0003 -0.0004  0.0024  0.0651
  33.  O 3 (pz)     0.0181  0.0000 -0.0004  0.0000  0.0000  0.0000  0.0000  0.0000
  34.  O 3 (s)      0.0000 -0.0169  0.0000  0.0000  0.0289 -0.0043  0.0398  0.2619
  35.  O 3 (px)     0.0000 -0.0440  0.0000  0.0000  0.0751 -0.0129  0.0878  0.3989
  36.  O 3 (py)     0.0000  0.0032  0.0000  0.0000 -0.0092 -0.0241  0.0581  0.2639
  37.  O 3 (pz)     0.1175  0.0000 -0.0251  0.0018  0.0000  0.0000  0.0000  0.0000
  38.  O 3 (d5)     0.0000  0.0058  0.0000  0.0000 -0.0093  0.0014 -0.0168 -0.1069
  39.  O 3 (d2)     0.0431  0.0000 -0.0051  0.0004  0.0000  0.0000  0.0000  0.0000
  40.  O 3 (d3)    -0.0032  0.0000  0.0004  0.0003  0.0000  0.0000  0.0000  0.0000
  41.  O 3 (d4)     0.0000 -0.0093  0.0000  0.0000  0.0161 -0.0031  0.0114  0.0724
  42.  O 3 (d1)     0.0000  0.0014  0.0000  0.0000 -0.0031 -0.0046  0.0268  0.1703
  43.  H 4 (s)      0.0000  0.0000  0.0000  0.0000  0.0000  0.0000  0.0002  0.0169
  44.  H 4 (s)      0.0000 -0.0044  0.0000  0.0000  0.0067 -0.0036  0.0213  0.1507
  45.  H 5 (s)      0.0782 -0.0033 -0.0051  0.0072 -0.0033 -0.0092  0.0314  0.2679
  46.  H 5 (s)      0.1716 -0.0148 -0.0225  0.0321 -0.0148 -0.0407  0.0912  0.4719
  47.  H 6 (s)     -0.0782 -0.0033  0.0051 -0.0072 -0.0033 -0.0092  0.0314  0.2679
  48.  H 6 (s)     -0.1716 -0.0148  0.0225 -0.0321 -0.0148 -0.0407  0.0912  0.4719
  49.  H 7 (s)      0.0000 -0.1685  0.0000  0.0000  0.1467  0.2522  0.0000  0.0071
  50.  H 7 (s)      0.0000 -0.0404  0.0000  0.0000  0.0352  0.0605  0.0135  0.1049
  51.  H 8 (s)      0.4178  0.1646 -0.0172 -0.2768 -0.0991  0.0124  0.0000  0.0074
  52.  H 8 (s)      0.4730  0.0394 -0.0041 -0.0662 -0.0237  0.0030  0.0138  0.1068
  53.  H 9 (s)     -0.4178  0.1646  0.0172  0.2768 -0.0991  0.0124  0.0000  0.0074
  54.  H 9 (s)     -0.4730  0.0394  0.0041  0.0662 -0.0237  0.0030  0.0138  0.1068

           AO         17      18      19      20      21      22      23      24
      ------------ ------- ------- ------- ------- ------- ------- ------- -------
   1.  C 1 (s)      0.0162 -0.0133  0.0000  0.0488  0.0854 -0.0701  0.0000 -0.0103
   2.  C 1 (s)      0.1537 -0.1263  0.0000  0.2899  0.3943 -0.3240  0.0000 -0.0915
   3.  C 1 (px)    -0.1305  0.1647  0.0000 -0.1760 -0.0549  0.2046  0.0000  0.0920
   4.  C 1 (py)     0.1647 -0.0654  0.0000  0.1446  0.2046  0.0260  0.0000 -0.0756
   5.  C 1 (pz)     0.0000  0.0000  0.0699  0.0000  0.0000  0.0000  0.1941  0.0000
   6.  C 1 (s)      0.1760 -0.1446  0.0000  0.5023  0.4554 -0.3742  0.0000 -0.0485
   7.  C 1 (px)    -0.0549  0.2046  0.0000 -0.4554  0.0893  0.3393  0.0000  0.0088
   8.  C 1 (py)     0.2046  0.0260  0.0000  0.3742  0.3393  0.2235  0.0000 -0.0072
   9.  C 1 (pz)     0.0000  0.0000  0.1941  0.0000  0.0000  0.0000  0.5023  0.0000
  10.  C 1 (d5)    -0.0920  0.0756  0.0000 -0.0485 -0.0088  0.0072  0.0000  0.0908
  11.  C 1 (d2)     0.0000  0.0000 -0.0881  0.0000  0.0000  0.0000 -0.1105  0.0000
  12.  C 1 (d3)     0.0000  0.0000  0.0724  0.0000  0.0000  0.0000  0.0908  0.0000
  13.  C 1 (d4)    -0.0401 -0.1118  0.0000  0.0163 -0.0861 -0.1108  0.0000 -0.0177
  14.  C 1 (d1)    -0.1704  0.1114  0.0000 -0.0823 -0.0325 -0.0092  0.0000  0.0894
  15.  C 2 (s)      0.0000  0.0000  0.0000  0.1843  0.0000  0.0000  0.0000  0.0000
  16.  C 2 (s)      0.0000  0.0000  0.0000  0.8123  0.0000  0.0000  0.0000  0.0000
  17.  C 2 (px)     1.0000  0.0000  0.0000  0.0000  0.5698  0.0000  0.0000  0.0000
  18.  C 2 (py)     0.0000  1.0000  0.0000  0.0000  0.0000  0.5698  0.0000  0.0000
  19.  C 2 (pz)     0.0000  0.0000  1.0000  0.0000  0.0000  0.0000  0.5698  0.0000
  20.  C 2 (s)      0.0000  0.0000  0.0000  1.0000  0.0000  0.0000  0.0000  0.0000
  21.  C 2 (px)     0.5698  0.0000  0.0000  0.0000  1.0000  0.0000  0.0000  0.0000
  22.  C 2 (py)     0.0000  0.5698  0.0000  0.0000  0.0000  1.0000  0.0000  0.0000
  23.  C 2 (pz)     0.0000  0.0000  0.5698  0.0000  0.0000  0.0000  1.0000  0.0000
  24.  C 2 (d5)     0.0000  0.0000  0.0000  0.0000  0.0000  0.0000  0.0000  1.0000
  25.  C 2 (d2)     0.0000  0.0000  0.0000  0.0000  0.0000  0.0000  0.0000  0.0000
  26.  C 2 (d3)     0.0000  0.0000  0.0000  0.0000  0.0000  0.0000  0.0000  0.0000
  27.  C 2 (d4)     0.0000  0.0000  0.0000  0.0000  0.0000  0.0000  0.0000  0.0000
  28.  C 2 (d1)     0.0000  0.0000  0.0000  0.0000  0.0000  0.0000  0.0000  0.0000
  29.  O 3 (s)     -0.0153 -0.0101  0.0000  0.0360 -0.0651 -0.0431  0.0000 -0.0096
  30.  O 3 (s)     -0.1280 -0.0847  0.0000  0.2158 -0.3389 -0.2242  0.0000 -0.0863
  31.  O 3 (px)    -0.1164 -0.1044  0.0000  0.1071 -0.0557 -0.1135  0.0000 -0.0921
  32.  O 3 (py)    -0.1044 -0.0276  0.0000  0.0708 -0.1135  0.0408  0.0000 -0.0609
  33.  O 3 (pz)     0.0000  0.0000  0.0415  0.0000  0.0000  0.0000  0.1160  0.0000
  34.  O 3 (s)     -0.2261 -0.1496  0.0000  0.4511 -0.5130 -0.3393  0.0000 -0.0798
  35.  O 3 (px)    -0.1718 -0.2417  0.0000  0.4055 -0.0221 -0.3049  0.0000 -0.0444
  36.  O 3 (py)    -0.2417  0.0337  0.0000  0.2682 -0.3049  0.2373  0.0000 -0.0294
  37.  O 3 (pz)     0.0000  0.0000  0.1935  0.0000  0.0000  0.0000  0.4390  0.0000
  38.  O 3 (d5)     0.1083  0.0716  0.0000 -0.0489  0.0010  0.0006  0.0000  0.1026
  39.  O 3 (d2)     0.0000  0.0000  0.1223  0.0000  0.0000  0.0000  0.1275  0.0000
  40.  O 3 (d3)     0.0000  0.0000  0.0809  0.0000  0.0000  0.0000  0.0843  0.0000
  41.  O 3 (d4)     0.0011 -0.1611  0.0000  0.0331  0.0769 -0.1177  0.0000 -0.0326
  42.  O 3 (d1)    -0.2042 -0.0663  0.0000  0.0779 -0.0345  0.0489  0.0000 -0.0766
  43.  H 4 (s)     -0.0338 -0.0031  0.0000  0.1050 -0.2553 -0.0233  0.0000 -0.0160
  44.  H 4 (s)     -0.1438 -0.0131  0.0000  0.3245 -0.4792 -0.0438  0.0000 -0.0367
  45.  H 5 (s)      0.0141  0.2143  0.2933  0.3733  0.0199  0.3032  0.4149  0.1593
  46.  H 5 (s)      0.0103  0.1565  0.2143  0.7003  0.0226  0.3443  0.4713  0.0387
  47.  H 6 (s)      0.0141  0.2143 -0.2933  0.3733  0.0199  0.3032 -0.4149  0.1593
  48.  H 6 (s)      0.0103  0.1565 -0.2143  0.7003  0.0226  0.3443 -0.4713  0.0387
  49.  H 7 (s)      0.0150 -0.0029  0.0000  0.0704  0.1856 -0.0364  0.0000 -0.0067
  50.  H 7 (s)      0.1075 -0.0211  0.0000  0.2543  0.4082 -0.0800  0.0000 -0.0300
  51.  H 8 (s)      0.0084 -0.0119  0.0066  0.0718  0.1010 -0.1429  0.0793 -0.0034
  52.  H 8 (s)      0.0584 -0.0826  0.0458  0.2574  0.2204 -0.3118  0.1730 -0.0149
  53.  H 9 (s)      0.0084 -0.0119 -0.0066  0.0718  0.1010 -0.1429 -0.0793 -0.0034
  54.  H 9 (s)      0.0584 -0.0826 -0.0458  0.2574  0.2204 -0.3118 -0.1730 -0.0149

           AO         25      26      27      28      29      30      31      32
      ------------ ------- ------- ------- ------- ------- ------- ------- -------
   1.  C 1 (s)      0.0000  0.0000  0.0035 -0.0175  0.0000  0.0000  0.0000  0.0000
   2.  C 1 (s)      0.0000  0.0000  0.0307 -0.1555  0.0000  0.0010  0.0021 -0.0002
   3.  C 1 (px)     0.0000  0.0000  0.0401  0.1704  0.0000 -0.0028 -0.0055  0.0004
   4.  C 1 (py)     0.0000  0.0000  0.1118 -0.1114  0.0000  0.0002  0.0004  0.0004
   5.  C 1 (pz)     0.0881 -0.0724  0.0000  0.0000  0.0000  0.0000  0.0000  0.0000
   6.  C 1 (s)      0.0000  0.0000  0.0163 -0.0823  0.0044  0.0349  0.0332 -0.0024
   7.  C 1 (px)     0.0000  0.0000  0.0861  0.0325 -0.0158 -0.1088 -0.0870  0.0077
   8.  C 1 (py)     0.0000  0.0000  0.1108  0.0092  0.0012  0.0080  0.0077  0.0176
   9.  C 1 (pz)     0.1105 -0.0908  0.0000  0.0000  0.0000  0.0000  0.0000  0.0000
  10.  C 1 (d5)     0.0000  0.0000 -0.0177  0.0894  0.0000 -0.0009 -0.0020  0.0001
  11.  C 1 (d2)    -0.1107  0.1223  0.0000  0.0000  0.0000  0.0000  0.0000  0.0000
  12.  C 1 (d3)     0.1223 -0.0623  0.0000  0.0000  0.0000  0.0000  0.0000  0.0000
  13.  C 1 (d4)     0.0000  0.0000 -0.1959 -0.0775  0.0000  0.0015  0.0033 -0.0003
  14.  C 1 (d1)     0.0000  0.0000 -0.0775  0.1806  0.0000 -0.0002 -0.0005 -0.0004
  15.  C 2 (s)      0.0000  0.0000  0.0000  0.0000  0.0000  0.0016  0.0037  0.0024
  16.  C 2 (s)      0.0000  0.0000  0.0000  0.0000  0.0075  0.0866  0.0984  0.0651
  17.  C 2 (px)     0.0000  0.0000  0.0000  0.0000 -0.0153 -0.1280 -0.1164 -0.1044
  18.  C 2 (py)     0.0000  0.0000  0.0000  0.0000 -0.0101 -0.0847 -0.1044 -0.0276
  19.  C 2 (pz)     0.0000  0.0000  0.0000  0.0000  0.0000  0.0000  0.0000  0.0000
  20.  C 2 (s)      0.0000  0.0000  0.0000  0.0000  0.0360  0.2158  0.1071  0.0708
  21.  C 2 (px)     0.0000  0.0000  0.0000  0.0000 -0.0651 -0.3389 -0.0557 -0.1135
  22.  C 2 (py)     0.0000  0.0000  0.0000  0.0000 -0.0431 -0.2242 -0.1135  0.0408
  23.  C 2 (pz)     0.0000  0.0000  0.0000  0.0000  0.0000  0.0000  0.0000  0.0000
  24.  C 2 (d5)     0.0000  0.0000  0.0000  0.0000 -0.0096 -0.0863 -0.0921 -0.0609
  25.  C 2 (d2)     1.0000  0.0000  0.0000  0.0000  0.0000  0.0000  0.0000  0.0000
  26.  C 2 (d3)     0.0000  1.0000  0.0000  0.0000  0.0000  0.0000  0.0000  0.0000
  27.  C 2 (d4)     0.0000  0.0000  1.0000  0.0000  0.0065  0.0585  0.0214  0.1033
  28.  C 2 (d1)     0.0000  0.0000  0.0000  1.0000  0.0152  0.1376  0.1643  0.0707
  29.  O 3 (s)      0.0000  0.0000  0.0065  0.0152  1.0000  0.2337  0.0000  0.0000
  30.  O 3 (s)      0.0000  0.0000  0.0585  0.1376  0.2337  1.0000  0.0000  0.0000
  31.  O 3 (px)     0.0000  0.0000  0.0214  0.1643  0.0000  0.0000  1.0000  0.0000
  32.  O 3 (py)     0.0000  0.0000  0.1033  0.0707  0.0000  0.0000  0.0000  1.0000
  33.  O 3 (pz)    -0.0674 -0.0446  0.0000  0.0000  0.0000  0.0000  0.0000  0.0000
  34.  O 3 (s)      0.0000  0.0000  0.0541  0.1272  0.1673  0.7636  0.0000  0.0000
  35.  O 3 (px)     0.0000  0.0000 -0.0700  0.1134  0.0000  0.0000  0.5015  0.0000
  36.  O 3 (py)     0.0000  0.0000  0.1714 -0.0176  0.0000  0.0000  0.0000  0.5015
  37.  O 3 (pz)    -0.1646 -0.1088  0.0000  0.0000  0.0000  0.0000  0.0000  0.0000
  38.  O 3 (d5)     0.0000  0.0000 -0.0326 -0.0766  0.0000  0.0000  0.0000  0.0000
  39.  O 3 (d2)    -0.1663 -0.1461  0.0000  0.0000  0.0000  0.0000  0.0000  0.0000
  40.  O 3 (d3)    -0.1461 -0.0420  0.0000  0.0000  0.0000  0.0000  0.0000  0.0000
  41.  O 3 (d4)     0.0000  0.0000 -0.1922  0.1662  0.0000  0.0000  0.0000  0.0000
  42.  O 3 (d1)     0.0000  0.0000  0.1662  0.1280  0.0000  0.0000  0.0000  0.0000
  43.  H 4 (s)      0.0000  0.0000  0.0272  0.0050  0.0331  0.2395 -0.2177  0.1753
  44.  H 4 (s)      0.0000  0.0000  0.0625  0.0115  0.0680  0.3754 -0.1152  0.0928
  45.  H 5 (s)      0.0181  0.2754 -0.1002  0.0132  0.0000  0.0019  0.0023  0.0027
  46.  H 5 (s)      0.0044  0.0669 -0.0243  0.0032  0.0098  0.0695  0.0336  0.0392
  47.  H 6 (s)     -0.0181 -0.2754 -0.1002  0.0132  0.0000  0.0019  0.0023  0.0027
  48.  H 6 (s)     -0.0044 -0.0669 -0.0243  0.0032  0.0098  0.0695  0.0336  0.0392
  49.  H 7 (s)      0.0000  0.0000  0.0108 -0.0044  0.0000  0.0000  0.0000  0.0000
  50.  H 7 (s)      0.0000  0.0000  0.0482 -0.0196  0.0002  0.0025  0.0031  0.0004
  51.  H 8 (s)      0.0053 -0.0075 -0.0034 -0.0095  0.0000  0.0001  0.0001  0.0000
  52.  H 8 (s)      0.0228 -0.0323 -0.0146 -0.0411  0.0025  0.0207  0.0185 -0.0065
  53.  H 9 (s)     -0.0053  0.0075 -0.0034 -0.0095  0.0000  0.0001  0.0001  0.0000
  54.  H 9 (s)     -0.0228  0.0323 -0.0146 -0.0411  0.0025  0.0207  0.0185 -0.0065

           AO         33      34      35      36      37      38      39      40
      ------------ ------- ------- ------- ------- ------- ------- ------- -------
   1.  C 1 (s)      0.0000  0.0016  0.0069 -0.0005  0.0000  0.0000  0.0000  0.0000
   2.  C 1 (s)      0.0000  0.0275  0.0843 -0.0062  0.0000 -0.0052  0.0000  0.0000
   3.  C 1 (px)     0.0000 -0.0428 -0.1163  0.0099  0.0000  0.0114  0.0000  0.0000
   4.  C 1 (py)     0.0000  0.0031  0.0099  0.0178  0.0000 -0.0008  0.0000  0.0000
   5.  C 1 (pz)     0.0004  0.0000  0.0000  0.0000  0.0185  0.0000  0.0036 -0.0003
   6.  C 1 (s)      0.0000  0.1207  0.2150 -0.0157  0.0000 -0.0229  0.0000  0.0000
   7.  C 1 (px)     0.0000 -0.2720 -0.3670  0.0355  0.0000  0.0443  0.0000  0.0000
   8.  C 1 (py)     0.0000  0.0199  0.0355  0.1149  0.0000 -0.0032  0.0000  0.0000
   9.  C 1 (pz)     0.0181  0.0000  0.0000  0.0000  0.1175  0.0000  0.0431 -0.0032
  10.  C 1 (d5)     0.0000 -0.0169 -0.0440  0.0032  0.0000  0.0058  0.0000  0.0000
  11.  C 1 (d2)    -0.0004  0.0000  0.0000  0.0000 -0.0251  0.0000 -0.0051  0.0004
  12.  C 1 (d3)     0.0000  0.0000  0.0000  0.0000  0.0018  0.0000  0.0004  0.0003
  13.  C 1 (d4)     0.0000  0.0289  0.0751 -0.0092  0.0000 -0.0093  0.0000  0.0000
  14.  C 1 (d1)     0.0000 -0.0043 -0.0129 -0.0241  0.0000  0.0014  0.0000  0.0000
  15.  C 2 (s)      0.0000  0.0398  0.0878  0.0581  0.0000 -0.0168  0.0000  0.0000
  16.  C 2 (s)      0.0000  0.2619  0.3989  0.2639  0.0000 -0.1069  0.0000  0.0000
  17.  C 2 (px)     0.0000 -0.2261 -0.1718 -0.2417  0.0000  0.1083  0.0000  0.0000
  18.  C 2 (py)     0.0000 -0.1496 -0.2417  0.0337  0.0000  0.0716  0.0000  0.0000
  19.  C 2 (pz)     0.0415  0.0000  0.0000  0.0000  0.1935  0.0000  0.1223  0.0809
  20.  C 2 (s)      0.0000  0.4511  0.4055  0.2682  0.0000 -0.0489  0.0000  0.0000
  21.  C 2 (px)     0.0000 -0.5130 -0.0221 -0.3049  0.0000  0.0010  0.0000  0.0000
  22.  C 2 (py)     0.0000 -0.3393 -0.3049  0.2373  0.0000  0.0006  0.0000  0.0000
  23.  C 2 (pz)     0.1160  0.0000  0.0000  0.0000  0.4390  0.0000  0.1275  0.0843
  24.  C 2 (d5)     0.0000 -0.0798 -0.0444 -0.0294  0.0000  0.1026  0.0000  0.0000
  25.  C 2 (d2)    -0.0674  0.0000  0.0000  0.0000 -0.1646  0.0000 -0.1663 -0.1461
  26.  C 2 (d3)    -0.0446  0.0000  0.0000  0.0000 -0.1088  0.0000 -0.1461 -0.0420
  27.  C 2 (d4)     0.0000  0.0541 -0.0700  0.1714  0.0000 -0.0326  0.0000  0.0000
  28.  C 2 (d1)     0.0000  0.1272  0.1134 -0.0176  0.0000 -0.0766  0.0000  0.0000
  29.  O 3 (s)      0.0000  0.1673  0.0000  0.0000  0.0000  0.0000  0.0000  0.0000
  30.  O 3 (s)      0.0000  0.7636  0.0000  0.0000  0.0000  0.0000  0.0000  0.0000
  31.  O 3 (px)     0.0000  0.0000  0.5015  0.0000  0.0000  0.0000  0.0000  0.0000
  32.  O 3 (py)     0.0000  0.0000  0.0000  0.5015  0.0000  0.0000  0.0000  0.0000
  33.  O 3 (pz)     1.0000  0.0000  0.0000  0.0000  0.5015  0.0000  0.0000  0.0000
  34.  O 3 (s)      0.0000  1.0000  0.0000  0.0000  0.0000  0.0000  0.0000  0.0000
  35.  O 3 (px)     0.0000  0.0000  1.0000  0.0000  0.0000  0.0000  0.0000  0.0000
  36.  O 3 (py)     0.0000  0.0000  0.0000  1.0000  0.0000  0.0000  0.0000  0.0000
  37.  O 3 (pz)     0.5015  0.0000  0.0000  0.0000  1.0000  0.0000  0.0000  0.0000
  38.  O 3 (d5)     0.0000  0.0000  0.0000  0.0000  0.0000  1.0000  0.0000  0.0000
  39.  O 3 (d2)     0.0000  0.0000  0.0000  0.0000  0.0000  0.0000  1.0000  0.0000
  40.  O 3 (d3)     0.0000  0.0000  0.0000  0.0000  0.0000  0.0000  0.0000  1.0000
  41.  O 3 (d4)     0.0000  0.0000  0.0000  0.0000  0.0000  0.0000  0.0000  0.0000
  42.  O 3 (d1)     0.0000  0.0000  0.0000  0.0000  0.0000  0.0000  0.0000  0.0000
  43.  H 4 (s)      0.0000  0.4197 -0.4527  0.3646  0.0000 -0.1924  0.0000  0.0000
  44.  H 4 (s)      0.0000  0.6774 -0.3764  0.3031  0.0000 -0.0360  0.0000  0.0000
  45.  H 5 (s)      0.0017  0.0390  0.0675  0.0786  0.0486 -0.0042  0.0079  0.0092
  46.  H 5 (s)      0.0242  0.1972  0.1785  0.2079  0.1285 -0.0148  0.0280  0.0326
  47.  H 6 (s)     -0.0017  0.0390  0.0675  0.0786 -0.0486 -0.0042 -0.0079 -0.0092
  48.  H 6 (s)     -0.0242  0.1972  0.1785  0.2079 -0.1285 -0.0148 -0.0280 -0.0326
  49.  H 7 (s)      0.0000  0.0004  0.0018  0.0002  0.0000  0.0000  0.0000  0.0000
  50.  H 7 (s)      0.0000  0.0176  0.0427  0.0048  0.0000 -0.0033  0.0000  0.0000
  51.  H 8 (s)      0.0001  0.0072  0.0234 -0.0082  0.0089 -0.0004  0.0007 -0.0002
  52.  H 8 (s)      0.0071  0.0815  0.1388 -0.0485  0.0530 -0.0102  0.0163 -0.0057
  53.  H 9 (s)     -0.0001  0.0072  0.0234 -0.0082 -0.0089 -0.0004 -0.0007  0.0002
  54.  H 9 (s)     -0.0071  0.0815  0.1388 -0.0485 -0.0530 -0.0102 -0.0163  0.0057

           AO         41      42      43      44      45      46      47      48
      ------------ ------- ------- ------- ------- ------- ------- ------- -------
   1.  C 1 (s)      0.0000  0.0000  0.0000  0.0006  0.0000  0.0135  0.0000  0.0135
   2.  C 1 (s)      0.0089 -0.0013  0.0000  0.0087  0.0071  0.1053  0.0071  0.1053
   3.  C 1 (px)    -0.0194  0.0031 -0.0001 -0.0123 -0.0081 -0.0574 -0.0081 -0.0574
   4.  C 1 (py)     0.0019  0.0033  0.0000  0.0031  0.0116  0.0820  0.0116  0.0820
   5.  C 1 (pz)     0.0000  0.0000  0.0000  0.0000  0.0064  0.0453 -0.0064 -0.0453
   6.  C 1 (s)      0.0392 -0.0058  0.0046  0.0480  0.0707  0.2550  0.0707  0.2550
   7.  C 1 (px)    -0.0755  0.0143 -0.0177 -0.1134 -0.0992 -0.2178 -0.0992 -0.2178
   8.  C 1 (py)     0.0118  0.0418  0.0044  0.0285  0.1417  0.3111  0.1417  0.3111
   9.  C 1 (pz)     0.0000  0.0000  0.0000  0.0000  0.0782  0.1716 -0.0782 -0.1716
  10.  C 1 (d5)    -0.0093  0.0014  0.0000 -0.0044 -0.0033 -0.0148 -0.0033 -0.0148
  11.  C 1 (d2)     0.0000  0.0000  0.0000  0.0000 -0.0051 -0.0225  0.0051  0.0225
  12.  C 1 (d3)     0.0000  0.0000  0.0000  0.0000  0.0072  0.0321 -0.0072 -0.0321
  13.  C 1 (d4)     0.0161 -0.0031  0.0000  0.0067 -0.0033 -0.0148 -0.0033 -0.0148
  14.  C 1 (d1)    -0.0031 -0.0046  0.0000 -0.0036 -0.0092 -0.0407 -0.0092 -0.0407
  15.  C 2 (s)      0.0114  0.0268  0.0002  0.0213  0.0314  0.0912  0.0314  0.0912
  16.  C 2 (s)      0.0724  0.1703  0.0169  0.1507  0.2679  0.4719  0.2679  0.4719
  17.  C 2 (px)     0.0011 -0.2042 -0.0338 -0.1438  0.0141  0.0103  0.0141  0.0103
  18.  C 2 (py)    -0.1611 -0.0663 -0.0031 -0.0131  0.2143  0.1565  0.2143  0.1565
  19.  C 2 (pz)     0.0000  0.0000  0.0000  0.0000  0.2933  0.2143 -0.2933 -0.2143
  20.  C 2 (s)      0.0331  0.0779  0.1050  0.3245  0.3733  0.7003  0.3733  0.7003
  21.  C 2 (px)     0.0769 -0.0345 -0.2553 -0.4792  0.0199  0.0226  0.0199  0.0226
  22.  C 2 (py)    -0.1177  0.0489 -0.0233 -0.0438  0.3032  0.3443  0.3032  0.3443
  23.  C 2 (pz)     0.0000  0.0000  0.0000  0.0000  0.4149  0.4713 -0.4149 -0.4713
  24.  C 2 (d5)    -0.0326 -0.0766 -0.0160 -0.0367  0.1593  0.0387  0.1593  0.0387
  25.  C 2 (d2)     0.0000  0.0000  0.0000  0.0000  0.0181  0.0044 -0.0181 -0.0044
  26.  C 2 (d3)     0.0000  0.0000  0.0000  0.0000  0.2754  0.0669 -0.2754 -0.0669
  27.  C 2 (d4)    -0.1922  0.1662  0.0272  0.0625 -0.1002 -0.0243 -0.1002 -0.0243
  28.  C 2 (d1)     0.1662  0.1280  0.0050  0.0115  0.0132  0.0032  0.0132  0.0032
  29.  O 3 (s)      0.0000  0.0000  0.0331  0.0680  0.0000  0.0098  0.0000  0.0098
  30.  O 3 (s)      0.0000  0.0000  0.2395  0.3754  0.0019  0.0695  0.0019  0.0695
  31.  O 3 (px)     0.0000  0.0000 -0.2177 -0.1152  0.0023  0.0336  0.0023  0.0336
  32.  O 3 (py)     0.0000  0.0000  0.1753  0.0928  0.0027  0.0392  0.0027  0.0392
  33.  O 3 (pz)     0.0000  0.0000  0.0000  0.0000  0.0017  0.0242 -0.0017 -0.0242
  34.  O 3 (s)      0.0000  0.0000  0.4197  0.6774  0.0390  0.1972  0.0390  0.1972
  35.  O 3 (px)     0.0000  0.0000 -0.4527 -0.3764  0.0675  0.1785  0.0675  0.1785
  36.  O 3 (py)     0.0000  0.0000  0.3646  0.3031  0.0786  0.2079  0.0786  0.2079
  37.  O 3 (pz)     0.0000  0.0000  0.0000  0.0000  0.0486  0.1285 -0.0486 -0.1285
  38.  O 3 (d5)     0.0000  0.0000 -0.1924 -0.0360 -0.0042 -0.0148 -0.0042 -0.0148
  39.  O 3 (d2)     0.0000  0.0000  0.0000  0.0000  0.0079  0.0280 -0.0079 -0.0280
  40.  O 3 (d3)     0.0000  0.0000  0.0000  0.0000  0.0092  0.0326 -0.0092 -0.0326
  41.  O 3 (d4)     1.0000  0.0000  0.0711  0.0133 -0.0019 -0.0069 -0.0019 -0.0069
  42.  O 3 (d1)     0.0000  1.0000 -0.3256 -0.0609  0.0127  0.0454  0.0127  0.0454
  43.  H 4 (s)      0.0711 -0.3256  1.0000  0.6583  0.0014  0.0520  0.0014  0.0520
  44.  H 4 (s)      0.0133 -0.0609  0.6583  1.0000  0.0520  0.2096  0.0520  0.2096
  45.  H 5 (s)     -0.0019  0.0127  0.0014  0.0520  1.0000  0.6583  0.0189  0.1507
  46.  H 5 (s)     -0.0069  0.0454  0.0520  0.2096  0.6583  1.0000  0.1507  0.4041
[...]
                                         1.0000 -0.0023
 ---------------- non-Lewis ----------------------------------------------------
  14. (0.00905) BD*( 1) C  1- C  2
               ( 49.74%)   0.7053* C  1 s( 28.18%)p 2.54( 71.65%)d 0.01(  0.17%)
                                         0.0000 -0.5305 -0.0176  0.6487  0.0164
                                        -0.5433 -0.0123  0.0000  0.0000  0.0354
                                         0.0000  0.0000 -0.0065  0.0201
               ( 50.26%)  -0.7089* C  2 s( 29.27%)p 2.41( 70.55%)d 0.01(  0.18%)
                                         0.0000 -0.5408 -0.0145 -0.6457 -0.0037
                                         0.5371  0.0021  0.0000  0.0000  0.0379
                                         0.0000  0.0000 -0.0045  0.0185
  15. (0.00341) BD*( 1) C  1- H  7
               ( 39.36%)   0.6273* C  1 s( 23.74%)p 3.21( 76.09%)d 0.01(  0.17%)
                                         0.0000 -0.4872  0.0047 -0.7581 -0.0046
                                        -0.4313  0.0171  0.0000  0.0000 -0.0325
                                         0.0000  0.0000 -0.0140  0.0211
               ( 60.64%)  -0.7787* H  7 s(100.00%)
                                        -1.0000  0.0005
  16. (0.00659) BD*( 1) C  1- H  8
               ( 38.73%)   0.6223* C  1 s( 24.06%)p 3.15( 75.78%)d 0.01(  0.16%)
                                         0.0000 -0.4905  0.0049  0.0257 -0.0122
                                         0.5080  0.0035 -0.7063  0.0111 -0.0022
                                         0.0041  0.0323  0.0100 -0.0212
               ( 61.27%)  -0.7828* H  8 s(100.00%)
                                        -1.0000 -0.0012
  17. (0.00659) BD*( 1) C  1- H  9
               ( 38.73%)   0.6223* C  1 s( 24.06%)p 3.15( 75.78%)d 0.01(  0.16%)
                                         0.0000 -0.4905  0.0049  0.0257 -0.0122
                                         0.5080  0.0035  0.7063 -0.0111 -0.0022
                                        -0.0041 -0.0323  0.0100 -0.0212
               ( 61.27%)  -0.7828* H  9 s(100.00%)
                                        -1.0000 -0.0012
  18. (0.01178) BD*( 1) C  2- O  3
               ( 68.20%)   0.8258* C  2 s( 20.24%)p 3.92( 79.38%)d 0.02(  0.38%)
                                         0.0000  0.4482  0.0389 -0.7599 -0.0343
                                        -0.4633 -0.0218  0.0000  0.0000  0.0472
                                         0.0000  0.0000  0.0243 -0.0318
               ( 31.80%)  -0.5639* O  3 s( 30.75%)p 2.24( 69.04%)d 0.01(  0.21%)
                                         0.0000  0.5546  0.0016  0.6800  0.0001
                                         0.4774 -0.0068  0.0000  0.0000  0.0370
                                         0.0000  0.0000 -0.0008 -0.0271
  19. (0.02074) BD*( 1) C  2- H  5
               ( 40.57%)   0.6370* C  2 s( 25.33%)p 2.94( 74.47%)d 0.01(  0.20%)
                                         0.0000 -0.5030  0.0162  0.0077  0.0044
                                        -0.4959  0.0019 -0.7060  0.0163  0.0004
                                        -0.0045 -0.0359  0.0137 -0.0221
               ( 59.43%)  -0.7709* H  5 s(100.00%)
                                        -1.0000 -0.0039
  20. (0.02074) BD*( 1) C  2- H  6
               ( 40.57%)   0.6370* C  2 s( 25.33%)p 2.94( 74.47%)d 0.01(  0.20%)
                                         0.0000 -0.5030  0.0162  0.0077  0.0044
                                        -0.4959  0.0019  0.7060 -0.0163  0.0004
                                         0.0045  0.0359  0.0137 -0.0221
               ( 59.43%)  -0.7709* H  6 s(100.00%)
                                        -1.0000 -0.0039
  21. (0.00390) BD*( 1) O  3- H  4
               ( 25.85%)   0.5084* O  3 s( 20.16%)p 3.95( 79.57%)d 0.01(  0.26%)
                                         0.0000 -0.4489 -0.0104  0.7271  0.0270
                                        -0.5160  0.0115  0.0000  0.0000  0.0433
                                         0.0000  0.0000  0.0106  0.0253
               ( 74.15%)  -0.8611* H  4 s(100.00%)
                                        -1.0000  0.0023
  22. (0.00232) RY ( 1) C  1            s(  2.21%)p42.76( 94.45%)d 1.51(  3.34%)
                                         0.0000  0.0009  0.1486 -0.0038 -0.7730
                                        -0.0215 -0.5887  0.0000  0.0000  0.0582
                                         0.0000  0.0000  0.1455 -0.0939
  23. (0.00134) RY ( 2) C  1            s(  0.00%)p 1.00( 83.30%)d 0.20( 16.70%)
                                         0.0000  0.0000  0.0000  0.0000  0.0000
                                         0.0000  0.0000  0.0310  0.9122  0.0000
                                        -0.1434  0.3826  0.0000  0.0000
  24. (0.00031) RY ( 3) C  1            s( 82.19%)p 0.07(  5.92%)d 0.14( 11.88%)
                                         0.0000 -0.0004  0.9066  0.0041 -0.0123
                                        -0.0048  0.2430  0.0000  0.0000  0.3239
                                         0.0000  0.0000 -0.0876  0.0791
  25. (0.00008) RY ( 4) C  1            s(  1.87%)p45.24( 84.62%)d 7.23( 13.51%)
  26. (0.00003) RY ( 5) C  1            s(  6.74%)p 0.95(  6.40%)d12.89( 86.86%)
  27. (0.00002) RY ( 6) C  1            s(  0.00%)p 1.00( 11.37%)d 7.80( 88.63%)
  28. (0.00000) RY ( 7) C  1            s(  0.00%)p 1.00(  5.54%)d17.05( 94.46%)
  29. (0.00000) RY ( 8) C  1            s(  0.40%)p15.77(  6.26%)d99.99( 93.34%)
  30. (0.00000) RY ( 9) C  1            s(  6.56%)p 0.43(  2.83%)d13.81( 90.61%)
  31. (0.00204) RY ( 1) C  2            s( 17.31%)p 4.29( 74.27%)d 0.49(  8.42%)
                                         0.0000 -0.0210  0.4156  0.0276 -0.4291
                                         0.0385 -0.7459  0.0000  0.0000 -0.1513
                                         0.0000  0.0000  0.2351 -0.0777
  32. (0.00187) RY ( 2) C  2            s(  0.00%)p 1.00( 46.02%)d 1.17( 53.98%)
                                         0.0000  0.0000  0.0000  0.0000  0.0000
                                         0.0000  0.0000  0.0516  0.6764  0.0000
                                        -0.3054 -0.6683  0.0000  0.0000
  33. (0.00125) RY ( 3) C  2            s(  0.00%)p 1.00( 36.77%)d 1.72( 63.23%)
                                         0.0000  0.0000  0.0000  0.0000  0.0000
                                         0.0000  0.0000 -0.0046  0.6064  0.0000
                                         0.7472  0.2719  0.0000  0.0000
  34. (0.00109) RY ( 4) C  2            s( 17.63%)p 1.30( 22.98%)d 3.37( 59.39%)
                                         0.0000  0.0065  0.4198 -0.0126  0.3365
                                         0.0386  0.3390  0.0000  0.0000 -0.3148
                                         0.0000  0.0000  0.6729 -0.2049
  35. (0.00056) RY ( 5) C  2            s(  2.91%)p 2.40(  6.99%)d30.97( 90.10%)
                                         0.0000 -0.0040  0.1705  0.0674 -0.2071
                                         0.0287  0.1472  0.0000  0.0000  0.8774
                                         0.0000  0.0000  0.2547 -0.2575
  36. (0.00016) RY ( 6) C  2            s( 30.27%)p 1.64( 49.62%)d 0.66( 20.11%)
                                         0.0000 -0.0071  0.5502  0.0016 -0.5026
                                         0.0008  0.4935  0.0000  0.0000 -0.1317
                                         0.0000  0.0000 -0.3129  0.2930
  37. (0.00000) RY ( 7) C  2            s(  0.00%)p 1.00( 17.47%)d 4.72( 82.53%)
  38. (0.00000) RY ( 8) C  2            s(  0.03%)p99.99(  3.93%)d99.99( 96.04%)
  39. (0.00000) RY ( 9) C  2            s( 31.68%)p 1.36( 43.08%)d 0.80( 25.24%)
  40. (0.00216) RY ( 1) O  3            s(  0.00%)p 1.00( 98.73%)d 0.01(  1.27%)
                                         0.0000  0.0000  0.0000  0.0000  0.0000
                                         0.0000  0.0000  0.0045  0.9936  0.0000
                                         0.0587  0.0962  0.0000  0.0000
  41. (0.00183) RY ( 2) O  3            s( 15.55%)p 5.09( 79.10%)d 0.34(  5.35%)
                                         0.0000 -0.0019  0.3944 -0.0012  0.5236
                                        -0.0046 -0.7189  0.0000  0.0000 -0.0951
                                         0.0000  0.0000  0.1942 -0.0819
  42. (0.00033) RY ( 3) O  3            s( 43.62%)p 1.29( 56.09%)d 0.01(  0.30%)
                                         0.0000  0.0098  0.6603 -0.0092  0.3872
                                         0.0036  0.6410  0.0000  0.0000  0.0516
                                         0.0000  0.0000  0.0064 -0.0165
  43. (0.00001) RY ( 4) O  3            s(  5.62%)p 4.07( 22.86%)d12.72( 71.52%)
  44. (0.00000) RY ( 5) O  3            s(  0.00%)p 1.00(  0.04%)d99.99( 99.96%)
  45. (0.00000) RY ( 6) O  3            s(  2.99%)p 1.48(  4.43%)d31.00( 92.58%)
  46. (0.00000) RY ( 7) O  3            s(  2.82%)p 1.31(  3.71%)d33.08( 93.46%)
  47. (0.00000) RY ( 8) O  3            s( 29.46%)p 1.16( 34.29%)d 1.23( 36.26%)
  48. (0.00000) RY ( 9) O  3            s(  0.00%)p 1.00(  1.33%)d74.10( 98.67%)
  49. (0.00125) RY ( 1) H  4            s(100.00%)
                                         0.0023  1.0000
  50. (0.00194) RY ( 1) H  5            s(100.00%)
                                        -0.0039  1.0000
  51. (0.00194) RY ( 1) H  6            s(100.00%)
                                        -0.0039  1.0000
  52. (0.00083) RY ( 1) H  7            s(100.00%)
                                         0.0005  1.0000
  53. (0.00143) RY ( 1) H  8            s(100.00%)
                                        -0.0012  1.0000
  54. (0.00143) RY ( 1) H  9            s(100.00%)
                                        -0.0012  1.0000


 NHO DIRECTIONALITY AND BOND BENDING (deviation from line of nuclear centers at
                                      the position of maximum hybrid amplitude)

         [Thresholds for printing:  angular deviation  >  1.0 degree]
                                    p- or d-character  > 25.0%
                                    orbital occupancy  >  0.10e

                        Line of Centers        Hybrid 1             Hybrid 2
                        ---------------  -------------------  ------------------
           NBO            Theta   Phi    Theta   Phi    Dev   Theta   Phi    Dev
 ===============================================================================
   4. LP ( 1) O  3          --     --     90.0  265.4   --      --     --    --
   5. LP ( 2) O  3          --     --    179.6   90.7   --      --     --    --
  10. BD ( 1) C  2- O  3   90.0  213.5    90.0  211.7   1.8    90.0   35.5   2.1
  11. BD ( 1) C  2- H  5   36.2   86.2    35.4   89.2   1.9     --     --    --
  12. BD ( 1) C  2- H  6  143.8   86.2   144.6   89.2   1.9     --     --    --
  13. BD ( 1) O  3- H  4   90.0  141.2    90.0  144.6   3.4     --     --    --


 SECOND ORDER PERTURBATION THEORY ANALYSIS OF FOCK MATRIX IN NBO BASIS

     Threshold for printing:   0.50 kcal/mol
                                                          E(2) E(NL)-E(L) F(L,NL)
      Donor (L) NBO              Acceptor (NL) NBO      kcal/mol   a.u.    a.u.
 ===============================================================================

 within unit  1
    4. LP ( 1) O  3            14. BD*( 1) C  1- C  2      1.47    1.43   0.041
    4. LP ( 1) O  3            15. BD*( 1) C  1- H  7      0.62    1.48   0.027
    4. LP ( 1) O  3            19. BD*( 1) C  2- H  5      1.35    1.48   0.040
    4. LP ( 1) O  3            20. BD*( 1) C  2- H  6      1.35    1.48   0.040
    4. LP ( 1) O  3            31. RY ( 1) C  2            1.80    1.77   0.050
    5. LP ( 2) O  3            19. BD*( 1) C  2- H  5      7.67    1.20   0.086
    5. LP ( 2) O  3            20. BD*( 1) C  2- H  6      7.67    1.20   0.086
    5. LP ( 2) O  3            32. RY ( 2) C  2            1.15    2.36   0.046
    5. LP ( 2) O  3            33. RY ( 3) C  2            1.00    2.16   0.042
    6. BD ( 1) C  1- C  2      16. BD*( 1) C  1- H  8      0.53    1.46   0.025
    6. BD ( 1) C  1- C  2      17. BD*( 1) C  1- H  9      0.53    1.46   0.025
    6. BD ( 1) C  1- C  2      21. BD*( 1) O  3- H  4      2.25    1.46   0.051
    6. BD ( 1) C  1- C  2      41. RY ( 2) O  3            1.72    2.26   0.056
    6. BD ( 1) C  1- C  2      50. RY ( 1) H  5            0.71    1.53   0.029
    6. BD ( 1) C  1- C  2      51. RY ( 1) H  6            0.71    1.53   0.029
    6. BD ( 1) C  1- C  2      52. RY ( 1) H  7            0.64    1.56   0.028
    6. BD ( 1) C  1- C  2      53. RY ( 1) H  8            0.59    1.56   0.027
    6. BD ( 1) C  1- C  2      54. RY ( 1) H  9            0.59    1.56   0.027
    7. BD ( 1) C  1- H  7      18. BD*( 1) C  2- O  3      5.01    1.21   0.069
    8. BD ( 1) C  1- H  8      18. BD*( 1) C  2- O  3      0.83    1.21   0.028
    8. BD ( 1) C  1- H  8      20. BD*( 1) C  2- H  6      3.41    1.35   0.061
    9. BD ( 1) C  1- H  9      18. BD*( 1) C  2- O  3      0.83    1.21   0.028
    9. BD ( 1) C  1- H  9      19. BD*( 1) C  2- H  5      3.41    1.35   0.061
   10. BD ( 1) C  2- O  3      15. BD*( 1) C  1- H  7      1.75    1.67   0.048
   10. BD ( 1) C  2- O  3      22. RY ( 1) C  1            0.89    1.93   0.037
   11. BD ( 1) C  2- H  5      17. BD*( 1) C  1- H  9      3.54    1.39   0.063
   11. BD ( 1) C  2- H  5      23. RY ( 2) C  1            0.83    1.82   0.035
   11. BD ( 1) C  2- H  5      40. RY ( 1) O  3            1.20    1.95   0.043
   12. BD ( 1) C  2- H  6      16. BD*( 1) C  1- H  8      3.54    1.39   0.063
   12. BD ( 1) C  2- H  6      23. RY ( 2) C  1            0.83    1.82   0.035
   12. BD ( 1) C  2- H  6      40. RY ( 1) O  3            1.20    1.95   0.043
   13. BD ( 1) O  3- H  4      14. BD*( 1) C  1- C  2      3.62    1.54   0.067
   13. BD ( 1) O  3- H  4      22. RY ( 1) C  1            0.63    1.85   0.030


 NATURAL BOND ORBITALS (Summary):

                                                     Principal Delocalizations
           NBO                 Occupancy    Energy   (geminal,vicinal,remote)
 ===============================================================================
 Molecular unit  1  (C2H6O)
 ------ Lewis --------------------------------------
    1. CR ( 1) C  1             1.99999   -11.20810
    2. CR ( 1) C  2             1.99999   -11.27201
    3. CR ( 1) O  3             1.99999   -20.55235
    4. LP ( 1) O  3             1.98808    -0.75636  31(v),14(v),19(v),20(v)
                                                     15(r)
    5. LP ( 2) O  3             1.97394    -0.47896  19(v),20(v),32(v),33(v)
    6. BD ( 1) C  1- C  2       1.99177    -0.72647  21(v),41(v),50(v),51(v)
                                                     52(v),53(v),54(v),16(g)
                                                     17(g)
    7. BD ( 1) C  1- H  7       1.98875    -0.63843  18(v)
    8. BD ( 1) C  1- H  8       1.99089    -0.63406  20(v),18(v)
    9. BD ( 1) C  1- H  9       1.99089    -0.63406  19(v),18(v)
   10. BD ( 1) C  2- O  3       1.99614    -0.94549  15(v),22(v)
   11. BD ( 1) C  2- H  5       1.99056    -0.65691  17(v),40(v),23(v)
   12. BD ( 1) C  2- H  6       1.99056    -0.65691  16(v),40(v),23(v)
   13. BD ( 1) O  3- H  4       1.99142    -0.86677  14(v),22(r)
 ------ non-Lewis ----------------------------------
   14. BD*( 1) C  1- C  2       0.00905     0.67648
   15. BD*( 1) C  1- H  7       0.00341     0.72501
   16. BD*( 1) C  1- H  8       0.00659     0.73383
   17. BD*( 1) C  1- H  9       0.00659     0.73383
   18. BD*( 1) C  2- O  3       0.01178     0.57196
   19. BD*( 1) C  2- H  5       0.02074     0.72063
   20. BD*( 1) C  2- H  6       0.02074     0.72063
   21. BD*( 1) O  3- H  4       0.00390     0.73712
   22. RY ( 1) C  1             0.00232     0.98719
   23. RY ( 2) C  1             0.00134     1.15953
   24. RY ( 3) C  1             0.00031     1.57559
   25. RY ( 4) C  1             0.00008     0.95288
   26. RY ( 5) C  1             0.00003     2.29920
   27. RY ( 6) C  1             0.00002     2.21289
   28. RY ( 7) C  1             0.00000     2.07292
   29. RY ( 8) C  1             0.00000     2.04417
   30. RY ( 9) C  1             0.00000     2.35751
   31. RY ( 1) C  2             0.00204     1.01633
   32. RY ( 2) C  2             0.00187     1.87894
   33. RY ( 3) C  2             0.00125     1.68538
   34. RY ( 4) C  2             0.00109     1.88014
   35. RY ( 5) C  2             0.00056     2.40531
   36. RY ( 6) C  2             0.00016     1.28373
   37. RY ( 7) C  2             0.00000     2.00184
   38. RY ( 8) C  2             0.00000     2.29437
   39. RY ( 9) C  2             0.00000     1.40717
   40. RY ( 1) O  3             0.00216     1.29691
   41. RY ( 2) O  3             0.00183     1.53465
   42. RY ( 3) O  3             0.00033     1.75813
   43. RY ( 4) O  3             0.00001     2.13257
   44. RY ( 5) O  3             0.00000     2.08518
   45. RY ( 6) O  3             0.00000     2.62919
   46. RY ( 7) O  3             0.00000     2.26172
   47. RY ( 8) O  3             0.00000     2.07932
   48. RY ( 9) O  3             0.00000     2.30384
   49. RY ( 1) H  4             0.00125     0.81219
   50. RY ( 1) H  5             0.00194     0.79898
   51. RY ( 1) H  6             0.00194     0.79898
   52. RY ( 1) H  7             0.00083     0.83236
   53. RY ( 1) H  8             0.00143     0.83573
   54. RY ( 1) H  9             0.00143     0.83573
          -------------------------------
                 Total Lewis   25.89297  ( 99.5883%)
           Valence non-Lewis    0.08279  (  0.3184%)
           Rydberg non-Lewis    0.02424  (  0.0932%)
          -------------------------------
               Total unit  1   26.00000  (100.0000%)
              Charge unit  1    0.00000

 $CHOOSE
   LONE 3 2 END
   BOND S 1 2 S 1 7 S 1 8 S 1 9 S 2 3 S 2 5 S 2 6 S 3 4 END
 $END

 NBO analysis completed in 0.67 CPU seconds (1 wall second)
 Maximum scratch memory used by NBO was 337388 words (2.57 MB)
 Maximum scratch memory used by G16NBO was 12935 words (0.10 MB)

 Opening RunExU unformatted file "/cluster/work/users/beto93/mol113/Gau-2207993.EUF"
 Read unf file /cluster/work/users/beto93/mol113/Gau-2207993.EUF:
 Label Gaussian matrix elements                                         IVers= 2 NLab= 2 Version=ES64L-G16RevC.01
 Title mol113-NBO                                                      
 NAtoms=     9 NBasis=    54 NBsUse=    54 ICharg=     0 Multip=     1 NE=    26 Len12L=8 Len4L=8 IOpCl= 0 ICGU=111
 GAUSSIAN SCALARS                    NI= 1 NR= 1 NTot=       1 LenBuf=    2 NRI=1 N=    1000
 NPA CHARGES                         NI= 0 NR= 1 NTot=       9 LenBuf= 4000 NRI=1 N=       9
 Recovered energy= -154.073000302     dipole=      0.032995010308      0.708788323634     -0.000000000000
 Unable to Open any file for archive entry.
 1\1\GINC-C2-23\SP\RHF\6-31G(d)\C2H6O1\BETO93\18-Nov-2024\0\\#RHF/6-31G
 * int=nobasistransform Symmetry=None 5D 7F Pop=NBO7Read\\mol113-NBO\\0
 ,1\C,0,1.168181,-0.400382,0.\C,0,0.,0.559462,0.\O,0,-1.190083,-0.22766
 9,0.\H,0,-1.946623,0.381525,0.\H,0,0.042557,1.207508,0.886933\H,0,0.04
 2557,1.207508,-0.886933\H,0,2.115891,0.1448,0.\H,0,1.128599,-1.037234,
 0.885881\H,0,1.128599,-1.037234,-0.885881\\Version=ES64L-G16RevC.01\HF
 =-154.0730003\RMSD=1.443e-09\Dipole=0.032995,0.7087883,0.\Quadrupole=1
 .1647791,-0.495482,-0.6692971,-1.8972382,0.,0.\PG=Unknown\\@
 The archive entry for this job was punched.


 Mondays are the potholes in the road of life.
                                -- Tom Wilson
 Job cpu time:       0 days  0 hours  0 minutes  9.6 seconds.
 Elapsed time:       0 days  0 hours  0 minutes  3.1 seconds.
 File lengths (MBytes):  RWF=     10 Int=      0 D2E=      0 Chk=      1 Scr=      1
 Normal termination of Gaussian 16 at Mon Nov 18 16:41:12 2024.
