 Entering Gaussian System, Link 0=g16
 Initial command:
 /cluster/software/Gaussian/g16_C.01/l1.exe "/cluster/work/users/beto93/CH3BeH/Gau-1555062.inp" -scrdir="/cluster/work/users/beto93/CH3BeH/"
 Entering Link 1 = /cluster/software/Gaussian/g16_C.01/l1.exe PID=   1555066.
  
 Copyright (c) 1988-2019, Gaussian, Inc.  All Rights Reserved.
  
 This is part of the Gaussian(R) 16 program.  It is based on
 the Gaussian(R) 09 system (copyright 2009, Gaussian, Inc.),
 the Gaussian(R) 03 system (copyright 2003, Gaussian, Inc.),
 the Gaussian(R) 98 system (copyright 1998, Gaussian, Inc.),
 the Gaussian(R) 94 system (copyright 1995, Gaussian, Inc.),
 the Gaussian 92(TM) system (copyright 1992, Gaussian, Inc.),
 the Gaussian 90(TM) system (copyright 1990, Gaussian, Inc.),
 the Gaussian 88(TM) system (copyright 1988, Gaussian, Inc.),
 the Gaussian 86(TM) system (copyright 1986, Carnegie Mellon
 University), and the Gaussian 82(TM) system (copyright 1983,
 Carnegie Mellon University). Gaussian is a federally registered
 trademark of Gaussian, Inc.
  
 This software contains proprietary and confidential information,
 including trade secrets, belonging to Gaussian, Inc.
  
 This software is provided under written license and may be
 used, copied, transmitted, or stored only in accord with that
 written license.
  
 The following legend is applicable only to US Government
 contracts under FAR:
  
                    RESTRICTED RIGHTS LEGEND
  
 Use, reproduction and disclosure by the US Government is
 subject to restrictions as set forth in subparagraphs (a)
 and (c) of the Commercial Computer Software - Restricted
 Rights clause in FAR 52.227-19.
  
 Gaussian, Inc.
 340 Quinnipiac St., Bldg. 40, Wallingford CT 06492
  
  
 ---------------------------------------------------------------
 Warning -- This program may not be used in any manner that
 competes with the business of Gaussian, Inc. or will provide
 assistance to any competitor of Gaussian, Inc.  The licensee
 of this program is prohibited from giving any competitor of
 Gaussian, Inc. access to this program.  By using this program,
 the user acknowledges that Gaussian, Inc. is engaged in the
 business of creating and licensing software in the field of
 computational chemistry and represents and warrants to the
 licensee that it is not a competitor of Gaussian, Inc. and that
 it will not use this program in any manner prohibited above.
 ---------------------------------------------------------------
  

 Cite this work as:
 Gaussian 16, Revision C.01,
 M. J. Frisch, G. W. Trucks, H. B. Schlegel, G. E. Scuseria, 
 M. A. Robb, J. R. Cheeseman, G. Scalmani, V. Barone, 
 G. A. Petersson, H. Nakatsuji, X. Li, M. Caricato, A. V. Marenich, 
 J. Bloino, B. G. Janesko, R. Gomperts, B. Mennucci, H. P. Hratchian, 
 J. V. Ortiz, A. F. Izmaylov, J. L. Sonnenberg, D. Williams-Young, 
 F. Ding, F. Lipparini, F. Egidi, J. Goings, B. Peng, A. Petrone, 
 T. Henderson, D. Ranasinghe, V. G. Zakrzewski, J. Gao, N. Rega, 
 G. Zheng, W. Liang, M. Hada, M. Ehara, K. Toyota, R. Fukuda, 
 J. Hasegawa, M. Ishida, T. Nakajima, Y. Honda, O. Kitao, H. Nakai, 
 T. Vreven, K. Throssell, J. A. Montgomery, Jr., J. E. Peralta, 
 F. Ogliaro, M. J. Bearpark, J. J. Heyd, E. N. Brothers, K. N. Kudin, 
 V. N. Staroverov, T. A. Keith, R. Kobayashi, J. Normand, 
 K. Raghavachari, A. P. Rendell, J. C. Burant, S. S. Iyengar, 
 J. Tomasi, M. Cossi, J. M. Millam, M. Klene, C. Adamo, R. Cammi, 
 J. W. Ochterski, R. L. Martin, K. Morokuma, O. Farkas, 
 J. B. Foresman, and D. J. Fox, Gaussian, Inc., Wallingford CT, 2019.
 
 ******************************************
 Gaussian 16:  ES64L-G16RevC.01  3-Jul-2019
                24-Jul-2024 
 ******************************************
 %LindaWorkers=c1-1-ib
 %NProcShared=4
 Will use up to    4 processors via shared memory.
 %mem=25GB
 %chk=CH3BeH.chk
 SetLPE:    new flags="-opt 'Tsnet.Node.lindarsharg: ssh'  -nodelist 'c1-1-ib.saga' -env GAUSS_MDEF=3355443200 -env GAUSS_EXEDIR="/cluster/software/Gaussian/g16_C.01/bsd:/cluster/software/Gaussian/g16_C.01""
 Will use up to    1 processors via Linda.
 ----------------------------------------------------
 #OPT=VeryTight Int=UltraFine RHF/STO-3G Pop=NBO7Read
 ----------------------------------------------------
 1/7=1,18=20,19=15,38=1,163=2/1,3;
 2/9=110,12=2,17=6,18=5,40=1/2;
 3/6=3,11=1,25=1,30=1,71=1,75=-5,116=1/1,2,3;
 4//1;
 5/5=2,38=5/2;
 6/7=2,8=2,9=2,10=2,28=1,40=2,113=1,114=1,124=2103/1,12;
 7//1,2,3,16;
 1/7=1,18=20,19=15/3(2);
 2/9=110/2;
 99//99;
 2/9=110/2;
 3/6=3,11=1,25=1,30=1,71=1,75=-5,116=1/1,2,3;
 4/5=5,16=3,69=1/1;
 5/5=2,38=5/2;
 7//1,2,3,16;
 1/7=1,18=20,19=15/3(-5);
 2/9=110/2;
 6/7=2,8=2,9=2,10=2,19=2,28=1,40=2,113=1,114=1,124=2103/1,12;
 99/9=1/99;
 ----------
 NBO-CH3BeH
 ----------
 Symbolic Z-matrix:
 Charge =  0 Multiplicity = 1
 C                     0.03446  -0.06008   0.02461 
 Be                   -0.76183   1.32304  -0.53431 
 H                     0.05803  -0.10111   1.10858 
 H                     1.064    -0.09753  -0.3158 
 H                    -0.44895  -0.96923  -0.31743 
 H                    -1.36977   2.37899  -0.96101 
 

 GradGradGradGradGradGradGradGradGradGradGradGradGradGradGradGradGradGrad
 Berny optimization.
 Initialization pass.
                           ----------------------------
                           !    Initial Parameters    !
                           ! (Angstroms and Degrees)  !
 --------------------------                            --------------------------
 ! Name  Definition              Value          Derivative Info.                !
 --------------------------------------------------------------------------------
 ! R1    R(1,2)                  1.691          estimate D2E/DX2                !
 ! R2    R(1,3)                  1.085          estimate D2E/DX2                !
 ! R3    R(1,4)                  1.085          estimate D2E/DX2                !
 ! R4    R(1,5)                  1.085          estimate D2E/DX2                !
 ! R5    R(2,6)                  1.291          estimate D2E/DX2                !
 ! A1    A(2,1,3)              111.8            estimate D2E/DX2                !
 ! A2    A(2,1,4)              111.8            estimate D2E/DX2                !
 ! A3    A(2,1,5)              111.8            estimate D2E/DX2                !
 ! A4    A(3,1,4)              106.949          estimate D2E/DX2                !
 ! A5    A(3,1,5)              107.0337         estimate D2E/DX2                !
 ! A6    A(4,1,5)              107.1534         estimate D2E/DX2                !
 ! A7    L(1,2,6,3,-1)         180.0            estimate D2E/DX2                !
 ! A8    L(1,2,6,3,-2)         180.0            estimate D2E/DX2                !
 ! D1    D(2,1,4,3)            122.6855         estimate D2E/DX2                !
 ! D2    D(2,1,5,3)           -122.7424         estimate D2E/DX2                !
 ! D3    D(2,1,5,4)            122.823          estimate D2E/DX2                !
 ! D4    D(3,1,5,4)           -114.4346         estimate D2E/DX2                !
 --------------------------------------------------------------------------------
 Trust Radius=3.00D-01 FncErr=1.00D-07 GrdErr=1.00D-07 EigMax=2.50D+02 EigMin=1.00D-04
 Number of steps in this run=     27 maximum allowed number of steps=    100.
 GradGradGradGradGradGradGradGradGradGradGradGradGradGradGradGradGradGrad

                          Input orientation:                          
 ---------------------------------------------------------------------
 Center     Atomic      Atomic             Coordinates (Angstroms)
 Number     Number       Type             X           Y           Z
 ---------------------------------------------------------------------
      1          6           0        0.034460   -0.060079    0.024607
      2          4           0       -0.761833    1.323039   -0.534306
      3          1           0        0.058030   -0.101109    1.108575
      4          1           0        1.063997   -0.097534   -0.315798
      5          1           0       -0.448945   -0.969230   -0.317430
      6          1           0       -1.369766    2.378985   -0.961011
 ---------------------------------------------------------------------
                    Distance matrix (angstroms):
                    1          2          3          4          5
     1  C    0.000000
     2  Be   1.691000   0.000000
     3  H    1.085000   2.323668   0.000000
     4  H    1.085000   2.323667   1.743795   0.000000
     5  H    1.085000   2.323668   1.744749   1.746096   0.000000
     6  H    2.982000   1.291000   3.531664   3.531664   3.531664
                    6
     6  H    0.000000
 Stoichiometry    CH4Be
 Framework group  C1[X(CH4Be)]
 Deg. of freedom    12
 Full point group                 C1      NOp   1
 Largest Abelian subgroup         C1      NOp   1
 Largest concise Abelian subgroup C1      NOp   1
                         Standard orientation:                         
 ---------------------------------------------------------------------
 Center     Atomic      Atomic             Coordinates (Angstroms)
 Number     Number       Type             X           Y           Z
 ---------------------------------------------------------------------
      1          6           0       -0.609800    0.000159   -0.000214
      2          4           0        1.081200   -0.000009    0.000012
      3          1           0       -1.012887   -0.213017    0.984317
      4          1           0       -1.012717   -0.747326   -0.675603
      5          1           0       -1.012598    0.959563   -0.307660
      6          1           0        2.372201   -0.000136    0.000184
 ---------------------------------------------------------------------
 Rotational constants (GHZ):         164.7027053          20.0717238          20.0679823
 Standard basis: STO-3G (5D, 7F)
 There are    14 symmetry adapted cartesian basis functions of A   symmetry.
 There are    14 symmetry adapted basis functions of A   symmetry.
    14 basis functions,    42 primitive gaussians,    14 cartesian basis functions
     7 alpha electrons        7 beta electrons
       nuclear repulsion energy        23.0859449792 Hartrees.
 NAtoms=    6 NActive=    6 NUniq=    6 SFac= 1.00D+00 NAtFMM=   60 NAOKFM=F Big=F
 Integral buffers will be    131072 words long.
 Raffenetti 1 integral format.
 Two-electron integral symmetry is turned on.
 One-electron integrals computed using PRISM.
 NBasis=    14 RedAO= T EigKep=  2.01D-01  NBF=    14
 NBsUse=    14 1.00D-06 EigRej= -1.00D+00 NBFU=    14
 ExpMin= 9.94D-02 ExpMax= 7.16D+01 ExpMxC= 7.16D+01 IAcc=3 IRadAn=         5 AccDes= 0.00D+00
 Harris functional with IExCor=  205 and IRadAn=       5 diagonalized for initial guess.
 HarFok:  IExCor=  205 AccDes= 0.00D+00 IRadAn=         5 IDoV= 1 UseB2=F ITyADJ=14
 ICtDFT=  3500011 ScaDFX=  1.000000  1.000000  1.000000  1.000000
 FoFCou: FMM=F IPFlag=           0 FMFlag=      100000 FMFlg1=           0
         NFxFlg=           0 DoJE=T BraDBF=F KetDBF=T FulRan=T
         wScrn=  0.000000 ICntrl=       500 IOpCl=  0 I1Cent=   200000004 NGrid=           0
         NMat0=    1 NMatS0=      1 NMatT0=    0 NMatD0=    1 NMtDS0=    0 NMtDT0=    0
 Petite list used in FoFCou.
 Keep R1 ints in memory in canonical form, NReq=811872.
 Requested convergence on RMS density matrix=1.00D-08 within 128 cycles.
 Requested convergence on MAX density matrix=1.00D-06.
 Requested convergence on             energy=1.00D-06.
 No special actions if energy rises.
 SCF Done:  E(RHF) =  -54.1532077240     A.U. after    9 cycles
            NFock=  9  Conv=0.35D-08     -V/T= 2.0010

 **********************************************************************

            Population analysis using the SCF Density.

 **********************************************************************

 Orbital symmetries:
       Occupied  (A) (A) (A) (A) (A) (A) (A)
       Virtual   (A) (A) (A) (A) (A) (A) (A)
 The electronic state is 1-A.
 Alpha  occ. eigenvalues --  -10.98318  -4.49881  -0.87424  -0.50073  -0.50027
 Alpha  occ. eigenvalues --   -0.44438  -0.38781
 Alpha virt. eigenvalues --    0.23749   0.23749   0.45958   0.74306   0.74390
 Alpha virt. eigenvalues --    0.78250   0.97404
          Condensed to atoms (all electrons):
               1          2          3          4          5          6
     1  C    4.782803   0.390020   0.380402   0.380471   0.380519  -0.000825
     2  Be   0.390020   3.078966  -0.025228  -0.025259  -0.025281   0.411621
     3  H    0.380402  -0.025228   0.628319  -0.019968  -0.019914   0.000078
     4  H    0.380471  -0.025259  -0.019968   0.628179  -0.019837   0.000078
     5  H    0.380519  -0.025281  -0.019914  -0.019837   0.628080   0.000078
     6  H   -0.000825   0.411621   0.000078   0.000078   0.000078   0.639741
 Mulliken charges:
               1
     1  C   -0.313390
     2  Be   0.195160
     3  H    0.056310
     4  H    0.056337
     5  H    0.056355
     6  H   -0.050772
 Sum of Mulliken charges =   0.00000
 Mulliken charges with hydrogens summed into heavy atoms:
               1
     1  C   -0.144388
     2  Be   0.144388
 Electronic spatial extent (au):  <R**2>=             96.7240
 Charge=              0.0000 electrons
 Dipole moment (field-independent basis, Debye):
    X=             -0.4513    Y=             -0.0003    Z=              0.0004  Tot=              0.4513
 Quadrupole moment (field-independent basis, Debye-Ang):
   XX=            -16.4563   YY=            -12.0137   ZZ=            -12.0188
   XY=              0.0011   XZ=             -0.0014   YZ=              0.0000
 Traceless Quadrupole moment (field-independent basis, Debye-Ang):
   XX=             -2.9601   YY=              1.4826   ZZ=              1.4775
   XY=              0.0011   XZ=             -0.0014   YZ=              0.0000
 Octapole moment (field-independent basis, Debye-Ang**2):
  XXX=            -17.4172  YYY=              0.2356  ZZZ=              0.3181  XYY=             -1.9509
  XXY=             -0.0001  XXZ=              0.0001  XZZ=             -1.9467  YZZ=             -0.2358
  YYZ=             -0.3179  XYZ=              0.0000
 Hexadecapole moment (field-independent basis, Debye-Ang**3):
 XXXX=           -137.5172 YYYY=            -18.7749 ZZZZ=            -18.7645 XXXY=              0.0037
 XXXZ=             -0.0049 YYYX=             -0.3054 YYYZ=              0.0007 ZZZX=             -0.4155
 ZZZY=             -0.0007 XXYY=            -20.9468 XXZZ=            -20.9485 YYZZ=             -6.2569
 XXYZ=             -0.0000 YYXZ=              0.4131 ZZXY=              0.3071
 N-N= 2.308594497919D+01 E-N=-1.721997082264D+02  KE= 5.410024372199D+01
 Running external command "gaunbo7 R"
         input file       "/cluster/work/users/beto93/CH3BeH/Gau-1555066.EIn"
         output file      "/cluster/work/users/beto93/CH3BeH/Gau-1555066.EOu"
         message file     "/cluster/work/users/beto93/CH3BeH/Gau-1555066.EMs"
         fchk file        "/cluster/work/users/beto93/CH3BeH/Gau-1555066.EFC"
         mat. el file     "/cluster/work/users/beto93/CH3BeH/Gau-1555066.EUF"

 Writing WrtUnf unformatted file "/cluster/work/users/beto93/CH3BeH/Gau-1555066.EUF"
 Gaussian matrix elements                                         Version   2 NLab=11 Len12L=8 Len4L=8
 Write SHELL TO ATOM MAP                   from file      0 offset           0 length                   8 to matrix element file.
 Write SHELL TYPES                         from file      0 offset           0 length                   8 to matrix element file.
 Write NUMBER OF PRIMITIVES PER SHELL      from file      0 offset           0 length                   8 to matrix element file.
 Write PRIMITIVE EXPONENTS                 from file      0 offset           0 length                  24 to matrix element file.
 Write CONTRACTION COEFFICIENTS            from file      0 offset           0 length                  24 to matrix element file.
 Write P(S=P) CONTRACTION COEFFICIENTS     from file      0 offset           0 length                  24 to matrix element file.
 Write COORDINATES OF EACH SHELL           from file      0 offset           0 length                  24 to matrix element file.
 Write BONDS PER ATOM                      from file      0 offset           0 length                   6 to matrix element file.
 Write BONDED ATOMS                        from file      0 offset           0 length                  10 to matrix element file.
 Write BOND TYPES                          from file      0 offset           0 length                  10 to matrix element file.
 Write ONIOM CHARGE/MULT                   from file      0 offset           0 length                  32 to matrix element file.
 Write ONIOM ATOM LAYERS                   from file      0 offset           0 length                   6 to matrix element file.
 Write ONIOM ATOM MODIFIERS                from file      0 offset           0 length                   6 to matrix element file.
 Write ONIOM ATOM TYPES                    from file      0 offset           0 length                   6 to matrix element file.
 Write ONIOM LINK ATOMS                    from file      0 offset           0 length                   6 to matrix element file.
 Write ONIOM LINK CHARGES                  from file      0 offset           0 length                   6 to matrix element file.
 Write ONIOM LINK DISTANCES                from file      0 offset           0 length                  24 to matrix element file.
 Write SYMINF INTS                         from file      0 offset           0 length                  26 to matrix element file.
 Write ROTTR TO SO                         from file      0 offset           0 length                  12 to matrix element file.
 Write GAUSSIAN SCALARS                    from file    501 offset           0 to matrix element file.
 Write OPTIMIZATION FLAGS                  from file      0 offset           0 length                   6 to matrix element file.
 Write INTEGER ISO                         from file      0 offset           0 length                   6 to matrix element file.
 Write INTEGER SPIN                        from file      0 offset           0 length                   6 to matrix element file.
 Write REAL ZEFFECTIVE                     from file      0 offset           0 length                   6 to matrix element file.
 Write REAL QUADRUPOLEMOMENT               from file      0 offset           0 length                   6 to matrix element file.
 Write REAL GFACTOR                        from file      0 offset           0 length                   6 to matrix element file.
 Write REAL ZNUCLEAR                       from file      0 offset           0 length                   6 to matrix element file.
 Write MULLIKEN CHARGES                    from file      0 offset           0 length                   6 to matrix element file.
 Write NUCLEAR GRADIENT                    from file  10584 offset           0 length                  18 to matrix element file.
 Array NUCLEAR FORCE CONSTANTS              on  file  10585 does not exist.
 Write ELECTRIC DIPOLE MOMENT              from file      0 offset           0 length                   3 to matrix element file.
 Write NON-ADIABATIC COUPLING              from file  10810 offset           0 length                  18 to matrix element file.
 Write RED INT COORD DIMS                  from file      0 offset           0 length                   4 to matrix element file.
 Write RED INT COORD ATOMS                 from file      0 offset           0 length                  68 to matrix element file.
 Write RED INT COORD VALS                  from file      0 offset           0 length                  17 to matrix element file.
 Write RED INT COORD IFLAGS                from file      0 offset           0 length                  17 to matrix element file.
 Write RED INT COORD RFLAGS                from file      0 offset           0 length                  17 to matrix element file.
 Write RED INT COORD CONSTRAINT            from file      0 offset           0 length                  34 to matrix element file.
 Write FINITE EM FIELD                     from file  10521 offset           0 length                  35 to matrix element file.
 Write OVERLAP                             from file  10514 offset           0 length                 105 to matrix element file.
 Write CORE HAMILTONIAN ALPHA              from file  10515 offset           0 length                 105 to matrix element file.
 Write CORE HAMILTONIAN BETA               from file  10515 offset         105 length                 105 to matrix element file.
 Write KINETIC ENERGY                      from file  10516 offset           0 length                 105 to matrix element file.
 Write ORTHOGONAL BASIS                    from file  10685 offset           0 length                 196 to matrix element file.
 Write DIPOLE INTEGRALS                    from file  10518 offset           0 length                 315 to matrix element file.
 Array DIP VEL INTEGRALS                    on  file  10572 does not exist.
 Array R X DEL INTEGRALS                    on  file  10572 does not exist.
 Write ALPHA ORBITAL ENERGIES              from file      0 offset           0 length                  14 to matrix element file.
 Write ALPHA MO COEFFICIENTS               from file  10524 offset           0 length                 196 to matrix element file.
 Write ALPHA DENSITY MATRIX                from file      0 offset           0 length                 105 to matrix element file.
 Write ALPHA FOCK MATRIX                   from file  10536 offset           0 length                 105 to matrix element file.
 Write ENERGY-WEIGHTED DENSITY             from file  10571 offset           0 length                 105 to matrix element file.
 Write ALPHA SCF DENSITY MATRIX            from file      0 offset           0 length                 105 to matrix element file.
 No 2e integrals to process.
 Perform NBO analysis...executing G16NBO...

 *********************************** NBO 7.0 ***********************************
             N A T U R A L   A T O M I C   O R B I T A L   A N D
          N A T U R A L   B O N D   O R B I T A L   A N A L Y S I S
 **************************** Espen Tangen (S101595) ***************************
  (c) Copyright 1996-2021 Board of Regents of the University of Wisconsin System
      on behalf of the Theoretical Chemistry Institute.  All rights reserved.

          Cite this program [NBO 7.0.10 (8-Feb-2021)] as:

          NBO 7.0.  E. D. Glendening, J. K. Badenhoop, A. E. Reed,
          J. E. Carpenter, J. A. Bohmann, C. M. Morales, P. Karafiloglou,
          C. R. Landis, and F. Weinhold, Theoretical Chemistry Institute,
          University of Wisconsin, Madison, WI (2018)

       /NPA    / : Natural Population Analysis
       /AOPNAO / : Print the AO to PNAO transformation
       /AONAO  / : Print the AO to NAO transformation
       /AONO   / : Print the NOs in the AO basis
       /AOMO   / : Print the MOs in the AO basis
       /BOAO   / : Print the AO bond-order matrix
       /DMAO   / : Print the AO density matrix
       /DMPNAO / : Print the PNAO density matrix
       /DMNAO  / : Print the NAO density matrix
       /DMMO   / : Print the MO density matrix
       /SAO    / : Print the AO overlap matrix
       /SPNAO  / : Print the PNAO overlap matrix
       /DETAIL / : Write details of NBO search
       /ARCHIVE/ : Write the archive file to lfn47
       /AOINFO / : Write AO information to lfn31
       /FILE   / : Set to CH3BeH

 Filename set to CH3BeH

 Job title: NBO-CH3BeH


 MOs in the AO basis:

           AO          1       2       3       4       5       6       7       8
      ------------ ------- ------- ------- ------- ------- ------- ------- -------
   1.  C 1 (s)      0.9918 -0.0006 -0.2195 -0.0001  0.0001 -0.0040 -0.0343  0.0000
   2.  C 1 (s)      0.0395 -0.0020  0.6243  0.0003 -0.0004  0.0361  0.0982  0.0000
   3.  C 1 (px)    -0.0003  0.0002 -0.0582  0.0002 -0.0003  0.2019  0.5912  0.0000
   4.  C 1 (py)     0.0000  0.0000 -0.0001  0.5534 -0.0001 -0.0001 -0.0002 -0.0385
   5.  C 1 (pz)     0.0000  0.0000  0.0002  0.0001  0.5536  0.0002  0.0003  0.0220
   6. Be 2 (s)      0.0002  0.9915 -0.0482 -0.0001  0.0001 -0.2034 -0.0898  0.0000
   7. Be 2 (s)     -0.0051  0.0323  0.0664  0.0002 -0.0003  0.4932  0.2304  0.0000
   8. Be 2 (px)     0.0072 -0.0006 -0.0633 -0.0001  0.0001  0.2217 -0.4332  0.0002
   9. Be 2 (py)     0.0000  0.0000  0.0000  0.0703  0.0000  0.0000  0.0000  0.8715
  10. Be 2 (pz)     0.0000  0.0000  0.0000  0.0000  0.0705  0.0001  0.0000 -0.4980
  11.  H 3 (s)     -0.0066 -0.0017  0.2016 -0.1048  0.4855 -0.0519 -0.1552  0.1465
  12.  H 4 (s)     -0.0066 -0.0017  0.2015 -0.3680 -0.3334 -0.0522 -0.1555  0.0678
  13.  H 5 (s)     -0.0066 -0.0017  0.2015  0.4725 -0.1519 -0.0523 -0.1558 -0.2143
  14.  H 6 (s)     -0.0019 -0.0022  0.0096  0.0001 -0.0001  0.5256 -0.2087  0.0000

           AO          9      10      11      12      13      14
      ------------ ------- ------- ------- ------- ------- -------
   1.  C 1 (s)      0.0000  0.1257  0.0014 -0.0010 -0.2112 -0.0635
   2.  C 1 (s)      0.0000 -0.7562 -0.0087  0.0066  1.3793  0.5118
   3.  C 1 (px)     0.0000 -0.5538  0.0040 -0.0030 -0.6026  0.7403
   4.  C 1 (py)    -0.0220  0.0000 -0.0023  1.1231 -0.0059  0.0002
   5.  C 1 (pz)    -0.0385  0.0000  1.1222  0.0023  0.0078 -0.0003
   6. Be 2 (s)      0.0000 -0.2173  0.0002 -0.0002 -0.0346 -0.0012
   7. Be 2 (s)      0.0000  1.2353 -0.0015  0.0011  0.2181  0.0759
   8. Be 2 (px)    -0.0001 -0.1133 -0.0009  0.0007  0.2028  1.5106
   9. Be 2 (py)     0.4980  0.0000  0.0004 -0.1748  0.0008 -0.0002
  10. Be 2 (pz)     0.8715  0.0000 -0.1751 -0.0004 -0.0011  0.0002
  11.  H 3 (s)     -0.1632  0.0864 -0.9469  0.1999 -0.7473  0.1499
  12.  H 4 (s)      0.2084  0.0866  0.6567  0.7191 -0.7395  0.1496
  13.  H 5 (s)     -0.0452  0.0866  0.3044 -0.9297 -0.7338  0.1493
  14.  H 6 (s)      0.0000 -0.7525  0.0015 -0.0012 -0.2738 -1.1137


 NOs in the AO basis:

           AO          1       2       3       4       5       6       7       8
      ------------ ------- ------- ------- ------- ------- ------- ------- -------
   1.  C 1 (s)      0.8428 -0.1059 -0.3745  0.0720  0.3371 -0.1266 -0.1907 -0.0043
   2.  C 1 (s)     -0.0580 -0.2798 -0.0036 -0.5547 -0.1101  0.0178  0.0220  0.0273
   3.  C 1 (px)     0.0688  0.0487 -0.0073 -0.0737  0.0002 -0.3252  0.5247 -0.0085
   4.  C 1 (py)    -0.0737 -0.0216 -0.4378  0.0631 -0.1385  0.2419  0.1643 -0.1258
   5.  C 1 (pz)    -0.2461  0.0321 -0.1434 -0.0832  0.4647 -0.0384 -0.0083 -0.0533
   6. Be 2 (s)     -0.1551 -0.8545  0.0688  0.5135  0.0845 -0.0591 -0.0376  0.0011
   7. Be 2 (s)     -0.0678  0.0357 -0.1619 -0.1367 -0.1480 -0.4569  0.1430 -0.0059
   8. Be 2 (px)    -0.0903  0.0839 -0.1446  0.1004 -0.0939 -0.0730 -0.4248 -0.0008
   9. Be 2 (py)    -0.0094 -0.0028 -0.0556  0.0080 -0.0176  0.0307  0.0209  0.8519
  10. Be 2 (pz)    -0.0313  0.0041 -0.0183 -0.0106  0.0591 -0.0049 -0.0011  0.5503
  11.  H 3 (s)     -0.2551 -0.0604 -0.0349 -0.2231  0.3958  0.0293 -0.1923 -0.0831
  12.  H 4 (s)      0.1439 -0.0977  0.3854 -0.1301 -0.2257 -0.0289 -0.2582  0.1279
  13.  H 5 (s)     -0.0488 -0.1200 -0.3266 -0.0616 -0.2837  0.3259 -0.0113 -0.0858
  14.  H 6 (s)     -0.1250  0.1087 -0.2313 -0.0335 -0.1861 -0.3664 -0.2626  0.0048

           AO          9      10      11      12      13      14
      ------------ ------- ------- ------- ------- ------- -------
   1.  C 1 (s)      0.0087  0.0184 -0.1020 -0.1037 -0.0952  0.1838
   2.  C 1 (s)     -0.0579 -0.1232  0.6800  0.5718  0.6109 -1.2469
   3.  C 1 (px)    -0.0692 -0.1136  0.9725 -0.3154 -0.2486  0.3052
   4.  C 1 (py)     0.5605  0.8510  0.1315  0.1076 -0.3847 -0.1798
   5.  C 1 (pz)    -0.4231 -0.2310 -0.1023  0.2436 -0.9129 -0.3507
   6. Be 2 (s)     -0.0121 -0.0195  0.1651  0.1300  0.0033  0.0608
   7. Be 2 (s)      0.0654  0.1045 -0.8976 -0.7785 -0.0138 -0.3900
   8. Be 2 (px)    -0.0773 -0.1476  1.0185 -0.8598  0.0096 -0.7291
   9. Be 2 (py)    -0.4974  0.2288 -0.0039 -0.0381  0.0954  0.0464
  10. Be 2 (pz)     0.7493 -0.4166  0.0014 -0.0036 -0.0149  0.0101
  11.  H 3 (s)      0.2595  0.4844  0.2576 -0.5771  0.4199  0.8298
  12.  H 4 (s)      0.1471  0.4015  0.1677 -0.1678 -1.1247  0.2297
  13.  H 5 (s)     -0.4265 -0.8893  0.0013 -0.3971 -0.2717  0.6014
  14.  H 6 (s)      0.0103  0.0334 -0.1141  1.1341  0.0091  0.7622


 AO overlap matrix:

           AO          1       2       3       4       5       6       7       8
      ------------ ------- ------- ------- ------- ------- ------- ------- -------
   1.  C 1 (s)      1.0000  0.2484  0.0000  0.0000  0.0000  0.0000  0.0381 -0.0649
   2.  C 1 (s)      0.2484  1.0000  0.0000  0.0000  0.0000  0.0364  0.3559 -0.4580
   3.  C 1 (px)     0.0000  0.0000  1.0000  0.0000  0.0000  0.0618  0.2835 -0.2957
   4.  C 1 (py)     0.0000  0.0000  0.0000  1.0000  0.0000  0.0000  0.0000  0.0000
   5.  C 1 (pz)     0.0000  0.0000  0.0000  0.0000  1.0000  0.0000  0.0000 -0.0001
   6. Be 2 (s)      0.0000  0.0364  0.0618  0.0000  0.0000  1.0000  0.2595  0.0000
   7. Be 2 (s)      0.0381  0.3559  0.2835  0.0000  0.0000  0.2595  1.0000  0.0000
   8. Be 2 (px)    -0.0649 -0.4580 -0.2957  0.0000 -0.0001  0.0000  0.0000  1.0000
   9. Be 2 (py)     0.0000  0.0000  0.0000  0.2029  0.0000  0.0000  0.0000  0.0000
  10. Be 2 (pz)     0.0000 -0.0001 -0.0001  0.0000  0.2029  0.0000  0.0000  0.0000
  11.  H 3 (s)      0.0630  0.4936 -0.1742 -0.0921  0.4256  0.0072  0.1557 -0.1994
  12.  H 4 (s)      0.0630  0.4936 -0.1742 -0.3231 -0.2919  0.0072  0.1557 -0.1994
  13.  H 5 (s)      0.0630  0.4936 -0.1741  0.4147 -0.1329  0.0072  0.1557 -0.1994
  14.  H 6 (s)      0.0005  0.0180  0.0276  0.0000  0.0000  0.0774  0.4799  0.5392

           AO          9      10      11      12      13      14
      ------------ ------- ------- ------- ------- ------- -------
   1.  C 1 (s)      0.0000  0.0000  0.0630  0.0630  0.0630  0.0005
   2.  C 1 (s)      0.0000 -0.0001  0.4936  0.4936  0.4936  0.0180
   3.  C 1 (px)     0.0000 -0.0001 -0.1742 -0.1742 -0.1741  0.0276
   4.  C 1 (py)     0.2029  0.0000 -0.0921 -0.3231  0.4147  0.0000
   5.  C 1 (pz)     0.0000  0.2029  0.4256 -0.2919 -0.1329  0.0000
   6. Be 2 (s)      0.0000  0.0000  0.0072  0.0072  0.0072  0.0774
   7. Be 2 (s)      0.0000  0.0000  0.1557  0.1557  0.1557  0.4799
   8. Be 2 (px)     0.0000  0.0000 -0.1994 -0.1994 -0.1994  0.5392
   9. Be 2 (py)     1.0000  0.0000 -0.0203 -0.0712  0.0914 -0.0001
  10. Be 2 (pz)     0.0000  1.0000  0.0937 -0.0643 -0.0293  0.0001
  11.  H 3 (s)     -0.0203  0.0937  1.0000  0.1790  0.1787  0.0056
  12.  H 4 (s)     -0.0712 -0.0643  0.1790  1.0000  0.1783  0.0056
  13.  H 5 (s)      0.0914 -0.0293  0.1787  0.1783  1.0000  0.0056
  14.  H 6 (s)     -0.0001  0.0001  0.0056  0.0056  0.0056  1.0000


 AO bond-order matrix:

           AO          1       2       3       4       5       6       7       8
      ------------ ------- ------- ------- ------- ------- ------- ------- -------
   1.  C 1 (s)      2.0660 -0.2028 -0.0172  0.0000  0.0000  0.0282 -0.0590  0.0700
   2.  C 1 (s)     -0.2028  0.8046  0.0580  0.0001 -0.0001 -0.0964  0.1633 -0.1475
   3.  C 1 (px)    -0.0172  0.0580  0.7874 -0.0001  0.0001 -0.1824  0.4638 -0.4153
   4.  C 1 (py)     0.0000  0.0001 -0.0001  0.6126  0.0000  0.0000  0.0000  0.0000
   5.  C 1 (pz)     0.0000 -0.0001  0.0001  0.0000  0.6131  0.0000  0.0001 -0.0001
   6. Be 2 (s)      0.0282 -0.0964 -0.1824  0.0000  0.0000  2.0696 -0.1844 -0.0075
   7. Be 2 (s)     -0.0590  0.1633  0.4638  0.0000  0.0001 -0.1844  0.6036  0.0106
   8. Be 2 (px)     0.0700 -0.1475 -0.4153  0.0000 -0.0001 -0.0075  0.0106  0.4817
   9. Be 2 (py)     0.0000  0.0000  0.0000  0.0778  0.0000  0.0000  0.0000  0.0000
  10. Be 2 (pz)     0.0000 -0.0001  0.0000  0.0000  0.0780  0.0000  0.0000  0.0001
  11.  H 3 (s)     -0.0903  0.2165 -0.2282 -0.1160  0.5376  0.0264 -0.0963  0.0860
  12.  H 4 (s)     -0.0904  0.2168 -0.2284 -0.4072 -0.3692  0.0264 -0.0964  0.0860
  13.  H 5 (s)     -0.0905  0.2171 -0.2285  0.5231 -0.1682  0.0264 -0.0964  0.0861
  14.  H 6 (s)      0.0022  0.0088 -0.0357  0.0000  0.0000 -0.1817  0.4234  0.4126

           AO          9      10      11      12      13      14
      ------------ ------- ------- ------- ------- ------- -------
   1.  C 1 (s)      0.0000  0.0000 -0.0903 -0.0904 -0.0905  0.0022
   2.  C 1 (s)      0.0000 -0.0001  0.2165  0.2168  0.2171  0.0088
   3.  C 1 (px)     0.0000  0.0000 -0.2282 -0.2284 -0.2285 -0.0357
   4.  C 1 (py)     0.0778  0.0000 -0.1160 -0.4072  0.5231  0.0000
   5.  C 1 (pz)     0.0000  0.0780  0.5376 -0.3692 -0.1682  0.0000
   6. Be 2 (s)      0.0000  0.0000  0.0264  0.0264  0.0264 -0.1817
   7. Be 2 (s)      0.0000  0.0000 -0.0963 -0.0964 -0.0964  0.4234
   8. Be 2 (px)     0.0000  0.0001  0.0860  0.0860  0.0861  0.4126
   9. Be 2 (py)     0.0099  0.0000 -0.0147 -0.0517  0.0664  0.0000
  10. Be 2 (pz)     0.0000  0.0099  0.0684 -0.0470 -0.0214  0.0001
  11.  H 3 (s)     -0.0147  0.0684  0.6283 -0.1116 -0.1114  0.0140
  12.  H 4 (s)     -0.0517 -0.0470 -0.1116  0.6282 -0.1112  0.0140
  13.  H 5 (s)      0.0664 -0.0214 -0.1114 -0.1112  0.6281  0.0140
  14.  H 6 (s)      0.0000  0.0001  0.0140  0.0140  0.0140  0.6397


 AO density matrix:

           AO          1       2       3       4       5       6       7       8
      ------------ ------- ------- ------- ------- ------- ------- ------- -------
   1.  C 1 (s)      1.9995  0.5047 -0.0003  0.0000  0.0000  0.0002  0.0701 -0.1243
   2.  C 1 (s)      0.5047  1.8782  0.0170 -0.0001  0.0001  0.0700  0.8040 -0.9820
   3.  C 1 (px)    -0.0003  0.0170  1.6904  0.0001 -0.0001  0.1152  0.8044 -0.7530
   4.  C 1 (py)     0.0000 -0.0001  0.0001  1.5920  0.0000  0.0000 -0.0001  0.0001
   5.  C 1 (pz)     0.0000  0.0001 -0.0001  0.0000  1.5916  0.0000  0.0001 -0.0002
   6. Be 2 (s)      0.0002  0.0700  0.1152  0.0000  0.0000  1.9996  0.5321 -0.0017
   7. Be 2 (s)      0.0701  0.8040  0.8044 -0.0001  0.0001  0.5321  1.6144  0.0546
   8. Be 2 (px)    -0.1243 -0.9820 -0.7530  0.0001 -0.0002 -0.0017  0.0546  1.7078
   9. Be 2 (py)     0.0000  0.0001  0.0001  0.4533  0.0000  0.0000  0.0000 -0.0002
  10. Be 2 (pz)     0.0000 -0.0002 -0.0001  0.0000  0.4535  0.0000  0.0000  0.0002
  11.  H 3 (s)      0.1188  1.1006 -0.4384 -0.2473  1.1434  0.0150  0.2821 -0.3831
  12.  H 4 (s)      0.1188  1.1008 -0.4383 -0.8675 -0.7847  0.0150  0.2820 -0.3830
  13.  H 5 (s)      0.1188  1.1008 -0.4383  1.1138 -0.3573  0.0150  0.2820 -0.3830
  14.  H 6 (s)      0.0018  0.0118 -0.0117  0.0000  0.0000  0.1467  1.1975  1.2211

           AO          9      10      11      12      13      14
      ------------ ------- ------- ------- ------- ------- -------
   1.  C 1 (s)      0.0000  0.0000  0.1188  0.1188  0.1188  0.0018
   2.  C 1 (s)      0.0001 -0.0002  1.1006  1.1008  1.1008  0.0118
   3.  C 1 (px)     0.0001 -0.0001 -0.4384 -0.4383 -0.4383 -0.0117
   4.  C 1 (py)     0.4533  0.0000 -0.2473 -0.8675  1.1138  0.0000
   5.  C 1 (pz)     0.0000  0.4535  1.1434 -0.7847 -0.3573  0.0000
   6. Be 2 (s)      0.0000  0.0000  0.0150  0.0150  0.0150  0.1467
   7. Be 2 (s)      0.0000  0.0000  0.2821  0.2820  0.2820  1.1975
   8. Be 2 (px)    -0.0002  0.0002 -0.3831 -0.3830 -0.3830  1.2211
   9. Be 2 (py)     0.1291  0.0000 -0.0704 -0.2470  0.3172 -0.0001
  10. Be 2 (pz)     0.0000  0.1292  0.3257 -0.2237 -0.1019  0.0002
  11.  H 3 (s)     -0.0704  0.3257  1.6408  0.3521  0.3514  0.0221
  12.  H 4 (s)     -0.2470 -0.2237  0.3521  1.6408  0.3505  0.0221
  13.  H 5 (s)      0.3172 -0.1019  0.3514  0.3505  1.6408  0.0221
  14.  H 6 (s)     -0.0001  0.0002  0.0221  0.0221  0.0221  1.7442


 MO density matrix:

      MO     1       2       3       4       5       6       7       8       9
     ---- ------  ------  ------  ------  ------  ------  ------  ------  ------
   1.     2.0000  0.0000  0.0000  0.0000  0.0000  0.0000  0.0000  0.0000  0.0000
   2.     0.0000  2.0000  0.0000  0.0000  0.0000  0.0000  0.0000  0.0000  0.0000
   3.     0.0000  0.0000  2.0000  0.0000  0.0000  0.0000  0.0000  0.0000  0.0000
   4.     0.0000  0.0000  0.0000  2.0000  0.0000  0.0000  0.0000  0.0000  0.0000
   5.     0.0000  0.0000  0.0000  0.0000  2.0000  0.0000  0.0000  0.0000  0.0000
   6.     0.0000  0.0000  0.0000  0.0000  0.0000  2.0000  0.0000  0.0000  0.0000
   7.     0.0000  0.0000  0.0000  0.0000  0.0000  0.0000  2.0000  0.0000  0.0000
   8.     0.0000  0.0000  0.0000  0.0000  0.0000  0.0000  0.0000  0.0000  0.0000
   9.     0.0000  0.0000  0.0000  0.0000  0.0000  0.0000  0.0000  0.0000  0.0000
  10.     0.0000  0.0000  0.0000  0.0000  0.0000  0.0000  0.0000  0.0000  0.0000
  11.     0.0000  0.0000  0.0000  0.0000  0.0000  0.0000  0.0000  0.0000  0.0000
  12.     0.0000  0.0000  0.0000  0.0000  0.0000  0.0000  0.0000  0.0000  0.0000
  13.     0.0000  0.0000  0.0000  0.0000  0.0000  0.0000  0.0000  0.0000  0.0000
  14.     0.0000  0.0000  0.0000  0.0000  0.0000  0.0000  0.0000  0.0000  0.0000

      MO    10      11      12      13      14
     ---- ------  ------  ------  ------  ------
   1.     0.0000  0.0000  0.0000  0.0000  0.0000
   2.     0.0000  0.0000  0.0000  0.0000  0.0000
   3.     0.0000  0.0000  0.0000  0.0000  0.0000
   4.     0.0000  0.0000  0.0000  0.0000  0.0000
   5.     0.0000  0.0000  0.0000  0.0000  0.0000
   6.     0.0000  0.0000  0.0000  0.0000  0.0000
   7.     0.0000  0.0000  0.0000  0.0000  0.0000
   8.     0.0000  0.0000  0.0000  0.0000  0.0000
   9.     0.0000  0.0000  0.0000  0.0000  0.0000
  10.     0.0000  0.0000  0.0000  0.0000  0.0000
  11.     0.0000  0.0000  0.0000  0.0000  0.0000
  12.     0.0000  0.0000  0.0000  0.0000  0.0000
  13.     0.0000  0.0000  0.0000  0.0000  0.0000
  14.     0.0000  0.0000  0.0000  0.0000  0.0000


 NATURAL POPULATIONS:  Natural atomic orbital occupancies

  NAO Atom No lang   Type(AO)    Occupancy      Energy
 -------------------------------------------------------
   1    C  1  s      Cor( 1s)     1.99999     -10.96649
   2    C  1  s      Val( 2s)     1.18297      -0.22226
   3    C  1  px     Val( 2p)     1.36701      -0.05262
   4    C  1  py     Val( 2p)     1.03723       0.09594
   5    C  1  pz     Val( 2p)     1.03760       0.09556

   6   Be  2  s      Cor( 1s)     2.00000      -4.49867
   7   Be  2  s      Val( 2s)     0.88658       0.05070
   8   Be  2  px     Ryd( 2p)     0.18694       0.83908
   9   Be  2  py     Ryd( 2p)     0.00947       0.24883
  10   Be  2  pz     Ryd( 2p)     0.00952       0.24884

  11    H  3  s      Val( 1s)     0.94962       0.09885

  12    H  4  s      Val( 1s)     0.94959       0.09885

  13    H  5  s      Val( 1s)     0.94956       0.09884

  14    H  6  s      Val( 1s)     1.43390      -0.14681


 Summary of Natural Population Analysis:

                                     Natural Population
             Natural    ---------------------------------------------
  Atom No    Charge        Core      Valence    Rydberg      Total
 --------------------------------------------------------------------
    C  1   -0.62481      1.99999     4.62481    0.00000     6.62481
   Be  2    0.90748      2.00000     0.88658    0.20594     3.09252
    H  3    0.05038      0.00000     0.94962    0.00000     0.94962
    H  4    0.05041      0.00000     0.94959    0.00000     0.94959
    H  5    0.05044      0.00000     0.94956    0.00000     0.94956
    H  6   -0.43390      0.00000     1.43390    0.00000     1.43390
 ====================================================================
 * Total *  0.00000      3.99999     9.79407    0.20594    14.00000

                                 Natural Population
 ---------------------------------------------------------
   Core                       3.99999 ( 99.9998% of    4)
   Valence                    9.79407 ( 97.9407% of   10)
   Natural Minimal Basis     13.79406 ( 98.5290% of   14)
   Natural Rydberg Basis      0.20594 (  1.4710% of   14)
 ---------------------------------------------------------

    Atom No         Natural Electron Configuration
 ----------------------------------------------------------------------------
      C  1      [core]2s( 1.18)2p( 3.44)
     Be  2      [core]2s( 0.89)2p( 0.21)
      H  3            1s( 0.95)
      H  4            1s( 0.95)
      H  5            1s( 0.95)
      H  6            1s( 1.43)


 PNAOs in the AO basis:

           AO          1       2       3       4       5       6       7       8
      ------------ ------- ------- ------- ------- ------- ------- ------- -------
   1.  C 1 (s)      0.9820 -0.3185  0.0000  0.0000  0.0000  0.0000  0.0000  0.0000
   2.  C 1 (s)      0.0647  1.0303  0.0000  0.0000  0.0000  0.0000  0.0000  0.0000
   3.  C 1 (px)     0.0000  0.0000  1.0000  0.0000  0.0000  0.0000  0.0000  0.0000
   4.  C 1 (py)     0.0000  0.0000  0.0000  1.0000  0.0000  0.0000  0.0000  0.0000
   5.  C 1 (pz)     0.0000  0.0000  0.0000  0.0000  1.0000  0.0000  0.0000  0.0000
   6. Be 2 (s)      0.0000  0.0000  0.0000  0.0000  0.0000  0.9907 -0.3011  0.0000
   7. Be 2 (s)      0.0000  0.0000  0.0000  0.0000  0.0000  0.0337  1.0349  0.0000
   8. Be 2 (px)     0.0000  0.0000  0.0000  0.0000  0.0000  0.0000  0.0000  1.0000
   9. Be 2 (py)     0.0000  0.0000  0.0000  0.0000  0.0000  0.0000  0.0000  0.0000
  10. Be 2 (pz)     0.0000  0.0000  0.0000  0.0000  0.0000  0.0000  0.0000  0.0000
  11.  H 3 (s)      0.0000  0.0000  0.0000  0.0000  0.0000  0.0000  0.0000  0.0000
  12.  H 4 (s)      0.0000  0.0000  0.0000  0.0000  0.0000  0.0000  0.0000  0.0000
  13.  H 5 (s)      0.0000  0.0000  0.0000  0.0000  0.0000  0.0000  0.0000  0.0000
  14.  H 6 (s)      0.0000  0.0000  0.0000  0.0000  0.0000  0.0000  0.0000  0.0000

           AO          9      10      11      12      13      14
      ------------ ------- ------- ------- ------- ------- -------
   1.  C 1 (s)      0.0000  0.0000  0.0000  0.0000  0.0000  0.0000
   2.  C 1 (s)      0.0000  0.0000  0.0000  0.0000  0.0000  0.0000
   3.  C 1 (px)     0.0000  0.0000  0.0000  0.0000  0.0000  0.0000
   4.  C 1 (py)     0.0000  0.0000  0.0000  0.0000  0.0000  0.0000
   5.  C 1 (pz)     0.0000  0.0000  0.0000  0.0000  0.0000  0.0000
   6. Be 2 (s)      0.0000  0.0000  0.0000  0.0000  0.0000  0.0000
   7. Be 2 (s)      0.0000  0.0000  0.0000  0.0000  0.0000  0.0000
   8. Be 2 (px)     0.0000  0.0000  0.0000  0.0000  0.0000  0.0000
   9. Be 2 (py)     1.0000  0.0000  0.0000  0.0000  0.0000  0.0000
  10. Be 2 (pz)     0.0000  1.0000  0.0000  0.0000  0.0000  0.0000
  11.  H 3 (s)      0.0000  0.0000  1.0000  0.0000  0.0000  0.0000
  12.  H 4 (s)      0.0000  0.0000  0.0000  1.0000  0.0000  0.0000
  13.  H 5 (s)      0.0000  0.0000  0.0000  0.0000  1.0000  0.0000
  14.  H 6 (s)      0.0000  0.0000  0.0000  0.0000  0.0000  1.0000


 PNAO overlap matrix:

           NAO         1       2       3       4       5       6       7       8
      ------------ ------- ------- ------- ------- ------- ------- ------- -------
   1.  C 1( 1s )    1.0000  0.0000  0.0000  0.0000  0.0000  0.0044  0.0618 -0.0934
   2.  C 1( 2s )    0.0000  1.0000  0.0000  0.0000  0.0000  0.0491  0.3556 -0.4512
   3.  C 1( 2px)    0.0000  0.0000  1.0000  0.0000  0.0000  0.0707  0.2748 -0.2957
   4.  C 1( 2py)    0.0000  0.0000  0.0000  1.0000  0.0000  0.0000  0.0000  0.0000
   5.  C 1( 2pz)    0.0000  0.0000  0.0000  0.0000  1.0000  0.0000  0.0000 -0.0001
   6. Be 2( 1s )    0.0044  0.0491  0.0707  0.0000  0.0000  1.0000  0.0000  0.0000
   7. Be 2( 2s )    0.0618  0.3556  0.2748  0.0000  0.0000  0.0000  1.0000  0.0000
   8. Be 2( 2px)   -0.0934 -0.4512 -0.2957  0.0000 -0.0001  0.0000  0.0000  1.0000
   9. Be 2( 2py)    0.0000  0.0000  0.0000  0.2029  0.0000  0.0000  0.0000  0.0000
  10. Be 2( 2pz)    0.0000 -0.0001 -0.0001  0.0000  0.2029  0.0000  0.0000  0.0000
  11.  H 3( 1s )    0.0938  0.4885 -0.1742 -0.0921  0.4256  0.0124  0.1589 -0.1994
  12.  H 4( 1s )    0.0938  0.4885 -0.1742 -0.3231 -0.2919  0.0124  0.1589 -0.1994
  13.  H 5( 1s )    0.0938  0.4885 -0.1741  0.4147 -0.1329  0.0124  0.1589 -0.1994
  14.  H 6( 1s )    0.0016  0.0184  0.0276  0.0000  0.0000  0.0929  0.4734  0.5392

           NAO         9      10      11      12      13      14
      ------------ ------- ------- ------- ------- ------- -------
   1.  C 1( 1s )    0.0000  0.0000  0.0938  0.0938  0.0938  0.0016
   2.  C 1( 2s )    0.0000 -0.0001  0.4885  0.4885  0.4885  0.0184
   3.  C 1( 2px)    0.0000 -0.0001 -0.1742 -0.1742 -0.1741  0.0276
   4.  C 1( 2py)    0.2029  0.0000 -0.0921 -0.3231  0.4147  0.0000
   5.  C 1( 2pz)    0.0000  0.2029  0.4256 -0.2919 -0.1329  0.0000
   6. Be 2( 1s )    0.0000  0.0000  0.0124  0.0124  0.0124  0.0929
   7. Be 2( 2s )    0.0000  0.0000  0.1589  0.1589  0.1589  0.4734
   8. Be 2( 2px)    0.0000  0.0000 -0.1994 -0.1994 -0.1994  0.5392
   9. Be 2( 2py)    1.0000  0.0000 -0.0203 -0.0712  0.0914 -0.0001
  10. Be 2( 2pz)    0.0000  1.0000  0.0937 -0.0643 -0.0293  0.0001
  11.  H 3( 1s )   -0.0203  0.0937  1.0000  0.1790  0.1787  0.0056
  12.  H 4( 1s )   -0.0712 -0.0643  0.1790  1.0000  0.1783  0.0056
  13.  H 5( 1s )    0.0914 -0.0293  0.1787  0.1783  1.0000  0.0056
  14.  H 6( 1s )   -0.0001  0.0001  0.0056  0.0056  0.0056  1.0000


 PNAO density matrix:

           NAO         1       2       3       4       5       6       7       8
      ------------ ------- ------- ------- ------- ------- ------- ------- -------
   1.  C 1( 1s )    2.0000  0.0000  0.0008  0.0000  0.0000  0.0087  0.1236 -0.1855
   2.  C 1( 2s )    0.0000  1.8653  0.0176 -0.0001  0.0001  0.0985  0.8126 -0.9722
   3.  C 1( 2px)    0.0008  0.0176  1.6904  0.0001 -0.0001  0.1412  0.7978 -0.7530
   4.  C 1( 2py)    0.0000 -0.0001  0.0001  1.5920  0.0000  0.0000 -0.0001  0.0001
   5.  C 1( 2pz)    0.0000  0.0001 -0.0001  0.0000  1.5916  0.0000  0.0001 -0.0002
   6. Be 2( 1s )    0.0087  0.0985  0.1412  0.0000  0.0000  2.0000  0.0000  0.0002
   7. Be 2( 2s )    0.1236  0.8126  0.7978 -0.0001  0.0001  0.0000  1.5788  0.0570
   8. Be 2( 2px)   -0.1855 -0.9722 -0.7530  0.0001 -0.0002  0.0002  0.0570  1.7078
   9. Be 2( 2py)    0.0000  0.0001  0.0001  0.4533  0.0000  0.0000  0.0000 -0.0002
  10. Be 2( 2pz)    0.0000 -0.0002 -0.0001  0.0000  0.4535  0.0000  0.0000  0.0002
  11.  H 3( 1s )    0.1878  1.0962 -0.4384 -0.2473  1.1434  0.0244  0.2874 -0.3831
  12.  H 4( 1s )    0.1878  1.0963 -0.4383 -0.8675 -0.7847  0.0244  0.2874 -0.3830
  13.  H 5( 1s )    0.1878  1.0964 -0.4383  1.1138 -0.3573  0.0244  0.2874 -0.3830
  14.  H 6( 1s )    0.0025  0.0116 -0.0117  0.0000  0.0000  0.1856  1.1951  1.2211

           NAO         9      10      11      12      13      14
      ------------ ------- ------- ------- ------- ------- -------
   1.  C 1( 1s )    0.0000  0.0000  0.1878  0.1878  0.1878  0.0025
   2.  C 1( 2s )    0.0001 -0.0002  1.0962  1.0963  1.0964  0.0116
   3.  C 1( 2px)    0.0001 -0.0001 -0.4384 -0.4383 -0.4383 -0.0117
   4.  C 1( 2py)    0.4533  0.0000 -0.2473 -0.8675  1.1138  0.0000
   5.  C 1( 2pz)    0.0000  0.4535  1.1434 -0.7847 -0.3573  0.0000
   6. Be 2( 1s )    0.0000  0.0000  0.0244  0.0244  0.0244  0.1856
   7. Be 2( 2s )    0.0000  0.0000  0.2874  0.2874  0.2874  1.1951
   8. Be 2( 2px)   -0.0002  0.0002 -0.3831 -0.3830 -0.3830  1.2211
   9. Be 2( 2py)    0.1291  0.0000 -0.0704 -0.2470  0.3172 -0.0001
  10. Be 2( 2pz)    0.0000  0.1292  0.3257 -0.2237 -0.1019  0.0002
  11.  H 3( 1s )   -0.0704  0.3257  1.6408  0.3521  0.3514  0.0221
  12.  H 4( 1s )   -0.2470 -0.2237  0.3521  1.6408  0.3505  0.0221
  13.  H 5( 1s )    0.3172 -0.1019  0.3514  0.3505  1.6408  0.0221
  14.  H 6( 1s )   -0.0001  0.0002  0.0221  0.0221  0.0221  1.7442


 NAOs in the AO basis:

           AO          1       2       3       4       5       6       7       8
      ------------ ------- ------- ------- ------- ------- ------- ------- -------
   1.  C 1 (s)      0.9820 -0.3571  0.0083  0.0000  0.0000 -0.0021  0.0060 -0.0735
   2.  C 1 (s)      0.0647  1.4817 -0.1091 -0.0002  0.0002 -0.0001 -0.2266  0.6633
   3.  C 1 (px)     0.0000 -0.0909  1.1039  0.0001 -0.0001  0.0000 -0.2120  0.5303
   4.  C 1 (py)     0.0000 -0.0001  0.0001  1.1708  0.0000  0.0000  0.0000  0.0000
   5.  C 1 (pz)     0.0000  0.0002 -0.0001  0.0000  1.1702  0.0000  0.0000  0.0000
   6. Be 2 (s)     -0.0022 -0.0026 -0.0213  0.0000  0.0000  0.9907 -0.3174  0.0075
   7. Be 2 (s)     -0.0001 -0.1911 -0.2160  0.0000  0.0000  0.0337  1.2967  0.0151
   8. Be 2 (px)     0.0000  0.0000  0.0000  0.0000  0.0000  0.0000  0.0000  1.6052
   9. Be 2 (py)     0.0000  0.0000  0.0000  0.0000  0.0000  0.0000  0.0000 -0.0001
  10. Be 2 (pz)     0.0000  0.0000  0.0000  0.0000  0.0000  0.0000  0.0000  0.0001
  11.  H 3 (s)      0.0000 -0.3173  0.1365  0.0697 -0.3220  0.0000 -0.0467  0.0680
  12.  H 4 (s)      0.0000 -0.3173  0.1364  0.2445  0.2209  0.0000 -0.0467  0.0679
  13.  H 5 (s)      0.0000 -0.3173  0.1364 -0.3138  0.1006  0.0000 -0.0467  0.0679
  14.  H 6 (s)      0.0000  0.0616  0.0666  0.0000  0.0000  0.0000 -0.3475 -0.9010

           AO          9      10      11      12      13      14
      ------------ ------- ------- ------- ------- ------- -------
   1.  C 1 (s)      0.0000  0.0000  0.0027  0.0027  0.0027 -0.0069
   2.  C 1 (s)     -0.0001  0.0001 -0.3791 -0.3791 -0.3791  0.0688
   3.  C 1 (px)    -0.0001  0.0001  0.1351  0.1351  0.1350  0.0621
   4.  C 1 (py)    -0.1978  0.0000  0.0690  0.2421 -0.3107  0.0000
   5.  C 1 (pz)     0.0000 -0.1978 -0.3188  0.2187  0.0996  0.0000
   6. Be 2 (s)      0.0000  0.0000  0.0055  0.0055  0.0055 -0.0167
   7. Be 2 (s)      0.0000  0.0000 -0.0468 -0.0468 -0.0468 -0.3293
   8. Be 2 (px)    -0.0001  0.0001  0.0000  0.0000  0.0000  0.0000
   9. Be 2 (py)     1.0213  0.0000  0.0000  0.0000  0.0000  0.0000
  10. Be 2 (pz)     0.0000  1.0213  0.0000  0.0000  0.0000  0.0000
  11.  H 3 (s)      0.0030 -0.0141  1.2851 -0.0186 -0.0186  0.0136
  12.  H 4 (s)      0.0107  0.0097 -0.0186  1.2851 -0.0186  0.0136
  13.  H 5 (s)     -0.0137  0.0044 -0.0186 -0.0186  1.2851  0.0136
  14.  H 6 (s)      0.0001 -0.0001  0.0145  0.0145  0.0145  1.1225


 NAO density matrix:

           NAO         1       2       3       4       5       6       7       8
      ------------ ------- ------- ------- ------- ------- ------- ------- -------
   1.  C 1( 1s )    2.0000 -0.0003  0.0009  0.0000  0.0000  0.0000  0.0000  0.0030
   2.  C 1( 2s )   -0.0003  1.1830  0.2000  0.0001 -0.0001  0.0010  0.3497 -0.1678
   3.  C 1( 2px)    0.0009  0.2000  1.3670 -0.0001  0.0001 -0.0005  0.5912 -0.3662
   4.  C 1( 2py)    0.0000  0.0001 -0.0001  1.0372  0.0000  0.0000  0.0000  0.0000
   5.  C 1( 2pz)    0.0000 -0.0001  0.0001  0.0000  1.0376  0.0000  0.0000  0.0000
   6. Be 2( 1s )    0.0000  0.0010 -0.0005  0.0000  0.0000  2.0000  0.0001  0.0004
   7. Be 2( 2s )    0.0000  0.3497  0.5912  0.0000  0.0000  0.0001  0.8866  0.0260
   8. Be 2( 2px)    0.0030 -0.1678 -0.3662  0.0000  0.0000  0.0004  0.0260  0.1869
   9. Be 2( 2py)    0.0000  0.0000  0.0000  0.0991  0.0000  0.0000  0.0000  0.0000
  10. Be 2( 2pz)    0.0000 -0.0001  0.0000  0.0000  0.0994  0.0000  0.0000  0.0000
  11.  H 3( 1s )    0.0004  0.4958 -0.2922 -0.1715  0.7938 -0.0007  0.0008  0.0265
  12.  H 4( 1s )    0.0004  0.4961 -0.2923 -0.6018 -0.5450 -0.0007  0.0008  0.0265
  13.  H 5( 1s )    0.0004  0.4963 -0.2924  0.7728 -0.2482 -0.0007  0.0008  0.0266
  14.  H 6( 1s )   -0.0007 -0.1944 -0.2922  0.0000  0.0000 -0.0001  0.7174  0.4170

           NAO         9      10      11      12      13      14
      ------------ ------- ------- ------- ------- ------- -------
   1.  C 1( 1s )    0.0000  0.0000  0.0004  0.0004  0.0004 -0.0007
   2.  C 1( 2s )    0.0000 -0.0001  0.4958  0.4961  0.4963 -0.1944
   3.  C 1( 2px)    0.0000  0.0000 -0.2922 -0.2923 -0.2924 -0.2922
   4.  C 1( 2py)    0.0991  0.0000 -0.1715 -0.6018  0.7728  0.0000
   5.  C 1( 2pz)    0.0000  0.0994  0.7938 -0.5450 -0.2482  0.0000
   6. Be 2( 1s )    0.0000  0.0000 -0.0007 -0.0007 -0.0007 -0.0001
   7. Be 2( 2s )    0.0000  0.0000  0.0008  0.0008  0.0008  0.7174
   8. Be 2( 2px)    0.0000  0.0000  0.0265  0.0265  0.0266  0.4170
   9. Be 2( 2py)    0.0095  0.0000 -0.0164 -0.0575  0.0739  0.0000
  10. Be 2( 2pz)    0.0000  0.0095  0.0760 -0.0522 -0.0238  0.0000
  11.  H 3( 1s )   -0.0164  0.0760  0.9496 -0.0033 -0.0035 -0.0017
  12.  H 4( 1s )   -0.0575 -0.0522 -0.0033  0.9496 -0.0037 -0.0017
  13.  H 5( 1s )    0.0739 -0.0238 -0.0035 -0.0037  0.9496 -0.0017
  14.  H 6( 1s )    0.0000  0.0000 -0.0017 -0.0017 -0.0017  1.4339


 NATURAL BOND ORBITAL ANALYSIS:

 Initiate 2-center NBO search using THRESH = 1.900 and PRJTHR = 0.300

 Search of NAO DM block for core orbitals on atom:   1
      Eigenvector ( 1) has occupancy 1.99999
            1.0000 0.0000 0.0000 0.0000 0.0000
        1 eigenvector(s) stashed in permanent list

 Search of NAO DM block for core orbitals on atom:   2
      Eigenvector ( 1) has occupancy 2.00000
            1.0000 0.0000 0.0000 0.0000 0.0000
        1 eigenvector(s) stashed in permanent list

 Core orbitals projected from the NAO density matrix
      10.000 electrons remain (>1.900); search continues

 Search of NAO DM block for the following atom(s):   1
      Select eigenvectors with eigenvalue > 1.900
       1.495 1.055 1.038 1.037 0.000

 No NHOs identified in the 1-center search of the NAO density matrix
      10.000 electrons remain (>1.900); search continues

 Search of NAO DM block for the following atom(s):   1   2
      Select eigenvectors with eigenvalue > 1.900
       2.000 1.057 1.047 1.047 0.566 0.000 0.000 0.000 0.000 0.000
      Eigenvector ( 1) has occupancy 2.00000
            0.0000 0.4325 0.7194 0.0000 0.0000 0.0000 0.5136-0.1780
            0.0000 0.0000
      1 hybrid on atom 1 stashed in prospective list
      1 hybrid on atom 2 stashed in prospective list

 Search of NAO DM block for the following atom(s):   1   3
      Select eigenvectors with eigenvalue > 1.900
       1.993 1.495 1.049 1.037 0.000 0.000
      Eigenvector ( 1) has occupancy 1.99309
            0.0000 0.3722-0.2031-0.1238 0.5733 0.6901
      1 hybrid on atom 1 stashed in prospective list
      1 hybrid on atom 3 stashed in prospective list

 Search of NAO DM block for the following atom(s):   1   4
      Select eigenvectors with eigenvalue > 1.900
       1.993 1.495 1.049 1.037 0.000 0.000
      Eigenvector ( 1) has occupancy 1.99310
            0.0000 0.3725-0.2032-0.4344-0.3937 0.6901
      1 hybrid on atom 1 stashed in prospective list
      1 hybrid on atom 4 stashed in prospective list

 Search of NAO DM block for the following atom(s):   1   5
      Select eigenvectors with eigenvalue > 1.900
       1.993 1.495 1.049 1.038 0.000 0.000
      Eigenvector ( 1) has occupancy 1.99311
            0.0000 0.3727-0.2033 0.5580-0.1794 0.6901
      1 hybrid on atom 1 stashed in prospective list
      1 hybrid on atom 5 stashed in prospective list

 Search of NAO DM block for the following atom(s):   2   6
      Select eigenvectors with eigenvalue > 1.900
       2.000 0.506 0.010 0.009 0.002 0.000
      Eigenvector ( 1) has occupancy 1.99995
            0.0000 0.5343 0.1967 0.0000 0.0000 0.8221
      1 hybrid on atom 2 stashed in prospective list
      1 hybrid on atom 6 stashed in prospective list

 Stash prospective hybrids having projection expectation value > 0.300
       0.999 0.999 0.999 0.999 0.999 0.999 0.402 0.402 0.402 0.402
      0 hybrids eliminated in 1 pass
      10 hybrids moved from prospective to permanent list

 NHOs of 2-center eigenvectors projected from the NAO density matrix
       0.019 electrons remain in the fully projected matrix

 Search of NHO DM block for the following atom(s):   1
      Select eigenvectors with eigenvalue > 1.900
       2.000 0.000 0.000 0.000 0.000
      Eigenvector ( 1) has occupancy 1.99999
            1.0000 0.0000 0.0000 0.0000 0.0000
           NBO accepted:    1. Label:CR ( 1)   1
        1 eigenvector(s) stashed in permanent list

 Search of NHO DM block for the following atom(s):   2
      Select eigenvectors with eigenvalue > 1.900
       2.000 0.010 0.009 0.000 0.000
      Eigenvector ( 1) has occupancy 2.00000
            1.0000 0.0000 0.0000 0.0000 0.0000
           NBO accepted:    2. Label:CR ( 1)   2
        1 eigenvector(s) stashed in permanent list

  1-center NBOs projected from the NHO density matrix
      10.000 electrons remain (>1.900); search continues

 Search of NHO DM block for the following atom(s):   1   2
      Select eigenvectors with eigenvalue > 1.900
       1.916 0.090 0.000 0.000 0.000 0.000 0.000 0.000 0.000 0.000
      Eigenvector ( 1) has occupancy 1.91631
            0.0000 0.0000 0.0000 0.0000 0.8768 0.0000 0.4808 0.0000
            0.0000 0.0000
      Occupancy is 1.916 after deleting minor hybrid components
            0.0000 0.0000 0.0000 0.0000 0.8768 0.0000 0.4808 0.0000
            0.0000 0.0000
           NBO accepted:    3. Label:BD ( 1)   1   2
      Occupancy is 0.090 for antibonding component
            0.0000 0.0000 0.0000 0.0000-0.4808 0.0000 0.8768 0.0000
            0.0000 0.0000
           NBO accepted:    4. Label:BD*( 1)   1   2
        2 eigenvector(s) stashed in permanent list

 Search of NHO DM block for the following atom(s):   1   3
      Select eigenvectors with eigenvalue > 1.900
       1.993 0.000 0.000 0.000 0.000 0.000
      Eigenvector ( 1) has occupancy 1.99298
            0.0000 0.7236 0.0000 0.0000 0.0000 0.6903
      Occupancy is 1.993 after deleting minor hybrid components
            0.0000 0.7236 0.0000 0.0000 0.0000 0.6903
           NBO accepted:    5. Label:BD ( 1)   1   3
      Occupancy is 0.000 for antibonding component
            0.0000-0.6903 0.0000 0.0000 0.0000 0.7236
           NBO accepted:    6. Label:BD*( 1)   1   3
        2 eigenvector(s) stashed in permanent list

 Search of NHO DM block for the following atom(s):   1   4
      Select eigenvectors with eigenvalue > 1.900
       1.993 0.000 0.000 0.000 0.000 0.000
      Eigenvector ( 1) has occupancy 1.99299
            0.0000 0.0000 0.7236 0.0000 0.0000 0.6902
      Occupancy is 1.993 after deleting minor hybrid components
            0.0000 0.0000 0.7236 0.0000 0.0000 0.6902
           NBO accepted:    7. Label:BD ( 1)   1   4
      Occupancy is 0.000 for antibonding component
            0.0000 0.0000-0.6902 0.0000 0.0000 0.7236
           NBO accepted:    8. Label:BD*( 1)   1   4
        2 eigenvector(s) stashed in permanent list

 Search of NHO DM block for the following atom(s):   1   5
      Select eigenvectors with eigenvalue > 1.900
       1.993 0.000 0.000 0.000 0.000 0.000
      Eigenvector ( 1) has occupancy 1.99300
            0.0000 0.0000 0.0000 0.7236 0.0000 0.6902
      Occupancy is 1.993 after deleting minor hybrid components
            0.0000 0.0000 0.0000 0.7236 0.0000 0.6902
           NBO accepted:    9. Label:BD ( 1)   1   5
      Occupancy is 0.000 for antibonding component
            0.0000 0.0000 0.0000-0.6902 0.0000 0.7236
           NBO accepted:   10. Label:BD*( 1)   1   5
        2 eigenvector(s) stashed in permanent list

 Search of NHO DM block for the following atom(s):   2   6
      Select eigenvectors with eigenvalue > 1.900
       1.910 0.085 0.000 0.000 0.000 0.000
      Eigenvector ( 1) has occupancy 1.91016
            0.0000 0.0000 0.5108 0.0000 0.0000 0.8597
      Occupancy is 1.910 after deleting minor hybrid components
            0.0000 0.0000 0.5108 0.0000 0.0000 0.8597
           NBO accepted:   11. Label:BD ( 1)   2   6
      Occupancy is 0.085 for antibonding component
            0.0000 0.0000 0.8597 0.0000 0.0000-0.5108
           NBO accepted:   12. Label:BD*( 1)   2   6
        2 eigenvector(s) stashed in permanent list

  2-center NBOs projected from the NHO density matrix
       0.019 electrons remain in the fully projected matrix

                            Occupancies       Lewis Structure    Low   High
         Max    Occ     -------------------  -----------------   occ   occ
  Cycle  Ctr   Thresh    Lewis   non-Lewis     CR  BD  nC  LP    (L)   (NL)
 ============================================================================
    1     2     1.90    13.80544   0.19456      2   5   0   0     0      0
 ----------------------------------------------------------------------------

 Structure accepted: No low occupancy Lewis orbitals

 -------------------------------------------------------
   Core                      3.99999 (100.000% of   4)
   Valence Lewis             9.80544 ( 98.054% of  10)
  ==================      =============================
   Total Lewis              13.80544 ( 98.610% of  14)
  -----------------------------------------------------
   Valence non-Lewis         0.17557 (  1.254% of  14)
   Rydberg non-Lewis         0.01900 (  0.136% of  14)
  ==================      =============================
   Total non-Lewis           0.19456 (  1.390% of  14)
 -------------------------------------------------------


     (Occupancy)   Bond orbital / Coefficients / Hybrids
 ------------------ Lewis ------------------------------------------------------
   1. (1.99999) CR ( 1) C  1            s(100.00%)
                                         1.0000  0.0000  0.0000  0.0000  0.0000
   2. (2.00000) CR ( 1)Be  2            s(100.00%)
                                         1.0000  0.0000  0.0000  0.0000  0.0000
   3. (1.91631) BD ( 1) C  1-Be  2
               ( 76.88%)   0.8768* C  1 s( 25.03%)p 3.00( 74.97%)
                                         0.0000  0.5003  0.8659  0.0000  0.0001
               ( 23.12%)   0.4808*Be  2 s( 50.25%)p 0.99( 49.75%)
                                         0.0000  0.7089 -0.7053  0.0001 -0.0001
   4. (1.99298) BD ( 1) C  1- H  3
               ( 52.35%)   0.7236* C  1 s( 24.96%)p 3.01( 75.04%)
                                         0.0000  0.4996 -0.2888 -0.1724  0.7983
               ( 47.65%)   0.6903* H  3 s(100.00%)
                                         1.0000
   5. (1.99299) BD ( 1) C  1- H  4
               ( 52.36%)   0.7236* C  1 s( 24.99%)p 3.00( 75.01%)
                                         0.0000  0.4999 -0.2889 -0.6052 -0.5481
               ( 47.64%)   0.6902* H  4 s(100.00%)
                                         1.0000
   6. (1.99300) BD ( 1) C  1- H  5
               ( 52.36%)   0.7236* C  1 s( 25.01%)p 3.00( 74.99%)
                                         0.0000  0.5001 -0.2889  0.7772 -0.2497
               ( 47.64%)   0.6902* H  5 s(100.00%)
                                         1.0000
   7. (1.91016) BD ( 1)Be  2- H  6
               ( 26.09%)   0.5108*Be  2 s( 49.75%)p 1.01( 50.25%)
                                         0.0000  0.7053  0.7089 -0.0001  0.0001
               ( 73.91%)   0.8597* H  6 s(100.00%)
                                         1.0000
 ---------------- non-Lewis ----------------------------------------------------
   8. (0.09047) BD*( 1) C  1-Be  2
               ( 23.12%)   0.4808* C  1 s( 25.03%)p 3.00( 74.97%)
                                         0.0000 -0.5003 -0.8659  0.0000 -0.0001
               ( 76.88%)  -0.8768*Be  2 s( 50.25%)p 0.99( 49.75%)
                                         0.0000 -0.7089  0.7053 -0.0001  0.0001
   9. (0.00013) BD*( 1) C  1- H  3
               ( 47.65%)   0.6903* C  1 s( 24.96%)p 3.01( 75.04%)
                                         0.0000 -0.4996  0.2888  0.1724 -0.7983
               ( 52.35%)  -0.7236* H  3 s(100.00%)
                                        -1.0000
  10. (0.00013) BD*( 1) C  1- H  4
               ( 47.64%)   0.6902* C  1 s( 24.99%)p 3.00( 75.01%)
                                         0.0000 -0.4999  0.2889  0.6052  0.5481
               ( 52.36%)  -0.7236* H  4 s(100.00%)
                                        -1.0000
  11. (0.00013) BD*( 1) C  1- H  5
               ( 47.64%)   0.6902* C  1 s( 25.01%)p 3.00( 74.99%)
                                         0.0000 -0.5001  0.2889 -0.7772  0.2497
               ( 52.36%)  -0.7236* H  5 s(100.00%)
                                        -1.0000
  12. (0.08470) BD*( 1)Be  2- H  6
               ( 73.91%)   0.8597*Be  2 s( 49.75%)p 1.01( 50.25%)
                                         0.0000  0.7053  0.7089 -0.0001  0.0001
               ( 26.09%)  -0.5108* H  6 s(100.00%)
                                         1.0000
  13. (0.00952) RY ( 1)Be  2            s(  0.00%)p 1.00(100.00%)
                                         0.0000  0.0000 -0.0001 -0.0001  1.0000
  14. (0.00947) RY ( 2)Be  2            s(  0.00%)p 1.00(100.00%)
                                         0.0000  0.0000  0.0001  1.0000  0.0001


 NHO DIRECTIONALITY AND BOND BENDING (deviation from line of nuclear centers at
                                      the position of maximum hybrid amplitude)

         [Thresholds for printing:  angular deviation  >  1.0 degree]
                                    p- or d-character  > 25.0%
                                    orbital occupancy  >  0.10e

                        Line of Centers        Hybrid 1             Hybrid 2
                        ---------------  -------------------  ------------------
           NBO            Theta   Phi    Theta   Phi    Dev   Theta   Phi    Dev
 ===============================================================================
   4. BD ( 1) C  1- H  3   24.9  207.9    23.7  209.5   1.3     --     --    --
   5. BD ( 1) C  1- H  4  128.5  241.7   129.0  243.2   1.3     --     --    --
   6. BD ( 1) C  1- H  5  106.5  112.8   106.6  111.4   1.3     --     --    --


 SECOND ORDER PERTURBATION THEORY ANALYSIS OF FOCK MATRIX IN NBO BASIS

     Threshold for printing:   0.50 kcal/mol
                                                          E(2) E(NL)-E(L) F(L,NL)
      Donor (L) NBO              Acceptor (NL) NBO      kcal/mol   a.u.    a.u.
 ===============================================================================

 within unit  1
    3. BD ( 1) C  1-Be  2       8. BD*( 1) C  1-Be  2      2.68    1.05   0.047
    3. BD ( 1) C  1-Be  2      12. BD*( 1)Be  2- H  6     68.39    1.10   0.245
    4. BD ( 1) C  1- H  3      12. BD*( 1)Be  2- H  6      1.91    1.30   0.044
    4. BD ( 1) C  1- H  3      13. RY ( 1)Be  2            2.53    0.85   0.042
    5. BD ( 1) C  1- H  4      12. BD*( 1)Be  2- H  6      1.91    1.30   0.044
    5. BD ( 1) C  1- H  4      13. RY ( 1)Be  2            1.19    0.85   0.029
    5. BD ( 1) C  1- H  4      14. RY ( 2)Be  2            1.45    0.85   0.031
    6. BD ( 1) C  1- H  5      12. BD*( 1)Be  2- H  6      1.91    1.30   0.044
    6. BD ( 1) C  1- H  5      14. RY ( 2)Be  2            2.39    0.85   0.040
    7. BD ( 1)Be  2- H  6       8. BD*( 1) C  1-Be  2     66.44    1.03   0.233
    7. BD ( 1)Be  2- H  6      12. BD*( 1)Be  2- H  6      2.57    1.08   0.047


 NATURAL BOND ORBITALS (Summary):

                                                     Principal Delocalizations
           NBO                 Occupancy    Energy   (geminal,vicinal,remote)
 ===============================================================================
 Molecular unit  1  (CH4Be)
 ------ Lewis --------------------------------------
    1. CR ( 1) C  1             1.99999   -10.96649
    2. CR ( 1)Be  2             2.00000    -4.49867
    3. BD ( 1) C  1-Be  2       1.91631    -0.40903  12(g),8(g)
    4. BD ( 1) C  1- H  3       1.99298    -0.60526  13(v),12(v)
    5. BD ( 1) C  1- H  4       1.99299    -0.60536  12(v),14(v),13(v)
    6. BD ( 1) C  1- H  5       1.99300    -0.60543  14(v),12(v)
    7. BD ( 1)Be  2- H  6       1.91016    -0.38747  8(g),12(g)
 ------ non-Lewis ----------------------------------
    8. BD*( 1) C  1-Be  2       0.09047     0.63976
    9. BD*( 1) C  1- H  3       0.00013     0.74526
   10. BD*( 1) C  1- H  4       0.00013     0.74524
   11. BD*( 1) C  1- H  5       0.00013     0.74523
   12. BD*( 1)Be  2- H  6       0.08470     0.69319
   13. RY ( 1)Be  2             0.00952     0.24884
   14. RY ( 2)Be  2             0.00947     0.24883
          -------------------------------
                 Total Lewis   13.80544  ( 98.6103%)
           Valence non-Lewis    0.17557  (  1.2541%)
           Rydberg non-Lewis    0.01900  (  0.1357%)
          -------------------------------
               Total unit  1   14.00000  (100.0000%)
              Charge unit  1    0.00000

 $CHOOSE
   BOND S 1 2 S 1 3 S 1 4 S 1 5 S 2 6 END
 $END

 NBO analysis completed in 0.15 CPU seconds (1 wall second)
 Maximum scratch memory used by NBO was 222670 words (1.70 MB)
 Maximum scratch memory used by G16NBO was 8489 words (0.06 MB)

 Opening RunExU unformatted file "/cluster/work/users/beto93/CH3BeH/Gau-1555066.EUF"
 Read unf file /cluster/work/users/beto93/CH3BeH/Gau-1555066.EUF:
 Label Gaussian matrix elements                                         IVers= 2 NLab= 2 Version=ES64L-G16RevC.01
 Title NBO-CH3BeH                                                      
 NAtoms=     6 NBasis=    14 NBsUse=    14 ICharg=     0 Multip=     1 NE=    14 Len12L=8 Len4L=8 IOpCl= 0 ICGU=111
 GAUSSIAN SCALARS                    NI= 1 NR= 1 NTot=       1 LenBuf=    2 NRI=1 N=    1000
 NPA CHARGES                         NI= 0 NR= 1 NTot=       6 LenBuf= 4000 NRI=1 N=       6
 Recovered energy= -54.1532077240     dipole=     -0.177562117841     -0.000112659454      0.000151678529
 Calling FoFJK, ICntrl=      2127 FMM=F ISym2X=0 I1Cent= 0 IOpClX= 0 NMat=1 NMatS=1 NMatT=0.
 ***** Axes restored to original set *****
 -------------------------------------------------------------------
 Center     Atomic                   Forces (Hartrees/Bohr)
 Number     Number              X              Y              Z
 -------------------------------------------------------------------
      1        6           0.000103440    0.000074829    0.000294142
      2        4           0.000095376   -0.000157202    0.000074334
      3        1          -0.000154505    0.000025528   -0.000237443
      4        1          -0.000348309   -0.000162231   -0.000135720
      5        1           0.000316259    0.000198461    0.000013893
      6        1          -0.000012260    0.000020616   -0.000009205
 -------------------------------------------------------------------
 Cartesian Forces:  Max     0.000348309 RMS     0.000171492

 GradGradGradGradGradGradGradGradGradGradGradGradGradGradGradGradGradGrad
 Berny optimization.
 FormGI is forming the generalized inverse of G from B-inverse, IUseBI=4.
 Internal  Forces:  Max     0.000353508 RMS     0.000167148
 Search for a local minimum.
 Step number   1 out of a maximum of   27
 All quantities printed in internal units (Hartrees-Bohrs-Radians)
 Mixed Optimization -- En-DIIS/RFO-DIIS
 Second derivative matrix not updated -- first step.
 The second derivative matrix:
                          R1        R2        R3        R4        R5
           R1           0.18445
           R2           0.00000   0.35397
           R3           0.00000   0.00000   0.35397
           R4           0.00000   0.00000   0.00000   0.35397
           R5           0.00000   0.00000   0.00000   0.00000   0.19058
           A1           0.00000   0.00000   0.00000   0.00000   0.00000
           A2           0.00000   0.00000   0.00000   0.00000   0.00000
           A3           0.00000   0.00000   0.00000   0.00000   0.00000
           A4           0.00000   0.00000   0.00000   0.00000   0.00000
           A5           0.00000   0.00000   0.00000   0.00000   0.00000
           A6           0.00000   0.00000   0.00000   0.00000   0.00000
           A7           0.00000   0.00000   0.00000   0.00000   0.00000
           A8           0.00000   0.00000   0.00000   0.00000   0.00000
           D1           0.00000   0.00000   0.00000   0.00000   0.00000
           D2           0.00000   0.00000   0.00000   0.00000   0.00000
           D3           0.00000   0.00000   0.00000   0.00000   0.00000
           D4           0.00000   0.00000   0.00000   0.00000   0.00000
                          A1        A2        A3        A4        A5
           A1           0.16000
           A2           0.00000   0.16000
           A3           0.00000   0.00000   0.16000
           A4           0.00000   0.00000   0.00000   0.16000
           A5           0.00000   0.00000   0.00000   0.00000   0.16000
           A6           0.00000   0.00000   0.00000   0.00000   0.00000
           A7           0.00000   0.00000   0.00000   0.00000   0.00000
           A8           0.00000   0.00000   0.00000   0.00000   0.00000
           D1           0.00000   0.00000   0.00000   0.00000   0.00000
           D2           0.00000   0.00000   0.00000   0.00000   0.00000
           D3           0.00000   0.00000   0.00000   0.00000   0.00000
           D4           0.00000   0.00000   0.00000   0.00000   0.00000
                          A6        A7        A8        D1        D2
           A6           0.16000
           A7           0.00000   0.01281
           A8           0.00000   0.00000   0.01281
           D1           0.00000   0.00000   0.00000   0.00301
           D2           0.00000   0.00000   0.00000   0.00000   0.00301
           D3           0.00000   0.00000   0.00000   0.00000   0.00000
           D4           0.00000   0.00000   0.00000   0.00000   0.00000
                          D3        D4
           D3           0.00301
           D4           0.00000   0.00301
 ITU=  0
     Eigenvalues ---    0.01281   0.01281   0.05055   0.06205   0.08311
     Eigenvalues ---    0.16000   0.16000   0.18445   0.19058   0.35397
     Eigenvalues ---    0.35397   0.35397
 RFO step:  Lambda=-2.43195671D-06 EMin= 1.28108613D-02
 Linear search not attempted -- first point.
 Iteration  1 RMS(Cart)=  0.00096852 RMS(Int)=  0.00000100
 Iteration  2 RMS(Cart)=  0.00000078 RMS(Int)=  0.00000050
 Variable       Old X    -DE/DX   Delta X   Delta X   Delta X     New X
                                 (Linear)    (Quad)   (Total)
    R1        3.19553  -0.00017   0.00000  -0.00093  -0.00093   3.19459
    R2        2.05035  -0.00024   0.00000  -0.00068  -0.00068   2.04967
    R3        2.05035  -0.00028   0.00000  -0.00080  -0.00080   2.04956
    R4        2.05035  -0.00031   0.00000  -0.00088  -0.00088   2.04947
    R5        2.43964   0.00003   0.00000   0.00013   0.00013   2.43977
    A1        1.95128  -0.00007   0.00000  -0.00002  -0.00002   1.95125
    A2        1.95128   0.00008   0.00000   0.00015   0.00015   1.95142
    A3        1.95128   0.00011   0.00000   0.00023   0.00023   1.95151
    A4        1.86661   0.00020   0.00000   0.00195   0.00195   1.86856
    A5        1.86809   0.00002   0.00000   0.00013   0.00013   1.86822
    A6        1.87018  -0.00035   0.00000  -0.00246  -0.00246   1.86772
    A7        3.14159   0.00000   0.00000   0.00014   0.00014   3.14174
    A8        3.14159   0.00000   0.00000   0.00003   0.00003   3.14162
    D1        2.14127   0.00009   0.00000   0.00137   0.00137   2.14264
    D2       -2.14226   0.00001   0.00000  -0.00020  -0.00020  -2.14246
    D3        2.14367  -0.00007   0.00000  -0.00133  -0.00133   2.14234
    D4       -1.99726  -0.00007   0.00000  -0.00113  -0.00113  -1.99839
         Item               Value     Threshold  Converged?
 Maximum Force            0.000354     0.000002     NO 
 RMS     Force            0.000167     0.000001     NO 
 Maximum Displacement     0.002144     0.000006     NO 
 RMS     Displacement     0.000969     0.000004     NO 
 Predicted change in Energy=-1.215991D-06
 GradGradGradGradGradGradGradGradGradGradGradGradGradGradGradGradGradGrad

                          Input orientation:                          
 ---------------------------------------------------------------------
 Center     Atomic      Atomic             Coordinates (Angstroms)
 Number     Number       Type             X           Y           Z
 ---------------------------------------------------------------------
      1          6           0        0.034511   -0.059709    0.025040
      2          4           0       -0.761628    1.322866   -0.533937
      3          1           0        0.057353   -0.100933    1.108655
      4          1           0        1.063156   -0.098168   -0.316601
      5          1           0       -0.447810   -0.968689   -0.317505
      6          1           0       -1.369638    2.378704   -0.961016
 ---------------------------------------------------------------------
                    Distance matrix (angstroms):
                    1          2          3          4          5
     1  C    0.000000
     2  Be   1.690506   0.000000
     3  H    1.084639   2.322938   0.000000
     4  H    1.084578   2.323018   1.744421   0.000000
     5  H    1.084534   2.323047   1.744168   1.743797   0.000000
     6  H    2.981577   1.291072   3.531068   3.531098   3.531134
                    6
     6  H    0.000000
 Stoichiometry    CH4Be
 Framework group  C1[X(CH4Be)]
 Deg. of freedom    12
 Full point group                 C1      NOp   1
 Largest Abelian subgroup         C1      NOp   1
 Largest concise Abelian subgroup C1      NOp   1
                         Standard orientation:                         
 ---------------------------------------------------------------------
 Center     Atomic      Atomic             Coordinates (Angstroms)
 Number     Number       Type             X           Y           Z
 ---------------------------------------------------------------------
      1          6           0       -0.609636   -0.000027   -0.000022
      2          4           0        1.080870   -0.000031   -0.000005
      3          1           0       -1.012413   -0.985614   -0.206979
      4          1           0       -1.012552    0.672228   -0.749717
      5          1           0       -1.012638    0.313527    0.956789
      6          1           0        2.371941    0.000146    0.000062
 ---------------------------------------------------------------------
 Rotational constants (GHZ):         164.8446765          20.0803556          20.0793386
 Standard basis: STO-3G (5D, 7F)
 There are    14 symmetry adapted cartesian basis functions of A   symmetry.
 There are    14 symmetry adapted basis functions of A   symmetry.
    14 basis functions,    42 primitive gaussians,    14 cartesian basis functions
     7 alpha electrons        7 beta electrons
       nuclear repulsion energy        23.0928197182 Hartrees.
 NAtoms=    6 NActive=    6 NUniq=    6 SFac= 1.00D+00 NAtFMM=   60 NAOKFM=F Big=F
 Integral buffers will be    131072 words long.
 Raffenetti 1 integral format.
 Two-electron integral symmetry is turned on.
 One-electron integrals computed using PRISM.
 NBasis=    14 RedAO= T EigKep=  2.00D-01  NBF=    14
 NBsUse=    14 1.00D-06 EigRej= -1.00D+00 NBFU=    14
 Initial guess from the checkpoint file:  "CH3BeH.chk"
 B after Tr=    -0.000000    0.000000    0.000000
         Rot=    0.709061   -0.705148   -0.000004   -0.000026 Ang= -89.68 deg.
 Keep R1 ints in memory in canonical form, NReq=811872.
 Requested convergence on RMS density matrix=1.00D-08 within 128 cycles.
 Requested convergence on MAX density matrix=1.00D-06.
 Requested convergence on             energy=1.00D-06.
 No special actions if energy rises.
 SCF Done:  E(RHF) =  -54.1532086204     A.U. after    7 cycles
            NFock=  7  Conv=0.26D-08     -V/T= 2.0010
 Calling FoFJK, ICntrl=      2127 FMM=F ISym2X=0 I1Cent= 0 IOpClX= 0 NMat=1 NMatS=1 NMatT=0.
 ***** Axes restored to original set *****
 -------------------------------------------------------------------
 Center     Atomic                   Forces (Hartrees/Bohr)
 Number     Number              X              Y              Z
 -------------------------------------------------------------------
      1        6          -0.000029175    0.000058603   -0.000009989
      2        4          -0.000015078    0.000016896   -0.000028545
      3        1           0.000040396   -0.000012743    0.000031897
[...]
   4.  C 1( 2py)    0.0000  0.0000  0.0000  1.0376  0.0000  0.0000  0.0000  0.0000
   5.  C 1( 2pz)    0.0000  0.0000  0.0000  0.0000  1.0376  0.0000  0.0000  0.0000
   6. Be 2( 1s )    0.0000  0.0010 -0.0005  0.0000  0.0000  2.0000  0.0001  0.0004
   7. Be 2( 2s )    0.0000  0.3496  0.5911  0.0000  0.0000  0.0001  0.8865  0.0260
   8. Be 2( 2px)    0.0030 -0.1678 -0.3661  0.0000  0.0000  0.0004  0.0260  0.1869
   9. Be 2( 2py)    0.0000  0.0000  0.0000  0.0993  0.0000  0.0000  0.0000  0.0000
  10. Be 2( 2pz)    0.0000  0.0000  0.0000  0.0000  0.0993  0.0000  0.0000  0.0000
  11.  H 3( 1s )    0.0004  0.4961 -0.2923  0.7996  0.1408 -0.0007  0.0009  0.0265
  12.  H 4( 1s )    0.0004  0.4961 -0.2923 -0.5217  0.6221 -0.0007  0.0009  0.0265
  13.  H 5( 1s )    0.0004  0.4961 -0.2923 -0.2779 -0.7628 -0.0007  0.0009  0.0265
  14.  H 6( 1s )   -0.0007 -0.1944 -0.2922  0.0000  0.0000 -0.0001  0.7175  0.4169

           NAO         9      10      11      12      13      14
      ------------ ------- ------- ------- ------- ------- -------
   1.  C 1( 1s )    0.0000  0.0000  0.0004  0.0004  0.0004 -0.0007
   2.  C 1( 2s )    0.0000  0.0000  0.4961  0.4961  0.4961 -0.1944
   3.  C 1( 2px)    0.0000  0.0000 -0.2923 -0.2923 -0.2923 -0.2922
   4.  C 1( 2py)    0.0993  0.0000  0.7996 -0.5217 -0.2779  0.0000
   5.  C 1( 2pz)    0.0000  0.0993  0.1408  0.6221 -0.7628  0.0000
   6. Be 2( 1s )    0.0000  0.0000 -0.0007 -0.0007 -0.0007 -0.0001
   7. Be 2( 2s )    0.0000  0.0000  0.0009  0.0009  0.0009  0.7175
   8. Be 2( 2px)    0.0000  0.0000  0.0265  0.0265  0.0265  0.4169
   9. Be 2( 2py)    0.0095  0.0000  0.0765 -0.0499 -0.0266  0.0000
  10. Be 2( 2pz)    0.0000  0.0095  0.0135  0.0595 -0.0730  0.0000
  11.  H 3( 1s )    0.0765  0.0135  0.9495 -0.0034 -0.0034 -0.0017
  12.  H 4( 1s )   -0.0499  0.0595 -0.0034  0.9495 -0.0034 -0.0017
  13.  H 5( 1s )   -0.0266 -0.0730 -0.0034 -0.0034  0.9495 -0.0017
  14.  H 6( 1s )    0.0000  0.0000 -0.0017 -0.0017 -0.0017  1.4338


 NATURAL BOND ORBITAL ANALYSIS:

 Initiate 2-center NBO search using THRESH = 1.900 and PRJTHR = 0.300

 Search of NAO DM block for core orbitals on atom:   1
      Eigenvector ( 1) has occupancy 1.99999
            1.0000 0.0000 0.0000 0.0000 0.0000
        1 eigenvector(s) stashed in permanent list

 Search of NAO DM block for core orbitals on atom:   2
      Eigenvector ( 1) has occupancy 2.00000
            1.0000 0.0000 0.0000 0.0000 0.0000
        1 eigenvector(s) stashed in permanent list

 Core orbitals projected from the NAO density matrix
      10.000 electrons remain (>1.900); search continues

 Search of NAO DM block for the following atom(s):   1
      Select eigenvectors with eigenvalue > 1.900
       1.495 1.055 1.038 1.038 0.000

 No NHOs identified in the 1-center search of the NAO density matrix
      10.000 electrons remain (>1.900); search continues

 Search of NAO DM block for the following atom(s):   1   2
      Select eigenvectors with eigenvalue > 1.900
       2.000 1.057 1.047 1.047 0.566 0.000 0.000 0.000 0.000 0.000
      Eigenvector ( 1) has occupancy 2.00000
            0.0000 0.4324 0.7195 0.0000 0.0000 0.0000 0.5135-0.1779
            0.0000 0.0000
      1 hybrid on atom 1 stashed in prospective list
      1 hybrid on atom 2 stashed in prospective list

 Search of NAO DM block for the following atom(s):   1   3
      Select eigenvectors with eigenvalue > 1.900
       1.993 1.495 1.049 1.038 0.000 0.000
      Eigenvector ( 1) has occupancy 1.99310
            0.0000 0.3723-0.2032 0.5775 0.1017 0.6901
      1 hybrid on atom 1 stashed in prospective list
      1 hybrid on atom 3 stashed in prospective list

 Search of NAO DM block for the following atom(s):   1   4
      Select eigenvectors with eigenvalue > 1.900
       1.993 1.495 1.049 1.038 0.000 0.000
      Eigenvector ( 1) has occupancy 1.99310
            0.0000 0.3723-0.2032-0.3768 0.4493 0.6901
      1 hybrid on atom 1 stashed in prospective list
      1 hybrid on atom 4 stashed in prospective list

 Search of NAO DM block for the following atom(s):   1   5
      Select eigenvectors with eigenvalue > 1.900
       1.993 1.495 1.049 1.038 0.000 0.000
      Eigenvector ( 1) has occupancy 1.99310
            0.0000 0.3723-0.2032-0.2007-0.5510 0.6901
      1 hybrid on atom 1 stashed in prospective list
      1 hybrid on atom 5 stashed in prospective list

 Search of NAO DM block for the following atom(s):   2   6
      Select eigenvectors with eigenvalue > 1.900
       2.000 0.505 0.009 0.009 0.002 0.000
      Eigenvector ( 1) has occupancy 1.99995
            0.0000 0.5343 0.1967 0.0000 0.0000 0.8221
      1 hybrid on atom 2 stashed in prospective list
      1 hybrid on atom 6 stashed in prospective list

 Stash prospective hybrids having projection expectation value > 0.300
       0.999 0.999 0.999 0.999 0.999 0.999 0.402 0.402 0.402 0.402
      0 hybrids eliminated in 1 pass
      10 hybrids moved from prospective to permanent list

 NHOs of 2-center eigenvectors projected from the NAO density matrix
       0.019 electrons remain in the fully projected matrix

 Search of NHO DM block for the following atom(s):   1
      Select eigenvectors with eigenvalue > 1.900
       2.000 0.000 0.000 0.000 0.000
      Eigenvector ( 1) has occupancy 1.99999
            1.0000 0.0000 0.0000 0.0000 0.0000
           NBO accepted:    1. Label:CR ( 1)   1
        1 eigenvector(s) stashed in permanent list

 Search of NHO DM block for the following atom(s):   2
      Select eigenvectors with eigenvalue > 1.900
       2.000 0.009 0.009 0.000 0.000
      Eigenvector ( 1) has occupancy 2.00000
            1.0000 0.0000 0.0000 0.0000 0.0000
           NBO accepted:    2. Label:CR ( 1)   2
        1 eigenvector(s) stashed in permanent list

  1-center NBOs projected from the NHO density matrix
      10.000 electrons remain (>1.900); search continues

 Search of NHO DM block for the following atom(s):   1   2
      Select eigenvectors with eigenvalue > 1.900
       1.916 0.090 0.000 0.000 0.000 0.000 0.000 0.000 0.000 0.000
      Eigenvector ( 1) has occupancy 1.91633
            0.0000 0.0000 0.0000 0.0000 0.8769 0.0000 0.4807 0.0000
            0.0000 0.0000
      Occupancy is 1.916 after deleting minor hybrid components
            0.0000 0.0000 0.0000 0.0000 0.8769 0.0000 0.4807 0.0000
            0.0000 0.0000
           NBO accepted:    3. Label:BD ( 1)   1   2
      Occupancy is 0.090 for antibonding component
            0.0000 0.0000 0.0000 0.0000-0.4807 0.0000 0.8769 0.0000
            0.0000 0.0000
           NBO accepted:    4. Label:BD*( 1)   1   2
        2 eigenvector(s) stashed in permanent list

 Search of NHO DM block for the following atom(s):   1   3
      Select eigenvectors with eigenvalue > 1.900
       1.993 0.000 0.000 0.000 0.000 0.000
      Eigenvector ( 1) has occupancy 1.99299
            0.0000 0.7236 0.0000 0.0000 0.0000 0.6902
      Occupancy is 1.993 after deleting minor hybrid components
            0.0000 0.7236 0.0000 0.0000 0.0000 0.6902
           NBO accepted:    5. Label:BD ( 1)   1   3
      Occupancy is 0.000 for antibonding component
            0.0000-0.6902 0.0000 0.0000 0.0000 0.7236
           NBO accepted:    6. Label:BD*( 1)   1   3
        2 eigenvector(s) stashed in permanent list

 Search of NHO DM block for the following atom(s):   1   4
      Select eigenvectors with eigenvalue > 1.900
       1.993 0.000 0.000 0.000 0.000 0.000
      Eigenvector ( 1) has occupancy 1.99299
            0.0000 0.0000 0.7236 0.0000 0.0000 0.6902
      Occupancy is 1.993 after deleting minor hybrid components
            0.0000 0.0000 0.7236 0.0000 0.0000 0.6902
           NBO accepted:    7. Label:BD ( 1)   1   4
      Occupancy is 0.000 for antibonding component
            0.0000 0.0000-0.6902 0.0000 0.0000 0.7236
           NBO accepted:    8. Label:BD*( 1)   1   4
        2 eigenvector(s) stashed in permanent list

 Search of NHO DM block for the following atom(s):   1   5
      Select eigenvectors with eigenvalue > 1.900
       1.993 0.000 0.000 0.000 0.000 0.000
      Eigenvector ( 1) has occupancy 1.99299
            0.0000 0.0000 0.0000 0.7236 0.0000 0.6902
      Occupancy is 1.993 after deleting minor hybrid components
            0.0000 0.0000 0.0000 0.7236 0.0000 0.6902
           NBO accepted:    9. Label:BD ( 1)   1   5
      Occupancy is 0.000 for antibonding component
            0.0000 0.0000 0.0000-0.6902 0.0000 0.7236
           NBO accepted:   10. Label:BD*( 1)   1   5
        2 eigenvector(s) stashed in permanent list

 Search of NHO DM block for the following atom(s):   2   6
      Select eigenvectors with eigenvalue > 1.900
       1.910 0.085 0.000 0.000 0.000 0.000
      Eigenvector ( 1) has occupancy 1.91015
            0.0000 0.0000 0.5108 0.0000 0.0000 0.8597
      Occupancy is 1.910 after deleting minor hybrid components
            0.0000 0.0000 0.5108 0.0000 0.0000 0.8597
           NBO accepted:   11. Label:BD ( 1)   2   6
      Occupancy is 0.085 for antibonding component
            0.0000 0.0000 0.8597 0.0000 0.0000-0.5108
           NBO accepted:   12. Label:BD*( 1)   2   6
        2 eigenvector(s) stashed in permanent list

  2-center NBOs projected from the NHO density matrix
       0.019 electrons remain in the fully projected matrix

                            Occupancies       Lewis Structure    Low   High
         Max    Occ     -------------------  -----------------   occ   occ
  Cycle  Ctr   Thresh    Lewis   non-Lewis     CR  BD  nC  LP    (L)   (NL)
 ============================================================================
    1     2     1.90    13.80544   0.19456      2   5   0   0     0      0
 ----------------------------------------------------------------------------

 Structure accepted: No low occupancy Lewis orbitals

 -------------------------------------------------------
   Core                      3.99999 (100.000% of   4)
   Valence Lewis             9.80545 ( 98.054% of  10)
  ==================      =============================
   Total Lewis              13.80544 ( 98.610% of  14)
  -----------------------------------------------------
   Valence non-Lewis         0.17556 (  1.254% of  14)
   Rydberg non-Lewis         0.01900 (  0.136% of  14)
  ==================      =============================
   Total non-Lewis           0.19456 (  1.390% of  14)
 -------------------------------------------------------


     (Occupancy)   Bond orbital / Coefficients / Hybrids
 ------------------ Lewis ------------------------------------------------------
   1. (1.99999) CR ( 1) C  1            s(100.00%)
                                         1.0000  0.0000  0.0000  0.0000  0.0000
   2. (2.00000) CR ( 1)Be  2            s(100.00%)
                                         1.0000  0.0000  0.0000  0.0000  0.0000
   3. (1.91633) BD ( 1) C  1-Be  2
               ( 76.90%)   0.8769* C  1 s( 25.03%)p 2.99( 74.97%)
                                         0.0000  0.5003  0.8658  0.0000  0.0000
               ( 23.10%)   0.4807*Be  2 s( 50.24%)p 0.99( 49.76%)
                                         0.0000  0.7088 -0.7054  0.0000  0.0000
   4. (1.99299) BD ( 1) C  1- H  3
               ( 52.36%)   0.7236* C  1 s( 24.99%)p 3.00( 75.01%)
                                         0.0000  0.4999 -0.2889  0.8041  0.1416
               ( 47.64%)   0.6902* H  3 s(100.00%)
                                         1.0000
   5. (1.99299) BD ( 1) C  1- H  4
               ( 52.36%)   0.7236* C  1 s( 24.99%)p 3.00( 75.01%)
                                         0.0000  0.4999 -0.2889 -0.5247  0.6256
               ( 47.64%)   0.6902* H  4 s(100.00%)
                                         1.0000
   6. (1.99299) BD ( 1) C  1- H  5
               ( 52.36%)   0.7236* C  1 s( 24.99%)p 3.00( 75.01%)
                                         0.0000  0.4999 -0.2889 -0.2795 -0.7672
               ( 47.64%)   0.6902* H  5 s(100.00%)
                                         1.0000
   7. (1.91015) BD ( 1)Be  2- H  6
               ( 26.09%)   0.5108*Be  2 s( 49.76%)p 1.01( 50.24%)
                                         0.0000  0.7054  0.7088  0.0000  0.0000
               ( 73.91%)   0.8597* H  6 s(100.00%)
                                         1.0000
 ---------------- non-Lewis ----------------------------------------------------
   8. (0.09049) BD*( 1) C  1-Be  2
               ( 23.10%)   0.4807* C  1 s( 25.03%)p 2.99( 74.97%)
                                         0.0000 -0.5003 -0.8658  0.0000  0.0000
               ( 76.90%)  -0.8769*Be  2 s( 50.24%)p 0.99( 49.76%)
                                         0.0000 -0.7088  0.7054  0.0000  0.0000
   9. (0.00013) BD*( 1) C  1- H  3
               ( 47.64%)   0.6902* C  1 s( 24.99%)p 3.00( 75.01%)
                                         0.0000 -0.4999  0.2889 -0.8041 -0.1416
               ( 52.36%)  -0.7236* H  3 s(100.00%)
                                        -1.0000
  10. (0.00013) BD*( 1) C  1- H  4
               ( 47.64%)   0.6902* C  1 s( 24.99%)p 3.00( 75.01%)
                                         0.0000 -0.4999  0.2889  0.5247 -0.6256
               ( 52.36%)  -0.7236* H  4 s(100.00%)
                                        -1.0000
  11. (0.00013) BD*( 1) C  1- H  5
               ( 47.64%)   0.6902* C  1 s( 24.99%)p 3.00( 75.01%)
                                         0.0000 -0.4999  0.2889  0.2795  0.7672
               ( 52.36%)  -0.7236* H  5 s(100.00%)
                                        -1.0000
  12. (0.08469) BD*( 1)Be  2- H  6
               ( 73.91%)   0.8597*Be  2 s( 49.76%)p 1.01( 50.24%)
                                         0.0000  0.7054  0.7088  0.0000  0.0000
               ( 26.09%)  -0.5108* H  6 s(100.00%)
                                         1.0000
  13. (0.00950) RY ( 1)Be  2            s(  0.00%)p 1.00(100.00%)
                                         0.0000  0.0000  0.0000  0.9070  0.4211
  14. (0.00950) RY ( 2)Be  2            s(  0.00%)p 1.00(100.00%)
                                         0.0000  0.0000  0.0000 -0.4211  0.9070


 NHO DIRECTIONALITY AND BOND BENDING (deviation from line of nuclear centers at
                                      the position of maximum hybrid amplitude)

         [Thresholds for printing:  angular deviation  >  1.0 degree]
                                    p- or d-character  > 25.0%
                                    orbital occupancy  >  0.10e

                        Line of Centers        Hybrid 1             Hybrid 2
                        ---------------  -------------------  ------------------
           NBO            Theta   Phi    Theta   Phi    Dev   Theta   Phi    Dev
 ===============================================================================
   4. BD ( 1) C  1- H  3   80.7  112.1    80.7  110.8   1.3     --     --    --
   5. BD ( 1) C  1- H  4   44.7  238.1    44.1  239.8   1.3     --     --    --
   6. BD ( 1) C  1- H  5  150.7  220.5   151.7  222.5   1.3     --     --    --


 SECOND ORDER PERTURBATION THEORY ANALYSIS OF FOCK MATRIX IN NBO BASIS

     Threshold for printing:   0.50 kcal/mol
                                                          E(2) E(NL)-E(L) F(L,NL)
      Donor (L) NBO              Acceptor (NL) NBO      kcal/mol   a.u.    a.u.
 ===============================================================================

 within unit  1
    3. BD ( 1) C  1-Be  2       8. BD*( 1) C  1-Be  2      2.68    1.05   0.047
    3. BD ( 1) C  1-Be  2      12. BD*( 1)Be  2- H  6     68.38    1.10   0.245
    4. BD ( 1) C  1- H  3      12. BD*( 1)Be  2- H  6      1.91    1.30   0.045
    4. BD ( 1) C  1- H  3      13. RY ( 1)Be  2            2.47    0.85   0.041
    5. BD ( 1) C  1- H  4      12. BD*( 1)Be  2- H  6      1.91    1.30   0.045
    5. BD ( 1) C  1- H  4      14. RY ( 2)Be  2            2.47    0.85   0.041
    6. BD ( 1) C  1- H  5      12. BD*( 1)Be  2- H  6      1.91    1.30   0.045
    6. BD ( 1) C  1- H  5      13. RY ( 1)Be  2            1.32    0.85   0.030
    6. BD ( 1) C  1- H  5      14. RY ( 2)Be  2            1.33    0.85   0.030
    7. BD ( 1)Be  2- H  6       8. BD*( 1) C  1-Be  2     66.47    1.03   0.233
    7. BD ( 1)Be  2- H  6      12. BD*( 1)Be  2- H  6      2.57    1.08   0.047


 NATURAL BOND ORBITALS (Summary):

                                                     Principal Delocalizations
           NBO                 Occupancy    Energy   (geminal,vicinal,remote)
 ===============================================================================
 Molecular unit  1  (CH4Be)
 ------ Lewis --------------------------------------
    1. CR ( 1) C  1             1.99999   -10.96642
    2. CR ( 1)Be  2             2.00000    -4.49864
    3. BD ( 1) C  1-Be  2       1.91633    -0.40913  12(g),8(g)
    4. BD ( 1) C  1- H  3       1.99299    -0.60549  13(v),12(v)
    5. BD ( 1) C  1- H  4       1.99299    -0.60549  14(v),12(v)
    6. BD ( 1) C  1- H  5       1.99299    -0.60549  12(v),14(v),13(v)
    7. BD ( 1)Be  2- H  6       1.91015    -0.38743  8(g),12(g)
 ------ non-Lewis ----------------------------------
    8. BD*( 1) C  1-Be  2       0.09049     0.64002
    9. BD*( 1) C  1- H  3       0.00013     0.74558
   10. BD*( 1) C  1- H  4       0.00013     0.74558
   11. BD*( 1) C  1- H  5       0.00013     0.74558
   12. BD*( 1)Be  2- H  6       0.08469     0.69321
   13. RY ( 1)Be  2             0.00950     0.24887
   14. RY ( 2)Be  2             0.00950     0.24887
          -------------------------------
                 Total Lewis   13.80544  ( 98.6103%)
           Valence non-Lewis    0.17556  (  1.2540%)
           Rydberg non-Lewis    0.01900  (  0.1357%)
          -------------------------------
               Total unit  1   14.00000  (100.0000%)
              Charge unit  1    0.00000

 $CHOOSE
   BOND S 1 2 S 1 3 S 1 4 S 1 5 S 2 6 END
 $END

 NBO analysis completed in 0.15 CPU seconds (1 wall second)
 Maximum scratch memory used by NBO was 222670 words (1.70 MB)
 Maximum scratch memory used by G16NBO was 8489 words (0.06 MB)

 Opening RunExU unformatted file "/cluster/work/users/beto93/CH3BeH/Gau-1555066.EUF"
 Read unf file /cluster/work/users/beto93/CH3BeH/Gau-1555066.EUF:
 Label Gaussian matrix elements                                         IVers= 2 NLab= 2 Version=ES64L-G16RevC.01
 Title NBO-CH3BeH                                                      
 NAtoms=     6 NBasis=    14 NBsUse=    14 ICharg=     0 Multip=     1 NE=    14 Len12L=8 Len4L=8 IOpCl= 0 ICGU=111
 GAUSSIAN SCALARS                    NI= 1 NR= 1 NTot=       1 LenBuf=    2 NRI=1 N=    1000
 NPA CHARGES                         NI= 0 NR= 1 NTot=       6 LenBuf= 4000 NRI=1 N=       6
 Recovered energy= -54.1532086930     dipole=     -0.177783095532     -0.000000196680     -0.000000111917
 Unable to Open any file for archive entry.
 1\1\GINC-C1-1\FOpt\RHF\STO-3G\C1H4Be1\BETO93\24-Jul-2024\0\\#OPT=VeryT
 ight Int=UltraFine RHF/STO-3G Pop=NBO7Read\\NBO-CH3BeH\\0,1\C,0.034500
 6735,-0.0597405098,0.024991216\Be,-0.7616533612,1.3228671451,-0.534057
 9037\H,0.0575022085,-0.1009915966,1.1086476696\H,1.0633347472,-0.09802
 41302,-0.3164421944\H,-0.4480787051,-0.9687803731,-0.3175077617\H,-1.3
 696625585,2.3787414675,-0.9609940248\\Version=ES64L-G16RevC.01\State=1
 -A\HF=-54.1532087\RMSD=6.438e-09\RMSF=3.169e-08\Dipole=0.0837252,-0.14
 5398,0.0587906\Quadrupole=0.3681883,-1.1074749,0.7392866,1.2712752,-0.
 5140322,0.8926729\PG=C01 [X(C1H4Be1)]\\@
 The archive entry for this job was punched.


 ABOVE ALL I AM AN OPTIMIST FOR NUMBER THEORY,
 AND I HOLD THE HOPE THAT WE MAY NOT BE FAR FROM
 A TIME WHEN IRREFUTABLE ARITHMETIC WILL CELEBRATE
 ITS TRIUMPHS IN PHYSICS AND CHEMISTRY.
   -- HERMANN MINKOWSKI, 1905
 Job cpu time:       0 days  0 hours  0 minutes 46.7 seconds.
 Elapsed time:       0 days  0 hours  0 minutes 16.4 seconds.
 File lengths (MBytes):  RWF=     10 Int=      0 D2E=      0 Chk=      1 Scr=      1
 Normal termination of Gaussian 16 at Wed Jul 24 11:04:38 2024.
