 Entering Gaussian System, Link 0=g16
 Initial command:
 /cluster/software/Gaussian/g16_C.01/l1.exe "/cluster/work/users/beto93/mol72/Gau-1469011.inp" -scrdir="/cluster/work/users/beto93/mol72/"
 Entering Link 1 = /cluster/software/Gaussian/g16_C.01/l1.exe PID=   1469015.
  
 Copyright (c) 1988-2019, Gaussian, Inc.  All Rights Reserved.
  
 This is part of the Gaussian(R) 16 program.  It is based on
 the Gaussian(R) 09 system (copyright 2009, Gaussian, Inc.),
 the Gaussian(R) 03 system (copyright 2003, Gaussian, Inc.),
 the Gaussian(R) 98 system (copyright 1998, Gaussian, Inc.),
 the Gaussian(R) 94 system (copyright 1995, Gaussian, Inc.),
 the Gaussian 92(TM) system (copyright 1992, Gaussian, Inc.),
 the Gaussian 90(TM) system (copyright 1990, Gaussian, Inc.),
 the Gaussian 88(TM) system (copyright 1988, Gaussian, Inc.),
 the Gaussian 86(TM) system (copyright 1986, Carnegie Mellon
 University), and the Gaussian 82(TM) system (copyright 1983,
 Carnegie Mellon University). Gaussian is a federally registered
 trademark of Gaussian, Inc.
  
 This software contains proprietary and confidential information,
 including trade secrets, belonging to Gaussian, Inc.
  
 This software is provided under written license and may be
 used, copied, transmitted, or stored only in accord with that
 written license.
  
 The following legend is applicable only to US Government
 contracts under FAR:
  
                    RESTRICTED RIGHTS LEGEND
  
 Use, reproduction and disclosure by the US Government is
 subject to restrictions as set forth in subparagraphs (a)
 and (c) of the Commercial Computer Software - Restricted
 Rights clause in FAR 52.227-19.
  
 Gaussian, Inc.
 340 Quinnipiac St., Bldg. 40, Wallingford CT 06492
  
  
 ---------------------------------------------------------------
 Warning -- This program may not be used in any manner that
 competes with the business of Gaussian, Inc. or will provide
 assistance to any competitor of Gaussian, Inc.  The licensee
 of this program is prohibited from giving any competitor of
 Gaussian, Inc. access to this program.  By using this program,
 the user acknowledges that Gaussian, Inc. is engaged in the
 business of creating and licensing software in the field of
 computational chemistry and represents and warrants to the
 licensee that it is not a competitor of Gaussian, Inc. and that
 it will not use this program in any manner prohibited above.
 ---------------------------------------------------------------
  

 Cite this work as:
 Gaussian 16, Revision C.01,
 M. J. Frisch, G. W. Trucks, H. B. Schlegel, G. E. Scuseria, 
 M. A. Robb, J. R. Cheeseman, G. Scalmani, V. Barone, 
 G. A. Petersson, H. Nakatsuji, X. Li, M. Caricato, A. V. Marenich, 
 J. Bloino, B. G. Janesko, R. Gomperts, B. Mennucci, H. P. Hratchian, 
 J. V. Ortiz, A. F. Izmaylov, J. L. Sonnenberg, D. Williams-Young, 
 F. Ding, F. Lipparini, F. Egidi, J. Goings, B. Peng, A. Petrone, 
 T. Henderson, D. Ranasinghe, V. G. Zakrzewski, J. Gao, N. Rega, 
 G. Zheng, W. Liang, M. Hada, M. Ehara, K. Toyota, R. Fukuda, 
 J. Hasegawa, M. Ishida, T. Nakajima, Y. Honda, O. Kitao, H. Nakai, 
 T. Vreven, K. Throssell, J. A. Montgomery, Jr., J. E. Peralta, 
 F. Ogliaro, M. J. Bearpark, J. J. Heyd, E. N. Brothers, K. N. Kudin, 
 V. N. Staroverov, T. A. Keith, R. Kobayashi, J. Normand, 
 K. Raghavachari, A. P. Rendell, J. C. Burant, S. S. Iyengar, 
 J. Tomasi, M. Cossi, J. M. Millam, M. Klene, C. Adamo, R. Cammi, 
 J. W. Ochterski, R. L. Martin, K. Morokuma, O. Farkas, 
 J. B. Foresman, and D. J. Fox, Gaussian, Inc., Wallingford CT, 2019.
 
 ******************************************
 Gaussian 16:  ES64L-G16RevC.01  3-Jul-2019
                18-Nov-2024 
 ******************************************
 %LindaWorkers=c3-16-ib
 %NProcShared=4
 Will use up to    4 processors via shared memory.
 %mem=25GB
 %chk=mol72.chk
 SetLPE:    new flags="-opt 'Tsnet.Node.lindarsharg: ssh'  -nodelist 'c3-16-ib.saga' -env GAUSS_MDEF=3355443200 -env GAUSS_EXEDIR="/cluster/software/Gaussian/g16_C.01/bsd:/cluster/software/Gaussian/g16_C.01""
 Will use up to    1 processors via Linda.
 -----------------------------------------------------------------
 #RHF/6-31G* int=nobasistransform Symmetry=None 5D 7F Pop=NBO7Read
 -----------------------------------------------------------------
 1/38=1,163=2,172=1/1;
 2/12=2,15=3,17=6,18=5,40=1/2;
 3/5=1,6=6,7=1,8=11,11=1,25=1,30=1,60=-1,116=1/1,2,3;
 4//1;
 5/5=2,38=5/2;
 6/7=2,8=2,9=2,10=2,28=1,40=2,113=1,114=1,124=2103/1,12;
 99/5=1,9=1/99;
 ---------
 mol72-NBO
 ---------
 Symbolic Z-matrix:
 Charge =  0 Multiplicity = 1
 Cl                    0.        0.        0.3768 
 F                     0.        0.       -1.25835 
 F                     0.        1.71454   0.27331 
 F                     0.       -1.71454   0.27331 
 
                          Input orientation:                          
 ---------------------------------------------------------------------
 Center     Atomic      Atomic             Coordinates (Angstroms)
 Number     Number       Type             X           Y           Z
 ---------------------------------------------------------------------
      1         17           0        0.000000    0.000000    0.376796
      2          9           0        0.000000    0.000000   -1.258346
      3          9           0        0.000000    1.714544    0.273310
      4          9           0        0.000000   -1.714544    0.273310
 ---------------------------------------------------------------------
                    Distance matrix (angstroms):
                    1          2          3          4
     1  Cl   0.000000
     2  F    1.635142   0.000000
     3  F    1.717664   2.299050   0.000000
     4  F    1.717664   2.299050   3.429088   0.000000
 Symmetry turned off by external request.
 Stoichiometry    ClF3
 Rotational constants (GHZ):          13.3400147           4.5245233           3.3786045
 Standard basis: 6-31G(d) (5D, 7F)
    60 basis functions,   136 primitive gaussians,    64 cartesian basis functions
    22 alpha electrons       22 beta electrons
       nuclear repulsion energy       193.5751843791 Hartrees.
 NAtoms=    4 NActive=    4 NUniq=    4 SFac= 1.00D+00 NAtFMM=   60 NAOKFM=F Big=F
 Integral buffers will be    131072 words long.
 Raffenetti 1 integral format.
 Two-electron integral symmetry is turned off.
 One-electron integrals computed using PRISM.
 NBasis=    60 RedAO= T EigKep=  4.74D-02  NBF=    60
 NBsUse=    60 1.00D-06 EigRej= -1.00D+00 NBFU=    60
 ExpMin= 1.43D-01 ExpMax= 2.52D+04 ExpMxC= 3.78D+03 IAcc=3 IRadAn=         5 AccDes= 0.00D+00
 Harris functional with IExCor=  205 and IRadAn=       5 diagonalized for initial guess.
 HarFok:  IExCor=  205 AccDes= 0.00D+00 IRadAn=         5 IDoV= 1 UseB2=F ITyADJ=14
 ICtDFT=  3500011 ScaDFX=  1.000000  1.000000  1.000000  1.000000
 FoFCou: FMM=F IPFlag=           0 FMFlag=      100000 FMFlg1=           0
         NFxFlg=           0 DoJE=T BraDBF=F KetDBF=T FulRan=T
         wScrn=  0.000000 ICntrl=       500 IOpCl=  0 I1Cent=   200000004 NGrid=           0
         NMat0=    1 NMatS0=      1 NMatT0=    0 NMatD0=    1 NMtDS0=    0 NMtDT0=    0
 Symmetry not used in FoFCou.
 Keep R1 ints in memory in canonical form, NReq=2514554.
 Requested convergence on RMS density matrix=1.00D-08 within 128 cycles.
 Requested convergence on MAX density matrix=1.00D-06.
 Requested convergence on             energy=1.00D-06.
 No special actions if energy rises.
 SCF Done:  E(RHF) =  -757.474624857     A.U. after   13 cycles
            NFock= 13  Conv=0.42D-08     -V/T= 2.0006

 **********************************************************************

            Population analysis using the SCF Density.

 **********************************************************************

 Alpha  occ. eigenvalues -- -105.13249 -26.41798 -26.29610 -26.29609 -10.83660
 Alpha  occ. eigenvalues --   -8.30434  -8.30242  -8.29828  -1.70911  -1.57824
 Alpha  occ. eigenvalues --   -1.57450  -1.18173  -0.81349  -0.79560  -0.79454
 Alpha  occ. eigenvalues --   -0.72745  -0.68492  -0.65280  -0.62738  -0.62495
 Alpha  occ. eigenvalues --   -0.53607  -0.53434
 Alpha virt. eigenvalues --    0.02419   0.13405   0.45167   0.52855   0.54100
 Alpha virt. eigenvalues --    0.56635   0.85181   0.88607   0.90209   1.08920
 Alpha virt. eigenvalues --    1.10737   1.42253   1.49010   1.50297   1.55500
 Alpha virt. eigenvalues --    1.57192   1.57829   1.59093   1.59688   1.68538
 Alpha virt. eigenvalues --    1.91477   1.96301   2.05030   2.08154   2.08903
 Alpha virt. eigenvalues --    2.11141   2.13916   2.14242   2.18707   2.19082
 Alpha virt. eigenvalues --    2.22669   2.24812   2.25835   2.27346   2.33565
 Alpha virt. eigenvalues --    2.60179   2.73370   3.01100
          Condensed to atoms (all electrons):
               1          2          3          4
     1  Cl  15.452918   0.124006   0.015410   0.015410
     2  F    0.124006   9.244710  -0.022750  -0.022750
     3  F    0.015410  -0.022750   9.540591   0.001267
     4  F    0.015410  -0.022750   0.001267   9.540591
 Mulliken charges:
               1
     1  Cl   1.392255
     2  F   -0.323217
     3  F   -0.534519
     4  F   -0.534519
 Sum of Mulliken charges =  -0.00000
 Mulliken charges with hydrogens summed into heavy atoms:
               1
     1  Cl   1.392255
     2  F   -0.323217
     3  F   -0.534519
     4  F   -0.534519
 Electronic spatial extent (au):  <R**2>=            315.9332
 Charge=             -0.0000 electrons
 Dipole moment (field-independent basis, Debye):
    X=              0.0000    Y=              0.0000    Z=              0.9306  Tot=              0.9306
 Quadrupole moment (field-independent basis, Debye-Ang):
   XX=            -25.4405   YY=            -34.1333   ZZ=            -24.7098
   XY=              0.0000   XZ=              0.0000   YZ=             -0.0000
 Traceless Quadrupole moment (field-independent basis, Debye-Ang):
   XX=              2.6540   YY=             -6.0388   ZZ=              3.3847
   XY=              0.0000   XZ=              0.0000   YZ=             -0.0000
 Octapole moment (field-independent basis, Debye-Ang**2):
  XXX=              0.0000  YYY=              0.0000  ZZZ=             -1.3746  XYY=              0.0000
  XXY=              0.0000  XXZ=             -1.2077  XZZ=              0.0000  YZZ=              0.0000
  YYZ=             -3.2028  XYZ=              0.0000
 Hexadecapole moment (field-independent basis, Debye-Ang**3):
 XXXX=            -18.1692 YYYY=           -212.3070 ZZZZ=            -70.2495 XXXY=              0.0000
 XXXZ=              0.0000 YYYX=              0.0000 YYYZ=              0.0000 ZZZX=             -0.0000
 ZZZY=              0.0000 XXYY=            -34.9580 XXZZ=            -15.6167 YYZZ=            -44.9294
 XXYZ=              0.0000 YYXZ=             -0.0000 ZZXY=             -0.0000
 N-N= 1.935751843791D+02 E-N=-2.193660490347D+03  KE= 7.569996840365D+02
 Running external command "gaunbo7 R"
         input file       "/cluster/work/users/beto93/mol72/Gau-1469015.EIn"
         output file      "/cluster/work/users/beto93/mol72/Gau-1469015.EOu"
         message file     "/cluster/work/users/beto93/mol72/Gau-1469015.EMs"
         fchk file        "/cluster/work/users/beto93/mol72/Gau-1469015.EFC"
         mat. el file     "/cluster/work/users/beto93/mol72/Gau-1469015.EUF"

 Writing WrtUnf unformatted file "/cluster/work/users/beto93/mol72/Gau-1469015.EUF"
 Gaussian matrix elements                                         Version   2 NLab=11 Len12L=8 Len4L=8
 Write SHELL TO ATOM MAP                   from file      0 offset           0 length                  17 to matrix element file.
 Write SHELL TYPES                         from file      0 offset           0 length                  17 to matrix element file.
 Write NUMBER OF PRIMITIVES PER SHELL      from file      0 offset           0 length                  17 to matrix element file.
 Write PRIMITIVE EXPONENTS                 from file      0 offset           0 length                  50 to matrix element file.
 Write CONTRACTION COEFFICIENTS            from file      0 offset           0 length                  50 to matrix element file.
 Write P(S=P) CONTRACTION COEFFICIENTS     from file      0 offset           0 length                  50 to matrix element file.
 Write COORDINATES OF EACH SHELL           from file      0 offset           0 length                  51 to matrix element file.
 Write BONDS PER ATOM                      from file      0 offset           0 length                   4 to matrix element file.
 Write BONDED ATOMS                        from file      0 offset           0 length                   6 to matrix element file.
 Write BOND TYPES                          from file      0 offset           0 length                   6 to matrix element file.
 Write ONIOM CHARGE/MULT                   from file      0 offset           0 length                  32 to matrix element file.
 Write ONIOM ATOM LAYERS                   from file      0 offset           0 length                   4 to matrix element file.
 Write ONIOM ATOM MODIFIERS                from file      0 offset           0 length                   4 to matrix element file.
 Write ONIOM ATOM TYPES                    from file      0 offset           0 length                   4 to matrix element file.
 Write ONIOM LINK ATOMS                    from file      0 offset           0 length                   4 to matrix element file.
 Write ONIOM LINK CHARGES                  from file      0 offset           0 length                   4 to matrix element file.
 Write ONIOM LINK DISTANCES                from file      0 offset           0 length                  16 to matrix element file.
 Write SYMINF INTS                         from file      0 offset           0 length                  26 to matrix element file.
 Write ROTTR TO SO                         from file      0 offset           0 length                  12 to matrix element file.
 Write GAUSSIAN SCALARS                    from file    501 offset           0 to matrix element file.
 Write OPTIMIZATION FLAGS                  from file      0 offset           0 length                   4 to matrix element file.
 Write INTEGER ISO                         from file      0 offset           0 length                   4 to matrix element file.
 Write INTEGER SPIN                        from file      0 offset           0 length                   4 to matrix element file.
 Write REAL ZEFFECTIVE                     from file      0 offset           0 length                   4 to matrix element file.
 Write REAL QUADRUPOLEMOMENT               from file      0 offset           0 length                   4 to matrix element file.
 Write REAL GFACTOR                        from file      0 offset           0 length                   4 to matrix element file.
 Write REAL ZNUCLEAR                       from file      0 offset           0 length                   4 to matrix element file.
 Write MULLIKEN CHARGES                    from file      0 offset           0 length                   4 to matrix element file.
 Write NUCLEAR GRADIENT                    from file  10584 offset           0 length                  12 to matrix element file.
 Array NUCLEAR FORCE CONSTANTS              on  file  10585 does not exist.
 Write ELECTRIC DIPOLE MOMENT              from file      0 offset           0 length                   3 to matrix element file.
 Write NON-ADIABATIC COUPLING              from file  10810 offset           0 length                  12 to matrix element file.
 Write FINITE EM FIELD                     from file  10521 offset           0 length                  35 to matrix element file.
 Write OVERLAP                             from file  10514 offset           0 length                1830 to matrix element file.
 Write CORE HAMILTONIAN ALPHA              from file  10515 offset           0 length                1830 to matrix element file.
 Write CORE HAMILTONIAN BETA               from file  10515 offset        1830 length                1830 to matrix element file.
 Write KINETIC ENERGY                      from file  10516 offset           0 length                1830 to matrix element file.
 Write ORTHOGONAL BASIS                    from file  10685 offset           0 length                3600 to matrix element file.
 Write DIPOLE INTEGRALS                    from file  10518 offset           0 length                5490 to matrix element file.
 Array DIP VEL INTEGRALS                    on  file  10572 does not exist.
 Array R X DEL INTEGRALS                    on  file  10572 does not exist.
 Write ALPHA ORBITAL ENERGIES              from file      0 offset           0 length                  60 to matrix element file.
 Write ALPHA MO COEFFICIENTS               from file  10524 offset           0 length                3600 to matrix element file.
 Write ALPHA DENSITY MATRIX                from file      0 offset           0 length                1830 to matrix element file.
 Write ALPHA FOCK MATRIX                   from file  10536 offset           0 length                1830 to matrix element file.
 Write ENERGY-WEIGHTED DENSITY             from file  10571 offset           0 length                1830 to matrix element file.
 Write ALPHA SCF DENSITY MATRIX            from file      0 offset           0 length                1830 to matrix element file.
 No 2e integrals to process.
 Perform NBO analysis...executing G16NBO...

 *********************************** NBO 7.0 ***********************************
             N A T U R A L   A T O M I C   O R B I T A L   A N D
          N A T U R A L   B O N D   O R B I T A L   A N A L Y S I S
 **************************** Espen Tangen (S101595) ***************************
  (c) Copyright 1996-2021 Board of Regents of the University of Wisconsin System
      on behalf of the Theoretical Chemistry Institute.  All rights reserved.

          Cite this program [NBO 7.0.10 (8-Feb-2021)] as:

          NBO 7.0.  E. D. Glendening, J. K. Badenhoop, A. E. Reed,
          J. E. Carpenter, J. A. Bohmann, C. M. Morales, P. Karafiloglou,
          C. R. Landis, and F. Weinhold, Theoretical Chemistry Institute,
          University of Wisconsin, Madison, WI (2018)

       /NPA    / : Natural Population Analysis
       /AOPNAO / : Print the AO to PNAO transformation
       /AONAO  / : Print the AO to NAO transformation
       /AOMO   / : Print the MOs in the AO basis
       /BOAO   / : Print the AO bond-order matrix
       /DMAO   / : Print the AO density matrix
       /DMPNAO / : Print the PNAO density matrix
       /DMNAO  / : Print the NAO density matrix
       /DMMO   / : Print the MO density matrix
       /SAO    / : Print the AO overlap matrix
       /SPNAO  / : Print the PNAO overlap matrix
       /DETAIL / : Write details of NBO search
       /ARCHIVE/ : Write the archive file to lfn47
       /AOINFO / : Write AO information to lfn31
       /FILE   / : Set to mol72.gen*

 Filename set to mol72.gen1

 Job title: mol72-NBO


 MOs in the AO basis:

           AO          1       2       3       4       5       6       7       8
      ------------ ------- ------- ------- ------- ------- ------- ------- -------
   1. Cl 1 (s)      0.9965  0.0000  0.0000  0.0000 -0.2869  0.0000 -0.0032  0.0000
   2. Cl 1 (s)      0.0126 -0.0002  0.0000 -0.0002  1.0314  0.0000  0.0120  0.0000
   3. Cl 1 (px)     0.0000  0.0000  0.0000  0.0000  0.0000  0.0000  0.0000  0.9944
   4. Cl 1 (py)     0.0000  0.0000 -0.0001  0.0000  0.0000  0.9930  0.0000  0.0000
   5. Cl 1 (pz)    -0.0002  0.0001  0.0000  0.0000 -0.0105  0.0000  0.9931  0.0000
   6. Cl 1 (s)     -0.0040 -0.0004  0.0000 -0.0004  0.0208  0.0000 -0.0017  0.0000
   7. Cl 1 (px)     0.0000  0.0000  0.0000  0.0000  0.0000  0.0000  0.0000  0.0176
   8. Cl 1 (py)     0.0000  0.0000  0.0005  0.0000  0.0000  0.0226  0.0000  0.0000
   9. Cl 1 (pz)     0.0004 -0.0008  0.0000  0.0000 -0.0019  0.0000  0.0221  0.0000
  10. Cl 1 (s)      0.0016  0.0025  0.0000  0.0024 -0.0044  0.0000 -0.0008  0.0000
  11. Cl 1 (px)     0.0000  0.0000  0.0000  0.0000  0.0000  0.0000  0.0000 -0.0034
  12. Cl 1 (py)     0.0000  0.0000  0.0030  0.0000  0.0000 -0.0039  0.0000  0.0000
  13. Cl 1 (pz)    -0.0001 -0.0017  0.0000 -0.0006  0.0004  0.0000 -0.0039  0.0000
  14. Cl 1 (d5)    -0.0001  0.0008  0.0000 -0.0003  0.0003  0.0000 -0.0019  0.0000
  15. Cl 1 (d2)     0.0000  0.0000  0.0000  0.0000  0.0000  0.0000  0.0000 -0.0007
  16. Cl 1 (d3)     0.0000  0.0000 -0.0002  0.0000  0.0000 -0.0010  0.0000  0.0000
  17. Cl 1 (d4)     0.0002 -0.0001  0.0000 -0.0008 -0.0009  0.0000  0.0000  0.0000
  18. Cl 1 (d1)     0.0000  0.0000  0.0000  0.0000  0.0000  0.0000  0.0000  0.0000
  19.  F 2 (s)      0.0000  0.9956  0.0000  0.0001  0.0000  0.0000  0.0000  0.0000
  20.  F 2 (s)     -0.0001  0.0216  0.0000  0.0001  0.0004  0.0000 -0.0008  0.0000
  21.  F 2 (px)     0.0000  0.0000  0.0000  0.0000  0.0000  0.0000  0.0000  0.0001
  22.  F 2 (py)     0.0000  0.0000  0.0000  0.0000  0.0000  0.0000  0.0000  0.0000
  23.  F 2 (pz)    -0.0001  0.0013  0.0000 -0.0001  0.0003  0.0000 -0.0004  0.0000
  24.  F 2 (s)      0.0001 -0.0069  0.0000 -0.0007 -0.0004  0.0000  0.0016  0.0000
  25.  F 2 (px)     0.0000  0.0000  0.0000  0.0000  0.0000  0.0000  0.0000  0.0000
  26.  F 2 (py)     0.0000  0.0000 -0.0002  0.0000  0.0000  0.0000  0.0000  0.0000
  27.  F 2 (pz)     0.0004 -0.0020  0.0000 -0.0001 -0.0011  0.0000  0.0026  0.0000
  28.  F 2 (d5)     0.0004 -0.0006  0.0000  0.0000 -0.0007  0.0000  0.0012  0.0000
  29.  F 2 (d2)     0.0000  0.0000  0.0000  0.0000  0.0000  0.0000  0.0000 -0.0003
  30.  F 2 (d3)     0.0000  0.0000 -0.0001  0.0000  0.0000 -0.0005  0.0000  0.0000
  31.  F 2 (d4)     0.0000  0.0000  0.0000 -0.0001  0.0000  0.0000  0.0000  0.0000
  32.  F 2 (d1)     0.0000  0.0000  0.0000  0.0000  0.0000  0.0000  0.0000  0.0000
  33.  F 3 (s)      0.0000 -0.0001  0.7040  0.7040  0.0000  0.0000  0.0000  0.0000
  34.  F 3 (s)     -0.0001  0.0001  0.0154  0.0151  0.0003  0.0005  0.0000  0.0000
  35.  F 3 (px)     0.0000  0.0000  0.0000  0.0000  0.0000  0.0000  0.0000  0.0000
  36.  F 3 (py)     0.0001  0.0000 -0.0007 -0.0007 -0.0003 -0.0004  0.0000  0.0000
  37.  F 3 (pz)     0.0000  0.0000  0.0001  0.0000  0.0000  0.0000  0.0000  0.0000
  38.  F 3 (s)      0.0000 -0.0005 -0.0052 -0.0040 -0.0002 -0.0007  0.0001  0.0000
  39.  F 3 (px)     0.0000  0.0000  0.0000  0.0000  0.0000  0.0000  0.0000  0.0001
  40.  F 3 (py)    -0.0003  0.0001  0.0013  0.0010  0.0007  0.0019 -0.0001  0.0000
  41.  F 3 (pz)     0.0000  0.0000 -0.0001  0.0000 -0.0001 -0.0001  0.0001  0.0000
  42.  F 3 (d5)    -0.0002  0.0001  0.0001  0.0002  0.0003  0.0005 -0.0001  0.0000
  43.  F 3 (d2)     0.0000  0.0000  0.0000  0.0000  0.0000  0.0000  0.0000  0.0000
  44.  F 3 (d3)     0.0000  0.0000  0.0000  0.0000  0.0000  0.0001  0.0003  0.0000
  45.  F 3 (d4)    -0.0003  0.0000  0.0002  0.0003  0.0005  0.0009  0.0000  0.0000
  46.  F 3 (d1)     0.0000  0.0000  0.0000  0.0000  0.0000  0.0000  0.0000  0.0002
  47.  F 4 (s)      0.0000 -0.0001 -0.7040  0.7040  0.0000  0.0000  0.0000  0.0000
  48.  F 4 (s)     -0.0001  0.0001 -0.0154  0.0151  0.0003 -0.0005  0.0000  0.0000
  49.  F 4 (px)     0.0000  0.0000  0.0000  0.0000  0.0000  0.0000  0.0000  0.0000
  50.  F 4 (py)    -0.0001  0.0000 -0.0007  0.0007  0.0003 -0.0004  0.0000  0.0000
  51.  F 4 (pz)     0.0000  0.0000 -0.0001  0.0000  0.0000  0.0000  0.0000  0.0000
  52.  F 4 (s)      0.0000 -0.0005  0.0052 -0.0040 -0.0002  0.0007  0.0001  0.0000
  53.  F 4 (px)     0.0000  0.0000  0.0000  0.0000  0.0000  0.0000  0.0000  0.0001
  54.  F 4 (py)     0.0003 -0.0001  0.0013 -0.0010 -0.0007  0.0019  0.0001  0.0000
  55.  F 4 (pz)     0.0000  0.0000  0.0001  0.0000 -0.0001  0.0001  0.0001  0.0000
  56.  F 4 (d5)    -0.0002  0.0001 -0.0001  0.0002  0.0003 -0.0005 -0.0001  0.0000
  57.  F 4 (d2)     0.0000  0.0000  0.0000  0.0000  0.0000  0.0000  0.0000  0.0000
  58.  F 4 (d3)     0.0000  0.0000  0.0000  0.0000  0.0000  0.0001 -0.0003  0.0000
  59.  F 4 (d4)    -0.0003  0.0000 -0.0002  0.0003  0.0005 -0.0009  0.0000  0.0000
  60.  F 4 (d1)     0.0000  0.0000  0.0000  0.0000  0.0000  0.0000  0.0000 -0.0002

           AO          9      10      11      12      13      14      15      16
      ------------ ------- ------- ------- ------- ------- ------- ------- -------
   1. Cl 1 (s)      0.0260  0.0183  0.0000  0.0742  0.0000  0.0000  0.0139  0.0000
   2. Cl 1 (s)     -0.1140 -0.0810  0.0000 -0.3291  0.0000  0.0000 -0.0649  0.0000
   3. Cl 1 (px)     0.0000  0.0000  0.0000  0.0000  0.0000 -0.1440  0.0000  0.0000
   4. Cl 1 (py)     0.0000  0.0000 -0.0557  0.0000 -0.1448  0.0000  0.0000  0.1026
   5. Cl 1 (pz)     0.0431 -0.0147  0.0000 -0.0044  0.0000  0.0000 -0.1823  0.0000
   6. Cl 1 (s)      0.2365  0.1669  0.0000  0.7255  0.0000  0.0000  0.1359  0.0000
   7. Cl 1 (px)     0.0000  0.0000  0.0000  0.0000  0.0000  0.3784  0.0000  0.0000
   8. Cl 1 (py)     0.0000  0.0000  0.1196  0.0000  0.3653  0.0000  0.0000 -0.2617
   9. Cl 1 (pz)    -0.0887  0.0309  0.0000  0.0145  0.0000  0.0000  0.4631  0.0000
  10. Cl 1 (s)      0.0058  0.0277  0.0000  0.2067  0.0000  0.0000  0.1251  0.0000
  11. Cl 1 (px)     0.0000  0.0000  0.0000  0.0000  0.0000  0.1310  0.0000  0.0000
  12. Cl 1 (py)     0.0000  0.0000 -0.0196  0.0000  0.0457  0.0000  0.0000 -0.0278
  13. Cl 1 (pz)     0.0205 -0.0011  0.0000  0.0170  0.0000  0.0000  0.0933  0.0000
  14. Cl 1 (d5)     0.0203 -0.0240  0.0000  0.0067  0.0000  0.0000 -0.0586  0.0000
  15. Cl 1 (d2)     0.0000  0.0000  0.0000  0.0000  0.0000 -0.0330  0.0000  0.0000
  16. Cl 1 (d3)     0.0000  0.0000 -0.0063  0.0000 -0.0394  0.0000  0.0000 -0.0341
  17. Cl 1 (d4)    -0.0050 -0.0231  0.0000  0.0094  0.0000  0.0000 -0.0028  0.0000
  18. Cl 1 (d1)     0.0000  0.0000  0.0000  0.0000  0.0000  0.0000  0.0000  0.0000
  19.  F 2 (s)     -0.2080  0.0931  0.0000  0.0666  0.0000  0.0000 -0.0420  0.0000
  20.  F 2 (s)      0.4481 -0.2052  0.0000 -0.1542  0.0000  0.0000  0.1150  0.0000
  21.  F 2 (px)     0.0000  0.0000  0.0000  0.0000  0.0000  0.5285  0.0000  0.0000
  22.  F 2 (py)     0.0000  0.0000  0.0132  0.0000  0.4005  0.0000  0.0000  0.4610
  23.  F 2 (pz)     0.0556  0.0035  0.0000  0.1394  0.0000  0.0000 -0.4171  0.0000
  24.  F 2 (s)      0.4915 -0.2244  0.0000 -0.1867  0.0000  0.0000  0.1118  0.0000
  25.  F 2 (px)     0.0000  0.0000  0.0000  0.0000  0.0000  0.3603  0.0000  0.0000
  26.  F 2 (py)     0.0000  0.0000  0.0098  0.0000  0.2750  0.0000  0.0000  0.3305
  27.  F 2 (pz)     0.0600 -0.0105  0.0000  0.0817  0.0000  0.0000 -0.3099  0.0000
  28.  F 2 (d5)     0.0176 -0.0042  0.0000  0.0137  0.0000  0.0000 -0.0329  0.0000
  29.  F 2 (d2)     0.0000  0.0000  0.0000  0.0000  0.0000  0.0263  0.0000  0.0000
  30.  F 2 (d3)     0.0000  0.0000  0.0016  0.0000  0.0221  0.0000  0.0000  0.0180
  31.  F 2 (d4)     0.0005 -0.0005  0.0000  0.0008  0.0000  0.0000  0.0010  0.0000
  32.  F 2 (d1)     0.0000  0.0000  0.0000  0.0000  0.0000  0.0000  0.0000  0.0000
  33.  F 3 (s)     -0.0462 -0.1494 -0.1641  0.0670  0.0379  0.0000  0.0078 -0.0178
  34.  F 3 (s)      0.0968  0.3197  0.3475 -0.1470 -0.0958  0.0000 -0.0174  0.0477
  35.  F 3 (px)     0.0000  0.0000  0.0000  0.0000  0.0000  0.1275  0.0000  0.0000
  36.  F 3 (py)    -0.0220 -0.0300 -0.0297 -0.0954 -0.2488  0.0000 -0.0447  0.2177
  37.  F 3 (pz)    -0.0038  0.0048  0.0018  0.0077 -0.0326  0.0000  0.1503 -0.1827
  38.  F 3 (s)      0.1087  0.3551  0.4023 -0.1946 -0.1048  0.0000 -0.0318  0.0491
  39.  F 3 (px)     0.0000  0.0000  0.0000  0.0000  0.0000  0.0858  0.0000  0.0000
  40.  F 3 (py)    -0.0179 -0.0341 -0.0398 -0.0496 -0.1840  0.0000 -0.0277  0.1681
  41.  F 3 (pz)    -0.0026  0.0032  0.0027  0.0037 -0.0305  0.0000  0.1020 -0.1418
  42.  F 3 (d5)    -0.0024 -0.0047 -0.0052 -0.0041 -0.0083  0.0000 -0.0002  0.0090
  43.  F 3 (d2)     0.0000  0.0000  0.0000  0.0000  0.0000 -0.0010  0.0000  0.0000
  44.  F 3 (d3)     0.0000 -0.0007 -0.0008 -0.0008  0.0032  0.0000 -0.0088  0.0112
  45.  F 3 (d4)    -0.0039 -0.0085 -0.0094 -0.0064 -0.0160  0.0000 -0.0020  0.0147
  46.  F 3 (d1)     0.0000  0.0000  0.0000  0.0000  0.0000 -0.0075  0.0000  0.0000
  47.  F 4 (s)     -0.0462 -0.1494  0.1641  0.0670 -0.0379  0.0000  0.0078  0.0178
  48.  F 4 (s)      0.0968  0.3197 -0.3475 -0.1470  0.0958  0.0000 -0.0174 -0.0477
  49.  F 4 (px)     0.0000  0.0000  0.0000  0.0000  0.0000  0.1275  0.0000  0.0000
  50.  F 4 (py)     0.0220  0.0300 -0.0297  0.0954 -0.2488  0.0000  0.0447  0.2177
  51.  F 4 (pz)    -0.0038  0.0048 -0.0018  0.0077  0.0326  0.0000  0.1503  0.1827
  52.  F 4 (s)      0.1087  0.3551 -0.4023 -0.1946  0.1048  0.0000 -0.0318 -0.0491
  53.  F 4 (px)     0.0000  0.0000  0.0000  0.0000  0.0000  0.0858  0.0000  0.0000
  54.  F 4 (py)     0.0179  0.0341 -0.0398  0.0496 -0.1840  0.0000  0.0277  0.1681
  55.  F 4 (pz)    -0.0026  0.0032 -0.0027  0.0037  0.0305  0.0000  0.1020  0.1418
  56.  F 4 (d5)    -0.0024 -0.0047  0.0052 -0.0041  0.0083  0.0000 -0.0002 -0.0090
  57.  F 4 (d2)     0.0000  0.0000  0.0000  0.0000  0.0000 -0.0010  0.0000  0.0000
  58.  F 4 (d3)     0.0000  0.0007 -0.0008  0.0008  0.0032  0.0000  0.0088  0.0112
  59.  F 4 (d4)    -0.0039 -0.0085  0.0094 -0.0064  0.0160  0.0000 -0.0020 -0.0147
  60.  F 4 (d1)     0.0000  0.0000  0.0000  0.0000  0.0000  0.0075  0.0000  0.0000

           AO         17      18      19      20      21      22      23      24
      ------------ ------- ------- ------- ------- ------- ------- ------- -------
   1. Cl 1 (s)      0.0000  0.0000  0.0000 -0.0047  0.0253  0.0000 -0.0294  0.0000
   2. Cl 1 (s)      0.0000  0.0000  0.0000  0.0224 -0.1188  0.0000  0.1283  0.0000
   3. Cl 1 (px)     0.1234  0.0000  0.0000  0.0000  0.0000 -0.2438  0.0000  0.0000
   4. Cl 1 (py)     0.0000  0.0000  0.0246  0.0000  0.0000  0.0000  0.0000 -0.2691
   5. Cl 1 (pz)     0.0000  0.0000  0.0000  0.0334 -0.0841  0.0000 -0.2140  0.0000
   6. Cl 1 (s)      0.0000  0.0000  0.0000 -0.0462  0.2534  0.0000 -0.3366  0.0000
   7. Cl 1 (px)    -0.3310  0.0000  0.0000  0.0000  0.0000  0.6792  0.0000  0.0000
   8. Cl 1 (py)     0.0000  0.0000 -0.0698  0.0000  0.0000  0.0000  0.0000  0.7680
   9. Cl 1 (pz)     0.0000  0.0000  0.0000 -0.0918  0.2267  0.0000  0.5893  0.0000
  10. Cl 1 (s)      0.0000  0.0000  0.0000 -0.0532  0.2530  0.0000 -0.2451  0.0000
  11. Cl 1 (px)    -0.1332  0.0000  0.0000  0.0000  0.0000  0.2410  0.0000  0.0000
  12. Cl 1 (py)     0.0000  0.0000  0.0370  0.0000  0.0000  0.0000  0.0000  0.6437
  13. Cl 1 (pz)     0.0000  0.0000  0.0000  0.0566  0.0897  0.0000  0.6054  0.0000
  14. Cl 1 (d5)     0.0000  0.0000  0.0000  0.0409  0.0604  0.0000  0.0857  0.0000
  15. Cl 1 (d2)    -0.0175  0.0000  0.0000  0.0000  0.0000  0.0087  0.0000  0.0000
  16. Cl 1 (d3)     0.0000  0.0000  0.0345  0.0000  0.0000  0.0000  0.0000  0.0212
  17. Cl 1 (d4)     0.0000  0.0000  0.0000  0.0144  0.1057  0.0000 -0.0469  0.0000
  18. Cl 1 (d1)     0.0000  0.0494  0.0000  0.0000  0.0000  0.0000  0.0000  0.0000
  19.  F 2 (s)      0.0000  0.0000  0.0000 -0.0018 -0.0011  0.0000 -0.0507  0.0000
  20.  F 2 (s)      0.0000  0.0000  0.0000 -0.0061  0.0045  0.0000  0.0839  0.0000
  21.  F 2 (px)     0.3790  0.0000  0.0000  0.0000  0.0000 -0.1870  0.0000  0.0000
  22.  F 2 (py)     0.0000  0.0000  0.2890  0.0000  0.0000  0.0000  0.0000 -0.0756
  23.  F 2 (pz)     0.0000  0.0000  0.0000  0.2310  0.0253  0.0000  0.3941  0.0000
  24.  F 2 (s)      0.0000  0.0000  0.0000  0.0402  0.0038  0.0000  0.4244  0.0000
  25.  F 2 (px)     0.2744  0.0000  0.0000  0.0000  0.0000 -0.1493  0.0000  0.0000
  26.  F 2 (py)     0.0000  0.0000  0.1801  0.0000  0.0000  0.0000  0.0000 -0.1064
  27.  F 2 (pz)     0.0000  0.0000  0.0000  0.1956  0.0148  0.0000  0.4579  0.0000
  28.  F 2 (d5)     0.0000  0.0000  0.0000  0.0209  0.0004  0.0000  0.0017  0.0000
  29.  F 2 (d2)     0.0108  0.0000  0.0000  0.0000  0.0000  0.0023  0.0000  0.0000
  30.  F 2 (d3)     0.0000  0.0000  0.0027  0.0000  0.0000  0.0000  0.0000  0.0075
  31.  F 2 (d4)     0.0000  0.0000  0.0000  0.0044  0.0022  0.0000 -0.0052  0.0000
  32.  F 2 (d1)     0.0000  0.0037  0.0000  0.0000  0.0000  0.0000  0.0000  0.0000
  33.  F 3 (s)      0.0000  0.0000 -0.0017 -0.0044 -0.0001  0.0000 -0.0106  0.0491
  34.  F 3 (s)      0.0000  0.0000  0.0101  0.0115  0.0196  0.0000  0.0162 -0.0977
  35.  F 3 (px)    -0.3327  0.4611  0.0000  0.0000  0.0000 -0.3088  0.0000  0.0000
  36.  F 3 (py)     0.0000  0.0000  0.0896  0.1090  0.4016  0.0000 -0.1165  0.3207
  37.  F 3 (pz)     0.0000  0.0000  0.4205  0.4203 -0.1167  0.0000 -0.0856 -0.0413
  38.  F 3 (s)      0.0000  0.0000 -0.0129  0.0155 -0.0564  0.0000  0.0793 -0.3502
  39.  F 3 (px)    -0.2358  0.3475  0.0000  0.0000  0.0000 -0.2435  0.0000  0.0000
  40.  F 3 (py)     0.0000  0.0000  0.0802  0.0847  0.3483  0.0000 -0.1276  0.3747
  41.  F 3 (pz)     0.0000  0.0000  0.3152  0.3104 -0.0937  0.0000 -0.1073 -0.0287
  42.  F 3 (d5)     0.0000  0.0000  0.0062  0.0050  0.0118  0.0000  0.0050 -0.0014
  43.  F 3 (d2)    -0.0019  0.0010  0.0000  0.0000  0.0000  0.0004  0.0000  0.0000
  44.  F 3 (d3)     0.0000  0.0000 -0.0155 -0.0133  0.0032  0.0000 -0.0007 -0.0047
  45.  F 3 (d4)     0.0000  0.0000  0.0063  0.0061  0.0211  0.0000 -0.0009 -0.0013
  46.  F 3 (d1)     0.0135 -0.0183  0.0000  0.0000  0.0000  0.0037  0.0000  0.0000
  47.  F 4 (s)      0.0000  0.0000  0.0017 -0.0044 -0.0001  0.0000 -0.0106 -0.0491
  48.  F 4 (s)      0.0000  0.0000 -0.0101  0.0115  0.0196  0.0000  0.0162  0.0977
  49.  F 4 (px)    -0.3327 -0.4611  0.0000  0.0000  0.0000 -0.3088  0.0000  0.0000
  50.  F 4 (py)     0.0000  0.0000  0.0896 -0.1090 -0.4016  0.0000  0.1165  0.3207
  51.  F 4 (pz)     0.0000  0.0000 -0.4205  0.4203 -0.1167  0.0000 -0.0856  0.0413
  52.  F 4 (s)      0.0000  0.0000  0.0129  0.0155 -0.0564  0.0000  0.0793  0.3502
  53.  F 4 (px)    -0.2358 -0.3475  0.0000  0.0000  0.0000 -0.2435  0.0000  0.0000
  54.  F 4 (py)     0.0000  0.0000  0.0802 -0.0847 -0.3483  0.0000  0.1276  0.3747
  55.  F 4 (pz)     0.0000  0.0000 -0.3152  0.3104 -0.0937  0.0000 -0.1073  0.0287
  56.  F 4 (d5)     0.0000  0.0000 -0.0062  0.0050  0.0118  0.0000  0.0050  0.0014
  57.  F 4 (d2)    -0.0019 -0.0010  0.0000  0.0000  0.0000  0.0004  0.0000  0.0000
  58.  F 4 (d3)     0.0000  0.0000 -0.0155  0.0133 -0.0032  0.0000  0.0007 -0.0047
  59.  F 4 (d4)     0.0000  0.0000 -0.0063  0.0061  0.0211  0.0000 -0.0009  0.0013
  60.  F 4 (d1)    -0.0135 -0.0183  0.0000  0.0000  0.0000 -0.0037  0.0000  0.0000

           AO         25      26      27      28      29      30      31      32
      ------------ ------- ------- ------- ------- ------- ------- ------- -------
   1. Cl 1 (s)     -0.0672 -0.0030  0.0000  0.0000  0.0000  0.0000  0.0000  0.0132
   2. Cl 1 (s)      0.0476  0.0266  0.0000  0.0000  0.0000  0.0000  0.0000  0.0072
   3. Cl 1 (px)     0.0000  0.0000  0.2644  0.0000  0.0000  0.0000 -0.0309  0.0000
   4. Cl 1 (py)     0.0000  0.0000  0.0000  0.2231 -0.0522  0.0000  0.0000  0.0000
   5. Cl 1 (pz)     0.0311  0.2712  0.0000  0.0000  0.0000  0.0000  0.0000  0.0245
   6. Cl 1 (s)     -1.6449 -0.0020  0.0000  0.0000  0.0000  0.0000  0.0000  0.3893
   7. Cl 1 (px)     0.0000  0.0000 -1.0838  0.0000  0.0000  0.0000  0.1176  0.0000
   8. Cl 1 (py)     0.0000  0.0000  0.0000 -0.9709  0.2256  0.0000  0.0000  0.0000
   9. Cl 1 (pz)    -0.0877 -1.0872  0.0000  0.0000  0.0000  0.0000  0.0000 -0.1254
  10. Cl 1 (s)      2.3115 -0.2074  0.0000  0.0000  0.0000  0.0000  0.0000 -0.6410
  11. Cl 1 (px)     0.0000  0.0000  1.3563  0.0000  0.0000  0.0000 -0.0690  0.0000
  12. Cl 1 (py)     0.0000  0.0000  0.0000  1.9481 -0.3865  0.0000  0.0000  0.0000
  13. Cl 1 (pz)    -0.3613  1.5170  0.0000  0.0000  0.0000  0.0000  0.0000  0.3571
  14. Cl 1 (d5)    -0.0571  0.0748  0.0000  0.0000  0.0000  0.0000  0.0000 -0.6121
  15. Cl 1 (d2)     0.0000  0.0000  0.0851  0.0000  0.0000  0.0000  0.8981  0.0000
  16. Cl 1 (d3)     0.0000  0.0000  0.0000  0.1582  0.7813  0.0000  0.0000  0.0000
  17. Cl 1 (d4)     0.1494 -0.0377  0.0000  0.0000  0.0000  0.0000  0.0000  0.6776
  18. Cl 1 (d1)     0.0000  0.0000  0.0000  0.0000  0.0000  0.8807  0.0000  0.0000
  19.  F 2 (s)      0.0324 -0.0096  0.0000  0.0000  0.0000  0.0000  0.0000 -0.0609
  20.  F 2 (s)     -0.0234 -0.0742  0.0000  0.0000  0.0000  0.0000  0.0000  0.3774
  21.  F 2 (px)     0.0000  0.0000 -0.0462  0.0000  0.0000  0.0000  0.3034  0.0000
  22.  F 2 (py)     0.0000  0.0000  0.0000 -0.0259  0.3072  0.0000  0.0000  0.0000
  23.  F 2 (pz)     0.0514 -0.2217  0.0000  0.0000  0.0000  0.0000  0.0000  0.0920
  24.  F 2 (s)     -0.5315  0.5827  0.0000  0.0000  0.0000  0.0000  0.0000 -0.0055
  25.  F 2 (px)     0.0000  0.0000 -0.1230  0.0000  0.0000  0.0000 -0.1875  0.0000
  26.  F 2 (py)     0.0000  0.0000  0.0000 -0.1932 -0.1389  0.0000  0.0000  0.0000
  27.  F 2 (pz)    -0.2558  0.1042  0.0000  0.0000  0.0000  0.0000  0.0000  0.2126
  28.  F 2 (d5)    -0.0599  0.0719  0.0000  0.0000  0.0000  0.0000  0.0000 -0.0203
  29.  F 2 (d2)     0.0000  0.0000 -0.0352  0.0000  0.0000  0.0000 -0.1647  0.0000
  30.  F 2 (d3)     0.0000  0.0000  0.0000 -0.0596 -0.1501  0.0000  0.0000  0.0000
  31.  F 2 (d4)     0.0170 -0.0119  0.0000  0.0000  0.0000  0.0000  0.0000  0.0381
  32.  F 2 (d1)     0.0000  0.0000  0.0000  0.0000  0.0000  0.0449  0.0000  0.0000
  33.  F 3 (s)      0.0206 -0.0022  0.0000  0.0346 -0.0154  0.0000  0.0000 -0.0277
  34.  F 3 (s)     -0.0005 -0.0106  0.0000 -0.0086  0.0689  0.0000  0.0000  0.1696
  35.  F 3 (px)     0.0000  0.0000 -0.0717  0.0000  0.0000 -0.2371  0.0283  0.0000
  36.  F 3 (py)    -0.0635  0.0071  0.0000 -0.1213 -0.0199  0.0000  0.0000 -0.0762
  37.  F 3 (pz)     0.0147 -0.0585  0.0000 -0.0634 -0.2139  0.0000  0.0000 -0.0807
  38.  F 3 (s)     -0.3608  0.0734  0.0000 -0.6862  0.0880  0.0000  0.0000 -0.0115
  39.  F 3 (px)     0.0000  0.0000 -0.1160  0.0000  0.0000  0.1381 -0.0134  0.0000
  40.  F 3 (py)     0.1875 -0.0424  0.0000  0.2519 -0.0533  0.0000  0.0000 -0.0702
  41.  F 3 (pz)     0.0254 -0.1331  0.0000 -0.0122  0.1147  0.0000  0.0000  0.0418
  42.  F 3 (d5)     0.0214  0.0025  0.0000  0.0339 -0.0013  0.0000  0.0000 -0.0155
  43.  F 3 (d2)     0.0000  0.0000  0.0023  0.0000  0.0000  0.0083  0.0313  0.0000
  44.  F 3 (d3)     0.0015  0.0275  0.0000 -0.0163 -0.1220  0.0000  0.0000 -0.0172
  45.  F 3 (d4)     0.0541 -0.0090  0.0000  0.0650 -0.0049  0.0000  0.0000  0.0293
  46.  F 3 (d1)     0.0000  0.0000  0.0188  0.0000  0.0000 -0.1303  0.0102  0.0000
  47.  F 4 (s)      0.0206 -0.0022  0.0000 -0.0346  0.0154  0.0000  0.0000 -0.0277
  48.  F 4 (s)     -0.0005 -0.0106  0.0000  0.0086 -0.0689  0.0000  0.0000  0.1696
  49.  F 4 (px)     0.0000  0.0000 -0.0717  0.0000  0.0000  0.2371  0.0283  0.0000
  50.  F 4 (py)     0.0635 -0.0071  0.0000 -0.1213 -0.0199  0.0000  0.0000  0.0762
  51.  F 4 (pz)     0.0147 -0.0585  0.0000  0.0634  0.2139  0.0000  0.0000 -0.0807
  52.  F 4 (s)     -0.3608  0.0734  0.0000  0.6862 -0.0880  0.0000  0.0000 -0.0115
  53.  F 4 (px)     0.0000  0.0000 -0.1160  0.0000  0.0000 -0.1381 -0.0134  0.0000
  54.  F 4 (py)    -0.1875  0.0424  0.0000  0.2519 -0.0533  0.0000  0.0000  0.0702
  55.  F 4 (pz)     0.0254 -0.1331  0.0000  0.0122 -0.1147  0.0000  0.0000  0.0418
  56.  F 4 (d5)     0.0214  0.0025  0.0000 -0.0339  0.0013  0.0000  0.0000 -0.0155
  57.  F 4 (d2)     0.0000  0.0000  0.0023  0.0000  0.0000 -0.0083  0.0313  0.0000
  58.  F 4 (d3)    -0.0015 -0.0275  0.0000 -0.0163 -0.1220  0.0000  0.0000  0.0172
  59.  F 4 (d4)     0.0541 -0.0090  0.0000 -0.0650  0.0049  0.0000  0.0000  0.0293
  60.  F 4 (d1)     0.0000  0.0000 -0.0188  0.0000  0.0000 -0.1303 -0.0102  0.0000

           AO         33      34      35      36      37      38      39      40
      ------------ ------- ------- ------- ------- ------- ------- ------- -------
   1. Cl 1 (s)      0.0088  0.0000 -0.0076  0.0000  0.0000  0.0042  0.0000  0.0000
   2. Cl 1 (s)     -0.0090  0.0000  0.0234  0.0000  0.0000 -0.0236  0.0000  0.0000
   3. Cl 1 (px)     0.0000  0.0000  0.0000 -0.0105  0.0000  0.0000 -0.0147  0.0000
   4. Cl 1 (py)     0.0000  0.0009  0.0000  0.0000  0.0000  0.0000  0.0000 -0.0588
   5. Cl 1 (pz)    -0.0149  0.0000 -0.0371  0.0000  0.0000 -0.0201  0.0000  0.0000
   6. Cl 1 (s)      0.2158  0.0000 -0.1539  0.0000  0.0000  0.0490  0.0000  0.0000
   7. Cl 1 (px)     0.0000  0.0000  0.0000  0.0581  0.0000  0.0000  0.0980  0.0000
   8. Cl 1 (py)     0.0000  0.0101  0.0000  0.0000  0.0000  0.0000  0.0000  0.3166
   9. Cl 1 (pz)     0.0714  0.0000  0.2014  0.0000  0.0000  0.1313  0.0000  0.0000
  10. Cl 1 (s)     -0.2403  0.0000 -0.1717  0.0000  0.0000  0.1735  0.0000  0.0000
  11. Cl 1 (px)     0.0000  0.0000  0.0000 -0.2303  0.0000  0.0000 -0.4048  0.0000
  12. Cl 1 (py)     0.0000 -0.3264  0.0000  0.0000  0.0000  0.0000  0.0000 -0.0818
  13. Cl 1 (pz)    -0.1590  0.0000  0.1854  0.0000  0.0000 -0.3440  0.0000  0.0000
  14. Cl 1 (d5)     0.6758  0.0000 -0.0443  0.0000  0.0000  0.1006  0.0000  0.0000
  15. Cl 1 (d2)     0.0000  0.0000  0.0000  0.3041  0.0000  0.0000  0.0649  0.0000
  16. Cl 1 (d3)     0.0000  0.4678  0.0000  0.0000  0.0000  0.0000  0.0000  0.0495
  17. Cl 1 (d4)     0.5601  0.0000  0.0472  0.0000  0.0000 -0.0673  0.0000  0.0000
  18. Cl 1 (d1)     0.0000  0.0000  0.0000  0.0000 -0.3504  0.0000  0.0000  0.0000
  19.  F 2 (s)      0.0330  0.0000 -0.0380  0.0000  0.0000 -0.0265  0.0000  0.0000
  20.  F 2 (s)     -0.1794  0.0000  0.3473  0.0000  0.0000  0.3932  0.0000  0.0000
  21.  F 2 (px)     0.0000  0.0000  0.0000 -0.8779  0.0000  0.0000 -0.0952  0.0000
  22.  F 2 (py)     0.0000 -0.6477  0.0000  0.0000  0.0000  0.0000  0.0000  0.0840
  23.  F 2 (pz)    -0.1023  0.0000 -0.7364  0.0000  0.0000 -0.3125  0.0000  0.0000
  24.  F 2 (s)      0.0352  0.0000 -0.1904  0.0000  0.0000 -0.5331  0.0000  0.0000
  25.  F 2 (px)     0.0000  0.0000  0.0000  1.0842  0.0000  0.0000  0.1654  0.0000
  26.  F 2 (py)     0.0000  0.7844  0.0000  0.0000  0.0000  0.0000  0.0000 -0.0826
  27.  F 2 (pz)    -0.1377  0.0000  0.9484  0.0000  0.0000  0.2978  0.0000  0.0000
  28.  F 2 (d5)     0.0886  0.0000 -0.1453  0.0000  0.0000  0.0046  0.0000  0.0000
  29.  F 2 (d2)     0.0000  0.0000  0.0000 -0.1484  0.0000  0.0000 -0.0432  0.0000
  30.  F 2 (d3)     0.0000 -0.0887  0.0000  0.0000  0.0000  0.0000  0.0000 -0.0529
  31.  F 2 (d4)     0.0239  0.0000 -0.1053  0.0000  0.0000  0.1150  0.0000  0.0000
  32.  F 2 (d1)     0.0000  0.0000  0.0000  0.0000  0.0482  0.0000  0.0000  0.0000
  33.  F 3 (s)     -0.0416 -0.0062  0.0004  0.0000  0.0000  0.0375  0.0000  0.0355
  34.  F 3 (s)      0.2546  0.0111 -0.0232  0.0000  0.0000 -0.4033  0.0000 -0.3929
  35.  F 3 (px)     0.0000  0.0000  0.0000  0.0854 -0.6271  0.0000 -0.6635  0.0000
  36.  F 3 (py)    -0.1798  0.1071  0.1013  0.0000  0.0000 -0.4714  0.0000 -0.5544
  37.  F 3 (pz)     0.0675  0.3628  0.3375  0.0000  0.0000 -0.2679  0.0000  0.2230
  38.  F 3 (s)     -0.0983  0.1078  0.0539  0.0000  0.0000  0.3417  0.0000  0.3738
  39.  F 3 (px)     0.0000  0.0000  0.0000 -0.0720  0.7321  0.0000  0.8074  0.0000
  40.  F 3 (py)    -0.0781 -0.1692 -0.1342  0.0000  0.0000  0.5648  0.0000  0.6678
  41.  F 3 (pz)    -0.0271 -0.3826 -0.3784  0.0000  0.0000  0.3445  0.0000 -0.2653
  42.  F 3 (d5)     0.0561  0.0625  0.0303  0.0000  0.0000 -0.0260  0.0000 -0.0643
  43.  F 3 (d2)     0.0000  0.0000  0.0000 -0.0286 -0.0093  0.0000 -0.0049  0.0000
  44.  F 3 (d3)     0.0320 -0.0402  0.0465  0.0000  0.0000  0.0208  0.0000 -0.0478
  45.  F 3 (d4)     0.0850 -0.0095  0.0012  0.0000  0.0000 -0.0198  0.0000 -0.0901
  46.  F 3 (d1)     0.0000  0.0000  0.0000  0.0024  0.1087  0.0000  0.0323  0.0000
  47.  F 4 (s)     -0.0416  0.0062  0.0004  0.0000  0.0000  0.0375  0.0000 -0.0355
  48.  F 4 (s)      0.2546 -0.0111 -0.0232  0.0000  0.0000 -0.4033  0.0000  0.3929
  49.  F 4 (px)     0.0000  0.0000  0.0000  0.0854  0.6271  0.0000 -0.6635  0.0000
  50.  F 4 (py)     0.1798  0.1071 -0.1013  0.0000  0.0000  0.4714  0.0000 -0.5544
  51.  F 4 (pz)     0.0675 -0.3628  0.3375  0.0000  0.0000 -0.2679  0.0000 -0.2230
  52.  F 4 (s)     -0.0983 -0.1078  0.0539  0.0000  0.0000  0.3417  0.0000 -0.3738
  53.  F 4 (px)     0.0000  0.0000  0.0000 -0.0720 -0.7321  0.0000  0.8074  0.0000
  54.  F 4 (py)     0.0781 -0.1692  0.1342  0.0000  0.0000 -0.5648  0.0000  0.6678
  55.  F 4 (pz)    -0.0271  0.3826 -0.3784  0.0000  0.0000  0.3445  0.0000  0.2653
  56.  F 4 (d5)     0.0561 -0.0625  0.0303  0.0000  0.0000 -0.0260  0.0000  0.0643
  57.  F 4 (d2)     0.0000  0.0000  0.0000 -0.0286  0.0093  0.0000 -0.0049  0.0000
  58.  F 4 (d3)    -0.0320 -0.0402 -0.0465  0.0000  0.0000 -0.0208  0.0000 -0.0478
  59.  F 4 (d4)     0.0850  0.0095  0.0012  0.0000  0.0000 -0.0198  0.0000  0.0901
  60.  F 4 (d1)     0.0000  0.0000  0.0000 -0.0024  0.1087  0.0000 -0.0323  0.0000

           AO         41      42      43      44      45      46      47      48
      ------------ ------- ------- ------- ------- ------- ------- ------- -------
   1. Cl 1 (s)     -0.0120  0.0000  0.0079  0.0078  0.0000  0.0000 -0.0089  0.0000
   2. Cl 1 (s)      0.0134  0.0000  0.0321  0.0158  0.0000  0.0000 -0.0159  0.0000
   3. Cl 1 (px)     0.0000  0.0000  0.0000  0.0000  0.0000  0.0000  0.0000 -0.0062
   4. Cl 1 (py)     0.0000 -0.0249  0.0000  0.0000  0.0000  0.0063  0.0000  0.0000
   5. Cl 1 (pz)    -0.0288  0.0000 -0.0074  0.0032  0.0000  0.0000 -0.0226  0.0000
   6. Cl 1 (s)     -0.3057  0.0000  0.3111  0.2664  0.0000  0.0000 -0.2886  0.0000
   7. Cl 1 (px)     0.0000  0.0000  0.0000  0.0000  0.0000  0.0000  0.0000  0.0076
   8. Cl 1 (py)     0.0000  0.1498  0.0000  0.0000  0.0000  0.0131  0.0000  0.0000
   9. Cl 1 (pz)     0.1855  0.0000  0.0112 -0.0296  0.0000  0.0000  0.0670  0.0000
  10. Cl 1 (s)      0.1594  0.0000 -0.7849 -0.5645  0.0000  0.0000  0.6585  0.0000
  11. Cl 1 (px)     0.0000  0.0000  0.0000  0.0000  0.0000  0.0000  0.0000  0.0541
  12. Cl 1 (py)     0.0000 -0.3840  0.0000  0.0000  0.0000 -0.2344  0.0000  0.0000
  13. Cl 1 (pz)    -0.4280  0.0000  0.1453  0.4946  0.0000  0.0000 -0.2322  0.0000
  14. Cl 1 (d5)     0.1489  0.0000 -0.0150 -0.1736  0.0000  0.0000  0.0547  0.0000
  15. Cl 1 (d2)     0.0000  0.0000  0.0000  0.0000  0.0000  0.0000  0.0000  0.1910
  16. Cl 1 (d3)     0.0000 -0.0568  0.0000  0.0000  0.0000  0.1946  0.0000  0.0000
  17. Cl 1 (d4)    -0.0113  0.0000  0.2462  0.0877  0.0000  0.0000 -0.0742  0.0000
  18. Cl 1 (d1)     0.0000  0.0000  0.0000  0.0000 -0.0479  0.0000  0.0000  0.0000
  19.  F 2 (s)     -0.0057  0.0000 -0.0014  0.0512  0.0000  0.0000 -0.0216  0.0000
  20.  F 2 (s)      0.1597  0.0000 -0.0907 -0.9553  0.0000  0.0000  0.4266  0.0000
  21.  F 2 (px)     0.0000  0.0000  0.0000  0.0000  0.0000  0.0000  0.0000 -0.0614
  22.  F 2 (py)     0.0000 -0.5448  0.0000  0.0000  0.0000  0.0137  0.0000  0.0000
  23.  F 2 (pz)    -0.3152  0.0000  0.0906 -0.1308  0.0000  0.0000  0.0995  0.0000
  24.  F 2 (s)     -0.3332  0.0000  0.2774  1.3148  0.0000  0.0000 -0.6399  0.0000
  25.  F 2 (px)     0.0000  0.0000  0.0000  0.0000  0.0000  0.0000  0.0000  0.0732
  26.  F 2 (py)     0.0000  0.7613  0.0000  0.0000  0.0000  0.0095  0.0000  0.0000
  27.  F 2 (pz)     0.3002  0.0000 -0.0206  0.3917  0.0000  0.0000 -0.2312  0.0000
  28.  F 2 (d5)    -0.0423  0.0000  0.0575 -0.4322  0.0000  0.0000  0.1687  0.0000
  29.  F 2 (d2)     0.0000  0.0000  0.0000  0.0000  0.0000  0.0000  0.0000  0.5666
  30.  F 2 (d3)     0.0000 -0.2168  0.0000  0.0000  0.0000  0.6135  0.0000  0.0000
  31.  F 2 (d4)     0.1203  0.0000 -0.5326 -0.1396  0.0000  0.0000 -0.4923  0.0000
  32.  F 2 (d1)     0.0000  0.0000  0.0000  0.0000  0.9336  0.0000  0.0000  0.0000
  33.  F 3 (s)     -0.0194  0.0060  0.0422 -0.0133  0.0000  0.0032 -0.0170  0.0000
  34.  F 3 (s)      0.2267 -0.1161 -0.6844  0.1325  0.0000 -0.1058  0.3065  0.0000
  35.  F 3 (px)     0.0000  0.0000  0.0000  0.0000  0.0433  0.0000  0.0000  0.0375
  36.  F 3 (py)     0.3473 -0.1748  0.1465 -0.1286  0.0000 -0.0414 -0.0573  0.0000
  37.  F 3 (pz)    -0.4785 -0.4507 -0.0704 -0.0812  0.0000 -0.0457 -0.0176  0.0000
  38.  F 3 (s)     -0.2371  0.2305  0.8406 -0.0497  0.0000  0.2004 -0.4205  0.0000
  39.  F 3 (px)     0.0000  0.0000  0.0000  0.0000 -0.0533  0.0000  0.0000 -0.0424
  40.  F 3 (py)    -0.3998  0.1769 -0.3224  0.1216  0.0000  0.0003  0.1513  0.0000
  41.  F 3 (pz)     0.6047  0.5668  0.0833  0.0711  0.0000  0.0567  0.0453  0.0000
  42.  F 3 (d5)     0.0315  0.0347  0.2192  0.1849  0.0000  0.4949 -0.3127  0.0000
  43.  F 3 (d2)     0.0000  0.0000  0.0000  0.0000 -0.2449  0.0000  0.0000 -0.0655
  44.  F 3 (d3)     0.0539  0.1318  0.1201  0.2341  0.0000  0.0445  0.4213  0.0000
  45.  F 3 (d4)     0.0591 -0.1008  0.1982 -0.2708  0.0000 -0.2373 -0.0902  0.0000
  46.  F 3 (d1)     0.0000  0.0000  0.0000  0.0000 -0.0267  0.0000  0.0000  0.5800
  47.  F 4 (s)     -0.0194 -0.0060  0.0422 -0.0133  0.0000 -0.0032 -0.0170  0.0000
  48.  F 4 (s)      0.2267  0.1161 -0.6844  0.1325  0.0000  0.1058  0.3065  0.0000
  49.  F 4 (px)     0.0000  0.0000  0.0000  0.0000 -0.0433  0.0000  0.0000  0.0375
  50.  F 4 (py)    -0.3473 -0.1748 -0.1465  0.1286  0.0000 -0.0414  0.0573  0.0000
  51.  F 4 (pz)    -0.4785  0.4507 -0.0704 -0.0812  0.0000  0.0457 -0.0176  0.0000
  52.  F 4 (s)     -0.2371 -0.2305  0.8406 -0.0497  0.0000 -0.2004 -0.4205  0.0000
  53.  F 4 (px)     0.0000  0.0000  0.0000  0.0000  0.0533  0.0000  0.0000 -0.0424
  54.  F 4 (py)     0.3998  0.1769  0.3224 -0.1216  0.0000  0.0003 -0.1513  0.0000
  55.  F 4 (pz)     0.6047 -0.5668  0.0833  0.0711  0.0000 -0.0567  0.0453  0.0000
  56.  F 4 (d5)     0.0315 -0.0347  0.2192  0.1849  0.0000 -0.4949 -0.3127  0.0000
  57.  F 4 (d2)     0.0000  0.0000  0.0000  0.0000  0.2449  0.0000  0.0000 -0.0655
  58.  F 4 (d3)    -0.0539  0.1318 -0.1201 -0.2341  0.0000  0.0445 -0.4213  0.0000
  59.  F 4 (d4)     0.0591  0.1008  0.1982 -0.2708  0.0000  0.2373 -0.0902  0.0000
  60.  F 4 (d1)     0.0000  0.0000  0.0000  0.0000 -0.0267  0.0000  0.0000 -0.5800

           AO         49      50      51      52      53      54      55      56
      ------------ ------- ------- ------- ------- ------- ------- ------- -------
   1. Cl 1 (s)      0.0000  0.0000  0.0140  0.0000  0.0000  0.0000  0.0000  0.0011
   2. Cl 1 (s)      0.0000  0.0000  0.0107  0.0000  0.0000  0.0000  0.0000  0.0077
   3. Cl 1 (px)    -0.0036  0.0000  0.0000  0.0352  0.0000  0.0000  0.0000  0.0000
   4. Cl 1 (py)     0.0000  0.0000  0.0000  0.0000 -0.0425 -0.0452  0.0000  0.0000
   5. Cl 1 (pz)     0.0000  0.0000  0.0221  0.0000  0.0000  0.0000  0.0000 -0.0239
   6. Cl 1 (s)      0.0000  0.0000  0.4178  0.0000  0.0000  0.0000  0.0000  0.0555
   7. Cl 1 (px)     0.0111  0.0000  0.0000 -0.0823  0.0000  0.0000  0.0000  0.0000
   8. Cl 1 (py)     0.0000  0.0000  0.0000  0.0000  0.2223  0.1978  0.0000  0.0000
   9. Cl 1 (pz)     0.0000  0.0000 -0.1273  0.0000  0.0000  0.0000  0.0000  0.0443
  10. Cl 1 (s)      0.0000  0.0000 -0.7916  0.0000  0.0000  0.0000  0.0000 -0.1305
  11. Cl 1 (px)    -0.0029  0.0000  0.0000 -0.2175  0.0000  0.0000  0.0000  0.0000
  12. Cl 1 (py)     0.0000  0.0000  0.0000  0.0000 -0.8166 -0.7627  0.0000  0.0000
  13. Cl 1 (pz)     0.0000  0.0000  0.5258  0.0000  0.0000  0.0000  0.0000  0.1533
  14. Cl 1 (d5)     0.0000  0.0000 -0.0232  0.0000  0.0000  0.0000  0.0000 -0.1029
  15. Cl 1 (d2)    -0.0672  0.0000  0.0000  0.3254  0.0000  0.0000  0.0000  0.0000
  16. Cl 1 (d3)     0.0000  0.0000  0.0000  0.0000  0.3572 -0.2775  0.0000  0.0000
  17. Cl 1 (d4)     0.0000  0.0000  0.0462  0.0000  0.0000  0.0000  0.0000 -0.0266
  18. Cl 1 (d1)     0.0000 -0.0124  0.0000  0.0000  0.0000  0.0000  0.4054  0.0000
  19.  F 2 (s)      0.0000  0.0000  0.0238  0.0000  0.0000  0.0000  0.0000 -0.0194
  20.  F 2 (s)      0.0000  0.0000 -0.5402  0.0000  0.0000  0.0000  0.0000  0.2150
  21.  F 2 (px)    -0.0520  0.0000  0.0000 -0.1201  0.0000  0.0000  0.0000  0.0000
  22.  F 2 (py)     0.0000  0.0000  0.0000  0.0000 -0.0015  0.0669  0.0000  0.0000
  23.  F 2 (pz)     0.0000  0.0000 -0.0299  0.0000  0.0000  0.0000  0.0000  0.1404
  24.  F 2 (s)      0.0000  0.0000  0.8913  0.0000  0.0000  0.0000  0.0000 -0.1345
  25.  F 2 (px)     0.0655  0.0000  0.0000  0.1992  0.0000  0.0000  0.0000  0.0000
  26.  F 2 (py)     0.0000  0.0000  0.0000  0.0000  0.0956 -0.0339  0.0000  0.0000
  27.  F 2 (pz)     0.0000  0.0000  0.1940  0.0000  0.0000  0.0000  0.0000 -0.1320
  28.  F 2 (d5)     0.0000  0.0000 -0.3691  0.0000  0.0000  0.0000  0.0000  0.2219
  29.  F 2 (d2)    -0.0380  0.0000  0.0000  0.8195  0.0000  0.0000  0.0000  0.0000
  30.  F 2 (d3)     0.0000  0.0000  0.0000  0.0000  0.3063 -0.4068  0.0000  0.0000
  31.  F 2 (d4)     0.0000  0.0000  0.2524  0.0000  0.0000  0.0000  0.0000  0.5862
  32.  F 2 (d1)     0.0000  0.3534  0.0000  0.0000  0.0000  0.0000  0.0125  0.0000
  33.  F 3 (s)      0.0000  0.0000  0.0104  0.0000  0.0248  0.0344  0.0000  0.0117
  34.  F 3 (s)      0.0000  0.0000 -0.2325  0.0000 -0.5319 -0.6508  0.0000 -0.1772
  35.  F 3 (px)     0.0053  0.0154  0.0000 -0.0495  0.0000  0.0000  0.0773  0.0000
  36.  F 3 (py)     0.0000  0.0000  0.0255  0.0000  0.0403  0.1345  0.0000  0.0775
  37.  F 3 (pz)     0.0000  0.0000  0.0415  0.0000 -0.0072 -0.0233  0.0000  0.1354
  38.  F 3 (s)      0.0000  0.0000  0.3686  0.0000  0.8468  0.9492  0.0000  0.2059
  39.  F 3 (px)    -0.0061 -0.0192  0.0000  0.0867  0.0000  0.0000 -0.1078  0.0000
  40.  F 3 (py)     0.0000  0.0000 -0.1162  0.0000 -0.1937 -0.3011  0.0000 -0.1136
  41.  F 3 (pz)     0.0000  0.0000 -0.0938  0.0000  0.0203  0.0474  0.0000 -0.1972
  42.  F 3 (d5)     0.0000  0.0000 -0.4105  0.0000 -0.0887  0.3590  0.0000  0.2321
  43.  F 3 (d2)     0.6984  0.6609  0.0000  0.0815  0.0000  0.0000 -0.0570  0.0000
  44.  F 3 (d3)     0.0000  0.0000  0.1775  0.0000  0.4342 -0.2598  0.0000  0.4794
  45.  F 3 (d4)     0.0000  0.0000  0.3736  0.0000  0.3868  0.2371  0.0000 -0.0412
  46.  F 3 (d1)     0.1004  0.0516  0.0000 -0.4083  0.0000  0.0000  0.6950  0.0000
  47.  F 4 (s)      0.0000  0.0000  0.0104  0.0000 -0.0248 -0.0344  0.0000  0.0117
  48.  F 4 (s)      0.0000  0.0000 -0.2325  0.0000  0.5319  0.6508  0.0000 -0.1772
  49.  F 4 (px)     0.0053 -0.0154  0.0000 -0.0495  0.0000  0.0000 -0.0773  0.0000
  50.  F 4 (py)     0.0000  0.0000 -0.0255  0.0000  0.0403  0.1345  0.0000 -0.0775
  51.  F 4 (pz)     0.0000  0.0000  0.0415  0.0000  0.0072  0.0233  0.0000  0.1354
  52.  F 4 (s)      0.0000  0.0000  0.3686  0.0000 -0.8468 -0.9492  0.0000  0.2059
  53.  F 4 (px)    -0.0061  0.0192  0.0000  0.0867  0.0000  0.0000  0.1078  0.0000
  54.  F 4 (py)     0.0000  0.0000  0.1162  0.0000 -0.1937 -0.3011  0.0000  0.1136
  55.  F 4 (pz)     0.0000  0.0000 -0.0938  0.0000 -0.0203 -0.0474  0.0000 -0.1972
  56.  F 4 (d5)     0.0000  0.0000 -0.4105  0.0000  0.0887 -0.3590  0.0000  0.2321
  57.  F 4 (d2)     0.6984 -0.6609  0.0000  0.0815  0.0000  0.0000  0.0570  0.0000
  58.  F 4 (d3)     0.0000  0.0000 -0.1775  0.0000  0.4342 -0.2598  0.0000 -0.4794
  59.  F 4 (d4)     0.0000  0.0000  0.3736  0.0000 -0.3868 -0.2371  0.0000 -0.0412
  60.  F 4 (d1)    -0.1004  0.0516  0.0000  0.4083  0.0000  0.0000  0.6950  0.0000

           AO         57      58      59      60
      ------------ ------- ------- ------- -------
   1. Cl 1 (s)      0.0000  0.0000 -0.0287  0.0046
   2. Cl 1 (s)      0.0000  0.0000  0.1767 -0.0408
   3. Cl 1 (px)     0.0000  0.0000  0.0000  0.0000
   4. Cl 1 (py)     0.0057  0.1927  0.0000  0.0000
   5. Cl 1 (pz)     0.0000  0.0000 -0.1365 -0.0972
   6. Cl 1 (s)      0.0000  0.0000 -0.2525 -0.0151
   7. Cl 1 (px)     0.0000  0.0000  0.0000  0.0000
   8. Cl 1 (py)     0.0403 -0.7494  0.0000  0.0000
   9. Cl 1 (pz)     0.0000  0.0000  0.5828  0.4380
  10. Cl 1 (s)      0.0000  0.0000 -1.0229  0.2245
  11. Cl 1 (px)     0.0000  0.0000  0.0000  0.0000
  12. Cl 1 (py)    -0.4972 -0.6241  0.0000  0.0000
  13. Cl 1 (pz)     0.0000  0.0000  0.3734  0.0981
  14. Cl 1 (d5)     0.0000  0.0000 -0.2973 -0.7394
  15. Cl 1 (d2)     0.0000  0.0000  0.0000  0.0000
  16. Cl 1 (d3)    -0.0186  0.1266  0.0000  0.0000
  17. Cl 1 (d4)     0.0000  0.0000  0.5151 -0.5814
  18. Cl 1 (d1)     0.0000  0.0000  0.0000  0.0000
  19.  F 2 (s)      0.0000  0.0000  0.0228  0.0147
  20.  F 2 (s)      0.0000  0.0000 -0.8470 -0.5882
  21.  F 2 (px)     0.0000  0.0000  0.0000  0.0000
  22.  F 2 (py)    -0.2894  0.0408  0.0000  0.0000
  23.  F 2 (pz)     0.0000  0.0000 -0.3041 -0.2692
  24.  F 2 (s)      0.0000  0.0000  1.3937  0.8243
  25.  F 2 (px)     0.0000  0.0000  0.0000  0.0000
  26.  F 2 (py)     0.4652  0.0091  0.0000  0.0000
  27.  F 2 (pz)     0.0000  0.0000  0.8568  0.6915
  28.  F 2 (d5)     0.0000  0.0000  0.7167  0.5924
  29.  F 2 (d2)     0.0000  0.0000  0.0000  0.0000
  30.  F 2 (d3)     0.5833  0.0508  0.0000  0.0000
  31.  F 2 (d4)     0.0000  0.0000  0.0826 -0.0899
  32.  F 2 (d1)     0.0000  0.0000  0.0000  0.0000
  33.  F 3 (s)      0.0022  0.0326  0.0112 -0.0147
  34.  F 3 (s)     -0.1409 -0.7920 -0.3913  0.4816
  35.  F 3 (px)     0.0000  0.0000  0.0000  0.0000
  36.  F 3 (py)    -0.0457  0.3255  0.1410 -0.2310
  37.  F 3 (pz)    -0.1624 -0.0231 -0.0166 -0.0098
  38.  F 3 (s)      0.3264  1.1696  0.6316 -0.6525
  39.  F 3 (px)     0.0000  0.0000  0.0000  0.0000
  40.  F 3 (py)    -0.0221 -0.7076 -0.3978  0.5398
  41.  F 3 (pz)     0.2360  0.0500  0.0041 -0.0052
  42.  F 3 (d5)    -0.2118 -0.2905 -0.2822  0.2080
  43.  F 3 (d2)     0.0000  0.0000  0.0000  0.0000
  44.  F 3 (d3)    -0.4724 -0.0279 -0.0419  0.0520
  45.  F 3 (d4)     0.2060 -0.4831 -0.3087  0.4667
  46.  F 3 (d1)     0.0000  0.0000  0.0000  0.0000
  47.  F 4 (s)     -0.0022 -0.0326  0.0112 -0.0147
  48.  F 4 (s)      0.1409  0.7920 -0.3913  0.4816
  49.  F 4 (px)     0.0000  0.0000  0.0000  0.0000
  50.  F 4 (py)    -0.0457  0.3255 -0.1410  0.2310
  51.  F 4 (pz)     0.1624  0.0231 -0.0166 -0.0098
  52.  F 4 (s)     -0.3264 -1.1696  0.6316 -0.6525
  53.  F 4 (px)     0.0000  0.0000  0.0000  0.0000
  54.  F 4 (py)    -0.0221 -0.7076  0.3978 -0.5398
  55.  F 4 (pz)    -0.2360 -0.0500  0.0041 -0.0052
  56.  F 4 (d5)     0.2118  0.2905 -0.2822  0.2080
  57.  F 4 (d2)     0.0000  0.0000  0.0000  0.0000
  58.  F 4 (d3)    -0.4724 -0.0279  0.0419 -0.0520
  59.  F 4 (d4)    -0.2060  0.4831 -0.3087  0.4667
  60.  F 4 (d1)     0.0000  0.0000  0.0000  0.0000


 AO overlap matrix:

           AO          1       2       3       4       5       6       7       8
      ------------ ------- ------- ------- ------- ------- ------- ------- -------
   1. Cl 1 (s)      1.0000  0.2672  0.0000  0.0000  0.0000  0.0112  0.0000  0.0000
   2. Cl 1 (s)      0.2672  1.0000  0.0000  0.0000  0.0000  0.3358  0.0000  0.0000
   3. Cl 1 (px)     0.0000  0.0000  1.0000  0.0000  0.0000  0.0000  0.3254  0.0000
   4. Cl 1 (py)     0.0000  0.0000  0.0000  1.0000  0.0000  0.0000  0.0000  0.3254
   5. Cl 1 (pz)     0.0000  0.0000  0.0000  0.0000  1.0000  0.0000  0.0000  0.0000
   6. Cl 1 (s)      0.0112  0.3358  0.0000  0.0000  0.0000  1.0000  0.0000  0.0000
   7. Cl 1 (px)     0.0000  0.0000  0.3254  0.0000  0.0000  0.0000  1.0000  0.0000
   8. Cl 1 (py)     0.0000  0.0000  0.0000  0.3254  0.0000  0.0000  0.0000  1.0000
   9. Cl 1 (pz)     0.0000  0.0000  0.0000  0.0000  0.3254  0.0000  0.0000  0.0000
  10. Cl 1 (s)      0.0341  0.2556  0.0000  0.0000  0.0000  0.8259  0.0000  0.0000
  11. Cl 1 (px)     0.0000  0.0000  0.0714  0.0000  0.0000  0.0000  0.6243  0.0000
  12. Cl 1 (py)     0.0000  0.0000  0.0000  0.0714  0.0000  0.0000  0.0000  0.6243
  13. Cl 1 (pz)     0.0000  0.0000  0.0000  0.0000  0.0714  0.0000  0.0000  0.0000
  14. Cl 1 (d5)     0.0000  0.0000  0.0000  0.0000  0.0000  0.0000  0.0000  0.0000
  15. Cl 1 (d2)     0.0000  0.0000  0.0000  0.0000  0.0000  0.0000  0.0000  0.0000
  16. Cl 1 (d3)     0.0000  0.0000  0.0000  0.0000  0.0000  0.0000  0.0000  0.0000
  17. Cl 1 (d4)     0.0000  0.0000  0.0000  0.0000  0.0000  0.0000  0.0000  0.0000
  18. Cl 1 (d1)     0.0000  0.0000  0.0000  0.0000  0.0000  0.0000  0.0000  0.0000
  19.  F 2 (s)      0.0000  0.0000  0.0000  0.0000  0.0000  0.0043  0.0000  0.0000
  20.  F 2 (s)      0.0000  0.0002  0.0000  0.0000 -0.0004  0.0425  0.0000  0.0000
  21.  F 2 (px)     0.0000  0.0000  0.0001  0.0000  0.0000  0.0000  0.0190  0.0000
  22.  F 2 (py)     0.0000  0.0000  0.0000  0.0001  0.0000  0.0000  0.0000  0.0190
  23.  F 2 (pz)     0.0000  0.0005  0.0000  0.0000 -0.0010  0.0528  0.0000  0.0000
  24.  F 2 (s)      0.0023  0.0219  0.0000  0.0000 -0.0165  0.1646  0.0000  0.0000
  25.  F 2 (px)     0.0000  0.0000  0.0089  0.0000  0.0000  0.0000  0.1322  0.0000
  26.  F 2 (py)     0.0000  0.0000  0.0000  0.0089  0.0000  0.0000  0.0000  0.1322
  27.  F 2 (pz)     0.0083  0.0720  0.0000  0.0000 -0.0458  0.3245  0.0000  0.0000
  28.  F 2 (d5)     0.0012  0.0188  0.0000  0.0000 -0.0226  0.1476  0.0000  0.0000
  29.  F 2 (d2)     0.0000  0.0000  0.0039  0.0000  0.0000  0.0000  0.1010  0.0000
  30.  F 2 (d3)     0.0000  0.0000  0.0000  0.0039  0.0000  0.0000  0.0000  0.1010
  31.  F 2 (d4)     0.0000  0.0000  0.0000  0.0000  0.0000  0.0000  0.0000  0.0000
  32.  F 2 (d1)     0.0000  0.0000  0.0000  0.0000  0.0000  0.0000  0.0000  0.0000
  33.  F 3 (s)      0.0000  0.0000  0.0000  0.0000  0.0000  0.0029  0.0000  0.0082
  34.  F 3 (s)      0.0000  0.0001  0.0000  0.0002  0.0000  0.0310  0.0000  0.0709
  35.  F 3 (px)     0.0000  0.0000  0.0000  0.0000  0.0000  0.0000  0.0137  0.0000
  36.  F 3 (py)     0.0000 -0.0002  0.0000 -0.0005  0.0000 -0.0401  0.0000 -0.0818
  37.  F 3 (pz)     0.0000  0.0000  0.0000  0.0000  0.0000  0.0024  0.0000  0.0058
  38.  F 3 (s)      0.0016  0.0160  0.0000  0.0126 -0.0008  0.1363  0.0000  0.2099
  39.  F 3 (px)     0.0000  0.0000  0.0065  0.0000  0.0000  0.0000  0.1083  0.0000
  40.  F 3 (py)    -0.0062 -0.0551  0.0000 -0.0373  0.0026 -0.2823  0.0000 -0.3514
  41.  F 3 (pz)     0.0004  0.0033  0.0000  0.0026  0.0063  0.0170  0.0000  0.0277
  42.  F 3 (d5)    -0.0003 -0.0056  0.0000 -0.0071  0.0007 -0.0616  0.0000 -0.0941
  43.  F 3 (d2)     0.0000  0.0000  0.0001  0.0000  0.0000  0.0000  0.0048  0.0000
  44.  F 3 (d3)    -0.0001 -0.0012  0.0000 -0.0016 -0.0021 -0.0130  0.0000 -0.0247
  45.  F 3 (d4)    -0.0005 -0.0097  0.0000 -0.0123  0.0009 -0.1075  0.0000 -0.1647
  46.  F 3 (d1)     0.0000  0.0000 -0.0022  0.0000  0.0000  0.0000 -0.0791  0.0000
  47.  F 4 (s)      0.0000  0.0000  0.0000  0.0000  0.0000  0.0029  0.0000 -0.0082
  48.  F 4 (s)      0.0000  0.0001  0.0000 -0.0002  0.0000  0.0310  0.0000 -0.0709
  49.  F 4 (px)     0.0000  0.0000  0.0000  0.0000  0.0000  0.0000  0.0137  0.0000
  50.  F 4 (py)     0.0000  0.0002  0.0000 -0.0005  0.0000  0.0401  0.0000 -0.0818
  51.  F 4 (pz)     0.0000  0.0000  0.0000  0.0000  0.0000  0.0024  0.0000 -0.0058
  52.  F 4 (s)      0.0016  0.0160  0.0000 -0.0126 -0.0008  0.1363  0.0000 -0.2099
  53.  F 4 (px)     0.0000  0.0000  0.0065  0.0000  0.0000  0.0000  0.1083  0.0000
  54.  F 4 (py)     0.0062  0.0551  0.0000 -0.0373 -0.0026  0.2823  0.0000 -0.3514
  55.  F 4 (pz)     0.0004  0.0033  0.0000 -0.0026  0.0063  0.0170  0.0000 -0.0277
  56.  F 4 (d5)    -0.0003 -0.0056  0.0000  0.0071  0.0007 -0.0616  0.0000  0.0941
  57.  F 4 (d2)     0.0000  0.0000  0.0001  0.0000  0.0000  0.0000  0.0048  0.0000
  58.  F 4 (d3)     0.0001  0.0012  0.0000 -0.0016  0.0021  0.0130  0.0000 -0.0247
  59.  F 4 (d4)    -0.0005 -0.0097  0.0000  0.0123  0.0009 -0.1075  0.0000  0.1647
  60.  F 4 (d1)     0.0000  0.0000  0.0022  0.0000  0.0000  0.0000  0.0791  0.0000

           AO          9      10      11      12      13      14      15      16
      ------------ ------- ------- ------- ------- ------- ------- ------- -------
   1. Cl 1 (s)      0.0000  0.0341  0.0000  0.0000  0.0000  0.0000  0.0000  0.0000
   2. Cl 1 (s)      0.0000  0.2556  0.0000  0.0000  0.0000  0.0000  0.0000  0.0000
   3. Cl 1 (px)     0.0000  0.0000  0.0714  0.0000  0.0000  0.0000  0.0000  0.0000
   4. Cl 1 (py)     0.0000  0.0000  0.0000  0.0714  0.0000  0.0000  0.0000  0.0000
   5. Cl 1 (pz)     0.3254  0.0000  0.0000  0.0000  0.0714  0.0000  0.0000  0.0000
   6. Cl 1 (s)      0.0000  0.8259  0.0000  0.0000  0.0000  0.0000  0.0000  0.0000
   7. Cl 1 (px)     0.0000  0.0000  0.6243  0.0000  0.0000  0.0000  0.0000  0.0000
   8. Cl 1 (py)     0.0000  0.0000  0.0000  0.6243  0.0000  0.0000  0.0000  0.0000
   9. Cl 1 (pz)     1.0000  0.0000  0.0000  0.0000  0.6243  0.0000  0.0000  0.0000
  10. Cl 1 (s)      0.0000  1.0000  0.0000  0.0000  0.0000  0.0000  0.0000  0.0000
  11. Cl 1 (px)     0.0000  0.0000  1.0000  0.0000  0.0000  0.0000  0.0000  0.0000
  12. Cl 1 (py)     0.0000  0.0000  0.0000  1.0000  0.0000  0.0000  0.0000  0.0000
  13. Cl 1 (pz)     0.6243  0.0000  0.0000  0.0000  1.0000  0.0000  0.0000  0.0000
  14. Cl 1 (d5)     0.0000  0.0000  0.0000  0.0000  0.0000  1.0000  0.0000  0.0000
  15. Cl 1 (d2)     0.0000  0.0000  0.0000  0.0000  0.0000  0.0000  1.0000  0.0000
  16. Cl 1 (d3)     0.0000  0.0000  0.0000  0.0000  0.0000  0.0000  0.0000  1.0000
  17. Cl 1 (d4)     0.0000  0.0000  0.0000  0.0000  0.0000  0.0000  0.0000  0.0000
  18. Cl 1 (d1)     0.0000  0.0000  0.0000  0.0000  0.0000  0.0000  0.0000  0.0000
  19.  F 2 (s)     -0.0116  0.0231  0.0000  0.0000 -0.0532  0.0051  0.0000  0.0000
  20.  F 2 (s)     -0.0933  0.1395  0.0000  0.0000 -0.2929  0.0704  0.0000  0.0000
  21.  F 2 (px)     0.0000  0.0000  0.0623  0.0000  0.0000  0.0000 -0.0238  0.0000
  22.  F 2 (py)     0.0000  0.0000  0.0000  0.0623  0.0000  0.0000  0.0000 -0.0238
  23.  F 2 (pz)    -0.1028  0.0727  0.0000  0.0000 -0.0923  0.1014  0.0000  0.0000
  24.  F 2 (s)     -0.2445  0.3238  0.0000  0.0000 -0.5405  0.1544  0.0000  0.0000
  25.  F 2 (px)     0.0000  0.0000  0.2923  0.0000  0.0000  0.0000 -0.1447  0.0000
  26.  F 2 (py)     0.0000  0.0000  0.0000  0.2923  0.0000  0.0000  0.0000 -0.1447
  27.  F 2 (pz)    -0.3800  0.3411  0.0000  0.0000 -0.2771  0.2196  0.0000  0.0000
  28.  F 2 (d5)    -0.2141  0.0772  0.0000  0.0000 -0.0206  0.2319  0.0000  0.0000
  29.  F 2 (d2)     0.0000  0.0000  0.1145  0.0000  0.0000  0.0000 -0.1584  0.0000
  30.  F 2 (d3)     0.0000  0.0000  0.0000  0.1145  0.0000  0.0000  0.0000 -0.1584
  31.  F 2 (d4)     0.0000  0.0000  0.0000  0.0000  0.0000  0.0000  0.0000  0.0000
  32.  F 2 (d1)     0.0000  0.0000  0.0000  0.0000  0.0000  0.0000  0.0000  0.0000
  33.  F 3 (s)     -0.0005  0.0201  0.0000  0.0486 -0.0029 -0.0014  0.0000 -0.0003
  34.  F 3 (s)     -0.0043  0.1229  0.0000  0.2705 -0.0163 -0.0240  0.0000 -0.0051
  35.  F 3 (px)     0.0000  0.0000  0.0548  0.0000  0.0000  0.0000 -0.0009  0.0000
  36.  F 3 (py)     0.0058 -0.0671  0.0000 -0.0947  0.0090  0.0364  0.0000  0.0086
  37.  F 3 (pz)     0.0133  0.0040  0.0000  0.0090  0.0543 -0.0038  0.0000  0.0148
  38.  F 3 (s)     -0.0127  0.2927  0.0000  0.5124 -0.0309 -0.0663  0.0000 -0.0140
  39.  F 3 (px)     0.0000  0.0000  0.2643  0.0000  0.0000  0.0000 -0.0072  0.0000
  40.  F 3 (py)     0.0277 -0.3234  0.0000 -0.3018  0.0342  0.1052  0.0000  0.0295
  41.  F 3 (pz)     0.1066  0.0195  0.0000  0.0342  0.2622 -0.0188  0.0000  0.1172
  42.  F 3 (d5)     0.0139 -0.0374  0.0000 -0.0161  0.0121  0.0621  0.0000  0.0241
  43.  F 3 (d2)     0.0000  0.0000  0.0064  0.0000  0.0000  0.0000  0.0164  0.0000
  44.  F 3 (d3)    -0.0773 -0.0079  0.0000 -0.0099 -0.1056  0.0241  0.0000 -0.1169
  45.  F 3 (d4)     0.0147 -0.0652  0.0000 -0.0289  0.0082  0.0807  0.0000  0.0254
  46.  F 3 (d1)     0.0000  0.0000 -0.1065  0.0000  0.0000  0.0000  0.0083  0.0000
  47.  F 4 (s)     -0.0005  0.0201  0.0000 -0.0486 -0.0029 -0.0014  0.0000  0.0003
  48.  F 4 (s)     -0.0043  0.1229  0.0000 -0.2705 -0.0163 -0.0240  0.0000  0.0051
  49.  F 4 (px)     0.0000  0.0000  0.0548  0.0000  0.0000  0.0000 -0.0009  0.0000
  50.  F 4 (py)    -0.0058  0.0671  0.0000 -0.0947 -0.0090 -0.0364  0.0000  0.0086
  51.  F 4 (pz)     0.0133  0.0040  0.0000 -0.0090  0.0543 -0.0038  0.0000 -0.0148
  52.  F 4 (s)     -0.0127  0.2927  0.0000 -0.5124 -0.0309 -0.0663  0.0000  0.0140
  53.  F 4 (px)     0.0000  0.0000  0.2643  0.0000  0.0000  0.0000 -0.0072  0.0000
  54.  F 4 (py)    -0.0277  0.3234  0.0000 -0.3018 -0.0342 -0.1052  0.0000  0.0295
  55.  F 4 (pz)     0.1066  0.0195  0.0000 -0.0342  0.2622 -0.0188  0.0000 -0.1172
  56.  F 4 (d5)     0.0139 -0.0374  0.0000  0.0161  0.0121  0.0621  0.0000 -0.0241
  57.  F 4 (d2)     0.0000  0.0000  0.0064  0.0000  0.0000  0.0000  0.0164  0.0000
  58.  F 4 (d3)     0.0773  0.0079  0.0000 -0.0099  0.1056 -0.0241  0.0000 -0.1169
  59.  F 4 (d4)     0.0147 -0.0652  0.0000  0.0289  0.0082  0.0807  0.0000 -0.0254
  60.  F 4 (d1)     0.0000  0.0000  0.1065  0.0000  0.0000  0.0000 -0.0083  0.0000

           AO         17      18      19      20      21      22      23      24
      ------------ ------- ------- ------- ------- ------- ------- ------- -------
   1. Cl 1 (s)      0.0000  0.0000  0.0000  0.0000  0.0000  0.0000  0.0000  0.0023
   2. Cl 1 (s)      0.0000  0.0000  0.0000  0.0002  0.0000  0.0000  0.0005  0.0219
   3. Cl 1 (px)     0.0000  0.0000  0.0000  0.0000  0.0001  0.0000  0.0000  0.0000
   4. Cl 1 (py)     0.0000  0.0000  0.0000  0.0000  0.0000  0.0001  0.0000  0.0000
   5. Cl 1 (pz)     0.0000  0.0000  0.0000 -0.0004  0.0000  0.0000 -0.0010 -0.0165
   6. Cl 1 (s)      0.0000  0.0000  0.0043  0.0425  0.0000  0.0000  0.0528  0.1646
   7. Cl 1 (px)     0.0000  0.0000  0.0000  0.0000  0.0190  0.0000  0.0000  0.0000
   8. Cl 1 (py)     0.0000  0.0000  0.0000  0.0000  0.0000  0.0190  0.0000  0.0000
   9. Cl 1 (pz)     0.0000  0.0000 -0.0116 -0.0933  0.0000  0.0000 -0.1028 -0.2445
  10. Cl 1 (s)      0.0000  0.0000  0.0231  0.1395  0.0000  0.0000  0.0727  0.3238
  11. Cl 1 (px)     0.0000  0.0000  0.0000  0.0000  0.0623  0.0000  0.0000  0.0000
  12. Cl 1 (py)     0.0000  0.0000  0.0000  0.0000  0.0000  0.0623  0.0000  0.0000
  13. Cl 1 (pz)     0.0000  0.0000 -0.0532 -0.2929  0.0000  0.0000 -0.0923 -0.5405
  14. Cl 1 (d5)     0.0000  0.0000  0.0051  0.0704  0.0000  0.0000  0.1014  0.1544
  15. Cl 1 (d2)     0.0000  0.0000  0.0000  0.0000 -0.0238  0.0000  0.0000  0.0000
  16. Cl 1 (d3)     0.0000  0.0000  0.0000  0.0000  0.0000 -0.0238  0.0000  0.0000
  17. Cl 1 (d4)     1.0000  0.0000  0.0000  0.0000  0.0000  0.0000  0.0000  0.0000
  18. Cl 1 (d1)     0.0000  1.0000  0.0000  0.0000  0.0000  0.0000  0.0000  0.0000
  19.  F 2 (s)      0.0000  0.0000  1.0000  0.2443  0.0000  0.0000  0.0000  0.1716
  20.  F 2 (s)      0.0000  0.0000  0.2443  1.0000  0.0000  0.0000  0.0000  0.7635
  21.  F 2 (px)     0.0000  0.0000  0.0000  0.0000  1.0000  0.0000  0.0000  0.0000
  22.  F 2 (py)     0.0000  0.0000  0.0000  0.0000  0.0000  1.0000  0.0000  0.0000
  23.  F 2 (pz)     0.0000  0.0000  0.0000  0.0000  0.0000  0.0000  1.0000  0.0000
  24.  F 2 (s)      0.0000  0.0000  0.1716  0.7635  0.0000  0.0000  0.0000  1.0000
  25.  F 2 (px)     0.0000  0.0000  0.0000  0.0000  0.4995  0.0000  0.0000  0.0000
  26.  F 2 (py)     0.0000  0.0000  0.0000  0.0000  0.0000  0.4995  0.0000  0.0000
  27.  F 2 (pz)     0.0000  0.0000  0.0000  0.0000  0.0000  0.0000  0.4995  0.0000
  28.  F 2 (d5)     0.0000  0.0000  0.0000  0.0000  0.0000  0.0000  0.0000  0.0000
  29.  F 2 (d2)     0.0000  0.0000  0.0000  0.0000  0.0000  0.0000  0.0000  0.0000
  30.  F 2 (d3)     0.0000  0.0000  0.0000  0.0000  0.0000  0.0000  0.0000  0.0000
  31.  F 2 (d4)     0.0248  0.0000  0.0000  0.0000  0.0000  0.0000  0.0000  0.0000
  32.  F 2 (d1)     0.0000  0.0248  0.0000  0.0000  0.0000  0.0000  0.0000  0.0000
  33.  F 3 (s)     -0.0024  0.0000  0.0000  0.0000  0.0000  0.0000  0.0000  0.0002
  34.  F 3 (s)     -0.0419  0.0000  0.0000  0.0000  0.0000  0.0000  0.0000  0.0039
  35.  F 3 (px)     0.0000  0.0154  0.0000  0.0000  0.0000  0.0000  0.0000  0.0000
  36.  F 3 (py)     0.0637  0.0000  0.0000  0.0000  0.0000  0.0000  0.0000 -0.0043
  37.  F 3 (pz)    -0.0048  0.0000  0.0000  0.0000  0.0000  0.0000  0.0000 -0.0038
  38.  F 3 (s)     -0.1157  0.0000  0.0002  0.0039  0.0000  0.0043  0.0038  0.0340
  39.  F 3 (px)     0.0000  0.1194  0.0000  0.0000  0.0022  0.0000  0.0000  0.0000
  40.  F 3 (py)     0.1844  0.0000 -0.0009 -0.0118  0.0000 -0.0110 -0.0118 -0.0660
  41.  F 3 (pz)    -0.0183  0.0000 -0.0008 -0.0105  0.0000 -0.0118 -0.0083 -0.0590
  42.  F 3 (d5)     0.0807  0.0000  0.0000  0.0002  0.0000  0.0005  0.0001  0.0046
  43.  F 3 (d2)     0.0000  0.0083  0.0000  0.0000 -0.0002  0.0000  0.0000  0.0000
  44.  F 3 (d3)     0.0254  0.0000  0.0000  0.0010  0.0000  0.0016  0.0014  0.0239
  45.  F 3 (d4)     0.1586  0.0000  0.0000 -0.0005  0.0000 -0.0008 -0.0009 -0.0134
  46.  F 3 (d1)     0.0000 -0.1205  0.0000  0.0000 -0.0002  0.0000  0.0000  0.0000
  47.  F 4 (s)     -0.0024  0.0000  0.0000  0.0000  0.0000  0.0000  0.0000  0.0002
  48.  F 4 (s)     -0.0419  0.0000  0.0000  0.0000  0.0000  0.0000  0.0000  0.0039
  49.  F 4 (px)     0.0000 -0.0154  0.0000  0.0000  0.0000  0.0000  0.0000  0.0000
  50.  F 4 (py)    -0.0637  0.0000  0.0000  0.0000  0.0000  0.0000  0.0000  0.0043
  51.  F 4 (pz)    -0.0048  0.0000  0.0000  0.0000  0.0000  0.0000  0.0000 -0.0038
  52.  F 4 (s)     -0.1157  0.0000  0.0002  0.0039  0.0000 -0.0043  0.0038  0.0340
  53.  F 4 (px)     0.0000 -0.1194  0.0000  0.0000  0.0022  0.0000  0.0000  0.0000
  54.  F 4 (py)    -0.1844  0.0000  0.0009  0.0118  0.0000 -0.0110  0.0118  0.0660
  55.  F 4 (pz)    -0.0183  0.0000 -0.0008 -0.0105  0.0000  0.0118 -0.0083 -0.0590
  56.  F 4 (d5)     0.0807  0.0000  0.0000  0.0002  0.0000 -0.0005  0.0001  0.0046
  57.  F 4 (d2)     0.0000 -0.0083  0.0000  0.0000 -0.0002  0.0000  0.0000  0.0000
  58.  F 4 (d3)    -0.0254  0.0000  0.0000 -0.0010  0.0000  0.0016 -0.0014 -0.0239
  59.  F 4 (d4)     0.1586  0.0000  0.0000 -0.0005  0.0000  0.0008 -0.0009 -0.0134
  60.  F 4 (d1)     0.0000 -0.1205  0.0000  0.0000  0.0002  0.0000  0.0000  0.0000

           AO         25      26      27      28      29      30      31      32
      ------------ ------- ------- ------- ------- ------- ------- ------- -------
   1. Cl 1 (s)      0.0000  0.0000  0.0083  0.0012  0.0000  0.0000  0.0000  0.0000
   2. Cl 1 (s)      0.0000  0.0000  0.0720  0.0188  0.0000  0.0000  0.0000  0.0000
   3. Cl 1 (px)     0.0089  0.0000  0.0000  0.0000  0.0039  0.0000  0.0000  0.0000
   4. Cl 1 (py)     0.0000  0.0089  0.0000  0.0000  0.0000  0.0039  0.0000  0.0000
   5. Cl 1 (pz)     0.0000  0.0000 -0.0458 -0.0226  0.0000  0.0000  0.0000  0.0000
   6. Cl 1 (s)      0.0000  0.0000  0.3245  0.1476  0.0000  0.0000  0.0000  0.0000
   7. Cl 1 (px)     0.1322  0.0000  0.0000  0.0000  0.1010  0.0000  0.0000  0.0000
   8. Cl 1 (py)     0.0000  0.1322  0.0000  0.0000  0.0000  0.1010  0.0000  0.0000
   9. Cl 1 (pz)     0.0000  0.0000 -0.3800 -0.2141  0.0000  0.0000  0.0000  0.0000
  10. Cl 1 (s)      0.0000  0.0000  0.3411  0.0772  0.0000  0.0000  0.0000  0.0000
  11. Cl 1 (px)     0.2923  0.0000  0.0000  0.0000  0.1145  0.0000  0.0000  0.0000
  12. Cl 1 (py)     0.0000  0.2923  0.0000  0.0000  0.0000  0.1145  0.0000  0.0000
  13. Cl 1 (pz)     0.0000  0.0000 -0.2771 -0.0206  0.0000  0.0000  0.0000  0.0000
  14. Cl 1 (d5)     0.0000  0.0000  0.2196  0.2319  0.0000  0.0000  0.0000  0.0000
  15. Cl 1 (d2)    -0.1447  0.0000  0.0000  0.0000 -0.1584  0.0000  0.0000  0.0000
  16. Cl 1 (d3)     0.0000 -0.1447  0.0000  0.0000  0.0000 -0.1584  0.0000  0.0000
  17. Cl 1 (d4)     0.0000  0.0000  0.0000  0.0000  0.0000  0.0000  0.0248  0.0000
  18. Cl 1 (d1)     0.0000  0.0000  0.0000  0.0000  0.0000  0.0000  0.0000  0.0248
  19.  F 2 (s)      0.0000  0.0000  0.0000  0.0000  0.0000  0.0000  0.0000  0.0000
  20.  F 2 (s)      0.0000  0.0000  0.0000  0.0000  0.0000  0.0000  0.0000  0.0000
  21.  F 2 (px)     0.4995  0.0000  0.0000  0.0000  0.0000  0.0000  0.0000  0.0000
  22.  F 2 (py)     0.0000  0.4995  0.0000  0.0000  0.0000  0.0000  0.0000  0.0000
  23.  F 2 (pz)     0.0000  0.0000  0.4995  0.0000  0.0000  0.0000  0.0000  0.0000
  24.  F 2 (s)      0.0000  0.0000  0.0000  0.0000  0.0000  0.0000  0.0000  0.0000
  25.  F 2 (px)     1.0000  0.0000  0.0000  0.0000  0.0000  0.0000  0.0000  0.0000
  26.  F 2 (py)     0.0000  1.0000  0.0000  0.0000  0.0000  0.0000  0.0000  0.0000
  27.  F 2 (pz)     0.0000  0.0000  1.0000  0.0000  0.0000  0.0000  0.0000  0.0000
  28.  F 2 (d5)     0.0000  0.0000  0.0000  1.0000  0.0000  0.0000  0.0000  0.0000
  29.  F 2 (d2)     0.0000  0.0000  0.0000  0.0000  1.0000  0.0000  0.0000  0.0000
  30.  F 2 (d3)     0.0000  0.0000  0.0000  0.0000  0.0000  1.0000  0.0000  0.0000
  31.  F 2 (d4)     0.0000  0.0000  0.0000  0.0000  0.0000  0.0000  1.0000  0.0000
  32.  F 2 (d1)     0.0000  0.0000  0.0000  0.0000  0.0000  0.0000  0.0000  1.0000
  33.  F 3 (s)      0.0000  0.0009  0.0008  0.0000  0.0000  0.0000  0.0000  0.0000
  34.  F 3 (s)      0.0000  0.0118  0.0105  0.0002  0.0000  0.0010 -0.0005  0.0000
  35.  F 3 (px)     0.0022  0.0000  0.0000  0.0000  0.0002  0.0000  0.0000  0.0002
  36.  F 3 (py)     0.0000 -0.0110 -0.0118 -0.0005  0.0000 -0.0016  0.0008  0.0000
  37.  F 3 (pz)     0.0000 -0.0118 -0.0083 -0.0001  0.0000 -0.0014  0.0009  0.0000
  38.  F 3 (s)      0.0000  0.0660  0.0590  0.0046  0.0000  0.0239 -0.0134  0.0000
  39.  F 3 (px)     0.0340  0.0000  0.0000  0.0000  0.0123  0.0000  0.0000  0.0138
  40.  F 3 (py)     0.0000 -0.0940 -0.1143 -0.0203  0.0000 -0.0517  0.0220  0.0000
  41.  F 3 (pz)     0.0000 -0.1143 -0.0681  0.0032  0.0000 -0.0434  0.0320  0.0000
  42.  F 3 (d5)     0.0000  0.0203 -0.0032 -0.0045  0.0000  0.0034 -0.0057  0.0000
  43.  F 3 (d2)    -0.0123  0.0000  0.0000  0.0000 -0.0030  0.0000  0.0000 -0.0039
  44.  F 3 (d3)     0.0000  0.0517  0.0434  0.0034  0.0000  0.0222 -0.0126  0.0000
  45.  F 3 (d4)     0.0000 -0.0220 -0.0320 -0.0057  0.0000 -0.0126  0.0054  0.0000
  46.  F 3 (d1)    -0.0138  0.0000  0.0000  0.0000 -0.0039  0.0000  0.0000 -0.0039
  47.  F 4 (s)      0.0000 -0.0009  0.0008  0.0000  0.0000  0.0000  0.0000  0.0000
  48.  F 4 (s)      0.0000 -0.0118  0.0105  0.0002  0.0000 -0.0010 -0.0005  0.0000
  49.  F 4 (px)     0.0022  0.0000  0.0000  0.0000  0.0002  0.0000  0.0000 -0.0002
  50.  F 4 (py)     0.0000 -0.0110  0.0118  0.0005  0.0000 -0.0016 -0.0008  0.0000
  51.  F 4 (pz)     0.0000  0.0118 -0.0083 -0.0001  0.0000  0.0014  0.0009  0.0000
  52.  F 4 (s)      0.0000 -0.0660  0.0590  0.0046  0.0000 -0.0239 -0.0134  0.0000
  53.  F 4 (px)     0.0340  0.0000  0.0000  0.0000  0.0123  0.0000  0.0000 -0.0138
  54.  F 4 (py)     0.0000 -0.0940  0.1143  0.0203  0.0000 -0.0517 -0.0220  0.0000
  55.  F 4 (pz)     0.0000  0.1143 -0.0681  0.0032  0.0000  0.0434  0.0320  0.0000
  56.  F 4 (d5)     0.0000 -0.0203 -0.0032 -0.0045  0.0000 -0.0034 -0.0057  0.0000
  57.  F 4 (d2)    -0.0123  0.0000  0.0000  0.0000 -0.0030  0.0000  0.0000  0.0039
  58.  F 4 (d3)     0.0000  0.0517 -0.0434 -0.0034  0.0000  0.0222  0.0126  0.0000
  59.  F 4 (d4)     0.0000  0.0220 -0.0320 -0.0057  0.0000  0.0126  0.0054  0.0000
  60.  F 4 (d1)     0.0138  0.0000  0.0000  0.0000  0.0039  0.0000  0.0000 -0.0039

           AO         33      34      35      36      37      38      39      40
      ------------ ------- ------- ------- ------- ------- ------- ------- -------
   1. Cl 1 (s)      0.0000  0.0000  0.0000  0.0000  0.0000  0.0016  0.0000 -0.0062
   2. Cl 1 (s)      0.0000  0.0001  0.0000 -0.0002  0.0000  0.0160  0.0000 -0.0551
   3. Cl 1 (px)     0.0000  0.0000  0.0000  0.0000  0.0000  0.0000  0.0065  0.0000
   4. Cl 1 (py)     0.0000  0.0002  0.0000 -0.0005  0.0000  0.0126  0.0000 -0.0373
   5. Cl 1 (pz)     0.0000  0.0000  0.0000  0.0000  0.0000 -0.0008  0.0000  0.0026
   6. Cl 1 (s)      0.0029  0.0310  0.0000 -0.0401  0.0024  0.1363  0.0000 -0.2823
   7. Cl 1 (px)     0.0000  0.0000  0.0137  0.0000  0.0000  0.0000  0.1083  0.0000
   8. Cl 1 (py)     0.0082  0.0709  0.0000 -0.0818  0.0058  0.2099  0.0000 -0.3514
   9. Cl 1 (pz)    -0.0005 -0.0043  0.0000  0.0058  0.0133 -0.0127  0.0000  0.0277
  10. Cl 1 (s)      0.0201  0.1229  0.0000 -0.0671  0.0040  0.2927  0.0000 -0.3234
[...]
                                         0.9478  0.0170  0.0064 -0.0017  0.0000
                                         0.0000  0.0013  0.0428  0.0246
  25. (0.08071) RY ( 1)Cl  1            s(  8.03%)p 1.38( 11.10%)d10.07( 80.87%)
                                         0.0000  0.0000 -0.0575  0.2774  0.0000
                                         0.0000  0.0000  0.0000  0.2143 -0.0074
                                         0.0000  0.0475  0.2505  0.0000  0.0000
                                        -0.0075  0.6800  0.5884
  26. (0.00742) RY ( 2)Cl  1            s(  0.00%)p 1.00(  3.74%)d25.76( 96.26%)
                                         0.0000  0.0000 -0.0001  0.0003  0.0000
                                         0.0000  0.0000  0.0000 -0.0452 -0.1879
                                         0.0000  0.0001  0.0003  0.0000  0.0000
                                        -0.9811  0.0006  0.0006
  27. (0.00451) RY ( 3)Cl  1            s(  0.00%)p 0.00(  0.00%)d 1.00(100.00%)
                                         0.0000  0.0000  0.0000  0.0000  0.0000
                                         0.0000  0.0000  0.0000  0.0000  0.0000
                                         0.0000  0.0000  0.0000  1.0000  0.0000
                                         0.0000  0.0000  0.0000
  28. (0.00351) RY ( 4)Cl  1            s( 19.56%)p 2.28( 44.64%)d 1.83( 35.80%)
                                         0.0000  0.0000  0.0264  0.4415  0.0000
                                         0.0000  0.0000  0.0000  0.0007  0.0004
                                         0.0000 -0.1210 -0.6571  0.0000  0.0000
                                        -0.0002  0.4312 -0.4147
  29. (0.00272) RY ( 5)Cl  1            s(  0.00%)p 1.00(  6.00%)d15.65( 94.00%)
                                         0.0000  0.0000  0.0000  0.0000  0.0000
                                        -0.0026  0.2450  0.0000  0.0000  0.0000
                                         0.0000  0.0000  0.0000  0.0000  0.9695
                                         0.0000  0.0000  0.0000
  30. (0.00068) RY ( 6)Cl  1            s(  0.00%)p 1.00( 96.39%)d 0.04(  3.61%)
                                         0.0000  0.0000 -0.0002  0.0024  0.0000
                                         0.0000  0.0000  0.0000 -0.0484 -0.9806
                                         0.0000  0.0001  0.0013  0.0000  0.0000
                                         0.1901  0.0030  0.0025
  31. (0.00006) RY ( 7)Cl  1            s( 50.12%)p 0.04(  2.09%)d 0.95( 47.79%)
  32. (0.00005) RY ( 8)Cl  1            s( 21.86%)p 2.21( 48.21%)d 1.37( 29.93%)
  33. (0.00003) RY ( 9)Cl  1            s(  0.00%)p 1.00( 94.00%)d 0.06(  6.00%)
  34. (0.00078) RY ( 1) F  2            s( 60.09%)p 0.61( 36.63%)d 0.05(  3.28%)
                                         0.0000  0.0075  0.7751  0.0000  0.0000
                                         0.0000  0.0000  0.0139 -0.6051  0.0000
                                         0.0000  0.0000 -0.1769 -0.0390
  35. (0.00054) RY ( 2) F  2            s(  0.00%)p 1.00( 61.31%)d 0.63( 38.69%)
                                         0.0000  0.0000  0.0000  0.0219  0.7827
                                         0.0000  0.0000  0.0000  0.0000  0.0000
                                        -0.6220  0.0000  0.0000  0.0000
  36. (0.00043) RY ( 3) F  2            s(  0.00%)p 1.00( 85.38%)d 0.17( 14.62%)
                                         0.0000  0.0000  0.0000  0.0000  0.0000
                                        -0.0040  0.9240  0.0000  0.0000  0.0000
                                         0.0000  0.3824  0.0000  0.0000
  37. (0.00011) RY ( 4) F  2            s(  0.00%)p 1.00( 14.71%)d 5.80( 85.29%)
                                         0.0000  0.0000  0.0000  0.0000  0.0000
                                        -0.0304 -0.3823  0.0000  0.0000  0.0000
                                         0.0000  0.9235  0.0000  0.0000
  38. (0.00004) RY ( 5) F  2            s(  3.28%)p 7.07( 23.21%)d22.38( 73.51%)
  39. (0.00003) RY ( 6) F  2            s(  0.00%)p 0.00(  0.00%)d 1.00(100.00%)
  40. (0.00002) RY ( 7) F  2            s( 19.31%)p 1.31( 25.26%)d 2.87( 55.44%)
  41. (0.00000) RY ( 8) F  2            s(  0.00%)p 1.00( 38.77%)d 1.58( 61.23%)
  42. (0.00000) RY ( 9) F  2            s( 17.35%)p 0.88( 15.26%)d 3.88( 67.38%)
  43. (0.00152) RY ( 1) F  3            s( 60.75%)p 0.63( 38.49%)d 0.01(  0.76%)
                                         0.0000  0.0063  0.7794  0.0000  0.0000
                                        -0.0133  0.6045 -0.0020 -0.1388  0.0000
                                         0.0000 -0.0301 -0.0644 -0.0501
  44. (0.00033) RY ( 2) F  3            s(  0.00%)p 1.00( 77.24%)d 0.29( 22.76%)
                                         0.0000  0.0000  0.0000  0.0178  0.8787
                                         0.0000  0.0000  0.0000  0.0000  0.4731
                                        -0.0613  0.0000  0.0000  0.0000
  45. (0.00017) RY ( 3) F  3            s(  1.31%)p74.23( 97.54%)d 0.87(  1.14%)
                                         0.0000 -0.0008  0.1146  0.0000  0.0000
                                         0.0012  0.0683  0.0038  0.9853  0.0000
                                         0.0000 -0.0674  0.0004 -0.0830
  46. (0.00005) RY ( 4) F  3            s(  1.03%)p 5.63(  5.79%)d90.70( 93.19%)
  47. (0.00004) RY ( 5) F  3            s(  0.00%)p 1.00( 22.53%)d 3.44( 77.47%)
  48. (0.00001) RY ( 6) F  3            s(  6.98%)p 2.73( 19.06%)d10.60( 73.96%)
  49. (0.00001) RY ( 7) F  3            s(  0.00%)p 1.00(  0.29%)d99.99( 99.71%)
  50. (0.00000) RY ( 8) F  3            s(  3.39%)p 1.34(  4.55%)d27.14( 92.05%)
  51. (0.00000) RY ( 9) F  3            s( 26.55%)p 1.31( 34.87%)d 1.45( 38.58%)
  52. (0.00149) RY ( 1) F  4            s( 60.73%)p 0.63( 38.51%)d 0.01(  0.77%)
                                         0.0000  0.0075  0.7792  0.0000  0.0000
                                         0.0170 -0.6039 -0.0021 -0.1415  0.0000
                                         0.0000  0.0318 -0.0643 -0.0503
  53. (0.00033) RY ( 2) F  4            s(  0.00%)p 1.00( 77.24%)d 0.29( 22.76%)
                                         0.0000  0.0000  0.0000  0.0178  0.8787
                                         0.0000  0.0000  0.0000  0.0000 -0.4731
                                        -0.0613  0.0000  0.0000  0.0000
  54. (0.00017) RY ( 3) F  4            s(  1.37%)p71.28( 97.43%)d 0.88(  1.20%)
                                         0.0000 -0.0006  0.1169  0.0000  0.0000
                                        -0.0007 -0.0692  0.0037  0.9846  0.0000
                                         0.0000  0.0709  0.0004 -0.0838
  55. (0.00005) RY ( 4) F  4            s(  0.99%)p 5.96(  5.93%)d93.63( 93.08%)
  56. (0.00004) RY ( 5) F  4            s(  0.00%)p 1.00( 22.53%)d 3.44( 77.47%)
  57. (0.00001) RY ( 6) F  4            s(  7.00%)p 2.72( 19.02%)d10.57( 73.98%)
  58. (0.00001) RY ( 7) F  4            s(  0.00%)p 1.00(  0.29%)d99.99( 99.71%)
  59. (0.00000) RY ( 8) F  4            s( 26.66%)p 1.31( 35.02%)d 1.44( 38.32%)
  60. (0.00000) RY ( 9) F  4            s(  3.26%)p 1.35(  4.41%)d28.29( 92.33%)


 NHO DIRECTIONALITY AND BOND BENDING (deviation from line of nuclear centers at
                                      the position of maximum hybrid amplitude)

         [Thresholds for printing:  angular deviation  >  1.0 degree]
                                    p- or d-character  > 25.0%
                                    orbital occupancy  >  0.10e

                        Line of Centers        Hybrid 1             Hybrid 2
                        ---------------  -------------------  ------------------
           NBO            Theta   Phi    Theta   Phi    Dev   Theta   Phi    Dev
 ===============================================================================
   9. LP ( 1)Cl  1          --     --     90.3  180.0   --      --     --    --
  12. LP ( 2) F  2          --     --     89.8  180.0   --      --     --    --
  13. LP ( 3) F  2          --     --     89.8   90.0   --      --     --    --
  15. LP ( 2) F  3          --     --     90.0  180.2   --      --     --    --
  16. LP ( 3) F  3          --     --      2.5   90.0   --      --     --    --
  18. LP ( 2) F  4          --     --     90.0    0.2   --      --     --    --
  19. LP ( 3) F  4          --     --      2.5  270.0   --      --     --    --
  20. LP ( 4) F  4          --     --     90.3   90.0   --      --     --    --
  21. BD ( 1)Cl  1- F  2  180.0    0.0   173.0  270.0   7.0     --     --    --
  22. BD ( 1)Cl  1- F  3   93.5   90.0    95.7   90.0   2.3    90.3  270.0   3.8


 3-Center, 4-Electron A:-B-:C Hyperbonds (A-B :C <=> A: B-C)
              [threshold for detection: 33.3%]

                                                  NBOs       3-center hybrids
                                              -------------  ----------------
       Hyperbond A:-B-:C   %A-B/%B-C   occ    BD(A-B) LP(C)  h(A)  h(B)  h(C)
      -------------------  ---------  ------  ------- -----  ----  ----  ----
   1.  F  3:-Cl  1-: F  4  59.7/40.3  3.8533      22     20    23    24    20


 SECOND ORDER PERTURBATION THEORY ANALYSIS OF FOCK MATRIX IN NBO BASIS

     Threshold for printing:   0.50 kcal/mol
    (Intermolecular threshold: 0.05 kcal/mol)
                                                          E(2) E(NL)-E(L) F(L,NL)
      Donor (L) NBO              Acceptor (NL) NBO      kcal/mol   a.u.    a.u.
 ===============================================================================

 within unit  1
    9. LP ( 1)Cl  1            35. RY ( 2) F  2            0.75    2.30   0.037
   10. LP ( 2)Cl  1            23. BD*( 1)Cl  1- F  2      1.87    1.17   0.042
   10. LP ( 2)Cl  1            24. BD*( 1)Cl  1- F  3      3.09    1.15   0.053
   10. LP ( 2)Cl  1            25. RY ( 1)Cl  1            1.20    2.10   0.045
   10. LP ( 2)Cl  1            43. RY ( 1) F  3            1.61    3.31   0.065
   11. LP ( 1) F  2            24. BD*( 1)Cl  1- F  3      0.84    1.56   0.032
   12. LP ( 2) F  2            29. RY ( 5)Cl  1            2.90    1.70   0.063
   13. LP ( 3) F  2            24. BD*( 1)Cl  1- F  3      8.99    0.80   0.076
   13. LP ( 3) F  2            26. RY ( 2)Cl  1            2.35    1.74   0.057
   15. LP ( 2) F  3            27. RY ( 3)Cl  1            2.27    1.66   0.055
   16. LP ( 3) F  3            23. BD*( 1)Cl  1- F  2      6.82    0.74   0.063
   16. LP ( 3) F  3            26. RY ( 2)Cl  1            2.53    1.67   0.058
   21. BD ( 1)Cl  1- F  2      24. BD*( 1)Cl  1- F  3      5.78    1.08   0.070
   21. BD ( 1)Cl  1- F  2      25. RY ( 1)Cl  1            0.95    2.02   0.039
   22. BD ( 1)Cl  1- F  3      23. BD*( 1)Cl  1- F  2      2.32    0.95   0.042
   22. BD ( 1)Cl  1- F  3      24. BD*( 1)Cl  1- F  3      2.13    0.93   0.040
   22. BD ( 1)Cl  1- F  3      25. RY ( 1)Cl  1            1.39    1.88   0.046

 from unit  1 to unit  2
    9. LP ( 1)Cl  1            53. RY ( 2) F  4            0.47    2.28   0.029
   10. LP ( 2)Cl  1            52. RY ( 1) F  4            1.64    3.31   0.066
   14. LP ( 1) F  3            52. RY ( 1) F  4            0.05    3.59   0.012
   21. BD ( 1)Cl  1- F  2      52. RY ( 1) F  4            0.36    3.24   0.030
   21. BD ( 1)Cl  1- F  2      54. RY ( 3) F  4            0.14    2.62   0.017
   22. BD ( 1)Cl  1- F  3      52. RY ( 1) F  4            0.87    3.09   0.046

 from unit  2 to unit  1
   17. LP ( 1) F  4            23. BD*( 1)Cl  1- F  2      2.26    1.44   0.051
   17. LP ( 1) F  4            24. BD*( 1)Cl  1- F  3     14.19    1.43   0.127
   17. LP ( 1) F  4            25. RY ( 1)Cl  1            1.08    2.38   0.045
   17. LP ( 1) F  4            30. RY ( 6)Cl  1            0.31    2.06   0.022
   17. LP ( 1) F  4            43. RY ( 1) F  3            0.05    3.59   0.012
   18. LP ( 2) F  4            27. RY ( 3)Cl  1            2.27    1.66   0.055
   19. LP ( 3) F  4            23. BD*( 1)Cl  1- F  2      4.18    0.74   0.050
   19. LP ( 3) F  4            24. BD*( 1)Cl  1- F  3      6.12    0.72   0.059
   19. LP ( 3) F  4            25. RY ( 1)Cl  1            0.36    1.67   0.022
   19. LP ( 3) F  4            26. RY ( 2)Cl  1            2.53    1.67   0.058
   19. LP ( 3) F  4            28. RY ( 4)Cl  1            0.36    1.28   0.019
   19. LP ( 3) F  4            36. RY ( 3) F  2            0.11    2.34   0.014
   20. LP ( 4) F  4            23. BD*( 1)Cl  1- F  2     37.60    0.69   0.144
   20. LP ( 4) F  4            24. BD*( 1)Cl  1- F  3    167.07    0.67   0.300
   20. LP ( 4) F  4            25. RY ( 1)Cl  1           48.64    1.62   0.251
   20. LP ( 4) F  4            26. RY ( 2)Cl  1            0.30    1.62   0.020
   20. LP ( 4) F  4            28. RY ( 4)Cl  1            0.84    1.24   0.029
   20. LP ( 4) F  4            30. RY ( 6)Cl  1            0.81    1.31   0.029
   20. LP ( 4) F  4            31. RY ( 7)Cl  1            0.63    1.62   0.029
   20. LP ( 4) F  4            32. RY ( 8)Cl  1            0.56    1.37   0.025
   20. LP ( 4) F  4            43. RY ( 1) F  3            0.10    2.83   0.015

 within unit  2
   20. LP ( 4) F  4            57. RY ( 6) F  4            1.10    2.87   0.050


 NATURAL BOND ORBITALS (Summary):

                                                     Principal Delocalizations
           NBO                 Occupancy    Energy   (geminal,vicinal,remote)
 ===============================================================================
 Molecular unit  1  (F2Cl)
 ------ Lewis --------------------------------------
    1. CR ( 1)Cl  1             2.00000   -92.35182
    2. CR ( 2)Cl  1             2.00000   -23.61673
    3. CR ( 3)Cl  1             2.00000    -8.29819
    4. CR ( 4)Cl  1             1.99999    -8.30428
    5. CR ( 5)Cl  1             1.99999    -8.30267
    6. CR ( 1) F  2             2.00000   -26.41626
    7. CR ( 1) F  3             2.00000   -26.29544
    9. LP ( 1)Cl  1             1.99883    -0.62801  35(v),53(r)
   10. LP ( 2)Cl  1             1.99814    -1.09375  24(g),23(g),52(r),43(v)
                                                     25(g)
   11. LP ( 1) F  2             1.99981    -1.50112  24(v)
   12. LP ( 2) F  2             1.99726    -0.74554  29(v)
   13. LP ( 3) F  2             1.98517    -0.73874  24(v),26(v)
   14. LP ( 1) F  3             1.99947    -1.37091  52(r)
   15. LP ( 2) F  3             1.99767    -0.64337  27(v)
   16. LP ( 3) F  3             1.97541    -0.66476  23(v),26(v)
   21. BD ( 1)Cl  1- F  2       1.98751    -1.01814  24(g),25(g),52(r),54(r)
   22. BD ( 1)Cl  1- F  3       1.98948    -0.87576  23(g),24(g),25(g),52(r)
 ------ non-Lewis ----------------------------------
   23. BD*( 1)Cl  1- F  2       0.12904     0.07316
   24. BD*( 1)Cl  1- F  3       0.28556     0.05729
   25. RY ( 1)Cl  1             0.08071     1.00601
   26. RY ( 2)Cl  1             0.00742     1.00257
   27. RY ( 3)Cl  1             0.00451     1.01378
   28. RY ( 4)Cl  1             0.00351     0.61954
   29. RY ( 5)Cl  1             0.00272     0.95938
   30. RY ( 6)Cl  1             0.00068     0.68867
   31. RY ( 7)Cl  1             0.00006     1.00204
   32. RY ( 8)Cl  1             0.00005     0.75299
   33. RY ( 9)Cl  1             0.00003     0.59134
   34. RY ( 1) F  2             0.00078     2.26345
   35. RY ( 2) F  2             0.00054     1.66842
   36. RY ( 3) F  2             0.00043     1.67074
   37. RY ( 4) F  2             0.00011     1.97541
   38. RY ( 5) F  2             0.00004     1.92713
   39. RY ( 6) F  2             0.00003     2.05693
   40. RY ( 7) F  2             0.00002     2.08596
   41. RY ( 8) F  2             0.00000     1.89487
   42. RY ( 9) F  2             0.00000     2.01229
   43. RY ( 1) F  3             0.00152     2.21841
   44. RY ( 2) F  3             0.00033     1.65495
   45. RY ( 3) F  3             0.00017     1.60123
   46. RY ( 4) F  3             0.00005     2.16316
   47. RY ( 5) F  3             0.00004     2.04616
   48. RY ( 6) F  3             0.00001     2.25256
   49. RY ( 7) F  3             0.00001     2.13173
   50. RY ( 8) F  3             0.00000     2.12484
   51. RY ( 9) F  3             0.00000     1.83181
          -------------------------------
                 Total Lewis   33.92873  ( 98.4952%)
           Valence non-Lewis    0.41460  (  1.2036%)
           Rydberg non-Lewis    0.10376  (  0.3012%)
          -------------------------------
               Total unit  1   34.44708  (100.0000%)
              Charge unit  1    0.55292

 Molecular unit  2  (F)
 ------ Lewis --------------------------------------
    8. CR ( 1) F  4             2.00000   -26.29544
   17. LP ( 1) F  4             1.99947    -1.37091  24(r),23(r),25(r),30(r)
                                                     43(r)
   18. LP ( 2) F  4             1.99767    -0.64337  27(r)
   19. LP ( 3) F  4             1.97541    -0.66476  24(r),23(r),26(r),28(r)
                                                     25(r),36(r)
   20. LP ( 4) F  4             1.57827    -0.61659  24(r),25(r),23(r),57(g)
                                                     28(r),30(r),31(r),32(r)
                                                     26(r),43(r)
 ------ non-Lewis ----------------------------------
   52. RY ( 1) F  4             0.00149     2.21811
   53. RY ( 2) F  4             0.00033     1.65495
   54. RY ( 3) F  4             0.00017     1.60223
   55. RY ( 4) F  4             0.00005     2.16306
   56. RY ( 5) F  4             0.00004     2.04616
   57. RY ( 6) F  4             0.00001     2.25199
   58. RY ( 7) F  4             0.00001     2.13173
   59. RY ( 8) F  4             0.00000     1.83060
   60. RY ( 9) F  4             0.00000     2.12612
          -------------------------------
                 Total Lewis    9.55082  ( 99.9780%)
           Valence non-Lewis    0.00000  (  0.0000%)
           Rydberg non-Lewis    0.00210  (  0.0220%)
          -------------------------------
               Total unit  2    9.55292  (100.0000%)
              Charge unit  2   -0.55292

 $CHOOSE
   LONE 1 2 2 3 3 3 4 4 END
   BOND S 1 2 S 1 3 END
 $END

 NBO analysis completed in 0.89 CPU seconds (1 wall second)
 Maximum scratch memory used by NBO was 383413 words (2.93 MB)
 Maximum scratch memory used by G16NBO was 13934 words (0.11 MB)

 Opening RunExU unformatted file "/cluster/work/users/beto93/mol72/Gau-1469015.EUF"
 Read unf file /cluster/work/users/beto93/mol72/Gau-1469015.EUF:
 Label Gaussian matrix elements                                         IVers= 2 NLab= 2 Version=ES64L-G16RevC.01
 Title mol72-NBO                                                       
 NAtoms=     4 NBasis=    60 NBsUse=    60 ICharg=     0 Multip=     1 NE=    44 Len12L=8 Len4L=8 IOpCl= 0 ICGU=111
 GAUSSIAN SCALARS                    NI= 1 NR= 1 NTot=       1 LenBuf=    2 NRI=1 N=    1000
 NPA CHARGES                         NI= 0 NR= 1 NTot=       4 LenBuf= 4000 NRI=1 N=       4
 Recovered energy= -757.474624857     dipole=      0.000000000000      0.000000000000      0.366126793926
 Unable to Open any file for archive entry.
 1\1\GINC-C3-16\SP\RHF\6-31G(d)\Cl1F3\BETO93\18-Nov-2024\0\\#RHF/6-31G*
  int=nobasistransform Symmetry=None 5D 7F Pop=NBO7Read\\mol72-NBO\\0,1
 \Cl,0,0.,0.,0.376796\F,0,0.,0.,-1.258346\F,0,0.,1.714544,0.27331\F,0,0
 .,-1.714544,0.27331\\Version=ES64L-G16RevC.01\HF=-757.4746249\RMSD=4.2
 13e-09\Dipole=0.,0.,0.3661268\Quadrupole=1.9732193,-4.4896693,2.51645,
 0.,0.,0.\PG=Unknown\\@
 The archive entry for this job was punched.


 HE WHO LAUGHS LAST PROBABLY DIDN'T GET THE JOKE.
 Job cpu time:       0 days  0 hours  0 minutes 10.7 seconds.
 Elapsed time:       0 days  0 hours  0 minutes  3.5 seconds.
 File lengths (MBytes):  RWF=     10 Int=      0 D2E=      0 Chk=      1 Scr=      1
 Normal termination of Gaussian 16 at Mon Nov 18 16:40:43 2024.
