 Entering Gaussian System, Link 0=g16
 Initial command:
 /cluster/software/Gaussian/g16_C.01/l1.exe "/cluster/work/users/beto93/mol23/Gau-1468604.inp" -scrdir="/cluster/work/users/beto93/mol23/"
 Entering Link 1 = /cluster/software/Gaussian/g16_C.01/l1.exe PID=   1468605.
  
 Copyright (c) 1988-2019, Gaussian, Inc.  All Rights Reserved.
  
 This is part of the Gaussian(R) 16 program.  It is based on
 the Gaussian(R) 09 system (copyright 2009, Gaussian, Inc.),
 the Gaussian(R) 03 system (copyright 2003, Gaussian, Inc.),
 the Gaussian(R) 98 system (copyright 1998, Gaussian, Inc.),
 the Gaussian(R) 94 system (copyright 1995, Gaussian, Inc.),
 the Gaussian 92(TM) system (copyright 1992, Gaussian, Inc.),
 the Gaussian 90(TM) system (copyright 1990, Gaussian, Inc.),
 the Gaussian 88(TM) system (copyright 1988, Gaussian, Inc.),
 the Gaussian 86(TM) system (copyright 1986, Carnegie Mellon
 University), and the Gaussian 82(TM) system (copyright 1983,
 Carnegie Mellon University). Gaussian is a federally registered
 trademark of Gaussian, Inc.
  
 This software contains proprietary and confidential information,
 including trade secrets, belonging to Gaussian, Inc.
  
 This software is provided under written license and may be
 used, copied, transmitted, or stored only in accord with that
 written license.
  
 The following legend is applicable only to US Government
 contracts under FAR:
  
                    RESTRICTED RIGHTS LEGEND
  
 Use, reproduction and disclosure by the US Government is
 subject to restrictions as set forth in subparagraphs (a)
 and (c) of the Commercial Computer Software - Restricted
 Rights clause in FAR 52.227-19.
  
 Gaussian, Inc.
 340 Quinnipiac St., Bldg. 40, Wallingford CT 06492
  
  
 ---------------------------------------------------------------
 Warning -- This program may not be used in any manner that
 competes with the business of Gaussian, Inc. or will provide
 assistance to any competitor of Gaussian, Inc.  The licensee
 of this program is prohibited from giving any competitor of
 Gaussian, Inc. access to this program.  By using this program,
 the user acknowledges that Gaussian, Inc. is engaged in the
 business of creating and licensing software in the field of
 computational chemistry and represents and warrants to the
 licensee that it is not a competitor of Gaussian, Inc. and that
 it will not use this program in any manner prohibited above.
 ---------------------------------------------------------------
  

 Cite this work as:
 Gaussian 16, Revision C.01,
 M. J. Frisch, G. W. Trucks, H. B. Schlegel, G. E. Scuseria, 
 M. A. Robb, J. R. Cheeseman, G. Scalmani, V. Barone, 
 G. A. Petersson, H. Nakatsuji, X. Li, M. Caricato, A. V. Marenich, 
 J. Bloino, B. G. Janesko, R. Gomperts, B. Mennucci, H. P. Hratchian, 
 J. V. Ortiz, A. F. Izmaylov, J. L. Sonnenberg, D. Williams-Young, 
 F. Ding, F. Lipparini, F. Egidi, J. Goings, B. Peng, A. Petrone, 
 T. Henderson, D. Ranasinghe, V. G. Zakrzewski, J. Gao, N. Rega, 
 G. Zheng, W. Liang, M. Hada, M. Ehara, K. Toyota, R. Fukuda, 
 J. Hasegawa, M. Ishida, T. Nakajima, Y. Honda, O. Kitao, H. Nakai, 
 T. Vreven, K. Throssell, J. A. Montgomery, Jr., J. E. Peralta, 
 F. Ogliaro, M. J. Bearpark, J. J. Heyd, E. N. Brothers, K. N. Kudin, 
 V. N. Staroverov, T. A. Keith, R. Kobayashi, J. Normand, 
 K. Raghavachari, A. P. Rendell, J. C. Burant, S. S. Iyengar, 
 J. Tomasi, M. Cossi, J. M. Millam, M. Klene, C. Adamo, R. Cammi, 
 J. W. Ochterski, R. L. Martin, K. Morokuma, O. Farkas, 
 J. B. Foresman, and D. J. Fox, Gaussian, Inc., Wallingford CT, 2019.
 
 ******************************************
 Gaussian 16:  ES64L-G16RevC.01  3-Jul-2019
                18-Nov-2024 
 ******************************************
 %LindaWorkers=c3-16-ib
 %NProcShared=4
 Will use up to    4 processors via shared memory.
 %mem=25GB
 %chk=mol23.chk
 SetLPE:    new flags="-opt 'Tsnet.Node.lindarsharg: ssh'  -nodelist 'c3-16-ib.saga' -env GAUSS_MDEF=3355443200 -env GAUSS_EXEDIR="/cluster/software/Gaussian/g16_C.01/bsd:/cluster/software/Gaussian/g16_C.01""
 Will use up to    1 processors via Linda.
 -----------------------------------------------------------------
 #RHF/6-31G* int=nobasistransform Symmetry=None 5D 7F Pop=NBO7Read
 -----------------------------------------------------------------
 1/38=1,163=2,172=1/1;
 2/12=2,15=3,17=6,18=5,40=1/2;
 3/5=1,6=6,7=1,8=11,11=1,25=1,30=1,60=-1,116=1/1,2,3;
 4//1;
 5/5=2,38=5/2;
 6/7=2,8=2,9=2,10=2,28=1,40=2,113=1,114=1,124=2103/1,12;
 99/5=1,9=1/99;
 ---------
 mol23-NBO
 ---------
 Symbolic Z-matrix:
 Charge =  0 Multiplicity = 1
 C                     0.        0.        0.60808 
 C                     0.        0.       -0.60808 
 H                     0.        0.       -1.67399 
 H                     0.        0.        1.67399 
 
                          Input orientation:                          
 ---------------------------------------------------------------------
 Center     Atomic      Atomic             Coordinates (Angstroms)
 Number     Number       Type             X           Y           Z
 ---------------------------------------------------------------------
      1          6           0        0.000000    0.000000    0.608080
      2          6           0        0.000000    0.000000   -0.608080
      3          1           0        0.000000    0.000000   -1.673990
      4          1           0        0.000000    0.000000    1.673990
 ---------------------------------------------------------------------
                    Distance matrix (angstroms):
                    1          2          3          4
     1  C    0.000000
     2  C    1.216160   0.000000
     3  H    2.282070   1.065910   0.000000
     4  H    1.065910   2.282070   3.347980   0.000000
 Symmetry turned off by external request.
 Stoichiometry    C2H2
 Rotational constants (GHZ):           0.0000000          34.7994587          34.7994587
 Standard basis: 6-31G(d) (5D, 7F)
    32 basis functions,    64 primitive gaussians,    34 cartesian basis functions
     7 alpha electrons        7 beta electrons
       nuclear repulsion energy        24.5625147338 Hartrees.
 NAtoms=    4 NActive=    4 NUniq=    4 SFac= 1.00D+00 NAtFMM=   60 NAOKFM=F Big=F
 Integral buffers will be    131072 words long.
 Raffenetti 1 integral format.
 Two-electron integral symmetry is turned off.
 One-electron integrals computed using PRISM.
 NBasis=    32 RedAO= T EigKep=  1.12D-03  NBF=    32
 NBsUse=    32 1.00D-06 EigRej= -1.00D+00 NBFU=    32
 ExpMin= 1.61D-01 ExpMax= 3.05D+03 ExpMxC= 4.57D+02 IAcc=3 IRadAn=         5 AccDes= 0.00D+00
 Harris functional with IExCor=  205 and IRadAn=       5 diagonalized for initial guess.
 HarFok:  IExCor=  205 AccDes= 0.00D+00 IRadAn=         5 IDoV= 1 UseB2=F ITyADJ=14
 ICtDFT=  3500011 ScaDFX=  1.000000  1.000000  1.000000  1.000000
 FoFCou: FMM=F IPFlag=           0 FMFlag=      100000 FMFlg1=           0
         NFxFlg=           0 DoJE=T BraDBF=F KetDBF=T FulRan=T
         wScrn=  0.000000 ICntrl=       500 IOpCl=  0 I1Cent=   200000004 NGrid=           0
         NMat0=    1 NMatS0=      1 NMatT0=    0 NMatD0=    1 NMtDS0=    0 NMtDT0=    0
 Symmetry not used in FoFCou.
 Keep R1 ints in memory in canonical form, NReq=970431.
 Requested convergence on RMS density matrix=1.00D-08 within 128 cycles.
 Requested convergence on MAX density matrix=1.00D-06.
 Requested convergence on             energy=1.00D-06.
 No special actions if energy rises.
 SCF Done:  E(RHF) =  -76.8151348775     A.U. after    9 cycles
            NFock=  9  Conv=0.36D-09     -V/T= 2.0022

 **********************************************************************

            Population analysis using the SCF Density.

 **********************************************************************

 Alpha  occ. eigenvalues --  -11.24157 -11.23819  -1.01551  -0.76122  -0.66967
 Alpha  occ. eigenvalues --   -0.39725  -0.39725
 Alpha virt. eigenvalues --    0.21272   0.21272   0.24656   0.29484   0.61106
 Alpha virt. eigenvalues --    0.65576   0.74951   0.74951   0.90377   0.90377
 Alpha virt. eigenvalues --    0.95304   1.05152   1.28630   1.53261   1.74323
 Alpha virt. eigenvalues --    1.78581   1.78581   1.82026   1.82026   2.24343
 Alpha virt. eigenvalues --    2.24343   2.81126   2.81126   2.81885   3.58040
          Condensed to atoms (all electrons):
               1          2          3          4
     1  C    4.846927   1.094481  -0.007984   0.350225
     2  C    1.094481   4.846927   0.350225  -0.007984
     3  H   -0.007984   0.350225   0.372742   0.001367
     4  H    0.350225  -0.007984   0.001367   0.372742
 Mulliken charges:
               1
     1  C   -0.283650
     2  C   -0.283650
     3  H    0.283650
     4  H    0.283650
 Sum of Mulliken charges =   0.00000
 Mulliken charges with hydrogens summed into heavy atoms:
               1
     1  C    0.000000
     2  C   -0.000000
 Electronic spatial extent (au):  <R**2>=             60.6977
 Charge=              0.0000 electrons
 Dipole moment (field-independent basis, Debye):
    X=              0.0000    Y=              0.0000    Z=              0.0000  Tot=              0.0000
 Quadrupole moment (field-independent basis, Debye-Ang):
   XX=            -13.4856   YY=            -13.4856   ZZ=             -6.4374
   XY=              0.0000   XZ=              0.0000   YZ=              0.0000
 Traceless Quadrupole moment (field-independent basis, Debye-Ang):
   XX=             -2.3494   YY=             -2.3494   ZZ=              4.6988
   XY=              0.0000   XZ=              0.0000   YZ=              0.0000
 Octapole moment (field-independent basis, Debye-Ang**2):
  XXX=              0.0000  YYY=              0.0000  ZZZ=             -0.0000  XYY=              0.0000
  XXY=              0.0000  XXZ=              0.0000  XZZ=             -0.0000  YZZ=              0.0000
  YYZ=              0.0000  XYZ=             -0.0000
 Hexadecapole moment (field-independent basis, Debye-Ang**3):
 XXXX=            -14.3509 YYYY=            -14.3509 ZZZZ=            -35.8179 XXXY=              0.0000
 XXXZ=              0.0000 YYYX=              0.0000 YYYZ=              0.0000 ZZZX=              0.0000
 ZZZY=              0.0000 XXYY=             -4.7836 XXZZ=            -11.8901 YYZZ=            -11.8901
 XXYZ=              0.0000 YYXZ=              0.0000 ZZXY=              0.0000
 N-N= 2.456251473381D+01 E-N=-2.279572538907D+02  KE= 7.664328391873D+01
 Running external command "gaunbo7 R"
         input file       "/cluster/work/users/beto93/mol23/Gau-1468605.EIn"
         output file      "/cluster/work/users/beto93/mol23/Gau-1468605.EOu"
         message file     "/cluster/work/users/beto93/mol23/Gau-1468605.EMs"
         fchk file        "/cluster/work/users/beto93/mol23/Gau-1468605.EFC"
         mat. el file     "/cluster/work/users/beto93/mol23/Gau-1468605.EUF"

 Writing WrtUnf unformatted file "/cluster/work/users/beto93/mol23/Gau-1468605.EUF"
 Gaussian matrix elements                                         Version   2 NLab=11 Len12L=8 Len4L=8
 Write SHELL TO ATOM MAP                   from file      0 offset           0 length                  12 to matrix element file.
 Write SHELL TYPES                         from file      0 offset           0 length                  12 to matrix element file.
 Write NUMBER OF PRIMITIVES PER SHELL      from file      0 offset           0 length                  12 to matrix element file.
 Write PRIMITIVE EXPONENTS                 from file      0 offset           0 length                  30 to matrix element file.
 Write CONTRACTION COEFFICIENTS            from file      0 offset           0 length                  30 to matrix element file.
 Write P(S=P) CONTRACTION COEFFICIENTS     from file      0 offset           0 length                  30 to matrix element file.
 Write COORDINATES OF EACH SHELL           from file      0 offset           0 length                  36 to matrix element file.
 Write BONDS PER ATOM                      from file      0 offset           0 length                   4 to matrix element file.
 Write BONDED ATOMS                        from file      0 offset           0 length                   6 to matrix element file.
 Write BOND TYPES                          from file      0 offset           0 length                   6 to matrix element file.
 Write ONIOM CHARGE/MULT                   from file      0 offset           0 length                  32 to matrix element file.
 Write ONIOM ATOM LAYERS                   from file      0 offset           0 length                   4 to matrix element file.
 Write ONIOM ATOM MODIFIERS                from file      0 offset           0 length                   4 to matrix element file.
 Write ONIOM ATOM TYPES                    from file      0 offset           0 length                   4 to matrix element file.
 Write ONIOM LINK ATOMS                    from file      0 offset           0 length                   4 to matrix element file.
 Write ONIOM LINK CHARGES                  from file      0 offset           0 length                   4 to matrix element file.
 Write ONIOM LINK DISTANCES                from file      0 offset           0 length                  16 to matrix element file.
 Write SYMINF INTS                         from file      0 offset           0 length                  26 to matrix element file.
 Write ROTTR TO SO                         from file      0 offset           0 length                  12 to matrix element file.
 Write GAUSSIAN SCALARS                    from file    501 offset           0 to matrix element file.
 Write OPTIMIZATION FLAGS                  from file      0 offset           0 length                   4 to matrix element file.
 Write INTEGER ISO                         from file      0 offset           0 length                   4 to matrix element file.
 Write INTEGER SPIN                        from file      0 offset           0 length                   4 to matrix element file.
 Write REAL ZEFFECTIVE                     from file      0 offset           0 length                   4 to matrix element file.
 Write REAL GFACTOR                        from file      0 offset           0 length                   4 to matrix element file.
 Write REAL ZNUCLEAR                       from file      0 offset           0 length                   4 to matrix element file.
 Write MULLIKEN CHARGES                    from file      0 offset           0 length                   4 to matrix element file.
 Write NUCLEAR GRADIENT                    from file  10584 offset           0 length                  12 to matrix element file.
 Array NUCLEAR FORCE CONSTANTS              on  file  10585 does not exist.
 Write ELECTRIC DIPOLE MOMENT              from file      0 offset           0 length                   3 to matrix element file.
 Write NON-ADIABATIC COUPLING              from file  10810 offset           0 length                  12 to matrix element file.
 Write FINITE EM FIELD                     from file  10521 offset           0 length                  35 to matrix element file.
 Write OVERLAP                             from file  10514 offset           0 length                 528 to matrix element file.
 Write CORE HAMILTONIAN ALPHA              from file  10515 offset           0 length                 528 to matrix element file.
 Write CORE HAMILTONIAN BETA               from file  10515 offset         528 length                 528 to matrix element file.
 Write KINETIC ENERGY                      from file  10516 offset           0 length                 528 to matrix element file.
 Write ORTHOGONAL BASIS                    from file  10685 offset           0 length                1024 to matrix element file.
 Write DIPOLE INTEGRALS                    from file  10518 offset           0 length                1584 to matrix element file.
 Array DIP VEL INTEGRALS                    on  file  10572 does not exist.
 Array R X DEL INTEGRALS                    on  file  10572 does not exist.
 Write ALPHA ORBITAL ENERGIES              from file      0 offset           0 length                  32 to matrix element file.
 Write ALPHA MO COEFFICIENTS               from file  10524 offset           0 length                1024 to matrix element file.
 Write ALPHA DENSITY MATRIX                from file      0 offset           0 length                 528 to matrix element file.
 Write ALPHA FOCK MATRIX                   from file  10536 offset           0 length                 528 to matrix element file.
 Write ENERGY-WEIGHTED DENSITY             from file  10571 offset           0 length                 528 to matrix element file.
 Write ALPHA SCF DENSITY MATRIX            from file      0 offset           0 length                 528 to matrix element file.
 No 2e integrals to process.
 Perform NBO analysis...executing G16NBO...

 *********************************** NBO 7.0 ***********************************
             N A T U R A L   A T O M I C   O R B I T A L   A N D
          N A T U R A L   B O N D   O R B I T A L   A N A L Y S I S
 **************************** Espen Tangen (S101595) ***************************
  (c) Copyright 1996-2021 Board of Regents of the University of Wisconsin System
      on behalf of the Theoretical Chemistry Institute.  All rights reserved.

          Cite this program [NBO 7.0.10 (8-Feb-2021)] as:

          NBO 7.0.  E. D. Glendening, J. K. Badenhoop, A. E. Reed,
          J. E. Carpenter, J. A. Bohmann, C. M. Morales, P. Karafiloglou,
          C. R. Landis, and F. Weinhold, Theoretical Chemistry Institute,
          University of Wisconsin, Madison, WI (2018)

       /NPA    / : Natural Population Analysis
       /AOPNAO / : Print the AO to PNAO transformation
       /AONAO  / : Print the AO to NAO transformation
       /AOMO   / : Print the MOs in the AO basis
       /BOAO   / : Print the AO bond-order matrix
       /DMAO   / : Print the AO density matrix
       /DMPNAO / : Print the PNAO density matrix
       /DMNAO  / : Print the NAO density matrix
       /DMMO   / : Print the MO density matrix
       /SAO    / : Print the AO overlap matrix
       /SPNAO  / : Print the PNAO overlap matrix
       /DETAIL / : Write details of NBO search
       /ARCHIVE/ : Write the archive file to lfn47
       /AOINFO / : Write AO information to lfn31
       /FILE   / : Set to mol23.gen*

 Filename set to mol23.gen1

 Job title: mol23-NBO


 MOs in the AO basis:

           AO          1       2       3       4       5       6       7       8
      ------------ ------- ------- ------- ------- ------- ------- ------- -------
   1.  C 1 (s)      0.7039  0.7048 -0.1704 -0.1092 -0.0014  0.0000  0.0000  0.0000
   2.  C 1 (s)      0.0154  0.0181  0.3157  0.2297  0.0184  0.0000  0.0000  0.0000
   3.  C 1 (px)     0.0000  0.0000  0.0000  0.0000  0.0000  0.3344  0.2121 -0.0756
   4.  C 1 (py)     0.0000  0.0000  0.0000  0.0000  0.0000 -0.2121  0.3344  0.3256
   5.  C 1 (pz)     0.0005 -0.0010 -0.1452  0.2014  0.3826  0.0000  0.0000  0.0000
   6.  C 1 (s)     -0.0045 -0.0174  0.2462  0.0968  0.0572  0.0000  0.0000  0.0000
   7.  C 1 (px)     0.0000  0.0000  0.0000  0.0000  0.0000  0.2316  0.1469 -0.1836
   8.  C 1 (py)     0.0000  0.0000  0.0000  0.0000  0.0000 -0.1469  0.2316  0.7901
   9.  C 1 (pz)    -0.0010  0.0068  0.0095  0.1690  0.1112  0.0000  0.0000  0.0000
  10.  C 1 (d5)     0.0011  0.0012  0.0243  0.0301  0.0094  0.0000  0.0000  0.0000
  11.  C 1 (d2)     0.0000  0.0000  0.0000  0.0000  0.0000 -0.0215 -0.0137 -0.0073
  12.  C 1 (d3)     0.0000  0.0000  0.0000  0.0000  0.0000  0.0137 -0.0215  0.0315
  13.  C 1 (d4)     0.0000  0.0000  0.0000  0.0000  0.0000  0.0000  0.0000  0.0000
  14.  C 1 (d1)     0.0000  0.0000  0.0000  0.0000  0.0000  0.0000  0.0000  0.0000
  15.  C 2 (s)      0.7039 -0.7048 -0.1704  0.1092 -0.0014  0.0000  0.0000  0.0000
  16.  C 2 (s)      0.0154 -0.0181  0.3157 -0.2297  0.0184  0.0000  0.0000  0.0000
  17.  C 2 (px)     0.0000  0.0000  0.0000  0.0000  0.0000  0.3344  0.2121  0.0756
  18.  C 2 (py)     0.0000  0.0000  0.0000  0.0000  0.0000 -0.2121  0.3344 -0.3256
  19.  C 2 (pz)    -0.0005 -0.0010  0.1452  0.2014 -0.3826  0.0000  0.0000  0.0000
  20.  C 2 (s)     -0.0045  0.0174  0.2462 -0.0968  0.0572  0.0000  0.0000  0.0000
  21.  C 2 (px)     0.0000  0.0000  0.0000  0.0000  0.0000  0.2316  0.1469  0.1836
  22.  C 2 (py)     0.0000  0.0000  0.0000  0.0000  0.0000 -0.1469  0.2316 -0.7901
  23.  C 2 (pz)     0.0010  0.0068 -0.0095  0.1690 -0.1112  0.0000  0.0000  0.0000
  24.  C 2 (d5)     0.0011 -0.0012  0.0243 -0.0301  0.0094  0.0000  0.0000  0.0000
  25.  C 2 (d2)     0.0000  0.0000  0.0000  0.0000  0.0000  0.0215  0.0137 -0.0073
  26.  C 2 (d3)     0.0000  0.0000  0.0000  0.0000  0.0000 -0.0137  0.0215  0.0315
  27.  C 2 (d4)     0.0000  0.0000  0.0000  0.0000  0.0000  0.0000  0.0000  0.0000
  28.  C 2 (d1)     0.0000  0.0000  0.0000  0.0000  0.0000  0.0000  0.0000  0.0000
  29.  H 3 (s)     -0.0009  0.0009  0.0731 -0.2116  0.2184  0.0000  0.0000  0.0000
  30.  H 3 (s)      0.0019 -0.0001 -0.0016 -0.0765  0.1430  0.0000  0.0000  0.0000
  31.  H 4 (s)     -0.0009 -0.0009  0.0731  0.2116  0.2184  0.0000  0.0000  0.0000
  32.  H 4 (s)      0.0019  0.0001 -0.0016  0.0765  0.1430  0.0000  0.0000  0.0000

           AO          9      10      11      12      13      14      15      16
      ------------ ------- ------- ------- ------- ------- ------- ------- -------
   1.  C 1 (s)      0.0000 -0.0867  0.0456 -0.1192 -0.0034  0.0000  0.0000  0.0000
   2.  C 1 (s)      0.0000  0.1979  0.0017 -0.1010  0.8311  0.0000  0.0000  0.0000
   3.  C 1 (px)     0.3256  0.0000  0.0000  0.0000  0.0000  0.5207  0.4767  0.0753
   4.  C 1 (py)     0.0756  0.0000  0.0000  0.0000  0.0000 -0.4767  0.5207 -0.8255
   5.  C 1 (pz)     0.0000  0.0759 -0.2554 -0.1853 -0.2044  0.0000  0.0000  0.0000
   6.  C 1 (s)      0.0000 -0.9285 -1.4202  6.7118 -0.4113  0.0000  0.0000  0.0000
   7.  C 1 (px)     0.7901  0.0000  0.0000  0.0000  0.0000 -0.4735 -0.4335 -0.1026
   8.  C 1 (py)     0.1836  0.0000  0.0000  0.0000  0.0000  0.4335 -0.4735  1.1252
   9.  C 1 (pz)     0.0000  2.2383 -0.8759 -5.2703  0.5448  0.0000  0.0000  0.0000
  10.  C 1 (d5)     0.0000 -0.0254  0.0054 -0.0351  0.0630  0.0000  0.0000  0.0000
  11.  C 1 (d2)     0.0315  0.0000  0.0000  0.0000  0.0000 -0.0521 -0.0477  0.0050
  12.  C 1 (d3)     0.0073  0.0000  0.0000  0.0000  0.0000  0.0477 -0.0521 -0.0554
  13.  C 1 (d4)     0.0000  0.0000  0.0000  0.0000  0.0000  0.0000  0.0000  0.0000
  14.  C 1 (d1)     0.0000  0.0000  0.0000  0.0000  0.0000  0.0000  0.0000  0.0000
  15.  C 2 (s)      0.0000  0.0867  0.0456  0.1192 -0.0034  0.0000  0.0000  0.0000
  16.  C 2 (s)      0.0000 -0.1979  0.0017  0.1010  0.8311  0.0000  0.0000  0.0000
  17.  C 2 (px)    -0.3256  0.0000  0.0000  0.0000  0.0000  0.5207  0.4767 -0.0753
  18.  C 2 (py)    -0.0756  0.0000  0.0000  0.0000  0.0000 -0.4767  0.5207  0.8255
  19.  C 2 (pz)     0.0000  0.0759  0.2554 -0.1853  0.2044  0.0000  0.0000  0.0000
  20.  C 2 (s)      0.0000  0.9285 -1.4202 -6.7118 -0.4113  0.0000  0.0000  0.0000
  21.  C 2 (px)    -0.7901  0.0000  0.0000  0.0000  0.0000 -0.4735 -0.4335  0.1026
  22.  C 2 (py)    -0.1836  0.0000  0.0000  0.0000  0.0000  0.4335 -0.4735 -1.1252
  23.  C 2 (pz)     0.0000  2.2383  0.8759 -5.2703 -0.5448  0.0000  0.0000  0.0000
  24.  C 2 (d5)     0.0000  0.0254  0.0054  0.0351  0.0630  0.0000  0.0000  0.0000
  25.  C 2 (d2)     0.0315  0.0000  0.0000  0.0000  0.0000  0.0521  0.0477  0.0050
  26.  C 2 (d3)     0.0073  0.0000  0.0000  0.0000  0.0000 -0.0477  0.0521 -0.0554
  27.  C 2 (d4)     0.0000  0.0000  0.0000  0.0000  0.0000  0.0000  0.0000  0.0000
  28.  C 2 (d1)     0.0000  0.0000  0.0000  0.0000  0.0000  0.0000  0.0000  0.0000
  29.  H 3 (s)      0.0000  0.0809  0.0165  0.3732  0.3732  0.0000  0.0000  0.0000
  30.  H 3 (s)      0.0000  2.0957  1.7654 -2.2713 -0.5680  0.0000  0.0000  0.0000
  31.  H 4 (s)      0.0000 -0.0809  0.0165 -0.3732  0.3732  0.0000  0.0000  0.0000
  32.  H 4 (s)      0.0000 -2.0957  1.7654  2.2713 -0.5680  0.0000  0.0000  0.0000

           AO         17      18      19      20      21      22      23      24
      ------------ ------- ------- ------- ------- ------- ------- ------- -------
   1.  C 1 (s)      0.0000  0.0487  0.0286 -0.0215  0.0147 -0.0530  0.0000  0.0000
   2.  C 1 (s)      0.0000 -0.7465 -0.6277  0.6963 -0.8767 -1.1697  0.0000  0.0000
   3.  C 1 (px)    -0.8255  0.0000  0.0000  0.0000  0.0000  0.0000  0.0242  0.2372
   4.  C 1 (py)    -0.0753  0.0000  0.0000  0.0000  0.0000  0.0000  0.2372 -0.0242
   5.  C 1 (pz)     0.0000 -0.4403 -0.6777 -0.0231  0.8515 -0.2011  0.0000  0.0000
   6.  C 1 (s)      0.0000 -4.4909  2.3565  0.1504  4.3880 13.3476  0.0000  0.0000
   7.  C 1 (px)     1.1252  0.0000  0.0000  0.0000  0.0000  0.0000 -0.0072 -0.0708
   8.  C 1 (py)     0.1026  0.0000  0.0000  0.0000  0.0000  0.0000 -0.0708  0.0072
   9.  C 1 (pz)     0.0000  5.7577  2.2723  1.0724 -2.9874 -9.4520  0.0000  0.0000
  10.  C 1 (d5)     0.0000 -0.1001  0.0324 -0.0726  0.2389  0.2202  0.0000  0.0000
  11.  C 1 (d2)    -0.0554  0.0000  0.0000  0.0000  0.0000  0.0000  0.0617  0.6042
  12.  C 1 (d3)    -0.0050  0.0000  0.0000  0.0000  0.0000  0.0000  0.6042 -0.0617
  13.  C 1 (d4)     0.0000  0.0000  0.0000  0.0000  0.0000  0.0000  0.0000  0.0000
  14.  C 1 (d1)     0.0000  0.0000  0.0000  0.0000  0.0000  0.0000  0.0000  0.0000
  15.  C 2 (s)      0.0000 -0.0487  0.0286 -0.0215 -0.0147  0.0530  0.0000  0.0000
  16.  C 2 (s)      0.0000  0.7465 -0.6277  0.6963  0.8767  1.1697  0.0000  0.0000
  17.  C 2 (px)     0.8255  0.0000  0.0000  0.0000  0.0000  0.0000  0.0242  0.2372
  18.  C 2 (py)     0.0753  0.0000  0.0000  0.0000  0.0000  0.0000  0.2372 -0.0242
  19.  C 2 (pz)     0.0000 -0.4403  0.6777  0.0231  0.8515 -0.2011  0.0000  0.0000
  20.  C 2 (s)      0.0000  4.4909  2.3565  0.1504 -4.3880-13.3476  0.0000  0.0000
  21.  C 2 (px)    -1.1252  0.0000  0.0000  0.0000  0.0000  0.0000 -0.0072 -0.0708
  22.  C 2 (py)    -0.1026  0.0000  0.0000  0.0000  0.0000  0.0000 -0.0708  0.0072
  23.  C 2 (pz)     0.0000  5.7577 -2.2723 -1.0724 -2.9874 -9.4520  0.0000  0.0000
  24.  C 2 (d5)     0.0000  0.1001  0.0324 -0.0726 -0.2389 -0.2202  0.0000  0.0000
  25.  C 2 (d2)    -0.0554  0.0000  0.0000  0.0000  0.0000  0.0000 -0.0617 -0.6042
  26.  C 2 (d3)    -0.0050  0.0000  0.0000  0.0000  0.0000  0.0000 -0.6042  0.0617
  27.  C 2 (d4)     0.0000  0.0000  0.0000  0.0000  0.0000  0.0000  0.0000  0.0000
  28.  C 2 (d1)     0.0000  0.0000  0.0000  0.0000  0.0000  0.0000  0.0000  0.0000
  29.  H 3 (s)      0.0000  0.2505  0.0088 -0.8684  0.4791 -0.8835  0.0000  0.0000
  30.  H 3 (s)      0.0000  2.5556 -2.0214 -0.0793 -1.0532 -2.3365  0.0000  0.0000
  31.  H 4 (s)      0.0000 -0.2505  0.0088 -0.8684 -0.4791  0.8835  0.0000  0.0000
  32.  H 4 (s)      0.0000 -2.5556 -2.0214 -0.0793  1.0532  2.3365  0.0000  0.0000

           AO         25      26      27      28      29      30      31      32
      ------------ ------- ------- ------- ------- ------- ------- ------- -------
   1.  C 1 (s)      0.0000  0.0000  0.0000  0.0000  0.0000  0.0000 -0.0519 -0.0306
   2.  C 1 (s)      0.0000  0.0000  0.0000  0.0000  0.0000  0.0000 -0.3980  0.9163
   3.  C 1 (px)     0.0000  0.0000  0.0000  0.0000 -0.2411 -0.0590  0.0000  0.0000
   4.  C 1 (py)     0.0000  0.0000  0.0000  0.0000  0.0590 -0.2411  0.0000  0.0000
   5.  C 1 (pz)     0.0000  0.0000  0.0000  0.0000  0.0000  0.0000  0.3855 -1.1040
   6.  C 1 (s)      0.0000  0.0000  0.0000  0.0000  0.0000  0.0000  0.0696  1.8372
   7.  C 1 (px)     0.0000  0.0000  0.0000  0.0000 -0.2794 -0.0684  0.0000  0.0000
   8.  C 1 (py)     0.0000  0.0000  0.0000  0.0000  0.0684 -0.2794  0.0000  0.0000
   9.  C 1 (pz)     0.0000  0.0000  0.0000  0.0000  0.0000  0.0000 -0.4312 -1.0950
  10.  C 1 (d5)     0.0000  0.0000  0.0000  0.0000  0.0000  0.0000  0.8031  1.3150
  11.  C 1 (d2)     0.0000  0.0000  0.0000  0.0000  0.9639  0.2359  0.0000  0.0000
  12.  C 1 (d3)     0.0000  0.0000  0.0000  0.0000 -0.2359  0.9639  0.0000  0.0000
  13.  C 1 (d4)     0.2075  0.6348  0.6526 -0.3780  0.0000  0.0000  0.0000  0.0000
  14.  C 1 (d1)     0.6348 -0.2075  0.3780  0.6526  0.0000  0.0000  0.0000  0.0000
  15.  C 2 (s)      0.0000  0.0000  0.0000  0.0000  0.0000  0.0000 -0.0519  0.0306
  16.  C 2 (s)      0.0000  0.0000  0.0000  0.0000  0.0000  0.0000 -0.3980 -0.9163
  17.  C 2 (px)     0.0000  0.0000  0.0000  0.0000  0.2411  0.0590  0.0000  0.0000
  18.  C 2 (py)     0.0000  0.0000  0.0000  0.0000 -0.0590  0.2411  0.0000  0.0000
  19.  C 2 (pz)     0.0000  0.0000  0.0000  0.0000  0.0000  0.0000 -0.3855 -1.1040
  20.  C 2 (s)      0.0000  0.0000  0.0000  0.0000  0.0000  0.0000  0.0696 -1.8372
  21.  C 2 (px)     0.0000  0.0000  0.0000  0.0000  0.2794  0.0684  0.0000  0.0000
  22.  C 2 (py)     0.0000  0.0000  0.0000  0.0000 -0.0684  0.2794  0.0000  0.0000
  23.  C 2 (pz)     0.0000  0.0000  0.0000  0.0000  0.0000  0.0000  0.4312 -1.0950
  24.  C 2 (d5)     0.0000  0.0000  0.0000  0.0000  0.0000  0.0000  0.8031 -1.3150
  25.  C 2 (d2)     0.0000  0.0000  0.0000  0.0000  0.9639  0.2359  0.0000  0.0000
  26.  C 2 (d3)     0.0000  0.0000  0.0000  0.0000 -0.2359  0.9639  0.0000  0.0000
  27.  C 2 (d4)     0.2075  0.6348 -0.6526  0.3780  0.0000  0.0000  0.0000  0.0000
  28.  C 2 (d1)     0.6348 -0.2075 -0.3780 -0.6526  0.0000  0.0000  0.0000  0.0000
  29.  H 3 (s)      0.0000  0.0000  0.0000  0.0000  0.0000  0.0000 -0.5155  0.4714
  30.  H 3 (s)      0.0000  0.0000  0.0000  0.0000  0.0000  0.0000  0.4049 -0.4445
  31.  H 4 (s)      0.0000  0.0000  0.0000  0.0000  0.0000  0.0000 -0.5155 -0.4714
  32.  H 4 (s)      0.0000  0.0000  0.0000  0.0000  0.0000  0.0000  0.4049  0.4445


 AO overlap matrix:

           AO          1       2       3       4       5       6       7       8
      ------------ ------- ------- ------- ------- ------- ------- ------- -------
   1.  C 1 (s)      1.0000  0.2191  0.0000  0.0000  0.0000  0.1843  0.0000  0.0000
   2.  C 1 (s)      0.2191  1.0000  0.0000  0.0000  0.0000  0.8123  0.0000  0.0000
   3.  C 1 (px)     0.0000  0.0000  1.0000  0.0000  0.0000  0.0000  0.5698  0.0000
   4.  C 1 (py)     0.0000  0.0000  0.0000  1.0000  0.0000  0.0000  0.0000  0.5698
   5.  C 1 (pz)     0.0000  0.0000  0.0000  0.0000  1.0000  0.0000  0.0000  0.0000
   6.  C 1 (s)      0.1843  0.8123  0.0000  0.0000  0.0000  1.0000  0.0000  0.0000
   7.  C 1 (px)     0.0000  0.0000  0.5698  0.0000  0.0000  0.0000  1.0000  0.0000
   8.  C 1 (py)     0.0000  0.0000  0.0000  0.5698  0.0000  0.0000  0.0000  1.0000
   9.  C 1 (pz)     0.0000  0.0000  0.0000  0.0000  0.5698  0.0000  0.0000  0.0000
  10.  C 1 (d5)     0.0000  0.0000  0.0000  0.0000  0.0000  0.0000  0.0000  0.0000
  11.  C 1 (d2)     0.0000  0.0000  0.0000  0.0000  0.0000  0.0000  0.0000  0.0000
  12.  C 1 (d3)     0.0000  0.0000  0.0000  0.0000  0.0000  0.0000  0.0000  0.0000
  13.  C 1 (d4)     0.0000  0.0000  0.0000  0.0000  0.0000  0.0000  0.0000  0.0000
  14.  C 1 (d1)     0.0000  0.0000  0.0000  0.0000  0.0000  0.0000  0.0000  0.0000
  15.  C 2 (s)      0.0000  0.0345  0.0000  0.0000 -0.0691  0.0780  0.0000  0.0000
  16.  C 2 (s)      0.0345  0.2742  0.0000  0.0000 -0.3527  0.4173  0.0000  0.0000
  17.  C 2 (px)     0.0000  0.0000  0.1657  0.0000  0.0000  0.0000  0.2837  0.0000
  18.  C 2 (py)     0.0000  0.0000  0.0000  0.1657  0.0000  0.0000  0.0000  0.2837
  19.  C 2 (pz)     0.0691  0.3527  0.0000  0.0000 -0.3697  0.2678  0.0000  0.0000
  20.  C 2 (s)      0.0780  0.4173  0.0000  0.0000 -0.2678  0.6405  0.0000  0.0000
  21.  C 2 (px)     0.0000  0.0000  0.2837  0.0000  0.0000  0.0000  0.6405  0.0000
  22.  C 2 (py)     0.0000  0.0000  0.0000  0.2837  0.0000  0.0000  0.0000  0.6405
  23.  C 2 (pz)     0.1420  0.5899  0.0000  0.0000 -0.1114  0.6046  0.0000  0.0000
  24.  C 2 (d5)     0.0942  0.2775  0.0000  0.0000 -0.2657  0.0937  0.0000  0.0000
  25.  C 2 (d2)     0.0000  0.0000  0.2529  0.0000  0.0000  0.0000  0.1719  0.0000
  26.  C 2 (d3)     0.0000  0.0000  0.0000  0.2529  0.0000  0.0000  0.0000  0.1719
  27.  C 2 (d4)     0.0000  0.0000  0.0000  0.0000  0.0000  0.0000  0.0000  0.0000
  28.  C 2 (d1)     0.0000  0.0000  0.0000  0.0000  0.0000  0.0000  0.0000  0.0000
  29.  H 3 (s)      0.0000  0.0039  0.0000  0.0000 -0.0089  0.0537  0.0000  0.0000
  30.  H 3 (s)      0.0099  0.0821  0.0000  0.0000 -0.0901  0.2157  0.0000  0.0000
  31.  H 4 (s)      0.0364  0.2891  0.0000  0.0000  0.3846  0.3867  0.0000  0.0000
  32.  H 4 (s)      0.0949  0.4870  0.0000  0.0000  0.2661  0.7154  0.0000  0.0000

           AO          9      10      11      12      13      14      15      16
      ------------ ------- ------- ------- ------- ------- ------- ------- -------
   1.  C 1 (s)      0.0000  0.0000  0.0000  0.0000  0.0000  0.0000  0.0000  0.0345
   2.  C 1 (s)      0.0000  0.0000  0.0000  0.0000  0.0000  0.0000  0.0345  0.2742
   3.  C 1 (px)     0.0000  0.0000  0.0000  0.0000  0.0000  0.0000  0.0000  0.0000
   4.  C 1 (py)     0.0000  0.0000  0.0000  0.0000  0.0000  0.0000  0.0000  0.0000
   5.  C 1 (pz)     0.5698  0.0000  0.0000  0.0000  0.0000  0.0000 -0.0691 -0.3527
   6.  C 1 (s)      0.0000  0.0000  0.0000  0.0000  0.0000  0.0000  0.0780  0.4173
   7.  C 1 (px)     0.0000  0.0000  0.0000  0.0000  0.0000  0.0000  0.0000  0.0000
   8.  C 1 (py)     0.0000  0.0000  0.0000  0.0000  0.0000  0.0000  0.0000  0.0000
   9.  C 1 (pz)     1.0000  0.0000  0.0000  0.0000  0.0000  0.0000 -0.1420 -0.5899
  10.  C 1 (d5)     0.0000  1.0000  0.0000  0.0000  0.0000  0.0000  0.0942  0.2775
  11.  C 1 (d2)     0.0000  0.0000  1.0000  0.0000  0.0000  0.0000  0.0000  0.0000
  12.  C 1 (d3)     0.0000  0.0000  0.0000  1.0000  0.0000  0.0000  0.0000  0.0000
  13.  C 1 (d4)     0.0000  0.0000  0.0000  0.0000  1.0000  0.0000  0.0000  0.0000
  14.  C 1 (d1)     0.0000  0.0000  0.0000  0.0000  0.0000  1.0000  0.0000  0.0000
  15.  C 2 (s)     -0.1420  0.0942  0.0000  0.0000  0.0000  0.0000  1.0000  0.2191
  16.  C 2 (s)     -0.5899  0.2775  0.0000  0.0000  0.0000  0.0000  0.2191  1.0000
  17.  C 2 (px)     0.0000  0.0000 -0.2529  0.0000  0.0000  0.0000  0.0000  0.0000
  18.  C 2 (py)     0.0000  0.0000  0.0000 -0.2529  0.0000  0.0000  0.0000  0.0000
  19.  C 2 (pz)    -0.1114  0.2657  0.0000  0.0000  0.0000  0.0000  0.0000  0.0000
  20.  C 2 (s)     -0.6046  0.0937  0.0000  0.0000  0.0000  0.0000  0.1843  0.8123
  21.  C 2 (px)     0.0000  0.0000 -0.1719  0.0000  0.0000  0.0000  0.0000  0.0000
  22.  C 2 (py)     0.0000  0.0000  0.0000 -0.1719  0.0000  0.0000  0.0000  0.0000
  23.  C 2 (pz)     0.0697 -0.0524  0.0000  0.0000  0.0000  0.0000  0.0000  0.0000
  24.  C 2 (d5)     0.0524  0.1593  0.0000  0.0000  0.0000  0.0000  0.0000  0.0000
  25.  C 2 (d2)     0.0000  0.0000 -0.3900  0.0000  0.0000  0.0000  0.0000  0.0000
  26.  C 2 (d3)     0.0000  0.0000  0.0000 -0.3900  0.0000  0.0000  0.0000  0.0000
  27.  C 2 (d4)     0.0000  0.0000  0.0000  0.0000  0.1209  0.0000  0.0000  0.0000
  28.  C 2 (d1)     0.0000  0.0000  0.0000  0.0000  0.0000  0.1209  0.0000  0.0000
  29.  H 3 (s)     -0.1527  0.0074  0.0000  0.0000  0.0000  0.0000  0.0364  0.2891
  30.  H 3 (s)     -0.3735  0.0515  0.0000  0.0000  0.0000  0.0000  0.0949  0.4870
  31.  H 4 (s)      0.5166  0.3490  0.0000  0.0000  0.0000  0.0000  0.0000  0.0039
  32.  H 4 (s)      0.5785  0.0791  0.0000  0.0000  0.0000  0.0000  0.0099  0.0821

           AO         17      18      19      20      21      22      23      24
      ------------ ------- ------- ------- ------- ------- ------- ------- -------
   1.  C 1 (s)      0.0000  0.0000  0.0691  0.0780  0.0000  0.0000  0.1420  0.0942
   2.  C 1 (s)      0.0000  0.0000  0.3527  0.4173  0.0000  0.0000  0.5899  0.2775
   3.  C 1 (px)     0.1657  0.0000  0.0000  0.0000  0.2837  0.0000  0.0000  0.0000
   4.  C 1 (py)     0.0000  0.1657  0.0000  0.0000  0.0000  0.2837  0.0000  0.0000
   5.  C 1 (pz)     0.0000  0.0000 -0.3697 -0.2678  0.0000  0.0000 -0.1114 -0.2657
   6.  C 1 (s)      0.0000  0.0000  0.2678  0.6405  0.0000  0.0000  0.6046  0.0937
   7.  C 1 (px)     0.2837  0.0000  0.0000  0.0000  0.6405  0.0000  0.0000  0.0000
   8.  C 1 (py)     0.0000  0.2837  0.0000  0.0000  0.0000  0.6405  0.0000  0.0000
   9.  C 1 (pz)     0.0000  0.0000 -0.1114 -0.6046  0.0000  0.0000  0.0697  0.0524
  10.  C 1 (d5)     0.0000  0.0000  0.2657  0.0937  0.0000  0.0000 -0.0524  0.1593
  11.  C 1 (d2)    -0.2529  0.0000  0.0000  0.0000 -0.1719  0.0000  0.0000  0.0000
  12.  C 1 (d3)     0.0000 -0.2529  0.0000  0.0000  0.0000 -0.1719  0.0000  0.0000
  13.  C 1 (d4)     0.0000  0.0000  0.0000  0.0000  0.0000  0.0000  0.0000  0.0000
  14.  C 1 (d1)     0.0000  0.0000  0.0000  0.0000  0.0000  0.0000  0.0000  0.0000
  15.  C 2 (s)      0.0000  0.0000  0.0000  0.1843  0.0000  0.0000  0.0000  0.0000
  16.  C 2 (s)      0.0000  0.0000  0.0000  0.8123  0.0000  0.0000  0.0000  0.0000
  17.  C 2 (px)     1.0000  0.0000  0.0000  0.0000  0.5698  0.0000  0.0000  0.0000
  18.  C 2 (py)     0.0000  1.0000  0.0000  0.0000  0.0000  0.5698  0.0000  0.0000
  19.  C 2 (pz)     0.0000  0.0000  1.0000  0.0000  0.0000  0.0000  0.5698  0.0000
  20.  C 2 (s)      0.0000  0.0000  0.0000  1.0000  0.0000  0.0000  0.0000  0.0000
  21.  C 2 (px)     0.5698  0.0000  0.0000  0.0000  1.0000  0.0000  0.0000  0.0000
  22.  C 2 (py)     0.0000  0.5698  0.0000  0.0000  0.0000  1.0000  0.0000  0.0000
  23.  C 2 (pz)     0.0000  0.0000  0.5698  0.0000  0.0000  0.0000  1.0000  0.0000
  24.  C 2 (d5)     0.0000  0.0000  0.0000  0.0000  0.0000  0.0000  0.0000  1.0000
  25.  C 2 (d2)     0.0000  0.0000  0.0000  0.0000  0.0000  0.0000  0.0000  0.0000
  26.  C 2 (d3)     0.0000  0.0000  0.0000  0.0000  0.0000  0.0000  0.0000  0.0000
  27.  C 2 (d4)     0.0000  0.0000  0.0000  0.0000  0.0000  0.0000  0.0000  0.0000
  28.  C 2 (d1)     0.0000  0.0000  0.0000  0.0000  0.0000  0.0000  0.0000  0.0000
  29.  H 3 (s)      0.0000  0.0000 -0.3846  0.3867  0.0000  0.0000 -0.5166  0.3490
  30.  H 3 (s)      0.0000  0.0000 -0.2661  0.7154  0.0000  0.0000 -0.5785  0.0791
  31.  H 4 (s)      0.0000  0.0000  0.0089  0.0537  0.0000  0.0000  0.1527  0.0074
  32.  H 4 (s)      0.0000  0.0000  0.0901  0.2157  0.0000  0.0000  0.3735  0.0515

           AO         25      26      27      28      29      30      31      32
      ------------ ------- ------- ------- ------- ------- ------- ------- -------
   1.  C 1 (s)      0.0000  0.0000  0.0000  0.0000  0.0000  0.0099  0.0364  0.0949
   2.  C 1 (s)      0.0000  0.0000  0.0000  0.0000  0.0039  0.0821  0.2891  0.4870
   3.  C 1 (px)     0.2529  0.0000  0.0000  0.0000  0.0000  0.0000  0.0000  0.0000
   4.  C 1 (py)     0.0000  0.2529  0.0000  0.0000  0.0000  0.0000  0.0000  0.0000
   5.  C 1 (pz)     0.0000  0.0000  0.0000  0.0000 -0.0089 -0.0901  0.3846  0.2661
   6.  C 1 (s)      0.0000  0.0000  0.0000  0.0000  0.0537  0.2157  0.3867  0.7154
   7.  C 1 (px)     0.1719  0.0000  0.0000  0.0000  0.0000  0.0000  0.0000  0.0000
   8.  C 1 (py)     0.0000  0.1719  0.0000  0.0000  0.0000  0.0000  0.0000  0.0000
   9.  C 1 (pz)     0.0000  0.0000  0.0000  0.0000 -0.1527 -0.3735  0.5166  0.5785
  10.  C 1 (d5)     0.0000  0.0000  0.0000  0.0000  0.0074  0.0515  0.3490  0.0791
  11.  C 1 (d2)    -0.3900  0.0000  0.0000  0.0000  0.0000  0.0000  0.0000  0.0000
  12.  C 1 (d3)     0.0000 -0.3900  0.0000  0.0000  0.0000  0.0000  0.0000  0.0000
  13.  C 1 (d4)     0.0000  0.0000  0.1209  0.0000  0.0000  0.0000  0.0000  0.0000
  14.  C 1 (d1)     0.0000  0.0000  0.0000  0.1209  0.0000  0.0000  0.0000  0.0000
  15.  C 2 (s)      0.0000  0.0000  0.0000  0.0000  0.0364  0.0949  0.0000  0.0099
  16.  C 2 (s)      0.0000  0.0000  0.0000  0.0000  0.2891  0.4870  0.0039  0.0821
  17.  C 2 (px)     0.0000  0.0000  0.0000  0.0000  0.0000  0.0000  0.0000  0.0000
  18.  C 2 (py)     0.0000  0.0000  0.0000  0.0000  0.0000  0.0000  0.0000  0.0000
  19.  C 2 (pz)     0.0000  0.0000  0.0000  0.0000 -0.3846 -0.2661  0.0089  0.0901
  20.  C 2 (s)      0.0000  0.0000  0.0000  0.0000  0.3867  0.7154  0.0537  0.2157
  21.  C 2 (px)     0.0000  0.0000  0.0000  0.0000  0.0000  0.0000  0.0000  0.0000
  22.  C 2 (py)     0.0000  0.0000  0.0000  0.0000  0.0000  0.0000  0.0000  0.0000
  23.  C 2 (pz)     0.0000  0.0000  0.0000  0.0000 -0.5166 -0.5785  0.1527  0.3735
  24.  C 2 (d5)     0.0000  0.0000  0.0000  0.0000  0.3490  0.0791  0.0074  0.0515
  25.  C 2 (d2)     1.0000  0.0000  0.0000  0.0000  0.0000  0.0000  0.0000  0.0000
  26.  C 2 (d3)     0.0000  1.0000  0.0000  0.0000  0.0000  0.0000  0.0000  0.0000
  27.  C 2 (d4)     0.0000  0.0000  1.0000  0.0000  0.0000  0.0000  0.0000  0.0000
  28.  C 2 (d1)     0.0000  0.0000  0.0000  1.0000  0.0000  0.0000  0.0000  0.0000
  29.  H 3 (s)      0.0000  0.0000  0.0000  0.0000  1.0000  0.6583  0.0000  0.0035
  30.  H 3 (s)      0.0000  0.0000  0.0000  0.0000  0.6583  1.0000  0.0035  0.0396
  31.  H 4 (s)      0.0000  0.0000  0.0000  0.0000  0.0000  0.0035  1.0000  0.6583
  32.  H 4 (s)      0.0000  0.0000  0.0000  0.0000  0.0035  0.0396  0.6583  1.0000


 AO bond-order matrix:

           AO          1       2       3       4       5       6       7       8
      ------------ ------- ------- ------- ------- ------- ------- ------- -------
   1.  C 1 (s)      2.0662 -0.1107  0.0000  0.0000  0.0037 -0.1361  0.0000  0.0000
   2.  C 1 (s)     -0.1107  0.3067  0.0000  0.0000  0.0149  0.2013  0.0000  0.0000
   3.  C 1 (px)     0.0000  0.0000  0.3136  0.0000  0.0000  0.0000  0.2172  0.0000
   4.  C 1 (py)     0.0000  0.0000  0.0000  0.3136  0.0000  0.0000  0.0000  0.2172
   5.  C 1 (pz)     0.0037  0.0149  0.0000  0.0000  0.4161  0.0114  0.0000  0.0000
   6.  C 1 (s)     -0.1361  0.2013  0.0000  0.0000  0.0114  0.1472  0.0000  0.0000
   7.  C 1 (px)     0.0000  0.0000  0.2172  0.0000  0.0000  0.0000  0.1504  0.0000
   8.  C 1 (py)     0.0000  0.0000  0.0000  0.2172  0.0000  0.0000  0.0000  0.1504
   9.  C 1 (pz)    -0.0324  0.0879  0.0000  0.0000  0.1504  0.0499  0.0000  0.0000
  10.  C 1 (d5)    -0.0117  0.0296  0.0000  0.0000  0.0123  0.0188  0.0000  0.0000
  11.  C 1 (d2)     0.0000  0.0000 -0.0202  0.0000  0.0000  0.0000 -0.0140  0.0000
  12.  C 1 (d3)     0.0000  0.0000  0.0000 -0.0202  0.0000  0.0000  0.0000 -0.0140
  13.  C 1 (d4)     0.0000  0.0000  0.0000  0.0000  0.0000  0.0000  0.0000  0.0000
  14.  C 1 (d1)     0.0000  0.0000  0.0000  0.0000  0.0000  0.0000  0.0000  0.0000
  15.  C 2 (s)      0.0316 -0.0613  0.0000  0.0000  0.0944 -0.0448  0.0000  0.0000
  16.  C 2 (s)     -0.0613  0.0944  0.0000  0.0000 -0.1701  0.1136  0.0000  0.0000
  17.  C 2 (px)     0.0000  0.0000  0.3136  0.0000  0.0000  0.0000  0.2172  0.0000
  18.  C 2 (py)     0.0000  0.0000  0.0000  0.3136  0.0000  0.0000  0.0000  0.2172
  19.  C 2 (pz)    -0.0944  0.1701  0.0000  0.0000 -0.2538  0.0667  0.0000  0.0000
  20.  C 2 (s)     -0.0448  0.1136  0.0000  0.0000 -0.0667  0.1085  0.0000  0.0000
  21.  C 2 (px)     0.0000  0.0000  0.2172  0.0000  0.0000  0.0000  0.1504  0.0000
  22.  C 2 (py)     0.0000  0.0000  0.0000  0.2172  0.0000  0.0000  0.0000  0.1504
  23.  C 2 (pz)    -0.0223  0.0678  0.0000  0.0000 -0.0142  0.0151  0.0000  0.0000
  24.  C 2 (d5)    -0.0019  0.0019  0.0000  0.0000 -0.0120  0.0072  0.0000  0.0000
  25.  C 2 (d2)     0.0000  0.0000  0.0202  0.0000  0.0000  0.0000  0.0140  0.0000
  26.  C 2 (d3)     0.0000  0.0000  0.0000  0.0202  0.0000  0.0000  0.0000  0.0140
  27.  C 2 (d4)     0.0000  0.0000  0.0000  0.0000  0.0000  0.0000  0.0000  0.0000
  28.  C 2 (d1)     0.0000  0.0000  0.0000  0.0000  0.0000  0.0000  0.0000  0.0000
  29.  H 3 (s)      0.0207 -0.0430  0.0000  0.0000  0.0607  0.0200  0.0000  0.0000
  30.  H 3 (s)      0.0195 -0.0309  0.0000  0.0000  0.0790  0.0007  0.0000  0.0000
  31.  H 4 (s)     -0.0743  0.1513  0.0000  0.0000  0.2312  0.1020  0.0000  0.0000
  32.  H 4 (s)     -0.0137  0.0395  0.0000  0.0000  0.1407  0.0304  0.0000  0.0000

           AO          9      10      11      12      13      14      15      16
      ------------ ------- ------- ------- ------- ------- ------- ------- -------
   1.  C 1 (s)     -0.0324 -0.0117  0.0000  0.0000  0.0000  0.0000  0.0316 -0.0613
   2.  C 1 (s)      0.0879  0.0296  0.0000  0.0000  0.0000  0.0000 -0.0613  0.0944
   3.  C 1 (px)     0.0000  0.0000 -0.0202  0.0000  0.0000  0.0000  0.0000  0.0000
   4.  C 1 (py)     0.0000  0.0000  0.0000 -0.0202  0.0000  0.0000  0.0000  0.0000
   5.  C 1 (pz)     0.1504  0.0123  0.0000  0.0000  0.0000  0.0000  0.0944 -0.1701
   6.  C 1 (s)      0.0499  0.0188  0.0000  0.0000  0.0000  0.0000 -0.0448  0.1136
   7.  C 1 (px)     0.0000  0.0000 -0.0140  0.0000  0.0000  0.0000  0.0000  0.0000
   8.  C 1 (py)     0.0000  0.0000  0.0000 -0.0140  0.0000  0.0000  0.0000  0.0000
   9.  C 1 (pz)     0.0821  0.0127  0.0000  0.0000  0.0000  0.0000  0.0223 -0.0678
  10.  C 1 (d5)     0.0127  0.0032  0.0000  0.0000  0.0000  0.0000 -0.0019  0.0019
  11.  C 1 (d2)     0.0000  0.0000  0.0013  0.0000  0.0000  0.0000  0.0000  0.0000
  12.  C 1 (d3)     0.0000  0.0000  0.0000  0.0013  0.0000  0.0000  0.0000  0.0000
  13.  C 1 (d4)     0.0000  0.0000  0.0000  0.0000  0.0000  0.0000  0.0000  0.0000
  14.  C 1 (d1)     0.0000  0.0000  0.0000  0.0000  0.0000  0.0000  0.0000  0.0000
  15.  C 2 (s)      0.0223 -0.0019  0.0000  0.0000  0.0000  0.0000  2.0662 -0.1107
  16.  C 2 (s)     -0.0678  0.0019  0.0000  0.0000  0.0000  0.0000 -0.1107  0.3067
  17.  C 2 (px)     0.0000  0.0000 -0.0202  0.0000  0.0000  0.0000  0.0000  0.0000
  18.  C 2 (py)     0.0000  0.0000  0.0000 -0.0202  0.0000  0.0000  0.0000  0.0000
  19.  C 2 (pz)    -0.0142  0.0120  0.0000  0.0000  0.0000  0.0000 -0.0037 -0.0149
  20.  C 2 (s)     -0.0151  0.0072  0.0000  0.0000  0.0000  0.0000 -0.1361  0.2013
  21.  C 2 (px)     0.0000  0.0000 -0.0140  0.0000  0.0000  0.0000  0.0000  0.0000
  22.  C 2 (py)     0.0000  0.0000  0.0000 -0.0140  0.0000  0.0000  0.0000  0.0000
  23.  C 2 (pz)     0.0323  0.0076  0.0000  0.0000  0.0000  0.0000  0.0324 -0.0879
  24.  C 2 (d5)    -0.0076 -0.0005  0.0000  0.0000  0.0000  0.0000 -0.0117  0.0296
  25.  C 2 (d2)     0.0000  0.0000 -0.0013  0.0000  0.0000  0.0000  0.0000  0.0000
  26.  C 2 (d3)     0.0000  0.0000  0.0000 -0.0013  0.0000  0.0000  0.0000  0.0000
  27.  C 2 (d4)     0.0000  0.0000  0.0000  0.0000  0.0000  0.0000  0.0000  0.0000
  28.  C 2 (d1)     0.0000  0.0000  0.0000  0.0000  0.0000  0.0000  0.0000  0.0000
  29.  H 3 (s)     -0.0215 -0.0051  0.0000  0.0000  0.0000  0.0000 -0.0743  0.1513
  30.  H 3 (s)      0.0059 -0.0020  0.0000  0.0000  0.0000  0.0000 -0.0137  0.0395
  31.  H 4 (s)      0.1214  0.0204  0.0000  0.0000  0.0000  0.0000  0.0207 -0.0430
  32.  H 4 (s)      0.0576  0.0072  0.0000  0.0000  0.0000  0.0000  0.0195 -0.0309

           AO         17      18      19      20      21      22      23      24
      ------------ ------- ------- ------- ------- ------- ------- ------- -------
   1.  C 1 (s)      0.0000  0.0000 -0.0944 -0.0448  0.0000  0.0000 -0.0223 -0.0019
   2.  C 1 (s)      0.0000  0.0000  0.1701  0.1136  0.0000  0.0000  0.0678  0.0019
   3.  C 1 (px)     0.3136  0.0000  0.0000  0.0000  0.2172  0.0000  0.0000  0.0000
   4.  C 1 (py)     0.0000  0.3136  0.0000  0.0000  0.0000  0.2172  0.0000  0.0000
   5.  C 1 (pz)     0.0000  0.0000 -0.2538 -0.0667  0.0000  0.0000 -0.0142 -0.0120
   6.  C 1 (s)      0.0000  0.0000  0.0667  0.1085  0.0000  0.0000  0.0151  0.0072
   7.  C 1 (px)     0.2172  0.0000  0.0000  0.0000  0.1504  0.0000  0.0000  0.0000
   8.  C 1 (py)     0.0000  0.2172  0.0000  0.0000  0.0000  0.1504  0.0000  0.0000
   9.  C 1 (pz)     0.0000  0.0000 -0.0142 -0.0151  0.0000  0.0000  0.0323 -0.0076
  10.  C 1 (d5)     0.0000  0.0000  0.0120  0.0072  0.0000  0.0000  0.0076 -0.0005
  11.  C 1 (d2)    -0.0202  0.0000  0.0000  0.0000 -0.0140  0.0000  0.0000  0.0000
  12.  C 1 (d3)     0.0000 -0.0202  0.0000  0.0000  0.0000 -0.0140  0.0000  0.0000
  13.  C 1 (d4)     0.0000  0.0000  0.0000  0.0000  0.0000  0.0000  0.0000  0.0000
  14.  C 1 (d1)     0.0000  0.0000  0.0000  0.0000  0.0000  0.0000  0.0000  0.0000
  15.  C 2 (s)      0.0000  0.0000 -0.0037 -0.1361  0.0000  0.0000  0.0324 -0.0117
  16.  C 2 (s)      0.0000  0.0000 -0.0149  0.2013  0.0000  0.0000 -0.0879  0.0296
  17.  C 2 (px)     0.3136  0.0000  0.0000  0.0000  0.2172  0.0000  0.0000  0.0000
  18.  C 2 (py)     0.0000  0.3136  0.0000  0.0000  0.0000  0.2172  0.0000  0.0000
  19.  C 2 (pz)     0.0000  0.0000  0.4161 -0.0114  0.0000  0.0000  0.1504 -0.0123
  20.  C 2 (s)      0.0000  0.0000 -0.0114  0.1472  0.0000  0.0000 -0.0499  0.0188
  21.  C 2 (px)     0.2172  0.0000  0.0000  0.0000  0.1504  0.0000  0.0000  0.0000
  22.  C 2 (py)     0.0000  0.2172  0.0000  0.0000  0.0000  0.1504  0.0000  0.0000
  23.  C 2 (pz)     0.0000  0.0000  0.1504 -0.0499  0.0000  0.0000  0.0821 -0.0127
  24.  C 2 (d5)     0.0000  0.0000 -0.0123  0.0188  0.0000  0.0000 -0.0127  0.0032
  25.  C 2 (d2)     0.0202  0.0000  0.0000  0.0000  0.0140  0.0000  0.0000  0.0000
  26.  C 2 (d3)     0.0000  0.0202  0.0000  0.0000  0.0000  0.0140  0.0000  0.0000
  27.  C 2 (d4)     0.0000  0.0000  0.0000  0.0000  0.0000  0.0000  0.0000  0.0000
  28.  C 2 (d1)     0.0000  0.0000  0.0000  0.0000  0.0000  0.0000  0.0000  0.0000
  29.  H 3 (s)      0.0000  0.0000 -0.2312  0.1020  0.0000  0.0000 -0.1214  0.0204
  30.  H 3 (s)      0.0000  0.0000 -0.1407  0.0304  0.0000  0.0000 -0.0576  0.0072
  31.  H 4 (s)      0.0000  0.0000 -0.0607  0.0200  0.0000  0.0000  0.0215 -0.0051
  32.  H 4 (s)      0.0000  0.0000 -0.0790  0.0007  0.0000  0.0000 -0.0059 -0.0020

           AO         25      26      27      28      29      30      31      32
      ------------ ------- ------- ------- ------- ------- ------- ------- -------
   1.  C 1 (s)      0.0000  0.0000  0.0000  0.0000  0.0207  0.0195 -0.0743 -0.0137
   2.  C 1 (s)      0.0000  0.0000  0.0000  0.0000 -0.0430 -0.0309  0.1513  0.0395
   3.  C 1 (px)     0.0202  0.0000  0.0000  0.0000  0.0000  0.0000  0.0000  0.0000
   4.  C 1 (py)     0.0000  0.0202  0.0000  0.0000  0.0000  0.0000  0.0000  0.0000
   5.  C 1 (pz)     0.0000  0.0000  0.0000  0.0000  0.0607  0.0790  0.2312  0.1407
   6.  C 1 (s)      0.0000  0.0000  0.0000  0.0000  0.0200  0.0007  0.1020  0.0304
   7.  C 1 (px)     0.0140  0.0000  0.0000  0.0000  0.0000  0.0000  0.0000  0.0000
   8.  C 1 (py)     0.0000  0.0140  0.0000  0.0000  0.0000  0.0000  0.0000  0.0000
   9.  C 1 (pz)     0.0000  0.0000  0.0000  0.0000 -0.0215  0.0059  0.1214  0.0576
  10.  C 1 (d5)     0.0000  0.0000  0.0000  0.0000 -0.0051 -0.0020  0.0204  0.0072
  11.  C 1 (d2)    -0.0013  0.0000  0.0000  0.0000  0.0000  0.0000  0.0000  0.0000
  12.  C 1 (d3)     0.0000 -0.0013  0.0000  0.0000  0.0000  0.0000  0.0000  0.0000
  13.  C 1 (d4)     0.0000  0.0000  0.0000  0.0000  0.0000  0.0000  0.0000  0.0000
  14.  C 1 (d1)     0.0000  0.0000  0.0000  0.0000  0.0000  0.0000  0.0000  0.0000
  15.  C 2 (s)      0.0000  0.0000  0.0000  0.0000 -0.0743 -0.0137  0.0207  0.0195
  16.  C 2 (s)      0.0000  0.0000  0.0000  0.0000  0.1513  0.0395 -0.0430 -0.0309
  17.  C 2 (px)     0.0202  0.0000  0.0000  0.0000  0.0000  0.0000  0.0000  0.0000
  18.  C 2 (py)     0.0000  0.0202  0.0000  0.0000  0.0000  0.0000  0.0000  0.0000
  19.  C 2 (pz)     0.0000  0.0000  0.0000  0.0000 -0.2312 -0.1407 -0.0607 -0.0790
  20.  C 2 (s)      0.0000  0.0000  0.0000  0.0000  0.1020  0.0304  0.0200  0.0007
  21.  C 2 (px)     0.0140  0.0000  0.0000  0.0000  0.0000  0.0000  0.0000  0.0000
  22.  C 2 (py)     0.0000  0.0140  0.0000  0.0000  0.0000  0.0000  0.0000  0.0000
  23.  C 2 (pz)     0.0000  0.0000  0.0000  0.0000 -0.1214 -0.0576  0.0215 -0.0059
  24.  C 2 (d5)     0.0000  0.0000  0.0000  0.0000  0.0204  0.0072 -0.0051 -0.0020
  25.  C 2 (d2)     0.0013  0.0000  0.0000  0.0000  0.0000  0.0000  0.0000  0.0000
  26.  C 2 (d3)     0.0000  0.0013  0.0000  0.0000  0.0000  0.0000  0.0000  0.0000
  27.  C 2 (d4)     0.0000  0.0000  0.0000  0.0000  0.0000  0.0000  0.0000  0.0000
  28.  C 2 (d1)     0.0000  0.0000  0.0000  0.0000  0.0000  0.0000  0.0000  0.0000
  29.  H 3 (s)      0.0000  0.0000  0.0000  0.0000  0.1956  0.0946  0.0166  0.0298
  30.  H 3 (s)      0.0000  0.0000  0.0000  0.0000  0.0946  0.0526  0.0298  0.0292
  31.  H 4 (s)      0.0000  0.0000  0.0000  0.0000  0.0166  0.0298  0.1956  0.0946
  32.  H 4 (s)      0.0000  0.0000  0.0000  0.0000  0.0298  0.0292  0.0946  0.0526


 AO density matrix:

           AO          1       2       3       4       5       6       7       8
      ------------ ------- ------- ------- ------- ------- ------- ------- -------
   1.  C 1 (s)      1.9998  0.4471  0.0000  0.0000  0.0015  0.3666  0.0000  0.0000
   2.  C 1 (s)      0.4471  1.5816  0.0000  0.0000 -0.0751  1.6384  0.0000  0.0000
   3.  C 1 (px)     0.0000  0.0000  0.9860  0.0000  0.0000  0.0000  1.1126  0.0000
   4.  C 1 (py)     0.0000  0.0000  0.0000  0.9860  0.0000  0.0000  0.0000  1.1126
   5.  C 1 (pz)     0.0015 -0.0751  0.0000  0.0000  1.5278 -0.0025  0.0000  0.0000
   6.  C 1 (s)      0.3666  1.6384  0.0000  0.0000 -0.0025  1.7596  0.0000  0.0000
   7.  C 1 (px)     0.0000  0.0000  1.1126  0.0000  0.0000  0.0000  1.2554  0.0000
   8.  C 1 (py)     0.0000  0.0000  0.0000  1.1126  0.0000  0.0000  0.0000  1.2554
   9.  C 1 (pz)    -0.0011  0.0573  0.0000  0.0000  1.4203  0.0179  0.0000  0.0000
  10.  C 1 (d5)    -0.0038  0.3576  0.0000  0.0000 -0.0425  0.3918  0.0000  0.0000
  11.  C 1 (d2)     0.0000  0.0000 -0.2567  0.0000  0.0000  0.0000 -0.2896  0.0000
  12.  C 1 (d3)     0.0000  0.0000  0.0000 -0.2567  0.0000  0.0000  0.0000 -0.2896
  13.  C 1 (d4)     0.0000  0.0000  0.0000  0.0000  0.0000  0.0000  0.0000  0.0000
  14.  C 1 (d1)     0.0000  0.0000  0.0000  0.0000  0.0000  0.0000  0.0000  0.0000
  15.  C 2 (s)      0.0001  0.0656  0.0000  0.0000 -0.1359  0.1535  0.0000  0.0000
  16.  C 2 (s)      0.0656  0.7348  0.0000  0.0000 -0.8453  0.9349  0.0000  0.0000
  17.  C 2 (px)     0.0000  0.0000  0.9860  0.0000  0.0000  0.0000  1.1126  0.0000
  18.  C 2 (py)     0.0000  0.0000  0.0000  0.9860  0.0000  0.0000  0.0000  1.1126
  19.  C 2 (pz)     0.1359  0.8453  0.0000  0.0000 -0.8032  0.6543  0.0000  0.0000
  20.  C 2 (s)      0.1535  0.9349  0.0000  0.0000 -0.6543  1.1692  0.0000  0.0000
  21.  C 2 (px)     0.0000  0.0000  1.1126  0.0000  0.0000  0.0000  1.2554  0.0000
  22.  C 2 (py)     0.0000  0.0000  0.0000  1.1126  0.0000  0.0000  0.0000  1.2554
  23.  C 2 (pz)     0.2829  1.1675  0.0000  0.0000 -0.2752  1.0150  0.0000  0.0000
  24.  C 2 (d5)     0.1957  0.2529  0.0000  0.0000 -0.1660  0.2909  0.0000  0.0000
  25.  C 2 (d2)     0.0000  0.0000  0.2567  0.0000  0.0000  0.0000  0.2896  0.0000
  26.  C 2 (d3)     0.0000  0.0000  0.0000  0.2567  0.0000  0.0000  0.0000  0.2896
  27.  C 2 (d4)     0.0000  0.0000  0.0000  0.0000  0.0000  0.0000  0.0000  0.0000
  28.  C 2 (d1)     0.0000  0.0000  0.0000  0.0000  0.0000  0.0000  0.0000  0.0000
  29.  H 3 (s)      0.0024 -0.1133  0.0000  0.0000  0.0966  0.1398  0.0000  0.0000
  30.  H 3 (s)      0.0199  0.1564  0.0000  0.0000 -0.1725  0.4245  0.0000  0.0000
  31.  H 4 (s)      0.0673  0.8816  0.0000  0.0000  1.0455  0.9881  0.0000  0.0000
  32.  H 4 (s)      0.1847  1.2052  0.0000  0.0000  0.8168  1.3133  0.0000  0.0000

           AO          9      10      11      12      13      14      15      16
      ------------ ------- ------- ------- ------- ------- ------- ------- -------
   1.  C 1 (s)     -0.0011 -0.0038  0.0000  0.0000  0.0000  0.0000  0.0001  0.0656
   2.  C 1 (s)      0.0573  0.3576  0.0000  0.0000  0.0000  0.0000  0.0656  0.7348
   3.  C 1 (px)     0.0000  0.0000 -0.2567  0.0000  0.0000  0.0000  0.0000  0.0000
   4.  C 1 (py)     0.0000  0.0000  0.0000 -0.2567  0.0000  0.0000  0.0000  0.0000
   5.  C 1 (pz)     1.4203 -0.0425  0.0000  0.0000  0.0000  0.0000 -0.1359 -0.8453
   6.  C 1 (s)      0.0179  0.3918  0.0000  0.0000  0.0000  0.0000  0.1535  0.9349
   7.  C 1 (px)     0.0000  0.0000 -0.2896  0.0000  0.0000  0.0000  0.0000  0.0000
   8.  C 1 (py)     0.0000  0.0000  0.0000 -0.2896  0.0000  0.0000  0.0000  0.0000
   9.  C 1 (pz)     1.5738 -0.0427  0.0000  0.0000  0.0000  0.0000 -0.2829 -1.1675
  10.  C 1 (d5)    -0.0427  0.1047  0.0000  0.0000  0.0000  0.0000  0.1957  0.2529
  11.  C 1 (d2)     0.0000  0.0000  0.0668  0.0000  0.0000  0.0000  0.0000  0.0000
  12.  C 1 (d3)     0.0000  0.0000  0.0000  0.0668  0.0000  0.0000  0.0000  0.0000
  13.  C 1 (d4)     0.0000  0.0000  0.0000  0.0000  0.0000  0.0000  0.0000  0.0000
  14.  C 1 (d1)     0.0000  0.0000  0.0000  0.0000  0.0000  0.0000  0.0000  0.0000
  15.  C 2 (s)     -0.2829  0.1957  0.0000  0.0000  0.0000  0.0000  1.9998  0.4471
  16.  C 2 (s)     -1.1675  0.2529  0.0000  0.0000  0.0000  0.0000  0.4471  1.5816
  17.  C 2 (px)     0.0000  0.0000 -0.2567  0.0000  0.0000  0.0000  0.0000  0.0000
  18.  C 2 (py)     0.0000  0.0000  0.0000 -0.2567  0.0000  0.0000  0.0000  0.0000
  19.  C 2 (pz)    -0.2752  0.1660  0.0000  0.0000  0.0000  0.0000 -0.0015  0.0751
  20.  C 2 (s)     -1.0150  0.2909  0.0000  0.0000  0.0000  0.0000  0.3666  1.6384
  21.  C 2 (px)     0.0000  0.0000 -0.2896  0.0000  0.0000  0.0000  0.0000  0.0000
  22.  C 2 (py)     0.0000  0.0000  0.0000 -0.2896  0.0000  0.0000  0.0000  0.0000
  23.  C 2 (pz)     0.2376  0.2305  0.0000  0.0000  0.0000  0.0000  0.0011 -0.0573
  24.  C 2 (d5)    -0.2305  0.0585  0.0000  0.0000  0.0000  0.0000 -0.0038  0.3576
  25.  C 2 (d2)     0.0000  0.0000 -0.0668  0.0000  0.0000  0.0000  0.0000  0.0000
  26.  C 2 (d3)     0.0000  0.0000  0.0000 -0.0668  0.0000  0.0000  0.0000  0.0000
  27.  C 2 (d4)     0.0000  0.0000  0.0000  0.0000  0.0000  0.0000  0.0000  0.0000
  28.  C 2 (d1)     0.0000  0.0000  0.0000  0.0000  0.0000  0.0000  0.0000  0.0000
  29.  H 3 (s)     -0.4667  0.0242  0.0000  0.0000  0.0000  0.0000  0.0673  0.8816
  30.  H 3 (s)     -0.7262  0.1021  0.0000  0.0000  0.0000  0.0000  0.1847  1.2052
  31.  H 4 (s)      1.0289  0.1989  0.0000  0.0000  0.0000  0.0000  0.0024 -0.1133
  32.  H 4 (s)      0.8363  0.2732  0.0000  0.0000  0.0000  0.0000  0.0199  0.1564

           AO         17      18      19      20      21      22      23      24
      ------------ ------- ------- ------- ------- ------- ------- ------- -------
   1.  C 1 (s)      0.0000  0.0000  0.1359  0.1535  0.0000  0.0000  0.2829  0.1957
   2.  C 1 (s)      0.0000  0.0000  0.8453  0.9349  0.0000  0.0000  1.1675  0.2529
   3.  C 1 (px)     0.9860  0.0000  0.0000  0.0000  1.1126  0.0000  0.0000  0.0000
   4.  C 1 (py)     0.0000  0.9860  0.0000  0.0000  0.0000  1.1126  0.0000  0.0000
   5.  C 1 (pz)     0.0000  0.0000 -0.8032 -0.6543  0.0000  0.0000 -0.2752 -0.1660
   6.  C 1 (s)      0.0000  0.0000  0.6543  1.1692  0.0000  0.0000  1.0150  0.2909
   7.  C 1 (px)     1.1126  0.0000  0.0000  0.0000  1.2554  0.0000  0.0000  0.0000
   8.  C 1 (py)     0.0000  1.1126  0.0000  0.0000  0.0000  1.2554  0.0000  0.0000
   9.  C 1 (pz)     0.0000  0.0000 -0.2752 -1.0150  0.0000  0.0000  0.2376 -0.2305
  10.  C 1 (d5)     0.0000  0.0000  0.1660  0.2909  0.0000  0.0000  0.2305  0.0585
  11.  C 1 (d2)    -0.2567  0.0000  0.0000  0.0000 -0.2896  0.0000  0.0000  0.0000
  12.  C 1 (d3)     0.0000 -0.2567  0.0000  0.0000  0.0000 -0.2896  0.0000  0.0000
  13.  C 1 (d4)     0.0000  0.0000  0.0000  0.0000  0.0000  0.0000  0.0000  0.0000
  14.  C 1 (d1)     0.0000  0.0000  0.0000  0.0000  0.0000  0.0000  0.0000  0.0000
  15.  C 2 (s)      0.0000  0.0000 -0.0015  0.3666  0.0000  0.0000  0.0011 -0.0038
  16.  C 2 (s)      0.0000  0.0000  0.0751  1.6384  0.0000  0.0000 -0.0573  0.3576
  17.  C 2 (px)     0.9860  0.0000  0.0000  0.0000  1.1126  0.0000  0.0000  0.0000
  18.  C 2 (py)     0.0000  0.9860  0.0000  0.0000  0.0000  1.1126  0.0000  0.0000
  19.  C 2 (pz)     0.0000  0.0000  1.5278  0.0025  0.0000  0.0000  1.4203  0.0425
  20.  C 2 (s)      0.0000  0.0000  0.0025  1.7596  0.0000  0.0000 -0.0179  0.3918
  21.  C 2 (px)     1.1126  0.0000  0.0000  0.0000  1.2554  0.0000  0.0000  0.0000
  22.  C 2 (py)     0.0000  1.1126  0.0000  0.0000  0.0000  1.2554  0.0000  0.0000
  23.  C 2 (pz)     0.0000  0.0000  1.4203 -0.0179  0.0000  0.0000  1.5738  0.0427
  24.  C 2 (d5)     0.0000  0.0000  0.0425  0.3918  0.0000  0.0000  0.0427  0.1047
  25.  C 2 (d2)     0.2567  0.0000  0.0000  0.0000  0.2896  0.0000  0.0000  0.0000
  26.  C 2 (d3)     0.0000  0.2567  0.0000  0.0000  0.0000  0.2896  0.0000  0.0000
  27.  C 2 (d4)     0.0000  0.0000  0.0000  0.0000  0.0000  0.0000  0.0000  0.0000
  28.  C 2 (d1)     0.0000  0.0000  0.0000  0.0000  0.0000  0.0000  0.0000  0.0000
  29.  H 3 (s)      0.0000  0.0000 -1.0455  0.9881  0.0000  0.0000 -1.0289  0.1989
  30.  H 3 (s)      0.0000  0.0000 -0.8168  1.3133  0.0000  0.0000 -0.8363  0.2732
  31.  H 4 (s)      0.0000  0.0000 -0.0966  0.1398  0.0000  0.0000  0.4667  0.0242
  32.  H 4 (s)      0.0000  0.0000  0.1725  0.4245  0.0000  0.0000  0.7262  0.1021

           AO         25      26      27      28      29      30      31      32
      ------------ ------- ------- ------- ------- ------- ------- ------- -------
   1.  C 1 (s)      0.0000  0.0000  0.0000  0.0000  0.0024  0.0199  0.0673  0.1847
   2.  C 1 (s)      0.0000  0.0000  0.0000  0.0000 -0.1133  0.1564  0.8816  1.2052
   3.  C 1 (px)     0.2567  0.0000  0.0000  0.0000  0.0000  0.0000  0.0000  0.0000
   4.  C 1 (py)     0.0000  0.2567  0.0000  0.0000  0.0000  0.0000  0.0000  0.0000
   5.  C 1 (pz)     0.0000  0.0000  0.0000  0.0000  0.0966 -0.1725  1.0455  0.8168
   6.  C 1 (s)      0.0000  0.0000  0.0000  0.0000  0.1398  0.4245  0.9881  1.3133
   7.  C 1 (px)     0.2896  0.0000  0.0000  0.0000  0.0000  0.0000  0.0000  0.0000
   8.  C 1 (py)     0.0000  0.2896  0.0000  0.0000  0.0000  0.0000  0.0000  0.0000
   9.  C 1 (pz)     0.0000  0.0000  0.0000  0.0000 -0.4667 -0.7262  1.0289  0.8363
  10.  C 1 (d5)     0.0000  0.0000  0.0000  0.0000  0.0242  0.1021  0.1989  0.2732
  11.  C 1 (d2)    -0.0668  0.0000  0.0000  0.0000  0.0000  0.0000  0.0000  0.0000
  12.  C 1 (d3)     0.0000 -0.0668  0.0000  0.0000  0.0000  0.0000  0.0000  0.0000
  13.  C 1 (d4)     0.0000  0.0000  0.0000  0.0000  0.0000  0.0000  0.0000  0.0000
  14.  C 1 (d1)     0.0000  0.0000  0.0000  0.0000  0.0000  0.0000  0.0000  0.0000
  15.  C 2 (s)      0.0000  0.0000  0.0000  0.0000  0.0673  0.1847  0.0024  0.0199
  16.  C 2 (s)      0.0000  0.0000  0.0000  0.0000  0.8816  1.2052 -0.1133  0.1564
  17.  C 2 (px)     0.2567  0.0000  0.0000  0.0000  0.0000  0.0000  0.0000  0.0000
  18.  C 2 (py)     0.0000  0.2567  0.0000  0.0000  0.0000  0.0000  0.0000  0.0000
  19.  C 2 (pz)     0.0000  0.0000  0.0000  0.0000 -1.0455 -0.8168 -0.0966  0.1725
  20.  C 2 (s)      0.0000  0.0000  0.0000  0.0000  0.9881  1.3133  0.1398  0.4245
  21.  C 2 (px)     0.2896  0.0000  0.0000  0.0000  0.0000  0.0000  0.0000  0.0000
  22.  C 2 (py)     0.0000  0.2896  0.0000  0.0000  0.0000  0.0000  0.0000  0.0000
  23.  C 2 (pz)     0.0000  0.0000  0.0000  0.0000 -1.0289 -0.8363  0.4667  0.7262
  24.  C 2 (d5)     0.0000  0.0000  0.0000  0.0000  0.1989  0.2732  0.0242  0.1021
  25.  C 2 (d2)     0.0668  0.0000  0.0000  0.0000  0.0000  0.0000  0.0000  0.0000
  26.  C 2 (d3)     0.0000  0.0668  0.0000  0.0000  0.0000  0.0000  0.0000  0.0000
  27.  C 2 (d4)     0.0000  0.0000  0.0000  0.0000  0.0000  0.0000  0.0000  0.0000
  28.  C 2 (d1)     0.0000  0.0000  0.0000  0.0000  0.0000  0.0000  0.0000  0.0000
  29.  H 3 (s)      0.0000  0.0000  0.0000  0.0000  1.2911  1.3163  0.0419  0.0195
  30.  H 3 (s)      0.0000  0.0000  0.0000  0.0000  1.3163  1.4382  0.0195  0.0873
  31.  H 4 (s)      0.0000  0.0000  0.0000  0.0000  0.0419  0.0195  1.2911  1.3163
  32.  H 4 (s)      0.0000  0.0000  0.0000  0.0000  0.0195  0.0873  1.3163  1.4382


 MO density matrix:

      MO     1       2       3       4       5       6       7       8       9
     ---- ------  ------  ------  ------  ------  ------  ------  ------  ------
   1.     2.0000  0.0000  0.0000  0.0000  0.0000  0.0000  0.0000  0.0000  0.0000
   2.     0.0000  2.0000  0.0000  0.0000  0.0000  0.0000  0.0000  0.0000  0.0000
   3.     0.0000  0.0000  2.0000  0.0000  0.0000  0.0000  0.0000  0.0000  0.0000
   4.     0.0000  0.0000  0.0000  2.0000  0.0000  0.0000  0.0000  0.0000  0.0000
   5.     0.0000  0.0000  0.0000  0.0000  2.0000  0.0000  0.0000  0.0000  0.0000
   6.     0.0000  0.0000  0.0000  0.0000  0.0000  2.0000  0.0000  0.0000  0.0000
   7.     0.0000  0.0000  0.0000  0.0000  0.0000  0.0000  2.0000  0.0000  0.0000
   8.     0.0000  0.0000  0.0000  0.0000  0.0000  0.0000  0.0000  0.0000  0.0000
   9.     0.0000  0.0000  0.0000  0.0000  0.0000  0.0000  0.0000  0.0000  0.0000
  10.     0.0000  0.0000  0.0000  0.0000  0.0000  0.0000  0.0000  0.0000  0.0000
  11.     0.0000  0.0000  0.0000  0.0000  0.0000  0.0000  0.0000  0.0000  0.0000
  12.     0.0000  0.0000  0.0000  0.0000  0.0000  0.0000  0.0000  0.0000  0.0000
  13.     0.0000  0.0000  0.0000  0.0000  0.0000  0.0000  0.0000  0.0000  0.0000
  14.     0.0000  0.0000  0.0000  0.0000  0.0000  0.0000  0.0000  0.0000  0.0000
  15.     0.0000  0.0000  0.0000  0.0000  0.0000  0.0000  0.0000  0.0000  0.0000
  16.     0.0000  0.0000  0.0000  0.0000  0.0000  0.0000  0.0000  0.0000  0.0000
  17.     0.0000  0.0000  0.0000  0.0000  0.0000  0.0000  0.0000  0.0000  0.0000
  18.     0.0000  0.0000  0.0000  0.0000  0.0000  0.0000  0.0000  0.0000  0.0000
  19.     0.0000  0.0000  0.0000  0.0000  0.0000  0.0000  0.0000  0.0000  0.0000
  20.     0.0000  0.0000  0.0000  0.0000  0.0000  0.0000  0.0000  0.0000  0.0000
  21.     0.0000  0.0000  0.0000  0.0000  0.0000  0.0000  0.0000  0.0000  0.0000
  22.     0.0000  0.0000  0.0000  0.0000  0.0000  0.0000  0.0000  0.0000  0.0000
  23.     0.0000  0.0000  0.0000  0.0000  0.0000  0.0000  0.0000  0.0000  0.0000
  24.     0.0000  0.0000  0.0000  0.0000  0.0000  0.0000  0.0000  0.0000  0.0000
  25.     0.0000  0.0000  0.0000  0.0000  0.0000  0.0000  0.0000  0.0000  0.0000
  26.     0.0000  0.0000  0.0000  0.0000  0.0000  0.0000  0.0000  0.0000  0.0000
  27.     0.0000  0.0000  0.0000  0.0000  0.0000  0.0000  0.0000  0.0000  0.0000
  28.     0.0000  0.0000  0.0000  0.0000  0.0000  0.0000  0.0000  0.0000  0.0000
  29.     0.0000  0.0000  0.0000  0.0000  0.0000  0.0000  0.0000  0.0000  0.0000
  30.     0.0000  0.0000  0.0000  0.0000  0.0000  0.0000  0.0000  0.0000  0.0000
  31.     0.0000  0.0000  0.0000  0.0000  0.0000  0.0000  0.0000  0.0000  0.0000
  32.     0.0000  0.0000  0.0000  0.0000  0.0000  0.0000  0.0000  0.0000  0.0000

      MO    10      11      12      13      14      15      16      17      18
     ---- ------  ------  ------  ------  ------  ------  ------  ------  ------
   1.     0.0000  0.0000  0.0000  0.0000  0.0000  0.0000  0.0000  0.0000  0.0000
   2.     0.0000  0.0000  0.0000  0.0000  0.0000  0.0000  0.0000  0.0000  0.0000
   3.     0.0000  0.0000  0.0000  0.0000  0.0000  0.0000  0.0000  0.0000  0.0000
   4.     0.0000  0.0000  0.0000  0.0000  0.0000  0.0000  0.0000  0.0000  0.0000
   5.     0.0000  0.0000  0.0000  0.0000  0.0000  0.0000  0.0000  0.0000  0.0000
   6.     0.0000  0.0000  0.0000  0.0000  0.0000  0.0000  0.0000  0.0000  0.0000
   7.     0.0000  0.0000  0.0000  0.0000  0.0000  0.0000  0.0000  0.0000  0.0000
   8.     0.0000  0.0000  0.0000  0.0000  0.0000  0.0000  0.0000  0.0000  0.0000
   9.     0.0000  0.0000  0.0000  0.0000  0.0000  0.0000  0.0000  0.0000  0.0000
  10.     0.0000  0.0000  0.0000  0.0000  0.0000  0.0000  0.0000  0.0000  0.0000
  11.     0.0000  0.0000  0.0000  0.0000  0.0000  0.0000  0.0000  0.0000  0.0000
  12.     0.0000  0.0000  0.0000  0.0000  0.0000  0.0000  0.0000  0.0000  0.0000
  13.     0.0000  0.0000  0.0000  0.0000  0.0000  0.0000  0.0000  0.0000  0.0000
  14.     0.0000  0.0000  0.0000  0.0000  0.0000  0.0000  0.0000  0.0000  0.0000
  15.     0.0000  0.0000  0.0000  0.0000  0.0000  0.0000  0.0000  0.0000  0.0000
  16.     0.0000  0.0000  0.0000  0.0000  0.0000  0.0000  0.0000  0.0000  0.0000
  17.     0.0000  0.0000  0.0000  0.0000  0.0000  0.0000  0.0000  0.0000  0.0000
  18.     0.0000  0.0000  0.0000  0.0000  0.0000  0.0000  0.0000  0.0000  0.0000
  19.     0.0000  0.0000  0.0000  0.0000  0.0000  0.0000  0.0000  0.0000  0.0000
  20.     0.0000  0.0000  0.0000  0.0000  0.0000  0.0000  0.0000  0.0000  0.0000
  21.     0.0000  0.0000  0.0000  0.0000  0.0000  0.0000  0.0000  0.0000  0.0000
  22.     0.0000  0.0000  0.0000  0.0000  0.0000  0.0000  0.0000  0.0000  0.0000
  23.     0.0000  0.0000  0.0000  0.0000  0.0000  0.0000  0.0000  0.0000  0.0000
  24.     0.0000  0.0000  0.0000  0.0000  0.0000  0.0000  0.0000  0.0000  0.0000
  25.     0.0000  0.0000  0.0000  0.0000  0.0000  0.0000  0.0000  0.0000  0.0000
  26.     0.0000  0.0000  0.0000  0.0000  0.0000  0.0000  0.0000  0.0000  0.0000
  27.     0.0000  0.0000  0.0000  0.0000  0.0000  0.0000  0.0000  0.0000  0.0000
  28.     0.0000  0.0000  0.0000  0.0000  0.0000  0.0000  0.0000  0.0000  0.0000
  29.     0.0000  0.0000  0.0000  0.0000  0.0000  0.0000  0.0000  0.0000  0.0000
  30.     0.0000  0.0000  0.0000  0.0000  0.0000  0.0000  0.0000  0.0000  0.0000
  31.     0.0000  0.0000  0.0000  0.0000  0.0000  0.0000  0.0000  0.0000  0.0000
  32.     0.0000  0.0000  0.0000  0.0000  0.0000  0.0000  0.0000  0.0000  0.0000

      MO    19      20      21      22      23      24      25      26      27
     ---- ------  ------  ------  ------  ------  ------  ------  ------  ------
   1.     0.0000  0.0000  0.0000  0.0000  0.0000  0.0000  0.0000  0.0000  0.0000
   2.     0.0000  0.0000  0.0000  0.0000  0.0000  0.0000  0.0000  0.0000  0.0000
   3.     0.0000  0.0000  0.0000  0.0000  0.0000  0.0000  0.0000  0.0000  0.0000
   4.     0.0000  0.0000  0.0000  0.0000  0.0000  0.0000  0.0000  0.0000  0.0000
   5.     0.0000  0.0000  0.0000  0.0000  0.0000  0.0000  0.0000  0.0000  0.0000
   6.     0.0000  0.0000  0.0000  0.0000  0.0000  0.0000  0.0000  0.0000  0.0000
   7.     0.0000  0.0000  0.0000  0.0000  0.0000  0.0000  0.0000  0.0000  0.0000
   8.     0.0000  0.0000  0.0000  0.0000  0.0000  0.0000  0.0000  0.0000  0.0000
   9.     0.0000  0.0000  0.0000  0.0000  0.0000  0.0000  0.0000  0.0000  0.0000
  10.     0.0000  0.0000  0.0000  0.0000  0.0000  0.0000  0.0000  0.0000  0.0000
  11.     0.0000  0.0000  0.0000  0.0000  0.0000  0.0000  0.0000  0.0000  0.0000
  12.     0.0000  0.0000  0.0000  0.0000  0.0000  0.0000  0.0000  0.0000  0.0000
  13.     0.0000  0.0000  0.0000  0.0000  0.0000  0.0000  0.0000  0.0000  0.0000
  14.     0.0000  0.0000  0.0000  0.0000  0.0000  0.0000  0.0000  0.0000  0.0000
  15.     0.0000  0.0000  0.0000  0.0000  0.0000  0.0000  0.0000  0.0000  0.0000
  16.     0.0000  0.0000  0.0000  0.0000  0.0000  0.0000  0.0000  0.0000  0.0000
  17.     0.0000  0.0000  0.0000  0.0000  0.0000  0.0000  0.0000  0.0000  0.0000
  18.     0.0000  0.0000  0.0000  0.0000  0.0000  0.0000  0.0000  0.0000  0.0000
  19.     0.0000  0.0000  0.0000  0.0000  0.0000  0.0000  0.0000  0.0000  0.0000
  20.     0.0000  0.0000  0.0000  0.0000  0.0000  0.0000  0.0000  0.0000  0.0000
  21.     0.0000  0.0000  0.0000  0.0000  0.0000  0.0000  0.0000  0.0000  0.0000
  22.     0.0000  0.0000  0.0000  0.0000  0.0000  0.0000  0.0000  0.0000  0.0000
  23.     0.0000  0.0000  0.0000  0.0000  0.0000  0.0000  0.0000  0.0000  0.0000
  24.     0.0000  0.0000  0.0000  0.0000  0.0000  0.0000  0.0000  0.0000  0.0000
  25.     0.0000  0.0000  0.0000  0.0000  0.0000  0.0000  0.0000  0.0000  0.0000
  26.     0.0000  0.0000  0.0000  0.0000  0.0000  0.0000  0.0000  0.0000  0.0000
  27.     0.0000  0.0000  0.0000  0.0000  0.0000  0.0000  0.0000  0.0000  0.0000
  28.     0.0000  0.0000  0.0000  0.0000  0.0000  0.0000  0.0000  0.0000  0.0000
  29.     0.0000  0.0000  0.0000  0.0000  0.0000  0.0000  0.0000  0.0000  0.0000
  30.     0.0000  0.0000  0.0000  0.0000  0.0000  0.0000  0.0000  0.0000  0.0000
  31.     0.0000  0.0000  0.0000  0.0000  0.0000  0.0000  0.0000  0.0000  0.0000
  32.     0.0000  0.0000  0.0000  0.0000  0.0000  0.0000  0.0000  0.0000  0.0000

      MO    28      29      30      31      32
     ---- ------  ------  ------  ------  ------
   1.     0.0000  0.0000  0.0000  0.0000  0.0000
   2.     0.0000  0.0000  0.0000  0.0000  0.0000
   3.     0.0000  0.0000  0.0000  0.0000  0.0000
   4.     0.0000  0.0000  0.0000  0.0000  0.0000
   5.     0.0000  0.0000  0.0000  0.0000  0.0000
   6.     0.0000  0.0000  0.0000  0.0000  0.0000
   7.     0.0000  0.0000  0.0000  0.0000  0.0000
   8.     0.0000  0.0000  0.0000  0.0000  0.0000
   9.     0.0000  0.0000  0.0000  0.0000  0.0000
  10.     0.0000  0.0000  0.0000  0.0000  0.0000
  11.     0.0000  0.0000  0.0000  0.0000  0.0000
  12.     0.0000  0.0000  0.0000  0.0000  0.0000
  13.     0.0000  0.0000  0.0000  0.0000  0.0000
  14.     0.0000  0.0000  0.0000  0.0000  0.0000
  15.     0.0000  0.0000  0.0000  0.0000  0.0000
  16.     0.0000  0.0000  0.0000  0.0000  0.0000
  17.     0.0000  0.0000  0.0000  0.0000  0.0000
  18.     0.0000  0.0000  0.0000  0.0000  0.0000
  19.     0.0000  0.0000  0.0000  0.0000  0.0000
  20.     0.0000  0.0000  0.0000  0.0000  0.0000
  21.     0.0000  0.0000  0.0000  0.0000  0.0000
  22.     0.0000  0.0000  0.0000  0.0000  0.0000
  23.     0.0000  0.0000  0.0000  0.0000  0.0000
  24.     0.0000  0.0000  0.0000  0.0000  0.0000
  25.     0.0000  0.0000  0.0000  0.0000  0.0000
  26.     0.0000  0.0000  0.0000  0.0000  0.0000
  27.     0.0000  0.0000  0.0000  0.0000  0.0000
  28.     0.0000  0.0000  0.0000  0.0000  0.0000
  29.     0.0000  0.0000  0.0000  0.0000  0.0000
  30.     0.0000  0.0000  0.0000  0.0000  0.0000
  31.     0.0000  0.0000  0.0000  0.0000  0.0000
  32.     0.0000  0.0000  0.0000  0.0000  0.0000


 NATURAL POPULATIONS:  Natural atomic orbital occupancies

  NAO Atom No lang   Type(AO)    Occupancy      Energy
 -------------------------------------------------------
   1    C  1  s      Cor( 1s)     1.99999     -11.23979
   2    C  1  s      Val( 2s)     1.00798      -0.05378
   3    C  1  s      Ryd( 3s)     0.00304       1.02269
   4    C  1  px     Val( 2p)     0.99806      -0.05219
   5    C  1  px     Ryd( 3p)     0.00001       0.80132
   6    C  1  py     Val( 2p)     0.99806      -0.05219
   7    C  1  py     Ryd( 3p)     0.00001       0.80132
   8    C  1  pz     Val( 2p)     1.23204       0.07756
   9    C  1  pz     Ryd( 3p)     0.00144       1.14971
  10    C  1  dxy    Ryd( 3d)     0.00000       2.03185
  11    C  1  dxz    Ryd( 3d)     0.00193       2.28378
  12    C  1  dyz    Ryd( 3d)     0.00193       2.28378
  13    C  1  dx2y2  Ryd( 3d)     0.00000       2.03185
  14    C  1  dz2    Ryd( 3d)     0.00228       3.12043

  15    C  2  s      Cor( 1s)     1.99999     -11.23979
  16    C  2  s      Val( 2s)     1.00798      -0.05378
  17    C  2  s      Ryd( 3s)     0.00304       1.02269
  18    C  2  px     Val( 2p)     0.99806      -0.05219
  19    C  2  px     Ryd( 3p)     0.00001       0.80132
  20    C  2  py     Val( 2p)     0.99806      -0.05219
  21    C  2  py     Ryd( 3p)     0.00001       0.80132
  22    C  2  pz     Val( 2p)     1.23204       0.07756
  23    C  2  pz     Ryd( 3p)     0.00144       1.14971
  24    C  2  dxy    Ryd( 3d)     0.00000       2.03185
  25    C  2  dxz    Ryd( 3d)     0.00193       2.28378
  26    C  2  dyz    Ryd( 3d)     0.00193       2.28378
  27    C  2  dx2y2  Ryd( 3d)     0.00000       2.03185
  28    C  2  dz2    Ryd( 3d)     0.00228       3.12043

  29    H  3  s      Val( 1s)     0.75267       0.22133
  30    H  3  s      Ryd( 2s)     0.00056       0.62585

  31    H  4  s      Val( 1s)     0.75267       0.22133
  32    H  4  s      Ryd( 2s)     0.00056       0.62585


 Summary of Natural Population Analysis:

                                     Natural Population
             Natural    ---------------------------------------------
  Atom No    Charge        Core      Valence    Rydberg      Total
 --------------------------------------------------------------------
    C  1   -0.24677      1.99999     4.23614    0.01063     6.24677
    C  2   -0.24677      1.99999     4.23614    0.01063     6.24677
    H  3    0.24677      0.00000     0.75267    0.00056     0.75323
    H  4    0.24677      0.00000     0.75267    0.00056     0.75323
 ====================================================================
 * Total *  0.00000      3.99999     9.97763    0.02238    14.00000

                                 Natural Population
 ---------------------------------------------------------
   Core                       3.99999 ( 99.9997% of    4)
   Valence                    9.97763 ( 99.7763% of   10)
   Natural Minimal Basis     13.97762 ( 99.8401% of   14)
   Natural Rydberg Basis      0.02238 (  0.1599% of   14)
 ---------------------------------------------------------

    Atom No         Natural Electron Configuration
 ----------------------------------------------------------------------------
      C  1      [core]2s( 1.01)2p( 3.23)3d( 0.01)
      C  2      [core]2s( 1.01)2p( 3.23)3d( 0.01)
      H  3            1s( 0.75)
      H  4            1s( 0.75)


 PNAOs in the AO basis:

           AO          1       2       3       4       5       6       7       8
      ------------ ------- ------- ------- ------- ------- ------- ------- -------
   1.  C 1 (s)      0.9965 -0.2225 -0.0901  0.0000  0.0000  0.0000  0.0000  0.0000
   2.  C 1 (s)      0.0212  0.3757  1.6857  0.0000  0.0000  0.0000  0.0000  0.0000
   3.  C 1 (px)     0.0000  0.0000  0.0000  0.4762  1.1198  0.0000  0.0000  0.0000
   4.  C 1 (py)     0.0000  0.0000  0.0000  0.0000  0.0000  0.4762  1.1198  0.0000
   5.  C 1 (pz)     0.0000  0.0000  0.0000  0.0000  0.0000  0.0000  0.0000  0.4762
   6.  C 1 (s)     -0.0067  0.6928 -1.5683  0.0000  0.0000  0.0000  0.0000  0.0000
   7.  C 1 (px)     0.0000  0.0000  0.0000  0.6489 -1.0293  0.0000  0.0000  0.0000
   8.  C 1 (py)     0.0000  0.0000  0.0000  0.0000  0.0000  0.6489 -1.0293  0.0000
   9.  C 1 (pz)     0.0000  0.0000  0.0000  0.0000  0.0000  0.0000  0.0000  0.6489
  10.  C 1 (d5)     0.0000  0.0000  0.0000  0.0000  0.0000  0.0000  0.0000  0.0000
  11.  C 1 (d2)     0.0000  0.0000  0.0000  0.0000  0.0000  0.0000  0.0000  0.0000
  12.  C 1 (d3)     0.0000  0.0000  0.0000  0.0000  0.0000  0.0000  0.0000  0.0000
  13.  C 1 (d4)     0.0000  0.0000  0.0000  0.0000  0.0000  0.0000  0.0000  0.0000
  14.  C 1 (d1)     0.0000  0.0000  0.0000  0.0000  0.0000  0.0000  0.0000  0.0000
  15.  C 2 (s)      0.0000  0.0000  0.0000  0.0000  0.0000  0.0000  0.0000  0.0000
  16.  C 2 (s)      0.0000  0.0000  0.0000  0.0000  0.0000  0.0000  0.0000  0.0000
  17.  C 2 (px)     0.0000  0.0000  0.0000  0.0000  0.0000  0.0000  0.0000  0.0000
  18.  C 2 (py)     0.0000  0.0000  0.0000  0.0000  0.0000  0.0000  0.0000  0.0000
  19.  C 2 (pz)     0.0000  0.0000  0.0000  0.0000  0.0000  0.0000  0.0000  0.0000
  20.  C 2 (s)      0.0000  0.0000  0.0000  0.0000  0.0000  0.0000  0.0000  0.0000
  21.  C 2 (px)     0.0000  0.0000  0.0000  0.0000  0.0000  0.0000  0.0000  0.0000
  22.  C 2 (py)     0.0000  0.0000  0.0000  0.0000  0.0000  0.0000  0.0000  0.0000
  23.  C 2 (pz)     0.0000  0.0000  0.0000  0.0000  0.0000  0.0000  0.0000  0.0000
  24.  C 2 (d5)     0.0000  0.0000  0.0000  0.0000  0.0000  0.0000  0.0000  0.0000
  25.  C 2 (d2)     0.0000  0.0000  0.0000  0.0000  0.0000  0.0000  0.0000  0.0000
  26.  C 2 (d3)     0.0000  0.0000  0.0000  0.0000  0.0000  0.0000  0.0000  0.0000
  27.  C 2 (d4)     0.0000  0.0000  0.0000  0.0000  0.0000  0.0000  0.0000  0.0000
  28.  C 2 (d1)     0.0000  0.0000  0.0000  0.0000  0.0000  0.0000  0.0000  0.0000
  29.  H 3 (s)      0.0000  0.0000  0.0000  0.0000  0.0000  0.0000  0.0000  0.0000
  30.  H 3 (s)      0.0000  0.0000  0.0000  0.0000  0.0000  0.0000  0.0000  0.0000
  31.  H 4 (s)      0.0000  0.0000  0.0000  0.0000  0.0000  0.0000  0.0000  0.0000
  32.  H 4 (s)      0.0000  0.0000  0.0000  0.0000  0.0000  0.0000  0.0000  0.0000

           AO          9      10      11      12      13      14      15      16
[...]
            0.0000 0.0000 0.0000 0.0000 0.0000 0.0000 0.0000 0.7014
            0.0900 0.0000 0.0000 0.0000 0.0000 0.0000 0.0000 0.0000
            0.0000 0.0000 0.0000 0.0000
      Occupancy is 2.000 after deleting minor hybrid components
            0.0000 0.7071 0.0000 0.0000 0.0000 0.0000 0.0000 0.0000
            0.0000 0.0000 0.0000 0.0000 0.0000 0.0000 0.0000 0.7071
            0.0000 0.0000 0.0000 0.0000 0.0000 0.0000 0.0000 0.0000
            0.0000 0.0000 0.0000 0.0000
           NBO accepted:    3. Label:BD ( 1)   1   2
      Occupancy is 0.000 for antibonding component
            0.0000 0.7071 0.0000 0.0000 0.0000 0.0000 0.0000 0.0000
            0.0000 0.0000 0.0000 0.0000 0.0000 0.0000 0.0000-0.7071
            0.0000 0.0000 0.0000 0.0000 0.0000 0.0000 0.0000 0.0000
            0.0000 0.0000 0.0000 0.0000
           NBO accepted:    4. Label:BD*( 1)   1   2
      Eigenvector ( 2) has occupancy 2.00000
            0.0000-0.0900 0.7014 0.0000 0.0000 0.0000 0.0000 0.0000
            0.0000 0.0000 0.0000 0.0000 0.0000 0.0000 0.0000-0.0900
            0.7014 0.0000 0.0000 0.0000 0.0000 0.0000 0.0000 0.0000
            0.0000 0.0000 0.0000 0.0000
      Occupancy is 2.000 after deleting minor hybrid components
            0.0000 0.0000 0.7071 0.0000 0.0000 0.0000 0.0000 0.0000
            0.0000 0.0000 0.0000 0.0000 0.0000 0.0000 0.0000 0.0000
            0.7071 0.0000 0.0000 0.0000 0.0000 0.0000 0.0000 0.0000
            0.0000 0.0000 0.0000 0.0000
           NBO accepted:    5. Label:BD ( 2)   1   2
      Occupancy is 0.000 for antibonding component
            0.0000 0.0000 0.7071 0.0000 0.0000 0.0000 0.0000 0.0000
            0.0000 0.0000 0.0000 0.0000 0.0000 0.0000 0.0000 0.0000
           -0.7071 0.0000 0.0000 0.0000 0.0000 0.0000 0.0000 0.0000
            0.0000 0.0000 0.0000 0.0000
           NBO accepted:    6. Label:BD*( 2)   1   2
      Eigenvector ( 3) has occupancy 1.98843
            0.0000 0.0000 0.0000 0.7071 0.0000 0.0000 0.0000 0.0000
            0.0000 0.0000 0.0000 0.0000 0.0000 0.0000 0.0000 0.0000
            0.0000 0.7071 0.0000 0.0000 0.0000 0.0000 0.0000 0.0000
            0.0000 0.0000 0.0000 0.0000
      Occupancy is 1.988 after deleting minor hybrid components
            0.0000 0.0000 0.0000 0.7071 0.0000 0.0000 0.0000 0.0000
            0.0000 0.0000 0.0000 0.0000 0.0000 0.0000 0.0000 0.0000
            0.0000 0.7071 0.0000 0.0000 0.0000 0.0000 0.0000 0.0000
            0.0000 0.0000 0.0000 0.0000
           NBO accepted:    7. Label:BD ( 3)   1   2
      Occupancy is 0.010 for antibonding component
            0.0000 0.0000 0.0000 0.7071 0.0000 0.0000 0.0000 0.0000
            0.0000 0.0000 0.0000 0.0000 0.0000 0.0000 0.0000 0.0000
            0.0000-0.7071 0.0000 0.0000 0.0000 0.0000 0.0000 0.0000
            0.0000 0.0000 0.0000 0.0000
           NBO accepted:    8. Label:BD*( 3)   1   2
        6 eigenvector(s) stashed in permanent list

 Search of NHO DM block for the following atom(s):   1   4
      Select eigenvectors with eigenvalue > 1.900
       1.991 0.006 0.000 0.000 0.000 0.000 0.000 0.000 0.000 0.000 0.000 0.000
       0.000 0.000 0.000 0.000
      Eigenvector ( 1) has occupancy 1.99070
            0.0000 0.0000 0.0000 0.0000 0.7899 0.0000 0.0000 0.0000
            0.0000 0.0000 0.0000 0.0000 0.0000 0.0000 0.6132 0.0000
      Occupancy is 1.991 after deleting minor hybrid components
            0.0000 0.0000 0.0000 0.0000 0.7899 0.0000 0.0000 0.0000
            0.0000 0.0000 0.0000 0.0000 0.0000 0.0000 0.6132 0.0000
           NBO accepted:    9. Label:BD ( 1)   1   4
      Occupancy is 0.006 for antibonding component
            0.0000 0.0000 0.0000 0.0000-0.6132 0.0000 0.0000 0.0000
            0.0000 0.0000 0.0000 0.0000 0.0000 0.0000 0.7899 0.0000
           NBO accepted:   10. Label:BD*( 1)   1   4
        2 eigenvector(s) stashed in permanent list

 Search of NHO DM block for the following atom(s):   2   3
      Select eigenvectors with eigenvalue > 1.900
       1.991 0.006 0.000 0.000 0.000 0.000 0.000 0.000 0.000 0.000 0.000 0.000
       0.000 0.000 0.000 0.000
      Eigenvector ( 1) has occupancy 1.99070
            0.0000 0.0000 0.0000 0.0000 0.7899 0.0000 0.0000 0.0000
            0.0000 0.0000 0.0000 0.0000 0.0000 0.0000 0.6132 0.0000
      Occupancy is 1.991 after deleting minor hybrid components
            0.0000 0.0000 0.0000 0.0000 0.7899 0.0000 0.0000 0.0000
            0.0000 0.0000 0.0000 0.0000 0.0000 0.0000 0.6132 0.0000
           NBO accepted:   11. Label:BD ( 1)   2   3
      Occupancy is 0.006 for antibonding component
            0.0000 0.0000 0.0000 0.0000-0.6132 0.0000 0.0000 0.0000
            0.0000 0.0000 0.0000 0.0000 0.0000 0.0000 0.7899 0.0000
           NBO accepted:   12. Label:BD*( 1)   2   3
        2 eigenvector(s) stashed in permanent list

  2-center NBOs projected from the NHO density matrix
       0.007 electrons remain in the fully projected matrix

                            Occupancies       Lewis Structure    Low   High
         Max    Occ     -------------------  -----------------   occ   occ
  Cycle  Ctr   Thresh    Lewis   non-Lewis     CR  BD  nC  LP    (L)   (NL)
 ============================================================================
    1     2     1.90    13.96982   0.03018      2   5   0   0     0      0
 ----------------------------------------------------------------------------

 Structure accepted: No low occupancy Lewis orbitals

 -------------------------------------------------------
   Core                      3.99999 (100.000% of   4)
   Valence Lewis             9.96983 ( 99.698% of  10)
  ==================      =============================
   Total Lewis              13.96982 ( 99.784% of  14)
  -----------------------------------------------------
   Valence non-Lewis         0.02337 (  0.167% of  14)
   Rydberg non-Lewis         0.00682 (  0.049% of  14)
  ==================      =============================
   Total non-Lewis           0.03018 (  0.216% of  14)
 -------------------------------------------------------


     (Occupancy)   Bond orbital / Coefficients / Hybrids
 ------------------ Lewis ------------------------------------------------------
   1. (1.99999) CR ( 1) C  1            s(100.00%)
                                         1.0000  0.0000  0.0000  0.0000  0.0000
                                         0.0000  0.0000  0.0000  0.0000  0.0000
                                         0.0000  0.0000  0.0000  0.0000
   2. (1.99999) CR ( 1) C  2            s(100.00%)
                                         1.0000  0.0000  0.0000  0.0000  0.0000
                                         0.0000  0.0000  0.0000  0.0000  0.0000
                                         0.0000  0.0000  0.0000  0.0000
   3. (2.00000) BD ( 1) C  1- C  2
               ( 50.00%)   0.7071* C  1 s(  0.00%)p 1.00( 99.81%)d 0.00(  0.19%)
                                         0.0000  0.0000  0.0000  0.5244 -0.0020
                                         0.8503 -0.0032  0.0000  0.0000  0.0000
                                        -0.0230 -0.0373  0.0000  0.0000
               ( 50.00%)   0.7071* C  2 s(  0.00%)p 1.00( 99.81%)d 0.00(  0.19%)
                                         0.0000  0.0000  0.0000  0.5244 -0.0020
                                         0.8503 -0.0032  0.0000  0.0000  0.0000
                                         0.0230  0.0373  0.0000  0.0000
   4. (2.00000) BD ( 2) C  1- C  2
               ( 50.00%)   0.7071* C  1 s(  0.00%)p 1.00( 99.81%)d 0.00(  0.19%)
                                         0.0000  0.0000  0.0000  0.8503 -0.0032
                                        -0.5244  0.0020  0.0000  0.0000  0.0000
                                        -0.0373  0.0230  0.0000  0.0000
               ( 50.00%)   0.7071* C  2 s(  0.00%)p 1.00( 99.81%)d 0.00(  0.19%)
                                         0.0000  0.0000  0.0000  0.8503 -0.0032
                                        -0.5244  0.0020  0.0000  0.0000  0.0000
                                         0.0373 -0.0230  0.0000  0.0000
   5. (1.98843) BD ( 3) C  1- C  2
               ( 50.00%)   0.7071* C  1 s( 52.97%)p 0.89( 46.93%)d 0.00(  0.11%)
                                         0.0000  0.7272  0.0285  0.0000  0.0000
                                         0.0000  0.0000 -0.6846 -0.0254  0.0000
                                         0.0000  0.0000  0.0000  0.0328
               ( 50.00%)   0.7071* C  2 s( 52.97%)p 0.89( 46.93%)d 0.00(  0.11%)
                                         0.0000  0.7272  0.0285  0.0000  0.0000
                                         0.0000  0.0000  0.6846  0.0254  0.0000
                                         0.0000  0.0000  0.0000  0.0328
   6. (1.99070) BD ( 1) C  1- H  4
               ( 62.39%)   0.7899* C  1 s( 46.87%)p 1.13( 53.02%)d 0.00(  0.12%)
                                         0.0000  0.6843 -0.0200  0.0000  0.0000
                                         0.0000  0.0000  0.7281 -0.0092  0.0000
                                         0.0000  0.0000  0.0000  0.0341
               ( 37.61%)   0.6132* H  4 s(100.00%)
                                         1.0000  0.0034
   7. (1.99070) BD ( 1) C  2- H  3
               ( 62.39%)   0.7899* C  2 s( 46.87%)p 1.13( 53.02%)d 0.00(  0.12%)
                                         0.0000  0.6843 -0.0200  0.0000  0.0000
                                         0.0000  0.0000 -0.7281  0.0092  0.0000
                                         0.0000  0.0000  0.0000  0.0341
               ( 37.61%)   0.6132* H  3 s(100.00%)
                                         1.0000  0.0034
 ---------------- non-Lewis ----------------------------------------------------
   8. (0.00000) BD*( 1) C  1- C  2
               ( 50.00%)   0.7071* C  1 s(  0.00%)p 1.00( 99.81%)d 0.00(  0.19%)
               ( 50.00%)  -0.7071* C  2 s(  0.00%)p 1.00( 99.81%)d 0.00(  0.19%)
   9. (0.00000) BD*( 2) C  1- C  2
               ( 50.00%)   0.7071* C  1 s(  0.00%)p 1.00( 99.81%)d 0.00(  0.19%)
               ( 50.00%)  -0.7071* C  2 s(  0.00%)p 1.00( 99.81%)d 0.00(  0.19%)
  10. (0.01042) BD*( 3) C  1- C  2
               ( 50.00%)   0.7071* C  1 s( 52.97%)p 0.89( 46.93%)d 0.00(  0.11%)
                                         0.0000  0.7272  0.0285  0.0000  0.0000
                                         0.0000  0.0000 -0.6846 -0.0254  0.0000
                                         0.0000  0.0000  0.0000  0.0328
               ( 50.00%)  -0.7071* C  2 s( 52.97%)p 0.89( 46.93%)d 0.00(  0.11%)
                                         0.0000  0.7272  0.0285  0.0000  0.0000
                                         0.0000  0.0000  0.6846  0.0254  0.0000
                                         0.0000  0.0000  0.0000  0.0328
  11. (0.00648) BD*( 1) C  1- H  4
               ( 37.61%)   0.6132* C  1 s( 46.87%)p 1.13( 53.02%)d 0.00(  0.12%)
                                         0.0000 -0.6843  0.0200  0.0000  0.0000
                                         0.0000  0.0000 -0.7281  0.0092  0.0000
                                         0.0000  0.0000  0.0000 -0.0341
               ( 62.39%)  -0.7899* H  4 s(100.00%)
                                        -1.0000 -0.0034
  12. (0.00648) BD*( 1) C  2- H  3
               ( 37.61%)   0.6132* C  2 s( 46.87%)p 1.13( 53.02%)d 0.00(  0.12%)
                                         0.0000 -0.6843  0.0200  0.0000  0.0000
                                         0.0000  0.0000  0.7281 -0.0092  0.0000
                                         0.0000  0.0000  0.0000 -0.0341
               ( 62.39%)  -0.7899* H  3 s(100.00%)
                                        -1.0000 -0.0034
  13. (0.00284) RY ( 1) C  1            s( 67.82%)p 0.47( 31.78%)d 0.01(  0.39%)
                                         0.0000 -0.0228  0.8232  0.0000  0.0000
                                         0.0000  0.0000  0.0339 -0.5627  0.0000
                                         0.0000  0.0000  0.0000  0.0628
  14. (0.00000) RY ( 2) C  1            s(  0.54%)p 7.35(  3.96%)d99.99( 95.50%)
  15. (0.00000) RY ( 3) C  1            s(  0.00%)p 1.00( 93.40%)d 0.07(  6.60%)
  16. (0.00000) RY ( 4) C  1            s(  0.00%)p 1.00( 10.27%)d 8.73( 89.73%)
  17. (0.00000) RY ( 5) C  1            s(  0.00%)p 0.00(  0.00%)d 1.00(100.00%)
  18. (0.00000) RY ( 6) C  1            s(  0.00%)p 0.00(  0.00%)d 1.00(100.00%)
  19. (0.00000) RY ( 7) C  1            s(  0.00%)p 1.00(  6.77%)d13.77( 93.23%)
  20. (0.00000) RY ( 8) C  1            s( 31.81%)p 2.02( 64.31%)d 0.12(  3.88%)
  21. (0.00000) RY ( 9) C  1            s(  0.00%)p 1.00( 89.95%)d 0.11( 10.05%)
  22. (0.00284) RY ( 1) C  2            s( 67.82%)p 0.47( 31.78%)d 0.01(  0.39%)
                                         0.0000 -0.0228  0.8232  0.0000  0.0000
                                         0.0000  0.0000 -0.0339  0.5627  0.0000
                                         0.0000  0.0000  0.0000  0.0628
  23. (0.00000) RY ( 2) C  2            s(  0.54%)p 7.35(  3.96%)d99.99( 95.50%)
  24. (0.00000) RY ( 3) C  2            s(  0.00%)p 0.00(  0.00%)d 1.00(100.00%)
  25. (0.00000) RY ( 4) C  2            s(  0.00%)p 0.00(  0.00%)d 1.00(100.00%)
  26. (0.00000) RY ( 5) C  2            s(  0.00%)p 1.00(  3.79%)d25.40( 96.21%)
  27. (0.00000) RY ( 6) C  2            s(  0.00%)p 1.00( 26.82%)d 2.73( 73.18%)
  28. (0.00000) RY ( 7) C  2            s(  0.00%)p 1.00( 96.39%)d 0.04(  3.61%)
  29. (0.00000) RY ( 8) C  2            s( 31.81%)p 2.02( 64.31%)d 0.12(  3.88%)
  30. (0.00000) RY ( 9) C  2            s(  0.00%)p 1.00( 73.38%)d 0.36( 26.62%)
  31. (0.00057) RY ( 1) H  3            s(100.00%)
                                        -0.0034  1.0000
  32. (0.00057) RY ( 1) H  4            s(100.00%)
                                        -0.0034  1.0000


 NHO DIRECTIONALITY AND BOND BENDING (deviation from line of nuclear centers at
                                      the position of maximum hybrid amplitude)

         [Thresholds for printing:  angular deviation  >  1.0 degree]
                                    p- or d-character  > 25.0%
                                    orbital occupancy  >  0.10e

                        Line of Centers        Hybrid 1             Hybrid 2
                        ---------------  -------------------  ------------------
           NBO            Theta   Phi    Theta   Phi    Dev   Theta   Phi    Dev
 ===============================================================================
   3. BD ( 1) C  1- C  2  180.0    0.0    91.6   58.3  88.4    88.4   58.3  88.4
   4. BD ( 2) C  1- C  2  180.0    0.0    91.6  328.3  88.4    88.4  328.3  88.4


 SECOND ORDER PERTURBATION THEORY ANALYSIS OF FOCK MATRIX IN NBO BASIS

     Threshold for printing:   0.50 kcal/mol
                                                          E(2) E(NL)-E(L) F(L,NL)
      Donor (L) NBO              Acceptor (NL) NBO      kcal/mol   a.u.    a.u.
 ===============================================================================

 within unit  1
    5. BD ( 3) C  1- C  2      11. BD*( 1) C  1- H  4      5.53    1.73   0.087
    5. BD ( 3) C  1- C  2      12. BD*( 1) C  2- H  3      5.53    1.73   0.087
    6. BD ( 1) C  1- H  4      10. BD*( 3) C  1- C  2      7.00    2.11   0.108
    6. BD ( 1) C  1- H  4      12. BD*( 1) C  2- H  3      3.27    1.52   0.063
    6. BD ( 1) C  1- H  4      22. RY ( 1) C  2            3.04    1.92   0.068
    7. BD ( 1) C  2- H  3      10. BD*( 3) C  1- C  2      7.00    2.11   0.108
    7. BD ( 1) C  2- H  3      11. BD*( 1) C  1- H  4      3.27    1.52   0.063
    7. BD ( 1) C  2- H  3      13. RY ( 1) C  1            3.04    1.92   0.068


 NATURAL BOND ORBITALS (Summary):

                                                     Principal Delocalizations
           NBO                 Occupancy    Energy   (geminal,vicinal,remote)
 ===============================================================================
 Molecular unit  1  (C2H2)
 ------ Lewis --------------------------------------
    1. CR ( 1) C  1             1.99999   -11.23979
    2. CR ( 1) C  2             1.99999   -11.23979
    3. BD ( 1) C  1- C  2       2.00000    -0.39725
    4. BD ( 2) C  1- C  2       2.00000    -0.39725
    5. BD ( 3) C  1- C  2       1.98843    -0.94391  11(g),12(g)
    6. BD ( 1) C  1- H  4       1.99070    -0.73705  10(g),12(v),22(v)
    7. BD ( 1) C  2- H  3       1.99070    -0.73705  10(g),11(v),13(v)
 ------ non-Lewis ----------------------------------
    8. BD*( 1) C  1- C  2       0.00000     0.30180
    9. BD*( 2) C  1- C  2       0.00000     0.30180
   10. BD*( 3) C  1- C  2       0.01042     1.37249
   11. BD*( 1) C  1- H  4       0.00648     0.78721
   12. BD*( 1) C  2- H  3       0.00648     0.78721
   13. RY ( 1) C  1             0.00284     1.17810
   14. RY ( 2) C  1             0.00000     2.98945
   15. RY ( 3) C  1             0.00000     0.88204
   16. RY ( 4) C  1             0.00000     2.10761
   17. RY ( 5) C  1             0.00000     2.03185
   18. RY ( 6) C  1             0.00000     2.03185
   19. RY ( 7) C  1             0.00000     2.19910
   20. RY ( 8) C  1             0.00000     1.10800
   21. RY ( 9) C  1             0.00000     0.97253
   22. RY ( 1) C  2             0.00284     1.17810
   23. RY ( 2) C  2             0.00000     2.98945
   24. RY ( 3) C  2             0.00000     2.03185
   25. RY ( 4) C  2             0.00000     2.03185
   26. RY ( 5) C  2             0.00000     2.21184
   27. RY ( 6) C  2             0.00000     1.91650
   28. RY ( 7) C  2             0.00000     0.86900
   29. RY ( 8) C  2             0.00000     1.10800
   30. RY ( 9) C  2             0.00000     1.16393
   31. RY ( 1) H  3             0.00057     0.62381
   32. RY ( 1) H  4             0.00057     0.62381
          -------------------------------
                 Total Lewis   13.96982  ( 99.7844%)
           Valence non-Lewis    0.02337  (  0.1669%)
           Rydberg non-Lewis    0.00682  (  0.0487%)
          -------------------------------
               Total unit  1   14.00000  (100.0000%)
              Charge unit  1    0.00000

 $CHOOSE
   BOND T 1 2 S 1 4 S 2 3 END
 $END

 NBO analysis completed in 0.35 CPU seconds (0 wall seconds)
 Maximum scratch memory used by NBO was 320749 words (2.45 MB)
 Maximum scratch memory used by G16NBO was 9846 words (0.08 MB)

 Opening RunExU unformatted file "/cluster/work/users/beto93/mol23/Gau-1468605.EUF"
 Read unf file /cluster/work/users/beto93/mol23/Gau-1468605.EUF:
 Label Gaussian matrix elements                                         IVers= 2 NLab= 2 Version=ES64L-G16RevC.01
 Title mol23-NBO                                                       
 NAtoms=     4 NBasis=    32 NBsUse=    32 ICharg=     0 Multip=     1 NE=    14 Len12L=8 Len4L=8 IOpCl= 0 ICGU=111
 GAUSSIAN SCALARS                    NI= 1 NR= 1 NTot=       1 LenBuf=    2 NRI=1 N=    1000
 NPA CHARGES                         NI= 0 NR= 1 NTot=       4 LenBuf= 4000 NRI=1 N=       4
 Recovered energy= -76.8151348775     dipole=      0.000000000000      0.000000000000      0.000000000000
 Unable to Open any file for archive entry.
 1\1\GINC-C3-16\SP\RHF\6-31G(d)\C2H2\BETO93\18-Nov-2024\0\\#RHF/6-31G* 
 int=nobasistransform Symmetry=None 5D 7F Pop=NBO7Read\\mol23-NBO\\0,1\
 C,0,0.,0.,0.60808\C,0,0.,0.,-0.60808\H,0,0.,0.,-1.67399\H,0,0.,0.,1.67
 399\\Version=ES64L-G16RevC.01\HF=-76.8151349\RMSD=3.642e-10\Dipole=0.,
 0.,0.\Quadrupole=-1.7467154,-1.7467154,3.4934308,0.,0.,0.\PG=Unknown\\
 @
 The archive entry for this job was punched.


 FIREWORKS ENDED
 AND SPECTATORS GONE AWAY....
 AH, HOW VAST AND DARK
                     SHIKI
 Job cpu time:       0 days  0 hours  0 minutes  8.4 seconds.
 Elapsed time:       0 days  0 hours  0 minutes  2.8 seconds.
 File lengths (MBytes):  RWF=     10 Int=      0 D2E=      0 Chk=      1 Scr=      1
 Normal termination of Gaussian 16 at Mon Nov 18 16:40:09 2024.
