 Entering Gaussian System, Link 0=g16
 Initial command:
 /cluster/software/Gaussian/g16_C.01/l1.exe "/cluster/work/users/beto93/mol25/Gau-1107431.inp" -scrdir="/cluster/work/users/beto93/mol25/"
 Entering Link 1 = /cluster/software/Gaussian/g16_C.01/l1.exe PID=   1107434.
  
 Copyright (c) 1988-2019, Gaussian, Inc.  All Rights Reserved.
  
 This is part of the Gaussian(R) 16 program.  It is based on
 the Gaussian(R) 09 system (copyright 2009, Gaussian, Inc.),
 the Gaussian(R) 03 system (copyright 2003, Gaussian, Inc.),
 the Gaussian(R) 98 system (copyright 1998, Gaussian, Inc.),
 the Gaussian(R) 94 system (copyright 1995, Gaussian, Inc.),
 the Gaussian 92(TM) system (copyright 1992, Gaussian, Inc.),
 the Gaussian 90(TM) system (copyright 1990, Gaussian, Inc.),
 the Gaussian 88(TM) system (copyright 1988, Gaussian, Inc.),
 the Gaussian 86(TM) system (copyright 1986, Carnegie Mellon
 University), and the Gaussian 82(TM) system (copyright 1983,
 Carnegie Mellon University). Gaussian is a federally registered
 trademark of Gaussian, Inc.
  
 This software contains proprietary and confidential information,
 including trade secrets, belonging to Gaussian, Inc.
  
 This software is provided under written license and may be
 used, copied, transmitted, or stored only in accord with that
 written license.
  
 The following legend is applicable only to US Government
 contracts under FAR:
  
                    RESTRICTED RIGHTS LEGEND
  
 Use, reproduction and disclosure by the US Government is
 subject to restrictions as set forth in subparagraphs (a)
 and (c) of the Commercial Computer Software - Restricted
 Rights clause in FAR 52.227-19.
  
 Gaussian, Inc.
 340 Quinnipiac St., Bldg. 40, Wallingford CT 06492
  
  
 ---------------------------------------------------------------
 Warning -- This program may not be used in any manner that
 competes with the business of Gaussian, Inc. or will provide
 assistance to any competitor of Gaussian, Inc.  The licensee
 of this program is prohibited from giving any competitor of
 Gaussian, Inc. access to this program.  By using this program,
 the user acknowledges that Gaussian, Inc. is engaged in the
 business of creating and licensing software in the field of
 computational chemistry and represents and warrants to the
 licensee that it is not a competitor of Gaussian, Inc. and that
 it will not use this program in any manner prohibited above.
 ---------------------------------------------------------------
  

 Cite this work as:
 Gaussian 16, Revision C.01,
 M. J. Frisch, G. W. Trucks, H. B. Schlegel, G. E. Scuseria, 
 M. A. Robb, J. R. Cheeseman, G. Scalmani, V. Barone, 
 G. A. Petersson, H. Nakatsuji, X. Li, M. Caricato, A. V. Marenich, 
 J. Bloino, B. G. Janesko, R. Gomperts, B. Mennucci, H. P. Hratchian, 
 J. V. Ortiz, A. F. Izmaylov, J. L. Sonnenberg, D. Williams-Young, 
 F. Ding, F. Lipparini, F. Egidi, J. Goings, B. Peng, A. Petrone, 
 T. Henderson, D. Ranasinghe, V. G. Zakrzewski, J. Gao, N. Rega, 
 G. Zheng, W. Liang, M. Hada, M. Ehara, K. Toyota, R. Fukuda, 
 J. Hasegawa, M. Ishida, T. Nakajima, Y. Honda, O. Kitao, H. Nakai, 
 T. Vreven, K. Throssell, J. A. Montgomery, Jr., J. E. Peralta, 
 F. Ogliaro, M. J. Bearpark, J. J. Heyd, E. N. Brothers, K. N. Kudin, 
 V. N. Staroverov, T. A. Keith, R. Kobayashi, J. Normand, 
 K. Raghavachari, A. P. Rendell, J. C. Burant, S. S. Iyengar, 
 J. Tomasi, M. Cossi, J. M. Millam, M. Klene, C. Adamo, R. Cammi, 
 J. W. Ochterski, R. L. Martin, K. Morokuma, O. Farkas, 
 J. B. Foresman, and D. J. Fox, Gaussian, Inc., Wallingford CT, 2019.
 
 ******************************************
 Gaussian 16:  ES64L-G16RevC.01  3-Jul-2019
                18-Nov-2024 
 ******************************************
 %LindaWorkers=c2-6-ib
 %NProcShared=4
 Will use up to    4 processors via shared memory.
 %mem=25GB
 %chk=mol25.chk
 SetLPE:    new flags="-opt 'Tsnet.Node.lindarsharg: ssh'  -nodelist 'c2-6-ib.saga' -env GAUSS_MDEF=3355443200 -env GAUSS_EXEDIR="/cluster/software/Gaussian/g16_C.01/bsd:/cluster/software/Gaussian/g16_C.01""
 Will use up to    1 processors via Linda.
 -----------------------------------------------------------------
 #RHF/STO-3G int=nobasistransform Symmetry=None 5D 7F Pop=NBO7Read
 -----------------------------------------------------------------
 1/38=1,163=2,172=1/1;
 2/12=2,15=3,17=6,18=5,40=1/2;
 3/6=3,8=11,11=1,25=1,30=1,60=-1,116=1/1,2,3;
 4//1;
 5/5=2,38=5/2;
 6/7=2,8=2,9=2,10=2,28=1,40=2,113=1,114=1,124=2103/1,12;
 99/5=1,9=1/99;
 ---------
 mol25-NBO
 ---------
 Symbolic Z-matrix:
 Charge =  0 Multiplicity = 1
 C                     0.        0.        0.76221 
 C                     0.        0.       -0.76221 
 H                     0.        1.01896   1.15723 
 H                    -0.88244  -0.50948   1.15723 
 H                     0.88244  -0.50948   1.15723 
 H                     0.       -1.01896  -1.15723 
 H                    -0.88244   0.50948  -1.15723 
 H                     0.88244   0.50948  -1.15723 
 
                          Input orientation:                          
 ---------------------------------------------------------------------
 Center     Atomic      Atomic             Coordinates (Angstroms)
 Number     Number       Type             X           Y           Z
 ---------------------------------------------------------------------
      1          6           0        0.000000    0.000000    0.762209
      2          6           0        0.000000    0.000000   -0.762209
      3          1           0        0.000000    1.018957    1.157229
      4          1           0       -0.882443   -0.509479    1.157229
      5          1           0        0.882443   -0.509479    1.157229
      6          1           0        0.000000   -1.018957   -1.157229
      7          1           0       -0.882443    0.509479   -1.157229
      8          1           0        0.882443    0.509479   -1.157229
 ---------------------------------------------------------------------
                    Distance matrix (angstroms):
                    1          2          3          4          5
     1  C    0.000000
     2  C    1.524418   0.000000
     3  H    1.092847   2.173135   0.000000
     4  H    1.092847   2.173135   1.764886   0.000000
     5  H    1.092847   2.173135   1.764886   1.764886   0.000000
     6  H    2.173135   1.092847   3.083798   2.528832   2.528832
     7  H    2.173135   1.092847   2.528832   2.528832   3.083799
     8  H    2.173135   1.092847   2.528832   3.083799   2.528832
                    6          7          8
     6  H    0.000000
     7  H    1.764886   0.000000
     8  H    1.764886   1.764886   0.000000
 Symmetry turned off by external request.
 Stoichiometry    C2H6
 Rotational constants (GHZ):          80.4949762          20.0704559          20.0704555
 Standard basis: STO-3G (5D, 7F)
    16 basis functions,    48 primitive gaussians,    16 cartesian basis functions
     9 alpha electrons        9 beta electrons
       nuclear repulsion energy        42.2643739574 Hartrees.
 NAtoms=    8 NActive=    8 NUniq=    8 SFac= 1.00D+00 NAtFMM=   60 NAOKFM=F Big=F
 Integral buffers will be    131072 words long.
 Raffenetti 1 integral format.
 Two-electron integral symmetry is turned off.
 One-electron integrals computed using PRISM.
 NBasis=    16 RedAO= T EigKep=  2.07D-01  NBF=    16
 NBsUse=    16 1.00D-06 EigRej= -1.00D+00 NBFU=    16
 ExpMin= 1.69D-01 ExpMax= 7.16D+01 ExpMxC= 7.16D+01 IAcc=3 IRadAn=         5 AccDes= 0.00D+00
 Harris functional with IExCor=  205 and IRadAn=       5 diagonalized for initial guess.
 HarFok:  IExCor=  205 AccDes= 0.00D+00 IRadAn=         5 IDoV= 1 UseB2=F ITyADJ=14
 ICtDFT=  3500011 ScaDFX=  1.000000  1.000000  1.000000  1.000000
 FoFCou: FMM=F IPFlag=           0 FMFlag=      100000 FMFlg1=           0
         NFxFlg=           0 DoJE=T BraDBF=F KetDBF=T FulRan=T
         wScrn=  0.000000 ICntrl=       500 IOpCl=  0 I1Cent=   200000004 NGrid=           0
         NMat0=    1 NMatS0=      1 NMatT0=    0 NMatD0=    1 NMtDS0=    0 NMtDT0=    0
 Symmetry not used in FoFCou.
 Keep R1 ints in memory in canonical form, NReq=818342.
 Requested convergence on RMS density matrix=1.00D-08 within 128 cycles.
 Requested convergence on MAX density matrix=1.00D-06.
 Requested convergence on             energy=1.00D-06.
 No special actions if energy rises.
 SCF Done:  E(RHF) =  -78.3057905928     A.U. after    7 cycles
            NFock=  7  Conv=0.67D-08     -V/T= 2.0084

 **********************************************************************

            Population analysis using the SCF Density.

 **********************************************************************

 Alpha  occ. eigenvalues --  -11.03621 -11.03592  -0.98151  -0.80886  -0.57006
 Alpha  occ. eigenvalues --   -0.57006  -0.47634  -0.45601  -0.45601
 Alpha virt. eigenvalues --    0.64485   0.64485   0.70160   0.73271   0.77367
 Alpha virt. eigenvalues --    0.78450   0.78450
          Condensed to atoms (all electrons):
               1          2          3          4          5          6
     1  C    4.716701   0.365740   0.383314   0.383314   0.383314  -0.020607
     2  C    0.365740   4.716701  -0.020607  -0.020607  -0.020607   0.383314
     3  H    0.383314  -0.020607   0.626804  -0.021953  -0.021953   0.001851
     4  H    0.383314  -0.020607  -0.021953   0.626804  -0.021953  -0.002155
     5  H    0.383314  -0.020607  -0.021953  -0.021953   0.626804  -0.002155
     6  H   -0.020607   0.383314   0.001851  -0.002155  -0.002155   0.626804
     7  H   -0.020607   0.383314  -0.002155  -0.002155   0.001851  -0.021953
     8  H   -0.020607   0.383314  -0.002155   0.001851  -0.002155  -0.021953
               7          8
     1  C   -0.020607  -0.020607
     2  C    0.383314   0.383314
     3  H   -0.002155  -0.002155
     4  H   -0.002155   0.001851
     5  H    0.001851  -0.002155
     6  H   -0.021953  -0.021953
     7  H    0.626804  -0.021953
     8  H   -0.021953   0.626804
 Mulliken charges:
               1
     1  C   -0.170562
     2  C   -0.170562
     3  H    0.056854
     4  H    0.056854
     5  H    0.056854
     6  H    0.056854
     7  H    0.056854
     8  H    0.056854
 Sum of Mulliken charges =   0.00000
 Mulliken charges with hydrogens summed into heavy atoms:
               1
     1  C    0.000000
     2  C    0.000000
 Electronic spatial extent (au):  <R**2>=            107.4354
 Charge=              0.0000 electrons
 Dipole moment (field-independent basis, Debye):
    X=             -0.0000    Y=              0.0000    Z=              0.0000  Tot=              0.0000
 Quadrupole moment (field-independent basis, Debye-Ang):
   XX=            -14.0427   YY=            -14.0427   ZZ=            -14.4166
   XY=              0.0000   XZ=             -0.0000   YZ=             -0.0000
 Traceless Quadrupole moment (field-independent basis, Debye-Ang):
   XX=              0.1246   YY=              0.1246   ZZ=             -0.2492
   XY=              0.0000   XZ=             -0.0000   YZ=             -0.0000
 Octapole moment (field-independent basis, Debye-Ang**2):
  XXX=             -0.0000  YYY=              0.0000  ZZZ=              0.0000  XYY=             -0.0000
  XXY=             -0.0000  XXZ=              0.0000  XZZ=             -0.0000  YZZ=              0.0000
  YYZ=              0.0000  XYZ=              0.0000
 Hexadecapole moment (field-independent basis, Debye-Ang**3):
 XXXX=            -25.0846 YYYY=            -25.0846 ZZZZ=            -84.8549 XXXY=              0.0000
 XXXZ=             -0.0000 YYYX=              0.0000 YYYZ=              1.1472 ZZZX=             -0.0000
 ZZZY=              0.0000 XXYY=             -8.3615 XXZZ=            -17.2208 YYZZ=            -17.2208
 XXYZ=             -1.1472 YYXZ=             -0.0000 ZZXY=              0.0000
 N-N= 4.226437395740D+01 E-N=-2.660128694251D+02  KE= 7.765449053129D+01
 Running external command "gaunbo7 R"
         input file       "/cluster/work/users/beto93/mol25/Gau-1107434.EIn"
         output file      "/cluster/work/users/beto93/mol25/Gau-1107434.EOu"
         message file     "/cluster/work/users/beto93/mol25/Gau-1107434.EMs"
         fchk file        "/cluster/work/users/beto93/mol25/Gau-1107434.EFC"
         mat. el file     "/cluster/work/users/beto93/mol25/Gau-1107434.EUF"

 Writing WrtUnf unformatted file "/cluster/work/users/beto93/mol25/Gau-1107434.EUF"
 Gaussian matrix elements                                         Version   2 NLab=11 Len12L=8 Len4L=8
 Write SHELL TO ATOM MAP                   from file      0 offset           0 length                  10 to matrix element file.
 Write SHELL TYPES                         from file      0 offset           0 length                  10 to matrix element file.
 Write NUMBER OF PRIMITIVES PER SHELL      from file      0 offset           0 length                  10 to matrix element file.
 Write PRIMITIVE EXPONENTS                 from file      0 offset           0 length                  30 to matrix element file.
 Write CONTRACTION COEFFICIENTS            from file      0 offset           0 length                  30 to matrix element file.
 Write P(S=P) CONTRACTION COEFFICIENTS     from file      0 offset           0 length                  30 to matrix element file.
 Write COORDINATES OF EACH SHELL           from file      0 offset           0 length                  30 to matrix element file.
 Write BONDS PER ATOM                      from file      0 offset           0 length                   8 to matrix element file.
 Write BONDED ATOMS                        from file      0 offset           0 length                  14 to matrix element file.
 Write BOND TYPES                          from file      0 offset           0 length                  14 to matrix element file.
 Write ONIOM CHARGE/MULT                   from file      0 offset           0 length                  32 to matrix element file.
 Write ONIOM ATOM LAYERS                   from file      0 offset           0 length                   8 to matrix element file.
 Write ONIOM ATOM MODIFIERS                from file      0 offset           0 length                   8 to matrix element file.
 Write ONIOM ATOM TYPES                    from file      0 offset           0 length                   8 to matrix element file.
 Write ONIOM LINK ATOMS                    from file      0 offset           0 length                   8 to matrix element file.
 Write ONIOM LINK CHARGES                  from file      0 offset           0 length                   8 to matrix element file.
 Write ONIOM LINK DISTANCES                from file      0 offset           0 length                  32 to matrix element file.
 Write SYMINF INTS                         from file      0 offset           0 length                  26 to matrix element file.
 Write ROTTR TO SO                         from file      0 offset           0 length                  12 to matrix element file.
 Write GAUSSIAN SCALARS                    from file    501 offset           0 to matrix element file.
 Write OPTIMIZATION FLAGS                  from file      0 offset           0 length                   8 to matrix element file.
 Write INTEGER ISO                         from file      0 offset           0 length                   8 to matrix element file.
 Write INTEGER SPIN                        from file      0 offset           0 length                   8 to matrix element file.
 Write REAL ZEFFECTIVE                     from file      0 offset           0 length                   8 to matrix element file.
 Write REAL GFACTOR                        from file      0 offset           0 length                   8 to matrix element file.
 Write REAL ZNUCLEAR                       from file      0 offset           0 length                   8 to matrix element file.
 Write MULLIKEN CHARGES                    from file      0 offset           0 length                   8 to matrix element file.
 Write NUCLEAR GRADIENT                    from file  10584 offset           0 length                  24 to matrix element file.
 Array NUCLEAR FORCE CONSTANTS              on  file  10585 does not exist.
 Write ELECTRIC DIPOLE MOMENT              from file      0 offset           0 length                   3 to matrix element file.
 Write NON-ADIABATIC COUPLING              from file  10810 offset           0 length                  24 to matrix element file.
 Write FINITE EM FIELD                     from file  10521 offset           0 length                  35 to matrix element file.
 Write OVERLAP                             from file  10514 offset           0 length                 136 to matrix element file.
 Write CORE HAMILTONIAN ALPHA              from file  10515 offset           0 length                 136 to matrix element file.
 Write CORE HAMILTONIAN BETA               from file  10515 offset         136 length                 136 to matrix element file.
 Write KINETIC ENERGY                      from file  10516 offset           0 length                 136 to matrix element file.
 Write ORTHOGONAL BASIS                    from file  10685 offset           0 length                 256 to matrix element file.
 Write DIPOLE INTEGRALS                    from file  10518 offset           0 length                 408 to matrix element file.
 Array DIP VEL INTEGRALS                    on  file  10572 does not exist.
 Array R X DEL INTEGRALS                    on  file  10572 does not exist.
 Write ALPHA ORBITAL ENERGIES              from file      0 offset           0 length                  16 to matrix element file.
 Write ALPHA MO COEFFICIENTS               from file  10524 offset           0 length                 256 to matrix element file.
 Write ALPHA DENSITY MATRIX                from file      0 offset           0 length                 136 to matrix element file.
 Write ALPHA FOCK MATRIX                   from file  10536 offset           0 length                 136 to matrix element file.
 Write ENERGY-WEIGHTED DENSITY             from file  10571 offset           0 length                 136 to matrix element file.
 Write ALPHA SCF DENSITY MATRIX            from file      0 offset           0 length                 136 to matrix element file.
 No 2e integrals to process.
 Perform NBO analysis...executing G16NBO...

 *********************************** NBO 7.0 ***********************************
             N A T U R A L   A T O M I C   O R B I T A L   A N D
          N A T U R A L   B O N D   O R B I T A L   A N A L Y S I S
 **************************** Espen Tangen (S101595) ***************************
  (c) Copyright 1996-2021 Board of Regents of the University of Wisconsin System
      on behalf of the Theoretical Chemistry Institute.  All rights reserved.

          Cite this program [NBO 7.0.10 (8-Feb-2021)] as:

          NBO 7.0.  E. D. Glendening, J. K. Badenhoop, A. E. Reed,
          J. E. Carpenter, J. A. Bohmann, C. M. Morales, P. Karafiloglou,
          C. R. Landis, and F. Weinhold, Theoretical Chemistry Institute,
          University of Wisconsin, Madison, WI (2018)

       /NPA    / : Natural Population Analysis
       /AOPNAO / : Print the AO to PNAO transformation
       /AONAO  / : Print the AO to NAO transformation
       /AOMO   / : Print the MOs in the AO basis
       /BOAO   / : Print the AO bond-order matrix
       /DMAO   / : Print the AO density matrix
       /DMPNAO / : Print the PNAO density matrix
       /DMNAO  / : Print the NAO density matrix
       /DMMO   / : Print the MO density matrix
       /SAO    / : Print the AO overlap matrix
       /SPNAO  / : Print the PNAO overlap matrix
       /DETAIL / : Write details of NBO search
       /ARCHIVE/ : Write the archive file to lfn47
       /AOINFO / : Write AO information to lfn31
       /FILE   / : Set to mol25.gen*

 Filename set to mol25.gen1

 Job title: mol25-NBO


 MOs in the AO basis:

           AO          1       2       3       4       5       6       7       8
      ------------ ------- ------- ------- ------- ------- ------- ------- -------
   1.  C 1 (s)      0.7011  0.7018 -0.1660 -0.1449  0.0000  0.0000  0.0215  0.0000
   2.  C 1 (s)      0.0307  0.0226  0.4559  0.4375  0.0000  0.0000 -0.0880  0.0000
   3.  C 1 (px)     0.0000  0.0000  0.0000  0.0000  0.0000  0.4018  0.0000  0.0000
   4.  C 1 (py)     0.0000  0.0000  0.0000  0.0000  0.4018  0.0000  0.0000  0.4059
   5.  C 1 (pz)    -0.0028  0.0033 -0.0620  0.1502  0.0000  0.0000  0.5380  0.0000
   6.  C 2 (s)     -0.7011  0.7018 -0.1660  0.1449  0.0000  0.0000  0.0215  0.0000
   7.  C 2 (s)     -0.0307  0.0226  0.4559 -0.4375  0.0000  0.0000 -0.0880  0.0000
   8.  C 2 (px)     0.0000  0.0000  0.0000  0.0000  0.0000  0.4018  0.0000  0.0000
   9.  C 2 (py)     0.0000  0.0000  0.0000  0.0000  0.4018  0.0000  0.0000 -0.4059
  10.  C 2 (pz)    -0.0028 -0.0033  0.0620  0.1502  0.0000  0.0000 -0.5380  0.0000
  11.  H 3 (s)     -0.0050 -0.0049  0.1104  0.1693  0.3126  0.0000  0.1461  0.3917
  12.  H 4 (s)     -0.0050 -0.0049  0.1104  0.1693 -0.1563 -0.2707  0.1461 -0.1959
  13.  H 5 (s)     -0.0050 -0.0049  0.1104  0.1693 -0.1563  0.2707  0.1461 -0.1959
  14.  H 6 (s)      0.0050 -0.0049  0.1104 -0.1693 -0.3126  0.0000  0.1461  0.3917
  15.  H 7 (s)      0.0050 -0.0049  0.1104 -0.1693  0.1563 -0.2707  0.1461 -0.1959
  16.  H 8 (s)      0.0050 -0.0049  0.1104 -0.1693  0.1563  0.2707  0.1461 -0.1959

           AO          9      10      11      12      13      14      15      16
      ------------ ------- ------- ------- ------- ------- ------- ------- -------
   1.  C 1 (s)      0.0000  0.0000  0.0000  0.0931 -0.1490 -0.1813  0.0000  0.0000
   2.  C 1 (s)      0.0000  0.0000  0.0000 -0.5432  0.9588  1.1482  0.0000  0.0000
   3.  C 1 (px)     0.4059  0.7132  0.0000  0.0000  0.0000  0.0000  0.8515  0.0000
   4.  C 1 (py)     0.0000  0.0000 -0.7132  0.0000  0.0000  0.0000  0.0000  0.8515
   5.  C 1 (pz)     0.0000  0.0000  0.0000  0.9964  0.4455  0.1737  0.0000  0.0000
   6.  C 2 (s)      0.0000  0.0000  0.0000 -0.0931 -0.1490  0.1813  0.0000  0.0000
   7.  C 2 (s)      0.0000  0.0000  0.0000  0.5432  0.9588 -1.1482  0.0000  0.0000
   8.  C 2 (px)    -0.4059  0.7132  0.0000  0.0000  0.0000  0.0000 -0.8515  0.0000
   9.  C 2 (py)     0.0000  0.0000 -0.7132  0.0000  0.0000  0.0000  0.0000 -0.8515
  10.  C 2 (pz)     0.0000  0.0000  0.0000  0.9964 -0.4455  0.1737  0.0000  0.0000
  11.  H 3 (s)      0.0000  0.0000  0.7147 -0.0794 -0.5190 -0.5381  0.0000 -0.6829
  12.  H 4 (s)     -0.3392  0.6189 -0.3573 -0.0794 -0.5190 -0.5381  0.5914  0.3415
  13.  H 5 (s)      0.3392 -0.6189 -0.3573 -0.0794 -0.5190 -0.5381 -0.5914  0.3415
  14.  H 6 (s)      0.0000  0.0000 -0.7147  0.0794 -0.5190  0.5381  0.0000 -0.6829
  15.  H 7 (s)      0.3392  0.6189  0.3573  0.0794 -0.5190  0.5381 -0.5914  0.3415
  16.  H 8 (s)     -0.3392 -0.6189  0.3573  0.0794 -0.5190  0.5381  0.5914  0.3415


 AO overlap matrix:

           AO          1       2       3       4       5       6       7       8
      ------------ ------- ------- ------- ------- ------- ------- ------- -------
   1.  C 1 (s)      1.0000  0.2484  0.0000  0.0000  0.0000  0.0000  0.0277  0.0000
   2.  C 1 (s)      0.2484  1.0000  0.0000  0.0000  0.0000  0.0277  0.3055  0.0000
   3.  C 1 (px)     0.0000  0.0000  1.0000  0.0000  0.0000  0.0000  0.0000  0.1693
   4.  C 1 (py)     0.0000  0.0000  0.0000  1.0000  0.0000  0.0000  0.0000  0.0000
   5.  C 1 (pz)     0.0000  0.0000  0.0000  0.0000  1.0000 -0.0463 -0.3422  0.0000
   6.  C 2 (s)      0.0000  0.0277  0.0000  0.0000 -0.0463  1.0000  0.2484  0.0000
   7.  C 2 (s)      0.0277  0.3055  0.0000  0.0000 -0.3422  0.2484  1.0000  0.0000
   8.  C 2 (px)     0.0000  0.0000  0.1693  0.0000  0.0000  0.0000  0.0000  1.0000
   9.  C 2 (py)     0.0000  0.0000  0.0000  0.1693  0.0000  0.0000  0.0000  0.0000
  10.  C 2 (pz)     0.0463  0.3422  0.0000  0.0000 -0.3164  0.0000  0.0000  0.0000
  11.  H 3 (s)      0.0619  0.4891  0.0000  0.4348  0.1685  0.0052  0.0942  0.0000
  12.  H 4 (s)      0.0619  0.4891 -0.3765 -0.2174  0.1685  0.0052  0.0942 -0.0496
  13.  H 5 (s)      0.0619  0.4891  0.3765 -0.2174  0.1685  0.0052  0.0942  0.0496
  14.  H 6 (s)      0.0052  0.0942  0.0000 -0.0572 -0.1078  0.0619  0.4891  0.0000
  15.  H 7 (s)      0.0052  0.0942 -0.0496  0.0286 -0.1078  0.0619  0.4891 -0.3765
  16.  H 8 (s)      0.0052  0.0942  0.0496  0.0286 -0.1078  0.0619  0.4891  0.3765

           AO          9      10      11      12      13      14      15      16
      ------------ ------- ------- ------- ------- ------- ------- ------- -------
   1.  C 1 (s)      0.0000  0.0463  0.0619  0.0619  0.0619  0.0052  0.0052  0.0052
   2.  C 1 (s)      0.0000  0.3422  0.4891  0.4891  0.4891  0.0942  0.0942  0.0942
   3.  C 1 (px)     0.0000  0.0000  0.0000 -0.3765  0.3765  0.0000 -0.0496  0.0496
   4.  C 1 (py)     0.1693  0.0000  0.4348 -0.2174 -0.2174 -0.0572  0.0286  0.0286
   5.  C 1 (pz)     0.0000 -0.3164  0.1685  0.1685  0.1685 -0.1078 -0.1078 -0.1078
   6.  C 2 (s)      0.0000  0.0000  0.0052  0.0052  0.0052  0.0619  0.0619  0.0619
   7.  C 2 (s)      0.0000  0.0000  0.0942  0.0942  0.0942  0.4891  0.4891  0.4891
   8.  C 2 (px)     0.0000  0.0000  0.0000 -0.0496  0.0496  0.0000 -0.3765  0.3765
   9.  C 2 (py)     1.0000  0.0000  0.0572 -0.0286 -0.0286 -0.4348  0.2174  0.2174
  10.  C 2 (pz)     0.0000  1.0000  0.1078  0.1078  0.1078 -0.1685 -0.1685 -0.1685
  11.  H 3 (s)      0.0572  0.1078  1.0000  0.1733  0.1733  0.0153  0.0469  0.0469
  12.  H 4 (s)     -0.0286  0.1078  0.1733  1.0000  0.1733  0.0469  0.0469  0.0153
  13.  H 5 (s)     -0.0286  0.1078  0.1733  0.1733  1.0000  0.0469  0.0153  0.0469
  14.  H 6 (s)     -0.4348 -0.1685  0.0153  0.0469  0.0469  1.0000  0.1733  0.1733
  15.  H 7 (s)      0.2174 -0.1685  0.0469  0.0469  0.0153  0.1733  1.0000  0.1733
  16.  H 8 (s)      0.2174 -0.1685  0.0469  0.0153  0.0469  0.1733  0.1733  1.0000


 AO bond-order matrix:

           AO          1       2       3       4       5       6       7       8
      ------------ ------- ------- ------- ------- ------- ------- ------- -------
   1.  C 1 (s)      2.0660 -0.2071  0.0000  0.0000  0.0009  0.0160 -0.0397  0.0000
   2.  C 1 (s)     -0.2071  0.8169  0.0000  0.0000 -0.0199 -0.0397  0.0474  0.0000
   3.  C 1 (px)     0.0000  0.0000  0.6525  0.0000  0.0000  0.0000  0.0000 -0.0067
   4.  C 1 (py)     0.0000  0.0000  0.0000  0.6525  0.0000  0.0000  0.0000  0.0000
   5.  C 1 (pz)     0.0009 -0.0199  0.0000  0.0000  0.6317  0.0958 -0.2824  0.0000
   6.  C 2 (s)      0.0160 -0.0397  0.0000  0.0000  0.0958  2.0660 -0.2071  0.0000
   7.  C 2 (s)     -0.0397  0.0474  0.0000  0.0000 -0.2824 -0.2071  0.8169  0.0000
   8.  C 2 (px)     0.0000  0.0000 -0.0067  0.0000  0.0000  0.0000  0.0000  0.6525
   9.  C 2 (py)     0.0000  0.0000  0.0000 -0.0067  0.0000  0.0000  0.0000  0.0000
  10.  C 2 (pz)    -0.0958  0.2824  0.0000  0.0000 -0.5415 -0.0009  0.0199  0.0000
  11.  H 3 (s)     -0.0932  0.2225  0.0000  0.5692  0.1944  0.0188 -0.0731  0.0000
  12.  H 4 (s)     -0.0932  0.2225 -0.4930 -0.2846  0.1944  0.0188 -0.0731  0.0579
  13.  H 5 (s)     -0.0932  0.2225  0.4930 -0.2846  0.1944  0.0188 -0.0731 -0.0579
  14.  H 6 (s)      0.0188 -0.0731  0.0000  0.0668  0.0926 -0.0932  0.2225  0.0000
  15.  H 7 (s)      0.0188 -0.0731  0.0579 -0.0334  0.0926 -0.0932  0.2225 -0.4930
  16.  H 8 (s)      0.0188 -0.0731 -0.0579 -0.0334  0.0926 -0.0932  0.2225  0.4930

           AO          9      10      11      12      13      14      15      16
      ------------ ------- ------- ------- ------- ------- ------- ------- -------
   1.  C 1 (s)      0.0000 -0.0958 -0.0932 -0.0932 -0.0932  0.0188  0.0188  0.0188
   2.  C 1 (s)      0.0000  0.2824  0.2225  0.2225  0.2225 -0.0731 -0.0731 -0.0731
   3.  C 1 (px)     0.0000  0.0000  0.0000 -0.4930  0.4930  0.0000  0.0579 -0.0579
   4.  C 1 (py)    -0.0067  0.0000  0.5692 -0.2846 -0.2846  0.0668 -0.0334 -0.0334
   5.  C 1 (pz)     0.0000 -0.5415  0.1944  0.1944  0.1944  0.0926  0.0926  0.0926
   6.  C 2 (s)      0.0000 -0.0009  0.0188  0.0188  0.0188 -0.0932 -0.0932 -0.0932
   7.  C 2 (s)      0.0000  0.0199 -0.0731 -0.0731 -0.0731  0.2225  0.2225  0.2225
   8.  C 2 (px)     0.0000  0.0000  0.0000  0.0579 -0.0579  0.0000 -0.4930  0.4930
   9.  C 2 (py)     0.6525  0.0000 -0.0668  0.0334  0.0334 -0.5692  0.2846  0.2846
  10.  C 2 (pz)     0.0000  0.6317 -0.0926 -0.0926 -0.0926 -0.1944 -0.1944 -0.1944
  11.  H 3 (s)     -0.0668 -0.0926  0.6268 -0.1267 -0.1267  0.1212 -0.0460 -0.0460
  12.  H 4 (s)      0.0334 -0.0926 -0.1267  0.6268 -0.1267 -0.0460 -0.0460  0.1212
  13.  H 5 (s)      0.0334 -0.0926 -0.1267 -0.1267  0.6268 -0.0460  0.1212 -0.0460
  14.  H 6 (s)     -0.5692 -0.1944  0.1212 -0.0460 -0.0460  0.6268 -0.1267 -0.1267
  15.  H 7 (s)      0.2846 -0.1944 -0.0460 -0.0460  0.1212 -0.1267  0.6268 -0.1267
  16.  H 8 (s)      0.2846 -0.1944 -0.0460  0.1212 -0.0460 -0.1267 -0.1267  0.6268


 AO density matrix:

           AO          1       2       3       4       5       6       7       8
      ------------ ------- ------- ------- ------- ------- ------- ------- -------
   1.  C 1 (s)      1.9995  0.5049  0.0000  0.0000 -0.0006  0.0002  0.0528  0.0000
   2.  C 1 (s)      0.5049  1.8666  0.0000  0.0000  0.0235  0.0528  0.6546  0.0000
   3.  C 1 (px)     0.0000  0.0000  1.6065  0.0000  0.0000  0.0000  0.0000  0.3564
   4.  C 1 (py)     0.0000  0.0000  0.0000  1.6065  0.0000  0.0000  0.0000  0.0000
   5.  C 1 (pz)    -0.0006  0.0235  0.0000  0.0000  1.5588 -0.0856 -0.8103  0.0000
   6.  C 2 (s)      0.0002  0.0528  0.0000  0.0000 -0.0856  1.9995  0.5049  0.0000
   7.  C 2 (s)      0.0528  0.6546  0.0000  0.0000 -0.8103  0.5049  1.8666  0.0000
   8.  C 2 (px)     0.0000  0.0000  0.3564  0.0000  0.0000  0.0000  0.0000  1.6065
   9.  C 2 (py)     0.0000  0.0000  0.0000  0.3564  0.0000  0.0000  0.0000  0.0000
  10.  C 2 (pz)     0.0856  0.8103  0.0000  0.0000 -0.9573  0.0006 -0.0235  0.0000
  11.  H 3 (s)      0.1168  1.0876  0.0000  1.1725  0.4460  0.0106  0.1865  0.0000
  12.  H 4 (s)      0.1168  1.0876 -1.0154 -0.5863  0.4460  0.0106  0.1865 -0.1155
  13.  H 5 (s)      0.1168  1.0876  1.0154 -0.5863  0.4460  0.0106  0.1865  0.1155
  14.  H 6 (s)      0.0106  0.1865  0.0000 -0.1333 -0.2023  0.1168  1.0876  0.0000
  15.  H 7 (s)      0.0106  0.1865 -0.1155  0.0667 -0.2023  0.1168  1.0876 -1.0154
  16.  H 8 (s)      0.0106  0.1865  0.1155  0.0667 -0.2023  0.1168  1.0876  1.0154

           AO          9      10      11      12      13      14      15      16
      ------------ ------- ------- ------- ------- ------- ------- ------- -------
   1.  C 1 (s)      0.0000  0.0856  0.1168  0.1168  0.1168  0.0106  0.0106  0.0106
   2.  C 1 (s)      0.0000  0.8103  1.0876  1.0876  1.0876  0.1865  0.1865  0.1865
   3.  C 1 (px)     0.0000  0.0000  0.0000 -1.0154  1.0154  0.0000 -0.1155  0.1155
   4.  C 1 (py)     0.3564  0.0000  1.1725 -0.5863 -0.5863 -0.1333  0.0667  0.0667
   5.  C 1 (pz)     0.0000 -0.9573  0.4460  0.4460  0.4460 -0.2023 -0.2023 -0.2023
   6.  C 2 (s)      0.0000  0.0006  0.0106  0.0106  0.0106  0.1168  0.1168  0.1168
   7.  C 2 (s)      0.0000 -0.0235  0.1865  0.1865  0.1865  1.0876  1.0876  1.0876
   8.  C 2 (px)     0.0000  0.0000  0.0000 -0.1155  0.1155  0.0000 -1.0154  1.0154
   9.  C 2 (py)     1.6065  0.0000  0.1333 -0.0667 -0.0667 -1.1725  0.5863  0.5863
  10.  C 2 (pz)     0.0000  1.5588  0.2023  0.2023  0.2023 -0.4460 -0.4460 -0.4460
  11.  H 3 (s)      0.1333  0.2023  1.6367  0.3373  0.3373  0.0692  0.0729  0.0729
  12.  H 4 (s)     -0.0667  0.2023  0.3373  1.6367  0.3373  0.0729  0.0729  0.0692
  13.  H 5 (s)     -0.0667  0.2023  0.3373  0.3373  1.6367  0.0729  0.0692  0.0729
  14.  H 6 (s)     -1.1725 -0.4460  0.0692  0.0729  0.0729  1.6367  0.3373  0.3373
  15.  H 7 (s)      0.5863 -0.4460  0.0729  0.0729  0.0692  0.3373  1.6367  0.3373
  16.  H 8 (s)      0.5863 -0.4460  0.0729  0.0692  0.0729  0.3373  0.3373  1.6367


 MO density matrix:

      MO     1       2       3       4       5       6       7       8       9
     ---- ------  ------  ------  ------  ------  ------  ------  ------  ------
   1.     2.0000  0.0000  0.0000  0.0000  0.0000  0.0000  0.0000  0.0000  0.0000
   2.     0.0000  2.0000  0.0000  0.0000  0.0000  0.0000  0.0000  0.0000  0.0000
   3.     0.0000  0.0000  2.0000  0.0000  0.0000  0.0000  0.0000  0.0000  0.0000
   4.     0.0000  0.0000  0.0000  2.0000  0.0000  0.0000  0.0000  0.0000  0.0000
   5.     0.0000  0.0000  0.0000  0.0000  2.0000  0.0000  0.0000  0.0000  0.0000
   6.     0.0000  0.0000  0.0000  0.0000  0.0000  2.0000  0.0000  0.0000  0.0000
   7.     0.0000  0.0000  0.0000  0.0000  0.0000  0.0000  2.0000  0.0000  0.0000
   8.     0.0000  0.0000  0.0000  0.0000  0.0000  0.0000  0.0000  2.0000  0.0000
   9.     0.0000  0.0000  0.0000  0.0000  0.0000  0.0000  0.0000  0.0000  2.0000
  10.     0.0000  0.0000  0.0000  0.0000  0.0000  0.0000  0.0000  0.0000  0.0000
  11.     0.0000  0.0000  0.0000  0.0000  0.0000  0.0000  0.0000  0.0000  0.0000
  12.     0.0000  0.0000  0.0000  0.0000  0.0000  0.0000  0.0000  0.0000  0.0000
  13.     0.0000  0.0000  0.0000  0.0000  0.0000  0.0000  0.0000  0.0000  0.0000
  14.     0.0000  0.0000  0.0000  0.0000  0.0000  0.0000  0.0000  0.0000  0.0000
  15.     0.0000  0.0000  0.0000  0.0000  0.0000  0.0000  0.0000  0.0000  0.0000
  16.     0.0000  0.0000  0.0000  0.0000  0.0000  0.0000  0.0000  0.0000  0.0000

      MO    10      11      12      13      14      15      16
     ---- ------  ------  ------  ------  ------  ------  ------
   1.     0.0000  0.0000  0.0000  0.0000  0.0000  0.0000  0.0000
   2.     0.0000  0.0000  0.0000  0.0000  0.0000  0.0000  0.0000
   3.     0.0000  0.0000  0.0000  0.0000  0.0000  0.0000  0.0000
   4.     0.0000  0.0000  0.0000  0.0000  0.0000  0.0000  0.0000
   5.     0.0000  0.0000  0.0000  0.0000  0.0000  0.0000  0.0000
   6.     0.0000  0.0000  0.0000  0.0000  0.0000  0.0000  0.0000
   7.     0.0000  0.0000  0.0000  0.0000  0.0000  0.0000  0.0000
   8.     0.0000  0.0000  0.0000  0.0000  0.0000  0.0000  0.0000
   9.     0.0000  0.0000  0.0000  0.0000  0.0000  0.0000  0.0000
  10.     0.0000  0.0000  0.0000  0.0000  0.0000  0.0000  0.0000
  11.     0.0000  0.0000  0.0000  0.0000  0.0000  0.0000  0.0000
  12.     0.0000  0.0000  0.0000  0.0000  0.0000  0.0000  0.0000
  13.     0.0000  0.0000  0.0000  0.0000  0.0000  0.0000  0.0000
  14.     0.0000  0.0000  0.0000  0.0000  0.0000  0.0000  0.0000
  15.     0.0000  0.0000  0.0000  0.0000  0.0000  0.0000  0.0000
  16.     0.0000  0.0000  0.0000  0.0000  0.0000  0.0000  0.0000


 NATURAL POPULATIONS:  Natural atomic orbital occupancies

  NAO Atom No lang   Type(AO)    Occupancy      Energy
 -------------------------------------------------------
   1    C  1  s      Cor( 1s)     2.00000     -11.02261
   2    C  1  s      Val( 2s)     1.07673      -0.15265
   3    C  1  px     Val( 2p)     1.03219       0.08176
   4    C  1  py     Val( 2p)     1.03219       0.08176
   5    C  1  pz     Val( 2p)     0.98219       0.09717

   6    C  2  s      Cor( 1s)     2.00000     -11.02261
   7    C  2  s      Val( 2s)     1.07673      -0.15265
   8    C  2  px     Val( 2p)     1.03219       0.08176
   9    C  2  py     Val( 2p)     1.03219       0.08176
  10    C  2  pz     Val( 2p)     0.98219       0.09717

  11    H  3  s      Val( 1s)     0.95890       0.08413

  12    H  4  s      Val( 1s)     0.95890       0.08413

  13    H  5  s      Val( 1s)     0.95890       0.08413

  14    H  6  s      Val( 1s)     0.95890       0.08413

  15    H  7  s      Val( 1s)     0.95890       0.08413

  16    H  8  s      Val( 1s)     0.95890       0.08413


 Summary of Natural Population Analysis:

                                     Natural Population
             Natural    ---------------------------------------------
  Atom No    Charge        Core      Valence    Rydberg      Total
 --------------------------------------------------------------------
    C  1   -0.12330      2.00000     4.12330    0.00000     6.12330
    C  2   -0.12330      2.00000     4.12330    0.00000     6.12330
    H  3    0.04110      0.00000     0.95890    0.00000     0.95890
    H  4    0.04110      0.00000     0.95890    0.00000     0.95890
    H  5    0.04110      0.00000     0.95890    0.00000     0.95890
    H  6    0.04110      0.00000     0.95890    0.00000     0.95890
    H  7    0.04110      0.00000     0.95890    0.00000     0.95890
    H  8    0.04110      0.00000     0.95890    0.00000     0.95890
 ====================================================================
 * Total *  0.00000      4.00000    14.00000    0.00000    18.00000

                                 Natural Population
 ---------------------------------------------------------
   Core                       4.00000 ( 99.9999% of    4)
   Valence                   14.00000 (100.0000% of   14)
   Natural Minimal Basis     18.00000 (100.0000% of   18)
   Natural Rydberg Basis      0.00000 (  0.0000% of   18)
 ---------------------------------------------------------

    Atom No         Natural Electron Configuration
 ----------------------------------------------------------------------------
      C  1      [core]2s( 1.08)2p( 3.05)
      C  2      [core]2s( 1.08)2p( 3.05)
      H  3            1s( 0.96)
      H  4            1s( 0.96)
      H  5            1s( 0.96)
      H  6            1s( 0.96)
      H  7            1s( 0.96)
      H  8            1s( 0.96)


 PNAOs in the AO basis:

           AO          1       2       3       4       5       6       7       8
      ------------ ------- ------- ------- ------- ------- ------- ------- -------
   1.  C 1 (s)      0.9834 -0.3142  0.0000  0.0000  0.0000  0.0000  0.0000  0.0000
   2.  C 1 (s)      0.0602  1.0306  0.0000  0.0000  0.0000  0.0000  0.0000  0.0000
   3.  C 1 (px)     0.0000  0.0000  1.0000  0.0000  0.0000  0.0000  0.0000  0.0000
   4.  C 1 (py)     0.0000  0.0000  0.0000  1.0000  0.0000  0.0000  0.0000  0.0000
   5.  C 1 (pz)     0.0000  0.0000  0.0000  0.0000  1.0000  0.0000  0.0000  0.0000
   6.  C 2 (s)      0.0000  0.0000  0.0000  0.0000  0.0000  0.9834 -0.3142  0.0000
   7.  C 2 (s)      0.0000  0.0000  0.0000  0.0000  0.0000  0.0602  1.0306  0.0000
   8.  C 2 (px)     0.0000  0.0000  0.0000  0.0000  0.0000  0.0000  0.0000  1.0000
   9.  C 2 (py)     0.0000  0.0000  0.0000  0.0000  0.0000  0.0000  0.0000  0.0000
  10.  C 2 (pz)     0.0000  0.0000  0.0000  0.0000  0.0000  0.0000  0.0000  0.0000
  11.  H 3 (s)      0.0000  0.0000  0.0000  0.0000  0.0000  0.0000  0.0000  0.0000
  12.  H 4 (s)      0.0000  0.0000  0.0000  0.0000  0.0000  0.0000  0.0000  0.0000
  13.  H 5 (s)      0.0000  0.0000  0.0000  0.0000  0.0000  0.0000  0.0000  0.0000
  14.  H 6 (s)      0.0000  0.0000  0.0000  0.0000  0.0000  0.0000  0.0000  0.0000
  15.  H 7 (s)      0.0000  0.0000  0.0000  0.0000  0.0000  0.0000  0.0000  0.0000
  16.  H 8 (s)      0.0000  0.0000  0.0000  0.0000  0.0000  0.0000  0.0000  0.0000

           AO          9      10      11      12      13      14      15      16
      ------------ ------- ------- ------- ------- ------- ------- ------- -------
   1.  C 1 (s)      0.0000  0.0000  0.0000  0.0000  0.0000  0.0000  0.0000  0.0000
   2.  C 1 (s)      0.0000  0.0000  0.0000  0.0000  0.0000  0.0000  0.0000  0.0000
   3.  C 1 (px)     0.0000  0.0000  0.0000  0.0000  0.0000  0.0000  0.0000  0.0000
   4.  C 1 (py)     0.0000  0.0000  0.0000  0.0000  0.0000  0.0000  0.0000  0.0000
   5.  C 1 (pz)     0.0000  0.0000  0.0000  0.0000  0.0000  0.0000  0.0000  0.0000
   6.  C 2 (s)      0.0000  0.0000  0.0000  0.0000  0.0000  0.0000  0.0000  0.0000
   7.  C 2 (s)      0.0000  0.0000  0.0000  0.0000  0.0000  0.0000  0.0000  0.0000
   8.  C 2 (px)     0.0000  0.0000  0.0000  0.0000  0.0000  0.0000  0.0000  0.0000
   9.  C 2 (py)     1.0000  0.0000  0.0000  0.0000  0.0000  0.0000  0.0000  0.0000
  10.  C 2 (pz)     0.0000  1.0000  0.0000  0.0000  0.0000  0.0000  0.0000  0.0000
  11.  H 3 (s)      0.0000  0.0000  1.0000  0.0000  0.0000  0.0000  0.0000  0.0000
  12.  H 4 (s)      0.0000  0.0000  0.0000  1.0000  0.0000  0.0000  0.0000  0.0000
  13.  H 5 (s)      0.0000  0.0000  0.0000  0.0000  1.0000  0.0000  0.0000  0.0000
  14.  H 6 (s)      0.0000  0.0000  0.0000  0.0000  0.0000  1.0000  0.0000  0.0000
  15.  H 7 (s)      0.0000  0.0000  0.0000  0.0000  0.0000  0.0000  1.0000  0.0000
  16.  H 8 (s)      0.0000  0.0000  0.0000  0.0000  0.0000  0.0000  0.0000  1.0000


 PNAO overlap matrix:

           NAO         1       2       3       4       5       6       7       8
      ------------ ------- ------- ------- ------- ------- ------- ------- -------
   1.  C 1( 1s )    1.0000  0.0000  0.0000  0.0000  0.0000  0.0044  0.0464  0.0000
   2.  C 1( 2s )    0.0000  1.0000  0.0000  0.0000  0.0000  0.0464  0.3066  0.0000
   3.  C 1( 2px)    0.0000  0.0000  1.0000  0.0000  0.0000  0.0000  0.0000  0.1693
   4.  C 1( 2py)    0.0000  0.0000  0.0000  1.0000  0.0000  0.0000  0.0000  0.0000
   5.  C 1( 2pz)    0.0000  0.0000  0.0000  0.0000  1.0000 -0.0661 -0.3381  0.0000
   6.  C 2( 1s )    0.0044  0.0464  0.0000  0.0000 -0.0661  1.0000  0.0000  0.0000
   7.  C 2( 2s )    0.0464  0.3066  0.0000  0.0000 -0.3381  0.0000  1.0000  0.0000
   8.  C 2( 2px)    0.0000  0.0000  0.1693  0.0000  0.0000  0.0000  0.0000  1.0000
   9.  C 2( 2py)    0.0000  0.0000  0.0000  0.1693  0.0000  0.0000  0.0000  0.0000
  10.  C 2( 2pz)    0.0661  0.3381  0.0000  0.0000 -0.3164  0.0000  0.0000  0.0000
  11.  H 3( 1s )    0.0903  0.4846  0.0000  0.4348  0.1685  0.0108  0.0955  0.0000
  12.  H 4( 1s )    0.0903  0.4846 -0.3765 -0.2174  0.1685  0.0108  0.0955 -0.0496
  13.  H 5( 1s )    0.0903  0.4846  0.3765 -0.2174  0.1685  0.0108  0.0955  0.0496
  14.  H 6( 1s )    0.0108  0.0955  0.0000 -0.0572 -0.1078  0.0903  0.4846  0.0000
  15.  H 7( 1s )    0.0108  0.0955 -0.0496  0.0286 -0.1078  0.0903  0.4846 -0.3765
  16.  H 8( 1s )    0.0108  0.0955  0.0496  0.0286 -0.1078  0.0903  0.4846  0.3765

           NAO         9      10      11      12      13      14      15      16
      ------------ ------- ------- ------- ------- ------- ------- ------- -------
   1.  C 1( 1s )    0.0000  0.0661  0.0903  0.0903  0.0903  0.0108  0.0108  0.0108
   2.  C 1( 2s )    0.0000  0.3381  0.4846  0.4846  0.4846  0.0955  0.0955  0.0955
   3.  C 1( 2px)    0.0000  0.0000  0.0000 -0.3765  0.3765  0.0000 -0.0496  0.0496
   4.  C 1( 2py)    0.1693  0.0000  0.4348 -0.2174 -0.2174 -0.0572  0.0286  0.0286
   5.  C 1( 2pz)    0.0000 -0.3164  0.1685  0.1685  0.1685 -0.1078 -0.1078 -0.1078
   6.  C 2( 1s )    0.0000  0.0000  0.0108  0.0108  0.0108  0.0903  0.0903  0.0903
   7.  C 2( 2s )    0.0000  0.0000  0.0955  0.0955  0.0955  0.4846  0.4846  0.4846
   8.  C 2( 2px)    0.0000  0.0000  0.0000 -0.0496  0.0496  0.0000 -0.3765  0.3765
   9.  C 2( 2py)    1.0000  0.0000  0.0572 -0.0286 -0.0286 -0.4348  0.2174  0.2174
  10.  C 2( 2pz)    0.0000  1.0000  0.1078  0.1078  0.1078 -0.1685 -0.1685 -0.1685
  11.  H 3( 1s )    0.0572  0.1078  1.0000  0.1733  0.1733  0.0153  0.0469  0.0469
  12.  H 4( 1s )   -0.0286  0.1078  0.1733  1.0000  0.1733  0.0469  0.0469  0.0153
  13.  H 5( 1s )   -0.0286  0.1078  0.1733  0.1733  1.0000  0.0469  0.0153  0.0469
  14.  H 6( 1s )   -0.4348 -0.1685  0.0153  0.0469  0.0469  1.0000  0.1733  0.1733
  15.  H 7( 1s )    0.2174 -0.1685  0.0469  0.0469  0.0153  0.1733  1.0000  0.1733
  16.  H 8( 1s )    0.2174 -0.1685  0.0469  0.0153  0.0469  0.1733  0.1733  1.0000


 PNAO density matrix:

           NAO         1       2       3       4       5       6       7       8
      ------------ ------- ------- ------- ------- ------- ------- ------- -------
   1.  C 1( 1s )    2.0000  0.0000  0.0000  0.0000  0.0008  0.0088  0.0930  0.0000
   2.  C 1( 2s )    0.0000  1.8530  0.0000  0.0000  0.0245  0.0930  0.6611  0.0000
   3.  C 1( 2px)    0.0000  0.0000  1.6065  0.0000  0.0000  0.0000  0.0000  0.3564
   4.  C 1( 2py)    0.0000  0.0000  0.0000  1.6065  0.0000  0.0000  0.0000  0.0000
   5.  C 1( 2pz)    0.0008  0.0245  0.0000  0.0000  1.5588 -0.1329 -0.8082  0.0000
   6.  C 2( 1s )    0.0088  0.0930  0.0000  0.0000 -0.1329  2.0000  0.0000  0.0000
   7.  C 2( 2s )    0.0930  0.6611  0.0000  0.0000 -0.8082  0.0000  1.8530  0.0000
   8.  C 2( 2px)    0.0000  0.0000  0.3564  0.0000  0.0000  0.0000  0.0000  1.6065
   9.  C 2( 2py)    0.0000  0.0000  0.0000  0.3564  0.0000  0.0000  0.0000  0.0000
  10.  C 2( 2pz)    0.1329  0.8082  0.0000  0.0000 -0.9573 -0.0008 -0.0245  0.0000
  11.  H 3( 1s )    0.1803  1.0841  0.0000  1.1725  0.4460  0.0217  0.1889  0.0000
  12.  H 4( 1s )    0.1803  1.0841 -1.0154 -0.5863  0.4460  0.0217  0.1889 -0.1155
  13.  H 5( 1s )    0.1803  1.0841  1.0154 -0.5863  0.4460  0.0217  0.1889  0.1155
  14.  H 6( 1s )    0.0217  0.1889  0.0000 -0.1333 -0.2023  0.1803  1.0841  0.0000
  15.  H 7( 1s )    0.0217  0.1889 -0.1155  0.0667 -0.2023  0.1803  1.0841 -1.0154
  16.  H 8( 1s )    0.0217  0.1889  0.1155  0.0667 -0.2023  0.1803  1.0841  1.0154

           NAO         9      10      11      12      13      14      15      16
      ------------ ------- ------- ------- ------- ------- ------- ------- -------
   1.  C 1( 1s )    0.0000  0.1329  0.1803  0.1803  0.1803  0.0217  0.0217  0.0217
   2.  C 1( 2s )    0.0000  0.8082  1.0841  1.0841  1.0841  0.1889  0.1889  0.1889
   3.  C 1( 2px)    0.0000  0.0000  0.0000 -1.0154  1.0154  0.0000 -0.1155  0.1155
   4.  C 1( 2py)    0.3564  0.0000  1.1725 -0.5863 -0.5863 -0.1333  0.0667  0.0667
   5.  C 1( 2pz)    0.0000 -0.9573  0.4460  0.4460  0.4460 -0.2023 -0.2023 -0.2023
   6.  C 2( 1s )    0.0000 -0.0008  0.0217  0.0217  0.0217  0.1803  0.1803  0.1803
   7.  C 2( 2s )    0.0000 -0.0245  0.1889  0.1889  0.1889  1.0841  1.0841  1.0841
   8.  C 2( 2px)    0.0000  0.0000  0.0000 -0.1155  0.1155  0.0000 -1.0154  1.0154
   9.  C 2( 2py)    1.6065  0.0000  0.1333 -0.0667 -0.0667 -1.1725  0.5863  0.5863
  10.  C 2( 2pz)    0.0000  1.5588  0.2023  0.2023  0.2023 -0.4460 -0.4460 -0.4460
  11.  H 3( 1s )    0.1333  0.2023  1.6367  0.3373  0.3373  0.0692  0.0729  0.0729
  12.  H 4( 1s )   -0.0667  0.2023  0.3373  1.6367  0.3373  0.0729  0.0729  0.0692
  13.  H 5( 1s )   -0.0667  0.2023  0.3373  0.3373  1.6367  0.0729  0.0692  0.0729
  14.  H 6( 1s )   -1.1725 -0.4460  0.0692  0.0729  0.0729  1.6367  0.3373  0.3373
  15.  H 7( 1s )    0.5863 -0.4460  0.0729  0.0729  0.0692  0.3373  1.6367  0.3373
  16.  H 8( 1s )    0.5863 -0.4460  0.0729  0.0692  0.0729  0.3373  0.3373  1.6367


 NAOs in the AO basis:

           AO          1       2       3       4       5       6       7       8
      ------------ ------- ------- ------- ------- ------- ------- ------- -------
   1.  C 1 (s)      0.9834 -0.3599  0.0000  0.0000  0.0002 -0.0022  0.0098  0.0000
   2.  C 1 (s)      0.0602  1.5449  0.0000  0.0000  0.0193 -0.0001 -0.2223  0.0000
   3.  C 1 (px)     0.0000  0.0000  1.1819  0.0000  0.0000  0.0000  0.0000 -0.0920
   4.  C 1 (py)     0.0000  0.0000  0.0000  1.1819  0.0000  0.0000  0.0000  0.0000
   5.  C 1 (pz)     0.0000  0.0158  0.0000  0.0000  1.1792  0.0000  0.2163  0.0000
   6.  C 2 (s)     -0.0022  0.0098  0.0000  0.0000 -0.0022  0.9834 -0.3599  0.0000
   7.  C 2 (s)     -0.0001 -0.2223  0.0000  0.0000  0.2644  0.0602  1.5449  0.0000
   8.  C 2 (px)     0.0000  0.0000 -0.0920  0.0000  0.0000  0.0000  0.0000  1.1819
   9.  C 2 (py)     0.0000  0.0000  0.0000 -0.0920  0.0000  0.0000  0.0000  0.0000
  10.  C 2 (pz)     0.0000 -0.2163  0.0000  0.0000  0.2346  0.0000 -0.0158  0.0000
  11.  H 3 (s)      0.0000 -0.3193  0.0000 -0.3303 -0.1254  0.0000 -0.0023  0.0000
  12.  H 4 (s)      0.0000 -0.3193  0.2861  0.1652 -0.1254  0.0000 -0.0023 -0.0022
  13.  H 5 (s)      0.0000 -0.3193 -0.2861  0.1652 -0.1254  0.0000 -0.0023  0.0022
  14.  H 6 (s)      0.0000 -0.0023  0.0000 -0.0026  0.0102  0.0000 -0.3193  0.0000
  15.  H 7 (s)      0.0000 -0.0023 -0.0022  0.0013  0.0102  0.0000 -0.3193  0.2861
  16.  H 8 (s)      0.0000 -0.0023  0.0022  0.0013  0.0102  0.0000 -0.3193 -0.2861

           AO          9      10      11      12      13      14      15      16
      ------------ ------- ------- ------- ------- ------- ------- ------- -------
   1.  C 1 (s)      0.0000  0.0022  0.0049  0.0049  0.0049 -0.0010 -0.0010 -0.0010
   2.  C 1 (s)      0.0000 -0.2644 -0.3791 -0.3791 -0.3791 -0.0028 -0.0028 -0.0028
   3.  C 1 (px)     0.0000  0.0000  0.0000  0.2780 -0.2780  0.0000 -0.0022  0.0022
   4.  C 1 (py)    -0.0920  0.0000 -0.3210  0.1605  0.1605 -0.0025  0.0012  0.0012
   5.  C 1 (pz)     0.0000  0.2346 -0.1218 -0.1218 -0.1218  0.0099  0.0099  0.0099
   6.  C 2 (s)      0.0000 -0.0002 -0.0010 -0.0010 -0.0010  0.0049  0.0049  0.0049
   7.  C 2 (s)      0.0000 -0.0193 -0.0028 -0.0028 -0.0028 -0.3791 -0.3791 -0.3791
   8.  C 2 (px)     0.0000  0.0000  0.0000 -0.0022  0.0022  0.0000  0.2780 -0.2780
   9.  C 2 (py)     1.1819  0.0000  0.0025 -0.0012 -0.0012  0.3210 -0.1605 -0.1605
  10.  C 2 (pz)     0.0000  1.1792 -0.0099 -0.0099 -0.0099  0.1218  0.1218  0.1218
  11.  H 3 (s)      0.0026 -0.0102  1.2759 -0.0198 -0.0198 -0.0046 -0.0101 -0.0101
  12.  H 4 (s)     -0.0013 -0.0102 -0.0198  1.2759 -0.0198 -0.0101 -0.0101 -0.0046
  13.  H 5 (s)     -0.0013 -0.0102 -0.0198 -0.0198  1.2759 -0.0101 -0.0046 -0.0101
  14.  H 6 (s)      0.3303  0.1254 -0.0046 -0.0101 -0.0101  1.2759 -0.0198 -0.0198
  15.  H 7 (s)     -0.1652  0.1254 -0.0101 -0.0101 -0.0046 -0.0198  1.2759 -0.0198
  16.  H 8 (s)     -0.1652  0.1254 -0.0101 -0.0046 -0.0101 -0.0198 -0.0198  1.2759


 NAO density matrix:

           NAO         1       2       3       4       5       6       7       8
      ------------ ------- ------- ------- ------- ------- ------- ------- -------
   1.  C 1( 1s )    2.0000  0.0001  0.0000  0.0000  0.0013  0.0000  0.0002  0.0000
   2.  C 1( 2s )    0.0001  1.0767  0.0000  0.0000  0.0075  0.0002  0.2381  0.0000
   3.  C 1( 2px)    0.0000  0.0000  1.0322  0.0000  0.0000  0.0000  0.0000  0.1101
   4.  C 1( 2py)    0.0000  0.0000  0.0000  1.0322  0.0000  0.0000  0.0000  0.0000
   5.  C 1( 2pz)    0.0013  0.0075  0.0000  0.0000  0.9822 -0.0011 -0.4474  0.0000
   6.  C 2( 1s )    0.0000  0.0002  0.0000  0.0000 -0.0011  2.0000  0.0001  0.0000
   7.  C 2( 2s )    0.0002  0.2381  0.0000  0.0000 -0.4474  0.0001  1.0767  0.0000
   8.  C 2( 2px)    0.0000  0.0000  0.1101  0.0000  0.0000  0.0000  0.0000  1.0322
   9.  C 2( 2py)    0.0000  0.0000  0.0000  0.1101  0.0000  0.0000  0.0000  0.0000
  10.  C 2( 2pz)    0.0011  0.4474  0.0000  0.0000 -0.7354 -0.0013 -0.0075  0.0000
  11.  H 3( 1s )   -0.0004  0.4956  0.0000  0.8111  0.2930  0.0002 -0.0100  0.0000
  12.  H 4( 1s )   -0.0004  0.4956 -0.7024 -0.4056  0.2930  0.0002 -0.0100  0.0025
  13.  H 5( 1s )   -0.0004  0.4956  0.7024 -0.4056  0.2930  0.0002 -0.0100 -0.0025
  14.  H 6( 1s )    0.0002 -0.0100  0.0000  0.0029  0.0187 -0.0004  0.4956  0.0000
  15.  H 7( 1s )    0.0002 -0.0100  0.0025 -0.0015  0.0187 -0.0004  0.4956 -0.7024
  16.  H 8( 1s )    0.0002 -0.0100 -0.0025 -0.0015  0.0187 -0.0004  0.4956  0.7024

           NAO         9      10      11      12      13      14      15      16
      ------------ ------- ------- ------- ------- ------- ------- ------- -------
   1.  C 1( 1s )    0.0000  0.0011 -0.0004 -0.0004 -0.0004  0.0002  0.0002  0.0002
   2.  C 1( 2s )    0.0000  0.4474  0.4956  0.4956  0.4956 -0.0100 -0.0100 -0.0100
   3.  C 1( 2px)    0.0000  0.0000  0.0000 -0.7024  0.7024  0.0000  0.0025 -0.0025
   4.  C 1( 2py)    0.1101  0.0000  0.8111 -0.4056 -0.4056  0.0029 -0.0015 -0.0015
   5.  C 1( 2pz)    0.0000 -0.7354  0.2930  0.2930  0.2930  0.0187  0.0187  0.0187
   6.  C 2( 1s )    0.0000 -0.0013  0.0002  0.0002  0.0002 -0.0004 -0.0004 -0.0004
   7.  C 2( 2s )    0.0000 -0.0075 -0.0100 -0.0100 -0.0100  0.4956  0.4956  0.4956
   8.  C 2( 2px)    0.0000  0.0000  0.0000  0.0025 -0.0025  0.0000 -0.7024  0.7024
   9.  C 2( 2py)    1.0322  0.0000 -0.0029  0.0015  0.0015 -0.8111  0.4056  0.4056
  10.  C 2( 2pz)    0.0000  0.9822 -0.0187 -0.0187 -0.0187 -0.2930 -0.2930 -0.2930
  11.  H 3( 1s )   -0.0029 -0.0187  0.9589 -0.0089 -0.0089  0.0822 -0.0279 -0.0279
  12.  H 4( 1s )    0.0015 -0.0187 -0.0089  0.9589 -0.0089 -0.0279 -0.0279  0.0822
  13.  H 5( 1s )    0.0015 -0.0187 -0.0089 -0.0089  0.9589 -0.0279  0.0822 -0.0279
  14.  H 6( 1s )   -0.8111 -0.2930  0.0822 -0.0279 -0.0279  0.9589 -0.0089 -0.0089
  15.  H 7( 1s )    0.4056 -0.2930 -0.0279 -0.0279  0.0822 -0.0089  0.9589 -0.0089
  16.  H 8( 1s )    0.4056 -0.2930 -0.0279  0.0822 -0.0279 -0.0089 -0.0089  0.9589


 NATURAL BOND ORBITAL ANALYSIS:

 Initiate 2-center NBO search using THRESH = 1.900 and PRJTHR = 0.300

 Search of NAO DM block for core orbitals on atom:   1
      Eigenvector ( 1) has occupancy 2.00000
            1.0000 0.0000 0.0000 0.0000 0.0000
        1 eigenvector(s) stashed in permanent list

 Search of NAO DM block for core orbitals on atom:   2
      Eigenvector ( 1) has occupancy 2.00000
            1.0000 0.0000 0.0000 0.0000 0.0000
        1 eigenvector(s) stashed in permanent list

 Core orbitals projected from the NAO density matrix
      14.000 electrons remain (>1.900); search continues

 Search of NAO DM block for the following atom(s):   1
      Select eigenvectors with eigenvalue > 1.900
       1.077 1.032 1.032 0.982 0.000

 Search of NAO DM block for the following atom(s):   2
      Select eigenvectors with eigenvalue > 1.900
       1.077 1.032 1.032 0.982 0.000

 No NHOs identified in the 1-center search of the NAO density matrix
      14.000 electrons remain (>1.900); search continues

 Search of NAO DM block for the following atom(s):   1   2
      Select eigenvectors with eigenvalue > 1.900
       2.000 1.142 1.142 1.085 1.032 0.922 0.922 0.000 0.000 0.000
      Eigenvector ( 1) has occupancy 2.00000
            0.0000-0.3820 0.0000 0.0000 0.5950 0.0000-0.3820 0.0000
            0.0000-0.5950
      1 hybrid on atom 1 stashed in prospective list
      1 hybrid on atom 2 stashed in prospective list

 Search of NAO DM block for the following atom(s):   1   3
      Select eigenvectors with eigenvalue > 1.900
       1.996 1.065 1.032 0.985 0.004 0.000
      Eigenvector ( 1) has occupancy 1.99588
            0.0000 0.3748 0.0000 0.5825 0.2029 0.6921
      1 hybrid on atom 1 stashed in prospective list
      1 hybrid on atom 3 stashed in prospective list

 Search of NAO DM block for the following atom(s):   1   4
      Select eigenvectors with eigenvalue > 1.900
       1.996 1.065 1.032 0.985 0.004 0.000
      Eigenvector ( 1) has occupancy 1.99588
            0.0000 0.3748-0.5045-0.2913 0.2029 0.6921
      1 hybrid on atom 1 stashed in prospective list
      1 hybrid on atom 4 stashed in prospective list

 Search of NAO DM block for the following atom(s):   1   5
      Select eigenvectors with eigenvalue > 1.900
       1.996 1.065 1.032 0.985 0.004 0.000
      Eigenvector ( 1) has occupancy 1.99588
            0.0000 0.3748 0.5045-0.2913 0.2029 0.6921
      1 hybrid on atom 1 stashed in prospective list
      1 hybrid on atom 5 stashed in prospective list

 Search of NAO DM block for the following atom(s):   2   6
      Select eigenvectors with eigenvalue > 1.900
       1.996 1.065 1.032 0.985 0.004 0.000
      Eigenvector ( 1) has occupancy 1.99588
            0.0000 0.3748 0.0000-0.5825-0.2029 0.6921
      1 hybrid on atom 2 stashed in prospective list
      1 hybrid on atom 6 stashed in prospective list

 Search of NAO DM block for the following atom(s):   2   7
      Select eigenvectors with eigenvalue > 1.900
       1.996 1.065 1.032 0.985 0.004 0.000
      Eigenvector ( 1) has occupancy 1.99588
            0.0000 0.3748-0.5045 0.2913-0.2029 0.6921
      1 hybrid on atom 2 stashed in prospective list
      1 hybrid on atom 7 stashed in prospective list

 Search of NAO DM block for the following atom(s):   2   8
      Select eigenvectors with eigenvalue > 1.900
       1.996 1.065 1.032 0.985 0.004 0.000
      Eigenvector ( 1) has occupancy 1.99588
            0.0000 0.3748 0.5045 0.2913-0.2029 0.6921
      1 hybrid on atom 2 stashed in prospective list
      1 hybrid on atom 8 stashed in prospective list

 Stash prospective hybrids having projection expectation value > 0.300
       0.997 0.997 0.997 0.997 0.997 0.997 0.997 0.997 0.997 0.997 0.997 0.997
       0.994 0.994
      0 hybrids eliminated in 1 pass
      14 hybrids moved from prospective to permanent list

 NHOs of 2-center eigenvectors projected from the NAO density matrix
       0.000 electrons remain in the fully projected matrix

 Search of NHO DM block for the following atom(s):   1
      Select eigenvectors with eigenvalue > 1.900
       2.000 0.000 0.000 0.000 0.000
      Eigenvector ( 1) has occupancy 2.00000
            1.0000 0.0000 0.0000 0.0000 0.0000
           NBO accepted:    1. Label:CR ( 1)   1
        1 eigenvector(s) stashed in permanent list

 Search of NHO DM block for the following atom(s):   2
      Select eigenvectors with eigenvalue > 1.900
       2.000 0.000 0.000 0.000 0.000
      Eigenvector ( 1) has occupancy 2.00000
            1.0000 0.0000 0.0000 0.0000 0.0000
           NBO accepted:    2. Label:CR ( 1)   2
        1 eigenvector(s) stashed in permanent list

  1-center NBOs projected from the NHO density matrix
      14.000 electrons remain (>1.900); search continues

 Search of NHO DM block for the following atom(s):   1   2
      Select eigenvectors with eigenvalue > 1.900
       1.999 0.001 0.000 0.000 0.000 0.000 0.000 0.000 0.000 0.000
      Eigenvector ( 1) has occupancy 1.99857
            0.0000 0.0000 0.0000 0.0000 0.7071 0.0000 0.0000 0.0000
            0.0000 0.7071
      Occupancy is 1.999 after deleting minor hybrid components
            0.0000 0.0000 0.0000 0.0000 0.7071 0.0000 0.0000 0.0000
            0.0000 0.7071
           NBO accepted:    3. Label:BD ( 1)   1   2
      Occupancy is 0.001 for antibonding component
            0.0000 0.0000 0.0000 0.0000-0.7071 0.0000 0.0000 0.0000
            0.0000 0.7071
           NBO accepted:    4. Label:BD*( 1)   1   2
        2 eigenvector(s) stashed in permanent list

 Search of NHO DM block for the following atom(s):   1   3
      Select eigenvectors with eigenvalue > 1.900
       1.996 0.004 0.000 0.000 0.000 0.000
      Eigenvector ( 1) has occupancy 1.99553
            0.0000 0.7216 0.0000 0.0000 0.0000 0.6924
      Occupancy is 1.996 after deleting minor hybrid components
            0.0000 0.7216 0.0000 0.0000 0.0000 0.6924
           NBO accepted:    5. Label:BD ( 1)   1   3
      Occupancy is 0.004 for antibonding component
            0.0000-0.6924 0.0000 0.0000 0.0000 0.7216
           NBO accepted:    6. Label:BD*( 1)   1   3
        2 eigenvector(s) stashed in permanent list

 Search of NHO DM block for the following atom(s):   1   4
      Select eigenvectors with eigenvalue > 1.900
       1.996 0.004 0.000 0.000 0.000 0.000
      Eigenvector ( 1) has occupancy 1.99553
            0.0000 0.0000 0.7216 0.0000 0.0000 0.6924
      Occupancy is 1.996 after deleting minor hybrid components
            0.0000 0.0000 0.7216 0.0000 0.0000 0.6924
           NBO accepted:    7. Label:BD ( 1)   1   4
      Occupancy is 0.004 for antibonding component
            0.0000 0.0000-0.6924 0.0000 0.0000 0.7216
           NBO accepted:    8. Label:BD*( 1)   1   4
        2 eigenvector(s) stashed in permanent list

 Search of NHO DM block for the following atom(s):   1   5
      Select eigenvectors with eigenvalue > 1.900
       1.996 0.004 0.000 0.000 0.000 0.000
      Eigenvector ( 1) has occupancy 1.99553
            0.0000 0.0000 0.0000 0.7216 0.0000 0.6924
      Occupancy is 1.996 after deleting minor hybrid components
            0.0000 0.0000 0.0000 0.7216 0.0000 0.6924
           NBO accepted:    9. Label:BD ( 1)   1   5
      Occupancy is 0.004 for antibonding component
            0.0000 0.0000 0.0000-0.6924 0.0000 0.7216
           NBO accepted:   10. Label:BD*( 1)   1   5
        2 eigenvector(s) stashed in permanent list

 Search of NHO DM block for the following atom(s):   2   6
      Select eigenvectors with eigenvalue > 1.900
       1.996 0.004 0.000 0.000 0.000 0.000
      Eigenvector ( 1) has occupancy 1.99553
            0.0000 0.7216 0.0000 0.0000 0.0000 0.6924
      Occupancy is 1.996 after deleting minor hybrid components
            0.0000 0.7216 0.0000 0.0000 0.0000 0.6924
           NBO accepted:   11. Label:BD ( 1)   2   6
      Occupancy is 0.004 for antibonding component
            0.0000-0.6924 0.0000 0.0000 0.0000 0.7216
           NBO accepted:   12. Label:BD*( 1)   2   6
        2 eigenvector(s) stashed in permanent list

 Search of NHO DM block for the following atom(s):   2   7
      Select eigenvectors with eigenvalue > 1.900
       1.996 0.004 0.000 0.000 0.000 0.000
      Eigenvector ( 1) has occupancy 1.99553
            0.0000 0.0000 0.7216 0.0000 0.0000 0.6924
      Occupancy is 1.996 after deleting minor hybrid components
            0.0000 0.0000 0.7216 0.0000 0.0000 0.6924
           NBO accepted:   13. Label:BD ( 1)   2   7
      Occupancy is 0.004 for antibonding component
            0.0000 0.0000-0.6924 0.0000 0.0000 0.7216
           NBO accepted:   14. Label:BD*( 1)   2   7
        2 eigenvector(s) stashed in permanent list

 Search of NHO DM block for the following atom(s):   2   8
      Select eigenvectors with eigenvalue > 1.900
       1.996 0.004 0.000 0.000 0.000 0.000
      Eigenvector ( 1) has occupancy 1.99553
            0.0000 0.0000 0.0000 0.7216 0.0000 0.6924
      Occupancy is 1.996 after deleting minor hybrid components
            0.0000 0.0000 0.0000 0.7216 0.0000 0.6924
           NBO accepted:   15. Label:BD ( 1)   2   8
      Occupancy is 0.004 for antibonding component
            0.0000 0.0000 0.0000-0.6924 0.0000 0.7216
           NBO accepted:   16. Label:BD*( 1)   2   8
        2 eigenvector(s) stashed in permanent list

  2-center NBOs projected from the NHO density matrix
       0.000 electrons remain in the fully projected matrix

                            Occupancies       Lewis Structure    Low   High
         Max    Occ     -------------------  -----------------   occ   occ
  Cycle  Ctr   Thresh    Lewis   non-Lewis     CR  BD  nC  LP    (L)   (NL)
 ============================================================================
    1     2     1.90    17.97174   0.02826      2   7   0   0     0      0
 ----------------------------------------------------------------------------

 Structure accepted: No low occupancy Lewis orbitals

 -------------------------------------------------------
   Core                      4.00000 (100.000% of   4)
   Valence Lewis            13.97174 ( 99.798% of  14)
  ==================      =============================
   Total Lewis              17.97174 ( 99.843% of  18)
  -----------------------------------------------------
   Valence non-Lewis         0.02826 (  0.157% of  18)
   Rydberg non-Lewis         0.00000 (  0.000% of  18)
  ==================      =============================
   Total non-Lewis           0.02826 (  0.157% of  18)
 -------------------------------------------------------


     (Occupancy)   Bond orbital / Coefficients / Hybrids
 ------------------ Lewis ------------------------------------------------------
   1. (2.00000) CR ( 1) C  1            s(100.00%)
                                         1.0000  0.0000  0.0000  0.0000  0.0000
   2. (2.00000) CR ( 1) C  2            s(100.00%)
                                         1.0000  0.0000  0.0000  0.0000  0.0000
   3. (1.99857) BD ( 1) C  1- C  2
               ( 50.00%)   0.7071* C  1 s( 25.75%)p 2.88( 74.25%)
                                         0.0000  0.5075  0.0000  0.0000 -0.8617
               ( 50.00%)   0.7071* C  2 s( 25.75%)p 2.88( 74.25%)
                                         0.0000  0.5075  0.0000  0.0000  0.8617
   4. (1.99553) BD ( 1) C  1- H  3
               ( 52.06%)   0.7216* C  1 s( 24.75%)p 3.04( 75.25%)
                                         0.0000  0.4975  0.0000  0.8165  0.2930
               ( 47.94%)   0.6924* H  3 s(100.00%)
                                         1.0000
   5. (1.99553) BD ( 1) C  1- H  4
               ( 52.06%)   0.7216* C  1 s( 24.75%)p 3.04( 75.25%)
                                         0.0000  0.4975 -0.7071 -0.4082  0.2930
               ( 47.94%)   0.6924* H  4 s(100.00%)
                                         1.0000
   6. (1.99553) BD ( 1) C  1- H  5
               ( 52.06%)   0.7216* C  1 s( 24.75%)p 3.04( 75.25%)
                                         0.0000  0.4975  0.7071 -0.4082  0.2930
               ( 47.94%)   0.6924* H  5 s(100.00%)
                                         1.0000
   7. (1.99553) BD ( 1) C  2- H  6
               ( 52.06%)   0.7216* C  2 s( 24.75%)p 3.04( 75.25%)
                                         0.0000  0.4975  0.0000 -0.8165 -0.2930
               ( 47.94%)   0.6924* H  6 s(100.00%)
                                         1.0000
   8. (1.99553) BD ( 1) C  2- H  7
               ( 52.06%)   0.7216* C  2 s( 24.75%)p 3.04( 75.25%)
                                         0.0000  0.4975 -0.7071  0.4082 -0.2930
               ( 47.94%)   0.6924* H  7 s(100.00%)
                                         1.0000
   9. (1.99553) BD ( 1) C  2- H  8
               ( 52.06%)   0.7216* C  2 s( 24.75%)p 3.04( 75.25%)
                                         0.0000  0.4975  0.7071  0.4082 -0.2930
               ( 47.94%)   0.6924* H  8 s(100.00%)
                                         1.0000
 ---------------- non-Lewis ----------------------------------------------------
  10. (0.00135) BD*( 1) C  1- C  2
               ( 50.00%)   0.7071* C  1 s( 25.75%)p 2.88( 74.25%)
                                         0.0000  0.5075  0.0000  0.0000 -0.8617
               ( 50.00%)  -0.7071* C  2 s( 25.75%)p 2.88( 74.25%)
                                         0.0000  0.5075  0.0000  0.0000  0.8617
  11. (0.00449) BD*( 1) C  1- H  3
               ( 47.94%)   0.6924* C  1 s( 24.75%)p 3.04( 75.25%)
                                         0.0000 -0.4975  0.0000 -0.8165 -0.2930
               ( 52.06%)  -0.7216* H  3 s(100.00%)
                                        -1.0000
  12. (0.00449) BD*( 1) C  1- H  4
               ( 47.94%)   0.6924* C  1 s( 24.75%)p 3.04( 75.25%)
                                         0.0000 -0.4975  0.7071  0.4082 -0.2930
               ( 52.06%)  -0.7216* H  4 s(100.00%)
                                        -1.0000
  13. (0.00449) BD*( 1) C  1- H  5
               ( 47.94%)   0.6924* C  1 s( 24.75%)p 3.04( 75.25%)
                                         0.0000 -0.4975 -0.7071  0.4082 -0.2930
               ( 52.06%)  -0.7216* H  5 s(100.00%)
                                        -1.0000
  14. (0.00449) BD*( 1) C  2- H  6
               ( 47.94%)   0.6924* C  2 s( 24.75%)p 3.04( 75.25%)
                                         0.0000 -0.4975  0.0000  0.8165  0.2930
               ( 52.06%)  -0.7216* H  6 s(100.00%)
                                        -1.0000
  15. (0.00449) BD*( 1) C  2- H  7
               ( 47.94%)   0.6924* C  2 s( 24.75%)p 3.04( 75.25%)
                                         0.0000 -0.4975  0.7071 -0.4082  0.2930
               ( 52.06%)  -0.7216* H  7 s(100.00%)
                                        -1.0000
  16. (0.00449) BD*( 1) C  2- H  8
               ( 47.94%)   0.6924* C  2 s( 24.75%)p 3.04( 75.25%)
                                         0.0000 -0.4975 -0.7071 -0.4082  0.2930
               ( 52.06%)  -0.7216* H  8 s(100.00%)
                                        -1.0000


 NHO DIRECTIONALITY AND BOND BENDING (deviation from line of nuclear centers at
                                      the position of maximum hybrid amplitude)

         [Thresholds for printing:  angular deviation  >  1.0 degree]
                                    p- or d-character  > 25.0%
                                    orbital occupancy  >  0.10e

                        Line of Centers        Hybrid 1             Hybrid 2
                        ---------------  -------------------  ------------------
           NBO            Theta   Phi    Theta   Phi    Dev   Theta   Phi    Dev
 ===============================================================================
   4. BD ( 1) C  1- H  3   68.8   90.0    70.1   90.0   1.3     --     --    --
   5. BD ( 1) C  1- H  4   68.8  210.0    70.1  210.0   1.3     --     --    --
   6. BD ( 1) C  1- H  5   68.8  330.0    70.1  330.0   1.3     --     --    --
   7. BD ( 1) C  2- H  6  111.2  270.0   109.9  270.0   1.3     --     --    --
   8. BD ( 1) C  2- H  7  111.2  150.0   109.9  150.0   1.3     --     --    --
   9. BD ( 1) C  2- H  8  111.2   30.0   109.9   30.0   1.3     --     --    --


 SECOND ORDER PERTURBATION THEORY ANALYSIS OF FOCK MATRIX IN NBO BASIS

     Threshold for printing:   0.50 kcal/mol
                                                          E(2) E(NL)-E(L) F(L,NL)
      Donor (L) NBO              Acceptor (NL) NBO      kcal/mol   a.u.    a.u.
 ===============================================================================

 within unit  1
    4. BD ( 1) C  1- H  3      14. BD*( 1) C  2- H  6      2.43    1.34   0.051
    5. BD ( 1) C  1- H  4      16. BD*( 1) C  2- H  8      2.43    1.34   0.051
    6. BD ( 1) C  1- H  5      15. BD*( 1) C  2- H  7      2.43    1.34   0.051
    7. BD ( 1) C  2- H  6      11. BD*( 1) C  1- H  3      2.43    1.34   0.051
    8. BD ( 1) C  2- H  7      13. BD*( 1) C  1- H  5      2.43    1.34   0.051
    9. BD ( 1) C  2- H  8      12. BD*( 1) C  1- H  4      2.43    1.34   0.051


 NATURAL BOND ORBITALS (Summary):

                                                     Principal Delocalizations
           NBO                 Occupancy    Energy   (geminal,vicinal,remote)
 ===============================================================================
 Molecular unit  1  (C2H6)
 ------ Lewis --------------------------------------
    1. CR ( 1) C  1             2.00000   -11.02261
    2. CR ( 1) C  2             2.00000   -11.02261
    3. BD ( 1) C  1- C  2       1.99857    -0.64032
    4. BD ( 1) C  1- H  3       1.99553    -0.61460  14(v)
    5. BD ( 1) C  1- H  4       1.99553    -0.61460  16(v)
    6. BD ( 1) C  1- H  5       1.99553    -0.61460  15(v)
    7. BD ( 1) C  2- H  6       1.99553    -0.61460  11(v)
    8. BD ( 1) C  2- H  7       1.99553    -0.61460  13(v)
    9. BD ( 1) C  2- H  8       1.99553    -0.61460  12(v)
 ------ non-Lewis ----------------------------------
   10. BD*( 1) C  1- C  2       0.00135     0.70374
   11. BD*( 1) C  1- H  3       0.00449     0.72418
   12. BD*( 1) C  1- H  4       0.00449     0.72418
   13. BD*( 1) C  1- H  5       0.00449     0.72418
   14. BD*( 1) C  2- H  6       0.00449     0.72418
   15. BD*( 1) C  2- H  7       0.00449     0.72418
   16. BD*( 1) C  2- H  8       0.00449     0.72418
          -------------------------------
                 Total Lewis   17.97174  ( 99.8430%)
           Valence non-Lewis    0.02826  (  0.1570%)
           Rydberg non-Lewis    0.00000  (  0.0000%)
          -------------------------------
               Total unit  1   18.00000  (100.0000%)
              Charge unit  1    0.00000

 $CHOOSE
   BOND S 1 2 S 1 3 S 1 4 S 1 5 S 2 6 S 2 7 S 2 8 END
 $END

 NBO analysis completed in 0.16 CPU seconds (1 wall second)
 Maximum scratch memory used by NBO was 223374 words (1.70 MB)
 Maximum scratch memory used by G16NBO was 8622 words (0.07 MB)

 Opening RunExU unformatted file "/cluster/work/users/beto93/mol25/Gau-1107434.EUF"
 Read unf file /cluster/work/users/beto93/mol25/Gau-1107434.EUF:
 Label Gaussian matrix elements                                         IVers= 2 NLab= 2 Version=ES64L-G16RevC.01
 Title mol25-NBO                                                       
 NAtoms=     8 NBasis=    16 NBsUse=    16 ICharg=     0 Multip=     1 NE=    18 Len12L=8 Len4L=8 IOpCl= 0 ICGU=111
 GAUSSIAN SCALARS                    NI= 1 NR= 1 NTot=       1 LenBuf=    2 NRI=1 N=    1000
 NPA CHARGES                         NI= 0 NR= 1 NTot=       8 LenBuf= 4000 NRI=1 N=       8
 Recovered energy= -78.3057905928     dipole=     -0.000000000000      0.000000000000      0.000000000000
 Unable to Open any file for archive entry.
 1\1\GINC-C2-6\SP\RHF\STO-3G\C2H6\BETO93\18-Nov-2024\0\\#RHF/STO-3G int
 =nobasistransform Symmetry=None 5D 7F Pop=NBO7Read\\mol25-NBO\\0,1\C,0
 ,0.,0.,0.762209\C,0,0.,0.,-0.762209\H,0,0.,1.018957,1.157229\H,0,-0.88
 2443,-0.509479,1.157229\H,0,0.882443,-0.509479,1.157229\H,0,0.,-1.0189
 57,-1.157229\H,0,-0.882443,0.509479,-1.157229\H,0,0.882443,0.509479,-1
 .157229\\Version=ES64L-G16RevC.01\HF=-78.3057906\RMSD=6.656e-09\Dipole
 =0.,0.,0.\Quadrupole=0.0926495,0.0926499,-0.1852994,0.,0.,-0.0000001\P
 G=Unknown\\@
 The archive entry for this job was punched.


 WE LEARN WISDOM FROM FAILURE MUCH MORE THAN FROM SUCCESS.
 WE DISCOVER WHAT WILL DO BY FINDING OUT WHAT WILL NOT DO...
 AND HE WHO NEVER MADE A MISTAKE NEVER MADE A DISCOVERY
 Job cpu time:       0 days  0 hours  0 minutes  8.4 seconds.
 Elapsed time:       0 days  0 hours  0 minutes  2.9 seconds.
 File lengths (MBytes):  RWF=     10 Int=      0 D2E=      0 Chk=      1 Scr=      1
 Normal termination of Gaussian 16 at Mon Nov 18 15:41:19 2024.
