 Entering Gaussian System, Link 0=g16
 Initial command:
 /cluster/software/Gaussian/g16_C.01/l1.exe "/cluster/work/users/beto93/CH3NH2/Gau-1258967.inp" -scrdir="/cluster/work/users/beto93/CH3NH2/"
 Entering Link 1 = /cluster/software/Gaussian/g16_C.01/l1.exe PID=   1258972.
  
 Copyright (c) 1988-2019, Gaussian, Inc.  All Rights Reserved.
  
 This is part of the Gaussian(R) 16 program.  It is based on
 the Gaussian(R) 09 system (copyright 2009, Gaussian, Inc.),
 the Gaussian(R) 03 system (copyright 2003, Gaussian, Inc.),
 the Gaussian(R) 98 system (copyright 1998, Gaussian, Inc.),
 the Gaussian(R) 94 system (copyright 1995, Gaussian, Inc.),
 the Gaussian 92(TM) system (copyright 1992, Gaussian, Inc.),
 the Gaussian 90(TM) system (copyright 1990, Gaussian, Inc.),
 the Gaussian 88(TM) system (copyright 1988, Gaussian, Inc.),
 the Gaussian 86(TM) system (copyright 1986, Carnegie Mellon
 University), and the Gaussian 82(TM) system (copyright 1983,
 Carnegie Mellon University). Gaussian is a federally registered
 trademark of Gaussian, Inc.
  
 This software contains proprietary and confidential information,
 including trade secrets, belonging to Gaussian, Inc.
  
 This software is provided under written license and may be
 used, copied, transmitted, or stored only in accord with that
 written license.
  
 The following legend is applicable only to US Government
 contracts under FAR:
  
                    RESTRICTED RIGHTS LEGEND
  
 Use, reproduction and disclosure by the US Government is
 subject to restrictions as set forth in subparagraphs (a)
 and (c) of the Commercial Computer Software - Restricted
 Rights clause in FAR 52.227-19.
  
 Gaussian, Inc.
 340 Quinnipiac St., Bldg. 40, Wallingford CT 06492
  
  
 ---------------------------------------------------------------
 Warning -- This program may not be used in any manner that
 competes with the business of Gaussian, Inc. or will provide
 assistance to any competitor of Gaussian, Inc.  The licensee
 of this program is prohibited from giving any competitor of
 Gaussian, Inc. access to this program.  By using this program,
 the user acknowledges that Gaussian, Inc. is engaged in the
 business of creating and licensing software in the field of
 computational chemistry and represents and warrants to the
 licensee that it is not a competitor of Gaussian, Inc. and that
 it will not use this program in any manner prohibited above.
 ---------------------------------------------------------------
  

 Cite this work as:
 Gaussian 16, Revision C.01,
 M. J. Frisch, G. W. Trucks, H. B. Schlegel, G. E. Scuseria, 
 M. A. Robb, J. R. Cheeseman, G. Scalmani, V. Barone, 
 G. A. Petersson, H. Nakatsuji, X. Li, M. Caricato, A. V. Marenich, 
 J. Bloino, B. G. Janesko, R. Gomperts, B. Mennucci, H. P. Hratchian, 
 J. V. Ortiz, A. F. Izmaylov, J. L. Sonnenberg, D. Williams-Young, 
 F. Ding, F. Lipparini, F. Egidi, J. Goings, B. Peng, A. Petrone, 
 T. Henderson, D. Ranasinghe, V. G. Zakrzewski, J. Gao, N. Rega, 
 G. Zheng, W. Liang, M. Hada, M. Ehara, K. Toyota, R. Fukuda, 
 J. Hasegawa, M. Ishida, T. Nakajima, Y. Honda, O. Kitao, H. Nakai, 
 T. Vreven, K. Throssell, J. A. Montgomery, Jr., J. E. Peralta, 
 F. Ogliaro, M. J. Bearpark, J. J. Heyd, E. N. Brothers, K. N. Kudin, 
 V. N. Staroverov, T. A. Keith, R. Kobayashi, J. Normand, 
 K. Raghavachari, A. P. Rendell, J. C. Burant, S. S. Iyengar, 
 J. Tomasi, M. Cossi, J. M. Millam, M. Klene, C. Adamo, R. Cammi, 
 J. W. Ochterski, R. L. Martin, K. Morokuma, O. Farkas, 
 J. B. Foresman, and D. J. Fox, Gaussian, Inc., Wallingford CT, 2019.
 
 ******************************************
 Gaussian 16:  ES64L-G16RevC.01  3-Jul-2019
                24-Jul-2024 
 ******************************************
 %LindaWorkers=c1-25-ib
 %NProcShared=4
 Will use up to    4 processors via shared memory.
 %mem=25GB
 %chk=a.chk
 SetLPE:    new flags="-opt 'Tsnet.Node.lindarsharg: ssh'  -nodelist 'c1-25-ib.saga' -env GAUSS_MDEF=3355443200 -env GAUSS_EXEDIR="/cluster/software/Gaussian/g16_C.01/bsd:/cluster/software/Gaussian/g16_C.01""
 Will use up to    1 processors via Linda.
 ------------------------
 #RHF/6-31G* Pop=NBO7Read
 ------------------------
 1/38=1,163=2,172=1/1;
 2/12=2,17=6,18=5,40=1/2;
 3/5=1,6=6,7=1,11=1,25=1,30=1,116=1/1,2,3;
 4//1;
 5/5=2,38=5/2;
 6/7=2,8=2,9=2,10=2,28=1,40=2,113=1,114=1,124=2103/1,12;
 99/5=1,9=1/99;
 -----
 NBO-a
 -----
 Symbolic Z-matrix:
 Charge =  0 Multiplicity = 1
 C                     0.004    -0.00755  -0.00604 
 H                     0.0049    0.0068    1.08263 
 H                     1.04102   0.02994  -0.34972 
 H                    -0.50431   0.88878  -0.35763 
 N                    -0.73886  -1.20488  -0.47661 
 H                    -0.67648  -1.2201   -1.50799 
 H                    -0.20508  -2.0366   -0.17464 
 
                          Input orientation:                          
 ---------------------------------------------------------------------
 Center     Atomic      Atomic             Coordinates (Angstroms)
 Number     Number       Type             X           Y           Z
 ---------------------------------------------------------------------
      1          6           0        0.004002   -0.007547   -0.006036
      2          1           0        0.004898    0.006802    1.082630
      3          1           0        1.041020    0.029944   -0.349717
      4          1           0       -0.504309    0.888779   -0.357633
      5          7           0       -0.738855   -1.204882   -0.476612
      6          1           0       -0.676480   -1.220095   -1.507986
      7          1           0       -0.205075   -2.036596   -0.174644
 ---------------------------------------------------------------------
                    Distance matrix (angstroms):
                    1          2          3          4          5
     1  C    0.000000
     2  H    1.088761   0.000000
     3  H    1.093128   1.767966   0.000000
     4  H    1.088761   1.763954   1.767965   0.000000
     5  N    1.485560   2.110114   2.169989   2.110115   0.000000
     6  H    2.046749   2.946327   2.419502   2.408382   1.033370
     7  H    2.046749   2.408382   2.419502   2.946327   1.033370
                    6          7
     6  H    0.000000
     7  H    1.633003   0.000000
 Stoichiometry    CH5N
 Framework group  CS[SG(CHN),X(H4)]
 Deg. of freedom     9
 Full point group                 CS      NOp   2
 Largest Abelian subgroup         CS      NOp   2
 Largest concise Abelian subgroup CS      NOp   2
                         Standard orientation:                         
 ---------------------------------------------------------------------
 Center     Atomic      Atomic             Coordinates (Angstroms)
 Number     Number       Type             X           Y           Z
 ---------------------------------------------------------------------
      1          6           0       -0.058292    0.712886   -0.000000
      2          1           0       -0.587597    1.069752    0.881977
      3          1           0        0.942410    1.152799    0.000000
      4          1           0       -0.587597    1.069752   -0.881977
      5          7           0       -0.058292   -0.772674   -0.000000
      6          1           0        0.495291   -1.080450   -0.816502
      7          1           0        0.495291   -1.080450    0.816502
 ---------------------------------------------------------------------
 Rotational constants (GHZ):         101.1622786          22.3891021          21.5971473
 Standard basis: 6-31G(d) (6D, 7F)
 There are    28 symmetry adapted cartesian basis functions of A'  symmetry.
 There are    12 symmetry adapted cartesian basis functions of A"  symmetry.
 There are    28 symmetry adapted basis functions of A'  symmetry.
 There are    12 symmetry adapted basis functions of A"  symmetry.
    40 basis functions,    76 primitive gaussians,    40 cartesian basis functions
     9 alpha electrons        9 beta electrons
       nuclear repulsion energy        41.6464971655 Hartrees.
 NAtoms=    7 NActive=    7 NUniq=    5 SFac= 1.96D+00 NAtFMM=   60 NAOKFM=F Big=F
 Integral buffers will be    131072 words long.
 Raffenetti 1 integral format.
 Two-electron integral symmetry is turned on.
 One-electron integrals computed using PRISM.
 NBasis=    40 RedAO= T EigKep=  9.39D-03  NBF=    28    12
 NBsUse=    40 1.00D-06 EigRej= -1.00D+00 NBFU=    28    12
 ExpMin= 1.61D-01 ExpMax= 4.17D+03 ExpMxC= 6.27D+02 IAcc=3 IRadAn=         5 AccDes= 0.00D+00
 Harris functional with IExCor=  205 and IRadAn=       5 diagonalized for initial guess.
 HarFok:  IExCor=  205 AccDes= 0.00D+00 IRadAn=         5 IDoV= 1 UseB2=F ITyADJ=14
 ICtDFT=  3500011 ScaDFX=  1.000000  1.000000  1.000000  1.000000
 FoFCou: FMM=F IPFlag=           0 FMFlag=      100000 FMFlg1=           0
         NFxFlg=           0 DoJE=T BraDBF=F KetDBF=T FulRan=T
         wScrn=  0.000000 ICntrl=       500 IOpCl=  0 I1Cent=   200000004 NGrid=           0
         NMat0=    1 NMatS0=      1 NMatT0=    0 NMatD0=    1 NMtDS0=    0 NMtDT0=    0
 Petite list used in FoFCou.
 Initial guess orbital symmetries:
       Occupied  (A') (A') (A') (A') (A") (A') (A') (A") (A')
       Virtual   (A') (A') (A") (A') (A") (A') (A') (A") (A') (A')
                 (A") (A') (A') (A") (A") (A') (A') (A') (A') (A")
                 (A') (A') (A') (A") (A') (A") (A') (A") (A') (A')
                 (A')
 The electronic state of the initial guess is 1-A'.
 Keep R1 ints in memory in symmetry-blocked form, NReq=1176624.
 Requested convergence on RMS density matrix=1.00D-08 within 128 cycles.
 Requested convergence on MAX density matrix=1.00D-06.
 Requested convergence on             energy=1.00D-06.
 No special actions if energy rises.
 SCF Done:  E(RHF) =  -95.2072347966     A.U. after   11 cycles
            NFock= 11  Conv=0.75D-08     -V/T= 2.0028

 **********************************************************************

            Population analysis using the SCF Density.

 **********************************************************************

 Orbital symmetries:
       Occupied  (A') (A') (A') (A') (A") (A') (A') (A") (A')
       Virtual   (A') (A') (A") (A') (A") (A') (A") (A') (A') (A")
                 (A') (A') (A') (A") (A') (A") (A') (A') (A') (A")
                 (A') (A') (A') (A") (A') (A") (A') (A") (A') (A')
                 (A')
 The electronic state is 1-A'.
 Alpha  occ. eigenvalues --  -15.54701 -11.24232  -1.15926  -0.89296  -0.65053
 Alpha  occ. eigenvalues --   -0.59863  -0.54627  -0.51605  -0.39336
 Alpha virt. eigenvalues --    0.22177   0.28508   0.30499   0.32802   0.33159
 Alpha virt. eigenvalues --    0.40736   0.76649   0.77175   0.78722   0.96598
 Alpha virt. eigenvalues --    0.99257   1.05193   1.13871   1.18653   1.19859
 Alpha virt. eigenvalues --    1.20898   1.24251   1.29451   1.64205   1.79220
 Alpha virt. eigenvalues --    1.83777   2.17847   2.33791   2.39190   2.47847
 Alpha virt. eigenvalues --    2.64451   2.67893   2.77159   3.00601   4.16738
 Alpha virt. eigenvalues --    4.66980
          Condensed to atoms (all electrons):
               1          2          3          4          5          6
     1  C    4.924454   0.398398   0.393158   0.398398   0.264707  -0.037988
     2  H    0.398398   0.533199  -0.037157  -0.025642  -0.038549   0.004826
     3  H    0.393158  -0.037157   0.597167  -0.037157  -0.046458  -0.003230
     4  H    0.398398  -0.025642  -0.037157   0.533199  -0.038549  -0.003294
     5  N    0.264707  -0.038549  -0.046458  -0.038549   7.027145   0.324852
     6  H   -0.037988   0.004826  -0.003230  -0.003294   0.324852   0.420224
     7  H   -0.037988  -0.003294  -0.003230   0.004826   0.324852  -0.029285
               7
     1  C   -0.037988
     2  H   -0.003294
     3  H   -0.003230
     4  H    0.004826
     5  N    0.324852
     6  H   -0.029285
     7  H    0.420224
 Mulliken charges:
               1
     1  C   -0.303139
     2  H    0.168219
     3  H    0.136909
     4  H    0.168219
     5  N   -0.818000
     6  H    0.323896
     7  H    0.323896
 Sum of Mulliken charges =  -0.00000
 Mulliken charges with hydrogens summed into heavy atoms:
               1
     1  C    0.170208
     5  N   -0.170208
 Electronic spatial extent (au):  <R**2>=             96.0881
 Charge=              0.0000 electrons
 Dipole moment (field-independent basis, Debye):
    X=              1.6209    Y=              0.6367    Z=              0.0000  Tot=              1.7415
 Quadrupole moment (field-independent basis, Debye-Ang):
   XX=            -14.7119   YY=            -14.5851   ZZ=            -12.6060
   XY=             -2.3977   XZ=              0.0000   YZ=             -0.0000
 Traceless Quadrupole moment (field-independent basis, Debye-Ang):
   XX=             -0.7443   YY=             -0.6174   ZZ=              1.3617
   XY=             -2.3977   XZ=              0.0000   YZ=             -0.0000
 Octapole moment (field-independent basis, Debye-Ang**2):
  XXX=              1.8002  YYY=             -1.2554  ZZZ=              0.0000  XYY=              2.6939
  XXY=              0.0627  XXZ=              0.0000  XZZ=              0.7367  YZZ=             -1.7715
  YYZ=              0.0000  XYZ=             -0.0000
 Hexadecapole moment (field-independent basis, Debye-Ang**3):
 XXXX=            -23.6146 YYYY=            -76.8384 ZZZZ=            -22.8585 XXXY=              1.0282
 XXXZ=             -0.0000 YYYX=             -1.5193 YYYZ=             -0.0000 ZZZX=             -0.0000
 ZZZY=             -0.0000 XXYY=            -16.6293 XXZZ=             -7.2899 YYZZ=            -14.7409
 XXYZ=             -0.0000 YYXZ=              0.0000 ZZXY=             -1.2905
 N-N= 4.164649716549D+01 E-N=-3.055594457796D+02  KE= 9.494478974901D+01
 Symmetry A'   KE= 9.039769116770D+01
 Symmetry A"   KE= 4.547098581317D+00
 Running external command "gaunbo7 R"
         input file       "/cluster/work/users/beto93/CH3NH2/Gau-1258972.EIn"
         output file      "/cluster/work/users/beto93/CH3NH2/Gau-1258972.EOu"
         message file     "/cluster/work/users/beto93/CH3NH2/Gau-1258972.EMs"
         fchk file        "/cluster/work/users/beto93/CH3NH2/Gau-1258972.EFC"
         mat. el file     "/cluster/work/users/beto93/CH3NH2/Gau-1258972.EUF"

 Writing WrtUnf unformatted file "/cluster/work/users/beto93/CH3NH2/Gau-1258972.EUF"
 Gaussian matrix elements                                         Version   2 NLab=11 Len12L=8 Len4L=8
 Write SHELL TO ATOM MAP                   from file      0 offset           0 length                  18 to matrix element file.
 Write SHELL TYPES                         from file      0 offset           0 length                  18 to matrix element file.
 Write NUMBER OF PRIMITIVES PER SHELL      from file      0 offset           0 length                  18 to matrix element file.
 Write PRIMITIVE EXPONENTS                 from file      0 offset           0 length                  42 to matrix element file.
 Write CONTRACTION COEFFICIENTS            from file      0 offset           0 length                  42 to matrix element file.
 Write P(S=P) CONTRACTION COEFFICIENTS     from file      0 offset           0 length                  42 to matrix element file.
 Write COORDINATES OF EACH SHELL           from file      0 offset           0 length                  54 to matrix element file.
 Write BONDS PER ATOM                      from file      0 offset           0 length                   7 to matrix element file.
 Write BONDED ATOMS                        from file      0 offset           0 length                  12 to matrix element file.
 Write BOND TYPES                          from file      0 offset           0 length                  12 to matrix element file.
 Write ONIOM CHARGE/MULT                   from file      0 offset           0 length                  32 to matrix element file.
 Write ONIOM ATOM LAYERS                   from file      0 offset           0 length                   7 to matrix element file.
 Write ONIOM ATOM MODIFIERS                from file      0 offset           0 length                   7 to matrix element file.
 Write ONIOM ATOM TYPES                    from file      0 offset           0 length                   7 to matrix element file.
 Write ONIOM LINK ATOMS                    from file      0 offset           0 length                   7 to matrix element file.
 Write ONIOM LINK CHARGES                  from file      0 offset           0 length                   7 to matrix element file.
 Write ONIOM LINK DISTANCES                from file      0 offset           0 length                  28 to matrix element file.
 Write SYMINF INTS                         from file      0 offset           0 length                  26 to matrix element file.
 Write ROTTR TO SO                         from file      0 offset           0 length                  12 to matrix element file.
 Write GAUSSIAN SCALARS                    from file    501 offset           0 to matrix element file.
 Write OPTIMIZATION FLAGS                  from file      0 offset           0 length                   7 to matrix element file.
 Write INTEGER ISO                         from file      0 offset           0 length                   7 to matrix element file.
 Write INTEGER SPIN                        from file      0 offset           0 length                   7 to matrix element file.
 Write REAL ZEFFECTIVE                     from file      0 offset           0 length                   7 to matrix element file.
 Write REAL QUADRUPOLEMOMENT               from file      0 offset           0 length                   7 to matrix element file.
 Write REAL GFACTOR                        from file      0 offset           0 length                   7 to matrix element file.
 Write REAL ZNUCLEAR                       from file      0 offset           0 length                   7 to matrix element file.
 Write MULLIKEN CHARGES                    from file      0 offset           0 length                   7 to matrix element file.
 Write NUCLEAR GRADIENT                    from file  10584 offset           0 length                  21 to matrix element file.
 Array NUCLEAR FORCE CONSTANTS              on  file  10585 does not exist.
 Write ELECTRIC DIPOLE MOMENT              from file      0 offset           0 length                   3 to matrix element file.
 Write NON-ADIABATIC COUPLING              from file  10810 offset           0 length                  21 to matrix element file.
 Write FINITE EM FIELD                     from file  10521 offset           0 length                  35 to matrix element file.
 Write OVERLAP                             from file  10514 offset           0 length                 820 to matrix element file.
 Write CORE HAMILTONIAN ALPHA              from file  10515 offset           0 length                 820 to matrix element file.
 Write CORE HAMILTONIAN BETA               from file  10515 offset         820 length                 820 to matrix element file.
 Write KINETIC ENERGY                      from file  10516 offset           0 length                 820 to matrix element file.
 Write ORTHOGONAL BASIS                    from file  10685 offset           0 length                1600 to matrix element file.
 Write DIPOLE INTEGRALS                    from file  10518 offset           0 length                2460 to matrix element file.
 Array DIP VEL INTEGRALS                    on  file  10572 does not exist.
 Array R X DEL INTEGRALS                    on  file  10572 does not exist.
 Write ALPHA ORBITAL ENERGIES              from file      0 offset           0 length                  40 to matrix element file.
 Write ALPHA MO COEFFICIENTS               from file  10524 offset           0 length                1600 to matrix element file.
 Write ALPHA DENSITY MATRIX                from file      0 offset           0 length                 820 to matrix element file.
 Write ALPHA FOCK MATRIX                   from file  10536 offset           0 length                 820 to matrix element file.
 Write ENERGY-WEIGHTED DENSITY             from file  10571 offset           0 length                 820 to matrix element file.
 Write ALPHA SCF DENSITY MATRIX            from file      0 offset           0 length                 820 to matrix element file.
 No 2e integrals to process.
 Perform NBO analysis...executing G16NBO...

 *********************************** NBO 7.0 ***********************************
             N A T U R A L   A T O M I C   O R B I T A L   A N D
          N A T U R A L   B O N D   O R B I T A L   A N A L Y S I S
 **************************** Espen Tangen (S101595) ***************************
  (c) Copyright 1996-2021 Board of Regents of the University of Wisconsin System
      on behalf of the Theoretical Chemistry Institute.  All rights reserved.

          Cite this program [NBO 7.0.10 (8-Feb-2021)] as:

          NBO 7.0.  E. D. Glendening, J. K. Badenhoop, A. E. Reed,
          J. E. Carpenter, J. A. Bohmann, C. M. Morales, P. Karafiloglou,
          C. R. Landis, and F. Weinhold, Theoretical Chemistry Institute,
          University of Wisconsin, Madison, WI (2018)

       /NPA    / : Natural Population Analysis
       /AOPNAO / : Print the AO to PNAO transformation
       /AONAO  / : Print the AO to NAO transformation
       /AONO   / : Print the NOs in the AO basis
       /AOMO   / : Print the MOs in the AO basis
       /BOAO   / : Print the AO bond-order matrix
       /DMAO   / : Print the AO density matrix
       /DMPNAO / : Print the PNAO density matrix
       /DMNAO  / : Print the NAO density matrix
       /DMMO   / : Print the MO density matrix
       /SAO    / : Print the AO overlap matrix
       /SPNAO  / : Print the PNAO overlap matrix
       /DETAIL / : Write details of NBO search
       /ARCHIVE/ : Write the archive file to lfn47
       /AOINFO / : Write AO information to lfn31
       /FILE   / : Set to inpGenNbo

 Filename set to inpGenNbo

 Job title: NBO-a


 MOs in the AO basis:

           AO          1       2       3       4       5       6       7       8
      ------------ ------- ------- ------- ------- ------- ------- ------- -------
   1.  C 1 (s)      0.0000  0.9958 -0.0951 -0.1669  0.0000 -0.0039 -0.0070  0.0000
   2.  C 1 (s)      0.0002  0.0279  0.1767  0.3179  0.0000  0.0019  0.0174  0.0000
   3.  C 1 (px)     0.0000  0.0000  0.0050 -0.0131  0.0000  0.3263  0.2496  0.0000
   4.  C 1 (py)    -0.0003 -0.0003 -0.0889  0.0963  0.0000  0.1983 -0.3091  0.0000
   5.  C 1 (pz)     0.0000  0.0000  0.0000  0.0000  0.2429  0.0000  0.0000  0.3739
   6.  C 1 (s)      0.0015 -0.0136  0.1080  0.3391  0.0000  0.0210 -0.0122  0.0000
   7.  C 1 (px)     0.0003  0.0001  0.0031  0.0075  0.0000  0.1457  0.1423  0.0000
   8.  C 1 (py)    -0.0005  0.0001 -0.0031  0.0355  0.0000  0.0766 -0.1349  0.0000
   9.  C 1 (pz)     0.0000  0.0000  0.0000  0.0000  0.1217  0.0000  0.0000  0.2052
  10.  C 1 (d1)    -0.0001 -0.0018 -0.0021  0.0127  0.0000  0.0262 -0.0013  0.0000
  11.  C 1 (d4)    -0.0002 -0.0018  0.0209 -0.0080  0.0000 -0.0158  0.0269  0.0000
  12.  C 1 (d6)    -0.0001 -0.0018 -0.0013  0.0142  0.0000 -0.0094 -0.0290  0.0000
  13.  C 1 (d2)     0.0000  0.0000 -0.0013  0.0018  0.0000  0.0107  0.0124  0.0000
  14.  C 1 (d3)     0.0000  0.0000  0.0000  0.0000 -0.0135  0.0000  0.0000 -0.0278
  15.  C 1 (d5)     0.0000  0.0000  0.0000  0.0000 -0.0008  0.0000  0.0000  0.0270
  16.  H 2 (s)     -0.0001  0.0001  0.0435  0.1385  0.1132 -0.0533 -0.1419  0.2120
  17.  H 2 (s)     -0.0001  0.0026  0.0074  0.0446  0.0662 -0.0421 -0.1149  0.1864
  18.  H 3 (s)     -0.0001  0.0001  0.0438  0.1330  0.0000  0.2379  0.0796  0.0000
  19.  H 3 (s)     -0.0002  0.0025  0.0048  0.0371  0.0000  0.1929  0.0652  0.0000
  20.  H 4 (s)     -0.0001  0.0001  0.0435  0.1385 -0.1132 -0.0533 -0.1419 -0.2120
  21.  H 4 (s)     -0.0001  0.0026  0.0074  0.0446 -0.0662 -0.0421 -0.1149 -0.1864
  22.  N 5 (s)      0.9951 -0.0002 -0.1809  0.0783  0.0000  0.0307  0.0002  0.0000
  23.  N 5 (s)      0.0247  0.0001  0.3747 -0.1628  0.0000 -0.0738 -0.0021  0.0000
  24.  N 5 (px)     0.0015  0.0000  0.0689 -0.0717  0.0000  0.2476 -0.0202  0.0000
  25.  N 5 (py)     0.0006  0.0000  0.0488  0.1394  0.0000 -0.1732  0.3679  0.0000
  26.  N 5 (pz)     0.0000  0.0000  0.0000  0.0000  0.3911  0.0000  0.0000 -0.2587
  27.  N 5 (s)     -0.0025  0.0023  0.3941 -0.2294  0.0000 -0.1041  0.0059  0.0000
  28.  N 5 (px)    -0.0011 -0.0001  0.0429 -0.0422  0.0000  0.1587 -0.0134  0.0000
  29.  N 5 (py)    -0.0007  0.0010  0.0227  0.0578  0.0000 -0.0931  0.2389  0.0000
  30.  N 5 (pz)     0.0000  0.0000  0.0000  0.0000  0.2223  0.0000  0.0000 -0.1785
  31.  N 5 (d1)    -0.0031 -0.0001  0.0021 -0.0075  0.0000  0.0177 -0.0093  0.0000
  32.  N 5 (d4)    -0.0034 -0.0006  0.0082  0.0177  0.0000 -0.0179  0.0218  0.0000
  33.  N 5 (d6)    -0.0033 -0.0001  0.0119 -0.0128  0.0000  0.0054 -0.0166  0.0000
  34.  N 5 (d2)     0.0001  0.0000 -0.0047  0.0093  0.0000  0.0002  0.0229  0.0000
  35.  N 5 (d3)     0.0000  0.0000  0.0000  0.0000  0.0374  0.0000  0.0000 -0.0287
  36.  N 5 (d5)     0.0000  0.0000  0.0000  0.0000 -0.0023  0.0000  0.0000  0.0149
  37.  H 6 (s)      0.0003 -0.0001  0.1156 -0.0942 -0.1904  0.0839 -0.0866  0.1451
  38.  H 6 (s)      0.0006  0.0003  0.0044 -0.0242 -0.1094  0.0543 -0.0701  0.1180
  39.  H 7 (s)      0.0003 -0.0001  0.1156 -0.0942  0.1904  0.0839 -0.0866 -0.1451
  40.  H 7 (s)      0.0006  0.0003  0.0044 -0.0242  0.1094  0.0543 -0.0701 -0.1180

           AO          9      10      11      12      13      14      15      16
      ------------ ------- ------- ------- ------- ------- ------- ------- -------
   1.  C 1 (s)     -0.0108 -0.0560 -0.1432  0.0000  0.0089  0.0000  0.0573  0.0000
   2.  C 1 (s)      0.0260  0.0379  0.0988  0.0000  0.0025  0.0000 -0.0394  0.0000
   3.  C 1 (px)    -0.1630  0.0257 -0.0141  0.0000 -0.3466  0.0000  0.0235  0.0000
   4.  C 1 (py)    -0.0923  0.1312  0.0567  0.0000  0.0094  0.0000  0.2209  0.0000
   5.  C 1 (pz)     0.0000  0.0000  0.0000  0.1939  0.0000 -0.2629  0.0000 -0.6627
   6.  C 1 (s)     -0.0075  0.9951  2.6309  0.0000 -0.1450  0.0000 -0.9676  0.0000
   7.  C 1 (px)    -0.0791 -0.0320 -0.0539  0.0000 -1.5234  0.0000  0.2457  0.0000
   8.  C 1 (py)    -0.0279  0.5636  0.0854  0.0000  0.1353  0.0000  1.8083  0.0000
   9.  C 1 (pz)     0.0000  0.0000  0.0000  0.6064  0.0000 -1.4470  0.0000  1.3972
  10.  C 1 (d1)    -0.0140 -0.0094 -0.0073  0.0000  0.0074  0.0000 -0.0202  0.0000
  11.  C 1 (d4)     0.0019  0.0020 -0.0115  0.0000  0.0063  0.0000  0.0256  0.0000
  12.  C 1 (d6)     0.0108 -0.0121 -0.0042  0.0000 -0.0110  0.0000 -0.0165  0.0000
  13.  C 1 (d2)    -0.0306 -0.0035  0.0028  0.0000  0.0016  0.0000  0.0064  0.0000
  14.  C 1 (d3)     0.0000  0.0000  0.0000 -0.0007  0.0000 -0.0162  0.0000  0.0986
  15.  C 1 (d5)     0.0000  0.0000  0.0000 -0.0141  0.0000 -0.0037  0.0000 -0.0612
  16.  H 2 (s)      0.0617  0.0017  0.0007 -0.0235 -0.0235  0.0486 -0.0645 -0.4574
  17.  H 2 (s)      0.0673 -0.5222 -1.1302 -0.7981 -0.9694  1.4701 -0.0942 -0.1270
  18.  H 3 (s)     -0.1563  0.0041  0.0060  0.0000  0.0391  0.0000 -0.0547  0.0000
  19.  H 3 (s)     -0.1891 -0.6198 -1.0282  0.0000  1.8907  0.0000 -0.5614  0.0000
  20.  H 4 (s)      0.0617  0.0017  0.0007  0.0235 -0.0235 -0.0486 -0.0645  0.4574
  21.  H 4 (s)      0.0673 -0.5222 -1.1302  0.7981 -0.9694 -1.4701 -0.0942  0.1270
  22.  N 5 (s)      0.0589 -0.1009  0.0746  0.0000 -0.0077  0.0000 -0.0456  0.0000
  23.  N 5 (s)     -0.1401  0.0874 -0.0431  0.0000 -0.0020  0.0000  0.0443  0.0000
  24.  N 5 (px)     0.4822  0.1458 -0.0914  0.0000  0.0366  0.0000 -0.1095  0.0000
  25.  N 5 (py)     0.1896 -0.0571 -0.0348  0.0000  0.0631  0.0000  0.3312  0.0000
  26.  N 5 (pz)     0.0000  0.0000  0.0000  0.2845  0.0000  0.1805  0.0000  0.0119
  27.  N 5 (s)     -0.2518  1.5601 -1.2735  0.0000  0.1672  0.0000  0.8730  0.0000
  28.  N 5 (px)     0.4307  0.4981 -0.2785  0.0000  0.2838  0.0000 -0.3423  0.0000
  29.  N 5 (py)     0.1820 -0.1497 -0.2707  0.0000  0.1414  0.0000  1.3462  0.0000
  30.  N 5 (pz)     0.0000  0.0000  0.0000  0.8576  0.0000  0.7692  0.0000 -0.0162
  31.  N 5 (d1)     0.0230 -0.0268  0.0202  0.0000  0.0086  0.0000 -0.0193  0.0000
  32.  N 5 (d4)    -0.0028 -0.0303  0.0296  0.0000 -0.0035  0.0000  0.0051  0.0000
  33.  N 5 (d6)    -0.0061 -0.0302  0.0223  0.0000 -0.0093  0.0000  0.0005  0.0000
  34.  N 5 (d2)     0.0088 -0.0038 -0.0031  0.0000 -0.0118  0.0000  0.0120  0.0000
  35.  N 5 (d3)     0.0000  0.0000  0.0000  0.0121  0.0000  0.0066  0.0000 -0.0346
  36.  N 5 (d5)     0.0000  0.0000  0.0000  0.0164  0.0000 -0.0106  0.0000  0.0439
  37.  H 6 (s)      0.0705 -0.0291  0.0233  0.0500  0.0110  0.0064  0.0257  0.2304
  38.  H 6 (s)      0.0595 -0.9863  0.5860  1.2795  0.0007  0.7222  0.6168  0.0407
  39.  H 7 (s)      0.0705 -0.0291  0.0233 -0.0500  0.0110 -0.0064  0.0257 -0.2304
  40.  H 7 (s)      0.0595 -0.9863  0.5860 -1.2795  0.0007 -0.7222  0.6168 -0.0407

           AO         17      18      19      20      21      22      23      24
      ------------ ------- ------- ------- ------- ------- ------- ------- -------
   1.  C 1 (s)     -0.0227  0.0046  0.0000 -0.0239  0.0439 -0.0502  0.0000  0.0279
   2.  C 1 (s)      0.3216 -0.0809  0.0000  0.1545  0.0202 -0.0870  0.0000 -0.7425
   3.  C 1 (px)    -0.0678 -0.6902  0.0000  0.1038  0.4271  0.7320  0.0000  0.2928
   4.  C 1 (py)    -0.9303  0.1899  0.0000 -0.1856  0.2551  0.1347  0.0000 -0.3178
   5.  C 1 (pz)     0.0000  0.0000 -0.5282  0.0000  0.0000  0.0000  0.7757  0.0000
   6.  C 1 (s)     -0.2058  0.0083  0.0000 -0.7382  0.0593  0.1123  0.0000  1.5738
   7.  C 1 (px)     0.1690  1.5776  0.0000 -0.3661 -1.0638 -1.0748  0.0000 -0.2573
   8.  C 1 (py)     1.2157 -0.1472  0.0000  0.5436 -0.8375  0.3486  0.0000  0.2381
   9.  C 1 (pz)     0.0000  0.0000  1.3928  0.0000  0.0000  0.0000 -0.8974  0.0000
  10.  C 1 (d1)    -0.0072 -0.0890  0.0000  0.0651 -0.0041 -0.1013  0.0000 -0.0945
  11.  C 1 (d4)     0.0295 -0.0243  0.0000 -0.1481  0.1174 -0.0695  0.0000 -0.0902
  12.  C 1 (d6)     0.0303  0.0869  0.0000  0.0234 -0.0196  0.0881  0.0000  0.0757
  13.  C 1 (d2)    -0.0218 -0.0460  0.0000  0.0480 -0.0619 -0.1499  0.0000 -0.0217
  14.  C 1 (d3)     0.0000  0.0000  0.0359  0.0000  0.0000  0.0000  0.2085  0.0000
  15.  C 1 (d5)     0.0000  0.0000  0.0927  0.0000  0.0000  0.0000 -0.0800  0.0000
  16.  H 2 (s)     -0.0594  0.2749  0.0901 -0.0435  0.2054  0.0407 -0.6652  0.5229
  17.  H 2 (s)     -0.0455  0.1477 -0.6493 -0.0342 -0.1763 -0.6838  1.1579 -0.7844
  18.  H 3 (s)     -0.2470 -0.4832  0.0000  0.1009 -0.0622 -0.8789  0.0000  0.0002
  19.  H 3 (s)     -0.0523 -0.2803  0.0000  0.0165  0.8657  1.2163  0.0000 -0.0313
  20.  H 4 (s)     -0.0594  0.2749 -0.0901 -0.0435  0.2054  0.0407  0.6652  0.5229
  21.  H 4 (s)     -0.0455  0.1477  0.6493 -0.0342 -0.1763 -0.6838 -1.1579 -0.7844
  22.  N 5 (s)      0.0201 -0.0194  0.0000  0.0118 -0.0275 -0.0198  0.0000  0.0160
  23.  N 5 (s)     -0.1202  0.1349  0.0000 -0.0134  0.4491 -0.2371  0.0000 -0.5567
  24.  N 5 (px)    -0.0790 -0.1638  0.0000 -0.6584 -0.5819  0.2239  0.0000 -0.2312
  25.  N 5 (py)    -0.0366 -0.1103  0.0000 -0.6674  0.3722 -0.3758  0.0000  0.3810
  26.  N 5 (pz)     0.0000  0.0000  0.3259  0.0000  0.0000  0.0000 -0.1171  0.0000
  27.  N 5 (s)      0.5759 -0.0931  0.0000  0.2897 -0.7952  0.5755  0.0000  0.9831
  28.  N 5 (px)     0.1275 -0.1803  0.0000  0.5954  1.1175 -0.1580  0.0000  0.1364
  29.  N 5 (py)    -0.2220  0.1484  0.0000  1.1692 -0.8806  0.6425  0.0000 -0.4511
  30.  N 5 (pz)     0.0000  0.0000 -1.1730  0.0000  0.0000  0.0000 -0.1612  0.0000
  31.  N 5 (d1)    -0.0592  0.0210  0.0000  0.0019  0.1281 -0.0164  0.0000 -0.1327
  32.  N 5 (d4)     0.1552  0.0022  0.0000  0.0398  0.0938 -0.0782  0.0000 -0.1709
  33.  N 5 (d6)    -0.0812  0.0408  0.0000  0.0650 -0.0006 -0.0699  0.0000  0.0089
  34.  N 5 (d2)    -0.0051  0.0220  0.0000 -0.0582  0.0372  0.1177  0.0000  0.0023
  35.  N 5 (d3)     0.0000  0.0000  0.1543  0.0000  0.0000  0.0000  0.1235  0.0000
  36.  N 5 (d5)     0.0000  0.0000 -0.0830  0.0000  0.0000  0.0000  0.0349  0.0000
  37.  H 6 (s)     -0.1780 -0.0498 -0.6116  0.2505 -0.3826 -0.1450 -0.3471  0.4632
  38.  H 6 (s)      0.1249 -0.0368  0.2522 -0.0113 -0.0356  0.1715  0.2074 -0.6050
  39.  H 7 (s)     -0.1780 -0.0498  0.6116  0.2505 -0.3826 -0.1450  0.3471  0.4632
  40.  H 7 (s)      0.1249 -0.0368 -0.2522 -0.0113 -0.0356  0.1715 -0.2074 -0.6050

           AO         25      26      27      28      29      30      31      32
      ------------ ------- ------- ------- ------- ------- ------- ------- -------
   1.  C 1 (s)      0.0000  0.0214 -0.0888 -0.0990  0.0000  0.0315  0.0423  0.0146
   2.  C 1 (s)      0.0000 -1.1225 -1.3846 -1.0990  0.0000  0.2552  0.1460 -0.2842
   3.  C 1 (px)     0.0000  0.0280 -0.2546  0.1256  0.0000  0.0929 -0.0179  0.0289
   4.  C 1 (py)     0.0000 -0.3705  0.1016 -0.0497  0.0000  0.0868  0.2154  0.2023
   5.  C 1 (pz)    -0.2604  0.0000  0.0000  0.0000  0.1162  0.0000  0.0000  0.0000
   6.  C 1 (s)      0.0000  2.3905  3.5962  4.3941  0.0000 -1.3680 -1.5233  0.0608
   7.  C 1 (px)     0.0000 -0.0977  0.0460 -0.0516  0.0000  0.0633 -0.5329  0.3346
   8.  C 1 (py)     0.0000  0.6352  0.0448 -1.0481  0.0000  0.4147  0.3443 -0.3484
   9.  C 1 (pz)     0.2926  0.0000  0.0000  0.0000  0.0390  0.0000  0.0000  0.0000
  10.  C 1 (d1)     0.0000  0.0006  0.0075 -0.2883  0.0000 -0.2410 -0.4531 -0.1467
  11.  C 1 (d4)     0.0000 -0.1525 -0.0837  0.1001  0.0000 -0.0253  0.1569  0.7001
  12.  C 1 (d6)     0.0000 -0.0464 -0.2048  0.0682  0.0000  0.2844  0.2804 -0.6235
  13.  C 1 (d2)     0.0000 -0.0096 -0.0242  0.2255  0.0000  0.5325  0.1854 -0.1632
  14.  C 1 (d3)    -0.0356  0.0000  0.0000  0.0000  0.3030  0.0000  0.0000  0.0000
  15.  C 1 (d5)     0.0476  0.0000  0.0000  0.0000  0.6009  0.0000  0.0000  0.0000
  16.  H 2 (s)      0.0909  0.3493 -0.4670 -0.3440 -0.1286  0.1846  0.0645  0.3124
  17.  H 2 (s)     -0.3280 -0.9003 -0.4596 -0.4984  0.0170  0.1066  0.0203 -0.0013
  18.  H 3 (s)      0.0000  0.4521 -0.0801 -0.5127  0.0000 -0.0397  0.4277  0.0408
  19.  H 3 (s)      0.0000 -0.9275 -0.9449 -0.2678  0.0000  0.1063  0.2840 -0.1115
  20.  H 4 (s)     -0.0909  0.3493 -0.4670 -0.3440  0.1286  0.1846  0.0645  0.3124
  21.  H 4 (s)      0.3280 -0.9003 -0.4596 -0.4984 -0.0170  0.1066  0.0203 -0.0013
  22.  N 5 (s)      0.0000 -0.0136 -0.0374  0.0938  0.0000 -0.0501 -0.0634  0.0381
  23.  N 5 (s)      0.0000  0.5971 -0.7179  1.0978  0.0000 -0.5428 -0.8040 -0.2157
  24.  N 5 (px)     0.0000  0.3222 -0.2894  0.0354  0.0000  0.0283 -0.0426  0.0274
  25.  N 5 (py)     0.0000 -0.3434  0.0235  0.1598  0.0000 -0.0618 -0.1963 -0.3178
  26.  N 5 (pz)    -1.0372  0.0000  0.0000  0.0000  0.0379  0.0000  0.0000  0.0000
  27.  N 5 (s)      0.0000 -1.3658  1.3333 -3.8373  0.0000  1.8093  2.3757 -0.2767
  28.  N 5 (px)     0.0000 -0.4090  0.8287 -0.2785  0.0000  0.2839  0.6869 -0.3560
  29.  N 5 (py)     0.0000  0.4755 -0.6334 -1.3973  0.0000  0.4878  0.6032  0.3191
  30.  N 5 (pz)     1.4834  0.0000  0.0000  0.0000  0.2568  0.0000  0.0000  0.0000
  31.  N 5 (d1)     0.0000  0.1438 -0.0231 -0.0515  0.0000  0.2854 -0.8261 -0.0867
  32.  N 5 (d4)     0.0000  0.1003 -0.2133  0.2740  0.0000 -0.0943  0.0860  0.5101
  33.  N 5 (d6)     0.0000  0.0492 -0.2141  0.3701  0.0000 -0.4593  0.4410 -0.4225
  34.  N 5 (d2)     0.0000  0.0380  0.0253 -0.2675  0.0000 -0.4924  0.1057 -0.1612
  35.  N 5 (d3)     0.0671  0.0000  0.0000  0.0000 -0.2594  0.0000  0.0000  0.0000
  36.  N 5 (d5)    -0.0888  0.0000  0.0000  0.0000 -0.5868  0.0000  0.0000  0.0000
  37.  H 6 (s)     -0.3550 -0.3535 -0.2350  0.3065  0.1367 -0.2715 -0.4896  0.2878
  38.  H 6 (s)      1.1438  0.7419 -0.6307  0.1200  0.0683 -0.1252 -0.1886  0.0091
  39.  H 7 (s)      0.3550 -0.3535 -0.2350  0.3065 -0.1367 -0.2715 -0.4896  0.2878
  40.  H 7 (s)     -1.1438  0.7419 -0.6307  0.1200 -0.0683 -0.1252 -0.1886  0.0091

           AO         33      34      35      36      37      38      39      40
      ------------ ------- ------- ------- ------- ------- ------- ------- -------
   1.  C 1 (s)      0.0000  0.0242  0.0000 -0.0068  0.0000  0.0711 -0.0988 -0.4752
   2.  C 1 (s)      0.0000  0.2143  0.0000 -0.0346  0.0000 -0.1611  0.7137  2.8656
   3.  C 1 (px)     0.0000  0.0981  0.0000  0.1053  0.0000 -0.0105 -0.0178  0.0084
   4.  C 1 (py)     0.0000  0.0535  0.0000  0.0047  0.0000  0.5486 -0.0847  0.0790
   5.  C 1 (pz)     0.0886  0.0000  0.1083  0.0000  0.0675  0.0000  0.0000  0.0000
   6.  C 1 (s)      0.0000 -1.0166  0.0000  0.1889  0.0000 -1.5714 -0.5732  2.5500
   7.  C 1 (px)     0.0000  0.4757  0.0000  0.1040  0.0000  0.0554  0.0045 -0.0196
   8.  C 1 (py)     0.0000  0.4591  0.0000 -0.0526  0.0000  0.8933  0.3993  0.0022
   9.  C 1 (pz)     0.7861  0.0000  0.1797  0.0000 -0.0864  0.0000  0.0000  0.0000
  10.  C 1 (d1)     0.0000  0.7081  0.0000  0.4519  0.0000  0.5005 -0.4385 -1.8189
  11.  C 1 (d4)     0.0000 -0.2201  0.0000  0.0520  0.0000 -0.8944 -0.1562 -1.9958
  12.  C 1 (d6)     0.0000 -0.4668  0.0000 -0.5244  0.0000  0.5178 -0.4363 -1.8141
  13.  C 1 (d2)     0.0000 -0.0717  0.0000  0.8828  0.0000 -0.0102  0.0251 -0.0091
  14.  C 1 (d3)    -0.7648  0.0000 -0.6621  0.0000 -0.2907  0.0000  0.0000  0.0000
  15.  C 1 (d5)    -0.3618  0.0000  0.8224  0.0000  0.0651  0.0000  0.0000  0.0000
  16.  H 2 (s)     -0.4243  0.2527 -0.5515  0.2846 -0.1525 -0.0722  0.1069  0.0991
  17.  H 2 (s)     -0.1501  0.1062  0.1439 -0.1081  0.0628  0.0900 -0.0466 -0.5249
  18.  H 3 (s)      0.0000 -0.4172  0.0000 -0.6256  0.0000 -0.0493  0.0915  0.1056
  19.  H 3 (s)      0.0000  0.0004  0.0000  0.1848  0.0000  0.0368 -0.0477 -0.5125
  20.  H 4 (s)      0.4243  0.2527  0.5515  0.2846  0.1525 -0.0722  0.1069  0.0991
  21.  H 4 (s)      0.1501  0.1062 -0.1439 -0.1081 -0.0628  0.0900 -0.0466 -0.5249
  22.  N 5 (s)      0.0000 -0.0490  0.0000  0.0084  0.0000 -0.0772 -0.4703  0.1032
  23.  N 5 (s)      0.0000 -0.3296  0.0000  0.0140  0.0000 -0.2069  1.0565 -0.2345
  24.  N 5 (px)     0.0000  0.0799  0.0000  0.0054  0.0000  0.0131 -0.0885  0.0173
  25.  N 5 (py)     0.0000  0.0399  0.0000 -0.0060  0.0000  0.1806 -0.0796  0.1309
  26.  N 5 (pz)     0.0898  0.0000 -0.0134  0.0000  0.0448  0.0000  0.0000  0.0000
  27.  N 5 (s)      0.0000  1.4028  0.0000 -0.1343  0.0000  1.6494  3.4720 -1.1371
  28.  N 5 (px)     0.0000  0.0239  0.0000  0.0735  0.0000 -0.1655  0.3360 -0.0845
  29.  N 5 (py)     0.0000  0.3184  0.0000 -0.0715  0.0000  1.2230  0.3179 -0.1344
  30.  N 5 (pz)    -0.7072  0.0000  0.0472  0.0000  0.6530  0.0000  0.0000  0.0000
  31.  N 5 (d1)     0.0000 -0.4108  0.0000 -0.0497  0.0000 -0.5702 -1.5447  0.2921
  32.  N 5 (d4)     0.0000 -0.1016  0.0000  0.0314  0.0000  1.0347 -1.4770  0.6376
  33.  N 5 (d6)     0.0000  0.3857  0.0000  0.0444  0.0000 -0.7154 -1.4982  0.2723
  34.  N 5 (d2)     0.0000 -0.6752  0.0000  0.5634  0.0000  0.0673 -0.0124  0.0049
  35.  N 5 (d3)    -0.4174  0.0000 -0.0118  0.0000  1.0487  0.0000  0.0000  0.0000
  36.  N 5 (d5)    -0.5446  0.0000  0.5323  0.0000 -0.4939  0.0000  0.0000  0.0000
  37.  H 6 (s)     -0.2449 -0.3972 -0.1142  0.0793  0.7717  0.1961  0.0857  0.0125
  38.  H 6 (s)     -0.0872 -0.0265  0.0863 -0.0451 -0.0516  0.0429 -0.5499  0.1006
  39.  H 7 (s)      0.2449 -0.3972  0.1142  0.0793 -0.7717  0.1961  0.0857  0.0125
  40.  H 7 (s)      0.0872 -0.0265 -0.0863 -0.0451  0.0516  0.0429 -0.5499  0.1006


 NOs in the AO basis:

           AO          1       2       3       4       5       6       7       8
      ------------ ------- ------- ------- ------- ------- ------- ------- -------
   1.  C 1 (s)     -0.2821  0.5021  0.5193 -0.6211  0.1327  0.0165  0.1083 -0.1084
   2.  C 1 (s)     -0.1160  0.0736  0.0508  0.1852  0.1015 -0.0393 -0.0975  0.2383
   3.  C 1 (px)     0.0501 -0.0109 -0.0528 -0.1191 -0.1670 -0.0881  0.2487  0.2766
   4.  C 1 (py)     0.1076 -0.0291 -0.0386 -0.1437  0.0275  0.2533 -0.1796  0.1680
   5.  C 1 (pz)     0.1106  0.2665 -0.2680 -0.0053  0.1829 -0.0122  0.0746 -0.0130
   6.  C 1 (s)     -0.0895  0.0496  0.0251  0.1875  0.0777  0.0359 -0.0951  0.2542
   7.  C 1 (px)     0.0123  0.0000 -0.0212 -0.0395 -0.0828 -0.0491  0.1322  0.1370
   8.  C 1 (py)     0.0427 -0.0126 -0.0159 -0.0564  0.0237  0.0791 -0.0937  0.0681
   9.  C 1 (pz)     0.0552  0.1461 -0.1469 -0.0027  0.0918 -0.0058  0.0371 -0.0080
  10.  C 1 (d1)     0.0057 -0.0013 -0.0046 -0.0073 -0.0063  0.0087  0.0026  0.0286
  11.  C 1 (d4)    -0.0088  0.0013  0.0011  0.0118 -0.0025 -0.0331  0.0094 -0.0077
  12.  C 1 (d6)    -0.0003  0.0001  0.0019  0.0081  0.0149  0.0181 -0.0247 -0.0038
  13.  C 1 (d2)     0.0021 -0.0005 -0.0040 -0.0103 -0.0159 -0.0052  0.0089  0.0197
  14.  C 1 (d3)    -0.0061 -0.0198  0.0199  0.0003 -0.0102  0.0005 -0.0040  0.0013
  15.  C 1 (d5)    -0.0008  0.0189 -0.0190  0.0000 -0.0004  0.0006 -0.0007 -0.0023
  16.  H 2 (s)      0.0209  0.1690 -0.1289  0.0796  0.1866  0.0665 -0.1172  0.0210
  17.  H 2 (s)      0.0235  0.1367 -0.1184  0.0301  0.1216  0.0573 -0.0810 -0.0412
  18.  H 3 (s)      0.0191  0.0069 -0.0319 -0.0464 -0.0743 -0.0082  0.0624  0.3065
  19.  H 3 (s)      0.0411 -0.0078 -0.0389 -0.1014 -0.1018 -0.0123  0.0664  0.2195
  20.  H 4 (s)     -0.0811 -0.1324  0.1740  0.0846  0.0155  0.0764 -0.1855  0.0393
  21.  H 4 (s)     -0.0343 -0.1273  0.1468  0.0331  0.0206  0.0609 -0.1187 -0.0202
  22.  N 5 (s)     -0.6705 -0.3974 -0.3806 -0.2266  0.3379  0.2556  0.2212  0.0219
  23.  N 5 (s)     -0.0082 -0.0408 -0.0489 -0.0983  0.0125 -0.3818 -0.1705  0.0054
  24.  N 5 (px)     0.0490 -0.0171  0.0069  0.0308  0.1584  0.0069  0.0740 -0.0525
  25.  N 5 (py)    -0.1833  0.0784  0.0789  0.3133  0.0230 -0.1517  0.2292 -0.0479
  26.  N 5 (pz)     0.1912 -0.1760  0.1754 -0.0080  0.2882 -0.0354  0.1353  0.0501
  27.  N 5 (s)      0.0247 -0.0415 -0.0536 -0.1531 -0.0445 -0.4407 -0.1872 -0.0082
  28.  N 5 (px)     0.0228 -0.0051  0.0193  0.0645  0.1465  0.0186  0.0605 -0.0768
  29.  N 5 (py)    -0.1080  0.0467  0.0525  0.1975  0.0268 -0.0943  0.1676 -0.0636
  30.  N 5 (pz)     0.1092 -0.1221  0.1219 -0.0045  0.1636 -0.0207  0.0775  0.0311
  31.  N 5 (d1)     0.0091 -0.0015 -0.0001 -0.0045  0.0071  0.0040 -0.0011 -0.0024
  32.  N 5 (d4)    -0.0124  0.0075  0.0062  0.0234 -0.0015 -0.0126  0.0063  0.0048
  33.  N 5 (d6)     0.0104 -0.0032 -0.0030 -0.0143  0.0007 -0.0072 -0.0163 -0.0006
  34.  N 5 (d2)    -0.0078  0.0041  0.0034  0.0142 -0.0024 -0.0018  0.0196  0.0033
  35.  N 5 (d3)     0.0184 -0.0196  0.0196 -0.0008  0.0276 -0.0035  0.0130  0.0051
  36.  N 5 (d5)    -0.0013  0.0105 -0.0105  0.0000 -0.0016  0.0005 -0.0010 -0.0014
  37.  H 6 (s)     -0.0399  0.0698 -0.1229 -0.0737 -0.0927 -0.0545 -0.1441 -0.0348
  38.  H 6 (s)     -0.0229  0.0685 -0.0889 -0.0306 -0.0481  0.0414 -0.0729 -0.0257
  39.  H 7 (s)      0.1469 -0.1286  0.0750 -0.0815  0.1877 -0.0897 -0.0117  0.0172
  40.  H 7 (s)      0.0854 -0.0942  0.0736 -0.0351  0.1125  0.0199  0.0044  0.0099

           AO          9      10      11      12      13      14      15      16
      ------------ ------- ------- ------- ------- ------- ------- ------- -------
   1.  C 1 (s)      0.0050 -0.0248  0.0265 -0.0858 -0.0578  0.1600 -0.0307  0.0155
   2.  C 1 (s)      0.0132 -0.0732 -0.3123  1.0748  0.3863 -0.9013 -0.0275  0.1378
   3.  C 1 (px)     0.0446 -0.3310  0.7598 -0.0384 -0.2827 -0.4999  0.0849  0.0339
   4.  C 1 (py)     0.0247  0.1444 -0.3566  0.1149 -0.4809 -0.0127  0.6144 -0.1848
   5.  C 1 (pz)    -0.0657  0.1647  0.0794  0.5464  0.0386 -0.0730  0.2017  0.1113
   6.  C 1 (s)     -0.0153 -0.0242 -0.1360 -0.7436 -0.1847 -0.7511  0.3433 -0.1155
   7.  C 1 (px)     0.0123 -0.0626 -0.4766  0.4855  0.1210  2.5221 -0.0267 -0.3136
   8.  C 1 (py)     0.0217 -0.1382  0.2126 -0.1094  0.0511  0.3032 -0.2476 -0.3092
   9.  C 1 (pz)    -0.0325  0.1370  0.6313 -2.0360  0.4004  0.3294  0.4974 -0.3415
  10.  C 1 (d1)     0.0018  0.2091  0.3715 -0.3065 -0.6208  0.6747 -0.2843  0.1344
  11.  C 1 (d4)    -0.0038  0.4305  0.3521 -0.4420 -0.4428  0.4129 -0.4793 -0.2716
  12.  C 1 (d6)     0.0025  0.0224  0.1898 -0.4078 -0.0620  0.4246 -0.0311  0.3291
  13.  C 1 (d2)    -0.0183  0.0436 -0.0010  0.0291  0.0294  0.0603  0.1859  0.0428
  14.  C 1 (d3)     0.0035 -0.1924 -0.2532 -0.0005 -0.2115 -0.0727 -0.2114 -0.3068
  15.  C 1 (d5)     0.0009 -0.0297  0.1621  0.0601  0.0916  0.0010  0.2397 -0.3351
  16.  H 2 (s)     -0.0144 -0.2253 -0.4351 -0.4522 -0.0909  0.1856 -0.4968  0.2899
  17.  H 2 (s)      0.0133 -0.4767 -0.0850  2.4110 -0.0812  0.7418 -0.1257 -0.0702
  18.  H 3 (s)     -0.0009 -0.0855 -0.0116 -0.0060 -0.0652  0.0478  0.0110  0.4739
  19.  H 3 (s)     -0.0445  0.2124 -0.4066 -0.2330  0.6849 -2.0036 -0.1685 -0.0700
  20.  H 4 (s)      0.0449  0.2579  0.4217  0.4869  0.4817  0.2174  0.1691 -0.0089
  21.  H 4 (s)      0.0448 -0.5077  0.2116 -1.5050  0.0769  1.2134  0.4531 -0.1977
  22.  N 5 (s)     -0.0299  0.0171  0.0265  0.0098  0.0191  0.0472 -0.0543 -0.0057
  23.  N 5 (s)     -0.0612 -0.1431 -0.2297 -0.1037 -0.1715 -0.1148  0.5023  0.0013
  24.  N 5 (px)     0.5167 -0.1603 -0.0040 -0.0160  0.0822 -0.0356  0.2012 -0.0466
  25.  N 5 (py)     0.0242 -0.5228 -0.4263  0.0617 -0.4667 -0.0452  0.0475  0.0419
  26.  N 5 (pz)    -0.1280 -0.1315 -0.0287 -0.0950 -0.0139 -0.0154  0.1233  0.3585
  27.  N 5 (s)     -0.1491 -0.2170  0.2993  0.1640  0.2755 -0.1172 -0.6361  0.1050
  28.  N 5 (px)     0.4220 -0.1669  0.1486 -0.0663  0.1310 -0.6828 -0.2399  0.1677
  29.  N 5 (py)     0.0728  0.6824  0.1157  0.0585  0.1993  0.3846  0.5088 -0.2434
  30.  N 5 (pz)    -0.0736 -0.1119 -0.1129  0.4680 -0.0221 -0.0033  0.1786 -0.0512
  31.  N 5 (d1)     0.0286  0.1600  0.0532  0.0468  0.0611  0.1439  0.0817 -0.1121
  32.  N 5 (d4)    -0.0133 -0.4394 -0.0537  0.1195  0.1486  0.2324  0.0134 -0.2970
  33.  N 5 (d6)     0.0028 -0.1365 -0.0161  0.0027  0.1708  0.0312 -0.0420  0.2078
  34.  N 5 (d2)     0.0037  0.0887  0.0030 -0.0196 -0.0861 -0.0948  0.2683 -0.0577
  35.  N 5 (d3)    -0.0124 -0.0596  0.0512  0.0713  0.0687 -0.0140 -0.0751  0.0171
  36.  N 5 (d5)     0.0011 -0.0417 -0.0970  0.0752 -0.0752 -0.0079 -0.0148 -0.0866
  37.  H 6 (s)      0.1962  0.0961 -0.0080  0.0908 -0.0910  0.1551 -0.0330  0.0630
  38.  H 6 (s)      0.1177  0.2181 -0.0281 -0.0601 -0.2060  0.1933  0.6446  0.1137
  39.  H 7 (s)      0.0706  0.1138 -0.0564 -0.0092 -0.1814  0.1682  0.0593  0.0623
  40.  H 7 (s)      0.0437  0.5868 -0.0394 -0.0915 -0.2699  0.0854 -0.3124 -0.4289

           AO         17      18      19      20      21      22      23      24
      ------------ ------- ------- ------- ------- ------- ------- ------- -------
   1.  C 1 (s)      0.0655 -0.0080 -0.0662  0.0219 -0.0728  0.1425 -0.0040  0.0360
   2.  C 1 (s)     -0.0244  0.0346 -2.4091 -0.1220  0.2073 -0.3875 -0.0707  0.0728
   3.  C 1 (px)    -0.1579  0.0016  0.0315 -0.1091  0.2902  0.1590  0.1147  0.2751
   4.  C 1 (py)     0.1913 -0.1362 -0.2311 -0.3402  0.4260 -0.0301 -0.3593 -0.0448
   5.  C 1 (pz)    -0.0282 -0.0937  0.1034  0.5576 -0.1182 -0.0416 -0.1403  0.5161
   6.  C 1 (s)     -0.1376  0.1481  6.5139  0.0528  0.6632 -1.1557  0.0807 -0.2821
   7.  C 1 (px)    -0.1004 -0.2832 -0.1558  0.1872  0.1401 -0.5538  0.3094 -0.1815
   8.  C 1 (py)    -0.5560  0.0998 -0.3521  0.5743 -1.6778  0.4751  0.1318 -0.1105
   9.  C 1 (pz)     0.9610  0.1166 -0.5161 -0.5776 -0.0480 -0.2593  0.2005 -0.3627
  10.  C 1 (d1)     0.2174  0.1107  0.0716  0.3681 -0.1248  0.0143 -0.2028 -0.4026
  11.  C 1 (d4)     0.3933 -0.0450  0.2251  0.0754 -0.0806  0.4176  0.5948  0.1183
  12.  C 1 (d6)     0.0156 -0.1883  0.1554 -0.4068 -0.7949 -0.2042 -0.4341  0.3376
  13.  C 1 (d2)     0.0483  0.2780  0.0190  0.1386  0.2002 -0.0629  0.1638 -0.3199
  14.  C 1 (d3)    -0.3430  0.2731  0.0031 -0.3288  0.0275 -0.0190 -0.0953  0.2627
  15.  C 1 (d5)     0.0110 -0.1016  0.0027  0.1113 -0.0488  0.0438 -0.0198  0.2037
  16.  H 2 (s)     -0.3659  0.0578 -0.2152  0.0749  0.6739  0.5812  0.0767  0.2942
  17.  H 2 (s)     -0.2853  0.0229 -0.9445 -0.1021  0.0173 -0.0596  0.1880 -0.2607
  18.  H 3 (s)      0.0284 -0.1297 -0.2369 -0.1356 -0.4255  0.6950 -0.4096  0.0918
  19.  H 3 (s)      0.3962  0.0920 -1.1331 -0.0774  0.4777  0.1683  0.1663  0.2287
  20.  H 4 (s)      0.7504 -0.0058  0.0145 -0.0355  0.2171  0.6192  0.2509  0.3232
  21.  H 4 (s)      0.0574 -0.0336 -2.0313  0.1818  0.3063 -0.6178 -0.0386 -0.0857
  22.  N 5 (s)     -0.0053  0.0043  0.0416  0.0326 -0.0330  0.0055 -0.0089  0.0123
  23.  N 5 (s)     -0.1230 -0.0076  0.4736 -0.2126 -0.1440  0.2241 -0.2103 -0.2385
  24.  N 5 (px)    -0.0179 -0.7618  0.0130  0.1522 -0.0465  0.0138  0.1265 -0.2176
  25.  N 5 (py)     0.5231 -0.0317  0.0591  0.0915 -0.0880 -0.2362  0.0314  0.2299
  26.  N 5 (pz)     0.0273  0.2431  0.0144 -0.0121 -0.0352 -0.0586  0.3931  0.0978
  27.  N 5 (s)      0.4127  0.1876 -2.1793  0.3672  0.0863 -0.4513  0.3320  0.2736
  28.  N 5 (px)     0.4583  1.1800  0.0045 -0.0138  0.2758 -0.1870 -0.4007  0.0814
  29.  N 5 (py)    -1.0429 -0.1680 -1.3284 -0.1068 -0.7328  1.1176 -0.1954 -0.1927
  30.  N 5 (pz)    -0.2501  0.0045 -0.0211 -0.0361 -0.1155  0.1153 -0.1331 -0.1860
  31.  N 5 (d1)     0.0007  0.3675  0.1159  0.5202 -0.1591 -0.0058 -0.1625  0.2014
  32.  N 5 (d4)    -0.1197 -0.0677 -0.0922 -0.0981 -0.0809  0.2654 -0.6924 -0.3026
  33.  N 5 (d6)     0.3301  0.0655  0.0892  0.0713 -0.2322  0.1268  0.0719  0.0359
  34.  N 5 (d2)    -0.0997  0.1838  0.0166  0.0351  0.0506  0.0352  0.0480 -0.1430
  35.  N 5 (d3)     0.1120 -0.1336  0.0012 -0.0451 -0.0721  0.0646  0.0460 -0.1854
  36.  N 5 (d5)    -0.1412 -0.0832  0.0284  0.0432  0.0591 -0.0025 -0.0678  0.0159
  37.  H 6 (s)      0.0019 -0.1398  0.1170  0.0131  0.1479 -0.0123 -0.0409  0.0759
  38.  H 6 (s)     -0.6767 -0.0019 -0.2522 -0.5185 -0.9708  0.5892  0.6055 -0.3479
  39.  H 7 (s)     -0.2351 -0.1335  0.1082 -0.1234  0.1227 -0.0587  0.0735 -0.0209
  40.  H 7 (s)     -0.5038 -0.5751 -0.0511  0.1672 -0.4709  0.6044 -0.2323  0.3029

           AO         25      26      27      28      29      30      31      32
      ------------ ------- ------- ------- ------- ------- ------- ------- -------
   1.  C 1 (s)      0.0030 -0.0003 -0.1383 -0.0524  0.0252 -0.0224 -0.0209 -0.0011
   2.  C 1 (s)      0.0008  0.0885  0.9628  0.2107 -0.0864 -0.0428 -0.0328 -0.0445
   3.  C 1 (px)     0.1807 -0.1148  0.2486  0.0308  0.0291  0.0418 -0.0833  0.1851
   4.  C 1 (py)     0.2685 -0.0660 -0.2885 -0.0448  0.0617  0.2457 -0.0277  0.0691
   5.  C 1 (pz)    -0.0908 -0.0074 -0.1524 -0.0193  0.1795  0.2064  0.5009  0.1782
   6.  C 1 (s)     -0.1824  0.1284  1.0928  0.2945 -0.3506  0.1367  0.2844  0.0682
   7.  C 1 (px)    -0.2436 -0.0233  0.1451 -0.0812  0.0323  0.2117  0.0258 -0.0415
   8.  C 1 (py)     0.0884 -0.2921  0.3042  0.2477  0.2103 -0.0368 -0.1459  0.0401
   9.  C 1 (pz)    -0.1838  0.2317  0.0069  0.2445 -0.2462 -0.1558 -0.2218  0.0445
  10.  C 1 (d1)    -0.3347  0.0240 -0.1713 -0.1826  0.0541  0.1157  0.1924 -0.2372
  11.  C 1 (d4)     0.2385 -0.1726 -0.5307 -0.2702  0.3912  0.1514 -0.0697 -0.0360
  12.  C 1 (d6)     0.3209 -0.0573 -0.5161 -0.1441  0.1409 -0.1833 -0.2141  0.0055
  13.  C 1 (d2)     0.0722 -0.1067  0.1228 -0.0177  0.0133 -0.4103  0.2172  0.5391
  14.  C 1 (d3)    -0.6485 -0.1694  0.0340 -0.0255  0.1733  0.0441  0.0201  0.0633
  15.  C 1 (d5)     0.1276  0.2065  0.0918 -0.0136 -0.4378 -0.0580  0.2392 -0.4231
  16.  H 2 (s)      0.0041 -0.0796  0.4803 -0.0960  0.1597 -0.0213 -0.1257  0.0360
  17.  H 2 (s)     -0.0647 -0.1248 -0.8095 -0.2642 -0.1328 -0.1172 -0.1608 -0.0494
  18.  H 3 (s)     -0.2604  0.1805 -0.5297 -0.0810 -0.1543 -0.2650 -0.1776 -0.0894
  19.  H 3 (s)      0.2154  0.1217 -0.0644  0.2022  0.0935  0.0142  0.0859 -0.0331
  20.  H 4 (s)     -0.0878  0.3077  0.2444  0.0581 -0.0009 -0.0457  0.1121  0.0254
  21.  H 4 (s)     -0.1378 -0.0507 -0.3967 -0.0805 -0.2169 -0.0269  0.1255  0.1717
  22.  N 5 (s)     -0.0011 -0.0470 -0.0060  0.0359  0.0064 -0.0122 -0.0414 -0.0043
  23.  N 5 (s)      0.0061  0.3525  0.7415  0.1115 -0.0111  0.1725  0.3629  0.0517
  24.  N 5 (px)    -0.3341  0.0555  0.0879 -0.1662  0.3377 -0.0157 -0.2224 -0.0155
  25.  N 5 (py)     0.0051  0.1891  0.1153  0.1385 -0.2405 -0.2480  0.0062  0.1052
  26.  N 5 (pz)    -0.0002  0.1341 -0.5834  0.0686  0.1067  0.2277  0.0415 -0.2043
  27.  N 5 (s)      0.0542 -0.4615 -1.3137 -0.2357  0.1167 -0.1450 -0.3724 -0.1688
  28.  N 5 (px)     0.4198 -0.2586 -0.4310 -0.4077 -0.2769 -0.0541  0.1404 -0.0042
  29.  N 5 (py)     0.1122 -0.3191 -0.2100  0.2869  0.2237  0.2720 -0.1081  0.1039
  30.  N 5 (pz)     0.0556  0.1937  1.2798 -0.1022  0.1284  0.1188  0.0559 -0.0385
  31.  N 5 (d1)    -0.0594  0.0174  0.0975 -0.0565 -0.0545  0.0377 -0.9210  0.0565
  32.  N 5 (d4)     0.2852  0.2232 -0.2076  0.3456  0.2954  0.1511  0.1717  0.0750
  33.  N 5 (d6)    -0.0649 -0.9914  0.1273 -0.4463  0.0142 -0.0150  0.1143 -0.2417
  34.  N 5 (d2)     0.0605 -0.0323  0.0105  0.1956  0.1354 -0.5584  0.0729 -0.4777
  35.  N 5 (d3)     0.0103 -0.1157  0.0896  0.0268 -0.6066  0.3666 -0.0373  0.0429
  36.  N 5 (d5)     0.0056  0.0951  0.0127 -0.0532 -0.1014  0.2448  0.0586 -0.1906
  37.  H 6 (s)     -0.0109 -0.0240  0.0195  1.0979 -0.0614 -0.0548  0.0499 -0.0353
  38.  H 6 (s)     -0.0848  0.7806  1.2118 -0.4138  0.1270  0.3473  0.1832  0.0990
  39.  H 7 (s)     -0.0755  0.0968  0.1186  1.0439 -0.0266  0.0119  0.0087  0.0049
  40.  H 7 (s)      0.0910 -0.0834 -0.5088 -0.4116 -0.1838 -0.5481  0.2155  0.2933

           AO         33      34      35      36      37      38      39      40
      ------------ ------- ------- ------- ------- ------- ------- ------- -------
   1.  C 1 (s)      0.0451 -0.1775 -0.0052  0.0776  0.0058  0.0156  0.3290  0.2219
   2.  C 1 (s)     -0.0683  1.2057  0.0210 -0.4360  0.0045  0.0005 -1.6090 -0.7483
   3.  C 1 (px)    -0.0515  0.1657 -0.0383 -0.0296  0.0031  0.0632  0.2748  0.0515
   4.  C 1 (py)     0.0347  0.0429 -0.0041 -0.3468  0.0098 -0.1218  0.1987 -0.0193
   5.  C 1 (pz)     0.1232 -0.0912 -0.2889  0.0317  0.0425 -0.0889  0.0070  0.0145
   6.  C 1 (s)     -0.4670  0.8361 -0.0313  0.5678  0.0508 -0.1843 -2.3471 -3.2385
   7.  C 1 (px)    -0.0922  0.2229  0.0730  0.1280 -0.0888 -0.1702 -0.4954 -0.0115
   8.  C 1 (py)    -0.0102  0.7268  0.0174 -1.8002 -0.0690  0.1373 -0.0818  1.0435
   9.  C 1 (pz)    -0.3858  0.4536  0.0290 -0.0323  0.4369 -0.0483 -0.2822 -0.1316
  10.  C 1 (d1)     0.0929 -0.3056  0.1175  0.1795  0.0014 -0.0832  1.4532  0.8191
  11.  C 1 (d4)     0.3956 -1.0699  0.0715  0.9624 -0.0235  0.0551  0.5812  0.5757
  12.  C 1 (d6)     0.3912 -0.6655 -0.0068  0.3288  0.0020  0.1279  1.1796  0.7486
  13.  C 1 (d2)     0.5226  0.0765  0.1414 -0.0506  0.0069  0.2217  0.0628  0.0647
  14.  C 1 (d3)     0.2976 -0.0618  0.0218  0.0010 -0.0732 -0.0117  0.0168 -0.0017
  15.  C 1 (d5)     0.2868 -0.1142  0.5645 -0.0387 -0.0216 -0.0087  0.0080 -0.0311
  16.  H 2 (s)      0.2983  0.1539 -0.0313 -0.2207 -0.1001  0.0060 -0.0032  0.1001
  17.  H 2 (s)     -0.1069 -0.5560  0.0768  0.7252 -0.0843 -0.0115  0.5286  0.5475
  18.  H 3 (s)     -0.0151 -0.3828  0.0181 -0.0529  0.0204  0.0571 -0.6715 -0.1898
  19.  H 3 (s)      0.0909 -0.3538 -0.0823  0.4264  0.0913  0.0483  1.5735  0.6055
  20.  H 4 (s)      0.0272  0.3133 -0.0541 -0.2197  0.1613  0.0824  0.0780  0.2042
  21.  H 4 (s)     -0.3465 -0.5244 -0.1085  0.5741  0.0054 -0.0502 -0.0361  0.0578
  22.  N 5 (s)      0.0183  0.0511  0.0157  0.1076  0.0659  0.0148  0.1931 -0.4538
  23.  N 5 (s)     -0.1952  0.2150 -0.0976  1.5372 -0.2790 -0.1316 -0.4889  0.7226
  24.  N 5 (px)     0.2393  0.1558  0.0691  0.0671 -0.0315 -0.0252  0.0693 -0.0323
  25.  N 5 (py)    -0.1381  0.0553 -0.0836 -0.0268  0.0565  0.0192  0.1339 -0.1020
  26.  N 5 (pz)     0.1807  0.5724  0.1491  0.1181 -0.2310  0.0037 -0.0015  0.0327
  27.  N 5 (s)      0.3342 -1.0301  0.1363 -4.5577 -0.1928  0.1543 -1.0631  4.5942
  28.  N 5 (px)     0.0150 -0.5489 -0.0011 -0.4337  0.0854  0.0887 -0.3233  0.4182
  29.  N 5 (py)    -0.0279  0.5347  0.0567 -1.4734 -0.1191  0.0152  0.4106  0.9948
  30.  N 5 (pz)    -0.0263 -1.5850  0.0956 -0.5089 -0.8879 -0.0096  0.2127 -0.4039
  31.  N 5 (d1)     0.1693  0.1730  0.0477  0.5506  0.1726  0.0528  0.5417 -1.2864
  32.  N 5 (d4)     0.1182  0.5023 -0.0894 -0.3033  0.2223 -0.0717  0.7327 -1.3010
  33.  N 5 (d6)    -0.0509  0.1447  0.1970  0.3356  0.2473  0.0794  0.5642 -1.2796
  34.  N 5 (d2)     0.2709 -0.0219 -0.5237  0.0506  0.0104  0.1404  0.0171 -0.0365
  35.  N 5 (d3)     0.4015 -0.1165 -0.4628 -0.0702 -0.5925 -0.0462  0.0517 -0.0908
  36.  N 5 (d5)     0.0080 -0.0147  0.1349  0.0247  0.2747  0.9484 -0.0114  0.0466
  37.  H 6 (s)     -0.0089 -0.0675  0.0223  0.2049 -1.1421  0.0338  0.0696 -0.1804
  38.  H 6 (s)     -0.0801 -0.4136 -0.1312 -0.0008  0.3251 -0.1789  0.5877 -0.8927
  39.  H 7 (s)     -0.0407 -0.0684  0.0190  0.2974  1.1361 -0.0304 -0.0704  0.0641
  40.  H 7 (s)     -0.2610  1.6830 -0.1745  0.7755 -0.4498  0.2091  0.3999 -0.3558


 AO overlap matrix:

           AO          1       2       3       4       5       6       7       8
      ------------ ------- ------- ------- ------- ------- ------- ------- -------
   1.  C 1 (s)      1.0000  0.2191  0.0000  0.0000  0.0000  0.1843  0.0000  0.0000
   2.  C 1 (s)      0.2191  1.0000  0.0000  0.0000  0.0000  0.8123  0.0000  0.0000
   3.  C 1 (px)     0.0000  0.0000  1.0000  0.0000  0.0000  0.0000  0.5698  0.0000
   4.  C 1 (py)     0.0000  0.0000  0.0000  1.0000  0.0000  0.0000  0.0000  0.5698
   5.  C 1 (pz)     0.0000  0.0000  0.0000  0.0000  1.0000  0.0000  0.0000  0.0000
   6.  C 1 (s)      0.1843  0.8123  0.0000  0.0000  0.0000  1.0000  0.0000  0.0000
   7.  C 1 (px)     0.0000  0.0000  0.5698  0.0000  0.0000  0.0000  1.0000  0.0000
   8.  C 1 (py)     0.0000  0.0000  0.0000  0.5698  0.0000  0.0000  0.0000  1.0000
   9.  C 1 (pz)     0.0000  0.0000  0.0000  0.0000  0.5698  0.0000  0.0000  0.0000
  10.  C 1 (d1)     0.0791  0.7102  0.0000  0.0000  0.0000  0.6299  0.0000  0.0000
  11.  C 1 (d4)     0.0791  0.7102  0.0000  0.0000  0.0000  0.6299  0.0000  0.0000
  12.  C 1 (d6)     0.0791  0.7102  0.0000  0.0000  0.0000  0.6299  0.0000  0.0000
  13.  C 1 (d2)     0.0000  0.0000  0.0000  0.0000  0.0000  0.0000  0.0000  0.0000
  14.  C 1 (d3)     0.0000  0.0000  0.0000  0.0000  0.0000  0.0000  0.0000  0.0000
  15.  C 1 (d5)     0.0000  0.0000  0.0000  0.0000  0.0000  0.0000  0.0000  0.0000
  16.  H 2 (s)      0.0329  0.2745 -0.1799  0.1213  0.2998  0.3775 -0.2504  0.1688
  17.  H 2 (s)      0.0923  0.4767 -0.1292  0.0871  0.2153  0.7051 -0.2832  0.1909
  18.  H 3 (s)      0.0323  0.2717  0.3363  0.1478  0.0000  0.3758  0.4712  0.2072
  19.  H 3 (s)      0.0919  0.4747  0.2432  0.1069  0.0000  0.7031  0.5338  0.2347
  20.  H 4 (s)      0.0329  0.2745 -0.1799  0.1213 -0.2998  0.3775 -0.2504  0.1688
  21.  H 4 (s)      0.0923  0.4767 -0.1292  0.0871 -0.2153  0.7051 -0.2832  0.1909
  22.  N 5 (s)      0.0000  0.0071  0.0000 -0.0177  0.0000  0.0401  0.0000 -0.0900
  23.  N 5 (s)      0.0031  0.0970  0.0000 -0.1638  0.0000  0.2394  0.0000 -0.4475
  24.  N 5 (px)     0.0000  0.0000  0.0488  0.0000  0.0000  0.0000  0.1428  0.0000
  25.  N 5 (py)     0.0083  0.1416  0.0000 -0.2131  0.0000  0.1646  0.0000 -0.1735
  26.  N 5 (pz)     0.0000  0.0000  0.0000  0.0000  0.0488  0.0000  0.0000  0.0000
  27.  N 5 (s)      0.0437  0.2715  0.0000 -0.2479  0.0000  0.4723  0.0000 -0.6065
  28.  N 5 (px)     0.0000  0.0000  0.1918  0.0000  0.0000  0.0000  0.4692  0.0000
  29.  N 5 (py)     0.1079  0.4945  0.0000 -0.2820  0.0000  0.5410  0.0000 -0.2256
  30.  N 5 (pz)     0.0000  0.0000  0.0000  0.0000  0.1918  0.0000  0.0000  0.0000
  31.  N 5 (d1)     0.0005  0.0589  0.0000 -0.0982  0.0000  0.2101  0.0000 -0.4001
  32.  N 5 (d4)     0.0245  0.2515  0.0000 -0.3437  0.0000  0.3074  0.0000 -0.4167
  33.  N 5 (d6)     0.0005  0.0589  0.0000 -0.0982  0.0000  0.2101  0.0000 -0.4001
  34.  N 5 (d2)     0.0000  0.0000  0.1235  0.0000  0.0000  0.0000  0.1462  0.0000
  35.  N 5 (d3)     0.0000  0.0000  0.0000  0.0000  0.0000  0.0000  0.0000  0.0000
  36.  N 5 (d5)     0.0000  0.0000  0.0000  0.0000  0.1235  0.0000  0.0000  0.0000
  37.  H 6 (s)      0.0001  0.0115  0.0064 -0.0209 -0.0095  0.0879  0.0607 -0.1967
  38.  H 6 (s)      0.0174  0.1283  0.0346 -0.1122 -0.0511  0.2912  0.1223 -0.3961
  39.  H 7 (s)      0.0001  0.0115  0.0064 -0.0209  0.0095  0.0879  0.0607 -0.1967
  40.  H 7 (s)      0.0174  0.1283  0.0346 -0.1122  0.0511  0.2912  0.1223 -0.3961

           AO          9      10      11      12      13      14      15      16
      ------------ ------- ------- ------- ------- ------- ------- ------- -------
   1.  C 1 (s)      0.0000  0.0791  0.0791  0.0791  0.0000  0.0000  0.0000  0.0329
   2.  C 1 (s)      0.0000  0.7102  0.7102  0.7102  0.0000  0.0000  0.0000  0.2745
   3.  C 1 (px)     0.0000  0.0000  0.0000  0.0000  0.0000  0.0000  0.0000 -0.1799
   4.  C 1 (py)     0.0000  0.0000  0.0000  0.0000  0.0000  0.0000  0.0000  0.1213
   5.  C 1 (pz)     0.5698  0.0000  0.0000  0.0000  0.0000  0.0000  0.0000  0.2998
   6.  C 1 (s)      0.0000  0.6299  0.6299  0.6299  0.0000  0.0000  0.0000  0.3775
   7.  C 1 (px)     0.0000  0.0000  0.0000  0.0000  0.0000  0.0000  0.0000 -0.2504
   8.  C 1 (py)     0.0000  0.0000  0.0000  0.0000  0.0000  0.0000  0.0000  0.1688
   9.  C 1 (pz)     1.0000  0.0000  0.0000  0.0000  0.0000  0.0000  0.0000  0.4173
  10.  C 1 (d1)     0.0000  1.0000  0.3333  0.3333  0.0000  0.0000  0.0000  0.1981
  11.  C 1 (d4)     0.0000  0.3333  1.0000  0.3333  0.0000  0.0000  0.0000  0.1544
  12.  C 1 (d6)     0.0000  0.3333  0.3333  1.0000  0.0000  0.0000  0.0000  0.3405
  13.  C 1 (d2)     0.0000  0.0000  0.0000  0.0000  1.0000  0.0000  0.0000 -0.0936
  14.  C 1 (d3)     0.0000  0.0000  0.0000  0.0000  0.0000  1.0000  0.0000 -0.2312
  15.  C 1 (d5)     0.0000  0.0000  0.0000  0.0000  0.0000  0.0000  1.0000  0.1559
  16.  H 2 (s)      0.4173  0.1981  0.1544  0.3405 -0.0936 -0.2312  0.1559  1.0000
  17.  H 2 (s)      0.4718  0.3708  0.3604  0.4046 -0.0222 -0.0550  0.0371  0.6583
  18.  H 3 (s)      0.0000  0.3990  0.1712  0.1166  0.2151  0.0000  0.0000  0.0194
  19.  H 3 (s)      0.0000  0.4179  0.3632  0.3501  0.0516  0.0000  0.0000  0.1522
  20.  H 4 (s)     -0.4173  0.1981  0.1544  0.3405 -0.0936  0.2312 -0.1559  0.0197
  21.  H 4 (s)     -0.4718  0.3708  0.3604  0.4046 -0.0222  0.0550 -0.0371  0.1532
  22.  N 5 (s)      0.0000  0.0002  0.0176  0.0002  0.0000  0.0000  0.0000  0.0000
  23.  N 5 (s)      0.0000  0.0302  0.2020  0.0302  0.0000  0.0000  0.0000  0.0035
  24.  N 5 (px)     0.0000  0.0000  0.0000  0.0000 -0.0889  0.0000  0.0000 -0.0019
  25.  N 5 (py)     0.0000  0.0504  0.2789  0.0504  0.0000  0.0000  0.0000  0.0065
  26.  N 5 (pz)     0.1428  0.0000  0.0000  0.0000  0.0000  0.0000 -0.0889  0.0031
  27.  N 5 (s)      0.0000  0.1789  0.3041  0.1789  0.0000  0.0000  0.0000  0.0558
  28.  N 5 (px)     0.0000  0.0000  0.0000  0.0000 -0.1678  0.0000  0.0000 -0.0393
  29.  N 5 (py)     0.0000  0.3656  0.4278  0.3656  0.0000  0.0000  0.0000  0.1366
  30.  N 5 (pz)     0.4692  0.0000  0.0000  0.0000  0.0000  0.0000 -0.1678  0.0654
  31.  N 5 (d1)     0.0000  0.0428  0.1041  0.0143  0.0000  0.0000  0.0000  0.0029
  32.  N 5 (d4)     0.0000  0.1041  0.4295  0.1041  0.0000  0.0000  0.0000  0.0144
  33.  N 5 (d6)     0.0000  0.0143  0.1041  0.0428  0.0000  0.0000  0.0000  0.0047
  34.  N 5 (d2)     0.0000  0.0000  0.0000  0.0000 -0.2268  0.0000  0.0000 -0.0063
  35.  N 5 (d3)     0.0000  0.0000  0.0000  0.0000  0.0000  0.0428  0.0000 -0.0030
  36.  N 5 (d5)     0.1462  0.0000  0.0000  0.0000  0.0000  0.0000 -0.2268  0.0105
  37.  H 6 (s)     -0.0895  0.0041  0.0193  0.0060 -0.0090 -0.0041  0.0132  0.0000
  38.  H 6 (s)     -0.1804  0.0883  0.1352  0.0941 -0.0277 -0.0126  0.0409  0.0114
  39.  H 7 (s)      0.0895  0.0041  0.0193  0.0060 -0.0090  0.0041 -0.0132  0.0009
  40.  H 7 (s)      0.1804  0.0883  0.1352  0.0941 -0.0277  0.0126 -0.0409  0.0437

           AO         17      18      19      20      21      22      23      24
      ------------ ------- ------- ------- ------- ------- ------- ------- -------
   1.  C 1 (s)      0.0923  0.0323  0.0919  0.0329  0.0923  0.0000  0.0031  0.0000
   2.  C 1 (s)      0.4767  0.2717  0.4747  0.2745  0.4767  0.0071  0.0970  0.0000
   3.  C 1 (px)    -0.1292  0.3363  0.2432 -0.1799 -0.1292  0.0000  0.0000  0.0488
   4.  C 1 (py)     0.0871  0.1478  0.1069  0.1213  0.0871 -0.0177 -0.1638  0.0000
   5.  C 1 (pz)     0.2153  0.0000  0.0000 -0.2998 -0.2153  0.0000  0.0000  0.0000
   6.  C 1 (s)      0.7051  0.3758  0.7031  0.3775  0.7051  0.0401  0.2394  0.0000
   7.  C 1 (px)    -0.2832  0.4712  0.5338 -0.2504 -0.2832  0.0000  0.0000  0.1428
   8.  C 1 (py)     0.1909  0.2072  0.2347  0.1688  0.1909 -0.0900 -0.4475  0.0000
   9.  C 1 (pz)     0.4718  0.0000  0.0000 -0.4173 -0.4718  0.0000  0.0000  0.0000
  10.  C 1 (d1)     0.3708  0.3990  0.4179  0.1981  0.3708  0.0002  0.0302  0.0000
  11.  C 1 (d4)     0.3604  0.1712  0.3632  0.1544  0.3604  0.0176  0.2020  0.0000
  12.  C 1 (d6)     0.4046  0.1166  0.3501  0.3405  0.4046  0.0002  0.0302  0.0000
  13.  C 1 (d2)    -0.0222  0.2151  0.0516 -0.0936 -0.0222  0.0000  0.0000 -0.0889
  14.  C 1 (d3)    -0.0550  0.0000  0.0000  0.2312  0.0550  0.0000  0.0000  0.0000
  15.  C 1 (d5)     0.0371  0.0000  0.0000 -0.1559 -0.0371  0.0000  0.0000  0.0000
  16.  H 2 (s)      0.6583  0.0194  0.1522  0.0197  0.1532  0.0000  0.0035 -0.0019
  17.  H 2 (s)      1.0000  0.1522  0.4065  0.1532  0.4082  0.0116  0.0846 -0.0194
  18.  H 3 (s)      0.1522  1.0000  0.6583  0.0194  0.1522  0.0000  0.0026  0.0026
  19.  H 3 (s)      0.4065  0.6583  1.0000  0.1522  0.4065  0.0101  0.0750  0.0325
  20.  H 4 (s)      0.1532  0.0194  0.1522  1.0000  0.6583  0.0000  0.0035 -0.0019
  21.  H 4 (s)      0.4082  0.1522  0.4065  0.6583  1.0000  0.0116  0.0846 -0.0194
  22.  N 5 (s)      0.0116  0.0000  0.0101  0.0000  0.0116  1.0000  0.2222  0.0000
  23.  N 5 (s)      0.0846  0.0026  0.0750  0.0035  0.0846  0.2222  1.0000  0.0000
  24.  N 5 (px)    -0.0194  0.0026  0.0325 -0.0019 -0.0194  0.0000  0.0000  1.0000
  25.  N 5 (py)     0.0677  0.0049  0.0625  0.0065  0.0677  0.0000  0.0000  0.0000
  26.  N 5 (pz)     0.0324  0.0000  0.0000 -0.0031 -0.0324  0.0000  0.0000  0.0000
  27.  N 5 (s)      0.2298  0.0481  0.2113  0.0558  0.2298  0.1719  0.7755  0.0000
  28.  N 5 (px)    -0.0915  0.0640  0.1590 -0.0393 -0.0915  0.0000  0.0000  0.5193
  29.  N 5 (py)     0.3183  0.1231  0.3059  0.1366  0.3183  0.0000  0.0000  0.0000
  30.  N 5 (pz)     0.1524  0.0000  0.0000 -0.0654 -0.1524  0.0000  0.0000  0.0000
  31.  N 5 (d1)     0.0775  0.0040  0.0776  0.0029  0.0775  0.0504  0.6360  0.0000
  32.  N 5 (d4)     0.1217  0.0112  0.1115  0.0144  0.1217  0.0504  0.6360  0.0000
  33.  N 5 (d6)     0.0845  0.0013  0.0650  0.0047  0.0845  0.0504  0.6360  0.0000
  34.  N 5 (d2)    -0.0240  0.0089  0.0419 -0.0063 -0.0240  0.0000  0.0000  0.0000
  35.  N 5 (d3)    -0.0115  0.0000  0.0000  0.0030  0.0115  0.0000  0.0000  0.0000
  36.  N 5 (d5)     0.0400  0.0000  0.0000 -0.0105 -0.0400  0.0000  0.0000  0.0000
  37.  H 6 (s)      0.0114  0.0008  0.0426  0.0009  0.0437  0.0318  0.2480  0.1685
  38.  H 6 (s)      0.0821  0.0426  0.1853  0.0437  0.1882  0.0778  0.4164  0.1044
  39.  H 7 (s)      0.0437  0.0008  0.0426  0.0000  0.0114  0.0318  0.2480  0.1685
  40.  H 7 (s)      0.1882  0.0426  0.1853  0.0114  0.0821  0.0778  0.4164  0.1044

           AO         25      26      27      28      29      30      31      32
      ------------ ------- ------- ------- ------- ------- ------- ------- -------
   1.  C 1 (s)      0.0083  0.0000  0.0437  0.0000  0.1079  0.0000  0.0005  0.0245
   2.  C 1 (s)      0.1416  0.0000  0.2715  0.0000  0.4945  0.0000  0.0589  0.2515
   3.  C 1 (px)     0.0000  0.0000  0.0000  0.1918  0.0000  0.0000  0.0000  0.0000
   4.  C 1 (py)    -0.2131  0.0000 -0.2479  0.0000 -0.2820  0.0000 -0.0982 -0.3437
   5.  C 1 (pz)     0.0000  0.0488  0.0000  0.0000  0.0000  0.1918  0.0000  0.0000
   6.  C 1 (s)      0.1646  0.0000  0.4723  0.0000  0.5410  0.0000  0.2101  0.3074
   7.  C 1 (px)     0.0000  0.0000  0.0000  0.4692  0.0000  0.0000  0.0000  0.0000
   8.  C 1 (py)    -0.1735  0.0000 -0.6065  0.0000 -0.2256  0.0000 -0.4001 -0.4167
   9.  C 1 (pz)     0.0000  0.1428  0.0000  0.0000  0.0000  0.4692  0.0000  0.0000
  10.  C 1 (d1)     0.0504  0.0000  0.1789  0.0000  0.3656  0.0000  0.0428  0.1041
  11.  C 1 (d4)     0.2789  0.0000  0.3041  0.0000  0.4278  0.0000  0.1041  0.4295
  12.  C 1 (d6)     0.0504  0.0000  0.1789  0.0000  0.3656  0.0000  0.0143  0.1041
  13.  C 1 (d2)     0.0000  0.0000  0.0000 -0.1678  0.0000  0.0000  0.0000  0.0000
  14.  C 1 (d3)     0.0000  0.0000  0.0000  0.0000  0.0000  0.0000  0.0000  0.0000
  15.  C 1 (d5)     0.0000 -0.0889  0.0000  0.0000  0.0000 -0.1678  0.0000  0.0000
  16.  H 2 (s)      0.0065  0.0031  0.0558 -0.0393  0.1366  0.0654  0.0029  0.0144
  17.  H 2 (s)      0.0677  0.0324  0.2298 -0.0915  0.3183  0.1524  0.0775  0.1217
  18.  H 3 (s)      0.0049  0.0000  0.0481  0.0640  0.1231  0.0000  0.0040  0.0112
  19.  H 3 (s)      0.0625  0.0000  0.2113  0.1590  0.3059  0.0000  0.0776  0.1115
  20.  H 4 (s)      0.0065 -0.0031  0.0558 -0.0393  0.1366 -0.0654  0.0029  0.0144
  21.  H 4 (s)      0.0677 -0.0324  0.2298 -0.0915  0.3183 -0.1524  0.0775  0.1217
  22.  N 5 (s)      0.0000  0.0000  0.1719  0.0000  0.0000  0.0000  0.0504  0.0504
  23.  N 5 (s)      0.0000  0.0000  0.7755  0.0000  0.0000  0.0000  0.6360  0.6360
  24.  N 5 (px)     0.0000  0.0000  0.0000  0.5193  0.0000  0.0000  0.0000  0.0000
  25.  N 5 (py)     1.0000  0.0000  0.0000  0.0000  0.5193  0.0000  0.0000  0.0000
  26.  N 5 (pz)     0.0000  1.0000  0.0000  0.0000  0.0000  0.5193  0.0000  0.0000
  27.  N 5 (s)      0.0000  0.0000  1.0000  0.0000  0.0000  0.0000  0.6703  0.6703
  28.  N 5 (px)     0.0000  0.0000  0.0000  1.0000  0.0000  0.0000  0.0000  0.0000
  29.  N 5 (py)     0.5193  0.0000  0.0000  0.0000  1.0000  0.0000  0.0000  0.0000
  30.  N 5 (pz)     0.0000  0.5193  0.0000  0.0000  0.0000  1.0000  0.0000  0.0000
  31.  N 5 (d1)     0.0000  0.0000  0.6703  0.0000  0.0000  0.0000  1.0000  0.3333
  32.  N 5 (d4)     0.0000  0.0000  0.6703  0.0000  0.0000  0.0000  0.3333  1.0000
  33.  N 5 (d6)     0.0000  0.0000  0.6703  0.0000  0.0000  0.0000  0.3333  0.3333
  34.  N 5 (d2)     0.0000  0.0000  0.0000  0.0000  0.0000  0.0000  0.0000  0.0000
  35.  N 5 (d3)     0.0000  0.0000  0.0000  0.0000  0.0000  0.0000  0.0000  0.0000
  36.  N 5 (d5)     0.0000  0.0000  0.0000  0.0000  0.0000  0.0000  0.0000  0.0000
  37.  H 6 (s)     -0.0937 -0.2486  0.3981  0.2954 -0.1642 -0.4357  0.2415  0.1696
  38.  H 6 (s)     -0.0580 -0.1539  0.6954  0.2894 -0.1609 -0.4269  0.3942  0.3789
  39.  H 7 (s)     -0.0937  0.2486  0.3981  0.2954 -0.1642  0.4357  0.2415  0.1696
  40.  H 7 (s)     -0.0580  0.1539  0.6954  0.2894 -0.1609  0.4269  0.3942  0.3789

           AO         33      34      35      36      37      38      39      40
      ------------ ------- ------- ------- ------- ------- ------- ------- -------
   1.  C 1 (s)      0.0005  0.0000  0.0000  0.0000  0.0001  0.0174  0.0001  0.0174
   2.  C 1 (s)      0.0589  0.0000  0.0000  0.0000  0.0115  0.1283  0.0115  0.1283
   3.  C 1 (px)     0.0000  0.1235  0.0000  0.0000  0.0064  0.0346  0.0064  0.0346
   4.  C 1 (py)    -0.0982  0.0000  0.0000  0.0000 -0.0209 -0.1122 -0.0209 -0.1122
   5.  C 1 (pz)     0.0000  0.0000  0.0000  0.1235 -0.0095 -0.0511  0.0095  0.0511
   6.  C 1 (s)      0.2101  0.0000  0.0000  0.0000  0.0879  0.2912  0.0879  0.2912
   7.  C 1 (px)     0.0000  0.1462  0.0000  0.0000  0.0607  0.1223  0.0607  0.1223
   8.  C 1 (py)    -0.4001  0.0000  0.0000  0.0000 -0.1967 -0.3961 -0.1967 -0.3961
   9.  C 1 (pz)     0.0000  0.0000  0.0000  0.1462 -0.0895 -0.1804  0.0895  0.1804
  10.  C 1 (d1)     0.0143  0.0000  0.0000  0.0000  0.0041  0.0883  0.0041  0.0883
  11.  C 1 (d4)     0.1041  0.0000  0.0000  0.0000  0.0193  0.1352  0.0193  0.1352
  12.  C 1 (d6)     0.0428  0.0000  0.0000  0.0000  0.0060  0.0941  0.0060  0.0941
  13.  C 1 (d2)     0.0000 -0.2268  0.0000  0.0000 -0.0090 -0.0277 -0.0090 -0.0277
  14.  C 1 (d3)     0.0000  0.0000  0.0428  0.0000 -0.0041 -0.0126  0.0041  0.0126
  15.  C 1 (d5)     0.0000  0.0000  0.0000 -0.2268  0.0132  0.0409 -0.0132 -0.0409
  16.  H 2 (s)      0.0047 -0.0063 -0.0030  0.0105  0.0000  0.0114  0.0009  0.0437
  17.  H 2 (s)      0.0845 -0.0240 -0.0115  0.0400  0.0114  0.0821  0.0437  0.1882
  18.  H 3 (s)      0.0013  0.0089  0.0000  0.0000  0.0008  0.0426  0.0008  0.0426
  19.  H 3 (s)      0.0650  0.0419  0.0000  0.0000  0.0426  0.1853  0.0426  0.1853
  20.  H 4 (s)      0.0047 -0.0063  0.0030 -0.0105  0.0009  0.0437  0.0000  0.0114
  21.  H 4 (s)      0.0845 -0.0240  0.0115 -0.0400  0.0437  0.1882  0.0114  0.0821
  22.  N 5 (s)      0.0504  0.0000  0.0000  0.0000  0.0318  0.0778  0.0318  0.0778
  23.  N 5 (s)      0.6360  0.0000  0.0000  0.0000  0.2480  0.4164  0.2480  0.4164
  24.  N 5 (px)     0.0000  0.0000  0.0000  0.0000  0.1685  0.1044  0.1685  0.1044
  25.  N 5 (py)     0.0000  0.0000  0.0000  0.0000 -0.0937 -0.0580 -0.0937 -0.0580
  26.  N 5 (pz)     0.0000  0.0000  0.0000  0.0000 -0.2486 -0.1539  0.2486  0.1539
  27.  N 5 (s)      0.6703  0.0000  0.0000  0.0000  0.3981  0.6954  0.3981  0.6954
  28.  N 5 (px)     0.0000  0.0000  0.0000  0.0000  0.2954  0.2894  0.2954  0.2894
  29.  N 5 (py)     0.0000  0.0000  0.0000  0.0000 -0.1642 -0.1609 -0.1642 -0.1609
  30.  N 5 (pz)     0.0000  0.0000  0.0000  0.0000 -0.4357 -0.4269  0.4357  0.4269
  31.  N 5 (d1)     0.3333  0.0000  0.0000  0.0000  0.2415  0.3942  0.2415  0.3942
  32.  N 5 (d4)     0.3333  0.0000  0.0000  0.0000  0.1696  0.3789  0.1696  0.3789
  33.  N 5 (d6)     1.0000  0.0000  0.0000  0.0000  0.3638  0.4201  0.3638  0.4201
  34.  N 5 (d2)     0.0000  1.0000  0.0000  0.0000 -0.1002 -0.0212 -0.1002 -0.0212
  35.  N 5 (d3)     0.0000  0.0000  1.0000  0.0000 -0.2657 -0.0563  0.2657  0.0563
  36.  N 5 (d5)     0.0000  0.0000  0.0000  1.0000  0.1477  0.0313 -0.1477 -0.0313
  37.  H 6 (s)      0.3638 -0.1002 -0.2657  0.1477  1.0000  0.6583  0.0333  0.1886
  38.  H 6 (s)      0.4201 -0.0212 -0.0563  0.0313  0.6583  1.0000  0.1886  0.4640
  39.  H 7 (s)      0.3638 -0.1002  0.2657 -0.1477  0.0333  0.1886  1.0000  0.6583
  40.  H 7 (s)      0.4201 -0.0212  0.0563 -0.0313  0.1886  0.4640  0.6583  1.0000


 AO bond-order matrix:

           AO          1       2       3       4       5       6       7       8
      ------------ ------- ------- ------- ------- ------- ------- ------- -------
   1.  C 1 (s)      2.0572 -0.0850  0.0010 -0.0110  0.0000 -0.1606 -0.0043 -0.0091
   2.  C 1 (s)     -0.0850  0.2681 -0.0051  0.0150  0.0000  0.2523  0.0073  0.0156
   3.  C 1 (px)     0.0010 -0.0051  0.3911  0.0017  0.0000  0.0023  0.1918 -0.0092
   4.  C 1 (py)    -0.0110  0.0150  0.0017  0.3212  0.0000  0.0633 -0.0147  0.1263
   5.  C 1 (pz)     0.0000  0.0000  0.0000  0.0000  0.3976  0.0000  0.0000  0.0000
   6.  C 1 (s)     -0.1606  0.2523  0.0023  0.0633  0.0000  0.2549  0.0096  0.0303
   7.  C 1 (px)    -0.0043  0.0073  0.1918 -0.0147  0.0000  0.0096  0.0956 -0.0111
   8.  C 1 (py)    -0.0091  0.0156 -0.0092  0.1263  0.0000  0.0303 -0.0111  0.0522
   9.  C 1 (pz)     0.0000  0.0000  0.0000  0.0000  0.2126  0.0000  0.0000  0.0000
  10.  C 1 (d1)    -0.0073  0.0065  0.0206  0.0166  0.0000  0.0095  0.0097  0.0061
  11.  C 1 (d4)    -0.0053  0.0032  0.0029 -0.0285  0.0000 -0.0022  0.0028 -0.0105
  12.  C 1 (d6)    -0.0078  0.0080 -0.0245  0.0152  0.0000  0.0095 -0.0125  0.0068
  13.  C 1 (d2)     0.0000 -0.0004  0.0231  0.0028  0.0000  0.0016  0.0115  0.0001
  14.  C 1 (d3)     0.0000  0.0000  0.0000  0.0000 -0.0274  0.0000  0.0000  0.0000
  15.  C 1 (d5)     0.0000  0.0000  0.0000  0.0000  0.0198  0.0000  0.0000  0.0000
  16.  H 2 (s)     -0.0532  0.1016 -0.1289  0.0741  0.2135  0.1036 -0.0633  0.0362
  17.  H 2 (s)     -0.0107  0.0305 -0.1079  0.0492  0.1715  0.0318 -0.0549  0.0239
  18.  H 3 (s)     -0.0521  0.0956  0.2429  0.0918  0.0000  0.1101  0.1190  0.0329
  19.  H 3 (s)     -0.0066  0.0186  0.2191  0.0774  0.0000  0.0355  0.1053  0.0251
  20.  H 4 (s)     -0.0532  0.1016 -0.1289  0.0741 -0.2135  0.1036 -0.0633  0.0362
  21.  H 4 (s)     -0.0107  0.0305 -0.1079  0.0492 -0.1715  0.0318 -0.0549  0.0239
  22.  N 5 (s)      0.0063 -0.0106 -0.0029  0.0479  0.0000  0.0175  0.0003  0.0071
  23.  N 5 (s)     -0.0131  0.0213  0.0045 -0.1001  0.0000 -0.0303  0.0000 -0.0168
  24.  N 5 (px)    -0.0011  0.0041 -0.0031 -0.0044  0.0000 -0.0300 -0.0105  0.0109
  25.  N 5 (py)    -0.0637  0.1279  0.0057 -0.3130  0.0000  0.0860  0.0266 -0.1268
  26.  N 5 (pz)     0.0000  0.0000  0.0000  0.0000 -0.0035  0.0000  0.0000  0.0000
  27.  N 5 (s)      0.0124 -0.0197  0.0271 -0.1127  0.0000 -0.0712  0.0102 -0.0222
  28.  N 5 (px)    -0.0046  0.0109 -0.0420 -0.0240  0.0000 -0.0188 -0.0261  0.0006
  29.  N 5 (py)    -0.0282  0.0622 -0.0021 -0.2111  0.0000  0.0316  0.0130 -0.0849
  30.  N 5 (pz)     0.0000  0.0000  0.0000  0.0000 -0.0254  0.0000  0.0000  0.0000
  31.  N 5 (d1)     0.0014 -0.0031 -0.0004  0.0067  0.0000 -0.0040 -0.0012  0.0034
  32.  N 5 (d4)    -0.0088  0.0147 -0.0003 -0.0181  0.0000  0.0125  0.0017 -0.0073
  33.  N 5 (d6)     0.0022 -0.0048 -0.0023  0.0090  0.0000 -0.0054 -0.0023  0.0047
  34.  N 5 (d2)    -0.0027  0.0055  0.0084 -0.0131  0.0000  0.0046  0.0053 -0.0059
  35.  N 5 (d3)     0.0000  0.0000  0.0000  0.0000 -0.0033  0.0000  0.0000  0.0000
  36.  N 5 (d5)     0.0000  0.0000  0.0000  0.0000  0.0100  0.0000  0.0000  0.0000
  37.  H 6 (s)      0.0084 -0.0181 -0.0078  0.0351  0.0160 -0.0343 -0.0120  0.0249
  38.  H 6 (s)      0.0070 -0.0129 -0.0183  0.0484  0.0351 -0.0123 -0.0139  0.0222
  39.  H 7 (s)      0.0084 -0.0181 -0.0078  0.0351 -0.0160 -0.0343 -0.0120  0.0249
  40.  H 7 (s)      0.0070 -0.0129 -0.0183  0.0484 -0.0351 -0.0123 -0.0139  0.0222

           AO          9      10      11      12      13      14      15      16
      ------------ ------- ------- ------- ------- ------- ------- ------- -------
   1.  C 1 (s)      0.0000 -0.0073 -0.0053 -0.0078  0.0000  0.0000  0.0000 -0.0532
   2.  C 1 (s)      0.0000  0.0065  0.0032  0.0080 -0.0004  0.0000  0.0000  0.1016
   3.  C 1 (px)     0.0000  0.0206  0.0029 -0.0245  0.0231  0.0000  0.0000 -0.1289
   4.  C 1 (py)     0.0000  0.0166 -0.0285  0.0152  0.0028  0.0000  0.0000  0.0741
   5.  C 1 (pz)     0.2126  0.0000  0.0000  0.0000  0.0000 -0.0274  0.0198  0.2135
   6.  C 1 (s)      0.0000  0.0095 -0.0022  0.0095  0.0016  0.0000  0.0000  0.1036
   7.  C 1 (px)     0.0000  0.0097  0.0028 -0.0125  0.0115  0.0000  0.0000 -0.0633
   8.  C 1 (py)     0.0000  0.0061 -0.0105  0.0068  0.0001  0.0000  0.0000  0.0362
   9.  C 1 (pz)     0.1139  0.0000  0.0000  0.0000  0.0000 -0.0147  0.0109  0.1146
  10.  C 1 (d1)     0.0000  0.0021 -0.0012 -0.0003  0.0014  0.0000  0.0000 -0.0008
  11.  C 1 (d4)     0.0000 -0.0012  0.0030 -0.0015  0.0001  0.0000  0.0000 -0.0061
  12.  C 1 (d6)     0.0000 -0.0003 -0.0015  0.0025 -0.0015  0.0000  0.0000  0.0144
  13.  C 1 (d2)     0.0000  0.0014  0.0001 -0.0015  0.0024  0.0000  0.0000 -0.0080
  14.  C 1 (d3)    -0.0147  0.0000  0.0000  0.0000  0.0000  0.0019 -0.0015 -0.0149
  15.  C 1 (d5)     0.0109  0.0000  0.0000  0.0000  0.0000 -0.0015  0.0015  0.0113
  16.  H 2 (s)      0.1146 -0.0008 -0.0061  0.0144 -0.0080 -0.0149  0.0113  0.2112
  17.  H 2 (s)      0.0926 -0.0027 -0.0050  0.0101 -0.0077 -0.0122  0.0099  0.1524
  18.  H 3 (s)      0.0000  0.0198 -0.0041 -0.0088  0.0170  0.0000  0.0000 -0.0266
  19.  H 3 (s)      0.0000  0.0161 -0.0037 -0.0105  0.0174  0.0000  0.0000 -0.0517
  20.  H 4 (s)     -0.1146 -0.0008 -0.0061  0.0144 -0.0080  0.0149 -0.0113 -0.0198
  21.  H 4 (s)     -0.0926 -0.0027 -0.0050  0.0101 -0.0077  0.0122 -0.0099 -0.0356
  22.  N 5 (s)      0.0000  0.0026 -0.0099  0.0032 -0.0022  0.0000  0.0000  0.0097
[...]

 -------------------------------------------------------
   Core                      3.99999 (100.000% of   4)
   Valence Lewis            13.94532 ( 99.609% of  14)
  ==================      =============================
   Total Lewis              17.94531 ( 99.696% of  18)
  -----------------------------------------------------
   Valence non-Lewis         0.04191 (  0.233% of  18)
   Rydberg non-Lewis         0.01278 (  0.071% of  18)
  ==================      =============================
   Total non-Lewis           0.05469 (  0.304% of  18)
 -------------------------------------------------------


     (Occupancy)   Bond orbital / Coefficients / Hybrids
 ------------------ Lewis ------------------------------------------------------
   1. (2.00000) CR ( 1) C  1            s(100.00%)
                                         1.0000  0.0000  0.0000  0.0000  0.0000
                                         0.0000  0.0000  0.0000  0.0000  0.0000
                                         0.0000  0.0000  0.0000  0.0000  0.0000
   2. (2.00000) CR ( 1) N  5            s(100.00%)
                                         1.0000  0.0000  0.0000  0.0000  0.0000
                                         0.0000  0.0000  0.0000  0.0000  0.0000
                                         0.0000  0.0000  0.0000  0.0000  0.0000
   3. (1.97843) LP ( 1) N  5            s( 24.76%)p 3.04( 75.16%)d 0.00(  0.07%)
                                         0.0000  0.4976  0.0036 -0.0016 -0.7952
                                         0.0302 -0.3440  0.0084  0.0000  0.0000
                                        -0.0175  0.0000  0.0000 -0.0152  0.0135
   4. (1.99280) BD ( 1) C  1- H  2
               ( 60.50%)   0.7778* C  1 s( 25.14%)p 2.97( 74.68%)d 0.01(  0.18%)
                                         0.0000  0.5014  0.0066  0.0001 -0.4193
                                         0.0042  0.2686  0.0034  0.7062 -0.0125
                                        -0.0114 -0.0279  0.0183  0.0058  0.0220
               ( 39.50%)   0.6285* H  2 s(100.00%)
                                         1.0000  0.0015
   5. (1.99802) BD ( 1) C  1- H  3
               ( 59.49%)   0.7713* C  1 s( 25.67%)p 2.89( 74.14%)d 0.01(  0.18%)
                                         0.0000  0.5066  0.0102  0.0000  0.8031
                                        -0.0101  0.3102  0.0094  0.0000  0.0000
                                         0.0273  0.0000  0.0000  0.0263 -0.0201
               ( 40.51%)   0.6364* H  3 s(100.00%)
                                         1.0000  0.0031
   6. (1.99280) BD ( 1) C  1- H  4
               ( 60.50%)   0.7778* C  1 s( 25.14%)p 2.97( 74.68%)d 0.01(  0.18%)
                                         0.0000  0.5014  0.0066  0.0001 -0.4193
                                         0.0042  0.2686  0.0034 -0.7062  0.0125
                                        -0.0114  0.0279 -0.0183  0.0058  0.0220
               ( 39.50%)   0.6285* H  4 s(100.00%)
                                         1.0000  0.0015
   7. (1.99884) BD ( 1) C  1- N  5
               ( 40.14%)   0.6335* C  1 s( 24.17%)p 3.13( 75.59%)d 0.01(  0.24%)
                                         0.0000  0.4903 -0.0354  0.0001  0.0276
                                        -0.0094 -0.8680 -0.0398  0.0000  0.0000
                                        -0.0034  0.0000  0.0000 -0.0429 -0.0241
               ( 59.86%)   0.7737* N  5 s( 29.49%)p 2.38( 70.32%)d 0.01(  0.19%)
                                         0.0000  0.5430 -0.0027 -0.0017 -0.0231
                                        -0.0134  0.8381  0.0108  0.0000  0.0000
                                         0.0155  0.0000  0.0000 -0.0375 -0.0169
   8. (1.99221) BD ( 1) N  5- H  6
               ( 68.67%)   0.8287* N  5 s( 22.85%)p 3.37( 76.92%)d 0.01(  0.23%)
                                         0.0000  0.4780 -0.0017  0.0020  0.4270
                                        -0.0065 -0.2965 -0.0242 -0.7057 -0.0146
                                        -0.0125 -0.0410  0.0063  0.0171  0.0135
               ( 31.33%)   0.5597* H  6 s(100.00%)
                                         1.0000 -0.0025
   9. (1.99221) BD ( 1) N  5- H  7
               ( 68.67%)   0.8287* N  5 s( 22.85%)p 3.37( 76.92%)d 0.01(  0.23%)
                                         0.0000  0.4780 -0.0017  0.0020  0.4270
                                        -0.0065 -0.2965 -0.0242  0.7057  0.0146
                                        -0.0125  0.0410 -0.0063  0.0171  0.0135
               ( 31.33%)   0.5597* H  7 s(100.00%)
                                         1.0000 -0.0025
 ---------------- non-Lewis ----------------------------------------------------
  10. (0.00793) BD*( 1) C  1- H  2
               ( 39.50%)   0.6285* C  1 s( 25.14%)p 2.97( 74.68%)d 0.01(  0.18%)
                                         0.0000 -0.5014 -0.0066 -0.0001  0.4193
                                        -0.0042 -0.2686 -0.0034 -0.7062  0.0125
                                         0.0114  0.0279 -0.0183 -0.0058 -0.0220
               ( 60.50%)  -0.7778* H  2 s(100.00%)
                                        -1.0000 -0.0015
  11. (0.01580) BD*( 1) C  1- H  3
               ( 40.51%)   0.6364* C  1 s( 25.67%)p 2.89( 74.14%)d 0.01(  0.18%)
                                         0.0000 -0.5066 -0.0102  0.0000 -0.8031
                                         0.0101 -0.3102 -0.0094  0.0000  0.0000
                                        -0.0273  0.0000  0.0000 -0.0263  0.0201
               ( 59.49%)  -0.7713* H  3 s(100.00%)
                                        -1.0000 -0.0031
  12. (0.00793) BD*( 1) C  1- H  4
               ( 39.50%)   0.6285* C  1 s( 25.14%)p 2.97( 74.68%)d 0.01(  0.18%)
                                         0.0000 -0.5014 -0.0066 -0.0001  0.4193
                                        -0.0042 -0.2686 -0.0034  0.7062 -0.0125
                                         0.0114 -0.0279  0.0183 -0.0058 -0.0220
               ( 60.50%)  -0.7778* H  4 s(100.00%)
                                        -1.0000 -0.0015
  13. (0.00005) BD*( 1) C  1- N  5
               ( 59.86%)   0.7737* C  1 s( 24.17%)p 3.13( 75.59%)d 0.01(  0.24%)
               ( 40.14%)  -0.6335* N  5 s( 29.49%)p 2.38( 70.32%)d 0.01(  0.19%)
  14. (0.00511) BD*( 1) N  5- H  6
               ( 31.33%)   0.5597* N  5 s( 22.85%)p 3.37( 76.92%)d 0.01(  0.23%)
                                         0.0000 -0.4780  0.0017 -0.0020 -0.4270
                                         0.0065  0.2965  0.0242  0.7057  0.0146
                                         0.0125  0.0410 -0.0063 -0.0171 -0.0135
               ( 68.67%)  -0.8287* H  6 s(100.00%)
                                        -1.0000  0.0025
  15. (0.00511) BD*( 1) N  5- H  7
               ( 31.33%)   0.5597* N  5 s( 22.85%)p 3.37( 76.92%)d 0.01(  0.23%)
                                         0.0000 -0.4780  0.0017 -0.0020 -0.4270
                                         0.0065  0.2965  0.0242 -0.7057 -0.0146
                                         0.0125 -0.0410  0.0063 -0.0171 -0.0135
               ( 68.67%)  -0.8287* H  7 s(100.00%)
                                        -1.0000  0.0025
  16. (0.00137) RY ( 1) C  1            s(  4.02%)p 9.18( 36.87%)d14.72( 59.12%)
                                         0.0000 -0.0046  0.1963 -0.0400 -0.0365
                                        -0.5874  0.0123 -0.1487  0.0000  0.0000
                                         0.7111  0.0000  0.0000 -0.1284 -0.2628
  17. (0.00123) RY ( 2) C  1            s(  0.00%)p 1.00( 66.30%)d 0.51( 33.70%)
                                         0.0000  0.0000  0.0000  0.0000  0.0000
                                         0.0000  0.0000  0.0000  0.0377  0.8133
                                         0.0000  0.2452 -0.5263  0.0000  0.0000
  18. (0.00102) RY ( 3) C  1            s(  3.52%)p17.39( 61.25%)d10.00( 35.22%)
                                         0.0000  0.0102  0.0819  0.1685 -0.0156
                                         0.4421 -0.0470  0.6439  0.0000  0.0000
                                         0.5483  0.0000  0.0000  0.2193  0.0593
  19. (0.00000) RY ( 4) C  1            s( 94.16%)p 0.03(  2.69%)d 0.03(  3.14%)
  20. (0.00000) RY ( 5) C  1            s(  0.03%)p99.99( 33.76%)d99.99( 66.21%)
  21. (0.00000) RY ( 6) C  1            s( 65.85%)p 0.48( 31.41%)d 0.04(  2.74%)
  22. (0.00000) RY ( 7) C  1            s( 29.56%)p 1.36( 40.26%)d 1.02( 30.18%)
  23. (0.00000) RY ( 8) C  1            s(  2.13%)p10.48( 22.30%)d35.52( 75.57%)
  24. (0.00000) RY ( 9) C  1            s(  0.28%)p 2.82(  0.78%)d99.99( 98.94%)
  25. (0.00000) RY (10) C  1            s(  0.32%)p16.59(  5.28%)d99.99( 94.40%)
  26. (0.00084) RY ( 1) H  2            s(100.00%)
                                        -0.0015  1.0000
  27. (0.00129) RY ( 1) H  3            s(100.00%)
                                        -0.0031  1.0000
  28. (0.00084) RY ( 1) H  4            s(100.00%)
                                        -0.0015  1.0000
  29. (0.00230) RY ( 1) N  5            s(  4.28%)p21.58( 92.35%)d 0.79(  3.37%)
                                         0.0000  0.0026  0.2066  0.0107  0.0315
                                         0.9560  0.0087  0.0928  0.0000  0.0000
                                         0.1706  0.0000  0.0000 -0.0179 -0.0653
  30. (0.00099) RY ( 2) N  5            s(  0.00%)p 1.00( 84.81%)d 0.18( 15.19%)
                                         0.0000  0.0000  0.0000  0.0000  0.0000
                                         0.0000  0.0000  0.0000 -0.0046  0.9209
                                         0.0000 -0.1966  0.3366  0.0000  0.0000
  31. (0.00026) RY ( 3) N  5            s( 67.18%)p 0.18( 12.12%)d 0.31( 20.70%)
                                         0.0000 -0.0023  0.8187  0.0393 -0.0005
                                        -0.2009 -0.0191 -0.2837  0.0000  0.0000
                                         0.1665  0.0000  0.0000 -0.3635 -0.2169
  32. (0.00000) RY ( 4) N  5            s(  1.15%)p 5.50(  6.31%)d80.70( 92.54%)
  33. (0.00000) RY ( 5) N  5            s(  9.31%)p 0.18(  1.68%)d 9.56( 89.00%)
  34. (0.00000) RY ( 6) N  5            s( 25.85%)p 1.83( 47.35%)d 1.04( 26.80%)
  35. (0.00000) RY ( 7) N  5            s( 17.32%)p 1.11( 19.27%)d 3.66( 63.41%)
  36. (0.00000) RY ( 8) N  5            s( 74.02%)p 0.29( 21.34%)d 0.06(  4.64%)
  37. (0.00000) RY ( 9) N  5            s(  0.78%)p 2.72(  2.14%)d99.99( 97.08%)
  38. (0.00000) RY (10) N  5            s(  0.17%)p79.22( 13.31%)d99.99( 86.53%)
  39. (0.00132) RY ( 1) H  6            s(100.00%)
                                         0.0025  1.0000
  40. (0.00132) RY ( 1) H  7            s(100.00%)
                                         0.0025  1.0000


 NHO DIRECTIONALITY AND BOND BENDING (deviation from line of nuclear centers at
                                      the position of maximum hybrid amplitude)

         [Thresholds for printing:  angular deviation  >  1.0 degree]
                                    p- or d-character  > 25.0%
                                    orbital occupancy  >  0.10e

                        Line of Centers        Hybrid 1             Hybrid 2
                        ---------------  -------------------  ------------------
           NBO            Theta   Phi    Theta   Phi    Dev   Theta   Phi    Dev
 ===============================================================================
   3. LP ( 1) N  5          --     --     90.0  202.7   --      --     --    --
   5. BD ( 1) C  1- H  3   90.0   23.7    90.0   22.3   1.4     --     --    --
   7. BD ( 1) C  1- N  5   90.0  270.0    90.0  271.2   1.2     --     --    --
   8. BD ( 1) N  5- H  6  142.2  330.9   142.9  326.5   2.8     --     --    --
   9. BD ( 1) N  5- H  7   37.8  330.9    37.1  326.5   2.8     --     --    --


 SECOND ORDER PERTURBATION THEORY ANALYSIS OF FOCK MATRIX IN NBO BASIS

     Threshold for printing:   0.50 kcal/mol
                                                          E(2) E(NL)-E(L) F(L,NL)
      Donor (L) NBO              Acceptor (NL) NBO      kcal/mol   a.u.    a.u.
 ===============================================================================

 within unit  1
    3. LP ( 1) N  5            10. BD*( 1) C  1- H  2      1.14    1.20   0.033
    3. LP ( 1) N  5            11. BD*( 1) C  1- H  3      8.56    1.18   0.090
    3. LP ( 1) N  5            12. BD*( 1) C  1- H  4      1.14    1.20   0.033
    3. LP ( 1) N  5            16. RY ( 1) C  1            0.88    2.28   0.040
    3. LP ( 1) N  5            18. RY ( 3) C  1            0.65    1.86   0.031
    4. BD ( 1) C  1- H  2      14. BD*( 1) N  5- H  6      3.19    1.37   0.059
    4. BD ( 1) C  1- H  2      29. RY ( 1) N  5            0.56    1.73   0.028
    4. BD ( 1) C  1- H  2      30. RY ( 2) N  5            0.67    2.04   0.033
    5. BD ( 1) C  1- H  3      29. RY ( 1) N  5            1.19    1.73   0.041
    6. BD ( 1) C  1- H  4      15. BD*( 1) N  5- H  7      3.19    1.37   0.059
    6. BD ( 1) C  1- H  4      29. RY ( 1) N  5            0.56    1.73   0.028
    6. BD ( 1) C  1- H  4      30. RY ( 2) N  5            0.67    2.04   0.033
    8. BD ( 1) N  5- H  6      10. BD*( 1) C  1- H  2      3.52    1.48   0.064
    8. BD ( 1) N  5- H  6      17. RY ( 2) C  1            0.76    2.16   0.036
    9. BD ( 1) N  5- H  7      12. BD*( 1) C  1- H  4      3.52    1.48   0.064
    9. BD ( 1) N  5- H  7      17. RY ( 2) C  1            0.76    2.16   0.036


 NATURAL BOND ORBITALS (Summary):

                                                     Principal Delocalizations
           NBO                 Occupancy    Energy   (geminal,vicinal,remote)
 ===============================================================================
 Molecular unit  1  (CH5N)
 ------ Lewis --------------------------------------
    1. CR ( 1) C  1             2.00000   -11.24228
    2. CR ( 1) N  5             2.00000   -15.54697
    3. LP ( 1) N  5             1.97843    -0.46560  11(v),10(v),12(v),16(v)
                                                     18(v)
    4. BD ( 1) C  1- H  2       1.99280    -0.65052  14(v),30(v),29(v)
    5. BD ( 1) C  1- H  3       1.99802    -0.65516  29(v)
    6. BD ( 1) C  1- H  4       1.99280    -0.65052  15(v),30(v),29(v)
    7. BD ( 1) C  1- N  5       1.99884    -0.80693
    8. BD ( 1) N  5- H  6       1.99221    -0.74779  10(v),17(v)
    9. BD ( 1) N  5- H  7       1.99221    -0.74779  12(v),17(v)
 ------ non-Lewis ----------------------------------
   10. BD*( 1) C  1- H  2       0.00793     0.73276
   11. BD*( 1) C  1- H  3       0.01580     0.71806
   12. BD*( 1) C  1- H  4       0.00793     0.73276
   13. BD*( 1) C  1- N  5       0.00005     0.60576
   14. BD*( 1) N  5- H  6       0.00511     0.72370
   15. BD*( 1) N  5- H  7       0.00511     0.72370
   16. RY ( 1) C  1             0.00137     1.81605
   17. RY ( 2) C  1             0.00123     1.40773
   18. RY ( 3) C  1             0.00102     1.39923
   19. RY ( 4) C  1             0.00000     2.20363
   20. RY ( 5) C  1             0.00000     1.81023
   21. RY ( 6) C  1             0.00000     2.62933
   22. RY ( 7) C  1             0.00000     2.34393
   23. RY ( 8) C  1             0.00000     2.05816
   24. RY ( 9) C  1             0.00000     2.18227
   25. RY (10) C  1             0.00000     2.17745
   26. RY ( 1) H  2             0.00084     0.81047
   27. RY ( 1) H  3             0.00129     0.81280
   28. RY ( 1) H  4             0.00084     0.81047
   29. RY ( 1) N  5             0.00230     1.07976
   30. RY ( 2) N  5             0.00099     1.39364
   31. RY ( 3) N  5             0.00026     1.93022
   32. RY ( 4) N  5             0.00000     2.08817
   33. RY ( 5) N  5             0.00000     2.32616
   34. RY ( 6) N  5             0.00000     1.72793
   35. RY ( 7) N  5             0.00000     2.36153
   36. RY ( 8) N  5             0.00000     3.33707
   37. RY ( 9) N  5             0.00000     2.38181
   38. RY (10) N  5             0.00000     2.11332
   39. RY ( 1) H  6             0.00132     0.80534
   40. RY ( 1) H  7             0.00132     0.80534
          -------------------------------
                 Total Lewis   17.94531  ( 99.6962%)
           Valence non-Lewis    0.04191  (  0.2328%)
           Rydberg non-Lewis    0.01278  (  0.0710%)
          -------------------------------
               Total unit  1   18.00000  (100.0000%)
              Charge unit  1    0.00000

 $CHOOSE
   LONE 5 1 END
   BOND S 1 2 S 1 3 S 1 4 S 1 5 S 5 6 S 5 7 END
 $END

 NBO analysis completed in 0.40 CPU seconds (1 wall second)
 Maximum scratch memory used by NBO was 336065 words (2.56 MB)
 Maximum scratch memory used by G16NBO was 10817 words (0.08 MB)

 Opening RunExU unformatted file "/cluster/work/users/beto93/CH3NH2/Gau-1258972.EUF"
 Read unf file /cluster/work/users/beto93/CH3NH2/Gau-1258972.EUF:
 Label Gaussian matrix elements                                         IVers= 2 NLab= 2 Version=ES64L-G16RevC.01
 Title NBO-a                                                           
 NAtoms=     7 NBasis=    40 NBsUse=    40 ICharg=     0 Multip=     1 NE=    18 Len12L=8 Len4L=8 IOpCl= 0 ICGU=111
 GAUSSIAN SCALARS                    NI= 1 NR= 1 NTot=       1 LenBuf=    2 NRI=1 N=    1000
 NPA CHARGES                         NI= 0 NR= 1 NTot=       7 LenBuf= 4000 NRI=1 N=       7
 Recovered energy= -95.2072347966     dipole=      0.637713030960      0.250497078246      0.000000000000
 Unable to Open any file for archive entry.
 1\1\GINC-C1-25\SP\RHF\6-31G(d)\C1H5N1\BETO93\24-Jul-2024\0\\#RHF/6-31G
 * Pop=NBO7Read\\NBO-a\\0,1\C,0,0.004002,-0.007547,-0.006036\H,0,0.0048
 98,0.006802,1.08263\H,0,1.04102,0.029944,-0.349717\H,0,-0.504309,0.888
 779,-0.357633\N,0,-0.738855,-1.204882,-0.476612\H,0,-0.67648,-1.220095
 ,-1.507986\H,0,-0.205075,-2.036596,-0.174644\\Version=ES64L-G16RevC.01
 \State=1-A'\HF=-95.2072348\RMSD=7.500e-09\Dipole=0.6459322,-0.0001624,
 -0.2284695\Quadrupole=-1.8548999,0.809832,1.0450679,-1.0786136,0.35321
 69,0.2573119\PG=CS [SG(C1H1N1),X(H4)]\\@
 The archive entry for this job was punched.


 THOUGH I SPEAK WITH THE TONGUES OF MEN AND OF ANGELS, 
 AND HAVE NOT LOVE,
 I AM BECOME AS SOUNDING BRASS, A TINKLING CYMBAL.
 AND THOUGH I HAVE THE GIFT OF PROPHECY,
 AND UNDERSTAND ALL MYSTERIES, AND ALL KNOWLEDGE.
 AND THOUGH I HAVE ALL FAITH, SO THAT I COULD REMOVE MOUNTAINS,
 AND HAVE NOT LOVE, I AM NOTHING.
 AND THOUGH I BESTOW ALL MY GOODS TO FEED THE POOR,
 AND THOUGH I GIVE MY BODY TO BE BURNED,
 AND HAVE NOT LOVE IT PROFITETH ME NOTHING.
 LOVE SUFFERETH LONG, AND IS KIND,
 LOVE ENVIETH NOT,
 LOVE VAUNTETH NOT ITSELF, IS NOT PUFFED UP,
 DOTH NOT BEHAVE ITSELF UNSEEMLY, SEEKETH NOT HER OWN,
 IS NOT EASILY PROVOKED, THINKETH NO EVIL,
 REJOICETH NOT IN INIQUITY, BUT REJOICETH IN THE TRUTH,
 BEARETH ALL THINGS, BELIEVETH ALL THINGS,
 HOPETH ALL THINGS, ENDURETH ALL THINGS.
 LOVE NEVER FAILETH, BUT WHETHER THERE BE PROPHECIES, THEY SHALL FAIL, 
 WHETHER THERE BE TONGUES, THEY SHALL CEASE,
 WHETHER THERE BE KNOWLEDGE, IT SHALL VANISH AWAY.
 FOR WE KNOW IN PART, AND WE PROPHESY IN PART.
 BUT WHEN THAT WHICH IS PERFECT IS COME, THEN THAT WHICH IS IN PART 
 SHALL BE DONE AWAY. 
 WHEN I WAS A CHILD, I SPAKE AS A CHILD, I UNDERSTOOD AS A CHILD, 
 I THOUGHT AS A CHILD.
 BUT WHEN I BECAME A MAN, I PUT AWAY CHILDISH THINGS.
 FOR NOW WE SEE THROUGH A GLASS, DARKLY, BUT THEN FACE TO FACE.
 NOW I KNOW IN PART. BUT THEN SHALL I KNOW EVEN AS ALSO I AM KNOWN.
 AND NOW ABIDETH FAITH, HOPE AND LOVE, THESE THREE.
 BUT THE GREATEST OF THESE IS LOVE.

                     I CORINTHIANS 13
 Job cpu time:       0 days  0 hours  0 minutes 12.2 seconds.
 Elapsed time:       0 days  0 hours  0 minutes  4.0 seconds.
 File lengths (MBytes):  RWF=     10 Int=      0 D2E=      0 Chk=      1 Scr=      1
 Normal termination of Gaussian 16 at Wed Jul 24 12:08:03 2024.
