 Entering Gaussian System, Link 0=g16
 Initial command:
 /cluster/software/Gaussian/g16_C.01/l1.exe "/cluster/work/users/beto93/mol133/Gau-1107912.inp" -scrdir="/cluster/work/users/beto93/mol133/"
 Entering Link 1 = /cluster/software/Gaussian/g16_C.01/l1.exe PID=   1107921.
  
 Copyright (c) 1988-2019, Gaussian, Inc.  All Rights Reserved.
  
 This is part of the Gaussian(R) 16 program.  It is based on
 the Gaussian(R) 09 system (copyright 2009, Gaussian, Inc.),
 the Gaussian(R) 03 system (copyright 2003, Gaussian, Inc.),
 the Gaussian(R) 98 system (copyright 1998, Gaussian, Inc.),
 the Gaussian(R) 94 system (copyright 1995, Gaussian, Inc.),
 the Gaussian 92(TM) system (copyright 1992, Gaussian, Inc.),
 the Gaussian 90(TM) system (copyright 1990, Gaussian, Inc.),
 the Gaussian 88(TM) system (copyright 1988, Gaussian, Inc.),
 the Gaussian 86(TM) system (copyright 1986, Carnegie Mellon
 University), and the Gaussian 82(TM) system (copyright 1983,
 Carnegie Mellon University). Gaussian is a federally registered
 trademark of Gaussian, Inc.
  
 This software contains proprietary and confidential information,
 including trade secrets, belonging to Gaussian, Inc.
  
 This software is provided under written license and may be
 used, copied, transmitted, or stored only in accord with that
 written license.
  
 The following legend is applicable only to US Government
 contracts under FAR:
  
                    RESTRICTED RIGHTS LEGEND
  
 Use, reproduction and disclosure by the US Government is
 subject to restrictions as set forth in subparagraphs (a)
 and (c) of the Commercial Computer Software - Restricted
 Rights clause in FAR 52.227-19.
  
 Gaussian, Inc.
 340 Quinnipiac St., Bldg. 40, Wallingford CT 06492
  
  
 ---------------------------------------------------------------
 Warning -- This program may not be used in any manner that
 competes with the business of Gaussian, Inc. or will provide
 assistance to any competitor of Gaussian, Inc.  The licensee
 of this program is prohibited from giving any competitor of
 Gaussian, Inc. access to this program.  By using this program,
 the user acknowledges that Gaussian, Inc. is engaged in the
 business of creating and licensing software in the field of
 computational chemistry and represents and warrants to the
 licensee that it is not a competitor of Gaussian, Inc. and that
 it will not use this program in any manner prohibited above.
 ---------------------------------------------------------------
  

 Cite this work as:
 Gaussian 16, Revision C.01,
 M. J. Frisch, G. W. Trucks, H. B. Schlegel, G. E. Scuseria, 
 M. A. Robb, J. R. Cheeseman, G. Scalmani, V. Barone, 
 G. A. Petersson, H. Nakatsuji, X. Li, M. Caricato, A. V. Marenich, 
 J. Bloino, B. G. Janesko, R. Gomperts, B. Mennucci, H. P. Hratchian, 
 J. V. Ortiz, A. F. Izmaylov, J. L. Sonnenberg, D. Williams-Young, 
 F. Ding, F. Lipparini, F. Egidi, J. Goings, B. Peng, A. Petrone, 
 T. Henderson, D. Ranasinghe, V. G. Zakrzewski, J. Gao, N. Rega, 
 G. Zheng, W. Liang, M. Hada, M. Ehara, K. Toyota, R. Fukuda, 
 J. Hasegawa, M. Ishida, T. Nakajima, Y. Honda, O. Kitao, H. Nakai, 
 T. Vreven, K. Throssell, J. A. Montgomery, Jr., J. E. Peralta, 
 F. Ogliaro, M. J. Bearpark, J. J. Heyd, E. N. Brothers, K. N. Kudin, 
 V. N. Staroverov, T. A. Keith, R. Kobayashi, J. Normand, 
 K. Raghavachari, A. P. Rendell, J. C. Burant, S. S. Iyengar, 
 J. Tomasi, M. Cossi, J. M. Millam, M. Klene, C. Adamo, R. Cammi, 
 J. W. Ochterski, R. L. Martin, K. Morokuma, O. Farkas, 
 J. B. Foresman, and D. J. Fox, Gaussian, Inc., Wallingford CT, 2019.
 
 ******************************************
 Gaussian 16:  ES64L-G16RevC.01  3-Jul-2019
                18-Nov-2024 
 ******************************************
 %LindaWorkers=c2-6-ib
 %NProcShared=4
 Will use up to    4 processors via shared memory.
 %mem=25GB
 %chk=mol133.chk
 SetLPE:    new flags="-opt 'Tsnet.Node.lindarsharg: ssh'  -nodelist 'c2-6-ib.saga' -env GAUSS_MDEF=3355443200 -env GAUSS_EXEDIR="/cluster/software/Gaussian/g16_C.01/bsd:/cluster/software/Gaussian/g16_C.01""
 Will use up to    1 processors via Linda.
 -----------------------------------------------------------------
 #RHF/STO-3G int=nobasistransform Symmetry=None 5D 7F Pop=NBO7Read
 -----------------------------------------------------------------
 1/38=1,163=2,172=1/1;
 2/12=2,15=3,17=6,18=5,40=1/2;
 3/6=3,8=11,11=1,25=1,30=1,60=-1,116=1/1,2,3;
 4//1;
 5/5=2,38=5/2;
 6/7=2,8=2,9=2,10=2,28=1,40=2,113=1,114=1,124=2103/1,12;
 99/5=1,9=1/99;
 ----------
 mol133-NBO
 ----------
 Symbolic Z-matrix:
 Charge =  0 Multiplicity = 1
 H                     0.        0.        2.1293 
 N                     0.        0.        1.11868 
 C                     0.        1.12452   0.33357 
 C                     0.       -1.12452   0.33357 
 C                     0.        0.70841  -0.98381 
 C                     0.       -0.70841  -0.98381 
 H                     0.        2.11287   0.7705 
 H                     0.       -2.11287   0.7705 
 H                     0.        1.35725  -1.84909 
 H                     0.       -1.35725  -1.84909 
 
                          Input orientation:                          
 ---------------------------------------------------------------------
 Center     Atomic      Atomic             Coordinates (Angstroms)
 Number     Number       Type             X           Y           Z
 ---------------------------------------------------------------------
      1          1           0        0.000000    0.000000    2.129296
      2          7           0        0.000000    0.000000    1.118684
      3          6           0        0.000000    1.124516    0.333565
      4          6           0        0.000000   -1.124516    0.333565
      5          6           0        0.000000    0.708407   -0.983807
      6          6           0        0.000000   -0.708407   -0.983807
      7          1           0        0.000000    2.112872    0.770496
      8          1           0        0.000000   -2.112872    0.770496
      9          1           0        0.000000    1.357252   -1.849085
     10          1           0        0.000000   -1.357252   -1.849085
 ---------------------------------------------------------------------
                    Distance matrix (angstroms):
                    1          2          3          4          5
     1  H    0.000000
     2  N    1.010612   0.000000
     3  C    2.118770   1.371477   0.000000
     4  C    2.118770   1.371477   2.249032   0.000000
     5  C    3.192687   2.218628   1.381527   2.257227   0.000000
     6  C    3.192687   2.218628   2.257227   1.381527   1.416814
     7  H    2.512084   2.141369   1.080628   3.266740   2.247243
     8  H    2.512084   2.141369   3.266740   1.080628   3.322227
     9  H    4.203528   3.263401   2.195023   3.305016   1.081529
    10  H    4.203528   3.263401   3.305016   2.195023   2.239565
                    6          7          8          9         10
     6  C    0.000000
     7  H    3.322227   0.000000
     8  H    2.247243   4.225744   0.000000
     9  H    2.239565   2.726383   4.347869   0.000000
    10  H    1.081529   4.347869   2.726383   2.714504   0.000000
 Symmetry turned off by external request.
 Stoichiometry    C4H5N
 Rotational constants (GHZ):           9.1712908           9.0115376           4.5453562
 Standard basis: STO-3G (5D, 7F)
    30 basis functions,    90 primitive gaussians,    30 cartesian basis functions
    18 alpha electrons       18 beta electrons
       nuclear repulsion energy       160.9055225287 Hartrees.
 NAtoms=   10 NActive=   10 NUniq=   10 SFac= 1.00D+00 NAtFMM=   60 NAOKFM=F Big=F
 Integral buffers will be    131072 words long.
 Raffenetti 1 integral format.
 Two-electron integral symmetry is turned off.
 One-electron integrals computed using PRISM.
 NBasis=    30 RedAO= T EigKep=  1.80D-01  NBF=    30
 NBsUse=    30 1.00D-06 EigRej= -1.00D+00 NBFU=    30
 ExpMin= 1.69D-01 ExpMax= 9.91D+01 ExpMxC= 9.91D+01 IAcc=3 IRadAn=         5 AccDes= 0.00D+00
 Harris functional with IExCor=  205 and IRadAn=       5 diagonalized for initial guess.
 HarFok:  IExCor=  205 AccDes= 0.00D+00 IRadAn=         5 IDoV= 1 UseB2=F ITyADJ=14
 ICtDFT=  3500011 ScaDFX=  1.000000  1.000000  1.000000  1.000000
 FoFCou: FMM=F IPFlag=           0 FMFlag=      100000 FMFlg1=           0
         NFxFlg=           0 DoJE=T BraDBF=F KetDBF=T FulRan=T
         wScrn=  0.000000 ICntrl=       500 IOpCl=  0 I1Cent=   200000004 NGrid=           0
         NMat0=    1 NMatS0=      1 NMatT0=    0 NMatD0=    1 NMtDS0=    0 NMtDT0=    0
 Symmetry not used in FoFCou.
 Keep R1 ints in memory in canonical form, NReq=925523.
 Requested convergence on RMS density matrix=1.00D-08 within 128 cycles.
 Requested convergence on MAX density matrix=1.00D-06.
 Requested convergence on             energy=1.00D-06.
 No special actions if energy rises.
 SCF Done:  E(RHF) =  -206.224564954     A.U. after   11 cycles
            NFock= 11  Conv=0.63D-08     -V/T= 2.0092

 **********************************************************************

            Population analysis using the SCF Density.

 **********************************************************************

 Alpha  occ. eigenvalues --  -15.40950 -11.03767 -11.03746 -10.98669 -10.98653
 Alpha  occ. eigenvalues --   -1.22506  -0.97572  -0.91201  -0.73316  -0.70466
 Alpha  occ. eigenvalues --   -0.68161  -0.52782  -0.52168  -0.51724  -0.48157
 Alpha  occ. eigenvalues --   -0.46183  -0.28070  -0.23279
 Alpha virt. eigenvalues --    0.32243   0.40859   0.56407   0.64327   0.68253
 Alpha virt. eigenvalues --    0.69299   0.71655   0.77896   0.79479   0.97078
 Alpha virt. eigenvalues --    1.04762   1.14260
          Condensed to atoms (all electrons):
               1          2          3          4          5          6
     1  H    0.479299   0.354908  -0.027253  -0.027253   0.002249   0.002249
     2  N    0.354908   6.261938   0.417457   0.417457  -0.054754  -0.054754
     3  C   -0.027253   0.417457   4.786840  -0.067814   0.548682  -0.053460
     4  C   -0.027253   0.417457  -0.067814   4.786840  -0.053460   0.548682
     5  C    0.002249  -0.054754   0.548682  -0.053460   4.817842   0.481654
     6  C    0.002249  -0.054754  -0.053460   0.548682   0.481654   4.817842
     7  H   -0.001995  -0.020496   0.394915   0.001817  -0.018641   0.001476
     8  H   -0.001995  -0.020496   0.001817   0.394915   0.001476  -0.018641
     9  H   -0.000045   0.001191  -0.021724   0.001555   0.394491  -0.019386
    10  H   -0.000045   0.001191   0.001555  -0.021724  -0.019386   0.394491
               7          8          9         10
     1  H   -0.001995  -0.001995  -0.000045  -0.000045
     2  N   -0.020496  -0.020496   0.001191   0.001191
     3  C    0.394915   0.001817  -0.021724   0.001555
     4  C    0.001817   0.394915   0.001555  -0.021724
     5  C   -0.018641   0.001476   0.394491  -0.019386
     6  C    0.001476  -0.018641  -0.019386   0.394491
     7  H    0.576973  -0.000036  -0.001271  -0.000026
     8  H   -0.000036   0.576973  -0.000026  -0.001271
     9  H   -0.001271  -0.000026   0.590972  -0.001522
    10  H   -0.000026  -0.001271  -0.001522   0.590972
 Mulliken charges:
               1
     1  H    0.219880
     2  N   -0.303640
     3  C    0.018985
     4  C    0.018985
     5  C   -0.100153
     6  C   -0.100153
     7  H    0.067284
     8  H    0.067284
     9  H    0.055764
    10  H    0.055764
 Sum of Mulliken charges =  -0.00000
 Mulliken charges with hydrogens summed into heavy atoms:
               1
     2  N   -0.083760
     3  C    0.086269
     4  C    0.086269
     5  C   -0.044389
     6  C   -0.044389
 Electronic spatial extent (au):  <R**2>=            301.7735
 Charge=             -0.0000 electrons
 Dipole moment (field-independent basis, Debye):
    X=             -0.0000    Y=              0.0000    Z=              1.9116  Tot=              1.9116
 Quadrupole moment (field-independent basis, Debye-Ang):
   XX=            -29.6907   YY=            -25.9145   ZZ=            -23.2951
   XY=             -0.0000   XZ=              0.0000   YZ=              0.0000
 Traceless Quadrupole moment (field-independent basis, Debye-Ang):
   XX=             -3.3906   YY=              0.3856   ZZ=              3.0050
   XY=             -0.0000   XZ=              0.0000   YZ=              0.0000
 Octapole moment (field-independent basis, Debye-Ang**2):
  XXX=              0.0000  YYY=              0.0000  ZZZ=             11.6771  XYY=              0.0000
  XXY=              0.0000  XXZ=              1.4730  XZZ=             -0.0000  YZZ=              0.0000
  YYZ=              2.6989  XYZ=              0.0000
 Hexadecapole moment (field-independent basis, Debye-Ang**3):
 XXXX=            -23.2381 YYYY=           -167.8857 ZZZZ=           -145.4781 XXXY=             -0.0000
 XXXZ=              0.0000 YYYX=             -0.0000 YYYZ=              0.0000 ZZZX=              0.0000
 ZZZY=              0.0000 XXYY=            -36.1555 XXZZ=            -34.6106 YYZZ=            -53.2787
 XXYZ=              0.0000 YYXZ=              0.0000 ZZXY=             -0.0000
 N-N= 1.609055225287D+02 E-N=-8.031727938740D+02  KE= 2.043400579388D+02
 Running external command "gaunbo7 R"
         input file       "/cluster/work/users/beto93/mol133/Gau-1107921.EIn"
         output file      "/cluster/work/users/beto93/mol133/Gau-1107921.EOu"
         message file     "/cluster/work/users/beto93/mol133/Gau-1107921.EMs"
         fchk file        "/cluster/work/users/beto93/mol133/Gau-1107921.EFC"
         mat. el file     "/cluster/work/users/beto93/mol133/Gau-1107921.EUF"

 Writing WrtUnf unformatted file "/cluster/work/users/beto93/mol133/Gau-1107921.EUF"
 Gaussian matrix elements                                         Version   2 NLab=11 Len12L=8 Len4L=8
 Write SHELL TO ATOM MAP                   from file      0 offset           0 length                  15 to matrix element file.
 Write SHELL TYPES                         from file      0 offset           0 length                  15 to matrix element file.
 Write NUMBER OF PRIMITIVES PER SHELL      from file      0 offset           0 length                  15 to matrix element file.
 Write PRIMITIVE EXPONENTS                 from file      0 offset           0 length                  45 to matrix element file.
 Write CONTRACTION COEFFICIENTS            from file      0 offset           0 length                  45 to matrix element file.
 Write P(S=P) CONTRACTION COEFFICIENTS     from file      0 offset           0 length                  45 to matrix element file.
 Write COORDINATES OF EACH SHELL           from file      0 offset           0 length                  45 to matrix element file.
 Write BONDS PER ATOM                      from file      0 offset           0 length                  10 to matrix element file.
 Write BONDED ATOMS                        from file      0 offset           0 length                  20 to matrix element file.
 Write BOND TYPES                          from file      0 offset           0 length                  20 to matrix element file.
 Write ONIOM CHARGE/MULT                   from file      0 offset           0 length                  32 to matrix element file.
 Write ONIOM ATOM LAYERS                   from file      0 offset           0 length                  10 to matrix element file.
 Write ONIOM ATOM MODIFIERS                from file      0 offset           0 length                  10 to matrix element file.
 Write ONIOM ATOM TYPES                    from file      0 offset           0 length                  10 to matrix element file.
 Write ONIOM LINK ATOMS                    from file      0 offset           0 length                  10 to matrix element file.
 Write ONIOM LINK CHARGES                  from file      0 offset           0 length                  10 to matrix element file.
 Write ONIOM LINK DISTANCES                from file      0 offset           0 length                  40 to matrix element file.
 Write SYMINF INTS                         from file      0 offset           0 length                  26 to matrix element file.
 Write ROTTR TO SO                         from file      0 offset           0 length                  12 to matrix element file.
 Write GAUSSIAN SCALARS                    from file    501 offset           0 to matrix element file.
 Write OPTIMIZATION FLAGS                  from file      0 offset           0 length                  10 to matrix element file.
 Write INTEGER ISO                         from file      0 offset           0 length                  10 to matrix element file.
 Write INTEGER SPIN                        from file      0 offset           0 length                  10 to matrix element file.
 Write REAL ZEFFECTIVE                     from file      0 offset           0 length                  10 to matrix element file.
 Write REAL QUADRUPOLEMOMENT               from file      0 offset           0 length                  10 to matrix element file.
 Write REAL GFACTOR                        from file      0 offset           0 length                  10 to matrix element file.
 Write REAL ZNUCLEAR                       from file      0 offset           0 length                  10 to matrix element file.
 Write MULLIKEN CHARGES                    from file      0 offset           0 length                  10 to matrix element file.
 Write NUCLEAR GRADIENT                    from file  10584 offset           0 length                  30 to matrix element file.
 Array NUCLEAR FORCE CONSTANTS              on  file  10585 does not exist.
 Write ELECTRIC DIPOLE MOMENT              from file      0 offset           0 length                   3 to matrix element file.
 Write NON-ADIABATIC COUPLING              from file  10810 offset           0 length                  30 to matrix element file.
 Write FINITE EM FIELD                     from file  10521 offset           0 length                  35 to matrix element file.
 Write OVERLAP                             from file  10514 offset           0 length                 465 to matrix element file.
 Write CORE HAMILTONIAN ALPHA              from file  10515 offset           0 length                 465 to matrix element file.
 Write CORE HAMILTONIAN BETA               from file  10515 offset         465 length                 465 to matrix element file.
 Write KINETIC ENERGY                      from file  10516 offset           0 length                 465 to matrix element file.
 Write ORTHOGONAL BASIS                    from file  10685 offset           0 length                 900 to matrix element file.
 Write DIPOLE INTEGRALS                    from file  10518 offset           0 length                1395 to matrix element file.
 Array DIP VEL INTEGRALS                    on  file  10572 does not exist.
 Array R X DEL INTEGRALS                    on  file  10572 does not exist.
 Write ALPHA ORBITAL ENERGIES              from file      0 offset           0 length                  30 to matrix element file.
 Write ALPHA MO COEFFICIENTS               from file  10524 offset           0 length                 900 to matrix element file.
 Write ALPHA DENSITY MATRIX                from file      0 offset           0 length                 465 to matrix element file.
 Write ALPHA FOCK MATRIX                   from file  10536 offset           0 length                 465 to matrix element file.
 Write ENERGY-WEIGHTED DENSITY             from file  10571 offset           0 length                 465 to matrix element file.
 Write ALPHA SCF DENSITY MATRIX            from file      0 offset           0 length                 465 to matrix element file.
 No 2e integrals to process.
 Perform NBO analysis...executing G16NBO...

 *********************************** NBO 7.0 ***********************************
             N A T U R A L   A T O M I C   O R B I T A L   A N D
          N A T U R A L   B O N D   O R B I T A L   A N A L Y S I S
 **************************** Espen Tangen (S101595) ***************************
  (c) Copyright 1996-2021 Board of Regents of the University of Wisconsin System
      on behalf of the Theoretical Chemistry Institute.  All rights reserved.

          Cite this program [NBO 7.0.10 (8-Feb-2021)] as:

          NBO 7.0.  E. D. Glendening, J. K. Badenhoop, A. E. Reed,
          J. E. Carpenter, J. A. Bohmann, C. M. Morales, P. Karafiloglou,
          C. R. Landis, and F. Weinhold, Theoretical Chemistry Institute,
          University of Wisconsin, Madison, WI (2018)

       /NPA    / : Natural Population Analysis
       /AOPNAO / : Print the AO to PNAO transformation
       /AONAO  / : Print the AO to NAO transformation
       /AOMO   / : Print the MOs in the AO basis
       /BOAO   / : Print the AO bond-order matrix
       /DMAO   / : Print the AO density matrix
       /DMPNAO / : Print the PNAO density matrix
       /DMNAO  / : Print the NAO density matrix
       /DMMO   / : Print the MO density matrix
       /SAO    / : Print the AO overlap matrix
       /SPNAO  / : Print the PNAO overlap matrix
       /DETAIL / : Write details of NBO search
       /ARCHIVE/ : Write the archive file to lfn47
       /AOINFO / : Write AO information to lfn31
       /FILE   / : Set to mol133.gen*

 Filename set to mol133.gen1

 Job title: mol133-NBO


 MOs in the AO basis:

           AO          1       2       3       4       5       6       7       8
      ------------ ------- ------- ------- ------- ------- ------- ------- -------
   1.  H 1 (s)     -0.0064  0.0000 -0.0004 -0.0001  0.0000  0.0987  0.1525  0.0000
   2.  N 2 (s)      0.9932  0.0000  0.0005  0.0000  0.0000 -0.1920 -0.1066  0.0000
   3.  N 2 (s)      0.0329  0.0000 -0.0086  0.0004  0.0000  0.6209  0.3864  0.0000
   4.  N 2 (px)     0.0000  0.0000  0.0000  0.0000  0.0000  0.0000  0.0000  0.0000
   5.  N 2 (py)     0.0000 -0.0045  0.0000  0.0000  0.0002  0.0000  0.0000  0.2588
   6.  N 2 (pz)    -0.0011  0.0000  0.0029  0.0001  0.0000 -0.0645  0.1277  0.0000
   7.  C 3 (s)      0.0005  0.7016  0.7017 -0.0018 -0.0036 -0.0960  0.0424 -0.1537
   8.  C 3 (s)     -0.0061  0.0252  0.0248 -0.0053 -0.0055  0.2162 -0.1120  0.4301
   9.  C 3 (px)     0.0000  0.0000  0.0000  0.0000  0.0000  0.0000  0.0000  0.0000
  10.  C 3 (py)     0.0039 -0.0017 -0.0010  0.0011  0.0008 -0.0866  0.0007 -0.0106
  11.  C 3 (pz)    -0.0027 -0.0004 -0.0002  0.0031  0.0032  0.0259  0.1404 -0.0148
  12.  C 4 (s)      0.0005 -0.7016  0.7017 -0.0018  0.0036 -0.0960  0.0424  0.1537
  13.  C 4 (s)     -0.0061 -0.0252  0.0248 -0.0053  0.0055  0.2162 -0.1120 -0.4301
  14.  C 4 (px)     0.0000  0.0000  0.0000  0.0000  0.0000  0.0000  0.0000  0.0000
  15.  C 4 (py)    -0.0039 -0.0017  0.0010 -0.0011  0.0008  0.0866 -0.0007 -0.0106
  16.  C 4 (pz)    -0.0027  0.0004 -0.0002  0.0031 -0.0032  0.0259  0.1404  0.0148
  17.  C 5 (s)      0.0000  0.0040  0.0024  0.7018  0.7012 -0.0500  0.1467 -0.0792
  18.  C 5 (s)      0.0004 -0.0050 -0.0048  0.0210  0.0308  0.1125 -0.3832  0.2170
  19.  C 5 (px)     0.0000  0.0000  0.0000  0.0000  0.0000  0.0000  0.0000  0.0000
  20.  C 5 (py)     0.0000 -0.0010 -0.0009  0.0025 -0.0038 -0.0172  0.0719  0.0813
  21.  C 5 (pz)     0.0003 -0.0028 -0.0031  0.0015  0.0014  0.0450 -0.0428  0.0821
  22.  C 6 (s)      0.0000 -0.0040  0.0024  0.7018 -0.7012 -0.0500  0.1467  0.0792
  23.  C 6 (s)      0.0004  0.0050 -0.0048  0.0210 -0.0308  0.1125 -0.3832 -0.2170
  24.  C 6 (px)     0.0000  0.0000  0.0000  0.0000  0.0000  0.0000  0.0000  0.0000
  25.  C 6 (py)     0.0000 -0.0010  0.0009 -0.0025 -0.0038  0.0172 -0.0719  0.0813
  26.  C 6 (pz)     0.0003  0.0028 -0.0031  0.0015 -0.0014  0.0450 -0.0428 -0.0821
  27.  H 7 (s)      0.0002 -0.0046 -0.0048  0.0000  0.0002  0.0333 -0.0155  0.1361
  28.  H 8 (s)      0.0002  0.0046 -0.0048  0.0000 -0.0002  0.0333 -0.0155 -0.1361
  29.  H 9 (s)      0.0000  0.0001  0.0000 -0.0046 -0.0048  0.0142 -0.0884  0.0633
  30.  H10 (s)      0.0000 -0.0001  0.0000 -0.0046  0.0048  0.0142 -0.0884 -0.0633

           AO          9      10      11      12      13      14      15      16
      ------------ ------- ------- ------- ------- ------- ------- ------- -------
   1.  H 1 (s)      0.3097  0.0000  0.1186  0.3023  0.0000  0.0000  0.0000  0.0722
   2.  N 2 (s)     -0.0408  0.0000  0.0353  0.0346  0.0000  0.0000  0.0000 -0.0150
   3.  N 2 (s)      0.1607  0.0000 -0.1388 -0.1585  0.0000  0.0000  0.0000  0.0692
   4.  N 2 (px)     0.0000  0.0000  0.0000  0.0000  0.0000  0.6250  0.0000  0.0000
   5.  N 2 (py)     0.0000 -0.3254  0.0000  0.0000  0.4445  0.0000 -0.1933  0.0000
   6.  N 2 (pz)     0.3938  0.0000  0.2422  0.3903  0.0000  0.0000  0.0000  0.0334
   7.  C 3 (s)      0.0846  0.0352 -0.0686 -0.0065  0.0029  0.0000 -0.0430 -0.0061
   8.  C 3 (s)     -0.2540 -0.1084  0.2267  0.0121 -0.0091  0.0000  0.1475  0.0197
   9.  C 3 (px)     0.0000  0.0000  0.0000  0.0000  0.0000  0.3382  0.0000  0.0000
  10.  C 3 (py)     0.0083  0.0043  0.2906  0.0421 -0.3921  0.0000 -0.0652 -0.1112
  11.  C 3 (pz)    -0.0075 -0.2530  0.0347 -0.2303  0.0081  0.0000 -0.3018 -0.2446
  12.  C 4 (s)      0.0846 -0.0352 -0.0686 -0.0065 -0.0029  0.0000  0.0430 -0.0061
  13.  C 4 (s)     -0.2540  0.1084  0.2267  0.0121  0.0091  0.0000 -0.1475  0.0197
  14.  C 4 (px)     0.0000  0.0000  0.0000  0.0000  0.0000  0.3382  0.0000  0.0000
  15.  C 4 (py)    -0.0083  0.0043 -0.2906 -0.0421 -0.3921  0.0000 -0.0652  0.1112
  16.  C 4 (pz)    -0.0075  0.2530  0.0347 -0.2303 -0.0081  0.0000  0.3018 -0.2446
  17.  C 5 (s)     -0.0786 -0.1119 -0.0004 -0.0143 -0.0290  0.0000  0.0051  0.0140
  18.  C 5 (s)      0.2423  0.3339  0.0140  0.0381  0.0940  0.0000 -0.0243 -0.0548
  19.  C 5 (px)     0.0000  0.0000  0.0000  0.0000  0.0000  0.2217  0.0000  0.0000
  20.  C 5 (py)    -0.0758  0.1491  0.1530 -0.1177  0.0069  0.0000 -0.0542  0.4669
  21.  C 5 (pz)    -0.1776 -0.0307 -0.0375  0.3219  0.0194  0.0000  0.3668  0.0926
  22.  C 6 (s)     -0.0786  0.1119 -0.0004 -0.0143  0.0290  0.0000 -0.0051  0.0140
  23.  C 6 (s)      0.2423 -0.3339  0.0140  0.0381 -0.0940  0.0000  0.0243 -0.0548
  24.  C 6 (px)     0.0000  0.0000  0.0000  0.0000  0.0000  0.2217  0.0000  0.0000
  25.  C 6 (py)     0.0758  0.1491 -0.1530  0.1177  0.0069  0.0000 -0.0542 -0.4669
  26.  C 6 (pz)    -0.1776  0.0307 -0.0375  0.3219 -0.0194  0.0000 -0.3668  0.0926
  27.  H 7 (s)     -0.1042 -0.1044  0.2850 -0.0279 -0.3425  0.0000 -0.0813 -0.2023
  28.  H 8 (s)     -0.1042  0.1044  0.2850 -0.0279  0.3425  0.0000  0.0813 -0.2023
  29.  H 9 (s)      0.1535  0.2126  0.0798 -0.2616  0.0411  0.0000 -0.3293  0.1723
  30.  H10 (s)      0.1535 -0.2126  0.0798 -0.2616 -0.0411  0.0000  0.3293  0.1723

           AO         17      18      19      20      21      22      23      24
      ------------ ------- ------- ------- ------- ------- ------- ------- -------
   1.  H 1 (s)      0.0000  0.0000  0.0000  0.0000 -0.9443  0.2819  0.0000 -0.6584
   2.  N 2 (s)      0.0000  0.0000  0.0000  0.0000 -0.1401  0.1252  0.0000  0.0090
   3.  N 2 (s)      0.0000  0.0000  0.0000  0.0000  0.9561 -0.8323  0.0000 -0.0453
   4.  N 2 (px)     0.6027  0.0000 -0.5665  0.0000  0.0000  0.0000  0.0000  0.0000
   5.  N 2 (py)     0.0000  0.0000  0.0000  0.0000  0.0000  0.0000  0.4376  0.0000
   6.  N 2 (pz)     0.0000  0.0000  0.0000  0.0000  0.4077  0.1399  0.0000  0.7153
   7.  C 3 (s)      0.0000  0.0000  0.0000  0.0000  0.0013 -0.1464 -0.0301 -0.0024
   8.  C 3 (s)      0.0000  0.0000  0.0000  0.0000  0.0304  0.8963  0.2142 -0.0052
   9.  C 3 (px)    -0.0688  0.5846  0.6534 -0.4492  0.0000  0.0000  0.0000  0.0000
  10.  C 3 (py)     0.0000  0.0000  0.0000  0.0000  0.3683  0.0794  0.6447 -0.1141
  11.  C 3 (pz)     0.0000  0.0000  0.0000  0.0000 -0.0906  0.3563 -0.0815  0.4289
  12.  C 4 (s)      0.0000  0.0000  0.0000  0.0000  0.0013 -0.1464  0.0301 -0.0024
  13.  C 4 (s)      0.0000  0.0000  0.0000  0.0000  0.0304  0.8963 -0.2142 -0.0052
  14.  C 4 (px)    -0.0688 -0.5846  0.6534  0.4492  0.0000  0.0000  0.0000  0.0000
  15.  C 4 (py)     0.0000  0.0000  0.0000  0.0000 -0.3683 -0.0794  0.6447  0.1141
  16.  C 4 (pz)     0.0000  0.0000  0.0000  0.0000 -0.0906  0.3563  0.0815  0.4289
  17.  C 5 (s)      0.0000  0.0000  0.0000  0.0000 -0.0465  0.0055  0.0819  0.0144
  18.  C 5 (s)      0.0000  0.0000  0.0000  0.0000  0.2882 -0.0101 -0.4915 -0.1025
  19.  C 5 (px)    -0.5222  0.3487 -0.3406  0.7332  0.0000  0.0000  0.0000  0.0000
  20.  C 5 (py)     0.0000  0.0000  0.0000  0.0000  0.1184  0.0112  0.4626 -0.1176
  21.  C 5 (pz)     0.0000  0.0000  0.0000  0.0000 -0.1717 -0.1886 -0.0227  0.5528
  22.  C 6 (s)      0.0000  0.0000  0.0000  0.0000 -0.0465  0.0055 -0.0819  0.0144
  23.  C 6 (s)      0.0000  0.0000  0.0000  0.0000  0.2882 -0.0101  0.4915 -0.1025
  24.  C 6 (px)    -0.5222 -0.3487 -0.3406 -0.7332  0.0000  0.0000  0.0000  0.0000
  25.  C 6 (py)     0.0000  0.0000  0.0000  0.0000 -0.1184 -0.0112  0.4626  0.1176
  26.  C 6 (pz)     0.0000  0.0000  0.0000  0.0000 -0.1717 -0.1886  0.0227  0.5528
  27.  H 7 (s)      0.0000  0.0000  0.0000  0.0000 -0.2912 -0.7224 -0.6327 -0.0612
  28.  H 8 (s)      0.0000  0.0000  0.0000  0.0000 -0.2912 -0.7224  0.6327 -0.0612
  29.  H 9 (s)      0.0000  0.0000  0.0000  0.0000 -0.4113 -0.1342 -0.0216  0.5495
  30.  H10 (s)      0.0000  0.0000  0.0000  0.0000 -0.4113 -0.1342  0.0216  0.5495

           AO         25      26      27      28      29      30
      ------------ ------- ------- ------- ------- ------- -------
   1.  H 1 (s)      0.0000  0.0000  0.0787  0.0000 -0.3932  0.0000
   2.  N 2 (s)      0.0000  0.0000  0.0515  0.0000  0.0592  0.0000
   3.  N 2 (s)      0.0000  0.0000 -0.3787  0.0000 -0.4476  0.0000
   4.  N 2 (px)     0.0000  0.0000  0.0000  0.0000  0.0000  0.0000
   5.  N 2 (py)     0.5895 -0.5474  0.0000 -0.5809  0.0000  0.1678
   6.  N 2 (pz)     0.0000  0.0000  0.0516  0.0000  0.7980  0.0000
   7.  C 3 (s)      0.1227 -0.0912  0.0633  0.0123 -0.0681  0.0553
   8.  C 3 (s)     -0.7580  0.6087 -0.4296 -0.1132  0.4790 -0.4207
   9.  C 3 (px)     0.0000  0.0000  0.0000  0.0000  0.0000  0.0000
  10.  C 3 (py)     0.1680  0.1415 -0.2781 -0.2366 -0.7726  0.5049
  11.  C 3 (pz)     0.0026  0.3638  0.5652  0.6780 -0.3217  0.4339
  12.  C 4 (s)     -0.1227  0.0912  0.0633 -0.0123 -0.0681 -0.0553
  13.  C 4 (s)      0.7580 -0.6087 -0.4296  0.1132  0.4790  0.4207
  14.  C 4 (px)     0.0000  0.0000  0.0000  0.0000  0.0000  0.0000
  15.  C 4 (py)     0.1680  0.1415  0.2781 -0.2366  0.7726  0.5049
  16.  C 4 (pz)    -0.0026 -0.3638  0.5652 -0.6780 -0.3217 -0.4339
  17.  C 5 (s)     -0.1296 -0.0996 -0.1164  0.0064  0.0394 -0.0869
  18.  C 5 (s)      0.8074  0.6561  0.7833 -0.0340 -0.2942  0.6562
  19.  C 5 (px)     0.0000  0.0000  0.0000  0.0000  0.0000  0.0000
  20.  C 5 (py)     0.2661 -0.2328  0.4970  0.7711  0.0063 -0.5592
  21.  C 5 (pz)    -0.0816 -0.4125  0.1180  0.4301 -0.5102  0.7884
  22.  C 6 (s)      0.1296  0.0996 -0.1164 -0.0064  0.0394  0.0869
  23.  C 6 (s)     -0.8074 -0.6561  0.7833  0.0340 -0.2942 -0.6562
  24.  C 6 (px)     0.0000  0.0000  0.0000  0.0000  0.0000  0.0000
  25.  C 6 (py)     0.2661 -0.2328 -0.4970  0.7711 -0.0063 -0.5592
  26.  C 6 (pz)     0.0816  0.4125  0.1180 -0.4301 -0.5102 -0.7884
  27.  H 7 (s)      0.2571 -0.5141  0.2208 -0.0037  0.3951 -0.2677
  28.  H 8 (s)     -0.2571  0.5141  0.2208  0.0037  0.3951  0.2677
  29.  H 9 (s)     -0.6435 -0.4746 -0.5230 -0.0700 -0.1794  0.4080
  30.  H10 (s)      0.6435  0.4746 -0.5230  0.0700 -0.1794 -0.4080


 AO overlap matrix:

           AO          1       2       3       4       5       6       7       8
      ------------ ------- ------- ------- ------- ------- ------- ------- -------
   1.  H 1 (s)      1.0000  0.0586  0.4958  0.0000  0.0000  0.4402  0.0060  0.1040
   2.  N 2 (s)      0.0586  1.0000  0.2350  0.0000  0.0000  0.0000  0.0000  0.0313
   3.  N 2 (s)      0.4958  0.2350  1.0000  0.0000  0.0000  0.0000  0.0312  0.3338
   4.  N 2 (px)     0.0000  0.0000  0.0000  1.0000  0.0000  0.0000  0.0000  0.0000
   5.  N 2 (py)     0.0000  0.0000  0.0000  0.0000  1.0000  0.0000  0.0429  0.2765
   6.  N 2 (pz)     0.4402  0.0000  0.0000  0.0000  0.0000  1.0000 -0.0300 -0.1930
   7.  C 3 (s)      0.0060  0.0000  0.0312  0.0000  0.0429 -0.0300  1.0000  0.2484
   8.  C 3 (s)      0.1040  0.0313  0.3338  0.0000  0.2765 -0.1930  0.2484  1.0000
   9.  C 3 (px)     0.0000  0.0000  0.0000  0.1893  0.0000  0.0000  0.0000  0.0000
  10.  C 3 (py)    -0.0706 -0.0426 -0.3199  0.0000 -0.1537  0.2394  0.0000  0.0000
  11.  C 3 (pz)     0.1128  0.0297  0.2234  0.0000  0.2394  0.0221  0.0000  0.0000
  12.  C 4 (s)      0.0060  0.0000  0.0312  0.0000 -0.0429 -0.0300  0.0000  0.0033
  13.  C 4 (s)      0.1040  0.0313  0.3338  0.0000 -0.2765 -0.1930  0.0033  0.0865
  14.  C 4 (px)     0.0000  0.0000  0.0000  0.1893  0.0000  0.0000  0.0000  0.0000
  15.  C 4 (py)     0.0706  0.0426  0.3199  0.0000 -0.1537 -0.2394  0.0072  0.1219
  16.  C 4 (pz)     0.1128  0.0297  0.2234  0.0000 -0.2394  0.0221  0.0000  0.0000
  17.  C 5 (s)      0.0002  0.0000  0.0016  0.0000  0.0012 -0.0036  0.0000  0.0392
  18.  C 5 (s)      0.0110  0.0028  0.0691  0.0000  0.0300 -0.0891  0.0392  0.3740
  19.  C 5 (px)     0.0000  0.0000  0.0000  0.0291  0.0000  0.0000  0.0000  0.0000
  20.  C 5 (py)    -0.0039 -0.0019 -0.0336  0.0000  0.0129  0.0481  0.0196  0.1188
  21.  C 5 (pz)     0.0171  0.0057  0.0997  0.0000  0.0481 -0.1137  0.0620  0.3762
  22.  C 6 (s)      0.0002  0.0000  0.0016  0.0000 -0.0012 -0.0036  0.0000  0.0032
  23.  C 6 (s)      0.0110  0.0028  0.0691  0.0000 -0.0300 -0.0891  0.0032  0.0851
  24.  C 6 (px)     0.0000  0.0000  0.0000  0.0291  0.0000  0.0000  0.0000  0.0000
  25.  C 6 (py)     0.0039  0.0019  0.0336  0.0000  0.0129 -0.0481  0.0057  0.0976
  26.  C 6 (pz)     0.0171  0.0057  0.0997  0.0000 -0.0481 -0.1137  0.0041  0.0701
  27.  H 7 (s)      0.0484  0.0044  0.0769  0.0000  0.0932 -0.0154  0.0637  0.4962
  28.  H 8 (s)      0.0484  0.0044  0.0769  0.0000 -0.0932 -0.0154  0.0002  0.0092
  29.  H 9 (s)      0.0010  0.0001  0.0059  0.0000  0.0038 -0.0083  0.0049  0.0905
  30.  H10 (s)      0.0010  0.0001  0.0059  0.0000 -0.0038 -0.0083  0.0001  0.0084

           AO          9      10      11      12      13      14      15      16
      ------------ ------- ------- ------- ------- ------- ------- ------- -------
   1.  H 1 (s)      0.0000 -0.0706  0.1128  0.0060  0.1040  0.0000  0.0706  0.1128
   2.  N 2 (s)      0.0000 -0.0426  0.0297  0.0000  0.0313  0.0000  0.0426  0.0297
   3.  N 2 (s)      0.0000 -0.3199  0.2234  0.0312  0.3338  0.0000  0.3199  0.2234
   4.  N 2 (px)     0.1893  0.0000  0.0000  0.0000  0.0000  0.1893  0.0000  0.0000
   5.  N 2 (py)     0.0000 -0.1537  0.2394 -0.0429 -0.2765  0.0000 -0.1537 -0.2394
   6.  N 2 (pz)     0.0000  0.2394  0.0221 -0.0300 -0.1930  0.0000 -0.2394  0.0221
   7.  C 3 (s)      0.0000  0.0000  0.0000  0.0000  0.0033  0.0000  0.0072  0.0000
   8.  C 3 (s)      0.0000  0.0000  0.0000  0.0033  0.0865  0.0000  0.1219  0.0000
   9.  C 3 (px)     1.0000  0.0000  0.0000  0.0000  0.0000  0.0378  0.0000  0.0000
  10.  C 3 (py)     0.0000  1.0000  0.0000 -0.0072 -0.1219  0.0000 -0.1546  0.0000
  11.  C 3 (pz)     0.0000  0.0000  1.0000  0.0000  0.0000  0.0000  0.0000  0.0378
  12.  C 4 (s)      0.0000 -0.0072  0.0000  1.0000  0.2484  0.0000  0.0000  0.0000
  13.  C 4 (s)      0.0000 -0.1219  0.0000  0.2484  1.0000  0.0000  0.0000  0.0000
  14.  C 4 (px)     0.0378  0.0000  0.0000  0.0000  0.0000  1.0000  0.0000  0.0000
  15.  C 4 (py)     0.0000 -0.1546  0.0000  0.0000  0.0000  0.0000  1.0000  0.0000
  16.  C 4 (pz)     0.0000  0.0000  0.0378  0.0000  0.0000  0.0000  0.0000  1.0000
  17.  C 5 (s)      0.0000 -0.0196 -0.0620  0.0000  0.0032  0.0000  0.0057 -0.0041
  18.  C 5 (s)      0.0000 -0.1188 -0.3762  0.0032  0.0851  0.0000  0.0976 -0.0701
  19.  C 5 (px)     0.2203  0.0000  0.0000  0.0000  0.0000  0.0371  0.0000  0.0000
  20.  C 5 (py)     0.0000  0.1705 -0.1576 -0.0057 -0.0976  0.0000 -0.0882  0.0900
  21.  C 5 (pz)     0.0000 -0.1576 -0.2786  0.0041  0.0701  0.0000  0.0900 -0.0276
  22.  C 6 (s)      0.0000 -0.0057 -0.0041  0.0000  0.0392  0.0000  0.0196 -0.0620
  23.  C 6 (s)      0.0000 -0.0976 -0.0701  0.0392  0.3740  0.0000  0.1188 -0.3762
  24.  C 6 (px)     0.0371  0.0000  0.0000  0.0000  0.0000  0.2203  0.0000  0.0000
  25.  C 6 (py)     0.0000 -0.0882 -0.0900 -0.0196 -0.1188  0.0000  0.1705  0.1576
  26.  C 6 (pz)     0.0000 -0.0900 -0.0276  0.0620  0.3762  0.0000  0.1576 -0.2786
  27.  H 7 (s)      0.0000  0.4303  0.1902  0.0002  0.0092  0.0000  0.0148  0.0020
  28.  H 8 (s)      0.0000 -0.0148  0.0020  0.0637  0.4962  0.0000 -0.4303  0.1902
  29.  H 9 (s)      0.0000  0.0125 -0.1172  0.0001  0.0084  0.0000  0.0103 -0.0090
  30.  H10 (s)      0.0000 -0.0103 -0.0090  0.0049  0.0905  0.0000 -0.0125 -0.1172

           AO         17      18      19      20      21      22      23      24
      ------------ ------- ------- ------- ------- ------- ------- ------- -------
   1.  H 1 (s)      0.0002  0.0110  0.0000 -0.0039  0.0171  0.0002  0.0110  0.0000
   2.  N 2 (s)      0.0000  0.0028  0.0000 -0.0019  0.0057  0.0000  0.0028  0.0000
   3.  N 2 (s)      0.0016  0.0691  0.0000 -0.0336  0.0997  0.0016  0.0691  0.0000
   4.  N 2 (px)     0.0000  0.0000  0.0291  0.0000  0.0000  0.0000  0.0000  0.0291
   5.  N 2 (py)     0.0012  0.0300  0.0000  0.0129  0.0481 -0.0012 -0.0300  0.0000
   6.  N 2 (pz)    -0.0036 -0.0891  0.0000  0.0481 -0.1137 -0.0036 -0.0891  0.0000
   7.  C 3 (s)      0.0000  0.0392  0.0000  0.0196  0.0620  0.0000  0.0032  0.0000
   8.  C 3 (s)      0.0392  0.3740  0.0000  0.1188  0.3762  0.0032  0.0851  0.0000
   9.  C 3 (px)     0.0000  0.0000  0.2203  0.0000  0.0000  0.0000  0.0000  0.0371
  10.  C 3 (py)    -0.0196 -0.1188  0.0000  0.1705 -0.1576 -0.0057 -0.0976  0.0000
  11.  C 3 (pz)    -0.0620 -0.3762  0.0000 -0.1576 -0.2786 -0.0041 -0.0701  0.0000
  12.  C 4 (s)      0.0000  0.0032  0.0000 -0.0057  0.0041  0.0000  0.0392  0.0000
  13.  C 4 (s)      0.0032  0.0851  0.0000 -0.0976  0.0701  0.0392  0.3740  0.0000
  14.  C 4 (px)     0.0000  0.0000  0.0371  0.0000  0.0000  0.0000  0.0000  0.2203
  15.  C 4 (py)     0.0057  0.0976  0.0000 -0.0882  0.0900  0.0196  0.1188  0.0000
  16.  C 4 (pz)    -0.0041 -0.0701  0.0000  0.0900 -0.0276 -0.0620 -0.3762  0.0000
  17.  C 5 (s)      1.0000  0.2484  0.0000  0.0000  0.0000  0.0000  0.0360  0.0000
  18.  C 5 (s)      0.2484  1.0000  0.0000  0.0000  0.0000  0.0360  0.3563  0.0000
  19.  C 5 (px)     0.0000  0.0000  1.0000  0.0000  0.0000  0.0000  0.0000  0.2066
  20.  C 5 (py)     0.0000  0.0000  0.0000  1.0000  0.0000 -0.0598 -0.3818  0.0000
  21.  C 5 (pz)     0.0000  0.0000  0.0000  0.0000  1.0000  0.0000  0.0000  0.0000
  22.  C 6 (s)      0.0000  0.0360  0.0000 -0.0598  0.0000  1.0000  0.2484  0.0000
  23.  C 6 (s)      0.0360  0.3563  0.0000 -0.3818  0.0000  0.2484  1.0000  0.0000
  24.  C 6 (px)     0.0000  0.0000  0.2066  0.0000  0.0000  0.0000  0.0000  1.0000
  25.  C 6 (py)     0.0598  0.3818  0.0000 -0.3272  0.0000  0.0000  0.0000  0.0000
  26.  C 6 (pz)     0.0000  0.0000  0.0000  0.0000  0.2066  0.0000  0.0000  0.0000
  27.  H 7 (s)      0.0043  0.0821  0.0000  0.0677  0.0845  0.0001  0.0081  0.0000
  28.  H 8 (s)      0.0001  0.0081  0.0000 -0.0112  0.0070  0.0043  0.0821  0.0000
  29.  H 9 (s)      0.0635  0.4956  0.0000  0.2821 -0.3762  0.0044  0.0833  0.0000
  30.  H10 (s)      0.0044  0.0833  0.0000 -0.1011 -0.0424  0.0635  0.4956  0.0000

           AO         25      26      27      28      29      30
      ------------ ------- ------- ------- ------- ------- -------
   1.  H 1 (s)      0.0039  0.0171  0.0484  0.0484  0.0010  0.0010
   2.  N 2 (s)      0.0019  0.0057  0.0044  0.0044  0.0001  0.0001
   3.  N 2 (s)      0.0336  0.0997  0.0769  0.0769  0.0059  0.0059
   4.  N 2 (px)     0.0000  0.0000  0.0000  0.0000  0.0000  0.0000
   5.  N 2 (py)     0.0129 -0.0481  0.0932 -0.0932  0.0038 -0.0038
   6.  N 2 (pz)    -0.0481 -0.1137 -0.0154 -0.0154 -0.0083 -0.0083
   7.  C 3 (s)      0.0057  0.0041  0.0637  0.0002  0.0049  0.0001
   8.  C 3 (s)      0.0976  0.0701  0.4962  0.0092  0.0905  0.0084
   9.  C 3 (px)     0.0000  0.0000  0.0000  0.0000  0.0000  0.0000
  10.  C 3 (py)    -0.0882 -0.0900  0.4303 -0.0148  0.0125 -0.0103
  11.  C 3 (pz)    -0.0900 -0.0276  0.1902  0.0020 -0.1172 -0.0090
  12.  C 4 (s)     -0.0196  0.0620  0.0002  0.0637  0.0001  0.0049
  13.  C 4 (s)     -0.1188  0.3762  0.0092  0.4962  0.0084  0.0905
  14.  C 4 (px)     0.0000  0.0000  0.0000  0.0000  0.0000  0.0000
  15.  C 4 (py)     0.1705  0.1576  0.0148 -0.4303  0.0103 -0.0125
  16.  C 4 (pz)     0.1576 -0.2786  0.0020  0.1902 -0.0090 -0.1172
  17.  C 5 (s)      0.0598  0.0000  0.0043  0.0001  0.0635  0.0044
  18.  C 5 (s)      0.3818  0.0000  0.0821  0.0081  0.4956  0.0833
  19.  C 5 (px)     0.0000  0.0000  0.0000  0.0000  0.0000  0.0000
  20.  C 5 (py)    -0.3272  0.0000  0.0677 -0.0112  0.2821 -0.1011
  21.  C 5 (pz)     0.0000  0.2066  0.0845  0.0070 -0.3762 -0.0424
  22.  C 6 (s)      0.0000  0.0000  0.0001  0.0043  0.0044  0.0635
  23.  C 6 (s)      0.0000  0.0000  0.0081  0.0821  0.0833  0.4956
  24.  C 6 (px)     0.0000  0.0000  0.0000  0.0000  0.0000  0.0000
  25.  C 6 (py)     1.0000  0.0000  0.0112 -0.0677  0.1011 -0.2821
  26.  C 6 (pz)     0.0000  1.0000  0.0070  0.0845 -0.0424 -0.3762
  27.  H 7 (s)      0.0112  0.0070  1.0000  0.0010  0.0320  0.0007
  28.  H 8 (s)     -0.0677  0.0845  0.0010  1.0000  0.0007  0.0320
  29.  H 9 (s)      0.1011 -0.0424  0.0320  0.0007  1.0000  0.0327
  30.  H10 (s)     -0.2821 -0.3762  0.0007  0.0320  0.0327  1.0000


 AO bond-order matrix:

           AO          1       2       3       4       5       6       7       8
      ------------ ------- ------- ------- ------- ------- ------- ------- -------
   1.  H 1 (s)      0.4793 -0.0813  0.2208  0.0000  0.0000  0.5684  0.0248 -0.0848
   2.  N 2 (s)     -0.0813  2.0782 -0.2914  0.0000  0.0000  0.0064  0.0175 -0.0342
   3.  N 2 (s)      0.2208 -0.2914  1.2220  0.0000  0.0000 -0.0413 -0.0511  0.0354
   4.  N 2 (px)     0.0000  0.0000  0.0000  1.5077  0.0000  0.0000  0.0000  0.0000
   5.  N 2 (py)     0.0000  0.0000  0.0000  0.0000  0.8156  0.0000 -0.0897  0.2278
   6.  N 2 (pz)     0.5684  0.0064 -0.0413  0.0000  0.0000  0.7754  0.0552 -0.1358
   7.  C 3 (s)      0.0248  0.0175 -0.0511  0.0000 -0.0897  0.0552  2.0686 -0.2079
   8.  C 3 (s)     -0.0848 -0.0342  0.0354  0.0000  0.2278 -0.1358 -0.2079  0.7913
   9.  C 3 (px)     0.0000  0.0000  0.0000  0.3399  0.0000  0.0000  0.0000  0.0000
  10.  C 3 (py)     0.0666  0.0670 -0.2134  0.0000 -0.3316  0.1841 -0.0178  0.0642
  11.  C 3 (pz)    -0.1230 -0.0507  0.1676  0.0000  0.2809 -0.1527  0.0188 -0.0631
  12.  C 4 (s)      0.0248  0.0175 -0.0511  0.0000  0.0897  0.0552 -0.0072  0.0266
  13.  C 4 (s)     -0.0848 -0.0342  0.0354  0.0000 -0.2278 -0.1358  0.0266 -0.0857
  14.  C 4 (px)     0.0000  0.0000  0.0000  0.3399  0.0000  0.0000  0.0000  0.0000
  15.  C 4 (py)    -0.0666 -0.0670  0.2134  0.0000 -0.3316 -0.1841  0.0269 -0.1087
  16.  C 4 (pz)    -0.1230 -0.0507  0.1676  0.0000 -0.2809 -0.1527 -0.0057  0.0312
  17.  C 5 (s)     -0.0207 -0.0071  0.0332  0.0000  0.0043 -0.0282  0.0261 -0.0712
  18.  C 5 (s)      0.0738  0.0248 -0.1020  0.0000 -0.0120  0.1112 -0.0695  0.1209
  19.  C 5 (px)     0.0000  0.0000  0.0000 -0.3523  0.0000  0.0000  0.0000  0.0000
  20.  C 5 (py)     0.0041 -0.0140  0.0693  0.0000 -0.0278 -0.0257 -0.0410  0.1213
  21.  C 5 (pz)     0.0849  0.0237 -0.1131  0.0000 -0.0621  0.0827 -0.1097  0.2986
  22.  C 6 (s)     -0.0207 -0.0071  0.0332  0.0000 -0.0043 -0.0282 -0.0068  0.0275
  23.  C 6 (s)      0.0738  0.0248 -0.1020  0.0000  0.0120  0.1112  0.0260 -0.0887
  24.  C 6 (px)     0.0000  0.0000  0.0000 -0.3523  0.0000  0.0000  0.0000  0.0000
  25.  C 6 (py)    -0.0041  0.0140 -0.0693  0.0000 -0.0278  0.0257  0.0186 -0.0783
  26.  C 6 (pz)     0.0849  0.0237 -0.1131  0.0000  0.0621  0.0827  0.0159 -0.0715
  27.  H 7 (s)     -0.0412  0.0238 -0.1023  0.0000 -0.1346  0.0124 -0.1188  0.3128
  28.  H 8 (s)     -0.0412  0.0238 -0.1023  0.0000  0.1346  0.0124 -0.0177  0.0694
  29.  H 9 (s)     -0.0434 -0.0169  0.0833  0.0000  0.0583 -0.0575  0.0304 -0.1048
  30.  H10 (s)     -0.0434 -0.0169  0.0833  0.0000 -0.0583 -0.0575 -0.0183  0.0741

           AO          9      10      11      12      13      14      15      16
      ------------ ------- ------- ------- ------- ------- ------- ------- -------
   1.  H 1 (s)      0.0000  0.0666 -0.1230  0.0248 -0.0848  0.0000 -0.0666 -0.1230
   2.  N 2 (s)      0.0000  0.0670 -0.0507  0.0175 -0.0342  0.0000 -0.0670 -0.0507
   3.  N 2 (s)      0.0000 -0.2134  0.1676 -0.0511  0.0354  0.0000  0.2134  0.1676
   4.  N 2 (px)     0.3399  0.0000  0.0000  0.0000  0.0000  0.3399  0.0000  0.0000
   5.  N 2 (py)     0.0000 -0.3316  0.2809  0.0897 -0.2278  0.0000 -0.3316 -0.2809
   6.  N 2 (pz)     0.0000  0.1841 -0.1527  0.0552 -0.1358  0.0000 -0.1841 -0.1527
   7.  C 3 (s)      0.0000 -0.0178  0.0188 -0.0072  0.0266  0.0000  0.0269 -0.0057
   8.  C 3 (s)      0.0000  0.0642 -0.0631  0.0266 -0.0857  0.0000 -0.1087  0.0312
   9.  C 3 (px)     0.9217  0.0000  0.0000  0.0000  0.0000 -0.4453  0.0000  0.0000
  10.  C 3 (py)     0.0000  0.5285  0.0819 -0.0269  0.1087  0.0000  0.1039  0.0196
  11.  C 3 (pz)     0.0000  0.0819  0.5799 -0.0057  0.0312  0.0000 -0.0196 -0.0417
  12.  C 4 (s)      0.0000 -0.0269 -0.0057  2.0686 -0.2079  0.0000  0.0178  0.0188
  13.  C 4 (s)      0.0000  0.1087  0.0312 -0.2079  0.7913  0.0000 -0.0642 -0.0631
  14.  C 4 (px)    -0.4453  0.0000  0.0000  0.0000  0.0000  0.9217  0.0000  0.0000
  15.  C 4 (py)     0.0000  0.1039 -0.0196  0.0178 -0.0642  0.0000  0.5285 -0.0819
  16.  C 4 (pz)     0.0000  0.0196 -0.0417  0.0188 -0.0631  0.0000 -0.0819  0.5799
  17.  C 5 (s)      0.0000  0.0285  0.1037 -0.0068  0.0275  0.0000  0.0193 -0.0160
  18.  C 5 (s)      0.0000 -0.0646 -0.2541  0.0260 -0.0887  0.0000 -0.0798  0.0640
  19.  C 5 (px)     0.6295  0.0000  0.0000  0.0000  0.0000 -0.1859  0.0000  0.0000
  20.  C 5 (py)     0.0000 -0.0218 -0.1882 -0.0186  0.0783  0.0000  0.0242 -0.0981
  21.  C 5 (pz)     0.0000 -0.0911 -0.4113  0.0159 -0.0715  0.0000 -0.0390  0.0047
  22.  C 6 (s)      0.0000 -0.0193 -0.0160  0.0261 -0.0712  0.0000 -0.0285  0.1037
  23.  C 6 (s)      0.0000  0.0798  0.0640 -0.0695  0.1209  0.0000  0.0646 -0.2541
  24.  C 6 (px)    -0.1859  0.0000  0.0000  0.0000  0.0000  0.6295  0.0000  0.0000
  25.  C 6 (py)     0.0000  0.0242  0.0981  0.0410 -0.1213  0.0000 -0.0218  0.1882
  26.  C 6 (pz)     0.0000  0.0390  0.0047 -0.1097  0.2986  0.0000  0.0911 -0.4113
  27.  H 7 (s)      0.0000  0.4761  0.2229 -0.0177  0.0694  0.0000  0.0746  0.0383
  28.  H 8 (s)      0.0000 -0.0746  0.0383 -0.1188  0.3128  0.0000 -0.4761  0.2229
  29.  H 9 (s)      0.0000 -0.0028  0.1053 -0.0183  0.0741  0.0000  0.0252 -0.0747
  30.  H10 (s)      0.0000 -0.0252 -0.0747  0.0304 -0.1048  0.0000  0.0028  0.1053

           AO         17      18      19      20      21      22      23      24
      ------------ ------- ------- ------- ------- ------- ------- ------- -------
   1.  H 1 (s)     -0.0207  0.0738  0.0000  0.0041  0.0849 -0.0207  0.0738  0.0000
   2.  N 2 (s)     -0.0071  0.0248  0.0000 -0.0140  0.0237 -0.0071  0.0248  0.0000
   3.  N 2 (s)      0.0332 -0.1020  0.0000  0.0693 -0.1131  0.0332 -0.1020  0.0000
   4.  N 2 (px)     0.0000  0.0000 -0.3523  0.0000  0.0000  0.0000  0.0000 -0.3523
   5.  N 2 (py)     0.0043 -0.0120  0.0000 -0.0278 -0.0621 -0.0043  0.0120  0.0000
   6.  N 2 (pz)    -0.0282  0.1112  0.0000 -0.0257  0.0827 -0.0282  0.1112  0.0000
   7.  C 3 (s)      0.0261 -0.0695  0.0000 -0.0410 -0.1097 -0.0068  0.0260  0.0000
   8.  C 3 (s)     -0.0712  0.1209  0.0000  0.1213  0.2986  0.0275 -0.0887  0.0000
   9.  C 3 (px)     0.0000  0.0000  0.6295  0.0000  0.0000  0.0000  0.0000 -0.1859
  10.  C 3 (py)     0.0285 -0.0646  0.0000 -0.0218 -0.0911 -0.0193  0.0798  0.0000
  11.  C 3 (pz)     0.1037 -0.2541  0.0000 -0.1882 -0.4113 -0.0160  0.0640  0.0000
  12.  C 4 (s)     -0.0068  0.0260  0.0000 -0.0186  0.0159  0.0261 -0.0695  0.0000
  13.  C 4 (s)      0.0275 -0.0887  0.0000  0.0783 -0.0715 -0.0712  0.1209  0.0000
  14.  C 4 (px)     0.0000  0.0000 -0.1859  0.0000  0.0000  0.0000  0.0000  0.6295
  15.  C 4 (py)     0.0193 -0.0798  0.0000  0.0242 -0.0390 -0.0285  0.0646  0.0000
  16.  C 4 (pz)    -0.0160  0.0640  0.0000 -0.0981  0.0047  0.1037 -0.2541  0.0000
  17.  C 5 (s)      2.0692 -0.2067  0.0000  0.0020  0.0046  0.0235 -0.0633  0.0000
  18.  C 5 (s)     -0.2067  0.7846  0.0000 -0.0129 -0.0286 -0.0633  0.1086  0.0000
  19.  C 5 (px)     0.0000  0.0000  0.8868  0.0000  0.0000  0.0000  0.0000  0.4004
  20.  C 5 (py)     0.0020 -0.0129  0.0000  0.5966 -0.0168  0.1072 -0.2900  0.0000
  21.  C 5 (pz)     0.0046 -0.0286  0.0000 -0.0168  0.5833  0.0079 -0.0308  0.0000
  22.  C 6 (s)      0.0235 -0.0633  0.0000  0.1072  0.0079  2.0692 -0.2067  0.0000
  23.  C 6 (s)     -0.0633  0.1086  0.0000 -0.2900 -0.0308 -0.2067  0.7846  0.0000
  24.  C 6 (px)     0.0000  0.0000  0.4004  0.0000  0.0000  0.0000  0.0000  0.8868
  25.  C 6 (py)    -0.1072  0.2900  0.0000 -0.4692 -0.0538 -0.0020  0.0129  0.0000
  26.  C 6 (pz)     0.0079 -0.0308  0.0000  0.0538  0.0129  0.0046 -0.0286  0.0000
  27.  H 7 (s)      0.0245 -0.0742  0.0000 -0.0876 -0.0796 -0.0177  0.0680  0.0000
  28.  H 8 (s)     -0.0177  0.0680  0.0000 -0.0778  0.0086  0.0245 -0.0742  0.0000
  29.  H 9 (s)     -0.1157  0.3014  0.0000  0.3204 -0.4309  0.0243 -0.0843  0.0000
  30.  H10 (s)      0.0243 -0.0843  0.0000  0.1005  0.0545 -0.1157  0.3014  0.0000

           AO         25      26      27      28      29      30
      ------------ ------- ------- ------- ------- ------- -------
   1.  H 1 (s)     -0.0041  0.0849 -0.0412 -0.0412 -0.0434 -0.0434
   2.  N 2 (s)      0.0140  0.0237  0.0238  0.0238 -0.0169 -0.0169
   3.  N 2 (s)     -0.0693 -0.1131 -0.1023 -0.1023  0.0833  0.0833
   4.  N 2 (px)     0.0000  0.0000  0.0000  0.0000  0.0000  0.0000
   5.  N 2 (py)    -0.0278  0.0621 -0.1346  0.1346  0.0583 -0.0583
   6.  N 2 (pz)     0.0257  0.0827  0.0124  0.0124 -0.0575 -0.0575
   7.  C 3 (s)      0.0186  0.0159 -0.1188 -0.0177  0.0304 -0.0183
   8.  C 3 (s)     -0.0783 -0.0715  0.3128  0.0694 -0.1048  0.0741
   9.  C 3 (px)     0.0000  0.0000  0.0000  0.0000  0.0000  0.0000
  10.  C 3 (py)     0.0242  0.0390  0.4761 -0.0746 -0.0028 -0.0252
  11.  C 3 (pz)     0.0981  0.0047  0.2229  0.0383  0.1053 -0.0747
  12.  C 4 (s)      0.0410 -0.1097 -0.0177 -0.1188 -0.0183  0.0304
  13.  C 4 (s)     -0.1213  0.2986  0.0694  0.3128  0.0741 -0.1048
  14.  C 4 (px)     0.0000  0.0000  0.0000  0.0000  0.0000  0.0000
  15.  C 4 (py)    -0.0218  0.0911  0.0746 -0.4761  0.0252  0.0028
  16.  C 4 (pz)     0.1882 -0.4113  0.0383  0.2229 -0.0747  0.1053
  17.  C 5 (s)     -0.1072  0.0079  0.0245 -0.0177 -0.1157  0.0243
  18.  C 5 (s)      0.2900 -0.0308 -0.0742  0.0680  0.3014 -0.0843
  19.  C 5 (px)     0.0000  0.0000  0.0000  0.0000  0.0000  0.0000
  20.  C 5 (py)    -0.4692  0.0538 -0.0876 -0.0778  0.3204  0.1005
  21.  C 5 (pz)    -0.0538  0.0129 -0.0796  0.0086 -0.4309  0.0545
  22.  C 6 (s)     -0.0020  0.0046 -0.0177  0.0245  0.0243 -0.1157
  23.  C 6 (s)      0.0129 -0.0286  0.0680 -0.0742 -0.0843  0.3014
  24.  C 6 (px)     0.0000  0.0000  0.0000  0.0000  0.0000  0.0000
  25.  C 6 (py)     0.5966  0.0168  0.0778  0.0876 -0.1005 -0.3204
  26.  C 6 (pz)     0.0168  0.5833  0.0086 -0.0796  0.0545 -0.4309
  27.  H 7 (s)      0.0778  0.0086  0.5770 -0.0363 -0.0397 -0.0361
  28.  H 8 (s)      0.0876 -0.0796 -0.0363  0.5770 -0.0361 -0.0397
  29.  H 9 (s)     -0.1005  0.0545 -0.0397 -0.0361  0.5910 -0.0465
  30.  H10 (s)     -0.3204 -0.4309 -0.0361 -0.0397 -0.0465  0.5910


 AO density matrix:

           AO          1       2       3       4       5       6       7       8
      ------------ ------- ------- ------- ------- ------- ------- ------- -------
   1.  H 1 (s)      1.5192  0.1091  1.1244  0.0000  0.0000  1.1764  0.0130  0.1851
   2.  N 2 (s)      0.1091  1.9997  0.4753  0.0000  0.0000  0.0003  0.0002  0.0593
   3.  N 2 (s)      1.1244  0.4753  1.9186  0.0000  0.0000 -0.0104  0.0602  0.7138
   4.  N 2 (px)     0.0000  0.0000  0.0000  1.7702  0.0000  0.0000  0.0000  0.0000
   5.  N 2 (py)     0.0000  0.0000  0.0000  0.0000  1.6893  0.0000  0.0808  0.6538
   6.  N 2 (pz)     1.1764  0.0003 -0.0104  0.0000  0.0000  1.6996 -0.0573 -0.4375
   7.  C 3 (s)      0.0130  0.0002  0.0602  0.0000  0.0808 -0.0573  1.9996  0.5054
   8.  C 3 (s)      0.1851  0.0593  0.7138  0.0000  0.6538 -0.4375  0.5054  1.8296
   9.  C 3 (px)     0.0000  0.0000  0.0000  0.7062  0.0000  0.0000  0.0000  0.0000
  10.  C 3 (py)    -0.0824 -0.0796 -0.7255  0.0000 -0.4691  0.5651 -0.0014  0.0269
  11.  C 3 (pz)     0.1912  0.0547  0.5231  0.0000  0.6390 -0.0219  0.0018 -0.0468
  12.  C 4 (s)      0.0130  0.0002  0.0602  0.0000 -0.0808 -0.0573  0.0000  0.0073
  13.  C 4 (s)      0.1851  0.0593  0.7138  0.0000 -0.6538 -0.4375  0.0073  0.1600
  14.  C 4 (px)     0.0000  0.0000  0.0000  0.7062  0.0000  0.0000  0.0000  0.0000
  15.  C 4 (py)     0.0824  0.0796  0.7255  0.0000 -0.4691 -0.5651  0.0148  0.2317
  16.  C 4 (pz)     0.1912  0.0547  0.5231  0.0000 -0.6390 -0.0219  0.0002 -0.0040
  17.  C 5 (s)     -0.0006  0.0000  0.0036  0.0000  0.0024 -0.0074  0.0002  0.0751
  18.  C 5 (s)      0.0426  0.0061  0.1323  0.0000  0.0651 -0.1789  0.0754  0.7999
  19.  C 5 (px)     0.0000  0.0000  0.0000 -0.1176  0.0000  0.0000  0.0000  0.0000
  20.  C 5 (py)     0.0003 -0.0040 -0.0641  0.0000 -0.0177  0.0947  0.0363  0.2942
  21.  C 5 (pz)     0.0619  0.0116  0.2014  0.0000  0.0886 -0.2532  0.1187  0.8532
  22.  C 6 (s)     -0.0006  0.0000  0.0036  0.0000 -0.0024 -0.0074  0.0000  0.0068
  23.  C 6 (s)      0.0426  0.0061  0.1323  0.0000 -0.0651 -0.1789  0.0069  0.1658
  24.  C 6 (px)     0.0000  0.0000  0.0000 -0.1176  0.0000  0.0000  0.0000  0.0000
  25.  C 6 (py)    -0.0003  0.0040  0.0641  0.0000 -0.0177 -0.0947  0.0114  0.1998
  26.  C 6 (pz)     0.0619  0.0116  0.2014  0.0000 -0.0886 -0.2532  0.0081  0.1406
  27.  H 7 (s)      0.0714  0.0095  0.1454  0.0000  0.1739 -0.0041  0.1196  1.1474
  28.  H 8 (s)      0.0714  0.0095  0.1454  0.0000 -0.1739 -0.0041 -0.0007  0.0373
  29.  H 9 (s)     -0.0210 -0.0007  0.0281  0.0000  0.0313 -0.0306  0.0109  0.1658
  30.  H10 (s)     -0.0210 -0.0007  0.0281  0.0000 -0.0313 -0.0306 -0.0006  0.0320

           AO          9      10      11      12      13      14      15      16
      ------------ ------- ------- ------- ------- ------- ------- ------- -------
   1.  H 1 (s)      0.0000 -0.0824  0.1912  0.0130  0.1851  0.0000  0.0824  0.1912
   2.  N 2 (s)      0.0000 -0.0796  0.0547  0.0002  0.0593  0.0000  0.0796  0.0547
   3.  N 2 (s)      0.0000 -0.7255  0.5231  0.0602  0.7138  0.0000  0.7255  0.5231
   4.  N 2 (px)     0.7062  0.0000  0.0000  0.0000  0.0000  0.7062  0.0000  0.0000
   5.  N 2 (py)     0.0000 -0.4691  0.6390 -0.0808 -0.6538  0.0000 -0.4691 -0.6390
   6.  N 2 (pz)     0.0000  0.5651 -0.0219 -0.0573 -0.4375  0.0000 -0.5651 -0.0219
   7.  C 3 (s)      0.0000 -0.0014  0.0018  0.0000  0.0073  0.0000  0.0148  0.0002
   8.  C 3 (s)      0.0000  0.0269 -0.0468  0.0073  0.1600  0.0000  0.2317 -0.0040
   9.  C 3 (px)     1.3556  0.0000  0.0000  0.0000  0.0000 -0.2138  0.0000  0.0000
  10.  C 3 (py)     0.0000  1.5791  0.0982 -0.0148 -0.2317  0.0000 -0.3065  0.0220
  11.  C 3 (pz)     0.0000  0.0982  1.5985  0.0002 -0.0040  0.0000 -0.0220  0.0263
  12.  C 4 (s)      0.0000 -0.0148  0.0002  1.9996  0.5054  0.0000  0.0014  0.0018
  13.  C 4 (s)      0.0000 -0.2317 -0.0040  0.5054  1.8296  0.0000 -0.0269 -0.0468
  14.  C 4 (px)    -0.2138  0.0000  0.0000  0.0000  0.0000  1.3556  0.0000  0.0000
  15.  C 4 (py)     0.0000 -0.3065 -0.0220  0.0014 -0.0269  0.0000  1.5791 -0.0982
  16.  C 4 (pz)     0.0000  0.0220  0.0263  0.0018 -0.0468  0.0000 -0.0982  1.5985
  17.  C 5 (s)      0.0000 -0.0385 -0.1186  0.0000  0.0068  0.0000  0.0109 -0.0085
  18.  C 5 (s)      0.0000 -0.2470 -0.8531  0.0069  0.1658  0.0000  0.2026 -0.1395
  19.  C 5 (px)     0.9886  0.0000  0.0000  0.0000  0.0000  0.0271  0.0000  0.0000
  20.  C 5 (py)     0.0000  0.3285 -0.4072 -0.0114 -0.1998  0.0000 -0.2220  0.1615
  21.  C 5 (pz)     0.0000 -0.3233 -0.7416  0.0081  0.1406  0.0000  0.1663 -0.0960
  22.  C 6 (s)      0.0000 -0.0109 -0.0085  0.0002  0.0751  0.0000  0.0385 -0.1186
  23.  C 6 (s)      0.0000 -0.2026 -0.1395  0.0754  0.7999  0.0000  0.2470 -0.8531
  24.  C 6 (px)     0.0271  0.0000  0.0000  0.0000  0.0000  0.9886  0.0000  0.0000
  25.  C 6 (py)     0.0000 -0.2220 -0.1615 -0.0363 -0.2942  0.0000  0.3285  0.4072
  26.  C 6 (pz)     0.0000 -0.1663 -0.0960  0.1187  0.8532  0.0000  0.3233 -0.7416
  27.  H 7 (s)      0.0000  1.1049  0.4821 -0.0007  0.0373  0.0000  0.0564  0.0260
  28.  H 8 (s)      0.0000 -0.0564  0.0260  0.1196  1.1474  0.0000 -1.1049  0.4821
  29.  H 9 (s)      0.0000  0.0631 -0.2305 -0.0006  0.0320  0.0000  0.0156 -0.0486
  30.  H10 (s)      0.0000 -0.0156 -0.0486  0.0109  0.1658  0.0000 -0.0631 -0.2305

           AO         17      18      19      20      21      22      23      24
      ------------ ------- ------- ------- ------- ------- ------- ------- -------
   1.  H 1 (s)     -0.0006  0.0426  0.0000  0.0003  0.0619 -0.0006  0.0426  0.0000
   2.  N 2 (s)      0.0000  0.0061  0.0000 -0.0040  0.0116  0.0000  0.0061  0.0000
   3.  N 2 (s)      0.0036  0.1323  0.0000 -0.0641  0.2014  0.0036  0.1323  0.0000
   4.  N 2 (px)     0.0000  0.0000 -0.1176  0.0000  0.0000  0.0000  0.0000 -0.1176
   5.  N 2 (py)     0.0024  0.0651  0.0000 -0.0177  0.0886 -0.0024 -0.0651  0.0000
   6.  N 2 (pz)    -0.0074 -0.1789  0.0000  0.0947 -0.2532 -0.0074 -0.1789  0.0000
   7.  C 3 (s)      0.0002  0.0754  0.0000  0.0363  0.1187  0.0000  0.0069  0.0000
   8.  C 3 (s)      0.0751  0.7999  0.0000  0.2942  0.8532  0.0068  0.1658  0.0000
   9.  C 3 (px)     0.0000  0.0000  0.9886  0.0000  0.0000  0.0000  0.0000  0.0271
  10.  C 3 (py)    -0.0385 -0.2470  0.0000  0.3285 -0.3233 -0.0109 -0.2026  0.0000
  11.  C 3 (pz)    -0.1186 -0.8531  0.0000 -0.4072 -0.7416 -0.0085 -0.1395  0.0000
  12.  C 4 (s)      0.0000  0.0069  0.0000 -0.0114  0.0081  0.0002  0.0754  0.0000
  13.  C 4 (s)      0.0068  0.1658  0.0000 -0.1998  0.1406  0.0751  0.7999  0.0000
  14.  C 4 (px)     0.0000  0.0000  0.0271  0.0000  0.0000  0.0000  0.0000  0.9886
  15.  C 4 (py)     0.0109  0.2026  0.0000 -0.2220  0.1663  0.0385  0.2470  0.0000
  16.  C 4 (pz)    -0.0085 -0.1395  0.0000  0.1615 -0.0960 -0.1186 -0.8531  0.0000
  17.  C 5 (s)      1.9995  0.5051  0.0000  0.0001  0.0000  0.0002  0.0689  0.0000
  18.  C 5 (s)      0.5051  1.8472  0.0000 -0.0067  0.0131  0.0689  0.7643  0.0000
  19.  C 5 (px)     0.0000  0.0000  1.3667  0.0000  0.0000  0.0000  0.0000  0.7776
  20.  C 5 (py)     0.0001 -0.0067  0.0000  1.6272 -0.0267 -0.1135 -0.8761  0.0000
  21.  C 5 (pz)     0.0000  0.0131  0.0000 -0.0267  1.6439  0.0011 -0.0220  0.0000
  22.  C 6 (s)      0.0002  0.0689  0.0000 -0.1135  0.0011  1.9995  0.5051  0.0000
  23.  C 6 (s)      0.0689  0.7643  0.0000 -0.8761 -0.0220  0.5051  1.8472  0.0000
  24.  C 6 (px)     0.0000  0.0000  0.7776  0.0000  0.0000  0.0000  0.0000  1.3667
  25.  C 6 (py)     0.1135  0.8761  0.0000 -0.8767 -0.0436 -0.0001  0.0067  0.0000
  26.  C 6 (pz)     0.0011 -0.0220  0.0000  0.0436  0.4200  0.0000  0.0131  0.0000
  27.  H 7 (s)      0.0095  0.1538  0.0000  0.1409  0.1371 -0.0007  0.0348  0.0000
  28.  H 8 (s)     -0.0007  0.0348  0.0000 -0.0534  0.0095  0.0095  0.1538  0.0000
  29.  H 9 (s)      0.1194  1.1417  0.0000  0.7235 -0.9729  0.0096  0.1570  0.0000
  30.  H10 (s)      0.0096  0.1570  0.0000 -0.1777 -0.1029  0.1194  1.1417  0.0000

           AO         25      26      27      28      29      30
      ------------ ------- ------- ------- ------- ------- -------
   1.  H 1 (s)     -0.0003  0.0619  0.0714  0.0714 -0.0210 -0.0210
   2.  N 2 (s)      0.0040  0.0116  0.0095  0.0095 -0.0007 -0.0007
   3.  N 2 (s)      0.0641  0.2014  0.1454  0.1454  0.0281  0.0281
   4.  N 2 (px)     0.0000  0.0000  0.0000  0.0000  0.0000  0.0000
   5.  N 2 (py)    -0.0177 -0.0886  0.1739 -0.1739  0.0313 -0.0313
   6.  N 2 (pz)    -0.0947 -0.2532 -0.0041 -0.0041 -0.0306 -0.0306
   7.  C 3 (s)      0.0114  0.0081  0.1196 -0.0007  0.0109 -0.0006
   8.  C 3 (s)      0.1998  0.1406  1.1474  0.0373  0.1658  0.0320
   9.  C 3 (px)     0.0000  0.0000  0.0000  0.0000  0.0000  0.0000
  10.  C 3 (py)    -0.2220 -0.1663  1.1049 -0.0564  0.0631 -0.0156
  11.  C 3 (pz)    -0.1615 -0.0960  0.4821  0.0260 -0.2305 -0.0486
  12.  C 4 (s)     -0.0363  0.1187 -0.0007  0.1196 -0.0006  0.0109
  13.  C 4 (s)     -0.2942  0.8532  0.0373  1.1474  0.0320  0.1658
  14.  C 4 (px)     0.0000  0.0000  0.0000  0.0000  0.0000  0.0000
  15.  C 4 (py)     0.3285  0.3233  0.0564 -1.1049  0.0156 -0.0631
  16.  C 4 (pz)     0.4072 -0.7416  0.0260  0.4821 -0.0486 -0.2305
  17.  C 5 (s)      0.1135  0.0011  0.0095 -0.0007  0.1194  0.0096
  18.  C 5 (s)      0.8761 -0.0220  0.1538  0.0348  1.1417  0.1570
  19.  C 5 (px)     0.0000  0.0000  0.0000  0.0000  0.0000  0.0000
  20.  C 5 (py)    -0.8767  0.0436  0.1409 -0.0534  0.7235 -0.1777
  21.  C 5 (pz)    -0.0436  0.4200  0.1371  0.0095 -0.9729 -0.1029
  22.  C 6 (s)     -0.0001  0.0000 -0.0007  0.0095  0.0096  0.1194
  23.  C 6 (s)      0.0067  0.0131  0.0348  0.1538  0.1570  1.1417
  24.  C 6 (px)     0.0000  0.0000  0.0000  0.0000  0.0000  0.0000
  25.  C 6 (py)     1.6272  0.0267  0.0534 -0.1409  0.1777 -0.7235
  26.  C 6 (pz)     0.0267  1.6439  0.0095  0.1371 -0.1029 -0.9729
  27.  H 7 (s)      0.0534  0.0095  1.6443 -0.0153  0.0387 -0.0155
  28.  H 8 (s)     -0.1409  0.1371 -0.0153  1.6443 -0.0155  0.0387
  29.  H 9 (s)      0.1777 -0.1029  0.0387 -0.0155  1.6492  0.0380
  30.  H10 (s)     -0.7235 -0.9729 -0.0155  0.0387  0.0380  1.6492


 MO density matrix:

      MO     1       2       3       4       5       6       7       8       9
     ---- ------  ------  ------  ------  ------  ------  ------  ------  ------
   1.     2.0000  0.0000  0.0000  0.0000  0.0000  0.0000  0.0000  0.0000  0.0000
   2.     0.0000  2.0000  0.0000  0.0000  0.0000  0.0000  0.0000  0.0000  0.0000
   3.     0.0000  0.0000  2.0000  0.0000  0.0000  0.0000  0.0000  0.0000  0.0000
   4.     0.0000  0.0000  0.0000  2.0000  0.0000  0.0000  0.0000  0.0000  0.0000
   5.     0.0000  0.0000  0.0000  0.0000  2.0000  0.0000  0.0000  0.0000  0.0000
   6.     0.0000  0.0000  0.0000  0.0000  0.0000  2.0000  0.0000  0.0000  0.0000
   7.     0.0000  0.0000  0.0000  0.0000  0.0000  0.0000  2.0000  0.0000  0.0000
   8.     0.0000  0.0000  0.0000  0.0000  0.0000  0.0000  0.0000  2.0000  0.0000
   9.     0.0000  0.0000  0.0000  0.0000  0.0000  0.0000  0.0000  0.0000  2.0000
  10.     0.0000  0.0000  0.0000  0.0000  0.0000  0.0000  0.0000  0.0000  0.0000
  11.     0.0000  0.0000  0.0000  0.0000  0.0000  0.0000  0.0000  0.0000  0.0000
  12.     0.0000  0.0000  0.0000  0.0000  0.0000  0.0000  0.0000  0.0000  0.0000
  13.     0.0000  0.0000  0.0000  0.0000  0.0000  0.0000  0.0000  0.0000  0.0000
  14.     0.0000  0.0000  0.0000  0.0000  0.0000  0.0000  0.0000  0.0000  0.0000
  15.     0.0000  0.0000  0.0000  0.0000  0.0000  0.0000  0.0000  0.0000  0.0000
  16.     0.0000  0.0000  0.0000  0.0000  0.0000  0.0000  0.0000  0.0000  0.0000
  17.     0.0000  0.0000  0.0000  0.0000  0.0000  0.0000  0.0000  0.0000  0.0000
  18.     0.0000  0.0000  0.0000  0.0000  0.0000  0.0000  0.0000  0.0000  0.0000
  19.     0.0000  0.0000  0.0000  0.0000  0.0000  0.0000  0.0000  0.0000  0.0000
  20.     0.0000  0.0000  0.0000  0.0000  0.0000  0.0000  0.0000  0.0000  0.0000
  21.     0.0000  0.0000  0.0000  0.0000  0.0000  0.0000  0.0000  0.0000  0.0000
  22.     0.0000  0.0000  0.0000  0.0000  0.0000  0.0000  0.0000  0.0000  0.0000
  23.     0.0000  0.0000  0.0000  0.0000  0.0000  0.0000  0.0000  0.0000  0.0000
  24.     0.0000  0.0000  0.0000  0.0000  0.0000  0.0000  0.0000  0.0000  0.0000
  25.     0.0000  0.0000  0.0000  0.0000  0.0000  0.0000  0.0000  0.0000  0.0000
  26.     0.0000  0.0000  0.0000  0.0000  0.0000  0.0000  0.0000  0.0000  0.0000
  27.     0.0000  0.0000  0.0000  0.0000  0.0000  0.0000  0.0000  0.0000  0.0000
  28.     0.0000  0.0000  0.0000  0.0000  0.0000  0.0000  0.0000  0.0000  0.0000
  29.     0.0000  0.0000  0.0000  0.0000  0.0000  0.0000  0.0000  0.0000  0.0000
  30.     0.0000  0.0000  0.0000  0.0000  0.0000  0.0000  0.0000  0.0000  0.0000

      MO    10      11      12      13      14      15      16      17      18
     ---- ------  ------  ------  ------  ------  ------  ------  ------  ------
   1.     0.0000  0.0000  0.0000  0.0000  0.0000  0.0000  0.0000  0.0000  0.0000
   2.     0.0000  0.0000  0.0000  0.0000  0.0000  0.0000  0.0000  0.0000  0.0000
   3.     0.0000  0.0000  0.0000  0.0000  0.0000  0.0000  0.0000  0.0000  0.0000
   4.     0.0000  0.0000  0.0000  0.0000  0.0000  0.0000  0.0000  0.0000  0.0000
   5.     0.0000  0.0000  0.0000  0.0000  0.0000  0.0000  0.0000  0.0000  0.0000
   6.     0.0000  0.0000  0.0000  0.0000  0.0000  0.0000  0.0000  0.0000  0.0000
   7.     0.0000  0.0000  0.0000  0.0000  0.0000  0.0000  0.0000  0.0000  0.0000
   8.     0.0000  0.0000  0.0000  0.0000  0.0000  0.0000  0.0000  0.0000  0.0000
   9.     0.0000  0.0000  0.0000  0.0000  0.0000  0.0000  0.0000  0.0000  0.0000
  10.     2.0000  0.0000  0.0000  0.0000  0.0000  0.0000  0.0000  0.0000  0.0000
  11.     0.0000  2.0000  0.0000  0.0000  0.0000  0.0000  0.0000  0.0000  0.0000
  12.     0.0000  0.0000  2.0000  0.0000  0.0000  0.0000  0.0000  0.0000  0.0000
  13.     0.0000  0.0000  0.0000  2.0000  0.0000  0.0000  0.0000  0.0000  0.0000
  14.     0.0000  0.0000  0.0000  0.0000  2.0000  0.0000  0.0000  0.0000  0.0000
  15.     0.0000  0.0000  0.0000  0.0000  0.0000  2.0000  0.0000  0.0000  0.0000
  16.     0.0000  0.0000  0.0000  0.0000  0.0000  0.0000  2.0000  0.0000  0.0000
  17.     0.0000  0.0000  0.0000  0.0000  0.0000  0.0000  0.0000  2.0000  0.0000
  18.     0.0000  0.0000  0.0000  0.0000  0.0000  0.0000  0.0000  0.0000  2.0000
  19.     0.0000  0.0000  0.0000  0.0000  0.0000  0.0000  0.0000  0.0000  0.0000
  20.     0.0000  0.0000  0.0000  0.0000  0.0000  0.0000  0.0000  0.0000  0.0000
  21.     0.0000  0.0000  0.0000  0.0000  0.0000  0.0000  0.0000  0.0000  0.0000
  22.     0.0000  0.0000  0.0000  0.0000  0.0000  0.0000  0.0000  0.0000  0.0000
  23.     0.0000  0.0000  0.0000  0.0000  0.0000  0.0000  0.0000  0.0000  0.0000
  24.     0.0000  0.0000  0.0000  0.0000  0.0000  0.0000  0.0000  0.0000  0.0000
  25.     0.0000  0.0000  0.0000  0.0000  0.0000  0.0000  0.0000  0.0000  0.0000
  26.     0.0000  0.0000  0.0000  0.0000  0.0000  0.0000  0.0000  0.0000  0.0000
  27.     0.0000  0.0000  0.0000  0.0000  0.0000  0.0000  0.0000  0.0000  0.0000
  28.     0.0000  0.0000  0.0000  0.0000  0.0000  0.0000  0.0000  0.0000  0.0000
  29.     0.0000  0.0000  0.0000  0.0000  0.0000  0.0000  0.0000  0.0000  0.0000
  30.     0.0000  0.0000  0.0000  0.0000  0.0000  0.0000  0.0000  0.0000  0.0000

      MO    19      20      21      22      23      24      25      26      27
     ---- ------  ------  ------  ------  ------  ------  ------  ------  ------
   1.     0.0000  0.0000  0.0000  0.0000  0.0000  0.0000  0.0000  0.0000  0.0000
   2.     0.0000  0.0000  0.0000  0.0000  0.0000  0.0000  0.0000  0.0000  0.0000
   3.     0.0000  0.0000  0.0000  0.0000  0.0000  0.0000  0.0000  0.0000  0.0000
   4.     0.0000  0.0000  0.0000  0.0000  0.0000  0.0000  0.0000  0.0000  0.0000
   5.     0.0000  0.0000  0.0000  0.0000  0.0000  0.0000  0.0000  0.0000  0.0000
   6.     0.0000  0.0000  0.0000  0.0000  0.0000  0.0000  0.0000  0.0000  0.0000
   7.     0.0000  0.0000  0.0000  0.0000  0.0000  0.0000  0.0000  0.0000  0.0000
   8.     0.0000  0.0000  0.0000  0.0000  0.0000  0.0000  0.0000  0.0000  0.0000
   9.     0.0000  0.0000  0.0000  0.0000  0.0000  0.0000  0.0000  0.0000  0.0000
  10.     0.0000  0.0000  0.0000  0.0000  0.0000  0.0000  0.0000  0.0000  0.0000
  11.     0.0000  0.0000  0.0000  0.0000  0.0000  0.0000  0.0000  0.0000  0.0000
  12.     0.0000  0.0000  0.0000  0.0000  0.0000  0.0000  0.0000  0.0000  0.0000
  13.     0.0000  0.0000  0.0000  0.0000  0.0000  0.0000  0.0000  0.0000  0.0000
  14.     0.0000  0.0000  0.0000  0.0000  0.0000  0.0000  0.0000  0.0000  0.0000
  15.     0.0000  0.0000  0.0000  0.0000  0.0000  0.0000  0.0000  0.0000  0.0000
  16.     0.0000  0.0000  0.0000  0.0000  0.0000  0.0000  0.0000  0.0000  0.0000
  17.     0.0000  0.0000  0.0000  0.0000  0.0000  0.0000  0.0000  0.0000  0.0000
  18.     0.0000  0.0000  0.0000  0.0000  0.0000  0.0000  0.0000  0.0000  0.0000
  19.     0.0000  0.0000  0.0000  0.0000  0.0000  0.0000  0.0000  0.0000  0.0000
  20.     0.0000  0.0000  0.0000  0.0000  0.0000  0.0000  0.0000  0.0000  0.0000
  21.     0.0000  0.0000  0.0000  0.0000  0.0000  0.0000  0.0000  0.0000  0.0000
  22.     0.0000  0.0000  0.0000  0.0000  0.0000  0.0000  0.0000  0.0000  0.0000
  23.     0.0000  0.0000  0.0000  0.0000  0.0000  0.0000  0.0000  0.0000  0.0000
  24.     0.0000  0.0000  0.0000  0.0000  0.0000  0.0000  0.0000  0.0000  0.0000
  25.     0.0000  0.0000  0.0000  0.0000  0.0000  0.0000  0.0000  0.0000  0.0000
  26.     0.0000  0.0000  0.0000  0.0000  0.0000  0.0000  0.0000  0.0000  0.0000
  27.     0.0000  0.0000  0.0000  0.0000  0.0000  0.0000  0.0000  0.0000  0.0000
  28.     0.0000  0.0000  0.0000  0.0000  0.0000  0.0000  0.0000  0.0000  0.0000
  29.     0.0000  0.0000  0.0000  0.0000  0.0000  0.0000  0.0000  0.0000  0.0000
  30.     0.0000  0.0000  0.0000  0.0000  0.0000  0.0000  0.0000  0.0000  0.0000

      MO    28      29      30
     ---- ------  ------  ------
   1.     0.0000  0.0000  0.0000
   2.     0.0000  0.0000  0.0000
   3.     0.0000  0.0000  0.0000
   4.     0.0000  0.0000  0.0000
   5.     0.0000  0.0000  0.0000
   6.     0.0000  0.0000  0.0000
   7.     0.0000  0.0000  0.0000
   8.     0.0000  0.0000  0.0000
   9.     0.0000  0.0000  0.0000
  10.     0.0000  0.0000  0.0000
  11.     0.0000  0.0000  0.0000
  12.     0.0000  0.0000  0.0000
  13.     0.0000  0.0000  0.0000
  14.     0.0000  0.0000  0.0000
  15.     0.0000  0.0000  0.0000
  16.     0.0000  0.0000  0.0000
  17.     0.0000  0.0000  0.0000
  18.     0.0000  0.0000  0.0000
  19.     0.0000  0.0000  0.0000
  20.     0.0000  0.0000  0.0000
  21.     0.0000  0.0000  0.0000
  22.     0.0000  0.0000  0.0000
  23.     0.0000  0.0000  0.0000
  24.     0.0000  0.0000  0.0000
  25.     0.0000  0.0000  0.0000
  26.     0.0000  0.0000  0.0000
  27.     0.0000  0.0000  0.0000
  28.     0.0000  0.0000  0.0000
  29.     0.0000  0.0000  0.0000
  30.     0.0000  0.0000  0.0000


 NATURAL POPULATIONS:  Natural atomic orbital occupancies

  NAO Atom No lang   Type(AO)    Occupancy      Energy
 -------------------------------------------------------
   1    H  1  s      Val( 1s)     0.78572       0.07971

   2    N  2  s      Cor( 1s)     2.00000     -15.38567
   3    N  2  s      Val( 2s)     1.32164      -0.55057
   4    N  2  px     Val( 2p)     1.61809      -0.27887
   5    N  2  py     Val( 2p)     1.17007      -0.05977
   6    N  2  pz     Val( 2p)     1.15199      -0.05279

   7    C  3  s      Cor( 1s)     2.00000     -11.03022
   8    C  3  s      Val( 2s)     1.05655      -0.14031
   9    C  3  px     Val( 2p)     1.09678      -0.02106
  10    C  3  py     Val( 2p)     0.87259       0.20412
  11    C  3  pz     Val( 2p)     0.92404       0.17000

  12    C  4  s      Cor( 1s)     2.00000     -11.03022
  13    C  4  s      Val( 2s)     1.05655      -0.14031
  14    C  4  px     Val( 2p)     1.09678      -0.02106
  15    C  4  py     Val( 2p)     0.87259       0.20412
  16    C  4  pz     Val( 2p)     0.92404       0.17000

  17    C  5  s      Cor( 1s)     2.00000     -10.97755
  18    C  5  s      Val( 2s)     1.07627      -0.11602
  19    C  5  px     Val( 2p)     1.09417       0.01063
  20    C  5  py     Val( 2p)     0.96497       0.18848
  21    C  5  pz     Val( 2p)     0.96431       0.19909

  22    C  6  s      Cor( 1s)     2.00000     -10.97755
  23    C  6  s      Val( 2s)     1.07627      -0.11602
  24    C  6  px     Val( 2p)     1.09417       0.01063
  25    C  6  py     Val( 2p)     0.96497       0.18848
  26    C  6  pz     Val( 2p)     0.96431       0.19909

  27    H  7  s      Val( 1s)     0.96226       0.06710

  28    H  8  s      Val( 1s)     0.96226       0.06710

  29    H  9  s      Val( 1s)     0.96430       0.09545

  30    H 10  s      Val( 1s)     0.96430       0.09545


 Summary of Natural Population Analysis:

                                     Natural Population
             Natural    ---------------------------------------------
  Atom No    Charge        Core      Valence    Rydberg      Total
 --------------------------------------------------------------------
    H  1    0.21428      0.00000     0.78572    0.00000     0.78572
    N  2   -0.26178      2.00000     5.26178    0.00000     7.26178
    C  3    0.05003      2.00000     3.94997    0.00000     5.94997
    C  4    0.05003      2.00000     3.94997    0.00000     5.94997
    C  5   -0.09972      2.00000     4.09972    0.00000     6.09972
    C  6   -0.09972      2.00000     4.09972    0.00000     6.09972
    H  7    0.03774      0.00000     0.96226    0.00000     0.96226
    H  8    0.03774      0.00000     0.96226    0.00000     0.96226
    H  9    0.03570      0.00000     0.96430    0.00000     0.96430
    H 10    0.03570      0.00000     0.96430    0.00000     0.96430
 ====================================================================
 * Total *  0.00000      9.99999    26.00001    0.00000    36.00000

                                 Natural Population
 ---------------------------------------------------------
   Core                       9.99999 ( 99.9999% of   10)
   Valence                   26.00001 (100.0000% of   26)
   Natural Minimal Basis     36.00000 (100.0000% of   36)
   Natural Rydberg Basis      0.00000 (  0.0000% of   36)
 ---------------------------------------------------------

    Atom No         Natural Electron Configuration
 ----------------------------------------------------------------------------
      H  1            1s( 0.79)
      N  2      [core]2s( 1.32)2p( 3.94)
      C  3      [core]2s( 1.06)2p( 2.89)
      C  4      [core]2s( 1.06)2p( 2.89)
      C  5      [core]2s( 1.08)2p( 3.02)
      C  6      [core]2s( 1.08)2p( 3.02)
      H  7            1s( 0.96)
      H  8            1s( 0.96)
      H  9            1s( 0.96)
      H 10            1s( 0.96)


 PNAOs in the AO basis:

           AO          1       2       3       4       5       6       7       8
      ------------ ------- ------- ------- ------- ------- ------- ------- -------
   1.  H 1 (s)      1.0000  0.0000  0.0000  0.0000  0.0000  0.0000  0.0000  0.0000
   2.  N 2 (s)      0.0000  0.9833 -0.3026  0.0000  0.0000  0.0000  0.0000  0.0000
   3.  N 2 (s)      0.0000  0.0630  1.0269  0.0000  0.0000  0.0000  0.0000  0.0000
   4.  N 2 (px)     0.0000  0.0000  0.0000  1.0000  0.0000  0.0000  0.0000  0.0000
   5.  N 2 (py)     0.0000  0.0000  0.0000  0.0000  1.0000  0.0000  0.0000  0.0000
   6.  N 2 (pz)     0.0000  0.0000  0.0000  0.0000  0.0000  1.0000  0.0000  0.0000
   7.  C 3 (s)      0.0000  0.0000  0.0000  0.0000  0.0000  0.0000  0.9863 -0.3050
   8.  C 3 (s)      0.0000  0.0000  0.0000  0.0000  0.0000  0.0000  0.0505  1.0311
   9.  C 3 (px)     0.0000  0.0000  0.0000  0.0000  0.0000  0.0000  0.0000  0.0000
  10.  C 3 (py)     0.0000  0.0000  0.0000  0.0000  0.0000  0.0000  0.0000  0.0000
  11.  C 3 (pz)     0.0000  0.0000  0.0000  0.0000  0.0000  0.0000  0.0000  0.0000
  12.  C 4 (s)      0.0000  0.0000  0.0000  0.0000  0.0000  0.0000  0.0000  0.0000
  13.  C 4 (s)      0.0000  0.0000  0.0000  0.0000  0.0000  0.0000  0.0000  0.0000
  14.  C 4 (px)     0.0000  0.0000  0.0000  0.0000  0.0000  0.0000  0.0000  0.0000
  15.  C 4 (py)     0.0000  0.0000  0.0000  0.0000  0.0000  0.0000  0.0000  0.0000
  16.  C 4 (pz)     0.0000  0.0000  0.0000  0.0000  0.0000  0.0000  0.0000  0.0000
  17.  C 5 (s)      0.0000  0.0000  0.0000  0.0000  0.0000  0.0000  0.0000  0.0000
  18.  C 5 (s)      0.0000  0.0000  0.0000  0.0000  0.0000  0.0000  0.0000  0.0000
  19.  C 5 (px)     0.0000  0.0000  0.0000  0.0000  0.0000  0.0000  0.0000  0.0000
  20.  C 5 (py)     0.0000  0.0000  0.0000  0.0000  0.0000  0.0000  0.0000  0.0000
  21.  C 5 (pz)     0.0000  0.0000  0.0000  0.0000  0.0000  0.0000  0.0000  0.0000
  22.  C 6 (s)      0.0000  0.0000  0.0000  0.0000  0.0000  0.0000  0.0000  0.0000
  23.  C 6 (s)      0.0000  0.0000  0.0000  0.0000  0.0000  0.0000  0.0000  0.0000
  24.  C 6 (px)     0.0000  0.0000  0.0000  0.0000  0.0000  0.0000  0.0000  0.0000
  25.  C 6 (py)     0.0000  0.0000  0.0000  0.0000  0.0000  0.0000  0.0000  0.0000
  26.  C 6 (pz)     0.0000  0.0000  0.0000  0.0000  0.0000  0.0000  0.0000  0.0000
  27.  H 7 (s)      0.0000  0.0000  0.0000  0.0000  0.0000  0.0000  0.0000  0.0000
  28.  H 8 (s)      0.0000  0.0000  0.0000  0.0000  0.0000  0.0000  0.0000  0.0000
  29.  H 9 (s)      0.0000  0.0000  0.0000  0.0000  0.0000  0.0000  0.0000  0.0000
  30.  H10 (s)      0.0000  0.0000  0.0000  0.0000  0.0000  0.0000  0.0000  0.0000

           AO          9      10      11      12      13      14      15      16
      ------------ ------- ------- ------- ------- ------- ------- ------- -------
   1.  H 1 (s)      0.0000  0.0000  0.0000  0.0000  0.0000  0.0000  0.0000  0.0000
   2.  N 2 (s)      0.0000  0.0000  0.0000  0.0000  0.0000  0.0000  0.0000  0.0000
   3.  N 2 (s)      0.0000  0.0000  0.0000  0.0000  0.0000  0.0000  0.0000  0.0000
   4.  N 2 (px)     0.0000  0.0000  0.0000  0.0000  0.0000  0.0000  0.0000  0.0000
   5.  N 2 (py)     0.0000  0.0000  0.0000  0.0000  0.0000  0.0000  0.0000  0.0000
   6.  N 2 (pz)     0.0000  0.0000  0.0000  0.0000  0.0000  0.0000  0.0000  0.0000
   7.  C 3 (s)      0.0000  0.0000  0.0000  0.0000  0.0000  0.0000  0.0000  0.0000
   8.  C 3 (s)      0.0000  0.0000  0.0000  0.0000  0.0000  0.0000  0.0000  0.0000
   9.  C 3 (px)     1.0000  0.0000  0.0000  0.0000  0.0000  0.0000  0.0000  0.0000
  10.  C 3 (py)     0.0000  1.0000  0.0000  0.0000  0.0000  0.0000  0.0000  0.0000
  11.  C 3 (pz)     0.0000  0.0000  1.0000  0.0000  0.0000  0.0000  0.0000  0.0000
  12.  C 4 (s)      0.0000  0.0000  0.0000  0.9863 -0.3050  0.0000  0.0000  0.0000
  13.  C 4 (s)      0.0000  0.0000  0.0000  0.0505  1.0311  0.0000  0.0000  0.0000
  14.  C 4 (px)     0.0000  0.0000  0.0000  0.0000  0.0000  1.0000  0.0000  0.0000
  15.  C 4 (py)     0.0000  0.0000  0.0000  0.0000  0.0000  0.0000  1.0000  0.0000
  16.  C 4 (pz)     0.0000  0.0000  0.0000  0.0000  0.0000  0.0000  0.0000  1.0000
  17.  C 5 (s)      0.0000  0.0000  0.0000  0.0000  0.0000  0.0000  0.0000  0.0000
  18.  C 5 (s)      0.0000  0.0000  0.0000  0.0000  0.0000  0.0000  0.0000  0.0000
  19.  C 5 (px)     0.0000  0.0000  0.0000  0.0000  0.0000  0.0000  0.0000  0.0000
  20.  C 5 (py)     0.0000  0.0000  0.0000  0.0000  0.0000  0.0000  0.0000  0.0000
  21.  C 5 (pz)     0.0000  0.0000  0.0000  0.0000  0.0000  0.0000  0.0000  0.0000
  22.  C 6 (s)      0.0000  0.0000  0.0000  0.0000  0.0000  0.0000  0.0000  0.0000
  23.  C 6 (s)      0.0000  0.0000  0.0000  0.0000  0.0000  0.0000  0.0000  0.0000
  24.  C 6 (px)     0.0000  0.0000  0.0000  0.0000  0.0000  0.0000  0.0000  0.0000
  25.  C 6 (py)     0.0000  0.0000  0.0000  0.0000  0.0000  0.0000  0.0000  0.0000
  26.  C 6 (pz)     0.0000  0.0000  0.0000  0.0000  0.0000  0.0000  0.0000  0.0000
  27.  H 7 (s)      0.0000  0.0000  0.0000  0.0000  0.0000  0.0000  0.0000  0.0000
  28.  H 8 (s)      0.0000  0.0000  0.0000  0.0000  0.0000  0.0000  0.0000  0.0000
  29.  H 9 (s)      0.0000  0.0000  0.0000  0.0000  0.0000  0.0000  0.0000  0.0000
[...]
   7. (1.99142) BD ( 1) H  1- N  2
               ( 39.07%)   0.6250* H  1 s(100.00%)
                                         1.0000
               ( 60.93%)   0.7806* N  2 s( 32.17%)p 2.11( 67.83%)
                                         0.0000  0.5672  0.0000  0.0000  0.8236
   8. (1.98663) BD ( 1) N  2- C  3
               ( 60.73%)   0.7793* N  2 s( 33.91%)p 1.95( 66.09%)
                                         0.0000  0.5823  0.0000  0.7071 -0.4011
               ( 39.27%)   0.6267* C  3 s( 27.50%)p 2.64( 72.50%)
                                         0.0000  0.5244  0.0000 -0.6578  0.5407
   9. (1.98663) BD ( 1) N  2- C  4
               ( 60.73%)   0.7793* N  2 s( 33.91%)p 1.95( 66.09%)
                                         0.0000  0.5823  0.0000 -0.7071 -0.4011
               ( 39.27%)   0.6267* C  4 s( 27.50%)p 2.64( 72.50%)
                                         0.0000  0.5244  0.0000  0.6578  0.5407
  10. (1.98776) BD ( 1) C  3- C  5
               ( 51.17%)   0.7154* C  3 s( 37.07%)p 1.70( 62.93%)
                                         0.0000  0.6089  0.0000 -0.1542 -0.7781
               ( 48.83%)   0.6988* C  5 s( 33.21%)p 2.01( 66.79%)
                                         0.0000  0.5762  0.0000  0.3227  0.7509
  11. (1.87231) BD ( 2) C  3- C  5
               ( 50.08%)   0.7077* C  3 s(  0.00%)p 1.00(100.00%)
                                         0.0000  0.0000  1.0000  0.0000  0.0000
               ( 49.92%)   0.7065* C  5 s(  0.00%)p 1.00(100.00%)
                                         0.0000  0.0000  1.0000  0.0000  0.0000
  12. (1.99206) BD ( 1) C  3- H  7
               ( 52.01%)   0.7212* C  3 s( 35.43%)p 1.82( 64.57%)
                                         0.0000  0.5952  0.0000  0.7372  0.3197
               ( 47.99%)   0.6927* H  7 s(100.00%)
                                         1.0000
  13. (1.98776) BD ( 1) C  4- C  6
               ( 51.17%)   0.7154* C  4 s( 37.07%)p 1.70( 62.93%)
                                         0.0000  0.6089  0.0000  0.1542 -0.7781
               ( 48.83%)   0.6988* C  6 s( 33.21%)p 2.01( 66.79%)
                                         0.0000  0.5762  0.0000 -0.3227  0.7509
  14. (1.87231) BD ( 2) C  4- C  6
               ( 50.08%)   0.7077* C  4 s(  0.00%)p 1.00(100.00%)
                                         0.0000  0.0000  1.0000  0.0000  0.0000
               ( 49.92%)   0.7065* C  6 s(  0.00%)p 1.00(100.00%)
                                         0.0000  0.0000  1.0000  0.0000  0.0000
  15. (1.99206) BD ( 1) C  4- H  8
               ( 52.01%)   0.7212* C  4 s( 35.43%)p 1.82( 64.57%)
                                         0.0000  0.5952  0.0000 -0.7372  0.3197
               ( 47.99%)   0.6927* H  8 s(100.00%)
                                         1.0000
  16. (1.98063) BD ( 1) C  5- C  6
               ( 50.00%)   0.7071* C  5 s( 32.95%)p 2.03( 67.05%)
                                         0.0000  0.5740  0.0000 -0.8138 -0.0908
               ( 50.00%)   0.7071* C  6 s( 32.95%)p 2.03( 67.05%)
                                         0.0000  0.5740  0.0000  0.8138 -0.0908
  17. (1.99103) BD ( 1) C  5- H  9
               ( 51.80%)   0.7197* C  5 s( 33.84%)p 1.95( 66.16%)
                                         0.0000  0.5818  0.0000  0.4833 -0.6542
               ( 48.20%)   0.6942* H  9 s(100.00%)
                                         1.0000
  18. (1.99103) BD ( 1) C  6- H 10
               ( 51.80%)   0.7197* C  6 s( 33.84%)p 1.95( 66.16%)
                                         0.0000  0.5818  0.0000 -0.4833 -0.6542
               ( 48.20%)   0.6942* H 10 s(100.00%)
                                         1.0000
 ---------------- non-Lewis ----------------------------------------------------
  19. (0.01275) BD*( 1) H  1- N  2
               ( 60.93%)   0.7806* H  1 s(100.00%)
                                         1.0000
               ( 39.07%)  -0.6250* N  2 s( 32.17%)p 2.11( 67.83%)
                                         0.0000  0.5672  0.0000  0.0000  0.8236
  20. (0.01562) BD*( 1) N  2- C  3
               ( 39.27%)   0.6267* N  2 s( 33.91%)p 1.95( 66.09%)
                                         0.0000 -0.5823  0.0000 -0.7071  0.4011
               ( 60.73%)  -0.7793* C  3 s( 27.50%)p 2.64( 72.50%)
                                         0.0000 -0.5244  0.0000  0.6578 -0.5407
  21. (0.01562) BD*( 1) N  2- C  4
               ( 39.27%)   0.6267* N  2 s( 33.91%)p 1.95( 66.09%)
                                         0.0000 -0.5823  0.0000  0.7071  0.4011
               ( 60.73%)  -0.7793* C  4 s( 27.50%)p 2.64( 72.50%)
                                         0.0000 -0.5244  0.0000 -0.6578 -0.5407
  22. (0.00921) BD*( 1) C  3- C  5
               ( 48.83%)   0.6988* C  3 s( 37.07%)p 1.70( 62.93%)
                                         0.0000  0.6089  0.0000 -0.1542 -0.7781
               ( 51.17%)  -0.7154* C  5 s( 33.21%)p 2.01( 66.79%)
                                         0.0000  0.5762  0.0000  0.3227  0.7509
  23. (0.31865) BD*( 2) C  3- C  5
               ( 49.92%)   0.7065* C  3 s(  0.00%)p 1.00(100.00%)
                                         0.0000  0.0000 -1.0000  0.0000  0.0000
               ( 50.08%)  -0.7077* C  5 s(  0.00%)p 1.00(100.00%)
                                         0.0000  0.0000 -1.0000  0.0000  0.0000
  24. (0.01204) BD*( 1) C  3- H  7
               ( 47.99%)   0.6927* C  3 s( 35.43%)p 1.82( 64.57%)
                                         0.0000 -0.5952  0.0000 -0.7372 -0.3197
               ( 52.01%)  -0.7212* H  7 s(100.00%)
                                        -1.0000
  25. (0.00921) BD*( 1) C  4- C  6
               ( 48.83%)   0.6988* C  4 s( 37.07%)p 1.70( 62.93%)
                                         0.0000  0.6089  0.0000  0.1542 -0.7781
               ( 51.17%)  -0.7154* C  6 s( 33.21%)p 2.01( 66.79%)
                                         0.0000  0.5762  0.0000 -0.3227  0.7509
  26. (0.31865) BD*( 2) C  4- C  6
               ( 49.92%)   0.7065* C  4 s(  0.00%)p 1.00(100.00%)
                                         0.0000  0.0000 -1.0000  0.0000  0.0000
               ( 50.08%)  -0.7077* C  6 s(  0.00%)p 1.00(100.00%)
                                         0.0000  0.0000 -1.0000  0.0000  0.0000
  27. (0.01204) BD*( 1) C  4- H  8
               ( 47.99%)   0.6927* C  4 s( 35.43%)p 1.82( 64.57%)
                                         0.0000 -0.5952  0.0000  0.7372 -0.3197
               ( 52.01%)  -0.7212* H  8 s(100.00%)
                                        -1.0000
  28. (0.00837) BD*( 1) C  5- C  6
               ( 50.00%)   0.7071* C  5 s( 32.95%)p 2.03( 67.05%)
                                         0.0000  0.5740  0.0000 -0.8138 -0.0908
               ( 50.00%)  -0.7071* C  6 s( 32.95%)p 2.03( 67.05%)
                                         0.0000  0.5740  0.0000  0.8138 -0.0908
  29. (0.00906) BD*( 1) C  5- H  9
               ( 48.20%)   0.6942* C  5 s( 33.84%)p 1.95( 66.16%)
                                         0.0000 -0.5818  0.0000 -0.4833  0.6542
               ( 51.80%)  -0.7197* H  9 s(100.00%)
                                        -1.0000
  30. (0.00906) BD*( 1) C  6- H 10
               ( 48.20%)   0.6942* C  6 s( 33.84%)p 1.95( 66.16%)
                                         0.0000 -0.5818  0.0000  0.4833  0.6542
               ( 51.80%)  -0.7197* H 10 s(100.00%)
                                        -1.0000


 NHO DIRECTIONALITY AND BOND BENDING (deviation from line of nuclear centers at
                                      the position of maximum hybrid amplitude)

         [Thresholds for printing:  angular deviation  >  1.0 degree]
                                    p- or d-character  > 25.0%
                                    orbital occupancy  >  0.10e

                        Line of Centers        Hybrid 1             Hybrid 2
                        ---------------  -------------------  ------------------
           NBO            Theta   Phi    Theta   Phi    Dev   Theta   Phi    Dev
 ===============================================================================
   6. LP ( 1) N  2          --     --     89.9    0.0   --      --     --    --
   8. BD ( 1) N  2- C  3  124.9   90.0   120.6   90.0   4.3    52.1  270.0   2.9
   9. BD ( 1) N  2- C  4  124.9  270.0   120.6  270.0   4.3    52.1   90.0   2.9
  10. BD ( 1) C  3- C  5  162.5  270.0   166.9  270.0   4.4    21.6   90.0   4.1
  11. BD ( 2) C  3- C  5  162.5  270.0    89.9    0.1  90.1    90.1    0.1  90.1
  13. BD ( 1) C  4- C  6  162.5   90.0   166.9   90.0   4.4    21.6  270.0   4.1
  14. BD ( 2) C  4- C  6  162.5   90.0    89.9  359.9  90.1    90.1  359.9  90.1
  16. BD ( 1) C  5- C  6   90.0  270.0    94.4  270.0   4.4    94.4   90.0   4.4


 SECOND ORDER PERTURBATION THEORY ANALYSIS OF FOCK MATRIX IN NBO BASIS

     Threshold for printing:   0.50 kcal/mol
                                                          E(2) E(NL)-E(L) F(L,NL)
      Donor (L) NBO              Acceptor (NL) NBO      kcal/mol   a.u.    a.u.
 ===============================================================================

 within unit  1
    6. LP ( 1) N  2            23. BD*( 2) C  3- C  5     70.65    0.55   0.175
    6. LP ( 1) N  2            26. BD*( 2) C  4- C  6     70.65    0.55   0.175
    7. BD ( 1) H  1- N  2      20. BD*( 1) N  2- C  3      2.13    1.60   0.052
    7. BD ( 1) H  1- N  2      21. BD*( 1) N  2- C  4      2.13    1.60   0.052
    7. BD ( 1) H  1- N  2      22. BD*( 1) C  3- C  5      1.32    1.74   0.043
    7. BD ( 1) H  1- N  2      24. BD*( 1) C  3- H  7      0.74    1.55   0.030
    7. BD ( 1) H  1- N  2      25. BD*( 1) C  4- C  6      1.32    1.74   0.043
    7. BD ( 1) H  1- N  2      27. BD*( 1) C  4- H  8      0.74    1.55   0.030
    8. BD ( 1) N  2- C  3      19. BD*( 1) H  1- N  2      1.64    1.49   0.044
    8. BD ( 1) N  2- C  3      21. BD*( 1) N  2- C  4      0.62    1.63   0.028
    8. BD ( 1) N  2- C  3      24. BD*( 1) C  3- H  7      1.64    1.58   0.045
    8. BD ( 1) N  2- C  3      25. BD*( 1) C  4- C  6      1.61    1.77   0.048
    8. BD ( 1) N  2- C  3      27. BD*( 1) C  4- H  8      2.82    1.58   0.060
    8. BD ( 1) N  2- C  3      28. BD*( 1) C  5- C  6      1.33    1.73   0.043
    8. BD ( 1) N  2- C  3      29. BD*( 1) C  5- H  9      2.45    1.61   0.056
    9. BD ( 1) N  2- C  4      19. BD*( 1) H  1- N  2      1.64    1.49   0.044
    9. BD ( 1) N  2- C  4      20. BD*( 1) N  2- C  3      0.62    1.63   0.028
    9. BD ( 1) N  2- C  4      22. BD*( 1) C  3- C  5      1.61    1.77   0.048
    9. BD ( 1) N  2- C  4      24. BD*( 1) C  3- H  7      2.82    1.58   0.060
    9. BD ( 1) N  2- C  4      27. BD*( 1) C  4- H  8      1.64    1.58   0.045
    9. BD ( 1) N  2- C  4      28. BD*( 1) C  5- C  6      1.33    1.73   0.043
    9. BD ( 1) N  2- C  4      30. BD*( 1) C  6- H 10      2.45    1.61   0.056
   10. BD ( 1) C  3- C  5      19. BD*( 1) H  1- N  2      3.07    1.37   0.058
   10. BD ( 1) C  3- C  5      20. BD*( 1) N  2- C  3      0.50    1.51   0.025
   10. BD ( 1) C  3- C  5      21. BD*( 1) N  2- C  4      0.78    1.51   0.031
   10. BD ( 1) C  3- C  5      24. BD*( 1) C  3- H  7      0.87    1.46   0.032
   10. BD ( 1) C  3- C  5      25. BD*( 1) C  4- C  6      1.54    1.65   0.045
   10. BD ( 1) C  3- C  5      29. BD*( 1) C  5- H  9      0.74    1.49   0.030
   10. BD ( 1) C  3- C  5      30. BD*( 1) C  6- H 10      2.93    1.49   0.059
   11. BD ( 2) C  3- C  5      23. BD*( 2) C  3- C  5      0.55    0.54   0.015
   11. BD ( 2) C  3- C  5      26. BD*( 2) C  4- C  6     40.31    0.54   0.132
   12. BD ( 1) C  3- H  7      20. BD*( 1) N  2- C  3      1.89    1.44   0.047
   12. BD ( 1) C  3- H  7      21. BD*( 1) N  2- C  4      1.63    1.44   0.043
   12. BD ( 1) C  3- H  7      22. BD*( 1) C  3- C  5      1.22    1.58   0.039
   12. BD ( 1) C  3- H  7      28. BD*( 1) C  5- C  6      1.25    1.54   0.039
   12. BD ( 1) C  3- H  7      29. BD*( 1) C  5- H  9      0.58    1.42   0.026
   13. BD ( 1) C  4- C  6      19. BD*( 1) H  1- N  2      3.07    1.37   0.058
   13. BD ( 1) C  4- C  6      20. BD*( 1) N  2- C  3      0.78    1.51   0.031
   13. BD ( 1) C  4- C  6      21. BD*( 1) N  2- C  4      0.50    1.51   0.025
   13. BD ( 1) C  4- C  6      22. BD*( 1) C  3- C  5      1.54    1.65   0.045
   13. BD ( 1) C  4- C  6      27. BD*( 1) C  4- H  8      0.87    1.46   0.032
   13. BD ( 1) C  4- C  6      29. BD*( 1) C  5- H  9      2.93    1.49   0.059
   13. BD ( 1) C  4- C  6      30. BD*( 1) C  6- H 10      0.74    1.49   0.030
   14. BD ( 2) C  4- C  6      23. BD*( 2) C  3- C  5     40.31    0.54   0.132
   14. BD ( 2) C  4- C  6      26. BD*( 2) C  4- C  6      0.55    0.54   0.015
   15. BD ( 1) C  4- H  8      20. BD*( 1) N  2- C  3      1.63    1.44   0.043
   15. BD ( 1) C  4- H  8      21. BD*( 1) N  2- C  4      1.89    1.44   0.047
   15. BD ( 1) C  4- H  8      25. BD*( 1) C  4- C  6      1.22    1.58   0.039
   15. BD ( 1) C  4- H  8      28. BD*( 1) C  5- C  6      1.25    1.54   0.039
   15. BD ( 1) C  4- H  8      30. BD*( 1) C  6- H 10      0.58    1.42   0.026
   16. BD ( 1) C  5- C  6      20. BD*( 1) N  2- C  3      3.51    1.47   0.064
   16. BD ( 1) C  5- C  6      21. BD*( 1) N  2- C  4      3.51    1.47   0.064
   16. BD ( 1) C  5- C  6      24. BD*( 1) C  3- H  7      3.72    1.42   0.065
   16. BD ( 1) C  5- C  6      27. BD*( 1) C  4- H  8      3.72    1.42   0.065
   16. BD ( 1) C  5- C  6      29. BD*( 1) C  5- H  9      0.96    1.45   0.033
   16. BD ( 1) C  5- C  6      30. BD*( 1) C  6- H 10      0.96    1.45   0.033
   17. BD ( 1) C  5- H  9      20. BD*( 1) N  2- C  3      2.25    1.41   0.050
   17. BD ( 1) C  5- H  9      22. BD*( 1) C  3- C  5      1.03    1.54   0.036
   17. BD ( 1) C  5- H  9      24. BD*( 1) C  3- H  7      0.66    1.36   0.027
   17. BD ( 1) C  5- H  9      25. BD*( 1) C  4- C  6      1.37    1.54   0.041
   17. BD ( 1) C  5- H  9      28. BD*( 1) C  5- C  6      1.22    1.51   0.038
   17. BD ( 1) C  5- H  9      30. BD*( 1) C  6- H 10      0.63    1.39   0.026
   18. BD ( 1) C  6- H 10      21. BD*( 1) N  2- C  4      2.25    1.41   0.050
   18. BD ( 1) C  6- H 10      22. BD*( 1) C  3- C  5      1.37    1.54   0.041
   18. BD ( 1) C  6- H 10      25. BD*( 1) C  4- C  6      1.03    1.54   0.036
   18. BD ( 1) C  6- H 10      27. BD*( 1) C  4- H  8      0.66    1.36   0.027
   18. BD ( 1) C  6- H 10      28. BD*( 1) C  5- C  6      1.22    1.51   0.038
   18. BD ( 1) C  6- H 10      29. BD*( 1) C  5- H  9      0.63    1.39   0.026


 NATURAL BOND ORBITALS (Summary):

                                                     Principal Delocalizations
           NBO                 Occupancy    Energy   (geminal,vicinal,remote)
 ===============================================================================
 Molecular unit  1  (C4H5N)
 ------ Lewis --------------------------------------
    1. CR ( 1) N  2             2.00000   -15.38567
    2. CR ( 1) C  3             2.00000   -11.03022
    3. CR ( 1) C  4             2.00000   -11.03022
    4. CR ( 1) C  5             2.00000   -10.97755
    5. CR ( 1) C  6             2.00000   -10.97755
    6. LP ( 1) N  2             1.61809    -0.27887  23(v),26(v)
    7. BD ( 1) H  1- N  2       1.99142    -0.81701  20(g),21(g),22(v),25(v)
                                                     24(v),27(v)
    8. BD ( 1) N  2- C  3       1.98663    -0.84636  27(v),29(v),19(g),24(g)
                                                     25(v),28(v),21(g)
    9. BD ( 1) N  2- C  4       1.98663    -0.84636  24(v),30(v),19(g),27(g)
                                                     22(v),28(v),20(g)
   10. BD ( 1) C  3- C  5       1.98776    -0.72599  19(v),30(v),25(v),24(g)
                                                     21(v),29(g),20(g)
   11. BD ( 2) C  3- C  5       1.87231    -0.27674  26(v),23(g)
   12. BD ( 1) C  3- H  7       1.99206    -0.65691  20(g),21(v),28(v),22(g)
                                                     29(v)
   13. BD ( 1) C  4- C  6       1.98776    -0.72599  19(v),29(v),22(v),27(g)
                                                     20(v),30(g),21(g)
   14. BD ( 2) C  4- C  6       1.87231    -0.27674  23(v),26(g)
   15. BD ( 1) C  4- H  8       1.99206    -0.65691  21(g),20(v),28(v),25(g)
                                                     30(v)
   16. BD ( 1) C  5- C  6       1.98063    -0.68062  24(v),27(v),20(v),21(v)
                                                     29(g),30(g)
   17. BD ( 1) C  5- H  9       1.99103    -0.62126  20(v),25(v),28(g),22(g)
                                                     24(v),30(v)
   18. BD ( 1) C  6- H 10       1.99103    -0.62126  21(v),22(v),28(g),25(g)
                                                     27(v),29(v)
 ------ non-Lewis ----------------------------------
   19. BD*( 1) H  1- N  2       0.01275     0.64790
   20. BD*( 1) N  2- C  3       0.01562     0.78575
   21. BD*( 1) N  2- C  4       0.01562     0.78575
   22. BD*( 1) C  3- C  5       0.00921     0.92040
   23. BD*( 2) C  3- C  5       0.31865     0.26632
   24. BD*( 1) C  3- H  7       0.01204     0.73465
   25. BD*( 1) C  4- C  6       0.00921     0.92040
   26. BD*( 2) C  4- C  6       0.31865     0.26632
   27. BD*( 1) C  4- H  8       0.01204     0.73465
   28. BD*( 1) C  5- C  6       0.00837     0.88772
   29. BD*( 1) C  5- H  9       0.00906     0.76691
   30. BD*( 1) C  6- H 10       0.00906     0.76691
          -------------------------------
                 Total Lewis   35.24971  ( 97.9159%)
           Valence non-Lewis    0.75029  (  2.0841%)
           Rydberg non-Lewis    0.00000  (  0.0000%)
          -------------------------------
               Total unit  1   36.00000  (100.0000%)
              Charge unit  1    0.00000

 $CHOOSE
   LONE 2 1 END
   BOND S 1 2 S 2 3 S 2 4 D 3 5 S 3 7 D 4 6 S 4 8 S 5 6 S 5 9 S 6 10 END
 $END

 NBO analysis completed in 5.61 CPU seconds (3 wall seconds)
 Maximum scratch memory used by NBO was 229326 words (1.75 MB)
 Maximum scratch memory used by G16NBO was 9730 words (0.07 MB)

 Opening RunExU unformatted file "/cluster/work/users/beto93/mol133/Gau-1107921.EUF"
 Read unf file /cluster/work/users/beto93/mol133/Gau-1107921.EUF:
 Label Gaussian matrix elements                                         IVers= 2 NLab= 2 Version=ES64L-G16RevC.01
 Title mol133-NBO                                                      
 NAtoms=    10 NBasis=    30 NBsUse=    30 ICharg=     0 Multip=     1 NE=    36 Len12L=8 Len4L=8 IOpCl= 0 ICGU=111
 GAUSSIAN SCALARS                    NI= 1 NR= 1 NTot=       1 LenBuf=    2 NRI=1 N=    1000
 NPA CHARGES                         NI= 0 NR= 1 NTot=      10 LenBuf= 4000 NRI=1 N=      10
 Recovered energy= -206.224564954     dipole=     -0.000000000000      0.000000000000      0.752096399468
 Unable to Open any file for archive entry.
 1\1\GINC-C2-6\SP\RHF\STO-3G\C4H5N1\BETO93\18-Nov-2024\0\\#RHF/STO-3G i
 nt=nobasistransform Symmetry=None 5D 7F Pop=NBO7Read\\mol133-NBO\\0,1\
 H,0,0.,0.,2.129296\N,0,0.,0.,1.118684\C,0,0.,1.124516,0.333565\C,0,0.,
 -1.124516,0.333565\C,0,0.,0.708407,-0.983807\C,0,0.,-0.708407,-0.98380
 7\H,0,0.,2.112872,0.770496\H,0,0.,-2.112872,0.770496\H,0,0.,1.357252,-
 1.849085\H,0,0.,-1.357252,-1.849085\\Version=ES64L-G16RevC.01\HF=-206.
 224565\RMSD=6.311e-09\Dipole=0.,0.,0.7520964\Quadrupole=-2.5208242,0.2
 866939,2.2341303,0.,0.,0.\PG=Unknown\\@
 The archive entry for this job was punched.


 SEE YOU NOW,
 YOUR BAIT OF FALSEHOOD TAKES THIS CARP OF TRUTH.
 AND THUS DO WE OF WISDOM AND OF REACH...
 BY INDIRECTIONS FIND DIRECTIONS OUT.    -- HAMLET, II, 1
 Job cpu time:       0 days  0 hours  0 minutes 17.2 seconds.
 Elapsed time:       0 days  0 hours  0 minutes  5.7 seconds.
 File lengths (MBytes):  RWF=     10 Int=      0 D2E=      0 Chk=      1 Scr=      1
 Normal termination of Gaussian 16 at Mon Nov 18 15:41:50 2024.
