 Entering Gaussian System, Link 0=g16
 Initial command:
 /cluster/software/Gaussian/g16_C.01/l1.exe "/cluster/work/users/beto93/mol101/Gau-1383776.inp" -scrdir="/cluster/work/users/beto93/mol101/"
 Entering Link 1 = /cluster/software/Gaussian/g16_C.01/l1.exe PID=   1383780.
  
 Copyright (c) 1988-2019, Gaussian, Inc.  All Rights Reserved.
  
 This is part of the Gaussian(R) 16 program.  It is based on
 the Gaussian(R) 09 system (copyright 2009, Gaussian, Inc.),
 the Gaussian(R) 03 system (copyright 2003, Gaussian, Inc.),
 the Gaussian(R) 98 system (copyright 1998, Gaussian, Inc.),
 the Gaussian(R) 94 system (copyright 1995, Gaussian, Inc.),
 the Gaussian 92(TM) system (copyright 1992, Gaussian, Inc.),
 the Gaussian 90(TM) system (copyright 1990, Gaussian, Inc.),
 the Gaussian 88(TM) system (copyright 1988, Gaussian, Inc.),
 the Gaussian 86(TM) system (copyright 1986, Carnegie Mellon
 University), and the Gaussian 82(TM) system (copyright 1983,
 Carnegie Mellon University). Gaussian is a federally registered
 trademark of Gaussian, Inc.
  
 This software contains proprietary and confidential information,
 including trade secrets, belonging to Gaussian, Inc.
  
 This software is provided under written license and may be
 used, copied, transmitted, or stored only in accord with that
 written license.
  
 The following legend is applicable only to US Government
 contracts under FAR:
  
                    RESTRICTED RIGHTS LEGEND
  
 Use, reproduction and disclosure by the US Government is
 subject to restrictions as set forth in subparagraphs (a)
 and (c) of the Commercial Computer Software - Restricted
 Rights clause in FAR 52.227-19.
  
 Gaussian, Inc.
 340 Quinnipiac St., Bldg. 40, Wallingford CT 06492
  
  
 ---------------------------------------------------------------
 Warning -- This program may not be used in any manner that
 competes with the business of Gaussian, Inc. or will provide
 assistance to any competitor of Gaussian, Inc.  The licensee
 of this program is prohibited from giving any competitor of
 Gaussian, Inc. access to this program.  By using this program,
 the user acknowledges that Gaussian, Inc. is engaged in the
 business of creating and licensing software in the field of
 computational chemistry and represents and warrants to the
 licensee that it is not a competitor of Gaussian, Inc. and that
 it will not use this program in any manner prohibited above.
 ---------------------------------------------------------------
  

 Cite this work as:
 Gaussian 16, Revision C.01,
 M. J. Frisch, G. W. Trucks, H. B. Schlegel, G. E. Scuseria, 
 M. A. Robb, J. R. Cheeseman, G. Scalmani, V. Barone, 
 G. A. Petersson, H. Nakatsuji, X. Li, M. Caricato, A. V. Marenich, 
 J. Bloino, B. G. Janesko, R. Gomperts, B. Mennucci, H. P. Hratchian, 
 J. V. Ortiz, A. F. Izmaylov, J. L. Sonnenberg, D. Williams-Young, 
 F. Ding, F. Lipparini, F. Egidi, J. Goings, B. Peng, A. Petrone, 
 T. Henderson, D. Ranasinghe, V. G. Zakrzewski, J. Gao, N. Rega, 
 G. Zheng, W. Liang, M. Hada, M. Ehara, K. Toyota, R. Fukuda, 
 J. Hasegawa, M. Ishida, T. Nakajima, Y. Honda, O. Kitao, H. Nakai, 
 T. Vreven, K. Throssell, J. A. Montgomery, Jr., J. E. Peralta, 
 F. Ogliaro, M. J. Bearpark, J. J. Heyd, E. N. Brothers, K. N. Kudin, 
 V. N. Staroverov, T. A. Keith, R. Kobayashi, J. Normand, 
 K. Raghavachari, A. P. Rendell, J. C. Burant, S. S. Iyengar, 
 J. Tomasi, M. Cossi, J. M. Millam, M. Klene, C. Adamo, R. Cammi, 
 J. W. Ochterski, R. L. Martin, K. Morokuma, O. Farkas, 
 J. B. Foresman, and D. J. Fox, Gaussian, Inc., Wallingford CT, 2019.
 
 ******************************************
 Gaussian 16:  ES64L-G16RevC.01  3-Jul-2019
                18-Nov-2024 
 ******************************************
 %LindaWorkers=c2-42-ib
 %NProcShared=4
 Will use up to    4 processors via shared memory.
 %mem=25GB
 %chk=mol101.chk
 SetLPE:    new flags="-opt 'Tsnet.Node.lindarsharg: ssh'  -nodelist 'c2-42-ib.saga' -env GAUSS_MDEF=3355443200 -env GAUSS_EXEDIR="/cluster/software/Gaussian/g16_C.01/bsd:/cluster/software/Gaussian/g16_C.01""
 Will use up to    1 processors via Linda.
 -----------------------------------------------------------------
 #RHF/6-31G* int=nobasistransform Symmetry=None 5D 7F Pop=NBO7Read
 -----------------------------------------------------------------
 1/38=1,163=2,172=1/1;
 2/12=2,15=3,17=6,18=5,40=1/2;
 3/5=1,6=6,7=1,8=11,11=1,25=1,30=1,60=-1,116=1/1,2,3;
 4//1;
 5/5=2,38=5/2;
 6/7=2,8=2,9=2,10=2,28=1,40=2,113=1,114=1,124=2103/1,12;
 99/5=1,9=1/99;
 ----------
 mol101-NBO
 ----------
 Symbolic Z-matrix:
 Charge =  0 Multiplicity = 1
 C                     0.        0.       -1.24447 
 Si                    0.        0.        0.6357 
 H                     0.       -1.01976  -1.63636 
 H                    -0.88314   0.50988  -1.63636 
 H                     0.88314   0.50988  -1.63636 
 H                     0.        1.39123   1.15868 
 H                    -1.20484  -0.69562   1.15868 
 H                     1.20484  -0.69562   1.15868 
 
                          Input orientation:                          
 ---------------------------------------------------------------------
 Center     Atomic      Atomic             Coordinates (Angstroms)
 Number     Number       Type             X           Y           Z
 ---------------------------------------------------------------------
      1          6           0        0.000000    0.000000   -1.244466
      2         14           0        0.000000    0.000000    0.635703
      3          1           0        0.000000   -1.019762   -1.636363
      4          1           0       -0.883140    0.509881   -1.636363
      5          1           0        0.883140    0.509881   -1.636363
      6          1           0        0.000000    1.391234    1.158682
      7          1           0       -1.204844   -0.695617    1.158682
      8          1           0        1.204844   -0.695617    1.158682
 ---------------------------------------------------------------------
                    Distance matrix (angstroms):
                    1          2          3          4          5
     1  C    0.000000
     2  Si   1.880169   0.000000
     3  H    1.092473   2.490421   0.000000
     4  H    1.092473   2.490421   1.766280   0.000000
     5  H    1.092473   2.490421   1.766280   1.766280   0.000000
     6  H    2.776806   1.486284   3.691230   3.060882   3.060882
     7  H    2.776806   1.486284   3.060882   3.060881   3.691230
     8  H    2.776806   1.486284   3.060882   3.691230   3.060881
                    6          7          8
     6  H    0.000000
     7  H    2.409688   0.000000
     8  H    2.409688   2.409688   0.000000
 Symmetry turned off by external request.
 Stoichiometry    CH6Si
 Rotational constants (GHZ):          56.1770082          10.8682569          10.8682568
 Standard basis: 6-31G(d) (5D, 7F)
    44 basis functions,   104 primitive gaussians,    46 cartesian basis functions
    13 alpha electrons       13 beta electrons
       nuclear repulsion energy        62.6942226141 Hartrees.
 NAtoms=    8 NActive=    8 NUniq=    8 SFac= 1.00D+00 NAtFMM=   60 NAOKFM=F Big=F
 Integral buffers will be    131072 words long.
 Raffenetti 1 integral format.
 Two-electron integral symmetry is turned off.
 One-electron integrals computed using PRISM.
 NBasis=    44 RedAO= T EigKep=  1.86D-02  NBF=    44
 NBsUse=    44 1.00D-06 EigRej= -1.00D+00 NBFU=    44
 ExpMin= 7.78D-02 ExpMax= 1.61D+04 ExpMxC= 2.43D+03 IAcc=3 IRadAn=         5 AccDes= 0.00D+00
 Harris functional with IExCor=  205 and IRadAn=       5 diagonalized for initial guess.
 HarFok:  IExCor=  205 AccDes= 0.00D+00 IRadAn=         5 IDoV= 1 UseB2=F ITyADJ=14
 ICtDFT=  3500011 ScaDFX=  1.000000  1.000000  1.000000  1.000000
 FoFCou: FMM=F IPFlag=           0 FMFlag=      100000 FMFlg1=           0
         NFxFlg=           0 DoJE=T BraDBF=F KetDBF=T FulRan=T
         wScrn=  0.000000 ICntrl=       500 IOpCl=  0 I1Cent=   200000004 NGrid=           0
         NMat0=    1 NMatS0=      1 NMatT0=    0 NMatD0=    1 NMtDS0=    0 NMtDT0=    0
 Symmetry not used in FoFCou.
 Keep R1 ints in memory in canonical form, NReq=1334844.
 Requested convergence on RMS density matrix=1.00D-08 within 128 cycles.
 Requested convergence on MAX density matrix=1.00D-06.
 Requested convergence on             energy=1.00D-06.
 No special actions if energy rises.
 SCF Done:  E(RHF) =  -330.270867147     A.U. after   10 cycles
            NFock= 10  Conv=0.38D-08     -V/T= 1.9995

 **********************************************************************

            Population analysis using the SCF Density.

 **********************************************************************

 Alpha  occ. eigenvalues --  -68.75119 -11.20732  -6.11488  -4.22037  -4.22037
 Alpha  occ. eigenvalues --   -4.21974  -0.94768  -0.69824  -0.56338  -0.56338
 Alpha  occ. eigenvalues --   -0.46705  -0.46705  -0.45453
 Alpha virt. eigenvalues --    0.15814   0.19737   0.19737   0.26516   0.29137
 Alpha virt. eigenvalues --    0.29137   0.31012   0.41535   0.41808   0.41808
 Alpha virt. eigenvalues --    0.50740   0.71810   0.71810   0.77973   0.88198
 Alpha virt. eigenvalues --    0.88198   0.97182   0.97182   1.08903   1.16464
 Alpha virt. eigenvalues --    1.16464   1.23610   1.34592   1.45382   1.45382
 Alpha virt. eigenvalues --    1.46261   2.02321   2.02321   2.50912   2.59408
 Alpha virt. eigenvalues --    2.59409
          Condensed to atoms (all electrons):
               1          2          3          4          5          6
     1  C    5.351802   0.374591   0.376704   0.376704   0.376704  -0.019525
     2  Si   0.374591  11.826869  -0.021140  -0.021140  -0.021140   0.389884
     3  H    0.376704  -0.021140   0.505268  -0.023573  -0.023573   0.000872
     4  H    0.376704  -0.021140  -0.023573   0.505268  -0.023573  -0.000666
     5  H    0.376704  -0.021140  -0.023573  -0.023573   0.505268  -0.000666
     6  H   -0.019525   0.389884   0.000872  -0.000666  -0.000666   0.817066
     7  H   -0.019525   0.389884  -0.000666  -0.000666   0.000872  -0.017699
     8  H   -0.019525   0.389884  -0.000666   0.000872  -0.000666  -0.017699
               7          8
     1  C   -0.019525  -0.019525
     2  Si   0.389884   0.389884
     3  H   -0.000666  -0.000666
     4  H   -0.000666   0.000872
     5  H    0.000872  -0.000666
     6  H   -0.017699  -0.017699
     7  H    0.817066  -0.017699
     8  H   -0.017699   0.817066
 Mulliken charges:
               1
     1  C   -0.797931
     2  Si   0.692307
     3  H    0.186775
     4  H    0.186775
     5  H    0.186775
     6  H   -0.151567
     7  H   -0.151567
     8  H   -0.151567
 Sum of Mulliken charges =  -0.00000
 Mulliken charges with hydrogens summed into heavy atoms:
               1
     1  C   -0.237607
     2  Si   0.237607
 Electronic spatial extent (au):  <R**2>=            180.4638
 Charge=             -0.0000 electrons
 Dipole moment (field-independent basis, Debye):
    X=              0.0000    Y=             -0.0000    Z=             -0.7057  Tot=              0.7057
 Quadrupole moment (field-independent basis, Debye-Ang):
   XX=            -23.2629   YY=            -23.2629   ZZ=            -23.5921
   XY=              0.0000   XZ=             -0.0000   YZ=              0.0000
 Traceless Quadrupole moment (field-independent basis, Debye-Ang):
   XX=              0.1097   YY=              0.1097   ZZ=             -0.2195
   XY=              0.0000   XZ=             -0.0000   YZ=              0.0000
 Octapole moment (field-independent basis, Debye-Ang**2):
  XXX=              0.0000  YYY=             -2.1345  ZZZ=             -1.8705  XYY=              0.0000
  XXY=              2.1345  XXZ=             -3.3432  XZZ=              0.0000  YZZ=             -0.0000
  YYZ=             -3.3432  XYZ=             -0.0000
 Hexadecapole moment (field-independent basis, Debye-Ang**3):
 XXXX=            -55.7182 YYYY=            -55.7182 ZZZZ=           -173.6444 XXXY=              0.0000
 XXXZ=             -0.0000 YYYX=              0.0000 YYYZ=             -0.2305 ZZZX=             -0.0000
 ZZZY=              0.0000 XXYY=            -18.5727 XXZZ=            -38.5568 YYZZ=            -38.5568
 XXYZ=              0.2305 YYXZ=             -0.0000 ZZXY=              0.0000
 N-N= 6.269422261415D+01 E-N=-9.105684975557D+02  KE= 3.304287021085D+02
 Running external command "gaunbo7 R"
         input file       "/cluster/work/users/beto93/mol101/Gau-1383780.EIn"
         output file      "/cluster/work/users/beto93/mol101/Gau-1383780.EOu"
         message file     "/cluster/work/users/beto93/mol101/Gau-1383780.EMs"
         fchk file        "/cluster/work/users/beto93/mol101/Gau-1383780.EFC"
         mat. el file     "/cluster/work/users/beto93/mol101/Gau-1383780.EUF"

 Writing WrtUnf unformatted file "/cluster/work/users/beto93/mol101/Gau-1383780.EUF"
 Gaussian matrix elements                                         Version   2 NLab=11 Len12L=8 Len4L=8
 Write SHELL TO ATOM MAP                   from file      0 offset           0 length                  21 to matrix element file.
 Write SHELL TYPES                         from file      0 offset           0 length                  21 to matrix element file.
 Write NUMBER OF PRIMITIVES PER SHELL      from file      0 offset           0 length                  21 to matrix element file.
 Write PRIMITIVE EXPONENTS                 from file      0 offset           0 length                  52 to matrix element file.
 Write CONTRACTION COEFFICIENTS            from file      0 offset           0 length                  52 to matrix element file.
 Write P(S=P) CONTRACTION COEFFICIENTS     from file      0 offset           0 length                  52 to matrix element file.
 Write COORDINATES OF EACH SHELL           from file      0 offset           0 length                  63 to matrix element file.
 Write BONDS PER ATOM                      from file      0 offset           0 length                   8 to matrix element file.
 Write BONDED ATOMS                        from file      0 offset           0 length                  14 to matrix element file.
 Write BOND TYPES                          from file      0 offset           0 length                  14 to matrix element file.
 Write ONIOM CHARGE/MULT                   from file      0 offset           0 length                  32 to matrix element file.
 Write ONIOM ATOM LAYERS                   from file      0 offset           0 length                   8 to matrix element file.
 Write ONIOM ATOM MODIFIERS                from file      0 offset           0 length                   8 to matrix element file.
 Write ONIOM ATOM TYPES                    from file      0 offset           0 length                   8 to matrix element file.
 Write ONIOM LINK ATOMS                    from file      0 offset           0 length                   8 to matrix element file.
 Write ONIOM LINK CHARGES                  from file      0 offset           0 length                   8 to matrix element file.
 Write ONIOM LINK DISTANCES                from file      0 offset           0 length                  32 to matrix element file.
 Write SYMINF INTS                         from file      0 offset           0 length                  26 to matrix element file.
 Write ROTTR TO SO                         from file      0 offset           0 length                  12 to matrix element file.
 Write GAUSSIAN SCALARS                    from file    501 offset           0 to matrix element file.
 Write OPTIMIZATION FLAGS                  from file      0 offset           0 length                   8 to matrix element file.
 Write INTEGER ISO                         from file      0 offset           0 length                   8 to matrix element file.
 Write INTEGER SPIN                        from file      0 offset           0 length                   8 to matrix element file.
 Write REAL ZEFFECTIVE                     from file      0 offset           0 length                   8 to matrix element file.
 Write REAL GFACTOR                        from file      0 offset           0 length                   8 to matrix element file.
 Write REAL ZNUCLEAR                       from file      0 offset           0 length                   8 to matrix element file.
 Write MULLIKEN CHARGES                    from file      0 offset           0 length                   8 to matrix element file.
 Write NUCLEAR GRADIENT                    from file  10584 offset           0 length                  24 to matrix element file.
 Array NUCLEAR FORCE CONSTANTS              on  file  10585 does not exist.
 Write ELECTRIC DIPOLE MOMENT              from file      0 offset           0 length                   3 to matrix element file.
 Write NON-ADIABATIC COUPLING              from file  10810 offset           0 length                  24 to matrix element file.
 Write FINITE EM FIELD                     from file  10521 offset           0 length                  35 to matrix element file.
 Write OVERLAP                             from file  10514 offset           0 length                 990 to matrix element file.
 Write CORE HAMILTONIAN ALPHA              from file  10515 offset           0 length                 990 to matrix element file.
 Write CORE HAMILTONIAN BETA               from file  10515 offset         990 length                 990 to matrix element file.
 Write KINETIC ENERGY                      from file  10516 offset           0 length                 990 to matrix element file.
 Write ORTHOGONAL BASIS                    from file  10685 offset           0 length                1936 to matrix element file.
 Write DIPOLE INTEGRALS                    from file  10518 offset           0 length                2970 to matrix element file.
 Array DIP VEL INTEGRALS                    on  file  10572 does not exist.
 Array R X DEL INTEGRALS                    on  file  10572 does not exist.
 Write ALPHA ORBITAL ENERGIES              from file      0 offset           0 length                  44 to matrix element file.
 Write ALPHA MO COEFFICIENTS               from file  10524 offset           0 length                1936 to matrix element file.
 Write ALPHA DENSITY MATRIX                from file      0 offset           0 length                 990 to matrix element file.
 Write ALPHA FOCK MATRIX                   from file  10536 offset           0 length                 990 to matrix element file.
 Write ENERGY-WEIGHTED DENSITY             from file  10571 offset           0 length                 990 to matrix element file.
 Write ALPHA SCF DENSITY MATRIX            from file      0 offset           0 length                 990 to matrix element file.
 No 2e integrals to process.
 Perform NBO analysis...executing G16NBO...

 *********************************** NBO 7.0 ***********************************
             N A T U R A L   A T O M I C   O R B I T A L   A N D
          N A T U R A L   B O N D   O R B I T A L   A N A L Y S I S
 **************************** Espen Tangen (S101595) ***************************
  (c) Copyright 1996-2021 Board of Regents of the University of Wisconsin System
      on behalf of the Theoretical Chemistry Institute.  All rights reserved.

          Cite this program [NBO 7.0.10 (8-Feb-2021)] as:

          NBO 7.0.  E. D. Glendening, J. K. Badenhoop, A. E. Reed,
          J. E. Carpenter, J. A. Bohmann, C. M. Morales, P. Karafiloglou,
          C. R. Landis, and F. Weinhold, Theoretical Chemistry Institute,
          University of Wisconsin, Madison, WI (2018)

       /NPA    / : Natural Population Analysis
       /AOPNAO / : Print the AO to PNAO transformation
       /AONAO  / : Print the AO to NAO transformation
       /AOMO   / : Print the MOs in the AO basis
       /BOAO   / : Print the AO bond-order matrix
       /DMAO   / : Print the AO density matrix
       /DMPNAO / : Print the PNAO density matrix
       /DMNAO  / : Print the NAO density matrix
       /DMMO   / : Print the MO density matrix
       /SAO    / : Print the AO overlap matrix
       /SPNAO  / : Print the PNAO overlap matrix
       /DETAIL / : Write details of NBO search
       /ARCHIVE/ : Write the archive file to lfn47
       /AOINFO / : Write AO information to lfn31
       /FILE   / : Set to mol101.gen*

 Filename set to mol101.gen1

 Job title: mol101-NBO


 MOs in the AO basis:

           AO          1       2       3       4       5       6       7       8
      ------------ ------- ------- ------- ------- ------- ------- ------- -------
   1.  C 1 (s)     -0.0001  0.9962 -0.0001  0.0000  0.0000  0.0005 -0.1920  0.0357
   2.  C 1 (s)     -0.0004  0.0254  0.0007  0.0000  0.0000 -0.0015  0.3576 -0.0698
   3.  C 1 (px)     0.0000  0.0000  0.0000  0.0000  0.0003  0.0000  0.0000  0.0000
   4.  C 1 (py)     0.0000  0.0000  0.0000  0.0003  0.0000  0.0000  0.0000  0.0000
   5.  C 1 (pz)     0.0001 -0.0001  0.0003  0.0000  0.0000 -0.0009 -0.0212  0.1537
   6.  C 1 (s)      0.0014 -0.0155 -0.0019  0.0000  0.0000  0.0051  0.3805 -0.0723
   7.  C 1 (px)     0.0000  0.0000  0.0000  0.0000 -0.0019  0.0000  0.0000  0.0000
   8.  C 1 (py)     0.0000  0.0000  0.0000 -0.0019  0.0000  0.0000  0.0000  0.0000
   9.  C 1 (pz)     0.0004  0.0001 -0.0002  0.0000  0.0000  0.0013 -0.0029  0.0777
  10.  C 1 (d5)     0.0003 -0.0001  0.0001  0.0000  0.0000 -0.0006 -0.0049  0.0136
  11.  C 1 (d2)     0.0000  0.0000  0.0000  0.0000 -0.0001  0.0000  0.0000  0.0000
  12.  C 1 (d3)     0.0000  0.0000  0.0000 -0.0001  0.0000  0.0000  0.0000  0.0000
  13.  C 1 (d4)     0.0000  0.0000  0.0000 -0.0001  0.0000  0.0000  0.0000  0.0000
  14.  C 1 (d1)     0.0000  0.0000  0.0000  0.0000 -0.0001  0.0000  0.0000  0.0000
  15. Si 2 (s)      0.9971  0.0000 -0.2698  0.0000  0.0000  0.0000  0.0173  0.0520
  16. Si 2 (s)      0.0110  0.0001  1.0299  0.0000  0.0000 -0.0002 -0.0827 -0.2476
  17. Si 2 (px)     0.0000  0.0000  0.0000  0.0000  0.9939  0.0000  0.0000  0.0000
  18. Si 2 (py)     0.0000  0.0000  0.0000  0.9939  0.0000  0.0000  0.0000  0.0000
  19. Si 2 (pz)    -0.0001  0.0000  0.0002  0.0000  0.0000  0.9938  0.0412 -0.0273
  20. Si 2 (s)     -0.0034  0.0008  0.0149  0.0000  0.0000 -0.0011  0.1500  0.4942
  21. Si 2 (px)     0.0000  0.0000  0.0000  0.0000  0.0226  0.0000  0.0000  0.0000
  22. Si 2 (py)     0.0000  0.0000  0.0000  0.0226  0.0000  0.0000  0.0000  0.0000
  23. Si 2 (pz)     0.0005 -0.0010 -0.0005  0.0000  0.0000  0.0237 -0.0777  0.0659
  24. Si 2 (s)      0.0014  0.0023 -0.0042  0.0000  0.0000 -0.0002  0.0121  0.1206
  25. Si 2 (px)     0.0000  0.0000  0.0000  0.0000 -0.0049  0.0000  0.0000  0.0000
  26. Si 2 (py)     0.0000  0.0000  0.0000 -0.0049  0.0000  0.0000  0.0000  0.0000
  27. Si 2 (pz)     0.0000 -0.0007  0.0002  0.0000  0.0000 -0.0055  0.0064  0.0014
  28. Si 2 (d5)    -0.0002  0.0000  0.0001  0.0000  0.0000 -0.0011  0.0268 -0.0195
  29. Si 2 (d2)     0.0000  0.0000  0.0000  0.0000  0.0003  0.0000  0.0000  0.0000
  30. Si 2 (d3)     0.0000  0.0000  0.0000  0.0003  0.0000  0.0000  0.0000  0.0000
  31. Si 2 (d4)     0.0000  0.0000  0.0000 -0.0007  0.0000  0.0000  0.0000  0.0000
  32. Si 2 (d1)     0.0000  0.0000  0.0000  0.0000 -0.0007  0.0000  0.0000  0.0000
  33.  H 3 (s)      0.0000 -0.0001  0.0001 -0.0001  0.0000 -0.0003  0.1354 -0.0595
  34.  H 3 (s)     -0.0003  0.0027  0.0007 -0.0017  0.0000 -0.0014  0.0375 -0.0357
  35.  H 4 (s)      0.0000 -0.0001  0.0001  0.0001 -0.0001 -0.0003  0.1354 -0.0595
  36.  H 4 (s)     -0.0003  0.0027  0.0007  0.0008 -0.0014 -0.0014  0.0375 -0.0357
  37.  H 5 (s)      0.0000 -0.0001  0.0001  0.0001  0.0001 -0.0003  0.1354 -0.0595
  38.  H 5 (s)     -0.0003  0.0027  0.0007  0.0008  0.0014 -0.0014  0.0375 -0.0357
  39.  H 6 (s)      0.0002  0.0000  0.0002  0.0005  0.0000  0.0002  0.0198  0.1378
  40.  H 6 (s)     -0.0001 -0.0004  0.0001 -0.0005  0.0000 -0.0001  0.0114  0.1175
  41.  H 7 (s)      0.0002  0.0000  0.0002 -0.0002 -0.0004  0.0002  0.0198  0.1378
  42.  H 7 (s)     -0.0001 -0.0004  0.0001  0.0003  0.0005 -0.0001  0.0114  0.1175
  43.  H 8 (s)      0.0002  0.0000  0.0002 -0.0002  0.0004  0.0002  0.0198  0.1378
  44.  H 8 (s)     -0.0001 -0.0004  0.0001  0.0003 -0.0005 -0.0001  0.0114  0.1175

           AO          9      10      11      12      13      14      15      16
      ------------ ------- ------- ------- ------- ------- ------- ------- -------
   1.  C 1 (s)      0.0000  0.0000  0.0000  0.0000 -0.0266 -0.0924  0.0000  0.0000
   2.  C 1 (s)      0.0000  0.0000  0.0000  0.0000  0.0438  0.0517  0.0000  0.0000
   3.  C 1 (px)     0.4087  0.0000 -0.1311  0.0000  0.0000  0.0000  0.0000 -0.0669
   4.  C 1 (py)     0.0000  0.4087  0.0000 -0.1311  0.0000  0.0000 -0.0669  0.0000
   5.  C 1 (pz)     0.0000  0.0000  0.0000  0.0000  0.4115  0.0844  0.0000  0.0000
   6.  C 1 (s)      0.0000  0.0000  0.0000  0.0000  0.1300  1.3210  0.0000  0.0000
   7.  C 1 (px)     0.2299  0.0000 -0.0883  0.0000  0.0000  0.0000  0.0000 -0.3206
   8.  C 1 (py)     0.0000  0.2299  0.0000 -0.0883  0.0000  0.0000 -0.3206  0.0000
   9.  C 1 (pz)     0.0000  0.0000  0.0000  0.0000  0.2835  0.3451  0.0000  0.0000
  10.  C 1 (d5)     0.0000  0.0000  0.0000  0.0000  0.0173  0.0026  0.0000  0.0000
  11.  C 1 (d2)    -0.0177  0.0000  0.0104  0.0000  0.0000  0.0000  0.0000  0.0230
  12.  C 1 (d3)     0.0000 -0.0177  0.0000  0.0104  0.0000  0.0000  0.0230  0.0000
  13.  C 1 (d4)     0.0000  0.0272  0.0000 -0.0107  0.0000  0.0000 -0.0065  0.0000
  14.  C 1 (d1)     0.0272  0.0000 -0.0107  0.0000  0.0000  0.0000  0.0000 -0.0065
  15. Si 2 (s)      0.0000  0.0000  0.0000  0.0000  0.0046 -0.0009  0.0000  0.0000
  16. Si 2 (s)      0.0000  0.0000  0.0000  0.0000 -0.0204  0.0290  0.0000  0.0000
  17. Si 2 (px)    -0.0587  0.0000 -0.1522  0.0000  0.0000  0.0000  0.0000 -0.0559
  18. Si 2 (py)     0.0000 -0.0587  0.0000 -0.1522  0.0000  0.0000 -0.0559  0.0000
  19. Si 2 (pz)     0.0000  0.0000  0.0000  0.0000  0.1574 -0.0553  0.0000  0.0000
  20. Si 2 (s)      0.0000  0.0000  0.0000  0.0000  0.0515  0.0804  0.0000  0.0000
  21. Si 2 (px)     0.1311  0.0000  0.3691  0.0000  0.0000  0.0000  0.0000  0.1230
  22. Si 2 (py)     0.0000  0.1311  0.0000  0.3691  0.0000  0.0000  0.1230  0.0000
  23. Si 2 (pz)     0.0000  0.0000  0.0000  0.0000 -0.3715  0.1145  0.0000  0.0000
  24. Si 2 (s)      0.0000  0.0000  0.0000  0.0000 -0.0250 -0.3467  0.0000  0.0000
  25. Si 2 (px)     0.0253  0.0000  0.0599  0.0000  0.0000  0.0000  0.0000  1.7032
  26. Si 2 (py)     0.0000  0.0253  0.0000  0.0599  0.0000  0.0000  1.7032  0.0000
  27. Si 2 (pz)     0.0000  0.0000  0.0000  0.0000 -0.0475  1.4412  0.0000  0.0000
  28. Si 2 (d5)     0.0000  0.0000  0.0000  0.0000  0.0816  0.0829  0.0000  0.0000
  29. Si 2 (d2)    -0.0054  0.0000  0.0632  0.0000  0.0000  0.0000  0.0000 -0.0438
  30. Si 2 (d3)     0.0000 -0.0054  0.0000  0.0632  0.0000  0.0000 -0.0438  0.0000
  31. Si 2 (d4)     0.0000 -0.0172  0.0000 -0.0765  0.0000  0.0000  0.0976  0.0000
  32. Si 2 (d1)    -0.0172  0.0000 -0.0765  0.0000  0.0000  0.0000  0.0000  0.0976
  33.  H 3 (s)      0.0000 -0.2552  0.0000  0.0908 -0.0764 -0.0115  0.0624  0.0000
  34.  H 3 (s)      0.0000 -0.2017  0.0000  0.0869 -0.0742 -0.1248  0.0117  0.0000
  35.  H 4 (s)     -0.2210  0.1276  0.0786 -0.0454 -0.0764 -0.0115 -0.0312  0.0541
  36.  H 4 (s)     -0.1747  0.1008  0.0753 -0.0435 -0.0742 -0.1248 -0.0059  0.0102
  37.  H 5 (s)      0.2210  0.1276 -0.0786 -0.0454 -0.0764 -0.0115 -0.0312 -0.0541
  38.  H 5 (s)      0.1747  0.1008 -0.0753 -0.0435 -0.0742 -0.1248 -0.0059 -0.0102
  39.  H 6 (s)      0.0000  0.0676  0.0000  0.2637 -0.0847 -0.0191 -0.0996  0.0000
  40.  H 6 (s)      0.0000  0.0676  0.0000  0.3450 -0.1057 -0.2494 -1.1762  0.0000
  41.  H 7 (s)     -0.0586 -0.0338 -0.2284 -0.1319 -0.0847 -0.0191  0.0498  0.0862
  42.  H 7 (s)     -0.0586 -0.0338 -0.2987 -0.1725 -0.1057 -0.2494  0.5881  1.0186
  43.  H 8 (s)      0.0586 -0.0338  0.2284 -0.1319 -0.0847 -0.0191  0.0498 -0.0862
  44.  H 8 (s)      0.0586 -0.0338  0.2988 -0.1725 -0.1057 -0.2494  0.5881 -1.0186

           AO         17      18      19      20      21      22      23      24
      ------------ ------- ------- ------- ------- ------- ------- ------- -------
   1.  C 1 (s)     -0.0948  0.0000  0.0000  0.0551 -0.0194  0.0000  0.0000 -0.0571
   2.  C 1 (s)      0.0067  0.0000  0.0000 -0.0941 -0.0004  0.0000  0.0000  0.1742
   3.  C 1 (px)     0.0000  0.2403  0.0000  0.0000  0.0000  0.0000 -0.1485  0.0000
   4.  C 1 (py)     0.0000  0.0000  0.2403  0.0000  0.0000 -0.1485  0.0000  0.0000
   5.  C 1 (pz)    -0.1796  0.0000  0.0000 -0.0667 -0.2940  0.0000  0.0000 -0.0002
   6.  C 1 (s)      1.8775  0.0000  0.0000 -0.6251  0.7614  0.0000  0.0000  0.3991
   7.  C 1 (px)     0.0000  1.3912  0.0000  0.0000  0.0000  0.0000 -0.5163  0.0000
   8.  C 1 (py)     0.0000  0.0000  1.3912  0.0000  0.0000 -0.5163  0.0000  0.0000
   9.  C 1 (pz)    -0.5188  0.0000  0.0000 -0.0713 -1.1744  0.0000  0.0000  0.4592
  10.  C 1 (d5)     0.0110  0.0000  0.0000  0.0160  0.0057  0.0000  0.0000 -0.0689
  11.  C 1 (d2)     0.0000  0.0188  0.0000  0.0000  0.0000  0.0000  0.0173  0.0000
  12.  C 1 (d3)     0.0000  0.0000  0.0188  0.0000  0.0000  0.0173  0.0000  0.0000
  13.  C 1 (d4)     0.0000  0.0000 -0.0107  0.0000  0.0000  0.0108  0.0000  0.0000
  14.  C 1 (d1)     0.0000 -0.0107  0.0000  0.0000  0.0000  0.0000  0.0108  0.0000
  15. Si 2 (s)      0.0254  0.0000  0.0000  0.0668 -0.0050  0.0000  0.0000 -0.0252
  16. Si 2 (s)      0.0099  0.0000  0.0000 -0.1734 -0.1575  0.0000  0.0000 -0.0145
  17. Si 2 (px)     0.0000 -0.0980  0.0000  0.0000  0.0000  0.0000 -0.2809  0.0000
  18. Si 2 (py)     0.0000  0.0000 -0.0980  0.0000  0.0000 -0.2809  0.0000  0.0000
  19. Si 2 (pz)    -0.0068  0.0000  0.0000 -0.0801  0.0824  0.0000  0.0000 -0.2880
  20. Si 2 (s)      0.7998  0.0000  0.0000  1.3816 -0.7338  0.0000  0.0000 -0.8337
  21. Si 2 (px)     0.0000  0.3713  0.0000  0.0000  0.0000  0.0000  1.2912  0.0000
  22. Si 2 (py)     0.0000  0.0000  0.3713  0.0000  0.0000  1.2912  0.0000  0.0000
  23. Si 2 (pz)     0.0802  0.0000  0.0000  0.3301 -0.3482  0.0000  0.0000  1.4159
  24. Si 2 (s)     -1.7681  0.0000  0.0000  0.2807  3.8638  0.0000  0.0000  1.2099
  25. Si 2 (px)     0.0000 -0.2972  0.0000  0.0000  0.0000  0.0000 -0.7448  0.0000
  26. Si 2 (py)     0.0000  0.0000 -0.2972  0.0000  0.0000 -0.7448  0.0000  0.0000
  27. Si 2 (pz)    -0.7106  0.0000  0.0000  0.1224 -0.1168  0.0000  0.0000 -0.9942
  28. Si 2 (d5)    -0.0599  0.0000  0.0000  0.0095 -0.0586  0.0000  0.0000  0.0517
  29. Si 2 (d2)     0.0000 -0.0838  0.0000  0.0000  0.0000  0.0000  0.0302  0.0000
  30. Si 2 (d3)     0.0000  0.0000 -0.0838  0.0000  0.0000  0.0302  0.0000  0.0000
  31. Si 2 (d4)     0.0000  0.0000 -0.0084  0.0000  0.0000  0.0246  0.0000  0.0000
  32. Si 2 (d1)     0.0000 -0.0084  0.0000  0.0000  0.0000  0.0000  0.0246  0.0000
  33.  H 3 (s)     -0.0037  0.0000  0.0975 -0.0042 -0.0161  0.0040  0.0000  0.0740
  34.  H 3 (s)     -0.9191  0.0000  1.6725  0.2791 -1.0079 -0.7987  0.0000 -0.4349
  35.  H 4 (s)     -0.0037  0.0844 -0.0487 -0.0042 -0.0161 -0.0020  0.0035  0.0740
  36.  H 4 (s)     -0.9191  1.4484 -0.8363  0.2791 -1.0080  0.3993 -0.6917 -0.4349
  37.  H 5 (s)     -0.0037 -0.0844 -0.0487 -0.0042 -0.0161 -0.0020 -0.0035  0.0740
  38.  H 5 (s)     -0.9191 -1.4484 -0.8363  0.2791 -1.0080  0.3994  0.6917 -0.4349
  39.  H 6 (s)      0.0515  0.0000 -0.0425 -0.0625 -0.0957  0.0585  0.0000 -0.0044
  40.  H 6 (s)      0.5375  0.0000 -0.1286 -0.7263 -1.0394 -0.4452  0.0000 -0.3005
  41.  H 7 (s)      0.0515  0.0368  0.0212 -0.0625 -0.0957 -0.0292 -0.0506 -0.0044
  42.  H 7 (s)      0.5375  0.1114  0.0643 -0.7263 -1.0394  0.2226  0.3855 -0.3005
  43.  H 8 (s)      0.0515 -0.0368  0.0212 -0.0625 -0.0957 -0.0292  0.0506 -0.0044
  44.  H 8 (s)      0.5375 -0.1114  0.0643 -0.7263 -1.0394  0.2226 -0.3855 -0.3005

           AO         25      26      27      28      29      30      31      32
      ------------ ------- ------- ------- ------- ------- ------- ------- -------
   1.  C 1 (s)      0.0000  0.0000  0.0178  0.0000  0.0000  0.0000  0.0000 -0.0486
   2.  C 1 (s)      0.0000  0.0000 -0.1714  0.0000  0.0000  0.0000  0.0000  0.1826
   3.  C 1 (px)     0.0000 -0.5944  0.0000  0.0000  0.0476  0.0000 -0.5909  0.0000
   4.  C 1 (py)    -0.5944  0.0000  0.0000 -0.0476  0.0000 -0.5909  0.0000  0.0000
   5.  C 1 (pz)     0.0000  0.0000 -0.6253  0.0000  0.0000  0.0000  0.0000  0.7763
   6.  C 1 (s)      0.0000  0.0000 -0.0451  0.0000  0.0000  0.0000  0.0000  0.4023
   7.  C 1 (px)     0.0000  0.8090  0.0000  0.0000  0.0671  0.0000  1.6553  0.0000
   8.  C 1 (py)     0.8090  0.0000  0.0000 -0.0671  0.0000  1.6553  0.0000  0.0000
   9.  C 1 (pz)     0.0000  0.0000  1.8258  0.0000  0.0000  0.0000  0.0000 -0.9785
  10.  C 1 (d5)     0.0000  0.0000 -0.0744  0.0000  0.0000  0.0000  0.0000 -0.0408
  11.  C 1 (d2)     0.0000  0.0739  0.0000  0.0000 -0.0407  0.0000 -0.0644  0.0000
  12.  C 1 (d3)     0.0739  0.0000  0.0000  0.0407  0.0000 -0.0644  0.0000  0.0000
  13.  C 1 (d4)    -0.0644  0.0000  0.0000  0.0269  0.0000 -0.1021  0.0000  0.0000
  14.  C 1 (d1)     0.0000 -0.0644  0.0000  0.0000 -0.0269  0.0000 -0.1021  0.0000
  15. Si 2 (s)      0.0000  0.0000  0.0032  0.0000  0.0000  0.0000  0.0000 -0.0170
  16. Si 2 (s)      0.0000  0.0000 -0.0123  0.0000  0.0000  0.0000  0.0000  0.0569
  17. Si 2 (px)     0.0000  0.0192  0.0000  0.0000  0.0412  0.0000  0.0326  0.0000
  18. Si 2 (py)     0.0192  0.0000  0.0000 -0.0412  0.0000  0.0326  0.0000  0.0000
  19. Si 2 (pz)     0.0000  0.0000  0.0567  0.0000  0.0000  0.0000  0.0000 -0.0418
  20. Si 2 (s)      0.0000  0.0000  0.0229  0.0000  0.0000  0.0000  0.0000 -0.2761
  21. Si 2 (px)     0.0000 -0.1164  0.0000  0.0000 -0.0629  0.0000 -0.1814  0.0000
  22. Si 2 (py)    -0.1164  0.0000  0.0000  0.0629  0.0000 -0.1814  0.0000  0.0000
  23. Si 2 (pz)     0.0000  0.0000  0.0147  0.0000  0.0000  0.0000  0.0000  0.1129
  24. Si 2 (s)      0.0000  0.0000 -1.1217  0.0000  0.0000  0.0000  0.0000  2.2813
  25. Si 2 (px)     0.0000 -0.4282  0.0000  0.0000  1.0858  0.0000 -0.4347  0.0000
  26. Si 2 (py)    -0.4282  0.0000  0.0000 -1.0858  0.0000 -0.4347  0.0000  0.0000
  27. Si 2 (pz)     0.0000  0.0000  0.9543  0.0000  0.0000  0.0000  0.0000  0.2059
  28. Si 2 (d5)     0.0000  0.0000 -0.6172  0.0000  0.0000  0.0000  0.0000 -0.6712
  29. Si 2 (d2)     0.0000 -0.4899  0.0000  0.0000  0.4334  0.0000  0.7314  0.0000
  30. Si 2 (d3)    -0.4899  0.0000  0.0000 -0.4334  0.0000  0.7314  0.0000  0.0000
  31. Si 2 (d4)    -0.3225  0.0000  0.0000  0.8018  0.0000  0.3949  0.0000  0.0000
  32. Si 2 (d1)     0.0000 -0.3225  0.0000  0.0000 -0.8018  0.0000  0.3949  0.0000
  33.  H 3 (s)      0.3913  0.0000  0.2372  0.0091  0.0000  0.2760  0.0000 -0.0580
  34.  H 3 (s)     -0.2778  0.0000  0.5106 -0.2919  0.0000  0.6164  0.0000 -0.3835
  35.  H 4 (s)     -0.1957  0.3389  0.2372 -0.0046 -0.0079 -0.1380  0.2390 -0.0580
  36.  H 4 (s)      0.1389 -0.2406  0.5106  0.1459  0.2528 -0.3082  0.5338 -0.3835
  37.  H 5 (s)     -0.1957 -0.3389  0.2372 -0.0046  0.0079 -0.1380 -0.2390 -0.0580
  38.  H 5 (s)      0.1389  0.2406  0.5106  0.1459 -0.2528 -0.3082 -0.5338 -0.3835
  39.  H 6 (s)     -0.0386  0.0000  0.0712 -0.4116  0.0000  0.0140  0.0000  0.3900
  40.  H 6 (s)      0.3267  0.0000 -0.0503  1.4408  0.0000  0.2046  0.0000 -1.1233
  41.  H 7 (s)      0.0193  0.0334  0.0712  0.2058 -0.3565 -0.0070 -0.0121  0.3900
  42.  H 7 (s)     -0.1634 -0.2829 -0.0503 -0.7204  1.2477 -0.1023 -0.1772 -1.1233
  43.  H 8 (s)      0.0193 -0.0334  0.0712  0.2058  0.3565 -0.0070  0.0121  0.3900
  44.  H 8 (s)     -0.1634  0.2829 -0.0503 -0.7204 -1.2477 -0.1023  0.1772 -1.1233

           AO         33      34      35      36      37      38      39      40
      ------------ ------- ------- ------- ------- ------- ------- ------- -------
   1.  C 1 (s)      0.0000  0.0000  0.0432 -0.0014  0.0000  0.0000 -0.1281  0.0000
   2.  C 1 (s)      0.0000  0.0000 -1.3313 -1.5342  0.0000  0.0000 -1.3280  0.0000
   3.  C 1 (px)    -0.8460  0.0000  0.0000  0.0000  0.1430  0.0000  0.0000 -0.0626
   4.  C 1 (py)     0.0000 -0.8460  0.0000  0.0000  0.0000 -0.1430  0.0000  0.0000
   5.  C 1 (pz)     0.0000  0.0000  0.5908 -0.2517  0.0000  0.0000 -0.1480  0.0000
   6.  C 1 (s)      0.0000  0.0000  2.6622  2.8118  0.0000  0.0000  3.5590  0.0000
   7.  C 1 (px)     1.0133  0.0000  0.0000  0.0000 -0.2489  0.0000  0.0000  0.3074
   8.  C 1 (py)     0.0000  1.0133  0.0000  0.0000  0.0000  0.2489  0.0000  0.0000
   9.  C 1 (pz)     0.0000  0.0000 -0.7948 -0.1029  0.0000  0.0000  0.7351  0.0000
  10.  C 1 (d5)     0.0000  0.0000 -0.1133  0.0361  0.0000  0.0000 -0.0608  0.0000
  11.  C 1 (d2)    -0.1240  0.0000  0.0000  0.0000 -0.0350  0.0000  0.0000  0.8136
  12.  C 1 (d3)     0.0000 -0.1240  0.0000  0.0000  0.0000  0.0350  0.0000  0.0000
  13.  C 1 (d4)     0.0000  0.1823  0.0000  0.0000  0.0000  0.0878  0.0000  0.0000
  14.  C 1 (d1)     0.1823  0.0000  0.0000  0.0000 -0.0878  0.0000  0.0000  0.5831
  15. Si 2 (s)      0.0000  0.0000  0.0042 -0.0213  0.0000  0.0000 -0.0037  0.0000
  16. Si 2 (s)      0.0000  0.0000 -0.0372  0.0326  0.0000  0.0000  0.0249  0.0000
  17. Si 2 (px)    -0.0202  0.0000  0.0000  0.0000 -0.1164  0.0000  0.0000  0.0258
  18. Si 2 (py)     0.0000 -0.0202  0.0000  0.0000  0.0000  0.1164  0.0000  0.0000
  19. Si 2 (pz)     0.0000  0.0000 -0.0311  0.0305  0.0000  0.0000 -0.1031  0.0000
  20. Si 2 (s)      0.0000  0.0000 -0.0306 -0.5594  0.0000  0.0000 -0.0793  0.0000
  21. Si 2 (px)     0.0192  0.0000  0.0000  0.0000  0.3990  0.0000  0.0000 -0.1162
  22. Si 2 (py)     0.0000  0.0192  0.0000  0.0000  0.0000 -0.3990  0.0000  0.0000
  23. Si 2 (pz)     0.0000  0.0000  0.1436  0.1503  0.0000  0.0000  0.6932  0.0000
  24. Si 2 (s)      0.0000  0.0000 -0.3173  1.2419  0.0000  0.0000 -2.4195  0.0000
  25. Si 2 (px)     0.1041  0.0000  0.0000  0.0000 -0.4996  0.0000  0.0000 -0.1302
  26. Si 2 (py)     0.0000  0.1041  0.0000  0.0000  0.0000  0.4996  0.0000  0.0000
  27. Si 2 (pz)     0.0000  0.0000 -0.3264  0.2288  0.0000  0.0000  0.3649  0.0000
  28. Si 2 (d5)     0.0000  0.0000 -0.1078  0.3525  0.0000  0.0000 -0.5469  0.0000
  29. Si 2 (d2)    -0.0276  0.0000  0.0000  0.0000  0.3657  0.0000  0.0000  0.2776
  30. Si 2 (d3)     0.0000 -0.0276  0.0000  0.0000  0.0000 -0.3657  0.0000  0.0000
  31. Si 2 (d4)     0.0000 -0.1245  0.0000  0.0000  0.0000  0.5029  0.0000  0.0000
  32. Si 2 (d1)    -0.1245  0.0000  0.0000  0.0000 -0.5029  0.0000  0.0000 -0.0293
  33.  H 3 (s)      0.0000 -0.8287  0.4715 -0.0537  0.0000 -0.1114 -0.6360  0.0000
  34.  H 3 (s)      0.0000  1.4295 -1.0482 -0.6824  0.0000  0.3838 -0.0429  0.0000
  35.  H 4 (s)     -0.7177  0.4144  0.4715 -0.0537  0.0965  0.0557 -0.6360  0.0428
  36.  H 4 (s)      1.2379 -0.7147 -1.0482 -0.6824 -0.3324 -0.1919 -0.0429  0.0999
  37.  H 5 (s)      0.7177  0.4144  0.4715 -0.0537 -0.0965  0.0557 -0.6360 -0.0428
  38.  H 5 (s)     -1.2379 -0.7147 -1.0482 -0.6824  0.3324 -0.1919 -0.0429 -0.0999
  39.  H 6 (s)      0.0000 -0.1471 -0.3009  0.5696  0.0000  1.1064 -0.3377  0.0000
  40.  H 6 (s)      0.0000 -0.0054  0.4138 -0.8299  0.0000 -0.9838  0.7997  0.0000
  41.  H 7 (s)      0.1274  0.0736 -0.3009  0.5696  0.9582 -0.5532 -0.3377  0.0714
  42.  H 7 (s)      0.0046  0.0027  0.4138 -0.8299 -0.8520  0.4919  0.7997 -0.1189
  43.  H 8 (s)     -0.1274  0.0736 -0.3009  0.5696 -0.9582 -0.5532 -0.3377 -0.0714
  44.  H 8 (s)     -0.0046  0.0027  0.4138 -0.8299  0.8520  0.4919  0.7997  0.1189

           AO         41      42      43      44
      ------------ ------- ------- ------- -------
   1.  C 1 (s)      0.0000 -0.0221  0.0000  0.0000
   2.  C 1 (s)      0.0000 -0.3171  0.0000  0.0000
   3.  C 1 (px)     0.0000  0.0000  0.1433  0.0000
   4.  C 1 (py)    -0.0626  0.0000  0.0000  0.1433
   5.  C 1 (pz)     0.0000  0.0472  0.0000  0.0000
   6.  C 1 (s)      0.0000  0.7675  0.0000  0.0000
   7.  C 1 (px)     0.0000  0.0000  0.4923  0.0000
   8.  C 1 (py)     0.3074  0.0000  0.0000  0.4923
   9.  C 1 (pz)     0.0000  0.8819  0.0000  0.0000
  10.  C 1 (d5)     0.0000  1.1290  0.0000  0.0000
  11.  C 1 (d2)     0.0000  0.0000 -0.6685  0.0000
  12.  C 1 (d3)     0.8136  0.0000  0.0000 -0.6685
  13.  C 1 (d4)     0.5831  0.0000  0.0000  0.9107
  14.  C 1 (d1)     0.0000  0.0000  0.9107  0.0000
  15. Si 2 (s)      0.0000 -0.0175  0.0000  0.0000
  16. Si 2 (s)      0.0000  0.0360  0.0000  0.0000
  17. Si 2 (px)     0.0000  0.0000 -0.0044  0.0000
  18. Si 2 (py)     0.0258  0.0000  0.0000 -0.0044
  19. Si 2 (pz)     0.0000 -0.1183  0.0000  0.0000
  20. Si 2 (s)      0.0000 -0.4562  0.0000  0.0000
  21. Si 2 (px)     0.0000  0.0000 -0.0040  0.0000
  22. Si 2 (py)    -0.1162  0.0000  0.0000 -0.0040
  23. Si 2 (pz)     0.0000  0.7473  0.0000  0.0000
  24. Si 2 (s)      0.0000 -0.6193  0.0000  0.0000
  25. Si 2 (px)     0.0000  0.0000 -0.1932  0.0000
  26. Si 2 (py)    -0.1302  0.0000  0.0000 -0.1932
  27. Si 2 (pz)     0.0000  0.0780  0.0000  0.0000
  28. Si 2 (d5)     0.0000 -0.5176  0.0000  0.0000
  29. Si 2 (d2)     0.0000  0.0000 -0.0032  0.0000
  30. Si 2 (d3)     0.2776  0.0000  0.0000 -0.0032
  31. Si 2 (d4)    -0.0293  0.0000  0.0000 -0.0137
  32. Si 2 (d1)     0.0000  0.0000 -0.0137  0.0000
  33.  H 3 (s)      0.0495  0.1882  0.0000  0.8191
  34.  H 3 (s)      0.1154  0.0406  0.0000 -0.1186
  35.  H 4 (s)     -0.0247  0.1882  0.7094 -0.4096
  36.  H 4 (s)     -0.0577  0.0406 -0.1027  0.0593
  37.  H 5 (s)     -0.0247  0.1882 -0.7094 -0.4096
  38.  H 5 (s)     -0.0577  0.0406  0.1027  0.0593
  39.  H 6 (s)     -0.0825 -0.0934  0.0000 -0.0280
  40.  H 6 (s)      0.1372  0.1632  0.0000  0.1173
  41.  H 7 (s)      0.0412 -0.0934  0.0242  0.0140
  42.  H 7 (s)     -0.0686  0.1632 -0.1015 -0.0586
  43.  H 8 (s)      0.0412 -0.0934 -0.0242  0.0140
  44.  H 8 (s)     -0.0686  0.1632  0.1015 -0.0586


 AO overlap matrix:

           AO          1       2       3       4       5       6       7       8
      ------------ ------- ------- ------- ------- ------- ------- ------- -------
   1.  C 1 (s)      1.0000  0.2191  0.0000  0.0000  0.0000  0.1843  0.0000  0.0000
   2.  C 1 (s)      0.2191  1.0000  0.0000  0.0000  0.0000  0.8123  0.0000  0.0000
   3.  C 1 (px)     0.0000  0.0000  1.0000  0.0000  0.0000  0.0000  0.5698  0.0000
   4.  C 1 (py)     0.0000  0.0000  0.0000  1.0000  0.0000  0.0000  0.0000  0.5698
   5.  C 1 (pz)     0.0000  0.0000  0.0000  0.0000  1.0000  0.0000  0.0000  0.0000
   6.  C 1 (s)      0.1843  0.8123  0.0000  0.0000  0.0000  1.0000  0.0000  0.0000
   7.  C 1 (px)     0.0000  0.0000  0.5698  0.0000  0.0000  0.0000  1.0000  0.0000
   8.  C 1 (py)     0.0000  0.0000  0.0000  0.5698  0.0000  0.0000  0.0000  1.0000
   9.  C 1 (pz)     0.0000  0.0000  0.0000  0.0000  0.5698  0.0000  0.0000  0.0000
  10.  C 1 (d5)     0.0000  0.0000  0.0000  0.0000  0.0000  0.0000  0.0000  0.0000
  11.  C 1 (d2)     0.0000  0.0000  0.0000  0.0000  0.0000  0.0000  0.0000  0.0000
  12.  C 1 (d3)     0.0000  0.0000  0.0000  0.0000  0.0000  0.0000  0.0000  0.0000
  13.  C 1 (d4)     0.0000  0.0000  0.0000  0.0000  0.0000  0.0000  0.0000  0.0000
  14.  C 1 (d1)     0.0000  0.0000  0.0000  0.0000  0.0000  0.0000  0.0000  0.0000
  15. Si 2 (s)      0.0000  0.0002  0.0000  0.0000  0.0006  0.0063  0.0000  0.0000
  16. Si 2 (s)      0.0000  0.0049  0.0000  0.0000  0.0122  0.0579  0.0000  0.0000
  17. Si 2 (px)     0.0000  0.0000  0.0019  0.0000  0.0000  0.0000  0.0234  0.0000
  18. Si 2 (py)     0.0000  0.0000  0.0000  0.0019  0.0000  0.0000  0.0000  0.0234
  19. Si 2 (pz)     0.0000 -0.0074  0.0000  0.0000 -0.0170 -0.0342  0.0000  0.0000
  20. Si 2 (s)      0.0169  0.1385  0.0000  0.0000  0.1582  0.3082  0.0000  0.0000
  21. Si 2 (px)     0.0000  0.0000  0.0758  0.0000  0.0000  0.0000  0.2639  0.0000
  22. Si 2 (py)     0.0000  0.0000  0.0000  0.0758  0.0000  0.0000  0.0000  0.2639
  23. Si 2 (pz)    -0.0401 -0.2595  0.0000  0.0000 -0.2511 -0.3851  0.0000  0.0000
  24. Si 2 (s)      0.0404  0.2413  0.0000  0.0000  0.1233  0.4575  0.0000  0.0000
  25. Si 2 (px)     0.0000  0.0000  0.1244  0.0000  0.0000  0.0000  0.4253  0.0000
  26. Si 2 (py)     0.0000  0.0000  0.0000  0.1244  0.0000  0.0000  0.0000  0.4253
  27. Si 2 (pz)    -0.0788 -0.4151  0.0000  0.0000 -0.0916 -0.6207  0.0000  0.0000
  28. Si 2 (d5)     0.0218  0.1874  0.0000  0.0000  0.2382  0.1742  0.0000  0.0000
  29. Si 2 (d2)     0.0000  0.0000 -0.0928  0.0000  0.0000  0.0000 -0.2068  0.0000
  30. Si 2 (d3)     0.0000  0.0000  0.0000 -0.0928  0.0000  0.0000  0.0000 -0.2068
  31. Si 2 (d4)     0.0000  0.0000  0.0000  0.0000  0.0000  0.0000  0.0000  0.0000
  32. Si 2 (d1)     0.0000  0.0000  0.0000  0.0000  0.0000  0.0000  0.0000  0.0000
  33.  H 3 (s)      0.0324  0.2721  0.0000 -0.3433 -0.1319  0.3761  0.0000 -0.4806
  34.  H 3 (s)      0.0919  0.4750  0.0000 -0.2480 -0.0953  0.7034  0.0000 -0.5442
  35.  H 4 (s)      0.0324  0.2721 -0.2973  0.1717 -0.1319  0.3761 -0.4162  0.2403
  36.  H 4 (s)      0.0919  0.4750 -0.2148  0.1240 -0.0953  0.7034 -0.4713  0.2721
  37.  H 5 (s)      0.0324  0.2721  0.2973  0.1717 -0.1319  0.3761  0.4162  0.2403
  38.  H 5 (s)      0.0919  0.4750  0.2148  0.1240 -0.0953  0.7034  0.4713  0.2721
  39.  H 6 (s)      0.0000  0.0003  0.0000  0.0004  0.0007  0.0160  0.0000  0.0277
  40.  H 6 (s)      0.0025  0.0273  0.0000  0.0178  0.0307  0.1032  0.0000  0.1090
  41.  H 7 (s)      0.0000  0.0003 -0.0003 -0.0002  0.0007  0.0160 -0.0240 -0.0139
  42.  H 7 (s)      0.0025  0.0273 -0.0154 -0.0089  0.0307  0.1032 -0.0944 -0.0545
  43.  H 8 (s)      0.0000  0.0003  0.0003 -0.0002  0.0007  0.0160  0.0240 -0.0139
  44.  H 8 (s)      0.0025  0.0273  0.0154 -0.0089  0.0307  0.1032  0.0944 -0.0545

           AO          9      10      11      12      13      14      15      16
      ------------ ------- ------- ------- ------- ------- ------- ------- -------
   1.  C 1 (s)      0.0000  0.0000  0.0000  0.0000  0.0000  0.0000  0.0000  0.0000
   2.  C 1 (s)      0.0000  0.0000  0.0000  0.0000  0.0000  0.0000  0.0002  0.0049
   3.  C 1 (px)     0.0000  0.0000  0.0000  0.0000  0.0000  0.0000  0.0000  0.0000
   4.  C 1 (py)     0.0000  0.0000  0.0000  0.0000  0.0000  0.0000  0.0000  0.0000
   5.  C 1 (pz)     0.5698  0.0000  0.0000  0.0000  0.0000  0.0000  0.0006  0.0122
   6.  C 1 (s)      0.0000  0.0000  0.0000  0.0000  0.0000  0.0000  0.0063  0.0579
   7.  C 1 (px)     0.0000  0.0000  0.0000  0.0000  0.0000  0.0000  0.0000  0.0000
   8.  C 1 (py)     0.0000  0.0000  0.0000  0.0000  0.0000  0.0000  0.0000  0.0000
   9.  C 1 (pz)     1.0000  0.0000  0.0000  0.0000  0.0000  0.0000  0.0183  0.1535
  10.  C 1 (d5)     0.0000  1.0000  0.0000  0.0000  0.0000  0.0000  0.0002  0.0098
  11.  C 1 (d2)     0.0000  0.0000  1.0000  0.0000  0.0000  0.0000  0.0000  0.0000
  12.  C 1 (d3)     0.0000  0.0000  0.0000  1.0000  0.0000  0.0000  0.0000  0.0000
  13.  C 1 (d4)     0.0000  0.0000  0.0000  0.0000  1.0000  0.0000  0.0000  0.0000
  14.  C 1 (d1)     0.0000  0.0000  0.0000  0.0000  0.0000  1.0000  0.0000  0.0000
  15. Si 2 (s)      0.0183  0.0002  0.0000  0.0000  0.0000  0.0000  1.0000  0.2523
  16. Si 2 (s)      0.1535  0.0098  0.0000  0.0000  0.0000  0.0000  0.2523  1.0000
  17. Si 2 (px)     0.0000  0.0000  0.0026  0.0000  0.0000  0.0000  0.0000  0.0000
  18. Si 2 (py)     0.0000  0.0000  0.0000  0.0026  0.0000  0.0000  0.0000  0.0000
  19. Si 2 (pz)    -0.0674 -0.0164  0.0000  0.0000  0.0000  0.0000  0.0000  0.0000
  20. Si 2 (s)      0.4966  0.0988  0.0000  0.0000  0.0000  0.0000  0.0039  0.2816
  21. Si 2 (px)     0.0000  0.0000  0.0857  0.0000  0.0000  0.0000  0.0000  0.0000
  22. Si 2 (py)     0.0000  0.0000  0.0000  0.0857  0.0000  0.0000  0.0000  0.0000
  23. Si 2 (pz)    -0.4015 -0.1402  0.0000  0.0000  0.0000  0.0000  0.0000  0.0000
  24. Si 2 (s)      0.4216  0.0321  0.0000  0.0000  0.0000  0.0000  0.0294  0.2422
  25. Si 2 (px)     0.0000  0.0000  0.0561  0.0000  0.0000  0.0000  0.0000  0.0000
  26. Si 2 (py)     0.0000  0.0000  0.0000  0.0561  0.0000  0.0000  0.0000  0.0000
  27. Si 2 (pz)    -0.1466  0.0068  0.0000  0.0000  0.0000  0.0000  0.0000  0.0000
  28. Si 2 (d5)     0.1311  0.2041  0.0000  0.0000  0.0000  0.0000  0.0000  0.0000
  29. Si 2 (d2)     0.0000  0.0000 -0.1433  0.0000  0.0000  0.0000  0.0000  0.0000
  30. Si 2 (d3)     0.0000  0.0000  0.0000 -0.1433  0.0000  0.0000  0.0000  0.0000
  31. Si 2 (d4)     0.0000  0.0000  0.0000  0.0000  0.0229  0.0000  0.0000  0.0000
  32. Si 2 (d1)     0.0000  0.0000  0.0000  0.0000  0.0000  0.0229  0.0000  0.0000
  33.  H 3 (s)     -0.1847 -0.1035  0.0000  0.1956 -0.2545  0.0000  0.0000  0.0000
  34.  H 3 (s)     -0.2091 -0.0248  0.0000  0.0469 -0.0610  0.0000  0.0015  0.0150
  35.  H 4 (s)     -0.1847 -0.1035  0.1694 -0.0978  0.1273 -0.2204  0.0000  0.0000
  36.  H 4 (s)     -0.2091 -0.0248  0.0406 -0.0234  0.0305 -0.0528  0.0015  0.0150
  37.  H 5 (s)     -0.1847 -0.1035 -0.1694 -0.0978  0.1273  0.2204  0.0000  0.0000
  38.  H 5 (s)     -0.2091 -0.0248 -0.0406 -0.0234  0.0305  0.0528  0.0015  0.0150
  39.  H 6 (s)      0.0479  0.0003  0.0000  0.0003 -0.0001  0.0000  0.0008  0.0165
  40.  H 6 (s)      0.1882  0.0143  0.0000  0.0173 -0.0050  0.0000  0.0143  0.1222
  41.  H 7 (s)      0.0479  0.0003 -0.0003 -0.0002  0.0000  0.0001  0.0008  0.0165
  42.  H 7 (s)      0.1882  0.0143 -0.0149 -0.0086  0.0025  0.0043  0.0143  0.1222
  43.  H 8 (s)      0.0479  0.0003  0.0003 -0.0002  0.0000 -0.0001  0.0008  0.0165
  44.  H 8 (s)      0.1882  0.0143  0.0149 -0.0086  0.0025 -0.0043  0.0143  0.1222

           AO         17      18      19      20      21      22      23      24
      ------------ ------- ------- ------- ------- ------- ------- ------- -------
   1.  C 1 (s)      0.0000  0.0000  0.0000  0.0169  0.0000  0.0000 -0.0401  0.0404
   2.  C 1 (s)      0.0000  0.0000 -0.0074  0.1385  0.0000  0.0000 -0.2595  0.2413
   3.  C 1 (px)     0.0019  0.0000  0.0000  0.0000  0.0758  0.0000  0.0000  0.0000
   4.  C 1 (py)     0.0000  0.0019  0.0000  0.0000  0.0000  0.0758  0.0000  0.0000
   5.  C 1 (pz)     0.0000  0.0000 -0.0170  0.1582  0.0000  0.0000 -0.2511  0.1233
   6.  C 1 (s)      0.0000  0.0000 -0.0342  0.3082  0.0000  0.0000 -0.3851  0.4575
   7.  C 1 (px)     0.0234  0.0000  0.0000  0.0000  0.2639  0.0000  0.0000  0.0000
   8.  C 1 (py)     0.0000  0.0234  0.0000  0.0000  0.0000  0.2639  0.0000  0.0000
   9.  C 1 (pz)     0.0000  0.0000 -0.0674  0.4966  0.0000  0.0000 -0.4015  0.4216
  10.  C 1 (d5)     0.0000  0.0000 -0.0164  0.0988  0.0000  0.0000 -0.1402  0.0321
  11.  C 1 (d2)     0.0026  0.0000  0.0000  0.0000  0.0857  0.0000  0.0000  0.0000
  12.  C 1 (d3)     0.0000  0.0026  0.0000  0.0000  0.0000  0.0857  0.0000  0.0000
  13.  C 1 (d4)     0.0000  0.0000  0.0000  0.0000  0.0000  0.0000  0.0000  0.0000
  14.  C 1 (d1)     0.0000  0.0000  0.0000  0.0000  0.0000  0.0000  0.0000  0.0000
  15. Si 2 (s)      0.0000  0.0000  0.0000  0.0039  0.0000  0.0000  0.0000  0.0294
  16. Si 2 (s)      0.0000  0.0000  0.0000  0.2816  0.0000  0.0000  0.0000  0.2422
  17. Si 2 (px)     1.0000  0.0000  0.0000  0.0000  0.2800  0.0000  0.0000  0.0000
  18. Si 2 (py)     0.0000  1.0000  0.0000  0.0000  0.0000  0.2800  0.0000  0.0000
  19. Si 2 (pz)     0.0000  0.0000  1.0000  0.0000  0.0000  0.0000  0.2800  0.0000
  20. Si 2 (s)      0.0000  0.0000  0.0000  1.0000  0.0000  0.0000  0.0000  0.8403
  21. Si 2 (px)     0.2800  0.0000  0.0000  0.0000  1.0000  0.0000  0.0000  0.0000
  22. Si 2 (py)     0.0000  0.2800  0.0000  0.0000  0.0000  1.0000  0.0000  0.0000
  23. Si 2 (pz)     0.0000  0.0000  0.2800  0.0000  0.0000  0.0000  1.0000  0.0000
  24. Si 2 (s)      0.0000  0.0000  0.0000  0.8403  0.0000  0.0000  0.0000  1.0000
  25. Si 2 (px)     0.0701  0.0000  0.0000  0.0000  0.6603  0.0000  0.0000  0.0000
  26. Si 2 (py)     0.0000  0.0701  0.0000  0.0000  0.0000  0.6603  0.0000  0.0000
  27. Si 2 (pz)     0.0000  0.0000  0.0701  0.0000  0.0000  0.0000  0.6603  0.0000
  28. Si 2 (d5)     0.0000  0.0000  0.0000  0.0000  0.0000  0.0000  0.0000  0.0000
  29. Si 2 (d2)     0.0000  0.0000  0.0000  0.0000  0.0000  0.0000  0.0000  0.0000
  30. Si 2 (d3)     0.0000  0.0000  0.0000  0.0000  0.0000  0.0000  0.0000  0.0000
  31. Si 2 (d4)     0.0000  0.0000  0.0000  0.0000  0.0000  0.0000  0.0000  0.0000
  32. Si 2 (d1)     0.0000  0.0000  0.0000  0.0000  0.0000  0.0000  0.0000  0.0000
  33.  H 3 (s)      0.0000  0.0000 -0.0001  0.0200  0.0000 -0.0203 -0.0452  0.0941
  34.  H 3 (s)      0.0000 -0.0046 -0.0103  0.1323  0.0000 -0.0832 -0.1853  0.2836
  35.  H 4 (s)      0.0000  0.0000 -0.0001  0.0200 -0.0176  0.0101 -0.0452  0.0941
  36.  H 4 (s)     -0.0040  0.0023 -0.0103  0.1323 -0.0720  0.0416 -0.1853  0.2836
  37.  H 5 (s)      0.0000  0.0000 -0.0001  0.0200  0.0176  0.0101 -0.0452  0.0941
  38.  H 5 (s)      0.0040  0.0023 -0.0103  0.1323  0.0720  0.0416 -0.1853  0.2836
  39.  H 6 (s)      0.0000  0.0213  0.0080  0.2148  0.0000  0.3423  0.1287  0.2553
  40.  H 6 (s)      0.0000  0.0513  0.0193  0.4847  0.0000  0.4523  0.1700  0.5996
  41.  H 7 (s)     -0.0185 -0.0107  0.0080  0.2148 -0.2964 -0.1712  0.1287  0.2553
  42.  H 7 (s)     -0.0444 -0.0257  0.0193  0.4847 -0.3917 -0.2261  0.1700  0.5996
  43.  H 8 (s)      0.0185 -0.0107  0.0080  0.2148  0.2964 -0.1712  0.1287  0.2553
  44.  H 8 (s)      0.0444 -0.0257  0.0193  0.4847  0.3917 -0.2261  0.1700  0.5996

           AO         25      26      27      28      29      30      31      32
      ------------ ------- ------- ------- ------- ------- ------- ------- -------
   1.  C 1 (s)      0.0000  0.0000 -0.0788  0.0218  0.0000  0.0000  0.0000  0.0000
   2.  C 1 (s)      0.0000  0.0000 -0.4151  0.1874  0.0000  0.0000  0.0000  0.0000
   3.  C 1 (px)     0.1244  0.0000  0.0000  0.0000 -0.0928  0.0000  0.0000  0.0000
   4.  C 1 (py)     0.0000  0.1244  0.0000  0.0000  0.0000 -0.0928  0.0000  0.0000
   5.  C 1 (pz)     0.0000  0.0000 -0.0916  0.2382  0.0000  0.0000  0.0000  0.0000
   6.  C 1 (s)      0.0000  0.0000 -0.6207  0.1742  0.0000  0.0000  0.0000  0.0000
   7.  C 1 (px)     0.4253  0.0000  0.0000  0.0000 -0.2068  0.0000  0.0000  0.0000
   8.  C 1 (py)     0.0000  0.4253  0.0000  0.0000  0.0000 -0.2068  0.0000  0.0000
   9.  C 1 (pz)     0.0000  0.0000 -0.1466  0.1311  0.0000  0.0000  0.0000  0.0000
  10.  C 1 (d5)     0.0000  0.0000  0.0068  0.2041  0.0000  0.0000  0.0000  0.0000
  11.  C 1 (d2)     0.0561  0.0000  0.0000  0.0000 -0.1433  0.0000  0.0000  0.0000
  12.  C 1 (d3)     0.0000  0.0561  0.0000  0.0000  0.0000 -0.1433  0.0000  0.0000
  13.  C 1 (d4)     0.0000  0.0000  0.0000  0.0000  0.0000  0.0000  0.0229  0.0000
  14.  C 1 (d1)     0.0000  0.0000  0.0000  0.0000  0.0000  0.0000  0.0000  0.0229
  15. Si 2 (s)      0.0000  0.0000  0.0000  0.0000  0.0000  0.0000  0.0000  0.0000
  16. Si 2 (s)      0.0000  0.0000  0.0000  0.0000  0.0000  0.0000  0.0000  0.0000
  17. Si 2 (px)     0.0701  0.0000  0.0000  0.0000  0.0000  0.0000  0.0000  0.0000
  18. Si 2 (py)     0.0000  0.0701  0.0000  0.0000  0.0000  0.0000  0.0000  0.0000
  19. Si 2 (pz)     0.0000  0.0000  0.0701  0.0000  0.0000  0.0000  0.0000  0.0000
  20. Si 2 (s)      0.0000  0.0000  0.0000  0.0000  0.0000  0.0000  0.0000  0.0000
  21. Si 2 (px)     0.6603  0.0000  0.0000  0.0000  0.0000  0.0000  0.0000  0.0000
  22. Si 2 (py)     0.0000  0.6603  0.0000  0.0000  0.0000  0.0000  0.0000  0.0000
  23. Si 2 (pz)     0.0000  0.0000  0.6603  0.0000  0.0000  0.0000  0.0000  0.0000
  24. Si 2 (s)      0.0000  0.0000  0.0000  0.0000  0.0000  0.0000  0.0000  0.0000
  25. Si 2 (px)     1.0000  0.0000  0.0000  0.0000  0.0000  0.0000  0.0000  0.0000
  26. Si 2 (py)     0.0000  1.0000  0.0000  0.0000  0.0000  0.0000  0.0000  0.0000
  27. Si 2 (pz)     0.0000  0.0000  1.0000  0.0000  0.0000  0.0000  0.0000  0.0000
  28. Si 2 (d5)     0.0000  0.0000  0.0000  1.0000  0.0000  0.0000  0.0000  0.0000
  29. Si 2 (d2)     0.0000  0.0000  0.0000  0.0000  1.0000  0.0000  0.0000  0.0000
  30. Si 2 (d3)     0.0000  0.0000  0.0000  0.0000  0.0000  1.0000  0.0000  0.0000
  31. Si 2 (d4)     0.0000  0.0000  0.0000  0.0000  0.0000  0.0000  1.0000  0.0000
  32. Si 2 (d1)     0.0000  0.0000  0.0000  0.0000  0.0000  0.0000  0.0000  1.0000
  33.  H 3 (s)      0.0000 -0.0910 -0.2027  0.0139  0.0000  0.0120 -0.0027  0.0000
  34.  H 3 (s)      0.0000 -0.2057 -0.4583  0.0716  0.0000  0.0619 -0.0139  0.0000
  35.  H 4 (s)     -0.0788  0.0455 -0.2027  0.0139  0.0104 -0.0060  0.0013 -0.0023
  36.  H 4 (s)     -0.1781  0.1028 -0.4583  0.0716  0.0536 -0.0309  0.0069 -0.0120
  37.  H 5 (s)      0.0788  0.0455 -0.2027  0.0139 -0.0104 -0.0060  0.0013  0.0023
  38.  H 5 (s)      0.1781  0.1028 -0.4583  0.0716 -0.0536 -0.0309  0.0069  0.0120
  39.  H 6 (s)      0.0000  0.3369  0.1267 -0.1003  0.0000  0.1821 -0.2422  0.0000
  40.  H 6 (s)      0.0000  0.5932  0.2230 -0.0582  0.0000  0.1056 -0.1405  0.0000
  41.  H 7 (s)     -0.2918 -0.1685  0.1267 -0.1003 -0.1577 -0.0910  0.1211  0.2097
  42.  H 7 (s)     -0.5138 -0.2966  0.2230 -0.0582 -0.0914 -0.0528  0.0702  0.1216
  43.  H 8 (s)      0.2918 -0.1685  0.1267 -0.1003  0.1577 -0.0910  0.1211 -0.2097
  44.  H 8 (s)      0.5138 -0.2966  0.2230 -0.0582  0.0914 -0.0528  0.0702 -0.1216

           AO         33      34      35      36      37      38      39      40
      ------------ ------- ------- ------- ------- ------- ------- ------- -------
   1.  C 1 (s)      0.0324  0.0919  0.0324  0.0919  0.0324  0.0919  0.0000  0.0025
   2.  C 1 (s)      0.2721  0.4750  0.2721  0.4750  0.2721  0.4750  0.0003  0.0273
   3.  C 1 (px)     0.0000  0.0000 -0.2973 -0.2148  0.2973  0.2148  0.0000  0.0000
   4.  C 1 (py)    -0.3433 -0.2480  0.1717  0.1240  0.1717  0.1240  0.0004  0.0178
   5.  C 1 (pz)    -0.1319 -0.0953 -0.1319 -0.0953 -0.1319 -0.0953  0.0007  0.0307
   6.  C 1 (s)      0.3761  0.7034  0.3761  0.7034  0.3761  0.7034  0.0160  0.1032
   7.  C 1 (px)     0.0000  0.0000 -0.4162 -0.4713  0.4162  0.4713  0.0000  0.0000
   8.  C 1 (py)    -0.4806 -0.5442  0.2403  0.2721  0.2403  0.2721  0.0277  0.1090
   9.  C 1 (pz)    -0.1847 -0.2091 -0.1847 -0.2091 -0.1847 -0.2091  0.0479  0.1882
  10.  C 1 (d5)    -0.1035 -0.0248 -0.1035 -0.0248 -0.1035 -0.0248  0.0003  0.0143
  11.  C 1 (d2)     0.0000  0.0000  0.1694  0.0406 -0.1694 -0.0406  0.0000  0.0000
  12.  C 1 (d3)     0.1956  0.0469 -0.0978 -0.0234 -0.0978 -0.0234  0.0003  0.0173
  13.  C 1 (d4)    -0.2545 -0.0610  0.1273  0.0305  0.1273  0.0305 -0.0001 -0.0050
  14.  C 1 (d1)     0.0000  0.0000 -0.2204 -0.0528  0.2204  0.0528  0.0000  0.0000
  15. Si 2 (s)      0.0000  0.0015  0.0000  0.0015  0.0000  0.0015  0.0008  0.0143
  16. Si 2 (s)      0.0000  0.0150  0.0000  0.0150  0.0000  0.0150  0.0165  0.1222
  17. Si 2 (px)     0.0000  0.0000  0.0000 -0.0040  0.0000  0.0040  0.0000  0.0000
  18. Si 2 (py)     0.0000 -0.0046  0.0000  0.0023  0.0000  0.0023  0.0213  0.0513
  19. Si 2 (pz)    -0.0001 -0.0103 -0.0001 -0.0103 -0.0001 -0.0103  0.0080  0.0193
  20. Si 2 (s)      0.0200  0.1323  0.0200  0.1323  0.0200  0.1323  0.2148  0.4847
  21. Si 2 (px)     0.0000  0.0000 -0.0176 -0.0720  0.0176  0.0720  0.0000  0.0000
  22. Si 2 (py)    -0.0203 -0.0832  0.0101  0.0416  0.0101  0.0416  0.3423  0.4523
  23. Si 2 (pz)    -0.0452 -0.1853 -0.0452 -0.1853 -0.0452 -0.1853  0.1287  0.1700
  24. Si 2 (s)      0.0941  0.2836  0.0941  0.2836  0.0941  0.2836  0.2553  0.5996
  25. Si 2 (px)     0.0000  0.0000 -0.0788 -0.1781  0.0788  0.1781  0.0000  0.0000
  26. Si 2 (py)    -0.0910 -0.2057  0.0455  0.1028  0.0455  0.1028  0.3369  0.5932
  27. Si 2 (pz)    -0.2027 -0.4583 -0.2027 -0.4583 -0.2027 -0.4583  0.1267  0.2230
  28. Si 2 (d5)     0.0139  0.0716  0.0139  0.0716  0.0139  0.0716 -0.1003 -0.0582
  29. Si 2 (d2)     0.0000  0.0000  0.0104  0.0536 -0.0104 -0.0536  0.0000  0.0000
  30. Si 2 (d3)     0.0120  0.0619 -0.0060 -0.0309 -0.0060 -0.0309  0.1821  0.1056
  31. Si 2 (d4)    -0.0027 -0.0139  0.0013  0.0069  0.0013  0.0069 -0.2422 -0.1405
  32. Si 2 (d1)     0.0000  0.0000 -0.0023 -0.0120  0.0023  0.0120  0.0000  0.0000
  33.  H 3 (s)      1.0000  0.6583  0.0195  0.1526  0.0195  0.1526  0.0000  0.0012
  34.  H 3 (s)      0.6583  1.0000  0.1526  0.4072  0.1526  0.4072  0.0012  0.0198
  35.  H 4 (s)      0.0195  0.1526  1.0000  0.6583  0.0195  0.1526  0.0000  0.0083
  36.  H 4 (s)      0.1526  0.4072  0.6583  1.0000  0.1526  0.4072  0.0083  0.0673
  37.  H 5 (s)      0.0195  0.1526  0.0195  0.1526  1.0000  0.6583  0.0000  0.0083
  38.  H 5 (s)      0.1526  0.4072  0.1526  0.4072  0.6583  1.0000  0.0083  0.0673
  39.  H 6 (s)      0.0000  0.0012  0.0000  0.0083  0.0000  0.0083  1.0000  0.6583
  40.  H 6 (s)      0.0012  0.0198  0.0083  0.0673  0.0083  0.0673  0.6583  1.0000
  41.  H 7 (s)      0.0000  0.0083  0.0000  0.0083  0.0000  0.0012  0.0009  0.0435
  42.  H 7 (s)      0.0083  0.0673  0.0083  0.0673  0.0012  0.0198  0.0435  0.1879
  43.  H 8 (s)      0.0000  0.0083  0.0000  0.0012  0.0000  0.0083  0.0009  0.0435
  44.  H 8 (s)      0.0083  0.0673  0.0012  0.0198  0.0083  0.0673  0.0435  0.1879

           AO         41      42      43      44
      ------------ ------- ------- ------- -------
   1.  C 1 (s)      0.0000  0.0025  0.0000  0.0025
   2.  C 1 (s)      0.0003  0.0273  0.0003  0.0273
   3.  C 1 (px)    -0.0003 -0.0154  0.0003  0.0154
   4.  C 1 (py)    -0.0002 -0.0089 -0.0002 -0.0089
   5.  C 1 (pz)     0.0007  0.0307  0.0007  0.0307
   6.  C 1 (s)      0.0160  0.1032  0.0160  0.1032
   7.  C 1 (px)    -0.0240 -0.0944  0.0240  0.0944
   8.  C 1 (py)    -0.0139 -0.0545 -0.0139 -0.0545
   9.  C 1 (pz)     0.0479  0.1882  0.0479  0.1882
  10.  C 1 (d5)     0.0003  0.0143  0.0003  0.0143
  11.  C 1 (d2)    -0.0003 -0.0149  0.0003  0.0149
  12.  C 1 (d3)    -0.0002 -0.0086 -0.0002 -0.0086
  13.  C 1 (d4)     0.0000  0.0025  0.0000  0.0025
  14.  C 1 (d1)     0.0001  0.0043 -0.0001 -0.0043
  15. Si 2 (s)      0.0008  0.0143  0.0008  0.0143
  16. Si 2 (s)      0.0165  0.1222  0.0165  0.1222
  17. Si 2 (px)    -0.0185 -0.0444  0.0185  0.0444
  18. Si 2 (py)    -0.0107 -0.0257 -0.0107 -0.0257
  19. Si 2 (pz)     0.0080  0.0193  0.0080  0.0193
  20. Si 2 (s)      0.2148  0.4847  0.2148  0.4847
  21. Si 2 (px)    -0.2964 -0.3917  0.2964  0.3917
  22. Si 2 (py)    -0.1712 -0.2261 -0.1712 -0.2261
  23. Si 2 (pz)     0.1287  0.1700  0.1287  0.1700
  24. Si 2 (s)      0.2553  0.5996  0.2553  0.5996
  25. Si 2 (px)    -0.2918 -0.5138  0.2918  0.5138
  26. Si 2 (py)    -0.1685 -0.2966 -0.1685 -0.2966
  27. Si 2 (pz)     0.1267  0.2230  0.1267  0.2230
  28. Si 2 (d5)    -0.1003 -0.0582 -0.1003 -0.0582
  29. Si 2 (d2)    -0.1577 -0.0914  0.1577  0.0914
  30. Si 2 (d3)    -0.0910 -0.0528 -0.0910 -0.0528
  31. Si 2 (d4)     0.1211  0.0702  0.1211  0.0702
  32. Si 2 (d1)     0.2097  0.1216 -0.2097 -0.1216
  33.  H 3 (s)      0.0000  0.0083  0.0000  0.0083
  34.  H 3 (s)      0.0083  0.0673  0.0083  0.0673
  35.  H 4 (s)      0.0000  0.0083  0.0000  0.0012
  36.  H 4 (s)      0.0083  0.0673  0.0012  0.0198
  37.  H 5 (s)      0.0000  0.0012  0.0000  0.0083
  38.  H 5 (s)      0.0012  0.0198  0.0083  0.0673
  39.  H 6 (s)      0.0009  0.0435  0.0009  0.0435
  40.  H 6 (s)      0.0435  0.1879  0.0435  0.1879
  41.  H 7 (s)      1.0000  0.6583  0.0009  0.0435
  42.  H 7 (s)      0.6583  1.0000  0.0435  0.1879
  43.  H 8 (s)      0.0009  0.0435  1.0000  0.6583
  44.  H 8 (s)      0.0435  0.1879  0.6583  1.0000


 AO bond-order matrix:

           AO          1       2       3       4       5       6       7       8
      ------------ ------- ------- ------- ------- ------- ------- ------- -------
   1.  C 1 (s)      2.0624 -0.0940  0.0000  0.0000 -0.0031 -0.1891  0.0000  0.0000
   2.  C 1 (s)     -0.0940  0.2706  0.0000  0.0000 -0.0006  0.2928  0.0000  0.0000
   3.  C 1 (px)     0.0000  0.0000  0.3684  0.0000  0.0000  0.0000  0.2111  0.0000
   4.  C 1 (py)     0.0000  0.0000  0.0000  0.3684  0.0000  0.0000  0.0000  0.2111
   5.  C 1 (pz)    -0.0031 -0.0006  0.0000  0.0000  0.3869  0.0686  0.0000  0.0000
   6.  C 1 (s)     -0.1891  0.2928  0.0000  0.0000  0.0686  0.3343  0.0000  0.0000
   7.  C 1 (px)     0.0000  0.0000  0.2111  0.0000  0.0000  0.0000  0.1213  0.0000
   8.  C 1 (py)     0.0000  0.0000  0.0000  0.2111  0.0000  0.0000  0.0000  0.1213
   9.  C 1 (pz)    -0.0083  0.0119  0.0000  0.0000  0.2574  0.0603  0.0000  0.0000
  10.  C 1 (d5)     0.0017 -0.0039  0.0000  0.0000  0.0186 -0.0012  0.0000  0.0000
  11.  C 1 (d2)     0.0000  0.0000 -0.0172  0.0000  0.0000  0.0000 -0.0100  0.0000
  12.  C 1 (d3)     0.0000  0.0000  0.0000 -0.0172  0.0000  0.0000  0.0000 -0.0100
  13.  C 1 (d4)     0.0000  0.0000  0.0000  0.0250  0.0000  0.0000  0.0000  0.0144
  14.  C 1 (d1)     0.0000  0.0000  0.0250  0.0000  0.0000  0.0000  0.0144  0.0000
  15. Si 2 (s)     -0.0032  0.0043  0.0000  0.0000  0.0191  0.0107  0.0000  0.0000
  16. Si 2 (s)      0.0150 -0.0250  0.0000  0.0000 -0.0888 -0.0363  0.0000  0.0000
  17. Si 2 (px)     0.0000  0.0000 -0.0075  0.0000  0.0000  0.0000 -0.0038  0.0000
  18. Si 2 (py)     0.0000  0.0000  0.0000 -0.0075  0.0000  0.0000  0.0000 -0.0038
  19. Si 2 (pz)    -0.0251  0.0440  0.0000  0.0000  0.1177  0.0863  0.0000  0.0000
  20. Si 2 (s)     -0.0234  0.0428  0.0000  0.0000  0.1880  0.0560  0.0000  0.0000
  21. Si 2 (px)     0.0000  0.0000  0.0104  0.0000  0.0000  0.0000 -0.0050  0.0000
  22. Si 2 (py)     0.0000  0.0000  0.0000  0.0104  0.0000  0.0000  0.0000 -0.0050
  23. Si 2 (pz)     0.0524 -0.0974  0.0000  0.0000 -0.2822 -0.1649  0.0000  0.0000
  24. Si 2 (s)      0.0098 -0.0103  0.0000  0.0000  0.0160 -0.0148  0.0000  0.0000
  25. Si 2 (px)     0.0000  0.0000  0.0049  0.0000  0.0000  0.0000  0.0011  0.0000
  26. Si 2 (py)     0.0000  0.0000  0.0000  0.0049  0.0000  0.0000  0.0000  0.0011
  27. Si 2 (pz)    -0.0012  0.0002  0.0000  0.0000 -0.0390 -0.0077  0.0000  0.0000
  28. Si 2 (d5)    -0.0161  0.0290  0.0000  0.0000  0.0601  0.0444  0.0000  0.0000
  29. Si 2 (d2)     0.0000  0.0000 -0.0209  0.0000  0.0000  0.0000 -0.0136  0.0000
  30. Si 2 (d3)     0.0000  0.0000  0.0000 -0.0209  0.0000  0.0000  0.0000 -0.0136
  31. Si 2 (d4)     0.0000  0.0000  0.0000  0.0060  0.0000  0.0000  0.0000  0.0056
  32. Si 2 (d1)     0.0000  0.0000  0.0060  0.0000  0.0000  0.0000  0.0056  0.0000
  33.  H 3 (s)     -0.0523  0.0984  0.0000 -0.2324 -0.0869  0.0918  0.0000 -0.1334
  34.  H 3 (s)     -0.0075  0.0255  0.0000 -0.1876 -0.0737  0.0143  0.0000 -0.1081
  35.  H 4 (s)     -0.0523  0.0984 -0.2013  0.1162 -0.0869  0.0918 -0.1155  0.0667
  36.  H 4 (s)     -0.0075  0.0255 -0.1625  0.0938 -0.0737  0.0143 -0.0936  0.0540
  37.  H 5 (s)     -0.0523  0.0984  0.2013  0.1162 -0.0869  0.0918  0.1155  0.0667
  38.  H 5 (s)     -0.0075  0.0255  0.1625  0.0938 -0.0737  0.0143  0.0936  0.0540
  39.  H 6 (s)      0.0067 -0.0125  0.0000 -0.0139 -0.0282 -0.0269  0.0000 -0.0155
  40.  H 6 (s)      0.0088 -0.0175  0.0000 -0.0351 -0.0513 -0.0358  0.0000 -0.0298
  41.  H 7 (s)      0.0067 -0.0125  0.0120  0.0069 -0.0282 -0.0269  0.0134  0.0077
  42.  H 7 (s)      0.0088 -0.0175  0.0304  0.0176 -0.0513 -0.0358  0.0258  0.0149
  43.  H 8 (s)      0.0067 -0.0125 -0.0120  0.0069 -0.0282 -0.0269 -0.0134  0.0077
  44.  H 8 (s)      0.0088 -0.0175 -0.0304  0.0176 -0.0513 -0.0358 -0.0258  0.0149

           AO          9      10      11      12      13      14      15      16
      ------------ ------- ------- ------- ------- ------- ------- ------- -------
   1.  C 1 (s)     -0.0083  0.0017  0.0000  0.0000  0.0000  0.0000 -0.0032  0.0150
   2.  C 1 (s)      0.0119 -0.0039  0.0000  0.0000  0.0000  0.0000  0.0043 -0.0250
   3.  C 1 (px)     0.0000  0.0000 -0.0172  0.0000  0.0000  0.0250  0.0000  0.0000
   4.  C 1 (py)     0.0000  0.0000  0.0000 -0.0172  0.0250  0.0000  0.0000  0.0000
   5.  C 1 (pz)     0.2574  0.0186  0.0000  0.0000  0.0000  0.0000  0.0191 -0.0888
   6.  C 1 (s)      0.0603 -0.0012  0.0000  0.0000  0.0000  0.0000  0.0107 -0.0363
   7.  C 1 (px)     0.0000  0.0000 -0.0100  0.0000  0.0000  0.0144  0.0000  0.0000
   8.  C 1 (py)     0.0000  0.0000  0.0000 -0.0100  0.0144  0.0000  0.0000  0.0000
   9.  C 1 (pz)     0.1729  0.0119  0.0000  0.0000  0.0000  0.0000  0.0114 -0.0499
  10.  C 1 (d5)     0.0119  0.0010  0.0000  0.0000  0.0000  0.0000  0.0019 -0.0063
  11.  C 1 (d2)     0.0000  0.0000  0.0008  0.0000  0.0000 -0.0012  0.0000  0.0000
  12.  C 1 (d3)     0.0000  0.0000  0.0000  0.0008 -0.0012  0.0000  0.0000  0.0000
  13.  C 1 (d4)     0.0000  0.0000  0.0000 -0.0012  0.0017  0.0000  0.0000  0.0000
  14.  C 1 (d1)     0.0000  0.0000 -0.0012  0.0000  0.0000  0.0017  0.0000  0.0000
  15. Si 2 (s)      0.0114  0.0019  0.0000  0.0000  0.0000  0.0000  2.1402 -0.5626
  16. Si 2 (s)     -0.0499 -0.0063  0.0000  0.0000  0.0000  0.0000 -0.5626  2.2588
  17. Si 2 (px)     0.0000  0.0000 -0.0013  0.0000  0.0000 -0.0002  0.0000  0.0000
  18. Si 2 (py)     0.0000  0.0000  0.0000 -0.0013 -0.0002  0.0000  0.0000  0.0000
  19. Si 2 (pz)     0.0874  0.0031  0.0000  0.0000  0.0000  0.0000 -0.0002  0.0004
  20. Si 2 (s)      0.1051  0.0138  0.0000  0.0000  0.0000  0.0000  0.0422 -0.2410
  21. Si 2 (px)     0.0000  0.0000  0.0030  0.0000  0.0000 -0.0008  0.0000  0.0000
  22. Si 2 (py)     0.0000  0.0000  0.0000  0.0030 -0.0008  0.0000  0.0000  0.0000
  23. Si 2 (pz)    -0.1999 -0.0103  0.0000  0.0000  0.0000  0.0000  0.0020 -0.0056
  24. Si 2 (s)      0.0045  0.0023  0.0000  0.0000  0.0000  0.0000  0.0178 -0.0692
  25. Si 2 (px)     0.0000  0.0000  0.0003  0.0000  0.0000  0.0001  0.0000  0.0000
  26. Si 2 (py)     0.0000  0.0000  0.0000  0.0003  0.0001  0.0000  0.0000  0.0000
  27. Si 2 (pz)    -0.0268 -0.0017  0.0000  0.0000  0.0000  0.0000 -0.0002  0.0007
  28. Si 2 (d5)     0.0431  0.0020  0.0000  0.0000  0.0000  0.0000 -0.0008  0.0020
  29. Si 2 (d2)     0.0000  0.0000  0.0015  0.0000  0.0000 -0.0016  0.0000  0.0000
  30. Si 2 (d3)     0.0000  0.0000  0.0000  0.0015 -0.0016  0.0000  0.0000  0.0000
  31. Si 2 (d4)     0.0000  0.0000  0.0000 -0.0010  0.0007  0.0000  0.0000  0.0000
  32. Si 2 (d1)     0.0000  0.0000 -0.0010  0.0000  0.0000  0.0007  0.0000  0.0000
  33.  H 3 (s)     -0.0534 -0.0056  0.0000  0.0109 -0.0158  0.0000 -0.0023  0.0104
  34.  H 3 (s)     -0.0479 -0.0039  0.0000  0.0089 -0.0128  0.0000 -0.0041  0.0158
  35.  H 4 (s)     -0.0534 -0.0056  0.0095 -0.0055  0.0079 -0.0137 -0.0023  0.0104
  36.  H 4 (s)     -0.0479 -0.0039  0.0077 -0.0045  0.0064 -0.0111 -0.0041  0.0158
  37.  H 5 (s)     -0.0534 -0.0056 -0.0095 -0.0055  0.0079  0.0137 -0.0023  0.0104
  38.  H 5 (s)     -0.0479 -0.0039 -0.0077 -0.0045  0.0064  0.0111 -0.0041  0.0158
  39.  H 6 (s)     -0.0267  0.0006  0.0000  0.0031 -0.0020  0.0000  0.0145 -0.0676
  40.  H 6 (s)     -0.0417 -0.0006  0.0000  0.0047 -0.0037  0.0000  0.0113 -0.0555
  41.  H 7 (s)     -0.0267  0.0006 -0.0027 -0.0015  0.0010  0.0017  0.0145 -0.0676
  42.  H 7 (s)     -0.0417 -0.0006 -0.0041 -0.0024  0.0019  0.0032  0.0113 -0.0555
  43.  H 8 (s)     -0.0267  0.0006  0.0027 -0.0015  0.0010 -0.0017  0.0145 -0.0676
  44.  H 8 (s)     -0.0417 -0.0006  0.0041 -0.0024  0.0019 -0.0032  0.0113 -0.0555

           AO         17      18      19      20      21      22      23      24
      ------------ ------- ------- ------- ------- ------- ------- ------- -------
   1.  C 1 (s)      0.0000  0.0000 -0.0251 -0.0234  0.0000  0.0000  0.0524  0.0098
   2.  C 1 (s)      0.0000  0.0000  0.0440  0.0428  0.0000  0.0000 -0.0974 -0.0103
   3.  C 1 (px)    -0.0075  0.0000  0.0000  0.0000  0.0104  0.0000  0.0000  0.0000
   4.  C 1 (py)     0.0000 -0.0075  0.0000  0.0000  0.0000  0.0104  0.0000  0.0000
   5.  C 1 (pz)     0.0000  0.0000  0.1177  0.1880  0.0000  0.0000 -0.2822  0.0160
   6.  C 1 (s)      0.0000  0.0000  0.0863  0.0560  0.0000  0.0000 -0.1649 -0.0148
   7.  C 1 (px)    -0.0038  0.0000  0.0000  0.0000 -0.0050  0.0000  0.0000  0.0000
   8.  C 1 (py)     0.0000 -0.0038  0.0000  0.0000  0.0000 -0.0050  0.0000  0.0000
   9.  C 1 (pz)     0.0000  0.0000  0.0874  0.1051  0.0000  0.0000 -0.1999  0.0045
  10.  C 1 (d5)     0.0000  0.0000  0.0031  0.0138  0.0000  0.0000 -0.0103  0.0023
  11.  C 1 (d2)    -0.0013  0.0000  0.0000  0.0000  0.0030  0.0000  0.0000  0.0000
  12.  C 1 (d3)     0.0000 -0.0013  0.0000  0.0000  0.0000  0.0030  0.0000  0.0000
  13.  C 1 (d4)     0.0000 -0.0002  0.0000  0.0000  0.0000 -0.0008  0.0000  0.0000
  14.  C 1 (d1)    -0.0002  0.0000  0.0000  0.0000 -0.0008  0.0000  0.0000  0.0000
  15. Si 2 (s)      0.0000  0.0000 -0.0002  0.0422  0.0000  0.0000  0.0020  0.0178
  16. Si 2 (s)      0.0000  0.0000  0.0004 -0.2410  0.0000  0.0000 -0.0056 -0.0692
  17. Si 2 (px)     2.0289  0.0000  0.0000  0.0000 -0.0828  0.0000  0.0000  0.0000
  18. Si 2 (py)     0.0000  2.0289  0.0000  0.0000  0.0000 -0.0828  0.0000  0.0000
  19. Si 2 (pz)     0.0000  0.0000  2.0295 -0.0006  0.0000  0.0000 -0.0798 -0.0138
  20. Si 2 (s)      0.0000  0.0000 -0.0006  0.5393  0.0000  0.0000  0.0035  0.1201
  21. Si 2 (px)    -0.0828  0.0000  0.0000  0.0000  0.3078  0.0000  0.0000  0.0000
  22. Si 2 (py)     0.0000 -0.0828  0.0000  0.0000  0.0000  0.3078  0.0000  0.0000
  23. Si 2 (pz)     0.0000  0.0000 -0.0798  0.0035  0.0000  0.0000  0.2978  0.0325
  24. Si 2 (s)      0.0000  0.0000 -0.0138  0.1201  0.0000  0.0000  0.0325  0.0307
  25. Si 2 (px)    -0.0309  0.0000  0.0000  0.0000  0.0506  0.0000  0.0000  0.0000
  26. Si 2 (py)     0.0000 -0.0309  0.0000  0.0000  0.0000  0.0506  0.0000  0.0000
  27. Si 2 (pz)     0.0000  0.0000 -0.0254 -0.0016  0.0000  0.0000  0.0342  0.0029
  28. Si 2 (d5)     0.0000  0.0000  0.0269 -0.0028  0.0000  0.0000 -0.0674 -0.0081
  29. Si 2 (d2)    -0.0181  0.0000  0.0000  0.0000  0.0452  0.0000  0.0000  0.0000
  30. Si 2 (d3)     0.0000 -0.0181  0.0000  0.0000  0.0000  0.0452  0.0000  0.0000
  31. Si 2 (d4)     0.0000  0.0239  0.0000  0.0000  0.0000 -0.0610  0.0000  0.0000
  32. Si 2 (d1)     0.0239  0.0000  0.0000  0.0000 -0.0610  0.0000  0.0000  0.0000
  33.  H 3 (s)      0.0000  0.0020 -0.0103 -0.0260  0.0000  0.0001  0.0279 -0.0073
  34.  H 3 (s)      0.0000 -0.0061 -0.0212 -0.0316  0.0000  0.0112  0.0445 -0.0040
  35.  H 4 (s)      0.0018 -0.0010 -0.0103 -0.0260  0.0001 -0.0001  0.0279 -0.0073
  36.  H 4 (s)     -0.0053  0.0030 -0.0212 -0.0316  0.0097 -0.0056  0.0445 -0.0040
  37.  H 5 (s)     -0.0018 -0.0010 -0.0103 -0.0260 -0.0001 -0.0001  0.0279 -0.0073
  38.  H 5 (s)      0.0053  0.0030 -0.0212 -0.0316 -0.0097 -0.0056  0.0445 -0.0040
  39.  H 6 (s)      0.0000 -0.0873 -0.0321  0.1334  0.0000  0.2124  0.0780  0.0379
  40.  H 6 (s)      0.0000 -0.1140 -0.0389  0.1087  0.0000  0.2723  0.0922  0.0339
  41.  H 7 (s)      0.0756  0.0436 -0.0321  0.1334 -0.1839 -0.1062  0.0780  0.0379
  42.  H 7 (s)      0.0987  0.0570 -0.0389  0.1087 -0.2359 -0.1362  0.0922  0.0339
  43.  H 8 (s)     -0.0756  0.0436 -0.0321  0.1334  0.1839 -0.1062  0.0780  0.0379
  44.  H 8 (s)     -0.0987  0.0570 -0.0389  0.1087  0.2359 -0.1362  0.0922  0.0339

           AO         25      26      27      28      29      30      31      32
      ------------ ------- ------- ------- ------- ------- ------- ------- -------
   1.  C 1 (s)      0.0000  0.0000 -0.0012 -0.0161  0.0000  0.0000  0.0000  0.0000
   2.  C 1 (s)      0.0000  0.0000  0.0002  0.0290  0.0000  0.0000  0.0000  0.0000
   3.  C 1 (px)     0.0049  0.0000  0.0000  0.0000 -0.0209  0.0000  0.0000  0.0060
   4.  C 1 (py)     0.0000  0.0049  0.0000  0.0000  0.0000 -0.0209  0.0060  0.0000
   5.  C 1 (pz)     0.0000  0.0000 -0.0390  0.0601  0.0000  0.0000  0.0000  0.0000
   6.  C 1 (s)      0.0000  0.0000 -0.0077  0.0444  0.0000  0.0000  0.0000  0.0000
   7.  C 1 (px)     0.0011  0.0000  0.0000  0.0000 -0.0136  0.0000  0.0000  0.0056
   8.  C 1 (py)     0.0000  0.0011  0.0000  0.0000  0.0000 -0.0136  0.0056  0.0000
   9.  C 1 (pz)     0.0000  0.0000 -0.0268  0.0431  0.0000  0.0000  0.0000  0.0000
  10.  C 1 (d5)     0.0000  0.0000 -0.0017  0.0020  0.0000  0.0000  0.0000  0.0000
  11.  C 1 (d2)     0.0003  0.0000  0.0000  0.0000  0.0015  0.0000  0.0000 -0.0010
  12.  C 1 (d3)     0.0000  0.0003  0.0000  0.0000  0.0000  0.0015 -0.0010  0.0000
  13.  C 1 (d4)     0.0000  0.0001  0.0000  0.0000  0.0000 -0.0016  0.0007  0.0000
  14.  C 1 (d1)     0.0001  0.0000  0.0000  0.0000 -0.0016  0.0000  0.0000  0.0007
  15. Si 2 (s)      0.0000  0.0000 -0.0002 -0.0008  0.0000  0.0000  0.0000  0.0000
  16. Si 2 (s)      0.0000  0.0000  0.0007  0.0020  0.0000  0.0000  0.0000  0.0000
  17. Si 2 (px)    -0.0309  0.0000  0.0000  0.0000 -0.0181  0.0000  0.0000  0.0239
  18. Si 2 (py)     0.0000 -0.0309  0.0000  0.0000  0.0000 -0.0181  0.0239  0.0000
  19. Si 2 (pz)     0.0000  0.0000 -0.0254  0.0269  0.0000  0.0000  0.0000  0.0000
  20. Si 2 (s)      0.0000  0.0000 -0.0016 -0.0028  0.0000  0.0000  0.0000  0.0000
  21. Si 2 (px)     0.0506  0.0000  0.0000  0.0000  0.0452  0.0000  0.0000 -0.0610
  22. Si 2 (py)     0.0000  0.0506  0.0000  0.0000  0.0000  0.0452 -0.0610  0.0000
  23. Si 2 (pz)     0.0000  0.0000  0.0342 -0.0674  0.0000  0.0000  0.0000  0.0000
  24. Si 2 (s)      0.0000  0.0000  0.0029 -0.0081  0.0000  0.0000  0.0000  0.0000
  25. Si 2 (px)     0.0085  0.0000  0.0000  0.0000  0.0073  0.0000  0.0000 -0.0100
  26. Si 2 (py)     0.0000  0.0085  0.0000  0.0000  0.0000  0.0073 -0.0100  0.0000
  27. Si 2 (pz)     0.0000  0.0000  0.0047 -0.0075  0.0000  0.0000  0.0000  0.0000
  28. Si 2 (d5)     0.0000  0.0000 -0.0075  0.0155  0.0000  0.0000  0.0000  0.0000
  29. Si 2 (d2)     0.0073  0.0000  0.0000  0.0000  0.0080  0.0000  0.0000 -0.0095
  30. Si 2 (d3)     0.0000  0.0073  0.0000  0.0000  0.0000  0.0080 -0.0095  0.0000
  31. Si 2 (d4)     0.0000 -0.0100  0.0000  0.0000  0.0000 -0.0095  0.0123  0.0000
  32. Si 2 (d1)    -0.0100  0.0000  0.0000  0.0000 -0.0095  0.0000  0.0000  0.0123
  33.  H 3 (s)      0.0000 -0.0020  0.0088 -0.0029  0.0000  0.0142 -0.0051  0.0000
  34.  H 3 (s)      0.0000  0.0002  0.0074 -0.0087  0.0000  0.0131 -0.0064  0.0000
  35.  H 4 (s)     -0.0017  0.0010  0.0088 -0.0029  0.0123 -0.0071  0.0026 -0.0044
  36.  H 4 (s)      0.0002 -0.0001  0.0074 -0.0087  0.0114 -0.0066  0.0032 -0.0055
  37.  H 5 (s)      0.0017  0.0010  0.0088 -0.0029 -0.0123 -0.0071  0.0026  0.0044
  38.  H 5 (s)     -0.0002 -0.0001  0.0074 -0.0087 -0.0114 -0.0066  0.0032  0.0055
  39.  H 6 (s)      0.0000  0.0350  0.0087 -0.0181  0.0000  0.0326 -0.0427  0.0000
  40.  H 6 (s)      0.0000  0.0448  0.0105 -0.0212  0.0000  0.0429 -0.0551  0.0000
  41.  H 7 (s)     -0.0303 -0.0175  0.0087 -0.0181 -0.0282 -0.0163  0.0213  0.0370
  42.  H 7 (s)     -0.0388 -0.0224  0.0105 -0.0212 -0.0371 -0.0214  0.0276  0.0477
  43.  H 8 (s)      0.0303 -0.0175  0.0087 -0.0181  0.0282 -0.0163  0.0213 -0.0370
  44.  H 8 (s)      0.0388 -0.0224  0.0105 -0.0212  0.0371 -0.0214  0.0276 -0.0477

           AO         33      34      35      36      37      38      39      40
      ------------ ------- ------- ------- ------- ------- ------- ------- -------
   1.  C 1 (s)     -0.0523 -0.0075 -0.0523 -0.0075 -0.0523 -0.0075  0.0067  0.0088
   2.  C 1 (s)      0.0984  0.0255  0.0984  0.0255  0.0984  0.0255 -0.0125 -0.0175
   3.  C 1 (px)     0.0000  0.0000 -0.2013 -0.1625  0.2013  0.1625  0.0000  0.0000
   4.  C 1 (py)    -0.2324 -0.1876  0.1162  0.0938  0.1162  0.0938 -0.0139 -0.0351
   5.  C 1 (pz)    -0.0869 -0.0737 -0.0869 -0.0737 -0.0869 -0.0737 -0.0282 -0.0513
   6.  C 1 (s)      0.0918  0.0143  0.0918  0.0143  0.0918  0.0143 -0.0269 -0.0358
   7.  C 1 (px)     0.0000  0.0000 -0.1155 -0.0936  0.1155  0.0936  0.0000  0.0000
   8.  C 1 (py)    -0.1334 -0.1081  0.0667  0.0540  0.0667  0.0540 -0.0155 -0.0298
   9.  C 1 (pz)    -0.0534 -0.0479 -0.0534 -0.0479 -0.0534 -0.0479 -0.0267 -0.0417
  10.  C 1 (d5)    -0.0056 -0.0039 -0.0056 -0.0039 -0.0056 -0.0039  0.0006 -0.0006
  11.  C 1 (d2)     0.0000  0.0000  0.0095  0.0077 -0.0095 -0.0077  0.0000  0.0000
  12.  C 1 (d3)     0.0109  0.0089 -0.0055 -0.0045 -0.0055 -0.0045  0.0031  0.0047
  13.  C 1 (d4)    -0.0158 -0.0128  0.0079  0.0064  0.0079  0.0064 -0.0020 -0.0037
  14.  C 1 (d1)     0.0000  0.0000 -0.0137 -0.0111  0.0137  0.0111  0.0000  0.0000
[...]
   5. (2.00000) CR ( 4)Si  2            s(  0.00%)p 1.00(100.00%)
                                         0.0000  0.0000  0.0000  0.0000  0.0000
                                         0.0000  0.0000  1.0000  0.0000  0.0000
                                         0.0000  0.0000  0.0000  0.0000  0.0000
                                         0.0000  0.0000  0.0000
   6. (1.99999) CR ( 5)Si  2            s(  0.00%)p 1.00(100.00%)
                                         0.0000  0.0000  0.0000  0.0000  0.0000
                                         0.0000  0.0000  0.0000  0.0000  0.0000
                                         1.0000  0.0000  0.0000  0.0000  0.0000
                                         0.0000  0.0000  0.0000
   7. (1.98917) BD ( 1) C  1-Si  2
               ( 72.22%)   0.8498* C  1 s( 28.09%)p 2.56( 71.82%)d 0.00(  0.09%)
                                         0.0000  0.5295 -0.0242  0.0000  0.0000
                                         0.0000  0.0000  0.8467 -0.0346  0.0000
                                         0.0000  0.0000  0.0000  0.0306
               ( 27.78%)   0.5271*Si  2 s( 24.77%)p 2.97( 73.53%)d 0.07(  1.70%)
                                         0.0000  0.0000  0.4972  0.0212  0.0000
                                         0.0000  0.0000  0.0000  0.0000  0.0000
                                         0.0000 -0.8575 -0.0068  0.0000  0.0000
                                         0.0000  0.0000  0.1304
   8. (1.99306) BD ( 1) C  1- H  3
               ( 62.20%)   0.7886* C  1 s( 23.95%)p 3.17( 75.90%)d 0.01(  0.15%)
                                         0.0000  0.4892  0.0110  0.0000  0.0000
                                        -0.8156 -0.0084 -0.3057 -0.0145  0.0000
                                         0.0000  0.0195 -0.0312 -0.0126
               ( 37.80%)   0.6149* H  3 s(100.00%)
                                         1.0000 -0.0005
   9. (1.99306) BD ( 1) C  1- H  4
               ( 62.20%)   0.7886* C  1 s( 23.95%)p 3.17( 75.90%)d 0.01(  0.15%)
                                         0.0000  0.4892  0.0110 -0.7064 -0.0073
                                         0.4078  0.0042 -0.3057 -0.0145 -0.0270
                                         0.0169 -0.0097  0.0156 -0.0126
               ( 37.80%)   0.6149* H  4 s(100.00%)
                                         1.0000 -0.0005
  10. (1.99306) BD ( 1) C  1- H  5
               ( 62.20%)   0.7886* C  1 s( 23.95%)p 3.17( 75.90%)d 0.01(  0.15%)
                                         0.0000  0.4892  0.0110  0.7064  0.0073
                                         0.4078  0.0042 -0.3057 -0.0145  0.0270
                                        -0.0169 -0.0097  0.0156 -0.0126
               ( 37.80%)   0.6149* H  5 s(100.00%)
                                         1.0000 -0.0005
  11. (1.98785) BD ( 1)Si  2- H  6
               ( 38.50%)   0.6205*Si  2 s( 25.09%)p 2.91( 73.14%)d 0.07(  1.77%)
                                         0.0000  0.0000  0.5009 -0.0055  0.0000
                                         0.0000  0.0000  0.0000  0.8066  0.0012
                                         0.0000  0.2840 -0.0058  0.0000  0.0000
                                         0.0743 -0.1024 -0.0416
               ( 61.50%)   0.7842* H  6 s(100.00%)
                                         1.0000  0.0018
  12. (1.98785) BD ( 1)Si  2- H  7
               ( 38.50%)   0.6205*Si  2 s( 25.09%)p 2.91( 73.14%)d 0.07(  1.77%)
                                         0.0000  0.0000  0.5009 -0.0055  0.0000
                                        -0.6986 -0.0011  0.0000 -0.4033 -0.0006
                                         0.0000  0.2840 -0.0058  0.0886 -0.0643
                                        -0.0371  0.0512 -0.0416
               ( 61.50%)   0.7842* H  7 s(100.00%)
                                         1.0000  0.0018
  13. (1.98785) BD ( 1)Si  2- H  8
               ( 38.50%)   0.6205*Si  2 s( 25.09%)p 2.91( 73.14%)d 0.07(  1.77%)
                                         0.0000  0.0000  0.5009 -0.0055  0.0000
                                         0.6986  0.0011  0.0000 -0.4033 -0.0006
                                         0.0000  0.2840 -0.0058 -0.0886  0.0643
                                        -0.0371  0.0512 -0.0416
               ( 61.50%)   0.7842* H  8 s(100.00%)
                                         1.0000  0.0018
 ---------------- non-Lewis ----------------------------------------------------
  14. (0.00949) BD*( 1) C  1-Si  2
               ( 27.78%)   0.5271* C  1 s( 28.09%)p 2.56( 71.82%)d 0.00(  0.09%)
                                         0.0000 -0.5295  0.0242  0.0000  0.0000
                                         0.0000  0.0000 -0.8467  0.0346  0.0000
                                         0.0000  0.0000  0.0000 -0.0306
               ( 72.22%)  -0.8498*Si  2 s( 24.77%)p 2.97( 73.53%)d 0.07(  1.70%)
                                         0.0000  0.0000 -0.4972 -0.0212  0.0000
                                         0.0000  0.0000  0.0000  0.0000  0.0000
                                         0.0000  0.8575  0.0068  0.0000  0.0000
                                         0.0000  0.0000 -0.1304
  15. (0.00299) BD*( 1) C  1- H  3
               ( 37.80%)   0.6149* C  1 s( 23.95%)p 3.17( 75.90%)d 0.01(  0.15%)
                                         0.0000 -0.4892 -0.0110  0.0000  0.0000
                                         0.8156  0.0084  0.3057  0.0145  0.0000
                                         0.0000 -0.0195  0.0312  0.0126
               ( 62.20%)  -0.7886* H  3 s(100.00%)
                                        -1.0000  0.0005
  16. (0.00299) BD*( 1) C  1- H  4
               ( 37.80%)   0.6149* C  1 s( 23.95%)p 3.17( 75.90%)d 0.01(  0.15%)
                                         0.0000 -0.4892 -0.0110  0.7064  0.0073
                                        -0.4078 -0.0042  0.3057  0.0145  0.0270
                                        -0.0169  0.0097 -0.0156  0.0126
               ( 62.20%)  -0.7886* H  4 s(100.00%)
                                        -1.0000  0.0005
  17. (0.00299) BD*( 1) C  1- H  5
               ( 37.80%)   0.6149* C  1 s( 23.95%)p 3.17( 75.90%)d 0.01(  0.15%)
                                         0.0000 -0.4892 -0.0110 -0.7064 -0.0073
                                        -0.4078 -0.0042  0.3057  0.0145 -0.0270
                                         0.0169  0.0097 -0.0156  0.0126
               ( 62.20%)  -0.7886* H  5 s(100.00%)
                                        -1.0000  0.0005
  18. (0.01426) BD*( 1)Si  2- H  6
               ( 61.50%)   0.7842*Si  2 s( 25.09%)p 2.91( 73.14%)d 0.07(  1.77%)
                                         0.0000  0.0000 -0.5009  0.0055  0.0000
                                         0.0000  0.0000  0.0000 -0.8066 -0.0012
                                         0.0000 -0.2840  0.0058  0.0000  0.0000
                                        -0.0743  0.1024  0.0416
               ( 38.50%)  -0.6205* H  6 s(100.00%)
                                        -1.0000 -0.0018
  19. (0.01426) BD*( 1)Si  2- H  7
               ( 61.50%)   0.7842*Si  2 s( 25.09%)p 2.91( 73.14%)d 0.07(  1.77%)
                                         0.0000  0.0000 -0.5009  0.0055  0.0000
                                         0.6986  0.0011  0.0000  0.4033  0.0006
                                         0.0000 -0.2840  0.0058 -0.0886  0.0643
                                         0.0371 -0.0512  0.0416
               ( 38.50%)  -0.6205* H  7 s(100.00%)
                                        -1.0000 -0.0018
  20. (0.01426) BD*( 1)Si  2- H  8
               ( 61.50%)   0.7842*Si  2 s( 25.09%)p 2.91( 73.14%)d 0.07(  1.77%)
                                         0.0000  0.0000 -0.5009  0.0055  0.0000
                                        -0.6986 -0.0011  0.0000  0.4033  0.0006
                                         0.0000 -0.2840  0.0058  0.0886 -0.0643
                                         0.0371 -0.0512  0.0416
               ( 38.50%)  -0.6205* H  8 s(100.00%)
                                        -1.0000 -0.0018
  21. (0.00033) RY ( 1) C  1            s( 72.11%)p 0.38( 27.06%)d 0.01(  0.83%)
                                         0.0000  0.0176  0.8490  0.0000  0.0000
                                         0.0000  0.0000  0.0377  0.5188  0.0000
                                         0.0000  0.0000  0.0000 -0.0910
  22. (0.00031) RY ( 2) C  1            s(  0.00%)p 1.00( 85.21%)d 0.17( 14.79%)
                                         0.0000  0.0000  0.0000  0.0000  0.0000
                                         0.0077  0.9230  0.0000  0.0000  0.0000
                                         0.0000  0.2480 -0.2940  0.0000
  23. (0.00031) RY ( 3) C  1            s(  0.00%)p 1.00( 85.21%)d 0.17( 14.79%)
                                         0.0000  0.0000  0.0000  0.0077  0.9230
                                         0.0000  0.0000  0.0000  0.0000 -0.2940
                                         0.2480  0.0000  0.0000  0.0000
  24. (0.00000) RY ( 4) C  1            s(  8.16%)p 4.39( 35.82%)d 6.87( 56.02%)
  25. (0.00000) RY ( 5) C  1            s(  0.00%)p 1.00(  7.49%)d12.35( 92.51%)
  26. (0.00000) RY ( 6) C  1            s( 19.79%)p 1.88( 37.20%)d 2.17( 43.01%)
  27. (0.00000) RY ( 7) C  1            s(  0.00%)p 1.00(  7.51%)d12.32( 92.49%)
  28. (0.00000) RY ( 8) C  1            s(  0.00%)p 1.00(  7.51%)d12.32( 92.49%)
  29. (0.00000) RY ( 9) C  1            s(  0.00%)p 1.00(  7.49%)d12.35( 92.51%)
  30. (0.00144) RY ( 1)Si  2            s(  0.00%)p 1.00( 10.98%)d 8.11( 89.02%)
                                         0.0000  0.0000  0.0000  0.0000  0.0000
                                        -0.1363  0.3019  0.0000  0.0000  0.0000
                                         0.0000  0.0000  0.0000 -0.4823  0.8110
                                         0.0000  0.0000  0.0000
  31. (0.00144) RY ( 2)Si  2            s(  0.00%)p 1.00( 10.98%)d 8.11( 89.02%)
                                         0.0000  0.0000  0.0000  0.0000  0.0000
                                         0.0000  0.0000  0.0000 -0.1363  0.3019
                                         0.0000  0.0000  0.0000  0.0000  0.0000
                                         0.8110 -0.4823  0.0000
  32. (0.00045) RY ( 3)Si  2            s( 14.14%)p 0.57(  8.08%)d 5.50( 77.78%)
                                         0.0000  0.0000 -0.0019  0.3760  0.0000
                                         0.0000  0.0000  0.0000  0.0000  0.0000
                                         0.0000 -0.1239 -0.2558  0.0000  0.0000
                                         0.0000  0.0000 -0.8819
  33. (0.00000) RY ( 4)Si  2            s(  0.00%)p 1.00(  0.37%)d99.99( 99.63%)
  34. (0.00000) RY ( 5)Si  2            s(  0.00%)p 1.00(  0.37%)d99.99( 99.63%)
  35. (0.00000) RY ( 6)Si  2            s( 75.22%)p 0.26( 19.22%)d 0.07(  5.56%)
  36. (0.00000) RY ( 7)Si  2            s(  0.00%)p 1.00( 91.05%)d 0.10(  8.95%)
  37. (0.00000) RY ( 8)Si  2            s(  0.00%)p 1.00( 91.05%)d 0.10(  8.95%)
  38. (0.00000) RY ( 9)Si  2            s( 10.60%)p 7.07( 74.96%)d 1.36( 14.44%)
  39. (0.00058) RY ( 1) H  3            s(100.00%)
                                         0.0005  1.0000
  40. (0.00058) RY ( 1) H  4            s(100.00%)
                                         0.0005  1.0000
  41. (0.00058) RY ( 1) H  5            s(100.00%)
                                         0.0005  1.0000
  42. (0.00029) RY ( 1) H  6            s(100.00%)
                                        -0.0018  1.0000
  43. (0.00029) RY ( 1) H  7            s(100.00%)
                                        -0.0018  1.0000
  44. (0.00029) RY ( 1) H  8            s(100.00%)
                                        -0.0018  1.0000


 NHO DIRECTIONALITY AND BOND BENDING (deviation from line of nuclear centers at
                                      the position of maximum hybrid amplitude)

         [Thresholds for printing:  angular deviation  >  1.0 degree]
                                    p- or d-character  > 25.0%
                                    orbital occupancy  >  0.10e

                        Line of Centers        Hybrid 1             Hybrid 2
                        ---------------  -------------------  ------------------
           NBO            Theta   Phi    Theta   Phi    Dev   Theta   Phi    Dev
 ===============================================================================
    None exceeding thresholds


 SECOND ORDER PERTURBATION THEORY ANALYSIS OF FOCK MATRIX IN NBO BASIS

     Threshold for printing:   0.50 kcal/mol
                                                          E(2) E(NL)-E(L) F(L,NL)
      Donor (L) NBO              Acceptor (NL) NBO      kcal/mol   a.u.    a.u.
 ===============================================================================

 within unit  1
    7. BD ( 1) C  1-Si  2      15. BD*( 1) C  1- H  3      0.60    1.30   0.025
    7. BD ( 1) C  1-Si  2      16. BD*( 1) C  1- H  4      0.60    1.30   0.025
    7. BD ( 1) C  1-Si  2      17. BD*( 1) C  1- H  5      0.60    1.30   0.025
    7. BD ( 1) C  1-Si  2      18. BD*( 1)Si  2- H  6      2.06    1.05   0.042
    7. BD ( 1) C  1-Si  2      19. BD*( 1)Si  2- H  7      2.06    1.05   0.042
    7. BD ( 1) C  1-Si  2      20. BD*( 1)Si  2- H  8      2.06    1.05   0.042
    8. BD ( 1) C  1- H  3      18. BD*( 1)Si  2- H  6      1.56    1.11   0.037
    8. BD ( 1) C  1- H  3      31. RY ( 2)Si  2            0.51    1.62   0.026
    9. BD ( 1) C  1- H  4      20. BD*( 1)Si  2- H  8      1.56    1.11   0.037
   10. BD ( 1) C  1- H  5      19. BD*( 1)Si  2- H  7      1.56    1.11   0.037
   11. BD ( 1)Si  2- H  6      14. BD*( 1) C  1-Si  2      1.98    0.96   0.039
   11. BD ( 1)Si  2- H  6      15. BD*( 1) C  1- H  3      1.24    1.24   0.035
   11. BD ( 1)Si  2- H  6      19. BD*( 1)Si  2- H  7      2.28    0.99   0.042
   11. BD ( 1)Si  2- H  6      20. BD*( 1)Si  2- H  8      2.28    0.99   0.042
   12. BD ( 1)Si  2- H  7      14. BD*( 1) C  1-Si  2      1.98    0.96   0.039
   12. BD ( 1)Si  2- H  7      17. BD*( 1) C  1- H  5      1.24    1.24   0.035
   12. BD ( 1)Si  2- H  7      18. BD*( 1)Si  2- H  6      2.28    0.99   0.042
   12. BD ( 1)Si  2- H  7      20. BD*( 1)Si  2- H  8      2.28    0.99   0.042
   13. BD ( 1)Si  2- H  8      14. BD*( 1) C  1-Si  2      1.98    0.96   0.039
   13. BD ( 1)Si  2- H  8      16. BD*( 1) C  1- H  4      1.24    1.24   0.035
   13. BD ( 1)Si  2- H  8      18. BD*( 1)Si  2- H  6      2.28    0.99   0.042
   13. BD ( 1)Si  2- H  8      19. BD*( 1)Si  2- H  7      2.28    0.99   0.042


 NATURAL BOND ORBITALS (Summary):

                                                     Principal Delocalizations
           NBO                 Occupancy    Energy   (geminal,vicinal,remote)
 ===============================================================================
 Molecular unit  1  (CH6Si)
 ------ Lewis --------------------------------------
    1. CR ( 1) C  1             1.99999   -11.20724
    2. CR ( 1)Si  2             2.00000   -57.01815
    3. CR ( 2)Si  2             2.00000   -17.84782
    4. CR ( 3)Si  2             2.00000    -4.22036
    5. CR ( 4)Si  2             2.00000    -4.22036
    6. CR ( 5)Si  2             1.99999    -4.21971
    7. BD ( 1) C  1-Si  2       1.98917    -0.58877  18(g),19(g),20(g),15(g)
                                                     16(g),17(g)
    8. BD ( 1) C  1- H  3       1.99306    -0.64830  18(v),31(v)
    9. BD ( 1) C  1- H  4       1.99306    -0.64830  20(v)
   10. BD ( 1) C  1- H  5       1.99306    -0.64830  19(v)
   11. BD ( 1)Si  2- H  6       1.98785    -0.53045  19(g),20(g),14(g),15(v)
   12. BD ( 1)Si  2- H  7       1.98785    -0.53045  18(g),20(g),14(g),17(v)
   13. BD ( 1)Si  2- H  8       1.98785    -0.53045  18(g),19(g),14(g),16(v)
 ------ non-Lewis ----------------------------------
   14. BD*( 1) C  1-Si  2       0.00949     0.42980
   15. BD*( 1) C  1- H  3       0.00299     0.71294
   16. BD*( 1) C  1- H  4       0.00299     0.71294
   17. BD*( 1) C  1- H  5       0.00299     0.71294
   18. BD*( 1)Si  2- H  6       0.01426     0.46254
   19. BD*( 1)Si  2- H  7       0.01426     0.46254
   20. BD*( 1)Si  2- H  8       0.01426     0.46254
   21. RY ( 1) C  1             0.00033     1.28965
   22. RY ( 2) C  1             0.00031     1.15817
   23. RY ( 3) C  1             0.00031     1.15817
   24. RY ( 4) C  1             0.00000     1.66426
   25. RY ( 5) C  1             0.00000     2.07710
   26. RY ( 6) C  1             0.00000     1.67598
   27. RY ( 7) C  1             0.00000     2.08872
   28. RY ( 8) C  1             0.00000     2.08872
   29. RY ( 9) C  1             0.00000     2.07710
   30. RY ( 1)Si  2             0.00144     0.97005
   31. RY ( 2)Si  2             0.00144     0.97005
   32. RY ( 3)Si  2             0.00045     0.95603
   33. RY ( 4)Si  2             0.00000     0.89947
   34. RY ( 5)Si  2             0.00000     0.89947
   35. RY ( 6)Si  2             0.00000     0.44086
   36. RY ( 7)Si  2             0.00000     0.36303
   37. RY ( 8)Si  2             0.00000     0.36303
   38. RY ( 9)Si  2             0.00000     0.46900
   39. RY ( 1) H  3             0.00058     0.84347
   40. RY ( 1) H  4             0.00058     0.84347
   41. RY ( 1) H  5             0.00058     0.84347
   42. RY ( 1) H  6             0.00029     1.12520
   43. RY ( 1) H  7             0.00029     1.12520
   44. RY ( 1) H  8             0.00029     1.12520
          -------------------------------
                 Total Lewis   25.93190  ( 99.7381%)
           Valence non-Lewis    0.06122  (  0.2355%)
           Rydberg non-Lewis    0.00688  (  0.0264%)
          -------------------------------
               Total unit  1   26.00000  (100.0000%)
              Charge unit  1    0.00000

 $CHOOSE
   BOND S 1 2 S 1 3 S 1 4 S 1 5 S 2 6 S 2 7 S 2 8 END
 $END

 NBO analysis completed in 0.52 CPU seconds (0 wall seconds)
 Maximum scratch memory used by NBO was 369413 words (2.82 MB)
 Maximum scratch memory used by G16NBO was 11384 words (0.09 MB)

 Opening RunExU unformatted file "/cluster/work/users/beto93/mol101/Gau-1383780.EUF"
 Read unf file /cluster/work/users/beto93/mol101/Gau-1383780.EUF:
 Label Gaussian matrix elements                                         IVers= 2 NLab= 2 Version=ES64L-G16RevC.01
 Title mol101-NBO                                                      
 NAtoms=     8 NBasis=    44 NBsUse=    44 ICharg=     0 Multip=     1 NE=    26 Len12L=8 Len4L=8 IOpCl= 0 ICGU=111
 GAUSSIAN SCALARS                    NI= 1 NR= 1 NTot=       1 LenBuf=    2 NRI=1 N=    1000
 NPA CHARGES                         NI= 0 NR= 1 NTot=       8 LenBuf= 4000 NRI=1 N=       8
 Recovered energy= -330.270867147     dipole=      0.000000000000     -0.000000056083     -0.277658231346
 Unable to Open any file for archive entry.
 1\1\GINC-C2-42\SP\RHF\6-31G(d)\C1H6Si1\BETO93\18-Nov-2024\0\\#RHF/6-31
 G* int=nobasistransform Symmetry=None 5D 7F Pop=NBO7Read\\mol101-NBO\\
 0,1\C,0,0.,0.,-1.244466\Si,0,0.,0.,0.635703\H,0,0.,-1.019762,-1.636363
 \H,0,-0.88314,0.509881,-1.636363\H,0,0.88314,0.509881,-1.636363\H,0,0.
 ,1.391234,1.158682\H,0,-1.204844,-0.695617,1.158682\H,0,1.204844,-0.69
 5617,1.158682\\Version=ES64L-G16RevC.01\HF=-330.2708671\RMSD=3.771e-09
 \Dipole=0.,0.,-0.2776582\Quadrupole=0.0815903,0.0815898,-0.1631801,0.,
 0.,0.0000003\PG=Unknown\\@
 The archive entry for this job was punched.


 MEMORIES ARE LIKE AN ENGLISH GRAMMER LESSON -
 PRESENT TENSE, AND PAST PERFECT.
 Job cpu time:       0 days  0 hours  0 minutes  9.1 seconds.
 Elapsed time:       0 days  0 hours  0 minutes  3.0 seconds.
 File lengths (MBytes):  RWF=     10 Int=      0 D2E=      0 Chk=      1 Scr=      1
 Normal termination of Gaussian 16 at Mon Nov 18 16:40:49 2024.
