 Entering Gaussian System, Link 0=g16
 Initial command:
 /cluster/software/Gaussian/g16_C.01/l1.exe "/cluster/work/users/beto93/LiH/Gau-1023703.inp" -scrdir="/cluster/work/users/beto93/LiH/"
 Entering Link 1 = /cluster/software/Gaussian/g16_C.01/l1.exe PID=   1023704.
  
 Copyright (c) 1988-2019, Gaussian, Inc.  All Rights Reserved.
  
 This is part of the Gaussian(R) 16 program.  It is based on
 the Gaussian(R) 09 system (copyright 2009, Gaussian, Inc.),
 the Gaussian(R) 03 system (copyright 2003, Gaussian, Inc.),
 the Gaussian(R) 98 system (copyright 1998, Gaussian, Inc.),
 the Gaussian(R) 94 system (copyright 1995, Gaussian, Inc.),
 the Gaussian 92(TM) system (copyright 1992, Gaussian, Inc.),
 the Gaussian 90(TM) system (copyright 1990, Gaussian, Inc.),
 the Gaussian 88(TM) system (copyright 1988, Gaussian, Inc.),
 the Gaussian 86(TM) system (copyright 1986, Carnegie Mellon
 University), and the Gaussian 82(TM) system (copyright 1983,
 Carnegie Mellon University). Gaussian is a federally registered
 trademark of Gaussian, Inc.
  
 This software contains proprietary and confidential information,
 including trade secrets, belonging to Gaussian, Inc.
  
 This software is provided under written license and may be
 used, copied, transmitted, or stored only in accord with that
 written license.
  
 The following legend is applicable only to US Government
 contracts under FAR:
  
                    RESTRICTED RIGHTS LEGEND
  
 Use, reproduction and disclosure by the US Government is
 subject to restrictions as set forth in subparagraphs (a)
 and (c) of the Commercial Computer Software - Restricted
 Rights clause in FAR 52.227-19.
  
 Gaussian, Inc.
 340 Quinnipiac St., Bldg. 40, Wallingford CT 06492
  
  
 ---------------------------------------------------------------
 Warning -- This program may not be used in any manner that
 competes with the business of Gaussian, Inc. or will provide
 assistance to any competitor of Gaussian, Inc.  The licensee
 of this program is prohibited from giving any competitor of
 Gaussian, Inc. access to this program.  By using this program,
 the user acknowledges that Gaussian, Inc. is engaged in the
 business of creating and licensing software in the field of
 computational chemistry and represents and warrants to the
 licensee that it is not a competitor of Gaussian, Inc. and that
 it will not use this program in any manner prohibited above.
 ---------------------------------------------------------------
  

 Cite this work as:
 Gaussian 16, Revision C.01,
 M. J. Frisch, G. W. Trucks, H. B. Schlegel, G. E. Scuseria, 
 M. A. Robb, J. R. Cheeseman, G. Scalmani, V. Barone, 
 G. A. Petersson, H. Nakatsuji, X. Li, M. Caricato, A. V. Marenich, 
 J. Bloino, B. G. Janesko, R. Gomperts, B. Mennucci, H. P. Hratchian, 
 J. V. Ortiz, A. F. Izmaylov, J. L. Sonnenberg, D. Williams-Young, 
 F. Ding, F. Lipparini, F. Egidi, J. Goings, B. Peng, A. Petrone, 
 T. Henderson, D. Ranasinghe, V. G. Zakrzewski, J. Gao, N. Rega, 
 G. Zheng, W. Liang, M. Hada, M. Ehara, K. Toyota, R. Fukuda, 
 J. Hasegawa, M. Ishida, T. Nakajima, Y. Honda, O. Kitao, H. Nakai, 
 T. Vreven, K. Throssell, J. A. Montgomery, Jr., J. E. Peralta, 
 F. Ogliaro, M. J. Bearpark, J. J. Heyd, E. N. Brothers, K. N. Kudin, 
 V. N. Staroverov, T. A. Keith, R. Kobayashi, J. Normand, 
 K. Raghavachari, A. P. Rendell, J. C. Burant, S. S. Iyengar, 
 J. Tomasi, M. Cossi, J. M. Millam, M. Klene, C. Adamo, R. Cammi, 
 J. W. Ochterski, R. L. Martin, K. Morokuma, O. Farkas, 
 J. B. Foresman, and D. J. Fox, Gaussian, Inc., Wallingford CT, 2019.
 
 ******************************************
 Gaussian 16:  ES64L-G16RevC.01  3-Jul-2019
                30-Jul-2024 
 ******************************************
 %LindaWorkers=c5-35-ib
 %NProcShared=4
 Will use up to    4 processors via shared memory.
 %mem=25GB
 %chk=a.chk
 SetLPE:    new flags="-opt 'Tsnet.Node.lindarsharg: ssh'  -nodelist 'c5-35-ib.saga' -env GAUSS_MDEF=3355443200 -env GAUSS_EXEDIR="/cluster/software/Gaussian/g16_C.01/bsd:/cluster/software/Gaussian/g16_C.01""
 Will use up to    1 processors via Linda.
 ------------------------------
 #RHF/6-31G* 5D 7F Pop=NBO7Read
 ------------------------------
 1/38=1,163=2,172=1/1;
 2/12=2,17=6,18=5,40=1/2;
 3/5=1,6=6,7=1,8=11,11=1,25=1,30=1,116=1/1,2,3;
 4//1;
 5/5=2,38=5/2;
 6/7=2,8=2,9=2,10=2,28=1,40=2,113=1,114=1,124=2103/1,12;
 99/5=1,9=1/99;
 -----
 NBO-a
 -----
 Symbolic Z-matrix:
 Charge =  0 Multiplicity = 1
 Li                    0.        0.        0.03959 
 H                     0.        0.        1.55041 
 
                          Input orientation:                          
 ---------------------------------------------------------------------
 Center     Atomic      Atomic             Coordinates (Angstroms)
 Number     Number       Type             X           Y           Z
 ---------------------------------------------------------------------
      1          3           0        0.000000    0.000000    0.039594
      2          1           0        0.000000    0.000000    1.550406
 ---------------------------------------------------------------------
 Stoichiometry    HLi
 Framework group  C*V[C*(HLi)]
 Deg. of freedom     1
 Full point group                 C*V     NOp   4
 Largest Abelian subgroup         C2V     NOp   4
 Largest concise Abelian subgroup C1      NOp   1
                         Standard orientation:                         
 ---------------------------------------------------------------------
 Center     Atomic      Atomic             Coordinates (Angstroms)
 Number     Number       Type             X           Y           Z
 ---------------------------------------------------------------------
      1          3           0        0.000000    0.000000    0.377703
      2          1           0        0.000000    0.000000   -1.133109
 ---------------------------------------------------------------------
 Rotational constants (GHZ):           0.0000000         251.2482468         251.2482468
 Standard basis: 6-31G(d) (5D, 7F)
 There are    10 symmetry adapted cartesian basis functions of A1  symmetry.
 There are     1 symmetry adapted cartesian basis functions of A2  symmetry.
 There are     3 symmetry adapted cartesian basis functions of B1  symmetry.
 There are     3 symmetry adapted cartesian basis functions of B2  symmetry.
 There are     9 symmetry adapted basis functions of A1  symmetry.
 There are     1 symmetry adapted basis functions of A2  symmetry.
 There are     3 symmetry adapted basis functions of B1  symmetry.
 There are     3 symmetry adapted basis functions of B2  symmetry.
    16 basis functions,    32 primitive gaussians,    17 cartesian basis functions
     2 alpha electrons        2 beta electrons
       nuclear repulsion energy         1.0507803967 Hartrees.
 NAtoms=    2 NActive=    2 NUniq=    2 SFac= 1.00D+00 NAtFMM=   60 NAOKFM=F Big=F
 Integral buffers will be    131072 words long.
 Raffenetti 1 integral format.
 Two-electron integral symmetry is turned on.
 One-electron integrals computed using PRISM.
 NBasis=    16 RedAO= T EigKep=  4.61D-02  NBF=     9     1     3     3
 NBsUse=    16 1.00D-06 EigRej= -1.00D+00 NBFU=     9     1     3     3
 ExpMin= 3.60D-02 ExpMax= 6.42D+02 ExpMxC= 9.68D+01 IAcc=3 IRadAn=         5 AccDes= 0.00D+00
 Harris functional with IExCor=  205 and IRadAn=       5 diagonalized for initial guess.
 HarFok:  IExCor=  205 AccDes= 0.00D+00 IRadAn=         5 IDoV= 1 UseB2=F ITyADJ=14
 ICtDFT=  3500011 ScaDFX=  1.000000  1.000000  1.000000  1.000000
 FoFCou: FMM=F IPFlag=           0 FMFlag=      100000 FMFlg1=           0
         NFxFlg=           0 DoJE=T BraDBF=F KetDBF=T FulRan=T
         wScrn=  0.000000 ICntrl=       500 IOpCl=  0 I1Cent=   200000004 NGrid=           0
         NMat0=    1 NMatS0=      1 NMatT0=    0 NMatD0=    1 NMtDS0=    0 NMtDT0=    0
 Petite list used in FoFCou.
 Initial guess orbital symmetries:
       Occupied  (SG) (SG)
       Virtual   (SG) (PI) (PI) (SG) (PI) (PI) (SG) (SG) (PI) (PI)
                 (DLTA) (DLTA) (SG) (SG)
 The electronic state of the initial guess is 1-SG.
 Keep R1 ints in memory in symmetry-blocked form, NReq=835525.
 Requested convergence on RMS density matrix=1.00D-08 within 128 cycles.
 Requested convergence on MAX density matrix=1.00D-06.
 Requested convergence on             energy=1.00D-06.
 No special actions if energy rises.
 SCF Done:  E(RHF) =  -7.97868722026     A.U. after    9 cycles
            NFock=  9  Conv=0.47D-08     -V/T= 1.9922

 **********************************************************************

            Population analysis using the SCF Density.

 **********************************************************************

 Orbital symmetries:
       Occupied  (SG) (SG)
       Virtual   (SG) (PI) (PI) (SG) (SG) (PI) (PI) (SG) (PI) (PI)
                 (DLTA) (DLTA) (SG) (SG)
 The electronic state is 1-SG.
 Alpha  occ. eigenvalues --   -2.44536  -0.30482
 Alpha virt. eigenvalues --    0.01105   0.06104   0.06104   0.14319   0.20135
 Alpha virt. eigenvalues --    0.22289   0.22289   0.36984   0.57209   0.57209
 Alpha virt. eigenvalues --    0.58219   0.58219   0.80447   1.35843
          Condensed to atoms (all electrons):
               1          2
     1  Li   2.437073   0.410665
     2  H    0.410665   0.741597
 Mulliken charges:
               1
     1  Li   0.152262
     2  H   -0.152262
 Sum of Mulliken charges =  -0.00000
 Mulliken charges with hydrogens summed into heavy atoms:
               1
     1  Li  -0.000000
 Electronic spatial extent (au):  <R**2>=             19.0506
 Charge=             -0.0000 electrons
 Dipole moment (field-independent basis, Debye):
    X=              0.0000    Y=              0.0000    Z=              5.7422  Tot=              5.7422
 Quadrupole moment (field-independent basis, Debye-Ang):
   XX=             -5.3337   YY=             -5.3337   ZZ=             -6.7335
   XY=              0.0000   XZ=              0.0000   YZ=              0.0000
 Traceless Quadrupole moment (field-independent basis, Debye-Ang):
   XX=              0.4666   YY=              0.4666   ZZ=             -0.9332
   XY=              0.0000   XZ=              0.0000   YZ=              0.0000
 Octapole moment (field-independent basis, Debye-Ang**2):
  XXX=              0.0000  YYY=              0.0000  ZZZ=             12.5047  XYY=              0.0000
  XXY=              0.0000  XXZ=              3.7726  XZZ=              0.0000  YZZ=              0.0000
  YYZ=              3.7726  XYZ=              0.0000
 Hexadecapole moment (field-independent basis, Debye-Ang**3):
 XXXX=            -11.8417 YYYY=            -11.8417 ZZZZ=            -28.2499 XXXY=              0.0000
 XXXZ=              0.0000 YYYX=              0.0000 YYYZ=              0.0000 ZZZX=              0.0000
 ZZZY=              0.0000 XXYY=             -3.9472 XXZZ=             -6.5356 YYZZ=             -6.5356
 XXYZ=              0.0000 YYXZ=              0.0000 ZZXY=              0.0000
 N-N= 1.050780396740D+00 E-N=-2.059986577621D+01  KE= 8.041297413980D+00
 Symmetry A1   KE= 8.041297413980D+00
 Symmetry A2   KE=-2.395826431771D-52
 Symmetry B1   KE= 0.000000000000D+00
 Symmetry B2   KE= 0.000000000000D+00
 Running external command "gaunbo7 R"
         input file       "/cluster/work/users/beto93/LiH/Gau-1023704.EIn"
         output file      "/cluster/work/users/beto93/LiH/Gau-1023704.EOu"
         message file     "/cluster/work/users/beto93/LiH/Gau-1023704.EMs"
         fchk file        "/cluster/work/users/beto93/LiH/Gau-1023704.EFC"
         mat. el file     "/cluster/work/users/beto93/LiH/Gau-1023704.EUF"

 Writing WrtUnf unformatted file "/cluster/work/users/beto93/LiH/Gau-1023704.EUF"
 Gaussian matrix elements                                         Version   2 NLab=11 Len12L=8 Len4L=8
 Write SHELL TO ATOM MAP                   from file      0 offset           0 length                   6 to matrix element file.
 Write SHELL TYPES                         from file      0 offset           0 length                   6 to matrix element file.
 Write NUMBER OF PRIMITIVES PER SHELL      from file      0 offset           0 length                   6 to matrix element file.
 Write PRIMITIVE EXPONENTS                 from file      0 offset           0 length                  15 to matrix element file.
 Write CONTRACTION COEFFICIENTS            from file      0 offset           0 length                  15 to matrix element file.
 Write P(S=P) CONTRACTION COEFFICIENTS     from file      0 offset           0 length                  15 to matrix element file.
 Write COORDINATES OF EACH SHELL           from file      0 offset           0 length                  18 to matrix element file.
 Write BONDS PER ATOM                      from file      0 offset           0 length                   2 to matrix element file.
 Write BONDED ATOMS                        from file      0 offset           0 length                   2 to matrix element file.
 Write BOND TYPES                          from file      0 offset           0 length                   2 to matrix element file.
 Write ONIOM CHARGE/MULT                   from file      0 offset           0 length                  32 to matrix element file.
 Write ONIOM ATOM LAYERS                   from file      0 offset           0 length                   2 to matrix element file.
 Write ONIOM ATOM MODIFIERS                from file      0 offset           0 length                   2 to matrix element file.
 Write ONIOM ATOM TYPES                    from file      0 offset           0 length                   2 to matrix element file.
 Write ONIOM LINK ATOMS                    from file      0 offset           0 length                   2 to matrix element file.
 Write ONIOM LINK CHARGES                  from file      0 offset           0 length                   2 to matrix element file.
 Write ONIOM LINK DISTANCES                from file      0 offset           0 length                   8 to matrix element file.
 Write SYMINF INTS                         from file      0 offset           0 length                  26 to matrix element file.
 Write ROTTR TO SO                         from file      0 offset           0 length                  12 to matrix element file.
 Write GAUSSIAN SCALARS                    from file    501 offset           0 to matrix element file.
 Write OPTIMIZATION FLAGS                  from file      0 offset           0 length                   2 to matrix element file.
 Write INTEGER ISO                         from file      0 offset           0 length                   2 to matrix element file.
 Write INTEGER SPIN                        from file      0 offset           0 length                   2 to matrix element file.
 Write REAL ZEFFECTIVE                     from file      0 offset           0 length                   2 to matrix element file.
 Write REAL QUADRUPOLEMOMENT               from file      0 offset           0 length                   2 to matrix element file.
 Write REAL GFACTOR                        from file      0 offset           0 length                   2 to matrix element file.
 Write REAL ZNUCLEAR                       from file      0 offset           0 length                   2 to matrix element file.
 Write MULLIKEN CHARGES                    from file      0 offset           0 length                   2 to matrix element file.
 Write NUCLEAR GRADIENT                    from file  10584 offset           0 length                   6 to matrix element file.
 Array NUCLEAR FORCE CONSTANTS              on  file  10585 does not exist.
 Write ELECTRIC DIPOLE MOMENT              from file      0 offset           0 length                   3 to matrix element file.
 Write NON-ADIABATIC COUPLING              from file  10810 offset           0 length                   6 to matrix element file.
 Write FINITE EM FIELD                     from file  10521 offset           0 length                  35 to matrix element file.
 Write OVERLAP                             from file  10514 offset           0 length                 136 to matrix element file.
 Write CORE HAMILTONIAN ALPHA              from file  10515 offset           0 length                 136 to matrix element file.
 Write CORE HAMILTONIAN BETA               from file  10515 offset         136 length                 136 to matrix element file.
 Write KINETIC ENERGY                      from file  10516 offset           0 length                 136 to matrix element file.
 Write ORTHOGONAL BASIS                    from file  10685 offset           0 length                 256 to matrix element file.
 Write DIPOLE INTEGRALS                    from file  10518 offset           0 length                 408 to matrix element file.
 Array DIP VEL INTEGRALS                    on  file  10572 does not exist.
 Array R X DEL INTEGRALS                    on  file  10572 does not exist.
 Write ALPHA ORBITAL ENERGIES              from file      0 offset           0 length                  16 to matrix element file.
 Write ALPHA MO COEFFICIENTS               from file  10524 offset           0 length                 256 to matrix element file.
 Write ALPHA DENSITY MATRIX                from file      0 offset           0 length                 136 to matrix element file.
 Write ALPHA FOCK MATRIX                   from file  10536 offset           0 length                 136 to matrix element file.
 Write ENERGY-WEIGHTED DENSITY             from file  10571 offset           0 length                 136 to matrix element file.
 Write ALPHA SCF DENSITY MATRIX            from file      0 offset           0 length                 136 to matrix element file.
 No 2e integrals to process.
 Perform NBO analysis...executing G16NBO...

 *********************************** NBO 7.0 ***********************************
             N A T U R A L   A T O M I C   O R B I T A L   A N D
          N A T U R A L   B O N D   O R B I T A L   A N A L Y S I S
 **************************** Espen Tangen (S101595) ***************************
  (c) Copyright 1996-2021 Board of Regents of the University of Wisconsin System
      on behalf of the Theoretical Chemistry Institute.  All rights reserved.

          Cite this program [NBO 7.0.10 (8-Feb-2021)] as:

          NBO 7.0.  E. D. Glendening, J. K. Badenhoop, A. E. Reed,
          J. E. Carpenter, J. A. Bohmann, C. M. Morales, P. Karafiloglou,
          C. R. Landis, and F. Weinhold, Theoretical Chemistry Institute,
          University of Wisconsin, Madison, WI (2018)

       /NPA    / : Natural Population Analysis
       /AOPNAO / : Print the AO to PNAO transformation
       /AONAO  / : Print the AO to NAO transformation
       /AONO   / : Print the NOs in the AO basis
       /AOMO   / : Print the MOs in the AO basis
       /BOAO   / : Print the AO bond-order matrix
       /DMAO   / : Print the AO density matrix
       /DMPNAO / : Print the PNAO density matrix
       /DMNAO  / : Print the NAO density matrix
       /DMMO   / : Print the MO density matrix
       /SAO    / : Print the AO overlap matrix
       /SPNAO  / : Print the PNAO overlap matrix
       /DETAIL / : Write details of NBO search
       /ARCHIVE/ : Write the archive file to lfn47
       /AOINFO / : Write AO information to lfn31
       /FILE   / : Set to inpGenNbo

 Filename set to inpGenNbo

 Job title: NBO-a


 MOs in the AO basis:

           AO          1       2       3       4       5       6       7       8
      ------------ ------- ------- ------- ------- ------- ------- ------- -------
   1. Li 1 (s)      0.9984 -0.1370 -0.1355  0.0000  0.0000  0.0387 -0.0302  0.0000
   2. Li 1 (s)      0.0148  0.2518 -0.1538  0.0000  0.0000  0.1428 -1.8805  0.0000
   3. Li 1 (px)     0.0000  0.0000  0.0000  0.0089  0.0000  0.0000  0.0000  1.6710
   4. Li 1 (py)     0.0000  0.0000  0.0000  0.0000  0.0089  0.0000  0.0000  0.0000
   5. Li 1 (pz)     0.0114 -0.2782  0.1687  0.0000  0.0000 -0.6332 -0.9770  0.0000
   6. Li 1 (s)     -0.0084  0.1422  0.9071  0.0000  0.0000 -0.7922  1.9174  0.0000
   7. Li 1 (px)     0.0000  0.0000  0.0000  0.9925  0.0000  0.0000  0.0000 -1.3472
   8. Li 1 (py)     0.0000  0.0000  0.0000  0.0000  0.9925  0.0000  0.0000  0.0000
   9. Li 1 (pz)    -0.0059  0.0202  0.4994  0.0000  0.0000  1.3518  0.5635  0.0000
  10. Li 1 (d5)    -0.0016  0.0420  0.0158  0.0000  0.0000 -0.0218 -0.0213  0.0000
  11. Li 1 (d2)     0.0000  0.0000  0.0000  0.0258  0.0000  0.0000  0.0000  0.0633
  12. Li 1 (d3)     0.0000  0.0000  0.0000  0.0000  0.0258  0.0000  0.0000  0.0000
  13. Li 1 (d4)     0.0000  0.0000  0.0000  0.0000  0.0000  0.0000  0.0000  0.0000
  14. Li 1 (d1)     0.0000  0.0000  0.0000  0.0000  0.0000  0.0000  0.0000  0.0000
  15.  H 2 (s)      0.0038  0.2966 -0.0574  0.0000  0.0000  0.0939  0.0184  0.0000
  16.  H 2 (s)      0.0056  0.3712 -0.0918  0.0000  0.0000  0.5609 -0.2879  0.0000

           AO          9      10      11      12      13      14      15      16
      ------------ ------- ------- ------- ------- ------- ------- ------- -------
   1. Li 1 (s)      0.0000  0.0897  0.0000  0.0000  0.0000  0.0000 -0.1971  0.1040
   2. Li 1 (s)      0.0000  1.6031  0.0000  0.0000  0.0000  0.0000 -1.5914  0.0950
   3. Li 1 (px)     0.0000  0.0000 -0.1063  0.0000  0.0000  0.0000  0.0000  0.0000
   4. Li 1 (py)     1.6710  0.0000  0.0000 -0.1063  0.0000  0.0000  0.0000  0.0000
   5. Li 1 (pz)     0.0000 -1.5553  0.0000  0.0000  0.0000  0.0000  1.8881  0.0364
   6. Li 1 (s)      0.0000 -0.6930  0.0000  0.0000  0.0000  0.0000  0.1324  0.2383
   7. Li 1 (px)     0.0000  0.0000  0.0599  0.0000  0.0000  0.0000  0.0000  0.0000
   8. Li 1 (py)    -1.3472  0.0000  0.0000  0.0599  0.0000  0.0000  0.0000  0.0000
   9. Li 1 (pz)     0.0000  0.6020  0.0000  0.0000  0.0000  0.0000 -0.3250 -0.2737
  10. Li 1 (d5)     0.0000 -0.2478  0.0000  0.0000  0.0000  0.0000 -1.4201 -0.3459
  11. Li 1 (d2)     0.0000  0.0000  0.9977  0.0000  0.0000  0.0000  0.0000  0.0000
  12. Li 1 (d3)     0.0633  0.0000  0.0000  0.9977  0.0000  0.0000  0.0000  0.0000
  13. Li 1 (d4)     0.0000  0.0000  0.0000  0.0000  0.0000  1.0000  0.0000  0.0000
  14. Li 1 (d1)     0.0000  0.0000  0.0000  0.0000  1.0000  0.0000  0.0000  0.0000
  15.  H 2 (s)      0.0000 -0.0781  0.0000  0.0000  0.0000  0.0000 -0.1080  1.4135
  16.  H 2 (s)      0.0000 -1.2331  0.0000  0.0000  0.0000  0.0000  2.6148 -1.3161


 NOs in the AO basis:

           AO          1       2       3       4       5       6       7       8
      ------------ ------- ------- ------- ------- ------- ------- ------- -------
   1. Li 1 (s)      0.8011 -0.6114  0.0001  0.1120  0.0624  0.0000  0.0000 -0.0143
   2. Li 1 (s)      0.1370  0.2118  0.0000  0.2563  0.4302  0.0000  0.0000 -1.8856
   3. Li 1 (px)     0.0000  0.0000  0.0000 -0.7038  0.5861  0.4821  1.2534  0.0212
   4. Li 1 (py)     0.0000  0.0000  1.0000 -0.0002 -0.0002 -1.2534  0.4821  0.0001
   5. Li 1 (pz)    -0.1272 -0.2477  0.0004 -0.6294 -0.9277  0.0000  0.0000 -0.8737
   6. Li 1 (s)      0.0628  0.1278 -0.0003 -0.7595 -0.6805  0.0000  0.0000  2.0648
   7. Li 1 (px)     0.0000  0.0000  0.0000  0.0000  0.0000 -0.6011 -1.5628  0.0000
   8. Li 1 (py)     0.0000  0.0000  0.0000  0.0000  0.0000  1.5628 -0.6011  0.0000
   9. Li 1 (pz)     0.0049  0.0205 -0.0001  0.4601  1.1913  0.0000  0.0000  0.4105
  10. Li 1 (d5)     0.0193  0.0373 -0.0004 -0.0718 -0.0443  0.0000  0.0000  0.0930
  11. Li 1 (d2)     0.0000  0.0000  0.0000  0.0000  0.0000  0.0000  0.0000  0.0000
  12. Li 1 (d3)     0.0000  0.0000  0.0000  0.0000  0.0000  0.0000  0.0000  0.0000
  13. Li 1 (d4)     0.0000  0.0000  0.0020 -0.0020 -0.0004  0.0000  0.0000 -0.0001
  14. Li 1 (d1)     0.0000  0.0000  0.0000  0.0000  0.0000  0.0000  0.0000  0.0000
  15.  H 2 (s)      0.1495  0.2562  0.0008  0.2833  0.1480  0.0000  0.0000  0.2625
  16.  H 2 (s)      0.1879  0.3202 -0.0001 -0.0804 -0.0046  0.0000  0.0000 -0.6122

           AO          9      10      11      12      13      14      15      16
      ------------ ------- ------- ------- ------- ------- ------- ------- -------
   1. Li 1 (s)     -0.0950  0.0487  0.0000  0.0000  0.0000  0.0005  0.2221 -0.0330
   2. Li 1 (s)      0.2258 -0.0797  0.0000  0.0000  0.0000 -0.0010  2.1612 -0.3968
   3. Li 1 (px)    -0.3803  0.0319  0.0001  0.0000  0.0000 -0.0002  0.0037 -0.1227
   4. Li 1 (py)     0.0003  0.0000  0.0000  0.0000  0.0000 -0.0020  0.0000 -0.0005
   5. Li 1 (pz)    -0.6319  0.1352  0.0000  0.0000  0.0000  0.0024 -2.0014  0.9621
   6. Li 1 (s)      0.3382 -0.0194  0.0000  0.0000  0.0000 -0.0017 -0.3220  0.3994
   7. Li 1 (px)     0.0000  0.0000 -0.0001  0.0000  0.0000  0.0000  0.0000  0.0000
   8. Li 1 (py)     0.0000  0.0000  0.0000  0.0000  0.0000  0.0000  0.0000  0.0000
   9. Li 1 (pz)     1.0399 -0.1126  0.0000  0.0000  0.0000 -0.0021  0.1679 -0.1250
  10. Li 1 (d5)     0.3186  1.0412  0.0000  0.0000  0.0000 -0.0015  0.8792 -0.4738
  11. Li 1 (d2)     0.0000  0.0000  1.0000  0.0000  0.0000  0.0000  0.0000  0.0000
  12. Li 1 (d3)     0.0000  0.0000  0.0000 -1.0000 -0.0003  0.0000  0.0000  0.0000
  13. Li 1 (d4)     0.0031 -0.0007  0.0000  0.0000  0.0000  1.0000 -0.0001 -0.0023
  14. Li 1 (d1)     0.0000  0.0000  0.0000  0.0003 -1.0000  0.0000  0.0000  0.0000
  15.  H 2 (s)     -0.6330 -0.0434  0.0000  0.0000  0.0000  0.0051  0.5092  1.0933
  16.  H 2 (s)      0.1010 -0.2070  0.0000  0.0000  0.0000 -0.0012 -3.1693 -0.1288


 AO overlap matrix:

           AO          1       2       3       4       5       6       7       8
      ------------ ------- ------- ------- ------- ------- ------- ------- -------
   1. Li 1 (s)      1.0000  0.1453  0.0000  0.0000  0.0000  0.1857  0.0000  0.0000
   2. Li 1 (s)      0.1453  1.0000  0.0000  0.0000  0.0000  0.9055  0.0000  0.0000
   3. Li 1 (px)     0.0000  0.0000  1.0000  0.0000  0.0000  0.0000  0.8021  0.0000
   4. Li 1 (py)     0.0000  0.0000  0.0000  1.0000  0.0000  0.0000  0.0000  0.8021
   5. Li 1 (pz)     0.0000  0.0000  0.0000  0.0000  1.0000  0.0000  0.0000  0.0000
   6. Li 1 (s)      0.1857  0.9055  0.0000  0.0000  0.0000  1.0000  0.0000  0.0000
   7. Li 1 (px)     0.0000  0.0000  0.8021  0.0000  0.0000  0.0000  1.0000  0.0000
   8. Li 1 (py)     0.0000  0.0000  0.0000  0.8021  0.0000  0.0000  0.0000  1.0000
   9. Li 1 (pz)     0.0000  0.0000  0.0000  0.0000  0.8021  0.0000  0.0000  0.0000
  10. Li 1 (d5)     0.0000  0.0000  0.0000  0.0000  0.0000  0.0000  0.0000  0.0000
  11. Li 1 (d2)     0.0000  0.0000  0.0000  0.0000  0.0000  0.0000  0.0000  0.0000
  12. Li 1 (d3)     0.0000  0.0000  0.0000  0.0000  0.0000  0.0000  0.0000  0.0000
  13. Li 1 (d4)     0.0000  0.0000  0.0000  0.0000  0.0000  0.0000  0.0000  0.0000
  14. Li 1 (d1)     0.0000  0.0000  0.0000  0.0000  0.0000  0.0000  0.0000  0.0000
  15.  H 2 (s)      0.0286  0.2596  0.0000  0.0000 -0.3632  0.2045  0.0000  0.0000
  16.  H 2 (s)      0.1551  0.5888  0.0000  0.0000 -0.6355  0.5340  0.0000  0.0000

           AO          9      10      11      12      13      14      15      16
      ------------ ------- ------- ------- ------- ------- ------- ------- -------
   1. Li 1 (s)      0.0000  0.0000  0.0000  0.0000  0.0000  0.0000  0.0286  0.1551
   2. Li 1 (s)      0.0000  0.0000  0.0000  0.0000  0.0000  0.0000  0.2596  0.5888
   3. Li 1 (px)     0.0000  0.0000  0.0000  0.0000  0.0000  0.0000  0.0000  0.0000
   4. Li 1 (py)     0.0000  0.0000  0.0000  0.0000  0.0000  0.0000  0.0000  0.0000
   5. Li 1 (pz)     0.8021  0.0000  0.0000  0.0000  0.0000  0.0000 -0.3632 -0.6355
   6. Li 1 (s)      0.0000  0.0000  0.0000  0.0000  0.0000  0.0000  0.2045  0.5340
   7. Li 1 (px)     0.0000  0.0000  0.0000  0.0000  0.0000  0.0000  0.0000  0.0000
   8. Li 1 (py)     0.0000  0.0000  0.0000  0.0000  0.0000  0.0000  0.0000  0.0000
   9. Li 1 (pz)     1.0000  0.0000  0.0000  0.0000  0.0000  0.0000 -0.2105 -0.4728
  10. Li 1 (d5)     0.0000  1.0000  0.0000  0.0000  0.0000  0.0000  0.4649  0.3592
  11. Li 1 (d2)     0.0000  0.0000  1.0000  0.0000  0.0000  0.0000  0.0000  0.0000
  12. Li 1 (d3)     0.0000  0.0000  0.0000  1.0000  0.0000  0.0000  0.0000  0.0000
  13. Li 1 (d4)     0.0000  0.0000  0.0000  0.0000  1.0000  0.0000  0.0000  0.0000
  14. Li 1 (d1)     0.0000  0.0000  0.0000  0.0000  0.0000  1.0000  0.0000  0.0000
  15.  H 2 (s)     -0.2105  0.4649  0.0000  0.0000  0.0000  0.0000  1.0000  0.6583
  16.  H 2 (s)     -0.4728  0.3592  0.0000  0.0000  0.0000  0.0000  0.6583  1.0000


 AO bond-order matrix:

           AO          1       2       3       4       5       6       7       8
      ------------ ------- ------- ------- ------- ------- ------- ------- -------
   1. Li 1 (s)      2.0310 -0.0395  0.0000  0.0000  0.0990 -0.0557  0.0000  0.0000
   2. Li 1 (s)     -0.0395  0.1273  0.0000  0.0000 -0.1398  0.0714  0.0000  0.0000
   3. Li 1 (px)     0.0000  0.0000  0.0000  0.0000  0.0000  0.0000  0.0000  0.0000
   4. Li 1 (py)     0.0000  0.0000  0.0000  0.0000  0.0000  0.0000  0.0000  0.0000
   5. Li 1 (pz)     0.0990 -0.1398  0.0000  0.0000  0.1551 -0.0793  0.0000  0.0000
   6. Li 1 (s)     -0.0557  0.0714  0.0000  0.0000 -0.0793  0.0406  0.0000  0.0000
   7. Li 1 (px)     0.0000  0.0000  0.0000  0.0000  0.0000  0.0000  0.0000  0.0000
   8. Li 1 (py)     0.0000  0.0000  0.0000  0.0000  0.0000  0.0000  0.0000  0.0000
   9. Li 1 (pz)    -0.0172  0.0100  0.0000  0.0000 -0.0114  0.0058  0.0000  0.0000
  10. Li 1 (d5)    -0.0146  0.0211  0.0000  0.0000 -0.0234  0.0120  0.0000  0.0000
  11. Li 1 (d2)     0.0000  0.0000  0.0000  0.0000  0.0000  0.0000  0.0000  0.0000
  12. Li 1 (d3)     0.0000  0.0000  0.0000  0.0000  0.0000  0.0000  0.0000  0.0000
  13. Li 1 (d4)     0.0000  0.0000  0.0000  0.0000  0.0000  0.0000  0.0000  0.0000
  14. Li 1 (d1)     0.0000  0.0000  0.0000  0.0000  0.0000  0.0000  0.0000  0.0000
  15.  H 2 (s)     -0.0737  0.1495  0.0000  0.0000 -0.1649  0.0843  0.0000  0.0000
  16.  H 2 (s)     -0.0906  0.1871  0.0000  0.0000 -0.2064  0.1055  0.0000  0.0000

           AO          9      10      11      12      13      14      15      16
      ------------ ------- ------- ------- ------- ------- ------- ------- -------
   1. Li 1 (s)     -0.0172 -0.0146  0.0000  0.0000  0.0000  0.0000 -0.0737 -0.0906
   2. Li 1 (s)      0.0100  0.0211  0.0000  0.0000  0.0000  0.0000  0.1495  0.1871
   3. Li 1 (px)     0.0000  0.0000  0.0000  0.0000  0.0000  0.0000  0.0000  0.0000
   4. Li 1 (py)     0.0000  0.0000  0.0000  0.0000  0.0000  0.0000  0.0000  0.0000
   5. Li 1 (pz)    -0.0114 -0.0234  0.0000  0.0000  0.0000  0.0000 -0.1649 -0.2064
   6. Li 1 (s)      0.0058  0.0120  0.0000  0.0000  0.0000  0.0000  0.0843  0.1055
   7. Li 1 (px)     0.0000  0.0000  0.0000  0.0000  0.0000  0.0000  0.0000  0.0000
   8. Li 1 (py)     0.0000  0.0000  0.0000  0.0000  0.0000  0.0000  0.0000  0.0000
   9. Li 1 (pz)     0.0009  0.0017  0.0000  0.0000  0.0000  0.0000  0.0119  0.0149
  10. Li 1 (d5)     0.0017  0.0035  0.0000  0.0000  0.0000  0.0000  0.0249  0.0312
  11. Li 1 (d2)     0.0000  0.0000  0.0000  0.0000  0.0000  0.0000  0.0000  0.0000
  12. Li 1 (d3)     0.0000  0.0000  0.0000  0.0000  0.0000  0.0000  0.0000  0.0000
  13. Li 1 (d4)     0.0000  0.0000  0.0000  0.0000  0.0000  0.0000  0.0000  0.0000
  14. Li 1 (d1)     0.0000  0.0000  0.0000  0.0000  0.0000  0.0000  0.0000  0.0000
  15.  H 2 (s)      0.0119  0.0249  0.0000  0.0000  0.0000  0.0000  0.1759  0.2202
  16.  H 2 (s)      0.0149  0.0312  0.0000  0.0000  0.0000  0.0000  0.2202  0.2757


 AO density matrix:

           AO          1       2       3       4       5       6       7       8
      ------------ ------- ------- ------- ------- ------- ------- ------- -------
   1. Li 1 (s)      1.9998  0.3024  0.0000  0.0000  0.0132  0.3787  0.0000  0.0000
   2. Li 1 (s)      0.3024  0.9102  0.0000  0.0000 -0.7943  0.8530  0.0000  0.0000
   3. Li 1 (px)     0.0000  0.0000  0.0000  0.0000  0.0000  0.0000  0.0000  0.0000
   4. Li 1 (py)     0.0000  0.0000  0.0000  0.0000  0.0000  0.0000  0.0000  0.0000
   5. Li 1 (pz)     0.0132 -0.7943  0.0000  0.0000  0.7336 -0.7305  0.0000  0.0000
   6. Li 1 (s)      0.3787  0.8530  0.0000  0.0000 -0.7305  0.8042  0.0000  0.0000
   7. Li 1 (px)     0.0000  0.0000  0.0000  0.0000  0.0000  0.0000  0.0000  0.0000
   8. Li 1 (py)     0.0000  0.0000  0.0000  0.0000  0.0000  0.0000  0.0000  0.0000
   9. Li 1 (pz)     0.0067 -0.5787  0.0000  0.0000  0.5340 -0.5323  0.0000  0.0000
  10. Li 1 (d5)    -0.0006  0.4118  0.0000  0.0000 -0.3794  0.3790  0.0000  0.0000
  11. Li 1 (d2)     0.0000  0.0000  0.0000  0.0000  0.0000  0.0000  0.0000  0.0000
  12. Li 1 (d3)     0.0000  0.0000  0.0000  0.0000  0.0000  0.0000  0.0000  0.0000
  13. Li 1 (d4)     0.0000  0.0000  0.0000  0.0000  0.0000  0.0000  0.0000  0.0000
  14. Li 1 (d1)     0.0000  0.0000  0.0000  0.0000  0.0000  0.0000  0.0000  0.0000
  15.  H 2 (s)      0.0571  0.9922  0.0000  0.0000 -0.9057  0.9162  0.0000  0.0000
  16.  H 2 (s)      0.3089  1.2998  0.0000  0.0000 -1.1522  1.2119  0.0000  0.0000

           AO          9      10      11      12      13      14      15      16
      ------------ ------- ------- ------- ------- ------- ------- ------- -------
   1. Li 1 (s)      0.0067 -0.0006  0.0000  0.0000  0.0000  0.0000  0.0571  0.3089
   2. Li 1 (s)     -0.5787  0.4118  0.0000  0.0000  0.0000  0.0000  0.9922  1.2998
   3. Li 1 (px)     0.0000  0.0000  0.0000  0.0000  0.0000  0.0000  0.0000  0.0000
   4. Li 1 (py)     0.0000  0.0000  0.0000  0.0000  0.0000  0.0000  0.0000  0.0000
   5. Li 1 (pz)     0.5340 -0.3794  0.0000  0.0000  0.0000  0.0000 -0.9057 -1.1522
   6. Li 1 (s)     -0.5323  0.3790  0.0000  0.0000  0.0000  0.0000  0.9162  1.2119
   7. Li 1 (px)     0.0000  0.0000  0.0000  0.0000  0.0000  0.0000  0.0000  0.0000
   8. Li 1 (py)     0.0000  0.0000  0.0000  0.0000  0.0000  0.0000  0.0000  0.0000
   9. Li 1 (pz)     0.3888 -0.2762  0.0000  0.0000  0.0000  0.0000 -0.6594 -0.8393
  10. Li 1 (d5)    -0.2762  0.1963  0.0000  0.0000  0.0000  0.0000  0.4686  0.5970
  11. Li 1 (d2)     0.0000  0.0000  0.0000  0.0000  0.0000  0.0000  0.0000  0.0000
  12. Li 1 (d3)     0.0000  0.0000  0.0000  0.0000  0.0000  0.0000  0.0000  0.0000
  13. Li 1 (d4)     0.0000  0.0000  0.0000  0.0000  0.0000  0.0000  0.0000  0.0000
  14. Li 1 (d1)     0.0000  0.0000  0.0000  0.0000  0.0000  0.0000  0.0000  0.0000
  15.  H 2 (s)     -0.6594  0.4686  0.0000  0.0000  0.0000  0.0000  1.1208  1.4346
  16.  H 2 (s)     -0.8393  0.5970  0.0000  0.0000  0.0000  0.0000  1.4346  1.8641


 MO density matrix:

      MO     1       2       3       4       5       6       7       8       9
     ---- ------  ------  ------  ------  ------  ------  ------  ------  ------
   1.     2.0000  0.0000  0.0000  0.0000  0.0000  0.0000  0.0000  0.0000  0.0000
   2.     0.0000  2.0000  0.0000  0.0000  0.0000  0.0000  0.0000  0.0000  0.0000
   3.     0.0000  0.0000  0.0000  0.0000  0.0000  0.0000  0.0000  0.0000  0.0000
   4.     0.0000  0.0000  0.0000  0.0000  0.0000  0.0000  0.0000  0.0000  0.0000
   5.     0.0000  0.0000  0.0000  0.0000  0.0000  0.0000  0.0000  0.0000  0.0000
   6.     0.0000  0.0000  0.0000  0.0000  0.0000  0.0000  0.0000  0.0000  0.0000
   7.     0.0000  0.0000  0.0000  0.0000  0.0000  0.0000  0.0000  0.0000  0.0000
   8.     0.0000  0.0000  0.0000  0.0000  0.0000  0.0000  0.0000  0.0000  0.0000
   9.     0.0000  0.0000  0.0000  0.0000  0.0000  0.0000  0.0000  0.0000  0.0000
  10.     0.0000  0.0000  0.0000  0.0000  0.0000  0.0000  0.0000  0.0000  0.0000
  11.     0.0000  0.0000  0.0000  0.0000  0.0000  0.0000  0.0000  0.0000  0.0000
  12.     0.0000  0.0000  0.0000  0.0000  0.0000  0.0000  0.0000  0.0000  0.0000
  13.     0.0000  0.0000  0.0000  0.0000  0.0000  0.0000  0.0000  0.0000  0.0000
  14.     0.0000  0.0000  0.0000  0.0000  0.0000  0.0000  0.0000  0.0000  0.0000
  15.     0.0000  0.0000  0.0000  0.0000  0.0000  0.0000  0.0000  0.0000  0.0000
  16.     0.0000  0.0000  0.0000  0.0000  0.0000  0.0000  0.0000  0.0000  0.0000

      MO    10      11      12      13      14      15      16
     ---- ------  ------  ------  ------  ------  ------  ------
   1.     0.0000  0.0000  0.0000  0.0000  0.0000  0.0000  0.0000
   2.     0.0000  0.0000  0.0000  0.0000  0.0000  0.0000  0.0000
   3.     0.0000  0.0000  0.0000  0.0000  0.0000  0.0000  0.0000
   4.     0.0000  0.0000  0.0000  0.0000  0.0000  0.0000  0.0000
   5.     0.0000  0.0000  0.0000  0.0000  0.0000  0.0000  0.0000
   6.     0.0000  0.0000  0.0000  0.0000  0.0000  0.0000  0.0000
   7.     0.0000  0.0000  0.0000  0.0000  0.0000  0.0000  0.0000
   8.     0.0000  0.0000  0.0000  0.0000  0.0000  0.0000  0.0000
   9.     0.0000  0.0000  0.0000  0.0000  0.0000  0.0000  0.0000
  10.     0.0000  0.0000  0.0000  0.0000  0.0000  0.0000  0.0000
  11.     0.0000  0.0000  0.0000  0.0000  0.0000  0.0000  0.0000
  12.     0.0000  0.0000  0.0000  0.0000  0.0000  0.0000  0.0000
  13.     0.0000  0.0000  0.0000  0.0000  0.0000  0.0000  0.0000
  14.     0.0000  0.0000  0.0000  0.0000  0.0000  0.0000  0.0000
  15.     0.0000  0.0000  0.0000  0.0000  0.0000  0.0000  0.0000
  16.     0.0000  0.0000  0.0000  0.0000  0.0000  0.0000  0.0000


 NATURAL POPULATIONS:  Natural atomic orbital occupancies

  NAO Atom No lang   Type(AO)    Occupancy      Energy
 -------------------------------------------------------
   1   Li  1  s      Cor( 1s)     1.99994      -2.44527
   2   Li  1  s      Val( 2s)     0.22576       0.03295
   3   Li  1  s      Ryd( 3s)     0.00000       0.21454
   4   Li  1  px     Ryd( 3p)     0.00000       0.11930
   5   Li  1  px     Ryd( 2p)     0.00000       0.16637
   6   Li  1  py     Ryd( 3p)     0.00000       0.11930
   7   Li  1  py     Ryd( 2p)     0.00000       0.16637
   8   Li  1  pz     Ryd( 3p)     0.03165       0.33060
   9   Li  1  pz     Ryd( 2p)     0.00002       0.19766
  10   Li  1  dxy    Ryd( 3d)     0.00000       0.58219
  11   Li  1  dxz    Ryd( 3d)     0.00000       0.57035
  12   Li  1  dyz    Ryd( 3d)     0.00000       0.57035
  13   Li  1  dx2y2  Ryd( 3d)     0.00000       0.58219
  14   Li  1  dz2    Ryd( 3d)     0.00024       0.79875

  15    H  2  s      Val( 1s)     1.74238      -0.24370
  16    H  2  s      Ryd( 2s)     0.00001       1.25261


 Summary of Natural Population Analysis:

                                     Natural Population
             Natural    ---------------------------------------------
  Atom No    Charge        Core      Valence    Rydberg      Total
 --------------------------------------------------------------------
   Li  1    0.74239      1.99994     0.22576    0.03191     2.25761
    H  2   -0.74239      0.00000     1.74238    0.00001     1.74239
 ====================================================================
 * Total *  0.00000      1.99994     1.96814    0.03192     4.00000

                                 Natural Population
 ---------------------------------------------------------
   Core                       1.99994 ( 99.9970% of    2)
   Valence                    1.96814 ( 98.4071% of    2)
   Natural Minimal Basis      3.96808 ( 99.2021% of    4)
   Natural Rydberg Basis      0.03192 (  0.7979% of    4)
 ---------------------------------------------------------

    Atom No         Natural Electron Configuration
 ----------------------------------------------------------------------------
     Li  1      [core]2s( 0.23)3p( 0.03)
      H  2            1s( 1.74)


 PNAOs in the AO basis:

           AO          1       2       3       4       5       6       7       8
      ------------ ------- ------- ------- ------- ------- ------- ------- -------
   1. Li 1 (s)      0.9989 -0.1641 -0.1190  0.0000  0.0000  0.0000  0.0000  0.0000
   2. Li 1 (s)      0.0190  0.8939 -2.1844  0.0000  0.0000  0.0000  0.0000  0.0000
   3. Li 1 (px)     0.0000  0.0000  0.0000  1.1577 -1.2096  0.0000  0.0000  0.0000
   4. Li 1 (py)     0.0000  0.0000  0.0000  0.0000  0.0000  1.1577 -1.2096  0.0000
   5. Li 1 (pz)     0.0000  0.0000  0.0000  0.0000  0.0000  0.0000  0.0000  1.1577
   6. Li 1 (s)     -0.0092  0.1284  2.3732  0.0000  0.0000  0.0000  0.0000  0.0000
   7. Li 1 (px)     0.0000  0.0000  0.0000 -0.2061  1.6616  0.0000  0.0000  0.0000
   8. Li 1 (py)     0.0000  0.0000  0.0000  0.0000  0.0000 -0.2061  1.6616  0.0000
   9. Li 1 (pz)     0.0000  0.0000  0.0000  0.0000  0.0000  0.0000  0.0000 -0.2061
  10. Li 1 (d5)     0.0000  0.0000  0.0000  0.0000  0.0000  0.0000  0.0000  0.0000
  11. Li 1 (d2)     0.0000  0.0000  0.0000  0.0000  0.0000  0.0000  0.0000  0.0000
  12. Li 1 (d3)     0.0000  0.0000  0.0000  0.0000  0.0000  0.0000  0.0000  0.0000
  13. Li 1 (d4)     0.0000  0.0000  0.0000  0.0000  0.0000  0.0000  0.0000  0.0000
  14. Li 1 (d1)     0.0000  0.0000  0.0000  0.0000  0.0000  0.0000  0.0000  0.0000
  15.  H 2 (s)      0.0000  0.0000  0.0000  0.0000  0.0000  0.0000  0.0000  0.0000
  16.  H 2 (s)      0.0000  0.0000  0.0000  0.0000  0.0000  0.0000  0.0000  0.0000

           AO          9      10      11      12      13      14      15      16
      ------------ ------- ------- ------- ------- ------- ------- ------- -------
   1. Li 1 (s)      0.0000  0.0000  0.0000  0.0000  0.0000  0.0000  0.0000  0.0000
   2. Li 1 (s)      0.0000  0.0000  0.0000  0.0000  0.0000  0.0000  0.0000  0.0000
   3. Li 1 (px)     0.0000  0.0000  0.0000  0.0000  0.0000  0.0000  0.0000  0.0000
   4. Li 1 (py)     0.0000  0.0000  0.0000  0.0000  0.0000  0.0000  0.0000  0.0000
   5. Li 1 (pz)    -1.2096  0.0000  0.0000  0.0000  0.0000  0.0000  0.0000  0.0000
   6. Li 1 (s)      0.0000  0.0000  0.0000  0.0000  0.0000  0.0000  0.0000  0.0000
   7. Li 1 (px)     0.0000  0.0000  0.0000  0.0000  0.0000  0.0000  0.0000  0.0000
   8. Li 1 (py)     0.0000  0.0000  0.0000  0.0000  0.0000  0.0000  0.0000  0.0000
   9. Li 1 (pz)     1.6616  0.0000  0.0000  0.0000  0.0000  0.0000  0.0000  0.0000
  10. Li 1 (d5)     0.0000  0.0000  0.0000  0.0000  0.0000  1.0000  0.0000  0.0000
  11. Li 1 (d2)     0.0000  0.0000  1.0000  0.0000  0.0000  0.0000  0.0000  0.0000
  12. Li 1 (d3)     0.0000  0.0000  0.0000  1.0000  0.0000  0.0000  0.0000  0.0000
  13. Li 1 (d4)     0.0000  0.0000  0.0000  0.0000  1.0000  0.0000  0.0000  0.0000
  14. Li 1 (d1)     0.0000  1.0000  0.0000  0.0000  0.0000  0.0000  0.0000  0.0000
  15.  H 2 (s)      0.0000  0.0000  0.0000  0.0000  0.0000  0.0000  0.1973  1.3137
  16.  H 2 (s)      0.0000  0.0000  0.0000  0.0000  0.0000  0.0000  0.8590 -1.0133


 PNAO overlap matrix:

           NAO         1       2       3       4       5       6       7       8
      ------------ ------- ------- ------- ------- ------- ------- ------- -------
   1. Li 1( 1s )    1.0000  0.0000  0.0000  0.0000  0.0000  0.0000  0.0000  0.0000
   2. Li 1( 2s )    0.0000  1.0000  0.0000  0.0000  0.0000  0.0000  0.0000  0.0000
   3. Li 1( 3s )    0.0000  0.0000  1.0000  0.0000  0.0000  0.0000  0.0000  0.0000
   4. Li 1( 3px)    0.0000  0.0000  0.0000  1.0000  0.0000  0.0000  0.0000  0.0000
   5. Li 1( 2px)    0.0000  0.0000  0.0000  0.0000  1.0000  0.0000  0.0000  0.0000
   6. Li 1( 3py)    0.0000  0.0000  0.0000  0.0000  0.0000  1.0000  0.0000  0.0000
   7. Li 1( 2py)    0.0000  0.0000  0.0000  0.0000  0.0000  0.0000  1.0000  0.0000
   8. Li 1( 3pz)    0.0000  0.0000  0.0000  0.0000  0.0000  0.0000  0.0000  1.0000
   9. Li 1( 2pz)    0.0000  0.0000  0.0000  0.0000  0.0000  0.0000  0.0000  0.0000
  10. Li 1( 3d1)    0.0000  0.0000  0.0000  0.0000  0.0000  0.0000  0.0000  0.0000
  11. Li 1( 3d2)    0.0000  0.0000  0.0000  0.0000  0.0000  0.0000  0.0000  0.0000
  12. Li 1( 3d3)    0.0000  0.0000  0.0000  0.0000  0.0000  0.0000  0.0000  0.0000
  13. Li 1( 3d4)    0.0000  0.0000  0.0000  0.0000  0.0000  0.0000  0.0000  0.0000
  14. Li 1( 3d5)    0.0000  0.0000  0.0000  0.0000  0.0000  0.0000  0.0000  0.0000
  15.  H 2( 1s )    0.1447  0.5392 -0.0489  0.0000  0.0000  0.0000  0.0000 -0.6227
  16.  H 2( 2s )   -0.1218 -0.2438 -0.0741  0.0000  0.0000  0.0000  0.0000  0.1514

           NAO         9      10      11      12      13      14      15      16
      ------------ ------- ------- ------- ------- ------- ------- ------- -------
   1. Li 1( 1s )    0.0000  0.0000  0.0000  0.0000  0.0000  0.0000  0.1447 -0.1218
   2. Li 1( 2s )    0.0000  0.0000  0.0000  0.0000  0.0000  0.0000  0.5392 -0.2438
   3. Li 1( 3s )    0.0000  0.0000  0.0000  0.0000  0.0000  0.0000 -0.0489 -0.0741
   4. Li 1( 3px)    0.0000  0.0000  0.0000  0.0000  0.0000  0.0000  0.0000  0.0000
   5. Li 1( 2px)    0.0000  0.0000  0.0000  0.0000  0.0000  0.0000  0.0000  0.0000
   6. Li 1( 3py)    0.0000  0.0000  0.0000  0.0000  0.0000  0.0000  0.0000  0.0000
   7. Li 1( 2py)    0.0000  0.0000  0.0000  0.0000  0.0000  0.0000  0.0000  0.0000
   8. Li 1( 3pz)    0.0000  0.0000  0.0000  0.0000  0.0000  0.0000 -0.6227  0.1514
   9. Li 1( 2pz)    1.0000  0.0000  0.0000  0.0000  0.0000  0.0000  0.0031  0.1347
  10. Li 1( 3d1)    0.0000  1.0000  0.0000  0.0000  0.0000  0.0000  0.0000  0.0000
  11. Li 1( 3d2)    0.0000  0.0000  1.0000  0.0000  0.0000  0.0000  0.0000  0.0000
  12. Li 1( 3d3)    0.0000  0.0000  0.0000  1.0000  0.0000  0.0000  0.0000  0.0000
  13. Li 1( 3d4)    0.0000  0.0000  0.0000  0.0000  1.0000  0.0000  0.0000  0.0000
  14. Li 1( 3d5)    0.0000  0.0000  0.0000  0.0000  0.0000  1.0000  0.4003  0.2468
  15.  H 2( 1s )    0.0031  0.0000  0.0000  0.0000  0.0000  0.4003  1.0000  0.0000
  16.  H 2( 2s )    0.1347  0.0000  0.0000  0.0000  0.0000  0.2468  0.0000  1.0000


 PNAO density matrix:

           NAO         1       2       3       4       5       6       7       8
      ------------ ------- ------- ------- ------- ------- ------- ------- -------
   1. Li 1( 1s )    1.9999  0.0000  0.0000  0.0000  0.0000  0.0000  0.0000  0.0054
   2. Li 1( 2s )    0.0000  0.8856  0.0000  0.0000  0.0000  0.0000  0.0000 -0.8122
   3. Li 1( 3s )    0.0000  0.0000  0.0000  0.0000  0.0000  0.0000  0.0000  0.0000
   4. Li 1( 3px)    0.0000  0.0000  0.0000  0.0000  0.0000  0.0000  0.0000  0.0000
   5. Li 1( 2px)    0.0000  0.0000  0.0000  0.0000  0.0000  0.0000  0.0000  0.0000
   6. Li 1( 3py)    0.0000  0.0000  0.0000  0.0000  0.0000  0.0000  0.0000  0.0000
   7. Li 1( 2py)    0.0000  0.0000  0.0000  0.0000  0.0000  0.0000  0.0000  0.0000
   8. Li 1( 3pz)    0.0054 -0.8122  0.0000  0.0000  0.0000  0.0000  0.0000  0.7449
   9. Li 1( 2pz)   -0.0048  0.0000  0.0000  0.0000  0.0000  0.0000  0.0000  0.0000
  10. Li 1( 3d1)    0.0000  0.0000  0.0000  0.0000  0.0000  0.0000  0.0000  0.0000
  11. Li 1( 3d2)    0.0000  0.0000  0.0000  0.0000  0.0000  0.0000  0.0000  0.0000
  12. Li 1( 3d3)    0.0000  0.0000  0.0000  0.0000  0.0000  0.0000  0.0000  0.0000
  13. Li 1( 3d4)    0.0000  0.0000  0.0000  0.0000  0.0000  0.0000  0.0000  0.0000
  14. Li 1( 3d5)    0.0038  0.4169  0.0000  0.0000  0.0000  0.0000  0.0000 -0.3823
  15.  H 2( 1s )    0.2901  1.2847  0.0000  0.0000  0.0000  0.0000  0.0000 -1.1774
  16.  H 2( 2s )   -0.2378  0.0238  0.0000  0.0000  0.0000  0.0000  0.0000 -0.0225

           NAO         9      10      11      12      13      14      15      16
      ------------ ------- ------- ------- ------- ------- ------- ------- -------
   1. Li 1( 1s )   -0.0048  0.0000  0.0000  0.0000  0.0000  0.0038  0.2901 -0.2378
   2. Li 1( 2s )    0.0000  0.0000  0.0000  0.0000  0.0000  0.4169  1.2847  0.0238
   3. Li 1( 3s )    0.0000  0.0000  0.0000  0.0000  0.0000  0.0000  0.0000  0.0000
   4. Li 1( 3px)    0.0000  0.0000  0.0000  0.0000  0.0000  0.0000  0.0000  0.0000
   5. Li 1( 2px)    0.0000  0.0000  0.0000  0.0000  0.0000  0.0000  0.0000  0.0000
   6. Li 1( 3py)    0.0000  0.0000  0.0000  0.0000  0.0000  0.0000  0.0000  0.0000
   7. Li 1( 2py)    0.0000  0.0000  0.0000  0.0000  0.0000  0.0000  0.0000  0.0000
   8. Li 1( 3pz)    0.0000  0.0000  0.0000  0.0000  0.0000 -0.3823 -1.1774 -0.0225
   9. Li 1( 2pz)    0.0000  0.0000  0.0000  0.0000  0.0000  0.0000 -0.0007  0.0006
  10. Li 1( 3d1)    0.0000  0.0000  0.0000  0.0000  0.0000  0.0000  0.0000  0.0000
  11. Li 1( 3d2)    0.0000  0.0000  0.0000  0.0000  0.0000  0.0000  0.0000  0.0000
  12. Li 1( 3d3)    0.0000  0.0000  0.0000  0.0000  0.0000  0.0000  0.0000  0.0000
  13. Li 1( 3d4)    0.0000  0.0000  0.0000  0.0000  0.0000  0.0000  0.0000  0.0000
  14. Li 1( 3d5)    0.0000  0.0000  0.0000  0.0000  0.0000  0.1963  0.6053  0.0107
  15.  H 2( 1s )   -0.0007  0.0000  0.0000  0.0000  0.0000  0.6053  1.9055  0.0000
  16.  H 2( 2s )    0.0006  0.0000  0.0000  0.0000  0.0000  0.0107  0.0000  0.0289


 NAOs in the AO basis:

           AO          1       2       3       4       5       6       7       8
      ------------ ------- ------- ------- ------- ------- ------- ------- -------
   1. Li 1 (s)      0.9989 -0.1403 -0.1057  0.0000  0.0000  0.0000  0.0000 -0.1455
   2. Li 1 (s)      0.0190  0.7538 -2.3557  0.0000  0.0000  0.0000  0.0000 -1.0969
   3. Li 1 (px)     0.0000  0.0000  0.0000  1.0009 -1.3423  0.0000  0.0000  0.0000
   4. Li 1 (py)     0.0000  0.0000  0.0000  0.0000  0.0000  1.0009 -1.3423  0.0000
   5. Li 1 (pz)     0.0000  0.0054  0.0419  0.0000  0.0000  0.0000  0.0000  1.9619
   6. Li 1 (s)     -0.0092  0.4541  2.3398  0.0000  0.0000  0.0000  0.0000 -0.0479
   7. Li 1 (px)     0.0000  0.0000  0.0000 -0.0011  1.6744  0.0000  0.0000  0.0000
   8. Li 1 (py)     0.0000  0.0000  0.0000  0.0000  0.0000 -0.0011  1.6744  0.0000
   9. Li 1 (pz)     0.0000 -0.0007 -0.0056  0.0000  0.0000  0.0000  0.0000 -0.1283
  10. Li 1 (d5)     0.0000 -0.0018 -0.0138  0.0000  0.0000  0.0000  0.0000 -0.2055
  11. Li 1 (d2)     0.0000  0.0000  0.0000  0.0000  0.0000  0.0000  0.0000  0.0000
  12. Li 1 (d3)     0.0000  0.0000  0.0000  0.0000  0.0000  0.0000  0.0000  0.0000
  13. Li 1 (d4)     0.0000  0.0000  0.0000  0.0000  0.0000  0.0000  0.0000  0.0000
  14. Li 1 (d1)     0.0000  0.0000  0.0000  0.0000  0.0000  0.0000  0.0000  0.0000
  15.  H 2 (s)      0.0000 -0.0823  0.0762  0.0000  0.0000  0.0000  0.0000 -0.1872
  16.  H 2 (s)      0.0000 -0.3875  0.1081  0.0000  0.0000  0.0000  0.0000  2.0571

           AO          9      10      11      12      13      14      15      16
      ------------ ------- ------- ------- ------- ------- ------- ------- -------
   1. Li 1 (s)      0.0029  0.0000  0.0000  0.0000  0.0000  0.1218 -0.1162  0.1257
   2. Li 1 (s)      0.0994  0.0000  0.0000  0.0000  0.0000  1.0949 -0.1620  0.4470
   3. Li 1 (px)     0.0000  0.0000  0.0000  0.0000  0.0000  0.0000  0.0000  0.0000
   4. Li 1 (py)     0.0000  0.0000  0.0000  0.0000  0.0000  0.0000  0.0000  0.0000
   5. Li 1 (pz)    -1.4265  0.0000  0.0000  0.0000  0.0000 -1.2164 -0.0217 -0.2837
   6. Li 1 (s)     -0.0283  0.0000  0.0000  0.0000  0.0000 -0.0535 -0.0170  0.1208
   7. Li 1 (px)     0.0000  0.0000  0.0000  0.0000  0.0000  0.0000  0.0000  0.0000
   8. Li 1 (py)     0.0000  0.0000  0.0000  0.0000  0.0000  0.0000  0.0000  0.0000
   9. Li 1 (pz)     1.7009  0.0000  0.0000  0.0000  0.0000  0.1633  0.0029  0.0378
  10. Li 1 (d5)     0.0634  0.0000  0.0000  0.0000  0.0000  1.4676  0.0009  0.0117
  11. Li 1 (d2)     0.0000  0.0000  1.0000  0.0000  0.0000  0.0000  0.0000  0.0000
  12. Li 1 (d3)     0.0000  0.0000  0.0000  1.0000  0.0000  0.0000  0.0000  0.0000
  13. Li 1 (d4)     0.0000  0.0000  0.0000  0.0000  1.0000  0.0000  0.0000  0.0000
  14. Li 1 (d1)     0.0000  1.0000  0.0000  0.0000  0.0000  0.0000  0.0000  0.0000
  15.  H 2 (s)     -0.1891  0.0000  0.0000  0.0000  0.0000 -0.2379  0.3249  1.3677
  16.  H 2 (s)     -0.0427  0.0000  0.0000  0.0000  0.0000 -1.7032  0.8341 -1.6253


 NAO density matrix:

           NAO         1       2       3       4       5       6       7       8
      ------------ ------- ------- ------- ------- ------- ------- ------- -------
   1. Li 1( 1s )    1.9999 -0.0003  0.0004  0.0000  0.0000  0.0000  0.0000  0.0074
   2. Li 1( 2s )   -0.0003  0.2258  0.0000  0.0000  0.0000  0.0000  0.0000 -0.0845
   3. Li 1( 3s )    0.0004  0.0000  0.0000  0.0000  0.0000  0.0000  0.0000  0.0000
   4. Li 1( 3px)    0.0000  0.0000  0.0000  0.0000  0.0000  0.0000  0.0000  0.0000
   5. Li 1( 2px)    0.0000  0.0000  0.0000  0.0000  0.0000  0.0000  0.0000  0.0000
   6. Li 1( 3py)    0.0000  0.0000  0.0000  0.0000  0.0000  0.0000  0.0000  0.0000
   7. Li 1( 2py)    0.0000  0.0000  0.0000  0.0000  0.0000  0.0000  0.0000  0.0000
   8. Li 1( 3pz)    0.0074 -0.0845  0.0000  0.0000  0.0000  0.0000  0.0000  0.0317
   9. Li 1( 2pz)   -0.0064 -0.0001  0.0000  0.0000  0.0000  0.0000  0.0000  0.0000
  10. Li 1( 3d1)    0.0000  0.0000  0.0000  0.0000  0.0000  0.0000  0.0000  0.0000
  11. Li 1( 3d2)    0.0000  0.0000  0.0000  0.0000  0.0000  0.0000  0.0000  0.0000
  12. Li 1( 3d3)    0.0000  0.0000  0.0000  0.0000  0.0000  0.0000  0.0000  0.0000
  13. Li 1( 3d4)    0.0000  0.0000  0.0000  0.0000  0.0000  0.0000  0.0000  0.0000
  14. Li 1( 3d5)   -0.0009  0.0073  0.0000  0.0000  0.0000  0.0000  0.0000 -0.0027
  15.  H 2( 1s )    0.0011  0.6272  0.0000  0.0000  0.0000  0.0000  0.0000 -0.2347
  16.  H 2( 2s )    0.0047  0.0000  0.0000  0.0000  0.0000  0.0000  0.0000  0.0000

           NAO         9      10      11      12      13      14      15      16
      ------------ ------- ------- ------- ------- ------- ------- ------- -------
   1. Li 1( 1s )   -0.0064  0.0000  0.0000  0.0000  0.0000 -0.0009  0.0011  0.0047
   2. Li 1( 2s )   -0.0001  0.0000  0.0000  0.0000  0.0000  0.0073  0.6272  0.0000
   3. Li 1( 3s )    0.0000  0.0000  0.0000  0.0000  0.0000  0.0000  0.0000  0.0000
   4. Li 1( 3px)    0.0000  0.0000  0.0000  0.0000  0.0000  0.0000  0.0000  0.0000
   5. Li 1( 2px)    0.0000  0.0000  0.0000  0.0000  0.0000  0.0000  0.0000  0.0000
   6. Li 1( 3py)    0.0000  0.0000  0.0000  0.0000  0.0000  0.0000  0.0000  0.0000
   7. Li 1( 2py)    0.0000  0.0000  0.0000  0.0000  0.0000  0.0000  0.0000  0.0000
   8. Li 1( 3pz)    0.0000  0.0000  0.0000  0.0000  0.0000 -0.0027 -0.2347  0.0000
   9. Li 1( 2pz)    0.0000  0.0000  0.0000  0.0000  0.0000  0.0000 -0.0002  0.0000
  10. Li 1( 3d1)    0.0000  0.0000  0.0000  0.0000  0.0000  0.0000  0.0000  0.0000
  11. Li 1( 3d2)    0.0000  0.0000  0.0000  0.0000  0.0000  0.0000  0.0000  0.0000
  12. Li 1( 3d3)    0.0000  0.0000  0.0000  0.0000  0.0000  0.0000  0.0000  0.0000
  13. Li 1( 3d4)    0.0000  0.0000  0.0000  0.0000  0.0000  0.0000  0.0000  0.0000
  14. Li 1( 3d5)    0.0000  0.0000  0.0000  0.0000  0.0000  0.0002  0.0202  0.0000
  15.  H 2( 1s )   -0.0002  0.0000  0.0000  0.0000  0.0000  0.0202  1.7424  0.0000
  16.  H 2( 2s )    0.0000  0.0000  0.0000  0.0000  0.0000  0.0000  0.0000  0.0000


 NATURAL BOND ORBITAL ANALYSIS:

 Initiate 2-center NBO search using THRESH = 1.900 and PRJTHR = 0.300

 Search of NAO DM block for core orbitals on atom:   1
      Eigenvector ( 1) has occupancy 1.99994
            1.0000 0.0000 0.0000 0.0000 0.0000 0.0000 0.0000 0.0000
            0.0000 0.0000 0.0000 0.0000 0.0000 0.0000
        1 eigenvector(s) stashed in permanent list

 Core orbitals projected from the NAO density matrix
       2.000 electrons remain (>1.900); search continues

 Search of NAO DM block for the following atom(s):   2
      Select eigenvectors with eigenvalue > 1.900
       1.742 0.000

 No NHOs identified in the 1-center search of the NAO density matrix
       2.000 electrons remain (>1.900); search continues

 Search of NAO DM block for the following atom(s):   1   2
      Select eigenvectors with eigenvalue > 1.900
       2.000 0.000 0.000 0.000 0.000 0.000 0.000 0.000 0.000 0.000 0.000 0.000
       0.000 0.000 0.000 0.000
      Eigenvector ( 1) has occupancy 2.00000
            0.0000 0.3360 0.0000 0.0000 0.0000 0.0000 0.0000-0.1257
           -0.0001 0.0000 0.0000 0.0000 0.0000 0.0108 0.9334 0.0000
      1 hybrid on atom 1 stashed in prospective list
      1 hybrid on atom 2 stashed in prospective list

 Stash prospective hybrids having projection expectation value > 0.300
       1.000 1.000
      0 hybrids eliminated in 1 pass
      2 hybrids moved from prospective to permanent list

 NHOs of 2-center eigenvectors projected from the NAO density matrix
       0.000 electrons remain in the fully projected matrix

 Search of NHO DM block for the following atom(s):   1
      Select eigenvectors with eigenvalue > 1.900
       2.000 0.000 0.000 0.000 0.000 0.000 0.000 0.000 0.000 0.000 0.000 0.000
       0.000 0.000
      Eigenvector ( 1) has occupancy 1.99994
            1.0000 0.0000 0.0000 0.0000 0.0000 0.0000 0.0000 0.0000
            0.0000 0.0000 0.0000 0.0000 0.0000 0.0000
           NBO accepted:    1. Label:CR ( 1)   1
        1 eigenvector(s) stashed in permanent list

  1-center NBOs projected from the NHO density matrix
       2.000 electrons remain (>1.900); search continues

 Search of NHO DM block for the following atom(s):   1   2
      Select eigenvectors with eigenvalue > 1.900
       2.000 0.000 0.000 0.000 0.000 0.000 0.000 0.000 0.000 0.000 0.000 0.000
       0.000 0.000 0.000 0.000
      Eigenvector ( 1) has occupancy 2.00000
            0.0000 0.3589 0.0000 0.0000 0.0000 0.0000 0.0000 0.0000
            0.0000 0.0000 0.0000 0.0000 0.0000 0.0000 0.9334 0.0000
      Occupancy is 2.000 after deleting minor hybrid components
            0.0000 0.3589 0.0000 0.0000 0.0000 0.0000 0.0000 0.0000
            0.0000 0.0000 0.0000 0.0000 0.0000 0.0000 0.9334 0.0000
           NBO accepted:    2. Label:BD ( 1)   1   2
      Occupancy is 0.000 for antibonding component
            0.0000 0.9334 0.0000 0.0000 0.0000 0.0000 0.0000 0.0000
            0.0000 0.0000 0.0000 0.0000 0.0000 0.0000-0.3589 0.0000
           NBO accepted:    3. Label:BD*( 1)   1   2
        2 eigenvector(s) stashed in permanent list

  2-center NBOs projected from the NHO density matrix
       0.000 electrons remain in the fully projected matrix

                            Occupancies       Lewis Structure    Low   High
         Max    Occ     -------------------  -----------------   occ   occ
  Cycle  Ctr   Thresh    Lewis   non-Lewis     CR  BD  nC  LP    (L)   (NL)
 ============================================================================
    1     2     1.90     3.99994   0.00006      1   1   0   0     0      0
 ----------------------------------------------------------------------------

 Structure accepted: No low occupancy Lewis orbitals

 -------------------------------------------------------
   Core                      1.99994 ( 99.997% of   2)
   Valence Lewis             2.00000 (100.000% of   2)
  ==================      =============================
   Total Lewis               3.99994 ( 99.998% of   4)
  -----------------------------------------------------
   Valence non-Lewis         0.00000 (  0.000% of   4)
   Rydberg non-Lewis         0.00006 (  0.001% of   4)
  ==================      =============================
   Total non-Lewis           0.00006 (  0.002% of   4)
 -------------------------------------------------------


     (Occupancy)   Bond orbital / Coefficients / Hybrids
 ------------------ Lewis ------------------------------------------------------
   1. (1.99994) CR ( 1)Li  1            s(100.00%)
                                         1.0000  0.0000  0.0000  0.0000  0.0000
                                         0.0000  0.0000  0.0000  0.0000  0.0000
                                         0.0000  0.0000  0.0000  0.0000
   2. (2.00000) BD ( 1)Li  1- H  2
               ( 12.88%)   0.3589*Li  1 s( 87.63%)p 0.14( 12.27%)d 0.00(  0.09%)
                                         0.0000  0.9361  0.0000  0.0000  0.0000
                                         0.0000  0.0000 -0.3504 -0.0003  0.0000
                                         0.0000  0.0000  0.0000  0.0302
               ( 87.12%)   0.9334* H  2 s(100.00%)
                                         1.0000  0.0000
 ---------------- non-Lewis ----------------------------------------------------
   3. (0.00000) BD*( 1)Li  1- H  2
               ( 87.12%)   0.9334*Li  1 s( 87.63%)p 0.14( 12.27%)d 0.00(  0.09%)
               ( 12.88%)  -0.3589* H  2 s(100.00%)
   4. (0.00004) RY ( 1)Li  1            s(  6.87%)p13.44( 92.37%)d 0.11(  0.75%)
   5. (0.00000) RY ( 2)Li  1            s( 31.61%)p 0.18(  5.67%)d 1.98( 62.73%)
   6. (0.00000) RY ( 3)Li  1            s(  0.00%)p 0.00(  0.00%)d 1.00(100.00%)
   7. (0.00000) RY ( 4)Li  1            s(  0.00%)p 1.00(100.00%)
   8. (0.00000) RY ( 5)Li  1            s(  0.00%)p 0.00(  0.00%)d 1.00(100.00%)
   9. (0.00000) RY ( 6)Li  1            s(  0.00%)p 0.00(  0.00%)d 1.00(100.00%)
  10. (0.00000) RY ( 7)Li  1            s(  0.00%)p 0.00(  0.00%)d 1.00(100.00%)
  11. (0.00000) RY ( 8)Li  1            s(  0.00%)p 1.00(100.00%)
  12. (0.00000) RY ( 9)Li  1            s(  0.00%)p 1.00(100.00%)
  13. (0.00000) RY (10)Li  1            s(  0.00%)p 1.00(100.00%)d 0.00(  0.00%)
  14. (0.00000) RY (11)Li  1            s( 37.52%)p 0.76( 28.58%)d 0.90( 33.89%)
  15. (0.00000) RY (12)Li  1            s( 36.36%)p 1.68( 61.10%)d 0.07(  2.54%)
  16. (0.00001) RY ( 1) H  2            s(100.00%)


 NHO DIRECTIONALITY AND BOND BENDING (deviation from line of nuclear centers at
                                      the position of maximum hybrid amplitude)

         [Thresholds for printing:  angular deviation  >  1.0 degree]
                                    p- or d-character  > 25.0%
                                    orbital occupancy  >  0.10e

                        Line of Centers        Hybrid 1             Hybrid 2
                        ---------------  -------------------  ------------------
           NBO            Theta   Phi    Theta   Phi    Dev   Theta   Phi    Dev
 ===============================================================================
    None exceeding thresholds


 SECOND ORDER PERTURBATION THEORY ANALYSIS OF FOCK MATRIX IN NBO BASIS

     Threshold for printing:   0.50 kcal/mol
                                                          E(2) E(NL)-E(L) F(L,NL)
      Donor (L) NBO              Acceptor (NL) NBO      kcal/mol   a.u.    a.u.
 ===============================================================================

 within unit  1
       None above threshold


 NATURAL BOND ORBITALS (Summary):

                                                     Principal Delocalizations
           NBO                 Occupancy    Energy   (geminal,vicinal,remote)
 ===============================================================================
 Molecular unit  1  (HLi)
 ------ Lewis --------------------------------------
    1. CR ( 1)Li  1             1.99994    -2.44527
    2. BD ( 1)Li  1- H  2       2.00000    -0.30482
 ------ non-Lewis ----------------------------------
    3. BD*( 1)Li  1- H  2       0.00000     0.16972
    4. RY ( 1)Li  1             0.00004     0.31936
    5. RY ( 2)Li  1             0.00000     0.53846
    6. RY ( 3)Li  1             0.00000     0.58218
    7. RY ( 4)Li  1             0.00000     0.12778
    8. RY ( 5)Li  1             0.00000     0.57035
    9. RY ( 6)Li  1             0.00000     0.57037
   10. RY ( 7)Li  1             0.00000     0.58217
   11. RY ( 8)Li  1             0.00000     0.16097
   12. RY ( 9)Li  1             0.00000     0.16329
   13. RY (10)Li  1             0.00000     0.11932
   14. RY (11)Li  1             0.00000     0.39524
   15. RY (12)Li  1             0.00000     0.21284
   16. RY ( 1) H  2             0.00001     1.25261
          -------------------------------
                 Total Lewis    3.99994  ( 99.9985%)
           Valence non-Lewis    0.00000  (  0.0001%)
           Rydberg non-Lewis    0.00006  (  0.0014%)
          -------------------------------
               Total unit  1    4.00000  (100.0000%)
              Charge unit  1    0.00000

 $CHOOSE
   BOND S 1 2 END
 $END

 NBO analysis completed in 0.19 CPU seconds (0 wall seconds)
 Maximum scratch memory used by NBO was 313671 words (2.39 MB)
 Maximum scratch memory used by G16NBO was 8539 words (0.07 MB)

 Opening RunExU unformatted file "/cluster/work/users/beto93/LiH/Gau-1023704.EUF"
 Read unf file /cluster/work/users/beto93/LiH/Gau-1023704.EUF:
 Label Gaussian matrix elements                                         IVers= 2 NLab= 2 Version=ES64L-G16RevC.01
 Title NBO-a                                                           
 NAtoms=     2 NBasis=    16 NBsUse=    16 ICharg=     0 Multip=     1 NE=     4 Len12L=8 Len4L=8 IOpCl= 0 ICGU=111
 GAUSSIAN SCALARS                    NI= 1 NR= 1 NTot=       1 LenBuf=    2 NRI=1 N=    1000
 NPA CHARGES                         NI= 0 NR= 1 NTot=       2 LenBuf= 4000 NRI=1 N=       2
 Recovered energy= -7.97868722026     dipole=      0.000000000000      0.000000000000      2.259163328027
 Unable to Open any file for archive entry.
 1\1\GINC-C5-35\SP\RHF\6-31G(d)\H1Li1\BETO93\30-Jul-2024\0\\#RHF/6-31G*
  5D 7F Pop=NBO7Read\\NBO-a\\0,1\Li,0,0.,0.,0.039594\H,0,0.,0.,1.550406
 \\Version=ES64L-G16RevC.01\State=1-SG\HF=-7.9786872\RMSD=4.669e-09\Dip
 ole=0.,0.,-2.2591633\Quadrupole=0.3469074,0.3469074,-0.6938147,0.,0.,0
 .\PG=C*V [C*(H1Li1)]\\@
 The archive entry for this job was punched.


 HE THAT FOLLOWS NATURE IS NEVER LOST.

                             -- BACON
 Job cpu time:       0 days  0 hours  0 minutes 26.8 seconds.
 Elapsed time:       0 days  0 hours  0 minutes  8.9 seconds.
 File lengths (MBytes):  RWF=     10 Int=      0 D2E=      0 Chk=      1 Scr=      1
 Normal termination of Gaussian 16 at Tue Jul 30 09:09:35 2024.
