 Entering Gaussian System, Link 0=g16
 Initial command:
 /cluster/software/Gaussian/g16_C.01/l1.exe "/cluster/work/users/beto93/mol74/Gau-1175984.inp" -scrdir="/cluster/work/users/beto93/mol74/"
 Entering Link 1 = /cluster/software/Gaussian/g16_C.01/l1.exe PID=   1175985.
  
 Copyright (c) 1988-2019, Gaussian, Inc.  All Rights Reserved.
  
 This is part of the Gaussian(R) 16 program.  It is based on
 the Gaussian(R) 09 system (copyright 2009, Gaussian, Inc.),
 the Gaussian(R) 03 system (copyright 2003, Gaussian, Inc.),
 the Gaussian(R) 98 system (copyright 1998, Gaussian, Inc.),
 the Gaussian(R) 94 system (copyright 1995, Gaussian, Inc.),
 the Gaussian 92(TM) system (copyright 1992, Gaussian, Inc.),
 the Gaussian 90(TM) system (copyright 1990, Gaussian, Inc.),
 the Gaussian 88(TM) system (copyright 1988, Gaussian, Inc.),
 the Gaussian 86(TM) system (copyright 1986, Carnegie Mellon
 University), and the Gaussian 82(TM) system (copyright 1983,
 Carnegie Mellon University). Gaussian is a federally registered
 trademark of Gaussian, Inc.
  
 This software contains proprietary and confidential information,
 including trade secrets, belonging to Gaussian, Inc.
  
 This software is provided under written license and may be
 used, copied, transmitted, or stored only in accord with that
 written license.
  
 The following legend is applicable only to US Government
 contracts under FAR:
  
                    RESTRICTED RIGHTS LEGEND
  
 Use, reproduction and disclosure by the US Government is
 subject to restrictions as set forth in subparagraphs (a)
 and (c) of the Commercial Computer Software - Restricted
 Rights clause in FAR 52.227-19.
  
 Gaussian, Inc.
 340 Quinnipiac St., Bldg. 40, Wallingford CT 06492
  
  
 ---------------------------------------------------------------
 Warning -- This program may not be used in any manner that
 competes with the business of Gaussian, Inc. or will provide
 assistance to any competitor of Gaussian, Inc.  The licensee
 of this program is prohibited from giving any competitor of
 Gaussian, Inc. access to this program.  By using this program,
 the user acknowledges that Gaussian, Inc. is engaged in the
 business of creating and licensing software in the field of
 computational chemistry and represents and warrants to the
 licensee that it is not a competitor of Gaussian, Inc. and that
 it will not use this program in any manner prohibited above.
 ---------------------------------------------------------------
  

 Cite this work as:
 Gaussian 16, Revision C.01,
 M. J. Frisch, G. W. Trucks, H. B. Schlegel, G. E. Scuseria, 
 M. A. Robb, J. R. Cheeseman, G. Scalmani, V. Barone, 
 G. A. Petersson, H. Nakatsuji, X. Li, M. Caricato, A. V. Marenich, 
 J. Bloino, B. G. Janesko, R. Gomperts, B. Mennucci, H. P. Hratchian, 
 J. V. Ortiz, A. F. Izmaylov, J. L. Sonnenberg, D. Williams-Young, 
 F. Ding, F. Lipparini, F. Egidi, J. Goings, B. Peng, A. Petrone, 
 T. Henderson, D. Ranasinghe, V. G. Zakrzewski, J. Gao, N. Rega, 
 G. Zheng, W. Liang, M. Hada, M. Ehara, K. Toyota, R. Fukuda, 
 J. Hasegawa, M. Ishida, T. Nakajima, Y. Honda, O. Kitao, H. Nakai, 
 T. Vreven, K. Throssell, J. A. Montgomery, Jr., J. E. Peralta, 
 F. Ogliaro, M. J. Bearpark, J. J. Heyd, E. N. Brothers, K. N. Kudin, 
 V. N. Staroverov, T. A. Keith, R. Kobayashi, J. Normand, 
 K. Raghavachari, A. P. Rendell, J. C. Burant, S. S. Iyengar, 
 J. Tomasi, M. Cossi, J. M. Millam, M. Klene, C. Adamo, R. Cammi, 
 J. W. Ochterski, R. L. Martin, K. Morokuma, O. Farkas, 
 J. B. Foresman, and D. J. Fox, Gaussian, Inc., Wallingford CT, 2019.
 
 ******************************************
 Gaussian 16:  ES64L-G16RevC.01  3-Jul-2019
                18-Nov-2024 
 ******************************************
 %LindaWorkers=c3-20-ib
 %NProcShared=4
 Will use up to    4 processors via shared memory.
 %mem=25GB
 %chk=mol74.chk
 SetLPE:    new flags="-opt 'Tsnet.Node.lindarsharg: ssh'  -nodelist 'c3-20-ib.saga' -env GAUSS_MDEF=3355443200 -env GAUSS_EXEDIR="/cluster/software/Gaussian/g16_C.01/bsd:/cluster/software/Gaussian/g16_C.01""
 Will use up to    1 processors via Linda.
 -----------------------------------------------------------------
 #RHF/6-31G* int=nobasistransform Symmetry=None 5D 7F Pop=NBO7Read
 -----------------------------------------------------------------
 1/38=1,163=2,172=1/1;
 2/12=2,15=3,17=6,18=5,40=1/2;
 3/5=1,6=6,7=1,8=11,11=1,25=1,30=1,60=-1,116=1/1,2,3;
 4//1;
 5/5=2,38=5/2;
 6/7=2,8=2,9=2,10=2,28=1,40=2,113=1,114=1,124=2103/1,12;
 99/5=1,9=1/99;
 ---------
 mol74-NBO
 ---------
 Symbolic Z-matrix:
 Charge =  0 Multiplicity = 1
 C                     0.        0.        0.6754 
 C                     0.        0.       -0.6754 
 Cl                    0.        1.44894   1.5897 
 Cl                    0.       -1.44894   1.5897 
 Cl                    0.       -1.44894  -1.5897 
 Cl                    0.        1.44894  -1.5897 
 
                          Input orientation:                          
 ---------------------------------------------------------------------
 Center     Atomic      Atomic             Coordinates (Angstroms)
 Number     Number       Type             X           Y           Z
 ---------------------------------------------------------------------
      1          6           0        0.000000    0.000000    0.675402
      2          6           0        0.000000    0.000000   -0.675402
      3         17           0        0.000000    1.448939    1.589701
      4         17           0        0.000000   -1.448939    1.589701
      5         17           0        0.000000   -1.448939   -1.589701
      6         17           0        0.000000    1.448939   -1.589701
 ---------------------------------------------------------------------
                    Distance matrix (angstroms):
                    1          2          3          4          5
     1  C    0.000000
     2  C    1.350804   0.000000
     3  Cl   1.713291   2.688887   0.000000
     4  Cl   1.713291   2.688887   2.897878   0.000000
     5  Cl   2.688887   1.713291   4.301894   3.179402   0.000000
     6  Cl   2.688887   1.713291   3.179402   4.301894   2.897878
                    6
     6  Cl   0.000000
 Symmetry turned off by external request.
 Stoichiometry    C2Cl4
 Rotational constants (GHZ):           1.7209792           1.3867502           0.7679460
 Standard basis: 6-31G(d) (5D, 7F)
   100 basis functions,   264 primitive gaussians,   106 cartesian basis functions
    40 alpha electrons       40 beta electrons
       nuclear repulsion energy       493.2648424809 Hartrees.
 NAtoms=    6 NActive=    6 NUniq=    6 SFac= 1.00D+00 NAtFMM=   60 NAOKFM=F Big=F
 Integral buffers will be    131072 words long.
 Raffenetti 1 integral format.
 Two-electron integral symmetry is turned off.
 One-electron integrals computed using PRISM.
 NBasis=   100 RedAO= T EigKep=  4.08D-03  NBF=   100
 NBsUse=   100 1.00D-06 EigRej= -1.00D+00 NBFU=   100
 ExpMin= 1.43D-01 ExpMax= 2.52D+04 ExpMxC= 3.78D+03 IAcc=3 IRadAn=         5 AccDes= 0.00D+00
 Harris functional with IExCor=  205 and IRadAn=       5 diagonalized for initial guess.
 HarFok:  IExCor=  205 AccDes= 0.00D+00 IRadAn=         5 IDoV= 1 UseB2=F ITyADJ=14
 ICtDFT=  3500011 ScaDFX=  1.000000  1.000000  1.000000  1.000000
 FoFCou: FMM=F IPFlag=           0 FMFlag=      100000 FMFlg1=           0
         NFxFlg=           0 DoJE=T BraDBF=F KetDBF=T FulRan=T
         wScrn=  0.000000 ICntrl=       500 IOpCl=  0 I1Cent=   200000004 NGrid=           0
         NMat0=    1 NMatS0=      1 NMatT0=    0 NMatD0=    1 NMtDS0=    0 NMtDT0=    0
 Symmetry not used in FoFCou.
 Keep R1 ints in memory in canonical form, NReq=13620666.
 Requested convergence on RMS density matrix=1.00D-08 within 128 cycles.
 Requested convergence on MAX density matrix=1.00D-06.
 Requested convergence on             energy=1.00D-06.
 No special actions if energy rises.
 SCF Done:  E(RHF) =  -1913.59565269     A.U. after   11 cycles
            NFock= 11  Conv=0.27D-08     -V/T= 1.9998

 **********************************************************************

            Population analysis using the SCF Density.

 **********************************************************************

 Alpha  occ. eigenvalues -- -104.86126-104.86125-104.86125-104.86123 -11.39335
 Alpha  occ. eigenvalues --  -11.39185 -10.60027 -10.60025 -10.60025 -10.60023
 Alpha  occ. eigenvalues --   -8.06897  -8.06896  -8.06895  -8.06895  -8.06511
 Alpha  occ. eigenvalues --   -8.06510  -8.06510  -8.06510  -8.06508  -8.06508
 Alpha  occ. eigenvalues --   -8.06508  -8.06507  -1.27190  -1.20063  -1.14653
 Alpha  occ. eigenvalues --   -1.11992  -0.98602  -0.75639  -0.68426  -0.67023
 Alpha  occ. eigenvalues --   -0.61946  -0.58223  -0.53614  -0.51266  -0.50537
 Alpha  occ. eigenvalues --   -0.49982  -0.49287  -0.48520  -0.45250  -0.36556
 Alpha virt. eigenvalues --    0.10548   0.15263   0.15720   0.15897   0.29811
 Alpha virt. eigenvalues --    0.41806   0.44055   0.49760   0.50372   0.54915
 Alpha virt. eigenvalues --    0.56592   0.57052   0.59279   0.60926   0.61012
 Alpha virt. eigenvalues --    0.61039   0.61871   0.64850   0.67190   0.68808
 Alpha virt. eigenvalues --    0.71313   0.74482   0.75722   0.77461   0.84142
 Alpha virt. eigenvalues --    0.93205   0.99820   1.00476   1.03211   1.03519
 Alpha virt. eigenvalues --    1.08682   1.09336   1.11207   1.11456   1.11597
 Alpha virt. eigenvalues --    1.13413   1.13660   1.13864   1.14474   1.15221
 Alpha virt. eigenvalues --    1.28884   1.31986   1.32213   1.32774   1.34432
 Alpha virt. eigenvalues --    1.39685   1.45370   1.49438   1.62174   1.66807
 Alpha virt. eigenvalues --    1.73112   1.89871   2.18511   2.23085   2.27958
 Alpha virt. eigenvalues --    2.30064   2.58284   2.59787   2.90283   2.99111
          Condensed to atoms (all electrons):
               1          2          3          4          5          6
     1  C    5.477536   0.458343   0.222146   0.222146  -0.090012  -0.090012
     2  C    0.458343   5.477536  -0.090012  -0.090012   0.222146   0.222146
     3  Cl   0.222146  -0.090012  16.840849  -0.068353   0.001509  -0.006212
     4  Cl   0.222146  -0.090012  -0.068353  16.840849  -0.006212   0.001509
     5  Cl  -0.090012   0.222146   0.001509  -0.006212  16.840849  -0.068353
     6  Cl  -0.090012   0.222146  -0.006212   0.001509  -0.068353  16.840849
 Mulliken charges:
               1
     1  C   -0.200146
     2  C   -0.200146
     3  Cl   0.100073
     4  Cl   0.100073
     5  Cl   0.100073
     6  Cl   0.100073
 Sum of Mulliken charges =  -0.00000
 Mulliken charges with hydrogens summed into heavy atoms:
               1
     1  C   -0.200146
     2  C   -0.200146
     3  Cl   0.100073
     4  Cl   0.100073
     5  Cl   0.100073
     6  Cl   0.100073
 Electronic spatial extent (au):  <R**2>=           1279.3196
 Charge=             -0.0000 electrons
 Dipole moment (field-independent basis, Debye):
    X=             -0.0000    Y=             -0.0000    Z=             -0.0000  Tot=              0.0000
 Quadrupole moment (field-independent basis, Debye-Ang):
   XX=            -62.1590   YY=            -59.7340   ZZ=            -61.4211
   XY=             -0.0000   XZ=              0.0000   YZ=             -0.0000
 Traceless Quadrupole moment (field-independent basis, Debye-Ang):
   XX=             -1.0543   YY=              1.3707   ZZ=             -0.3164
   XY=             -0.0000   XZ=              0.0000   YZ=             -0.0000
 Octapole moment (field-independent basis, Debye-Ang**2):
  XXX=              0.0000  YYY=             -0.0000  ZZZ=             -0.0000  XYY=             -0.0000
  XXY=              0.0000  XXZ=             -0.0000  XZZ=              0.0000  YZZ=             -0.0000
  YYZ=              0.0000  XYZ=              0.0000
 Hexadecapole moment (field-independent basis, Debye-Ang**3):
 XXXX=            -68.1463 YYYY=           -650.6883 ZZZZ=           -848.4334 XXXY=             -0.0000
 XXXZ=              0.0000 YYYX=             -0.0000 YYYZ=             -0.0000 ZZZX=              0.0000
 ZZZY=             -0.0000 XXYY=           -130.7112 XXZZ=           -157.2084 YYZZ=           -224.7514
 XXYZ=              0.0000 YYXZ=             -0.0000 ZZXY=             -0.0000
 N-N= 4.932648424809D+02 E-N=-5.539108752455D+03  KE= 1.914018671977D+03
 Running external command "gaunbo7 R"
         input file       "/cluster/work/users/beto93/mol74/Gau-1175985.EIn"
         output file      "/cluster/work/users/beto93/mol74/Gau-1175985.EOu"
         message file     "/cluster/work/users/beto93/mol74/Gau-1175985.EMs"
         fchk file        "/cluster/work/users/beto93/mol74/Gau-1175985.EFC"
         mat. el file     "/cluster/work/users/beto93/mol74/Gau-1175985.EUF"

 Writing WrtUnf unformatted file "/cluster/work/users/beto93/mol74/Gau-1175985.EUF"
 Gaussian matrix elements                                         Version   2 NLab=11 Len12L=8 Len4L=8
 Write SHELL TO ATOM MAP                   from file      0 offset           0 length                  28 to matrix element file.
 Write SHELL TYPES                         from file      0 offset           0 length                  28 to matrix element file.
 Write NUMBER OF PRIMITIVES PER SHELL      from file      0 offset           0 length                  28 to matrix element file.
 Write PRIMITIVE EXPONENTS                 from file      0 offset           0 length                  90 to matrix element file.
 Write CONTRACTION COEFFICIENTS            from file      0 offset           0 length                  90 to matrix element file.
 Write P(S=P) CONTRACTION COEFFICIENTS     from file      0 offset           0 length                  90 to matrix element file.
 Write COORDINATES OF EACH SHELL           from file      0 offset           0 length                  84 to matrix element file.
 Write BONDS PER ATOM                      from file      0 offset           0 length                   6 to matrix element file.
 Write BONDED ATOMS                        from file      0 offset           0 length                  10 to matrix element file.
 Write BOND TYPES                          from file      0 offset           0 length                  10 to matrix element file.
 Write ONIOM CHARGE/MULT                   from file      0 offset           0 length                  32 to matrix element file.
 Write ONIOM ATOM LAYERS                   from file      0 offset           0 length                   6 to matrix element file.
 Write ONIOM ATOM MODIFIERS                from file      0 offset           0 length                   6 to matrix element file.
 Write ONIOM ATOM TYPES                    from file      0 offset           0 length                   6 to matrix element file.
 Write ONIOM LINK ATOMS                    from file      0 offset           0 length                   6 to matrix element file.
 Write ONIOM LINK CHARGES                  from file      0 offset           0 length                   6 to matrix element file.
 Write ONIOM LINK DISTANCES                from file      0 offset           0 length                  24 to matrix element file.
 Write SYMINF INTS                         from file      0 offset           0 length                  26 to matrix element file.
 Write ROTTR TO SO                         from file      0 offset           0 length                  12 to matrix element file.
 Write GAUSSIAN SCALARS                    from file    501 offset           0 to matrix element file.
 Write OPTIMIZATION FLAGS                  from file      0 offset           0 length                   6 to matrix element file.
 Write INTEGER ISO                         from file      0 offset           0 length                   6 to matrix element file.
 Write INTEGER SPIN                        from file      0 offset           0 length                   6 to matrix element file.
 Write REAL ZEFFECTIVE                     from file      0 offset           0 length                   6 to matrix element file.
 Write REAL QUADRUPOLEMOMENT               from file      0 offset           0 length                   6 to matrix element file.
 Write REAL GFACTOR                        from file      0 offset           0 length                   6 to matrix element file.
 Write REAL ZNUCLEAR                       from file      0 offset           0 length                   6 to matrix element file.
 Write MULLIKEN CHARGES                    from file      0 offset           0 length                   6 to matrix element file.
 Write NUCLEAR GRADIENT                    from file  10584 offset           0 length                  18 to matrix element file.
 Array NUCLEAR FORCE CONSTANTS              on  file  10585 does not exist.
 Write ELECTRIC DIPOLE MOMENT              from file      0 offset           0 length                   3 to matrix element file.
 Write NON-ADIABATIC COUPLING              from file  10810 offset           0 length                  18 to matrix element file.
 Write FINITE EM FIELD                     from file  10521 offset           0 length                  35 to matrix element file.
 Write OVERLAP                             from file  10514 offset           0 length                5050 to matrix element file.
 Write CORE HAMILTONIAN ALPHA              from file  10515 offset           0 length                5050 to matrix element file.
 Write CORE HAMILTONIAN BETA               from file  10515 offset        5050 length                5050 to matrix element file.
 Write KINETIC ENERGY                      from file  10516 offset           0 length                5050 to matrix element file.
 Write ORTHOGONAL BASIS                    from file  10685 offset           0 length               10000 to matrix element file.
 Write DIPOLE INTEGRALS                    from file  10518 offset           0 length               15150 to matrix element file.
 Array DIP VEL INTEGRALS                    on  file  10572 does not exist.
 Array R X DEL INTEGRALS                    on  file  10572 does not exist.
 Write ALPHA ORBITAL ENERGIES              from file      0 offset           0 length                 100 to matrix element file.
 Write ALPHA MO COEFFICIENTS               from file  10524 offset           0 length               10000 to matrix element file.
 Write ALPHA DENSITY MATRIX                from file      0 offset           0 length                5050 to matrix element file.
 Write ALPHA FOCK MATRIX                   from file  10536 offset           0 length                5050 to matrix element file.
 Write ENERGY-WEIGHTED DENSITY             from file  10571 offset           0 length                5050 to matrix element file.
 Write ALPHA SCF DENSITY MATRIX            from file      0 offset           0 length                5050 to matrix element file.
 No 2e integrals to process.
 Perform NBO analysis...executing G16NBO...

 *********************************** NBO 7.0 ***********************************
             N A T U R A L   A T O M I C   O R B I T A L   A N D
          N A T U R A L   B O N D   O R B I T A L   A N A L Y S I S
 **************************** Espen Tangen (S101595) ***************************
  (c) Copyright 1996-2021 Board of Regents of the University of Wisconsin System
      on behalf of the Theoretical Chemistry Institute.  All rights reserved.

          Cite this program [NBO 7.0.10 (8-Feb-2021)] as:

          NBO 7.0.  E. D. Glendening, J. K. Badenhoop, A. E. Reed,
          J. E. Carpenter, J. A. Bohmann, C. M. Morales, P. Karafiloglou,
          C. R. Landis, and F. Weinhold, Theoretical Chemistry Institute,
          University of Wisconsin, Madison, WI (2018)

       /NPA    / : Natural Population Analysis
       /AOPNAO / : Print the AO to PNAO transformation
       /AONAO  / : Print the AO to NAO transformation
       /AOMO   / : Print the MOs in the AO basis
       /BOAO   / : Print the AO bond-order matrix
       /DMAO   / : Print the AO density matrix
       /DMPNAO / : Print the PNAO density matrix
       /DMNAO  / : Print the NAO density matrix
       /DMMO   / : Print the MO density matrix
       /SAO    / : Print the AO overlap matrix
       /SPNAO  / : Print the PNAO overlap matrix
       /DETAIL / : Write details of NBO search
       /ARCHIVE/ : Write the archive file to lfn47
       /AOINFO / : Write AO information to lfn31
       /FILE   / : Set to mol74.gen*

 Filename set to mol74.gen1

 Job title: mol74-NBO


 MOs in the AO basis:

           AO          1       2       3       4       5       6       7       8
      ------------ ------- ------- ------- ------- ------- ------- ------- -------
   1.  C 1 (s)      0.0000  0.0000  0.0000  0.0000  0.7043  0.7047  0.0000  0.0000
   2.  C 1 (s)      0.0000  0.0000  0.0000  0.0001  0.0167  0.0178  0.0000  0.0000
   3.  C 1 (px)     0.0000  0.0000  0.0000  0.0000  0.0000  0.0000  0.0000  0.0000
   4.  C 1 (py)    -0.0001  0.0000  0.0001  0.0000  0.0000  0.0000  0.0002 -0.0002
   5.  C 1 (pz)     0.0000  0.0001  0.0000  0.0000  0.0007  0.0002  0.0000  0.0000
   6.  C 1 (s)      0.0000  0.0000  0.0000 -0.0001 -0.0078 -0.0140  0.0000  0.0000
   7.  C 1 (px)     0.0000  0.0000  0.0000  0.0000  0.0000  0.0000  0.0000  0.0000
   8.  C 1 (py)     0.0004  0.0000 -0.0003  0.0000  0.0000  0.0000 -0.0016  0.0006
   9.  C 1 (pz)     0.0000 -0.0006  0.0000  0.0002 -0.0018  0.0015  0.0000  0.0000
  10.  C 1 (d5)     0.0000  0.0000  0.0000  0.0000  0.0002  0.0004  0.0000  0.0000
  11.  C 1 (d2)     0.0000  0.0000  0.0000  0.0000  0.0000  0.0000  0.0000  0.0000
  12.  C 1 (d3)     0.0002  0.0000  0.0001  0.0000  0.0000  0.0000 -0.0004 -0.0004
  13.  C 1 (d4)     0.0000 -0.0002  0.0000 -0.0001  0.0001 -0.0001  0.0000  0.0000
  14.  C 1 (d1)     0.0000  0.0000  0.0000  0.0000  0.0000  0.0000  0.0000  0.0000
  15.  C 2 (s)      0.0000  0.0000  0.0000  0.0000  0.7043 -0.7047  0.0000  0.0000
  16.  C 2 (s)      0.0000  0.0000  0.0000  0.0001  0.0167 -0.0178  0.0000  0.0000
  17.  C 2 (px)     0.0000  0.0000  0.0000  0.0000  0.0000  0.0000  0.0000  0.0000
  18.  C 2 (py)     0.0001  0.0000  0.0001  0.0000  0.0000  0.0000 -0.0002 -0.0002
  19.  C 2 (pz)     0.0000  0.0001  0.0000  0.0000 -0.0007  0.0002  0.0000  0.0000
  20.  C 2 (s)      0.0000  0.0000  0.0000 -0.0001 -0.0078  0.0140  0.0000  0.0000
  21.  C 2 (px)     0.0000  0.0000  0.0000  0.0000  0.0000  0.0000  0.0000  0.0000
  22.  C 2 (py)    -0.0004  0.0000 -0.0003  0.0000  0.0000  0.0000  0.0016  0.0006
  23.  C 2 (pz)     0.0000 -0.0006  0.0000 -0.0002  0.0018  0.0015  0.0000  0.0000
  24.  C 2 (d5)     0.0000  0.0000  0.0000  0.0000  0.0002 -0.0004  0.0000  0.0000
  25.  C 2 (d2)     0.0000  0.0000  0.0000  0.0000  0.0000  0.0000  0.0000  0.0000
  26.  C 2 (d3)     0.0002  0.0000 -0.0001  0.0000  0.0000  0.0000 -0.0004  0.0004
  27.  C 2 (d4)     0.0000  0.0002  0.0000 -0.0001  0.0001  0.0001  0.0000  0.0000
  28.  C 2 (d1)     0.0000  0.0000  0.0000  0.0000  0.0000  0.0000  0.0000  0.0000
  29. Cl 3 (s)      0.4983  0.4983  0.4983  0.4983  0.0000  0.0000 -0.1434 -0.1434
  30. Cl 3 (s)      0.0063  0.0063  0.0063  0.0063  0.0001  0.0001  0.5156  0.5156
  31. Cl 3 (px)     0.0000  0.0000  0.0000  0.0000  0.0000  0.0000  0.0000  0.0000
  32. Cl 3 (py)    -0.0001  0.0000  0.0000  0.0000  0.0000  0.0000 -0.0020 -0.0020
  33. Cl 3 (pz)     0.0000  0.0000  0.0000  0.0000  0.0000  0.0000 -0.0013 -0.0013
  34. Cl 3 (s)     -0.0022 -0.0020 -0.0020 -0.0018 -0.0002 -0.0001  0.0119  0.0114
  35. Cl 3 (px)     0.0000  0.0000  0.0000  0.0000  0.0000  0.0000  0.0000  0.0000
  36. Cl 3 (py)     0.0002  0.0000  0.0001  0.0001  0.0000 -0.0001 -0.0008 -0.0007
  37. Cl 3 (pz)     0.0001  0.0001  0.0000  0.0000  0.0000 -0.0001 -0.0006 -0.0002
  38. Cl 3 (s)      0.0013  0.0014  0.0014  0.0008  0.0020  0.0020 -0.0035 -0.0038
  39. Cl 3 (px)     0.0000  0.0000  0.0000  0.0000  0.0000  0.0000  0.0000  0.0000
  40. Cl 3 (py)    -0.0003 -0.0002 -0.0004  0.0000 -0.0011 -0.0009  0.0006  0.0010
  41. Cl 3 (pz)    -0.0002 -0.0003 -0.0001 -0.0001 -0.0006 -0.0008  0.0004  0.0001
  42. Cl 3 (d5)     0.0000  0.0000  0.0000  0.0000  0.0000  0.0000  0.0000  0.0000
  43. Cl 3 (d2)     0.0000  0.0000  0.0000  0.0000  0.0000  0.0000  0.0000  0.0000
  44. Cl 3 (d3)     0.0000  0.0000  0.0000  0.0000 -0.0001 -0.0001  0.0002  0.0002
  45. Cl 3 (d4)     0.0000  0.0000  0.0000  0.0000  0.0001  0.0001 -0.0001 -0.0001
  46. Cl 3 (d1)     0.0000  0.0000  0.0000  0.0000  0.0000  0.0000  0.0000  0.0000
  47. Cl 4 (s)     -0.4983  0.4983 -0.4983  0.4983  0.0000  0.0000  0.1434  0.1434
  48. Cl 4 (s)     -0.0063  0.0063 -0.0063  0.0063  0.0001  0.0001 -0.5156 -0.5156
  49. Cl 4 (px)     0.0000  0.0000  0.0000  0.0000  0.0000  0.0000  0.0000  0.0000
  50. Cl 4 (py)    -0.0001  0.0000  0.0000  0.0000  0.0000  0.0000 -0.0020 -0.0020
  51. Cl 4 (pz)     0.0000  0.0000  0.0000  0.0000  0.0000  0.0000  0.0013  0.0013
  52. Cl 4 (s)      0.0022 -0.0020  0.0020 -0.0018 -0.0002 -0.0001 -0.0119 -0.0114
  53. Cl 4 (px)     0.0000  0.0000  0.0000  0.0000  0.0000  0.0000  0.0000  0.0000
  54. Cl 4 (py)     0.0002  0.0000  0.0001 -0.0001  0.0000  0.0001 -0.0008 -0.0007
  55. Cl 4 (pz)    -0.0001  0.0001  0.0000  0.0000  0.0000 -0.0001  0.0006  0.0002
  56. Cl 4 (s)     -0.0013  0.0014 -0.0014  0.0008  0.0020  0.0020  0.0035  0.0038
  57. Cl 4 (px)     0.0000  0.0000  0.0000  0.0000  0.0000  0.0000  0.0000  0.0000
  58. Cl 4 (py)    -0.0003  0.0002 -0.0004  0.0000  0.0011  0.0009  0.0006  0.0010
  59. Cl 4 (pz)     0.0002 -0.0003  0.0001 -0.0001 -0.0006 -0.0008 -0.0004 -0.0001
  60. Cl 4 (d5)     0.0000  0.0000  0.0000  0.0000  0.0000  0.0000  0.0000  0.0000
  61. Cl 4 (d2)     0.0000  0.0000  0.0000  0.0000  0.0000  0.0000  0.0000  0.0000
  62. Cl 4 (d3)     0.0000  0.0000  0.0000  0.0000  0.0001  0.0001  0.0002  0.0002
  63. Cl 4 (d4)     0.0000  0.0000  0.0000  0.0000  0.0001  0.0001  0.0001  0.0001
  64. Cl 4 (d1)     0.0000  0.0000  0.0000  0.0000  0.0000  0.0000  0.0000  0.0000
  65. Cl 5 (s)      0.4983 -0.4983 -0.4983  0.4983  0.0000  0.0000 -0.1434  0.1434
  66. Cl 5 (s)      0.0063 -0.0063 -0.0063  0.0063  0.0001 -0.0001  0.5156 -0.5156
  67. Cl 5 (px)     0.0000  0.0000  0.0000  0.0000  0.0000  0.0000  0.0000  0.0000
  68. Cl 5 (py)     0.0001  0.0000  0.0000  0.0000  0.0000  0.0000  0.0020 -0.0020
  69. Cl 5 (pz)     0.0000  0.0000  0.0000  0.0000  0.0000  0.0000  0.0013 -0.0013
  70. Cl 5 (s)     -0.0022  0.0020  0.0020 -0.0018 -0.0002  0.0001  0.0119 -0.0114
  71. Cl 5 (px)     0.0000  0.0000  0.0000  0.0000  0.0000  0.0000  0.0000  0.0000
  72. Cl 5 (py)    -0.0002  0.0000  0.0001 -0.0001  0.0000 -0.0001  0.0008 -0.0007
  73. Cl 5 (pz)    -0.0001  0.0001  0.0000  0.0000  0.0000 -0.0001  0.0006 -0.0002
  74. Cl 5 (s)      0.0013 -0.0014 -0.0014  0.0008  0.0020 -0.0020 -0.0035  0.0038
  75. Cl 5 (px)     0.0000  0.0000  0.0000  0.0000  0.0000  0.0000  0.0000  0.0000
  76. Cl 5 (py)     0.0003 -0.0002 -0.0004  0.0000  0.0011 -0.0009 -0.0006  0.0010
  77. Cl 5 (pz)     0.0002 -0.0003 -0.0001  0.0001  0.0006 -0.0008 -0.0004  0.0001
  78. Cl 5 (d5)     0.0000  0.0000  0.0000  0.0000  0.0000  0.0000  0.0000  0.0000
  79. Cl 5 (d2)     0.0000  0.0000  0.0000  0.0000  0.0000  0.0000  0.0000  0.0000
  80. Cl 5 (d3)     0.0000  0.0000  0.0000  0.0000 -0.0001  0.0001  0.0002 -0.0002
  81. Cl 5 (d4)     0.0000  0.0000  0.0000  0.0000  0.0001 -0.0001 -0.0001  0.0001
  82. Cl 5 (d1)     0.0000  0.0000  0.0000  0.0000  0.0000  0.0000  0.0000  0.0000
  83. Cl 6 (s)     -0.4983 -0.4983  0.4983  0.4983  0.0000  0.0000  0.1434 -0.1434
  84. Cl 6 (s)     -0.0063 -0.0063  0.0063  0.0063  0.0001 -0.0001 -0.5156  0.5156
  85. Cl 6 (px)     0.0000  0.0000  0.0000  0.0000  0.0000  0.0000  0.0000  0.0000
  86. Cl 6 (py)     0.0001  0.0000  0.0000  0.0000  0.0000  0.0000  0.0020 -0.0020
  87. Cl 6 (pz)     0.0000  0.0000  0.0000  0.0000  0.0000  0.0000 -0.0013  0.0013
  88. Cl 6 (s)      0.0022  0.0020 -0.0020 -0.0018 -0.0002  0.0001 -0.0119  0.0114
  89. Cl 6 (px)     0.0000  0.0000  0.0000  0.0000  0.0000  0.0000  0.0000  0.0000
  90. Cl 6 (py)    -0.0002  0.0000  0.0001  0.0001  0.0000  0.0001  0.0008 -0.0007
  91. Cl 6 (pz)     0.0001  0.0001  0.0000  0.0000  0.0000 -0.0001 -0.0006  0.0002
  92. Cl 6 (s)     -0.0013 -0.0014  0.0014  0.0008  0.0020 -0.0020  0.0035 -0.0038
  93. Cl 6 (px)     0.0000  0.0000  0.0000  0.0000  0.0000  0.0000  0.0000  0.0000
  94. Cl 6 (py)     0.0003  0.0002 -0.0004  0.0000 -0.0011  0.0009 -0.0006  0.0010
  95. Cl 6 (pz)    -0.0002 -0.0003  0.0001  0.0001  0.0006 -0.0008  0.0004 -0.0001
  96. Cl 6 (d5)     0.0000  0.0000  0.0000  0.0000  0.0000  0.0000  0.0000  0.0000
  97. Cl 6 (d2)     0.0000  0.0000  0.0000  0.0000  0.0000  0.0000  0.0000  0.0000
  98. Cl 6 (d3)     0.0000  0.0000  0.0000  0.0000  0.0001 -0.0001  0.0002 -0.0002
  99. Cl 6 (d4)     0.0000  0.0000  0.0000  0.0000  0.0001 -0.0001  0.0001 -0.0001
 100. Cl 6 (d1)     0.0000  0.0000  0.0000  0.0000  0.0000  0.0000  0.0000  0.0000

           AO          9      10      11      12      13      14      15      16
      ------------ ------- ------- ------- ------- ------- ------- ------- -------
   1.  C 1 (s)     -0.0002 -0.0002  0.0000  0.0000  0.0000  0.0000  0.0000  0.0000
   2.  C 1 (s)      0.0001 -0.0002  0.0000 -0.0007  0.0000  0.0000 -0.0001  0.0000
   3.  C 1 (px)     0.0000  0.0000  0.0000  0.0000  0.0000  0.0000  0.0000  0.0000
   4.  C 1 (py)     0.0000  0.0000 -0.0003  0.0000  0.0000  0.0005  0.0000 -0.0002
   5.  C 1 (pz)    -0.0002  0.0000  0.0000  0.0002  0.0002  0.0000  0.0001  0.0000
   6.  C 1 (s)      0.0003  0.0001  0.0000  0.0025  0.0011  0.0000  0.0034  0.0000
   7.  C 1 (px)     0.0000  0.0000  0.0000  0.0000  0.0000  0.0000  0.0000  0.0000
   8.  C 1 (py)     0.0000  0.0000  0.0092  0.0000  0.0000  0.0008  0.0000  0.0023
   9.  C 1 (pz)     0.0010 -0.0006  0.0000  0.0007  0.0018  0.0000 -0.0051  0.0000
  10.  C 1 (d5)    -0.0001  0.0001  0.0000  0.0000 -0.0001  0.0000  0.0000  0.0000
  11.  C 1 (d2)     0.0000  0.0000  0.0000  0.0000  0.0000  0.0000  0.0000  0.0000
  12.  C 1 (d3)     0.0000  0.0000  0.0006  0.0000  0.0000  0.0008  0.0000 -0.0003
  13.  C 1 (d4)     0.0004  0.0004  0.0000 -0.0008 -0.0007  0.0000 -0.0001  0.0000
  14.  C 1 (d1)     0.0000  0.0000  0.0000  0.0000  0.0000  0.0000  0.0000  0.0000
  15.  C 2 (s)      0.0002 -0.0002  0.0000  0.0000  0.0000  0.0000  0.0000  0.0000
  16.  C 2 (s)     -0.0001 -0.0002  0.0000  0.0007  0.0000  0.0000  0.0001  0.0000
  17.  C 2 (px)     0.0000  0.0000  0.0000  0.0000  0.0000  0.0000  0.0000  0.0000
  18.  C 2 (py)     0.0000  0.0000  0.0003  0.0000  0.0000  0.0005  0.0000  0.0002
  19.  C 2 (pz)    -0.0002  0.0000  0.0000  0.0002 -0.0002  0.0000  0.0001  0.0000
  20.  C 2 (s)     -0.0003  0.0001  0.0000 -0.0025  0.0011  0.0000 -0.0034  0.0000
  21.  C 2 (px)     0.0000  0.0000  0.0000  0.0000  0.0000  0.0000  0.0000  0.0000
  22.  C 2 (py)     0.0000  0.0000 -0.0092  0.0000  0.0000  0.0008  0.0000 -0.0023
  23.  C 2 (pz)     0.0010  0.0006  0.0000  0.0007 -0.0018  0.0000 -0.0051  0.0000
  24.  C 2 (d5)     0.0001  0.0001  0.0000  0.0000 -0.0001  0.0000  0.0000  0.0000
  25.  C 2 (d2)     0.0000  0.0000  0.0000  0.0000  0.0000  0.0000  0.0000  0.0000
  26.  C 2 (d3)     0.0000  0.0000  0.0006  0.0000  0.0000 -0.0008  0.0000 -0.0003
  27.  C 2 (d4)    -0.0004  0.0004  0.0000  0.0008 -0.0007  0.0000  0.0001  0.0000
  28.  C 2 (d1)     0.0000  0.0000  0.0000  0.0000  0.0000  0.0000  0.0000  0.0000
  29. Cl 3 (s)     -0.1434 -0.1434 -0.0008 -0.0008 -0.0008 -0.0008  0.0000  0.0000
  30. Cl 3 (s)      0.5156  0.5155  0.0029  0.0029  0.0029  0.0029  0.0000  0.0001
  31. Cl 3 (px)     0.0000  0.0000  0.0000  0.0000  0.0000  0.0000  0.0000  0.0000
  32. Cl 3 (py)    -0.0020 -0.0020  0.4194  0.4205  0.4203  0.4195 -0.2638 -0.2656
  33. Cl 3 (pz)    -0.0013 -0.0013  0.2652  0.2636  0.2641  0.2654  0.4209  0.4198
  34. Cl 3 (s)      0.0115  0.0110 -0.0012 -0.0007 -0.0007 -0.0008 -0.0007 -0.0001
  35. Cl 3 (px)     0.0000  0.0000  0.0000  0.0000  0.0000  0.0000  0.0000  0.0000
  36. Cl 3 (py)    -0.0004 -0.0005  0.0103  0.0100  0.0099  0.0098 -0.0055 -0.0054
  37. Cl 3 (pz)    -0.0005 -0.0003  0.0067  0.0062  0.0062  0.0062  0.0088  0.0089
  38. Cl 3 (s)     -0.0038 -0.0025 -0.0030 -0.0008 -0.0008  0.0000  0.0023 -0.0009
  39. Cl 3 (px)     0.0000  0.0000  0.0000  0.0000  0.0000  0.0000  0.0000  0.0000
  40. Cl 3 (py)     0.0004  0.0000 -0.0012 -0.0017 -0.0017 -0.0024  0.0002  0.0021
  41. Cl 3 (pz)     0.0008  0.0002 -0.0002 -0.0013 -0.0015 -0.0011 -0.0025 -0.0023
  42. Cl 3 (d5)    -0.0001  0.0000 -0.0001  0.0001  0.0001 -0.0001 -0.0002 -0.0001
  43. Cl 3 (d2)     0.0000  0.0000  0.0000  0.0000  0.0000  0.0000  0.0000  0.0000
  44. Cl 3 (d3)     0.0001  0.0002 -0.0007 -0.0004 -0.0004 -0.0005 -0.0001 -0.0001
  45. Cl 3 (d4)    -0.0001 -0.0002  0.0003  0.0004  0.0004  0.0003 -0.0003  0.0000
  46. Cl 3 (d1)     0.0000  0.0000  0.0000  0.0000  0.0000  0.0000  0.0000  0.0000
  47. Cl 4 (s)     -0.1434 -0.1434  0.0008 -0.0008 -0.0008  0.0008  0.0000  0.0000
  48. Cl 4 (s)      0.5156  0.5155 -0.0029  0.0029  0.0029 -0.0029  0.0000 -0.0001
  49. Cl 4 (px)     0.0000  0.0000  0.0000  0.0000  0.0000  0.0000  0.0000  0.0000
  50. Cl 4 (py)     0.0020  0.0020  0.4194 -0.4205 -0.4203  0.4195  0.2638 -0.2656
  51. Cl 4 (pz)    -0.0013 -0.0013 -0.2652  0.2636  0.2641 -0.2654  0.4209 -0.4198
  52. Cl 4 (s)      0.0115  0.0110  0.0012 -0.0007 -0.0007  0.0008 -0.0007  0.0001
  53. Cl 4 (px)     0.0000  0.0000  0.0000  0.0000  0.0000  0.0000  0.0000  0.0000
  54. Cl 4 (py)     0.0004  0.0005  0.0103 -0.0100 -0.0099  0.0098  0.0055 -0.0054
  55. Cl 4 (pz)    -0.0005 -0.0003 -0.0067  0.0062  0.0062 -0.0062  0.0088 -0.0089
  56. Cl 4 (s)     -0.0038 -0.0025  0.0030 -0.0008 -0.0008  0.0000  0.0023  0.0009
  57. Cl 4 (px)     0.0000  0.0000  0.0000  0.0000  0.0000  0.0000  0.0000  0.0000
  58. Cl 4 (py)    -0.0004  0.0000 -0.0012  0.0017  0.0017 -0.0024 -0.0002  0.0021
  59. Cl 4 (pz)     0.0008  0.0002  0.0002 -0.0013 -0.0015  0.0011 -0.0025  0.0023
  60. Cl 4 (d5)    -0.0001  0.0000  0.0001  0.0001  0.0001  0.0001 -0.0002  0.0001
  61. Cl 4 (d2)     0.0000  0.0000  0.0000  0.0000  0.0000  0.0000  0.0000  0.0000
  62. Cl 4 (d3)    -0.0001 -0.0002 -0.0007  0.0004  0.0004 -0.0005  0.0001 -0.0001
  63. Cl 4 (d4)    -0.0001 -0.0002 -0.0003  0.0004  0.0004 -0.0003 -0.0003  0.0000
  64. Cl 4 (d1)     0.0000  0.0000  0.0000  0.0000  0.0000  0.0000  0.0000  0.0000
  65. Cl 5 (s)      0.1434 -0.1434 -0.0008  0.0008 -0.0008  0.0008  0.0000  0.0000
  66. Cl 5 (s)     -0.5156  0.5155  0.0029 -0.0029  0.0029 -0.0029  0.0000  0.0001
  67. Cl 5 (px)     0.0000  0.0000  0.0000  0.0000  0.0000  0.0000  0.0000  0.0000
  68. Cl 5 (py)    -0.0020  0.0020 -0.4194  0.4205 -0.4203  0.4195 -0.2638  0.2656
  69. Cl 5 (pz)    -0.0013  0.0013 -0.2652  0.2636 -0.2641  0.2654  0.4209 -0.4198
  70. Cl 5 (s)     -0.0115  0.0110 -0.0012  0.0007 -0.0007  0.0008  0.0007 -0.0001
  71. Cl 5 (px)     0.0000  0.0000  0.0000  0.0000  0.0000  0.0000  0.0000  0.0000
  72. Cl 5 (py)    -0.0004  0.0005 -0.0103  0.0100 -0.0099  0.0098 -0.0055  0.0054
  73. Cl 5 (pz)    -0.0005  0.0003 -0.0067  0.0062 -0.0062  0.0062  0.0088 -0.0089
  74. Cl 5 (s)      0.0038 -0.0025 -0.0030  0.0008 -0.0008  0.0000 -0.0023 -0.0009
  75. Cl 5 (px)     0.0000  0.0000  0.0000  0.0000  0.0000  0.0000  0.0000  0.0000
  76. Cl 5 (py)     0.0004  0.0000  0.0012 -0.0017  0.0017 -0.0024  0.0002 -0.0021
  77. Cl 5 (pz)     0.0008 -0.0002  0.0002 -0.0013  0.0015 -0.0011 -0.0025  0.0023
  78. Cl 5 (d5)     0.0001  0.0000 -0.0001 -0.0001  0.0001  0.0001  0.0002 -0.0001
  79. Cl 5 (d2)     0.0000  0.0000  0.0000  0.0000  0.0000  0.0000  0.0000  0.0000
  80. Cl 5 (d3)    -0.0001  0.0002 -0.0007  0.0004 -0.0004  0.0005  0.0001 -0.0001
  81. Cl 5 (d4)     0.0001 -0.0002  0.0003 -0.0004  0.0004 -0.0003  0.0003  0.0000
  82. Cl 5 (d1)     0.0000  0.0000  0.0000  0.0000  0.0000  0.0000  0.0000  0.0000
  83. Cl 6 (s)      0.1434 -0.1434  0.0008  0.0008 -0.0008 -0.0008  0.0000  0.0000
  84. Cl 6 (s)     -0.5156  0.5155 -0.0029 -0.0029  0.0029  0.0029  0.0000 -0.0001
  85. Cl 6 (px)     0.0000  0.0000  0.0000  0.0000  0.0000  0.0000  0.0000  0.0000
  86. Cl 6 (py)     0.0020 -0.0020 -0.4194 -0.4205  0.4203  0.4195  0.2638  0.2656
  87. Cl 6 (pz)    -0.0013  0.0013  0.2652  0.2636 -0.2641 -0.2654  0.4209  0.4198
  88. Cl 6 (s)     -0.0115  0.0110  0.0012  0.0007 -0.0007 -0.0008  0.0007  0.0001
  89. Cl 6 (px)     0.0000  0.0000  0.0000  0.0000  0.0000  0.0000  0.0000  0.0000
  90. Cl 6 (py)     0.0004 -0.0005 -0.0103 -0.0100  0.0099  0.0098  0.0055  0.0054
  91. Cl 6 (pz)    -0.0005  0.0003  0.0067  0.0062 -0.0062 -0.0062  0.0088  0.0089
  92. Cl 6 (s)      0.0038 -0.0025  0.0030  0.0008 -0.0008  0.0000 -0.0023  0.0009
  93. Cl 6 (px)     0.0000  0.0000  0.0000  0.0000  0.0000  0.0000  0.0000  0.0000
  94. Cl 6 (py)    -0.0004  0.0000  0.0012  0.0017 -0.0017 -0.0024 -0.0002 -0.0021
  95. Cl 6 (pz)     0.0008 -0.0002 -0.0002 -0.0013  0.0015  0.0011 -0.0025 -0.0023
  96. Cl 6 (d5)     0.0001  0.0000  0.0001 -0.0001  0.0001 -0.0001  0.0002  0.0001
  97. Cl 6 (d2)     0.0000  0.0000  0.0000  0.0000  0.0000  0.0000  0.0000  0.0000
  98. Cl 6 (d3)     0.0001 -0.0002 -0.0007 -0.0004  0.0004  0.0005 -0.0001 -0.0001
  99. Cl 6 (d4)     0.0001 -0.0002 -0.0003 -0.0004  0.0004  0.0003  0.0003  0.0000
 100. Cl 6 (d1)     0.0000  0.0000  0.0000  0.0000  0.0000  0.0000  0.0000  0.0000

           AO         17      18      19      20      21      22      23      24
      ------------ ------- ------- ------- ------- ------- ------- ------- -------
   1.  C 1 (s)      0.0000  0.0000  0.0000  0.0000  0.0000  0.0000 -0.1122 -0.0657
   2.  C 1 (s)      0.0003  0.0000  0.0000  0.0000  0.0000  0.0000  0.2235  0.1313
   3.  C 1 (px)     0.0000  0.0000  0.0000  0.0000 -0.0001 -0.0002  0.0000  0.0000
   4.  C 1 (py)     0.0000 -0.0002  0.0000  0.0000  0.0000  0.0000  0.0000  0.0000
   5.  C 1 (pz)     0.0001  0.0000  0.0000  0.0000  0.0000  0.0000 -0.0226  0.0913
   6.  C 1 (s)     -0.0013  0.0000  0.0000  0.0000  0.0000  0.0000  0.1585  0.1047
   7.  C 1 (px)     0.0000  0.0000  0.0000  0.0000  0.0003  0.0005  0.0000  0.0000
   8.  C 1 (py)     0.0000  0.0009  0.0000  0.0000  0.0000  0.0000  0.0000  0.0000
   9.  C 1 (pz)    -0.0008  0.0000  0.0000  0.0000  0.0000  0.0000  0.0140  0.0334
  10.  C 1 (d5)    -0.0002  0.0000  0.0000  0.0000  0.0000  0.0000  0.0080 -0.0015
  11.  C 1 (d2)     0.0000  0.0000  0.0000  0.0000 -0.0002 -0.0001  0.0000  0.0000
  12.  C 1 (d3)     0.0000  0.0001  0.0000  0.0000  0.0000  0.0000  0.0000  0.0000
  13.  C 1 (d4)    -0.0001  0.0000  0.0000  0.0000  0.0000  0.0000 -0.0124 -0.0138
  14.  C 1 (d1)     0.0000  0.0000 -0.0003 -0.0002  0.0000  0.0000  0.0000  0.0000
  15.  C 2 (s)      0.0000  0.0000  0.0000  0.0000  0.0000  0.0000 -0.1122  0.0657
  16.  C 2 (s)      0.0003  0.0000  0.0000  0.0000  0.0000  0.0000  0.2235 -0.1313
  17.  C 2 (px)     0.0000  0.0000  0.0000  0.0000  0.0001 -0.0002  0.0000  0.0000
  18.  C 2 (py)     0.0000 -0.0002  0.0000  0.0000  0.0000  0.0000  0.0000  0.0000
  19.  C 2 (pz)    -0.0001  0.0000  0.0000  0.0000  0.0000  0.0000  0.0226  0.0913
  20.  C 2 (s)     -0.0013  0.0000  0.0000  0.0000  0.0000  0.0000  0.1585 -0.1047
  21.  C 2 (px)     0.0000  0.0000  0.0000  0.0000 -0.0003  0.0005  0.0000  0.0000
  22.  C 2 (py)     0.0000  0.0009  0.0000  0.0000  0.0000  0.0000  0.0000  0.0000
  23.  C 2 (pz)     0.0008  0.0000  0.0000  0.0000  0.0000  0.0000 -0.0140  0.0334
  24.  C 2 (d5)    -0.0002  0.0000  0.0000  0.0000  0.0000  0.0000  0.0080  0.0015
  25.  C 2 (d2)     0.0000  0.0000  0.0000  0.0000 -0.0002  0.0001  0.0000  0.0000
  26.  C 2 (d3)     0.0000 -0.0001  0.0000  0.0000  0.0000  0.0000  0.0000  0.0000
  27.  C 2 (d4)    -0.0001  0.0000  0.0000  0.0000  0.0000  0.0000 -0.0124  0.0138
  28.  C 2 (d1)     0.0000  0.0000  0.0003 -0.0002  0.0000  0.0000  0.0000  0.0000
  29. Cl 3 (s)      0.0000  0.0000  0.0000  0.0000  0.0000  0.0000  0.0282  0.0356
  30. Cl 3 (s)      0.0000  0.0001  0.0000  0.0000  0.0000  0.0000 -0.1278 -0.1618
  31. Cl 3 (px)     0.0000  0.0000  0.4968  0.4968  0.4968  0.4968  0.0000  0.0000
  32. Cl 3 (py)    -0.2643 -0.2656  0.0000  0.0000  0.0000  0.0000  0.0252  0.0257
  33. Cl 3 (pz)     0.4206  0.4198  0.0000  0.0000  0.0000  0.0000  0.0172  0.0108
  34. Cl 3 (s)      0.0000  0.0005  0.0000  0.0000  0.0000  0.0000  0.2533  0.3226
  35. Cl 3 (px)     0.0000  0.0000  0.0103  0.0101  0.0101  0.0101  0.0000  0.0000
  36. Cl 3 (py)    -0.0054 -0.0054  0.0000  0.0000  0.0000  0.0000 -0.0573 -0.0590
  37. Cl 3 (pz)     0.0085  0.0086  0.0000  0.0000  0.0000  0.0000 -0.0393 -0.0245
  38. Cl 3 (s)      0.0005 -0.0014  0.0000  0.0000  0.0000  0.0000  0.0717  0.1085
  39. Cl 3 (px)     0.0000  0.0000 -0.0026 -0.0023 -0.0023 -0.0022  0.0000  0.0000
  40. Cl 3 (py)     0.0007  0.0019  0.0000  0.0000  0.0000  0.0000  0.0030  0.0009
  41. Cl 3 (pz)    -0.0017 -0.0016  0.0000  0.0000  0.0000  0.0000 -0.0010 -0.0012
  42. Cl 3 (d5)    -0.0003 -0.0002  0.0000  0.0000  0.0000  0.0000 -0.0001 -0.0027
  43. Cl 3 (d2)     0.0000  0.0000 -0.0001 -0.0001 -0.0001 -0.0001  0.0000  0.0000
  44. Cl 3 (d3)    -0.0001 -0.0001  0.0000  0.0000  0.0000  0.0000  0.0142  0.0122
  45. Cl 3 (d4)    -0.0002  0.0000  0.0000  0.0000  0.0000  0.0000 -0.0112 -0.0115
  46. Cl 3 (d1)     0.0000  0.0000 -0.0001 -0.0001 -0.0002 -0.0002  0.0000  0.0000
  47. Cl 4 (s)      0.0000  0.0000  0.0000  0.0000  0.0000  0.0000  0.0282  0.0356
  48. Cl 4 (s)      0.0000 -0.0001  0.0000  0.0000  0.0000  0.0000 -0.1278 -0.1618
  49. Cl 4 (px)     0.0000  0.0000 -0.4968 -0.4968  0.4968  0.4968  0.0000  0.0000
  50. Cl 4 (py)     0.2643 -0.2656  0.0000  0.0000  0.0000  0.0000 -0.0252 -0.0257
  51. Cl 4 (pz)     0.4206 -0.4198  0.0000  0.0000  0.0000  0.0000  0.0172  0.0108
  52. Cl 4 (s)      0.0000 -0.0005  0.0000  0.0000  0.0000  0.0000  0.2533  0.3226
  53. Cl 4 (px)     0.0000  0.0000 -0.0103 -0.0101  0.0101  0.0101  0.0000  0.0000
  54. Cl 4 (py)     0.0054 -0.0054  0.0000  0.0000  0.0000  0.0000  0.0573  0.0590
  55. Cl 4 (pz)     0.0085 -0.0086  0.0000  0.0000  0.0000  0.0000 -0.0393 -0.0245
  56. Cl 4 (s)      0.0005  0.0014  0.0000  0.0000  0.0000  0.0000  0.0717  0.1085
  57. Cl 4 (px)     0.0000  0.0000  0.0026  0.0023 -0.0023 -0.0022  0.0000  0.0000
  58. Cl 4 (py)    -0.0007  0.0019  0.0000  0.0000  0.0000  0.0000 -0.0030 -0.0009
  59. Cl 4 (pz)    -0.0017  0.0016  0.0000  0.0000  0.0000  0.0000 -0.0010 -0.0012
  60. Cl 4 (d5)    -0.0003  0.0002  0.0000  0.0000  0.0000  0.0000 -0.0001 -0.0027
  61. Cl 4 (d2)     0.0000  0.0000  0.0001  0.0001 -0.0001 -0.0001  0.0000  0.0000
  62. Cl 4 (d3)     0.0001 -0.0001  0.0000  0.0000  0.0000  0.0000 -0.0142 -0.0122
  63. Cl 4 (d4)    -0.0002  0.0000  0.0000  0.0000  0.0000  0.0000 -0.0112 -0.0115
  64. Cl 4 (d1)     0.0000  0.0000 -0.0001 -0.0001  0.0002  0.0002  0.0000  0.0000
  65. Cl 5 (s)      0.0000  0.0000  0.0000  0.0000  0.0000  0.0000  0.0282 -0.0356
  66. Cl 5 (s)      0.0000 -0.0001  0.0000  0.0000  0.0000  0.0000 -0.1278  0.1618
  67. Cl 5 (px)     0.0000  0.0000  0.4968 -0.4968 -0.4968  0.4968  0.0000  0.0000
  68. Cl 5 (py)     0.2643 -0.2656  0.0000  0.0000  0.0000  0.0000 -0.0252  0.0257
  69. Cl 5 (pz)    -0.4206  0.4198  0.0000  0.0000  0.0000  0.0000 -0.0172  0.0108
  70. Cl 5 (s)      0.0000 -0.0005  0.0000  0.0000  0.0000  0.0000  0.2533 -0.3226
  71. Cl 5 (px)     0.0000  0.0000  0.0103 -0.0101 -0.0101  0.0101  0.0000  0.0000
  72. Cl 5 (py)     0.0054 -0.0054  0.0000  0.0000  0.0000  0.0000  0.0573 -0.0590
  73. Cl 5 (pz)    -0.0085  0.0086  0.0000  0.0000  0.0000  0.0000  0.0393 -0.0245
  74. Cl 5 (s)      0.0005  0.0014  0.0000  0.0000  0.0000  0.0000  0.0717 -0.1085
  75. Cl 5 (px)     0.0000  0.0000 -0.0026  0.0023  0.0023 -0.0022  0.0000  0.0000
  76. Cl 5 (py)    -0.0007  0.0019  0.0000  0.0000  0.0000  0.0000 -0.0030  0.0009
  77. Cl 5 (pz)     0.0017 -0.0016  0.0000  0.0000  0.0000  0.0000  0.0010 -0.0012
  78. Cl 5 (d5)    -0.0003  0.0002  0.0000  0.0000  0.0000  0.0000 -0.0001  0.0027
  79. Cl 5 (d2)     0.0000  0.0000  0.0001 -0.0001 -0.0001  0.0001  0.0000  0.0000
  80. Cl 5 (d3)    -0.0001  0.0001  0.0000  0.0000  0.0000  0.0000  0.0142 -0.0122
  81. Cl 5 (d4)    -0.0002  0.0000  0.0000  0.0000  0.0000  0.0000 -0.0112  0.0115
  82. Cl 5 (d1)     0.0000  0.0000  0.0001 -0.0001 -0.0002  0.0002  0.0000  0.0000
  83. Cl 6 (s)      0.0000  0.0000  0.0000  0.0000  0.0000  0.0000  0.0282 -0.0356
  84. Cl 6 (s)      0.0000  0.0001  0.0000  0.0000  0.0000  0.0000 -0.1278  0.1618
  85. Cl 6 (px)     0.0000  0.0000 -0.4968  0.4968 -0.4968  0.4968  0.0000  0.0000
  86. Cl 6 (py)    -0.2643 -0.2656  0.0000  0.0000  0.0000  0.0000  0.0252 -0.0257
  87. Cl 6 (pz)    -0.4206 -0.4198  0.0000  0.0000  0.0000  0.0000 -0.0172  0.0108
  88. Cl 6 (s)      0.0000  0.0005  0.0000  0.0000  0.0000  0.0000  0.2533 -0.3226
  89. Cl 6 (px)     0.0000  0.0000 -0.0103  0.0101 -0.0101  0.0101  0.0000  0.0000
  90. Cl 6 (py)    -0.0054 -0.0054  0.0000  0.0000  0.0000  0.0000 -0.0573  0.0590
  91. Cl 6 (pz)    -0.0085 -0.0086  0.0000  0.0000  0.0000  0.0000  0.0393 -0.0245
  92. Cl 6 (s)      0.0005 -0.0014  0.0000  0.0000  0.0000  0.0000  0.0717 -0.1085
  93. Cl 6 (px)     0.0000  0.0000  0.0026 -0.0023  0.0023 -0.0022  0.0000  0.0000
  94. Cl 6 (py)     0.0007  0.0019  0.0000  0.0000  0.0000  0.0000  0.0030 -0.0009
  95. Cl 6 (pz)     0.0017  0.0016  0.0000  0.0000  0.0000  0.0000  0.0010 -0.0012
  96. Cl 6 (d5)    -0.0003 -0.0002  0.0000  0.0000  0.0000  0.0000 -0.0001  0.0027
  97. Cl 6 (d2)     0.0000  0.0000 -0.0001  0.0001 -0.0001  0.0001  0.0000  0.0000
  98. Cl 6 (d3)     0.0001  0.0001  0.0000  0.0000  0.0000  0.0000 -0.0142  0.0122
  99. Cl 6 (d4)    -0.0002  0.0000  0.0000  0.0000  0.0000  0.0000 -0.0112  0.0115
 100. Cl 6 (d1)     0.0000  0.0000  0.0001 -0.0001  0.0002 -0.0002  0.0000  0.0000

           AO         25      26      27      28      29      30      31      32
      ------------ ------- ------- ------- ------- ------- ------- ------- -------
   1.  C 1 (s)      0.0000  0.0000  0.1064 -0.0911 -0.0174  0.0000  0.0000  0.0000
   2.  C 1 (s)      0.0000  0.0000 -0.2145  0.1875  0.0317  0.0000  0.0000  0.0000
   3.  C 1 (px)     0.0000  0.0000  0.0000  0.0000  0.0000  0.0000  0.2710  0.0000
   4.  C 1 (py)     0.1244  0.1004  0.0000  0.0000  0.0000  0.2521  0.0000  0.2372
   5.  C 1 (pz)     0.0000  0.0000  0.2209  0.1306  0.2897  0.0000  0.0000  0.0000
   6.  C 1 (s)      0.0000  0.0000 -0.1825  0.2429  0.1483  0.0000  0.0000  0.0000
   7.  C 1 (px)     0.0000  0.0000  0.0000  0.0000  0.0000  0.0000  0.1593  0.0000
   8.  C 1 (py)     0.0328  0.0463  0.0000  0.0000  0.0000  0.1515  0.0000  0.2380
   9.  C 1 (pz)     0.0000  0.0000  0.0417  0.1044  0.1518  0.0000  0.0000  0.0000
  10.  C 1 (d5)     0.0000  0.0000 -0.0143 -0.0006 -0.0019  0.0000  0.0000  0.0000
  11.  C 1 (d2)     0.0000  0.0000  0.0000  0.0000  0.0000  0.0000 -0.0072  0.0000
  12.  C 1 (d3)     0.0122  0.0168  0.0000  0.0000  0.0000  0.0084  0.0000  0.0291
  13.  C 1 (d4)     0.0000  0.0000 -0.0017 -0.0128 -0.0090  0.0000  0.0000  0.0000
  14.  C 1 (d1)     0.0000  0.0000  0.0000  0.0000  0.0000  0.0000  0.0000  0.0000
  15.  C 2 (s)      0.0000  0.0000  0.1064  0.0911 -0.0174  0.0000  0.0000  0.0000
  16.  C 2 (s)      0.0000  0.0000 -0.2145 -0.1875  0.0317  0.0000  0.0000  0.0000
  17.  C 2 (px)     0.0000  0.0000  0.0000  0.0000  0.0000  0.0000  0.2710  0.0000
  18.  C 2 (py)     0.1244 -0.1004  0.0000  0.0000  0.0000  0.2521  0.0000 -0.2372
  19.  C 2 (pz)     0.0000  0.0000 -0.2209  0.1306 -0.2897  0.0000  0.0000  0.0000
  20.  C 2 (s)      0.0000  0.0000 -0.1825 -0.2429  0.1483  0.0000  0.0000  0.0000
  21.  C 2 (px)     0.0000  0.0000  0.0000  0.0000  0.0000  0.0000  0.1593  0.0000
  22.  C 2 (py)     0.0328 -0.0463  0.0000  0.0000  0.0000  0.1515  0.0000 -0.2380
  23.  C 2 (pz)     0.0000  0.0000 -0.0417  0.1044 -0.1518  0.0000  0.0000  0.0000
  24.  C 2 (d5)     0.0000  0.0000 -0.0143  0.0006 -0.0019  0.0000  0.0000  0.0000
  25.  C 2 (d2)     0.0000  0.0000  0.0000  0.0000  0.0000  0.0000  0.0072  0.0000
  26.  C 2 (d3)    -0.0122  0.0168  0.0000  0.0000  0.0000 -0.0084  0.0000  0.0291
  27.  C 2 (d4)     0.0000  0.0000 -0.0017  0.0128 -0.0090  0.0000  0.0000  0.0000
  28.  C 2 (d1)     0.0000  0.0000  0.0000  0.0000  0.0000  0.0000  0.0000  0.0000
  29. Cl 3 (s)      0.0390  0.0407  0.0272 -0.0202 -0.0111 -0.0129  0.0000 -0.0072
  30. Cl 3 (s)     -0.1775 -0.1856 -0.1242  0.0938  0.0522  0.0613  0.0000  0.0351
  31. Cl 3 (px)     0.0000  0.0000  0.0000  0.0000  0.0000  0.0000 -0.0961  0.0000
  32. Cl 3 (py)     0.0119  0.0105 -0.0128  0.0872  0.1024  0.0668  0.0000  0.0924
  33. Cl 3 (pz)     0.0138  0.0081 -0.0213  0.0390 -0.0019  0.0859  0.0000  0.0866
  34. Cl 3 (s)      0.3550  0.3704  0.2515 -0.1876 -0.1036 -0.1195  0.0000 -0.0645
  35. Cl 3 (px)     0.0000  0.0000  0.0000  0.0000  0.0000  0.0000  0.2465  0.0000
  36. Cl 3 (py)    -0.0269 -0.0232  0.0314 -0.2167 -0.2569 -0.1670  0.0000 -0.2330
  37. Cl 3 (pz)    -0.0321 -0.0178  0.0520 -0.0971  0.0069 -0.2171  0.0000 -0.2189
  38. Cl 3 (s)      0.1395  0.1485  0.1370 -0.1789 -0.1280 -0.1495  0.0000 -0.1496
  39. Cl 3 (px)     0.0000  0.0000  0.0000  0.0000  0.0000  0.0000  0.1023  0.0000
  40. Cl 3 (py)    -0.0034 -0.0019 -0.0008 -0.0342 -0.0619 -0.0279  0.0000 -0.0516
  41. Cl 3 (pz)    -0.0017 -0.0003  0.0055 -0.0139  0.0195 -0.0557  0.0000 -0.0575
  42. Cl 3 (d5)     0.0014 -0.0001 -0.0041 -0.0058 -0.0130  0.0053  0.0000  0.0004
  43. Cl 3 (d2)     0.0000  0.0000  0.0000  0.0000  0.0000  0.0000 -0.0119  0.0000
  44. Cl 3 (d3)     0.0098  0.0083 -0.0092  0.0224  0.0141  0.0261  0.0000  0.0277
  45. Cl 3 (d4)    -0.0062 -0.0056  0.0020 -0.0209 -0.0219 -0.0143  0.0000 -0.0173
  46. Cl 3 (d1)     0.0000  0.0000  0.0000  0.0000  0.0000  0.0000 -0.0177  0.0000
  47. Cl 4 (s)     -0.0390 -0.0407  0.0272 -0.0202 -0.0111  0.0129  0.0000  0.0072
  48. Cl 4 (s)      0.1775  0.1856 -0.1242  0.0938  0.0522 -0.0613  0.0000 -0.0351
  49. Cl 4 (px)     0.0000  0.0000  0.0000  0.0000  0.0000  0.0000 -0.0961  0.0000
  50. Cl 4 (py)     0.0119  0.0105  0.0128 -0.0872 -0.1024  0.0668  0.0000  0.0924
  51. Cl 4 (pz)    -0.0138 -0.0081 -0.0213  0.0390 -0.0019 -0.0859  0.0000 -0.0866
  52. Cl 4 (s)     -0.3550 -0.3704  0.2515 -0.1876 -0.1036  0.1195  0.0000  0.0645
  53. Cl 4 (px)     0.0000  0.0000  0.0000  0.0000  0.0000  0.0000  0.2465  0.0000
  54. Cl 4 (py)    -0.0269 -0.0232 -0.0314  0.2167  0.2569 -0.1670  0.0000 -0.2330
  55. Cl 4 (pz)     0.0321  0.0178  0.0520 -0.0971  0.0069  0.2171  0.0000  0.2189
  56. Cl 4 (s)     -0.1395 -0.1485  0.1370 -0.1789 -0.1280  0.1495  0.0000  0.1496
  57. Cl 4 (px)     0.0000  0.0000  0.0000  0.0000  0.0000  0.0000  0.1023  0.0000
  58. Cl 4 (py)    -0.0034 -0.0019  0.0008  0.0342  0.0619 -0.0279  0.0000 -0.0516
  59. Cl 4 (pz)     0.0017  0.0003  0.0055 -0.0139  0.0195  0.0557  0.0000  0.0575
  60. Cl 4 (d5)    -0.0014  0.0001 -0.0041 -0.0058 -0.0130 -0.0053  0.0000 -0.0004
  61. Cl 4 (d2)     0.0000  0.0000  0.0000  0.0000  0.0000  0.0000 -0.0119  0.0000
  62. Cl 4 (d3)     0.0098  0.0083  0.0092 -0.0224 -0.0141  0.0261  0.0000  0.0277
  63. Cl 4 (d4)     0.0062  0.0056  0.0020 -0.0209 -0.0219  0.0143  0.0000  0.0173
  64. Cl 4 (d1)     0.0000  0.0000  0.0000  0.0000  0.0000  0.0000  0.0177  0.0000
  65. Cl 5 (s)     -0.0390  0.0407  0.0272  0.0202 -0.0111  0.0129  0.0000 -0.0072
  66. Cl 5 (s)      0.1775 -0.1856 -0.1242 -0.0938  0.0522 -0.0613  0.0000  0.0351
  67. Cl 5 (px)     0.0000  0.0000  0.0000  0.0000  0.0000  0.0000 -0.0961  0.0000
  68. Cl 5 (py)     0.0119 -0.0105  0.0128  0.0872 -0.1024  0.0668  0.0000 -0.0924
  69. Cl 5 (pz)     0.0138 -0.0081  0.0213  0.0390  0.0019  0.0859  0.0000 -0.0866
  70. Cl 5 (s)     -0.3550  0.3704  0.2515  0.1876 -0.1036  0.1195  0.0000 -0.0645
  71. Cl 5 (px)     0.0000  0.0000  0.0000  0.0000  0.0000  0.0000  0.2465  0.0000
  72. Cl 5 (py)    -0.0269  0.0232 -0.0314 -0.2167  0.2569 -0.1670  0.0000  0.2330
  73. Cl 5 (pz)    -0.0321  0.0178 -0.0520 -0.0971 -0.0069 -0.2171  0.0000  0.2189
  74. Cl 5 (s)     -0.1395  0.1485  0.1370  0.1789 -0.1280  0.1495  0.0000 -0.1496
  75. Cl 5 (px)     0.0000  0.0000  0.0000  0.0000  0.0000  0.0000  0.1023  0.0000
  76. Cl 5 (py)    -0.0034  0.0019  0.0008 -0.0342  0.0619 -0.0279  0.0000  0.0516
  77. Cl 5 (pz)    -0.0017  0.0003 -0.0055 -0.0139 -0.0195 -0.0557  0.0000  0.0575
  78. Cl 5 (d5)    -0.0014 -0.0001 -0.0041  0.0058 -0.0130 -0.0053  0.0000  0.0004
  79. Cl 5 (d2)     0.0000  0.0000  0.0000  0.0000  0.0000  0.0000  0.0119  0.0000
  80. Cl 5 (d3)    -0.0098  0.0083 -0.0092 -0.0224  0.0141 -0.0261  0.0000  0.0277
  81. Cl 5 (d4)     0.0062 -0.0056  0.0020  0.0209 -0.0219  0.0143  0.0000 -0.0173
  82. Cl 5 (d1)     0.0000  0.0000  0.0000  0.0000  0.0000  0.0000  0.0177  0.0000
  83. Cl 6 (s)      0.0390 -0.0407  0.0272  0.0202 -0.0111 -0.0129  0.0000  0.0072
  84. Cl 6 (s)     -0.1775  0.1856 -0.1242 -0.0938  0.0522  0.0613  0.0000 -0.0351
  85. Cl 6 (px)     0.0000  0.0000  0.0000  0.0000  0.0000  0.0000 -0.0961  0.0000
  86. Cl 6 (py)     0.0119 -0.0105 -0.0128 -0.0872  0.1024  0.0668  0.0000 -0.0924
  87. Cl 6 (pz)    -0.0138  0.0081  0.0213  0.0390  0.0019 -0.0859  0.0000  0.0866
  88. Cl 6 (s)      0.3550 -0.3704  0.2515  0.1876 -0.1036 -0.1195  0.0000  0.0645
  89. Cl 6 (px)     0.0000  0.0000  0.0000  0.0000  0.0000  0.0000  0.2465  0.0000
  90. Cl 6 (py)    -0.0269  0.0232  0.0314  0.2167 -0.2569 -0.1670  0.0000  0.2330
  91. Cl 6 (pz)     0.0321 -0.0178 -0.0520 -0.0971 -0.0069  0.2171  0.0000 -0.2189
  92. Cl 6 (s)      0.1395 -0.1485  0.1370  0.1789 -0.1280 -0.1495  0.0000  0.1496
  93. Cl 6 (px)     0.0000  0.0000  0.0000  0.0000  0.0000  0.0000  0.1023  0.0000
  94. Cl 6 (py)    -0.0034  0.0019 -0.0008  0.0342 -0.0619 -0.0279  0.0000  0.0516
  95. Cl 6 (pz)     0.0017 -0.0003 -0.0055 -0.0139 -0.0195  0.0557  0.0000 -0.0575
  96. Cl 6 (d5)     0.0014  0.0001 -0.0041  0.0058 -0.0130  0.0053  0.0000 -0.0004
  97. Cl 6 (d2)     0.0000  0.0000  0.0000  0.0000  0.0000  0.0000  0.0119  0.0000
  98. Cl 6 (d3)    -0.0098  0.0083  0.0092  0.0224 -0.0141 -0.0261  0.0000  0.0277
  99. Cl 6 (d4)    -0.0062  0.0056  0.0020  0.0209 -0.0219 -0.0143  0.0000  0.0173
 100. Cl 6 (d1)     0.0000  0.0000  0.0000  0.0000  0.0000  0.0000 -0.0177  0.0000

           AO         33      34      35      36      37      38      39      40
      ------------ ------- ------- ------- ------- ------- ------- ------- -------
   1.  C 1 (s)      0.0000 -0.0180  0.0219  0.0000  0.0000  0.0000  0.0000  0.0000
   2.  C 1 (s)      0.0000  0.0430 -0.0377  0.0000  0.0000  0.0000  0.0000  0.0000
   3.  C 1 (px)     0.1087  0.0000  0.0000  0.0000  0.0000  0.0000  0.0000  0.3212
   4.  C 1 (py)     0.0000  0.0000  0.0000  0.0000 -0.0742  0.0000  0.0217  0.0000
   5.  C 1 (pz)     0.0000 -0.1803  0.0136  0.0000  0.0000  0.0000  0.0000  0.0000
   6.  C 1 (s)      0.0000  0.0435 -0.2431  0.0000  0.0000  0.0000  0.0000  0.0000
   7.  C 1 (px)     0.0995  0.0000  0.0000  0.0000  0.0000  0.0000  0.0000  0.2646
   8.  C 1 (py)     0.0000  0.0000  0.0000  0.0000 -0.0179  0.0000 -0.0007  0.0000
   9.  C 1 (pz)     0.0000 -0.0426  0.1573  0.0000  0.0000  0.0000  0.0000  0.0000
  10.  C 1 (d5)     0.0000  0.0205  0.0166  0.0000  0.0000  0.0000  0.0000  0.0000
  11.  C 1 (d2)     0.0151  0.0000  0.0000  0.0000  0.0000  0.0000  0.0000 -0.0296
  12.  C 1 (d3)     0.0000  0.0000  0.0000  0.0000 -0.0170  0.0000  0.0142  0.0000
  13.  C 1 (d4)     0.0000  0.0172  0.0123  0.0000  0.0000  0.0000  0.0000  0.0000
  14.  C 1 (d1)     0.0000  0.0000  0.0000  0.0186  0.0000  0.0169  0.0000  0.0000
  15.  C 2 (s)      0.0000 -0.0180 -0.0219  0.0000  0.0000  0.0000  0.0000  0.0000
  16.  C 2 (s)      0.0000  0.0430  0.0377  0.0000  0.0000  0.0000  0.0000  0.0000
  17.  C 2 (px)    -0.1087  0.0000  0.0000  0.0000  0.0000  0.0000  0.0000  0.3212
  18.  C 2 (py)     0.0000  0.0000  0.0000  0.0000 -0.0742  0.0000 -0.0217  0.0000
  19.  C 2 (pz)     0.0000  0.1803  0.0136  0.0000  0.0000  0.0000  0.0000  0.0000
  20.  C 2 (s)      0.0000  0.0435  0.2431  0.0000  0.0000  0.0000  0.0000  0.0000
  21.  C 2 (px)    -0.0995  0.0000  0.0000  0.0000  0.0000  0.0000  0.0000  0.2646
  22.  C 2 (py)     0.0000  0.0000  0.0000  0.0000 -0.0179  0.0000  0.0007  0.0000
  23.  C 2 (pz)     0.0000  0.0426  0.1573  0.0000  0.0000  0.0000  0.0000  0.0000
  24.  C 2 (d5)     0.0000  0.0205 -0.0166  0.0000  0.0000  0.0000  0.0000  0.0000
  25.  C 2 (d2)     0.0151  0.0000  0.0000  0.0000  0.0000  0.0000  0.0000  0.0296
  26.  C 2 (d3)     0.0000  0.0000  0.0000  0.0000  0.0170  0.0000  0.0142  0.0000
  27.  C 2 (d4)     0.0000  0.0172 -0.0123  0.0000  0.0000  0.0000  0.0000  0.0000
  28.  C 2 (d1)     0.0000  0.0000  0.0000  0.0186  0.0000 -0.0169  0.0000  0.0000
  29. Cl 3 (s)      0.0000  0.0017 -0.0016  0.0000 -0.0012  0.0000 -0.0003  0.0000
  30. Cl 3 (s)      0.0000 -0.0086  0.0064  0.0000  0.0039  0.0000  0.0017  0.0000
  31. Cl 3 (px)    -0.1334  0.0000  0.0000 -0.1414  0.0000 -0.1444  0.0000  0.1041
  32. Cl 3 (py)     0.0000  0.0206  0.0601  0.0000 -0.1106  0.0000  0.1021  0.0000
  33. Cl 3 (pz)     0.0000 -0.1312 -0.1282  0.0000  0.0907  0.0000 -0.1111  0.0000
  34. Cl 3 (s)      0.0000  0.0144 -0.0190  0.0000 -0.0171  0.0000 -0.0020  0.0000
  35. Cl 3 (px)     0.3464  0.0000  0.0000  0.3682  0.0000  0.3771  0.0000 -0.2758
  36. Cl 3 (py)     0.0000 -0.0540 -0.1554  0.0000  0.2896  0.0000 -0.2688  0.0000
  37. Cl 3 (pz)     0.0000  0.3416  0.3343  0.0000 -0.2365  0.0000  0.2922  0.0000
  38. Cl 3 (s)      0.0000  0.0192 -0.0143  0.0000  0.0080  0.0000 -0.0002  0.0000
  39. Cl 3 (px)     0.1679  0.0000  0.0000  0.2028  0.0000  0.2048  0.0000 -0.1970
  40. Cl 3 (py)     0.0000 -0.0419 -0.0774  0.0000  0.1450  0.0000 -0.1454  0.0000
  41. Cl 3 (pz)     0.0000  0.1763  0.1678  0.0000 -0.1387  0.0000  0.1632  0.0000
  42. Cl 3 (d5)     0.0000 -0.0028 -0.0044  0.0000  0.0070  0.0000 -0.0032  0.0000
  43. Cl 3 (d2)    -0.0060  0.0000  0.0000 -0.0064  0.0000 -0.0044  0.0000 -0.0118
  44. Cl 3 (d3)     0.0000 -0.0110 -0.0118  0.0000 -0.0104  0.0000  0.0022  0.0000
  45. Cl 3 (d4)     0.0000  0.0058 -0.0012  0.0000  0.0087  0.0000 -0.0049  0.0000
  46. Cl 3 (d1)    -0.0136  0.0000  0.0000 -0.0062  0.0000 -0.0067  0.0000 -0.0148
  47. Cl 4 (s)      0.0000  0.0017 -0.0016  0.0000  0.0012  0.0000  0.0003  0.0000
  48. Cl 4 (s)      0.0000 -0.0086  0.0064  0.0000 -0.0039  0.0000 -0.0017  0.0000
  49. Cl 4 (px)    -0.1334  0.0000  0.0000  0.1414  0.0000  0.1444  0.0000  0.1041
  50. Cl 4 (py)     0.0000 -0.0206 -0.0601  0.0000 -0.1106  0.0000  0.1021  0.0000
  51. Cl 4 (pz)     0.0000 -0.1312 -0.1282  0.0000 -0.0907  0.0000  0.1111  0.0000
  52. Cl 4 (s)      0.0000  0.0144 -0.0190  0.0000  0.0171  0.0000  0.0020  0.0000
  53. Cl 4 (px)     0.3464  0.0000  0.0000 -0.3682  0.0000 -0.3771  0.0000 -0.2758
  54. Cl 4 (py)     0.0000  0.0540  0.1554  0.0000  0.2896  0.0000 -0.2688  0.0000
  55. Cl 4 (pz)     0.0000  0.3416  0.3343  0.0000  0.2365  0.0000 -0.2922  0.0000
  56. Cl 4 (s)      0.0000  0.0192 -0.0143  0.0000 -0.0080  0.0000  0.0002  0.0000
  57. Cl 4 (px)     0.1679  0.0000  0.0000 -0.2028  0.0000 -0.2048  0.0000 -0.1970
  58. Cl 4 (py)     0.0000  0.0419  0.0774  0.0000  0.1450  0.0000 -0.1454  0.0000
  59. Cl 4 (pz)     0.0000  0.1763  0.1678  0.0000  0.1387  0.0000 -0.1632  0.0000
  60. Cl 4 (d5)     0.0000 -0.0028 -0.0044  0.0000 -0.0070  0.0000  0.0032  0.0000
  61. Cl 4 (d2)    -0.0060  0.0000  0.0000  0.0064  0.0000  0.0044  0.0000 -0.0118
  62. Cl 4 (d3)     0.0000  0.0110  0.0118  0.0000 -0.0104  0.0000  0.0022  0.0000
  63. Cl 4 (d4)     0.0000  0.0058 -0.0012  0.0000 -0.0087  0.0000  0.0049  0.0000
  64. Cl 4 (d1)     0.0136  0.0000  0.0000 -0.0062  0.0000 -0.0067  0.0000  0.0148
  65. Cl 5 (s)      0.0000  0.0017  0.0016  0.0000  0.0012  0.0000 -0.0003  0.0000
  66. Cl 5 (s)      0.0000 -0.0086 -0.0064  0.0000 -0.0039  0.0000  0.0017  0.0000
  67. Cl 5 (px)     0.1334  0.0000  0.0000  0.1414  0.0000 -0.1444  0.0000  0.1041
  68. Cl 5 (py)     0.0000 -0.0206  0.0601  0.0000 -0.1106  0.0000 -0.1021  0.0000
  69. Cl 5 (pz)     0.0000  0.1312 -0.1282  0.0000  0.0907  0.0000  0.1111  0.0000
  70. Cl 5 (s)      0.0000  0.0144  0.0190  0.0000  0.0171  0.0000 -0.0020  0.0000
  71. Cl 5 (px)    -0.3464  0.0000  0.0000 -0.3682  0.0000  0.3771  0.0000 -0.2758
  72. Cl 5 (py)     0.0000  0.0540 -0.1554  0.0000  0.2896  0.0000  0.2688  0.0000
  73. Cl 5 (pz)     0.0000 -0.3416  0.3343  0.0000 -0.2365  0.0000 -0.2922  0.0000
  74. Cl 5 (s)      0.0000  0.0192  0.0143  0.0000 -0.0080  0.0000 -0.0002  0.0000
  75. Cl 5 (px)    -0.1679  0.0000  0.0000 -0.2028  0.0000  0.2048  0.0000 -0.1970
  76. Cl 5 (py)     0.0000  0.0419 -0.0774  0.0000  0.1450  0.0000  0.1454  0.0000
  77. Cl 5 (pz)     0.0000 -0.1763  0.1678  0.0000 -0.1387  0.0000 -0.1632  0.0000
  78. Cl 5 (d5)     0.0000 -0.0028  0.0044  0.0000 -0.0070  0.0000 -0.0032  0.0000
  79. Cl 5 (d2)    -0.0060  0.0000  0.0000 -0.0064  0.0000  0.0044  0.0000  0.0118
  80. Cl 5 (d3)     0.0000 -0.0110  0.0118  0.0000  0.0104  0.0000  0.0022  0.0000
  81. Cl 5 (d4)     0.0000  0.0058  0.0012  0.0000 -0.0087  0.0000 -0.0049  0.0000
  82. Cl 5 (d1)    -0.0136  0.0000  0.0000 -0.0062  0.0000  0.0067  0.0000  0.0148
  83. Cl 6 (s)      0.0000  0.0017  0.0016  0.0000 -0.0012  0.0000  0.0003  0.0000
  84. Cl 6 (s)      0.0000 -0.0086 -0.0064  0.0000  0.0039  0.0000 -0.0017  0.0000
  85. Cl 6 (px)     0.1334  0.0000  0.0000 -0.1414  0.0000  0.1444  0.0000  0.1041
  86. Cl 6 (py)     0.0000  0.0206 -0.0601  0.0000 -0.1106  0.0000 -0.1021  0.0000
  87. Cl 6 (pz)     0.0000  0.1312 -0.1282  0.0000 -0.0907  0.0000 -0.1111  0.0000
  88. Cl 6 (s)      0.0000  0.0144  0.0190  0.0000 -0.0171  0.0000  0.0020  0.0000
  89. Cl 6 (px)    -0.3464  0.0000  0.0000  0.3682  0.0000 -0.3771  0.0000 -0.2758
  90. Cl 6 (py)     0.0000 -0.0540  0.1554  0.0000  0.2896  0.0000  0.2688  0.0000
  91. Cl 6 (pz)     0.0000 -0.3416  0.3343  0.0000  0.2365  0.0000  0.2922  0.0000
  92. Cl 6 (s)      0.0000  0.0192  0.0143  0.0000  0.0080  0.0000  0.0002  0.0000
  93. Cl 6 (px)    -0.1679  0.0000  0.0000  0.2028  0.0000 -0.2048  0.0000 -0.1970
  94. Cl 6 (py)     0.0000 -0.0419  0.0774  0.0000  0.1450  0.0000  0.1454  0.0000
  95. Cl 6 (pz)     0.0000 -0.1763  0.1678  0.0000  0.1387  0.0000  0.1632  0.0000
  96. Cl 6 (d5)     0.0000 -0.0028  0.0044  0.0000  0.0070  0.0000  0.0032  0.0000
  97. Cl 6 (d2)    -0.0060  0.0000  0.0000  0.0064  0.0000 -0.0044  0.0000  0.0118
  98. Cl 6 (d3)     0.0000  0.0110 -0.0118  0.0000  0.0104  0.0000  0.0022  0.0000
  99. Cl 6 (d4)     0.0000  0.0058  0.0012  0.0000  0.0087  0.0000  0.0049  0.0000
 100. Cl 6 (d1)     0.0136  0.0000  0.0000 -0.0062  0.0000  0.0067  0.0000 -0.0148

           AO         41      42      43      44      45      46      47      48
      ------------ ------- ------- ------- ------- ------- ------- ------- -------
   1.  C 1 (s)      0.0000  0.0000 -0.1144 -0.0861  0.0000 -0.0851  0.0032  0.0000
   2.  C 1 (s)      0.0000  0.0000  0.1958  0.1103  0.0000  0.0169 -0.1396  0.0000
   3.  C 1 (px)     0.4016  0.0000  0.0000  0.0000  0.0000  0.0000  0.0000  0.0000
   4.  C 1 (py)     0.0000  0.3190  0.0000  0.0000  0.3241  0.0000  0.0000 -0.0894
   5.  C 1 (pz)     0.0000  0.0000  0.1302  0.2444  0.0000 -0.1915  0.1223  0.0000
   6.  C 1 (s)      0.0000  0.0000  1.0534  1.2596  0.0000  3.5773 -0.4701  0.0000
   7.  C 1 (px)     0.7316  0.0000  0.0000  0.0000  0.0000  0.0000  0.0000  0.0000
   8.  C 1 (py)     0.0000  0.7113  0.0000  0.0000  1.6607  0.0000  0.0000 -0.2838
   9.  C 1 (pz)     0.0000  0.0000  0.5202  0.5891  0.0000 -3.2277 -0.3241  0.0000
  10.  C 1 (d5)     0.0000  0.0000 -0.0046  0.0061  0.0000 -0.0282 -0.0094  0.0000
  11.  C 1 (d2)     0.0289  0.0000  0.0000  0.0000  0.0000  0.0000  0.0000  0.0000
  12.  C 1 (d3)     0.0000 -0.0321  0.0000  0.0000  0.0198  0.0000  0.0000 -0.0571
  13.  C 1 (d4)     0.0000  0.0000  0.0021  0.0065  0.0000 -0.0186  0.0499  0.0000
  14.  C 1 (d1)     0.0000  0.0000  0.0000  0.0000  0.0000  0.0000  0.0000  0.0000
  15.  C 2 (s)      0.0000  0.0000  0.1144 -0.0861  0.0000  0.0851  0.0032  0.0000
  16.  C 2 (s)      0.0000  0.0000 -0.1958  0.1103  0.0000 -0.0169 -0.1396  0.0000
  17.  C 2 (px)    -0.4016  0.0000  0.0000  0.0000  0.0000  0.0000  0.0000  0.0000
  18.  C 2 (py)     0.0000  0.3190  0.0000  0.0000 -0.3241  0.0000  0.0000 -0.0894
  19.  C 2 (pz)     0.0000  0.0000  0.1302 -0.2444  0.0000 -0.1915 -0.1223  0.0000
  20.  C 2 (s)      0.0000  0.0000 -1.0534  1.2596  0.0000 -3.5773 -0.4701  0.0000
  21.  C 2 (px)    -0.7316  0.0000  0.0000  0.0000  0.0000  0.0000  0.0000  0.0000
  22.  C 2 (py)     0.0000  0.7113  0.0000  0.0000 -1.6607  0.0000  0.0000 -0.2838
  23.  C 2 (pz)     0.0000  0.0000  0.5202 -0.5891  0.0000 -3.2277  0.3241  0.0000
  24.  C 2 (d5)     0.0000  0.0000  0.0046  0.0061  0.0000  0.0282 -0.0094  0.0000
  25.  C 2 (d2)     0.0289  0.0000  0.0000  0.0000  0.0000  0.0000  0.0000  0.0000
  26.  C 2 (d3)     0.0000  0.0321  0.0000  0.0000  0.0198  0.0000  0.0000  0.0571
  27.  C 2 (d4)     0.0000  0.0000 -0.0021  0.0065  0.0000  0.0186  0.0499  0.0000
  28.  C 2 (d1)     0.0000  0.0000  0.0000  0.0000  0.0000  0.0000  0.0000  0.0000
  29. Cl 3 (s)      0.0000 -0.0124 -0.0129 -0.0087 -0.0117 -0.0039 -0.0375 -0.0299
  30. Cl 3 (s)      0.0000  0.0606  0.0650  0.0497  0.0673  0.0060  0.0669  0.0421
  31. Cl 3 (px)     0.0518  0.0000  0.0000  0.0000  0.0000  0.0000  0.0000  0.0000
  32. Cl 3 (py)     0.0000 -0.0617 -0.0732 -0.0721 -0.0203 -0.0041 -0.0207  0.0554
  33. Cl 3 (pz)     0.0000 -0.0560 -0.0500 -0.0274 -0.0162  0.0166 -0.0060 -0.0699
  34. Cl 3 (s)      0.0000 -0.1207 -0.1185 -0.0605 -0.0841 -0.0826 -0.7766 -0.6585
  35. Cl 3 (px)    -0.1398  0.0000  0.0000  0.0000  0.0000  0.0000  0.0000  0.0000
  36. Cl 3 (py)     0.0000  0.1620  0.1879  0.1863  0.0337  0.0148  0.0725 -0.1889
  37. Cl 3 (pz)     0.0000  0.1474  0.1294  0.0711  0.0265 -0.0864  0.0174  0.2658
  38. Cl 3 (s)      0.0000 -0.4410 -0.4378 -0.4732 -0.9232  0.4676  0.9497  0.8838
  39. Cl 3 (px)    -0.2158  0.0000  0.0000  0.0000  0.0000  0.0000  0.0000  0.0000
  40. Cl 3 (py)     0.0000  0.4306  0.5307  0.5602  0.7701 -0.4675 -0.2129 -0.0452
  41. Cl 3 (pz)     0.0000  0.3757  0.2884  0.2108  0.6392  0.3493 -0.0436 -0.3632
  42. Cl 3 (d5)     0.0000  0.0233 -0.0122 -0.0357  0.0143  0.0827  0.0160  0.0313
  43. Cl 3 (d2)    -0.0317  0.0000  0.0000  0.0000  0.0000  0.0000  0.0000  0.0000
  44. Cl 3 (d3)     0.0000  0.0490  0.0455  0.0394  0.0702  0.0590 -0.0422 -0.0638
  45. Cl 3 (d4)     0.0000 -0.0178 -0.0396 -0.0475 -0.0451  0.0594  0.0126  0.0441
  46. Cl 3 (d1)    -0.0567  0.0000  0.0000  0.0000  0.0000  0.0000  0.0000  0.0000
  47. Cl 4 (s)      0.0000  0.0124 -0.0129 -0.0087  0.0117 -0.0039 -0.0375  0.0299
  48. Cl 4 (s)      0.0000 -0.0606  0.0650  0.0497 -0.0673  0.0060  0.0669 -0.0421
  49. Cl 4 (px)     0.0518  0.0000  0.0000  0.0000  0.0000  0.0000  0.0000  0.0000
  50. Cl 4 (py)     0.0000 -0.0617  0.0732  0.0721 -0.0203  0.0041  0.0207  0.0554
  51. Cl 4 (pz)     0.0000  0.0560 -0.0500 -0.0274  0.0162  0.0166 -0.0060  0.0699
  52. Cl 4 (s)      0.0000  0.1207 -0.1185 -0.0605  0.0841 -0.0826 -0.7766  0.6585
  53. Cl 4 (px)    -0.1398  0.0000  0.0000  0.0000  0.0000  0.0000  0.0000  0.0000
  54. Cl 4 (py)     0.0000  0.1620 -0.1879 -0.1863  0.0337 -0.0148 -0.0725 -0.1889
  55. Cl 4 (pz)     0.0000 -0.1474  0.1294  0.0711 -0.0265 -0.0864  0.0174 -0.2658
  56. Cl 4 (s)      0.0000  0.4410 -0.4378 -0.4732  0.9232  0.4676  0.9497 -0.8838
  57. Cl 4 (px)    -0.2158  0.0000  0.0000  0.0000  0.0000  0.0000  0.0000  0.0000
  58. Cl 4 (py)     0.0000  0.4306 -0.5307 -0.5602  0.7701  0.4675  0.2129 -0.0452
  59. Cl 4 (pz)     0.0000 -0.3757  0.2884  0.2108 -0.6392  0.3493 -0.0436  0.3632
  60. Cl 4 (d5)     0.0000 -0.0233 -0.0122 -0.0357 -0.0143  0.0827  0.0160 -0.0313
  61. Cl 4 (d2)    -0.0317  0.0000  0.0000  0.0000  0.0000  0.0000  0.0000  0.0000
  62. Cl 4 (d3)     0.0000  0.0490 -0.0455 -0.0394  0.0702 -0.0590  0.0422 -0.0638
  63. Cl 4 (d4)     0.0000  0.0178 -0.0396 -0.0475  0.0451  0.0594  0.0126 -0.0441
  64. Cl 4 (d1)     0.0567  0.0000  0.0000  0.0000  0.0000  0.0000  0.0000  0.0000
  65. Cl 5 (s)      0.0000  0.0124  0.0129 -0.0087 -0.0117  0.0039 -0.0375  0.0299
  66. Cl 5 (s)      0.0000 -0.0606 -0.0650  0.0497  0.0673 -0.0060  0.0669 -0.0421
  67. Cl 5 (px)    -0.0518  0.0000  0.0000  0.0000  0.0000  0.0000  0.0000  0.0000
  68. Cl 5 (py)     0.0000 -0.0617 -0.0732  0.0721  0.0203 -0.0041  0.0207  0.0554
  69. Cl 5 (pz)     0.0000 -0.0560 -0.0500  0.0274  0.0162  0.0166  0.0060 -0.0699
  70. Cl 5 (s)      0.0000  0.1207  0.1185 -0.0605 -0.0841  0.0826 -0.7766  0.6585
  71. Cl 5 (px)     0.1398  0.0000  0.0000  0.0000  0.0000  0.0000  0.0000  0.0000
  72. Cl 5 (py)     0.0000  0.1620  0.1879 -0.1863 -0.0337  0.0148 -0.0725 -0.1889
  73. Cl 5 (pz)     0.0000  0.1474  0.1294 -0.0711 -0.0265 -0.0864 -0.0174  0.2658
  74. Cl 5 (s)      0.0000  0.4410  0.4378 -0.4732 -0.9232 -0.4676  0.9497 -0.8838
  75. Cl 5 (px)     0.2158  0.0000  0.0000  0.0000  0.0000  0.0000  0.0000  0.0000
  76. Cl 5 (py)     0.0000  0.4306  0.5307 -0.5602 -0.7701 -0.4675  0.2129 -0.0452
  77. Cl 5 (pz)     0.0000  0.3757  0.2884 -0.2108 -0.6392  0.3493  0.0436 -0.3632
  78. Cl 5 (d5)     0.0000 -0.0233  0.0122 -0.0357  0.0143 -0.0827  0.0160 -0.0313
  79. Cl 5 (d2)    -0.0317  0.0000  0.0000  0.0000  0.0000  0.0000  0.0000  0.0000
  80. Cl 5 (d3)     0.0000 -0.0490 -0.0455  0.0394  0.0702 -0.0590 -0.0422  0.0638
  81. Cl 5 (d4)     0.0000  0.0178  0.0396 -0.0475 -0.0451 -0.0594  0.0126 -0.0441
  82. Cl 5 (d1)    -0.0567  0.0000  0.0000  0.0000  0.0000  0.0000  0.0000  0.0000
  83. Cl 6 (s)      0.0000 -0.0124  0.0129 -0.0087  0.0117  0.0039 -0.0375 -0.0299
  84. Cl 6 (s)      0.0000  0.0606 -0.0650  0.0497 -0.0673 -0.0060  0.0669  0.0421
  85. Cl 6 (px)    -0.0518  0.0000  0.0000  0.0000  0.0000  0.0000  0.0000  0.0000
  86. Cl 6 (py)     0.0000 -0.0617  0.0732 -0.0721  0.0203  0.0041 -0.0207  0.0554
  87. Cl 6 (pz)     0.0000  0.0560 -0.0500  0.0274 -0.0162  0.0166  0.0060  0.0699
  88. Cl 6 (s)      0.0000 -0.1207  0.1185 -0.0605  0.0841  0.0826 -0.7766 -0.6585
  89. Cl 6 (px)     0.1398  0.0000  0.0000  0.0000  0.0000  0.0000  0.0000  0.0000
  90. Cl 6 (py)     0.0000  0.1620 -0.1879  0.1863 -0.0337 -0.0148  0.0725 -0.1889
  91. Cl 6 (pz)     0.0000 -0.1474  0.1294 -0.0711  0.0265 -0.0864 -0.0174 -0.2658
  92. Cl 6 (s)      0.0000 -0.4410  0.4378 -0.4732  0.9232 -0.4676  0.9497  0.8838
  93. Cl 6 (px)     0.2158  0.0000  0.0000  0.0000  0.0000  0.0000  0.0000  0.0000
  94. Cl 6 (py)     0.0000  0.4306 -0.5307  0.5602 -0.7701  0.4675 -0.2129 -0.0452
  95. Cl 6 (pz)     0.0000 -0.3757  0.2884 -0.2108  0.6392  0.3493  0.0436  0.3632
  96. Cl 6 (d5)     0.0000  0.0233  0.0122 -0.0357 -0.0143 -0.0827  0.0160  0.0313
  97. Cl 6 (d2)    -0.0317  0.0000  0.0000  0.0000  0.0000  0.0000  0.0000  0.0000
  98. Cl 6 (d3)     0.0000 -0.0490  0.0455 -0.0394  0.0702  0.0590  0.0422  0.0638
  99. Cl 6 (d4)     0.0000 -0.0178  0.0396 -0.0475  0.0451 -0.0594  0.0126  0.0441
 100. Cl 6 (d1)     0.0567  0.0000  0.0000  0.0000  0.0000  0.0000  0.0000  0.0000

           AO         49      50      51      52      53      54      55      56
      ------------ ------- ------- ------- ------- ------- ------- ------- -------
   1.  C 1 (s)     -0.0207  0.0000  0.0000  0.0160  0.0476  0.0000  0.0179  0.0000
   2.  C 1 (s)      0.0291  0.0000  0.0000 -0.0368 -0.2018  0.0000 -0.0016  0.0000
   3.  C 1 (px)     0.0000  0.0000 -0.1915  0.0000  0.0000  0.0054  0.0000  0.0000
   4.  C 1 (py)     0.0000 -0.0036  0.0000  0.0000  0.0000  0.0000  0.0000  0.0000
   5.  C 1 (pz)    -0.0219  0.0000  0.0000 -0.2110 -0.0097  0.0000 -0.0526  0.0000
   6.  C 1 (s)      1.0574  0.0000  0.0000  0.4588  0.4659  0.0000  0.2495  0.0000
   7.  C 1 (px)     0.0000  0.0000 -0.0155  0.0000  0.0000 -0.2990  0.0000  0.0000
   8.  C 1 (py)     0.0000  0.1370  0.0000  0.0000  0.0000  0.0000  0.0000  0.0000
   9.  C 1 (pz)    -0.2746  0.0000  0.0000  0.5915  0.5045  0.0000 -0.1640  0.0000
  10.  C 1 (d5)    -0.0088  0.0000  0.0000  0.0289  0.0034  0.0000 -0.0191  0.0000
  11.  C 1 (d2)     0.0000  0.0000 -0.0044  0.0000  0.0000 -0.0080  0.0000  0.0000
  12.  C 1 (d3)     0.0000  0.1071  0.0000  0.0000  0.0000  0.0000  0.0000  0.0000
  13.  C 1 (d4)    -0.0462  0.0000  0.0000 -0.0044 -0.0700  0.0000 -0.0820  0.0000
  14.  C 1 (d1)     0.0000  0.0000  0.0000  0.0000  0.0000  0.0000  0.0000 -0.0058
  15.  C 2 (s)      0.0207  0.0000  0.0000  0.0160 -0.0476  0.0000  0.0179  0.0000
  16.  C 2 (s)     -0.0291  0.0000  0.0000 -0.0368  0.2018  0.0000 -0.0016  0.0000
  17.  C 2 (px)     0.0000  0.0000 -0.1915  0.0000  0.0000 -0.0054  0.0000  0.0000
  18.  C 2 (py)     0.0000 -0.0036  0.0000  0.0000  0.0000  0.0000  0.0000  0.0000
  19.  C 2 (pz)    -0.0219  0.0000  0.0000  0.2110 -0.0097  0.0000  0.0526  0.0000
  20.  C 2 (s)     -1.0574  0.0000  0.0000  0.4588 -0.4659  0.0000  0.2495  0.0000
  21.  C 2 (px)     0.0000  0.0000 -0.0155  0.0000  0.0000  0.2990  0.0000  0.0000
  22.  C 2 (py)     0.0000  0.1370  0.0000  0.0000  0.0000  0.0000  0.0000  0.0000
  23.  C 2 (pz)    -0.2746  0.0000  0.0000 -0.5915  0.5045  0.0000  0.1640  0.0000
  24.  C 2 (d5)     0.0088  0.0000  0.0000  0.0289 -0.0034  0.0000 -0.0191  0.0000
  25.  C 2 (d2)     0.0000  0.0000  0.0044  0.0000  0.0000 -0.0080  0.0000  0.0000
  26.  C 2 (d3)     0.0000 -0.1071  0.0000  0.0000  0.0000  0.0000  0.0000  0.0000
  27.  C 2 (d4)     0.0462  0.0000  0.0000 -0.0044  0.0700  0.0000 -0.0820  0.0000
  28.  C 2 (d1)     0.0000  0.0000  0.0000  0.0000  0.0000  0.0000  0.0000 -0.0058
  29. Cl 3 (s)      0.0315 -0.0038  0.0000 -0.0045 -0.0013  0.0000 -0.0040  0.0000
  30. Cl 3 (s)     -0.0483  0.0219  0.0000  0.0054  0.0121  0.0000  0.0060  0.0000
  31. Cl 3 (px)     0.0000  0.0000  0.1425  0.0000  0.0000  0.1464  0.0000  0.1477
  32. Cl 3 (py)     0.0497  0.1097  0.0000  0.1160  0.1299  0.0000  0.1003  0.0000
  33. Cl 3 (pz)    -0.0699  0.0747  0.0000 -0.0814  0.0810  0.0000  0.1098  0.0000
  34. Cl 3 (s)      0.6825 -0.0281  0.0000 -0.1049  0.0028  0.0000 -0.0880  0.0000
  35. Cl 3 (px)     0.0000  0.0000 -0.5514  0.0000  0.0000 -0.5761  0.0000 -0.5793
  36. Cl 3 (py)    -0.1883 -0.4488  0.0000 -0.4217 -0.4881  0.0000 -0.3856  0.0000
  37. Cl 3 (pz)     0.2502 -0.2823  0.0000  0.3246 -0.3214  0.0000 -0.4316  0.0000
  38. Cl 3 (s)     -0.8321 -0.1526  0.0000 -0.0794 -0.2773  0.0000  0.1142  0.0000
  39. Cl 3 (px)     0.0000  0.0000  0.5688  0.0000  0.0000  0.6872  0.0000  0.6357
  40. Cl 3 (py)     0.2631  0.7041  0.0000  0.5403  0.6884  0.0000  0.3811  0.0000
  41. Cl 3 (pz)    -0.0641  0.3232  0.0000 -0.3282  0.4923  0.0000  0.5067  0.0000
  42. Cl 3 (d5)     0.0319 -0.0615  0.0000 -0.0197  0.0374  0.0000  0.0438  0.0000
  43. Cl 3 (d2)     0.0000  0.0000  0.0110  0.0000  0.0000  0.0460  0.0000 -0.0149
  44. Cl 3 (d3)     0.0740  0.0247  0.0000 -0.0437  0.0267  0.0000  0.0646  0.0000
  45. Cl 3 (d4)     0.0000 -0.0777  0.0000  0.0035 -0.0070  0.0000  0.0104  0.0000
  46. Cl 3 (d1)     0.0000  0.0000  0.0163  0.0000  0.0000  0.0211  0.0000  0.0391
  47. Cl 4 (s)      0.0315  0.0038  0.0000 -0.0045 -0.0013  0.0000 -0.0040  0.0000
  48. Cl 4 (s)     -0.0483 -0.0219  0.0000  0.0054  0.0121  0.0000  0.0060  0.0000
  49. Cl 4 (px)     0.0000  0.0000  0.1425  0.0000  0.0000  0.1464  0.0000 -0.1477
  50. Cl 4 (py)    -0.0497  0.1097  0.0000 -0.1160 -0.1299  0.0000 -0.1003  0.0000
  51. Cl 4 (pz)    -0.0699 -0.0747  0.0000 -0.0814  0.0810  0.0000  0.1098  0.0000
  52. Cl 4 (s)      0.6825  0.0281  0.0000 -0.1049  0.0028  0.0000 -0.0880  0.0000
  53. Cl 4 (px)     0.0000  0.0000 -0.5514  0.0000  0.0000 -0.5761  0.0000  0.5793
  54. Cl 4 (py)     0.1883 -0.4488  0.0000  0.4217  0.4881  0.0000  0.3856  0.0000
  55. Cl 4 (pz)     0.2502  0.2823  0.0000  0.3246 -0.3214  0.0000 -0.4316  0.0000
  56. Cl 4 (s)     -0.8321  0.1526  0.0000 -0.0794 -0.2773  0.0000  0.1142  0.0000
  57. Cl 4 (px)     0.0000  0.0000  0.5688  0.0000  0.0000  0.6872  0.0000 -0.6357
  58. Cl 4 (py)    -0.2631  0.7041  0.0000 -0.5403 -0.6884  0.0000 -0.3811  0.0000
  59. Cl 4 (pz)    -0.0641 -0.3232  0.0000 -0.3282  0.4923  0.0000  0.5067  0.0000
  60. Cl 4 (d5)     0.0319  0.0615  0.0000 -0.0197  0.0374  0.0000  0.0438  0.0000
  61. Cl 4 (d2)     0.0000  0.0000  0.0110  0.0000  0.0000  0.0460  0.0000  0.0149
  62. Cl 4 (d3)    -0.0740  0.0247  0.0000  0.0437 -0.0267  0.0000 -0.0646  0.0000
  63. Cl 4 (d4)     0.0000  0.0777  0.0000  0.0035 -0.0070  0.0000  0.0104  0.0000
  64. Cl 4 (d1)     0.0000  0.0000 -0.0163  0.0000  0.0000 -0.0211  0.0000  0.0391
  65. Cl 5 (s)     -0.0315  0.0038  0.0000 -0.0045  0.0013  0.0000 -0.0040  0.0000
  66. Cl 5 (s)      0.0483 -0.0219  0.0000  0.0054 -0.0121  0.0000  0.0060  0.0000
  67. Cl 5 (px)     0.0000  0.0000  0.1425  0.0000  0.0000 -0.1464  0.0000 -0.1477
  68. Cl 5 (py)     0.0497  0.1097  0.0000 -0.1160  0.1299  0.0000 -0.1003  0.0000
  69. Cl 5 (pz)    -0.0699  0.0747  0.0000  0.0814  0.0810  0.0000 -0.1098  0.0000
  70. Cl 5 (s)     -0.6825  0.0281  0.0000 -0.1049 -0.0028  0.0000 -0.0880  0.0000
  71. Cl 5 (px)     0.0000  0.0000 -0.5514  0.0000  0.0000  0.5761  0.0000  0.5793
  72. Cl 5 (py)    -0.1883 -0.4488  0.0000  0.4217 -0.4881  0.0000  0.3856  0.0000
  73. Cl 5 (pz)     0.2502 -0.2823  0.0000 -0.3246 -0.3214  0.0000  0.4316  0.0000
  74. Cl 5 (s)      0.8321  0.1526  0.0000 -0.0794  0.2773  0.0000  0.1142  0.0000
  75. Cl 5 (px)     0.0000  0.0000  0.5688  0.0000  0.0000 -0.6872  0.0000 -0.6357
  76. Cl 5 (py)     0.2631  0.7041  0.0000 -0.5403  0.6884  0.0000 -0.3811  0.0000
  77. Cl 5 (pz)    -0.0641  0.3232  0.0000  0.3282  0.4923  0.0000 -0.5067  0.0000
  78. Cl 5 (d5)    -0.0319  0.0615  0.0000 -0.0197 -0.0374  0.0000  0.0438  0.0000
  79. Cl 5 (d2)     0.0000  0.0000 -0.0110  0.0000  0.0000  0.0460  0.0000 -0.0149
  80. Cl 5 (d3)    -0.0740 -0.0247  0.0000 -0.0437 -0.0267  0.0000  0.0646  0.0000
  81. Cl 5 (d4)     0.0000  0.0777  0.0000  0.0035  0.0070  0.0000  0.0104  0.0000
  82. Cl 5 (d1)     0.0000  0.0000 -0.0163  0.0000  0.0000  0.0211  0.0000  0.0391
  83. Cl 6 (s)     -0.0315 -0.0038  0.0000 -0.0045  0.0013  0.0000 -0.0040  0.0000
  84. Cl 6 (s)      0.0483  0.0219  0.0000  0.0054 -0.0121  0.0000  0.0060  0.0000
  85. Cl 6 (px)     0.0000  0.0000  0.1425  0.0000  0.0000 -0.1464  0.0000  0.1477
  86. Cl 6 (py)    -0.0497  0.1097  0.0000  0.1160 -0.1299  0.0000  0.1003  0.0000
  87. Cl 6 (pz)    -0.0699 -0.0747  0.0000  0.0814  0.0810  0.0000 -0.1098  0.0000
  88. Cl 6 (s)     -0.6825 -0.0281  0.0000 -0.1049 -0.0028  0.0000 -0.0880  0.0000
  89. Cl 6 (px)     0.0000  0.0000 -0.5514  0.0000  0.0000  0.5761  0.0000 -0.5793
  90. Cl 6 (py)     0.1883 -0.4488  0.0000 -0.4217  0.4881  0.0000 -0.3856  0.0000
  91. Cl 6 (pz)     0.2502  0.2823  0.0000 -0.3246 -0.3214  0.0000  0.4316  0.0000
  92. Cl 6 (s)      0.8321 -0.1526  0.0000 -0.0794  0.2773  0.0000  0.1142  0.0000
  93. Cl 6 (px)     0.0000  0.0000  0.5688  0.0000  0.0000 -0.6872  0.0000  0.6357
  94. Cl 6 (py)    -0.2631  0.7041  0.0000  0.5403 -0.6884  0.0000  0.3811  0.0000
  95. Cl 6 (pz)    -0.0641 -0.3232  0.0000  0.3282  0.4923  0.0000 -0.5067  0.0000
  96. Cl 6 (d5)    -0.0319 -0.0615  0.0000 -0.0197 -0.0374  0.0000  0.0438  0.0000
  97. Cl 6 (d2)     0.0000  0.0000 -0.0110  0.0000  0.0000  0.0460  0.0000  0.0149
  98. Cl 6 (d3)     0.0740 -0.0247  0.0000  0.0437  0.0267  0.0000 -0.0646  0.0000
  99. Cl 6 (d4)     0.0000 -0.0777  0.0000  0.0035  0.0070  0.0000  0.0104  0.0000
 100. Cl 6 (d1)     0.0000  0.0000  0.0163  0.0000  0.0000 -0.0211  0.0000  0.0391

           AO         57      58      59      60      61      62      63      64
      ------------ ------- ------- ------- ------- ------- ------- ------- -------
[...]
  78. (0.00004) RY ( 5)Cl  4            s(  0.00%)p 1.00( 17.31%)d 4.78( 82.69%)
  79. (0.00002) RY ( 6)Cl  4            s( 21.13%)p 0.71( 14.96%)d 3.02( 63.91%)
  80. (0.00001) RY ( 7)Cl  4            s(  1.59%)p 9.49( 15.13%)d52.23( 83.28%)
  81. (0.00000) RY ( 8)Cl  4            s(  0.00%)p 1.00( 21.18%)d 3.72( 78.82%)
  82. (0.00000) RY ( 9)Cl  4            s( 12.95%)p 2.38( 30.83%)d 4.34( 56.22%)
  83. (0.00433) RY ( 1)Cl  5            s(  0.00%)p 1.00( 61.54%)d 0.63( 38.46%)
                                         0.0000  0.0000  0.0000  0.0000  0.0000
                                        -0.0063  0.7844  0.0000  0.0000  0.0000
                                         0.0000  0.0000  0.0000 -0.5079 -0.3559
                                         0.0000  0.0000  0.0000
  84. (0.00248) RY ( 2)Cl  5            s(  4.74%)p16.40( 77.69%)d 3.71( 17.57%)
                                         0.0000  0.0000  0.0063  0.2175  0.0000
                                         0.0000  0.0000  0.0000  0.0262  0.6340
                                         0.0000  0.0237 -0.6114  0.0000  0.0000
                                         0.1664  0.2225  0.3139
  85. (0.00077) RY ( 3)Cl  5            s( 40.35%)p 1.36( 54.88%)d 0.12(  4.77%)
                                         0.0000  0.0000  0.0160  0.6350  0.0000
                                         0.0000  0.0000  0.0000  0.0870  0.4122
                                         0.0000  0.0491  0.6074  0.0000  0.0000
                                        -0.1297  0.1266 -0.1218
  86. (0.00015) RY ( 4)Cl  5            s( 18.88%)p 0.42(  7.89%)d 3.88( 73.22%)
                                         0.0000  0.0000 -0.0104  0.4344  0.0000
                                         0.0000  0.0000  0.0000 -0.0552 -0.2377
                                         0.0000 -0.0356 -0.1346  0.0000  0.0000
                                         0.7611 -0.2307 -0.3158
  87. (0.00004) RY ( 5)Cl  5            s(  0.00%)p 1.00( 17.31%)d 4.78( 82.69%)
  88. (0.00002) RY ( 6)Cl  5            s( 21.13%)p 0.71( 14.96%)d 3.02( 63.91%)
  89. (0.00001) RY ( 7)Cl  5            s(  1.59%)p 9.49( 15.13%)d52.23( 83.28%)
  90. (0.00000) RY ( 8)Cl  5            s(  0.00%)p 1.00( 21.18%)d 3.72( 78.82%)
  91. (0.00000) RY ( 9)Cl  5            s( 12.95%)p 2.38( 30.83%)d 4.34( 56.22%)
  92. (0.00433) RY ( 1)Cl  6            s(  0.00%)p 1.00( 61.54%)d 0.63( 38.46%)
                                         0.0000  0.0000  0.0000  0.0000  0.0000
                                        -0.0063  0.7844  0.0000  0.0000  0.0000
                                         0.0000  0.0000  0.0000  0.5079 -0.3559
                                         0.0000  0.0000  0.0000
  93. (0.00248) RY ( 2)Cl  6            s(  4.74%)p16.40( 77.69%)d 3.71( 17.57%)
                                         0.0000  0.0000  0.0063  0.2175  0.0000
                                         0.0000  0.0000  0.0000 -0.0262 -0.6340
                                         0.0000  0.0237 -0.6114  0.0000  0.0000
                                        -0.1664  0.2225  0.3139
  94. (0.00077) RY ( 3)Cl  6            s( 40.35%)p 1.36( 54.88%)d 0.12(  4.77%)
                                         0.0000  0.0000  0.0160  0.6350  0.0000
                                         0.0000  0.0000  0.0000 -0.0870 -0.4122
                                         0.0000  0.0491  0.6074  0.0000  0.0000
                                         0.1297  0.1266 -0.1218
  95. (0.00015) RY ( 4)Cl  6            s( 18.88%)p 0.42(  7.89%)d 3.88( 73.22%)
                                         0.0000  0.0000 -0.0104  0.4344  0.0000
                                         0.0000  0.0000  0.0000  0.0552  0.2377
                                         0.0000 -0.0356 -0.1346  0.0000  0.0000
                                        -0.7611 -0.2307 -0.3158
  96. (0.00004) RY ( 5)Cl  6            s(  0.00%)p 1.00( 17.31%)d 4.78( 82.69%)
  97. (0.00002) RY ( 6)Cl  6            s( 21.13%)p 0.71( 14.96%)d 3.02( 63.91%)
  98. (0.00001) RY ( 7)Cl  6            s(  1.59%)p 9.49( 15.13%)d52.23( 83.28%)
  99. (0.00000) RY ( 8)Cl  6            s(  0.00%)p 1.00( 21.18%)d 3.72( 78.82%)
 100. (0.00000) RY ( 9)Cl  6            s( 12.95%)p 2.38( 30.83%)d 4.34( 56.22%)


 NHO DIRECTIONALITY AND BOND BENDING (deviation from line of nuclear centers at
                                      the position of maximum hybrid amplitude)

         [Thresholds for printing:  angular deviation  >  1.0 degree]
                                    p- or d-character  > 25.0%
                                    orbital occupancy  >  0.10e

                        Line of Centers        Hybrid 1             Hybrid 2
                        ---------------  -------------------  ------------------
           NBO            Theta   Phi    Theta   Phi    Dev   Theta   Phi    Dev
 ===============================================================================
  24. LP ( 2)Cl  3          --     --    148.0   90.0   --      --     --    --
  25. LP ( 3)Cl  3          --     --     91.0  181.7   --      --     --    --
  27. LP ( 2)Cl  4          --     --    148.0  270.0   --      --     --    --
  28. LP ( 3)Cl  4          --     --     91.0  178.3   --      --     --    --
  30. LP ( 2)Cl  5          --     --     32.0  270.0   --      --     --    --
  31. LP ( 3)Cl  5          --     --     89.0  178.3   --      --     --    --
  33. LP ( 2)Cl  6          --     --     32.0   90.0   --      --     --    --
  34. LP ( 3)Cl  6          --     --     89.0  358.3   --      --     --    --
  36. BD ( 2) C  1- C  2  180.0    0.0    91.5  180.0  88.5    88.5  180.0  88.5


 SECOND ORDER PERTURBATION THEORY ANALYSIS OF FOCK MATRIX IN NBO BASIS

     Threshold for printing:   0.50 kcal/mol
                                                          E(2) E(NL)-E(L) F(L,NL)
      Donor (L) NBO              Acceptor (NL) NBO      kcal/mol   a.u.    a.u.
 ===============================================================================

 within unit  1
   23. LP ( 1)Cl  3            41. BD*( 1) C  1- C  2      1.59    1.77   0.047
   23. LP ( 1)Cl  3            44. BD*( 1) C  1-Cl  4      0.89    1.30   0.030
   23. LP ( 1)Cl  3            47. RY ( 1) C  1            0.80    1.98   0.035
   23. LP ( 1)Cl  3            48. RY ( 2) C  1            1.93    2.04   0.056
   24. LP ( 2)Cl  3            41. BD*( 1) C  1- C  2      5.92    1.32   0.079
   24. LP ( 2)Cl  3            44. BD*( 1) C  1-Cl  4     10.68    0.84   0.085
   24. LP ( 2)Cl  3            45. BD*( 1) C  2-Cl  5      0.78    0.84   0.023
   24. LP ( 2)Cl  3            47. RY ( 1) C  1            1.72    1.52   0.046
   25. LP ( 3)Cl  3            42. BD*( 2) C  1- C  2     25.89    0.57   0.109
   25. LP ( 3)Cl  3            52. RY ( 6) C  1            1.01    2.39   0.044
   26. LP ( 1)Cl  4            41. BD*( 1) C  1- C  2      1.59    1.77   0.047
   26. LP ( 1)Cl  4            43. BD*( 1) C  1-Cl  3      0.89    1.30   0.030
   26. LP ( 1)Cl  4            47. RY ( 1) C  1            0.80    1.98   0.035
   26. LP ( 1)Cl  4            48. RY ( 2) C  1            1.93    2.04   0.056
   27. LP ( 2)Cl  4            41. BD*( 1) C  1- C  2      5.92    1.32   0.079
   27. LP ( 2)Cl  4            43. BD*( 1) C  1-Cl  3     10.68    0.84   0.085
   27. LP ( 2)Cl  4            46. BD*( 1) C  2-Cl  6      0.78    0.84   0.023
   27. LP ( 2)Cl  4            47. RY ( 1) C  1            1.72    1.52   0.046
   28. LP ( 3)Cl  4            42. BD*( 2) C  1- C  2     25.89    0.57   0.109
   28. LP ( 3)Cl  4            52. RY ( 6) C  1            1.01    2.39   0.044
   29. LP ( 1)Cl  5            41. BD*( 1) C  1- C  2      1.59    1.77   0.047
   29. LP ( 1)Cl  5            46. BD*( 1) C  2-Cl  6      0.89    1.30   0.030
   29. LP ( 1)Cl  5            56. RY ( 1) C  2            0.80    1.98   0.035
   29. LP ( 1)Cl  5            57. RY ( 2) C  2            1.93    2.04   0.056
   30. LP ( 2)Cl  5            41. BD*( 1) C  1- C  2      5.92    1.32   0.079
   30. LP ( 2)Cl  5            43. BD*( 1) C  1-Cl  3      0.78    0.84   0.023
   30. LP ( 2)Cl  5            46. BD*( 1) C  2-Cl  6     10.68    0.84   0.085
   30. LP ( 2)Cl  5            56. RY ( 1) C  2            1.72    1.52   0.046
   31. LP ( 3)Cl  5            42. BD*( 2) C  1- C  2     25.89    0.57   0.109
   31. LP ( 3)Cl  5            61. RY ( 6) C  2            1.01    2.39   0.044
   32. LP ( 1)Cl  6            41. BD*( 1) C  1- C  2      1.59    1.77   0.047
   32. LP ( 1)Cl  6            45. BD*( 1) C  2-Cl  5      0.89    1.30   0.030
   32. LP ( 1)Cl  6            56. RY ( 1) C  2            0.80    1.98   0.035
   32. LP ( 1)Cl  6            57. RY ( 2) C  2            1.93    2.04   0.056
   33. LP ( 2)Cl  6            41. BD*( 1) C  1- C  2      5.92    1.32   0.079
   33. LP ( 2)Cl  6            44. BD*( 1) C  1-Cl  4      0.78    0.84   0.023
   33. LP ( 2)Cl  6            45. BD*( 1) C  2-Cl  5     10.68    0.84   0.085
   33. LP ( 2)Cl  6            56. RY ( 1) C  2            1.72    1.52   0.046
   34. LP ( 3)Cl  6            42. BD*( 2) C  1- C  2     25.89    0.57   0.109
   34. LP ( 3)Cl  6            61. RY ( 6) C  2            1.01    2.39   0.044
   35. BD ( 1) C  1- C  2      43. BD*( 1) C  1-Cl  3      0.66    1.35   0.027
   35. BD ( 1) C  1- C  2      44. BD*( 1) C  1-Cl  4      0.66    1.35   0.027
   35. BD ( 1) C  1- C  2      45. BD*( 1) C  2-Cl  5      0.66    1.35   0.027
   35. BD ( 1) C  1- C  2      46. BD*( 1) C  2-Cl  6      0.66    1.35   0.027
   36. BD ( 2) C  1- C  2      65. RY ( 1)Cl  3            2.86    1.27   0.054
   36. BD ( 2) C  1- C  2      74. RY ( 1)Cl  4            2.86    1.27   0.054
   36. BD ( 2) C  1- C  2      83. RY ( 1)Cl  5            2.86    1.27   0.054
   36. BD ( 2) C  1- C  2      92. RY ( 1)Cl  6            2.86    1.27   0.054
   37. BD ( 1) C  1-Cl  3      41. BD*( 1) C  1- C  2      0.89    1.72   0.035
   37. BD ( 1) C  1-Cl  3      44. BD*( 1) C  1-Cl  4      0.67    1.24   0.026
   37. BD ( 1) C  1-Cl  3      45. BD*( 1) C  2-Cl  5      4.62    1.24   0.068
   37. BD ( 1) C  1-Cl  3      57. RY ( 2) C  2            2.36    1.98   0.061
   37. BD ( 1) C  1-Cl  3      75. RY ( 2)Cl  4            0.97    1.58   0.035
   38. BD ( 1) C  1-Cl  4      41. BD*( 1) C  1- C  2      0.89    1.72   0.035
   38. BD ( 1) C  1-Cl  4      43. BD*( 1) C  1-Cl  3      0.67    1.24   0.026
   38. BD ( 1) C  1-Cl  4      46. BD*( 1) C  2-Cl  6      4.62    1.24   0.068
   38. BD ( 1) C  1-Cl  4      57. RY ( 2) C  2            2.36    1.98   0.061
   38. BD ( 1) C  1-Cl  4      66. RY ( 2)Cl  3            0.97    1.58   0.035
   39. BD ( 1) C  2-Cl  5      41. BD*( 1) C  1- C  2      0.89    1.72   0.035
   39. BD ( 1) C  2-Cl  5      43. BD*( 1) C  1-Cl  3      4.62    1.24   0.068
   39. BD ( 1) C  2-Cl  5      46. BD*( 1) C  2-Cl  6      0.67    1.24   0.026
   39. BD ( 1) C  2-Cl  5      48. RY ( 2) C  1            2.36    1.98   0.061
   39. BD ( 1) C  2-Cl  5      93. RY ( 2)Cl  6            0.97    1.58   0.035
   40. BD ( 1) C  2-Cl  6      41. BD*( 1) C  1- C  2      0.89    1.72   0.035
   40. BD ( 1) C  2-Cl  6      44. BD*( 1) C  1-Cl  4      4.62    1.24   0.068
   40. BD ( 1) C  2-Cl  6      45. BD*( 1) C  2-Cl  5      0.67    1.24   0.026
   40. BD ( 1) C  2-Cl  6      48. RY ( 2) C  1            2.36    1.98   0.061
   40. BD ( 1) C  2-Cl  6      84. RY ( 2)Cl  5            0.97    1.58   0.035


 NATURAL BOND ORBITALS (Summary):

                                                     Principal Delocalizations
           NBO                 Occupancy    Energy   (geminal,vicinal,remote)
 ===============================================================================
 Molecular unit  1  (C2Cl4)
 ------ Lewis --------------------------------------
    1. CR ( 1) C  1             1.99999   -11.39255
    2. CR ( 1) C  2             1.99999   -11.39255
    3. CR ( 1)Cl  3             2.00000   -95.51320
    4. CR ( 2)Cl  3             2.00000   -19.94803
    5. CR ( 3)Cl  3             2.00000    -8.06503
    6. CR ( 4)Cl  3             1.99999    -8.06785
    7. CR ( 5)Cl  3             2.00000    -8.06616
    8. CR ( 1)Cl  4             2.00000   -95.51320
    9. CR ( 2)Cl  4             2.00000   -19.94803
   10. CR ( 3)Cl  4             2.00000    -8.06503
   11. CR ( 4)Cl  4             1.99999    -8.06785
   12. CR ( 5)Cl  4             2.00000    -8.06616
   13. CR ( 1)Cl  5             2.00000   -95.51320
   14. CR ( 2)Cl  5             2.00000   -19.94803
   15. CR ( 3)Cl  5             2.00000    -8.06503
   16. CR ( 4)Cl  5             1.99999    -8.06785
   17. CR ( 5)Cl  5             2.00000    -8.06616
   18. CR ( 1)Cl  6             2.00000   -95.51320
   19. CR ( 2)Cl  6             2.00000   -19.94803
   20. CR ( 3)Cl  6             2.00000    -8.06503
   21. CR ( 4)Cl  6             1.99999    -8.06785
   22. CR ( 5)Cl  6             2.00000    -8.06616
   23. LP ( 1)Cl  3             1.99273    -0.94042  48(v),41(v),44(v),47(v)
   24. LP ( 2)Cl  3             1.96094    -0.48679  44(v),41(v),47(v),45(r)
   25. LP ( 3)Cl  3             1.93685    -0.47974  42(v),52(v)
   26. LP ( 1)Cl  4             1.99273    -0.94042  48(v),41(v),43(v),47(v)
   27. LP ( 2)Cl  4             1.96094    -0.48679  43(v),41(v),47(v),46(r)
   28. LP ( 3)Cl  4             1.93685    -0.47974  42(v),52(v)
   29. LP ( 1)Cl  5             1.99273    -0.94042  57(v),41(v),46(v),56(v)
   30. LP ( 2)Cl  5             1.96094    -0.48679  46(v),41(v),56(v),43(r)
   31. LP ( 3)Cl  5             1.93685    -0.47974  42(v),61(v)
   32. LP ( 1)Cl  6             1.99273    -0.94042  57(v),41(v),45(v),56(v)
   33. LP ( 2)Cl  6             1.96094    -0.48679  45(v),41(v),56(v),44(r)
   34. LP ( 3)Cl  6             1.93685    -0.47974  42(v),61(v)
   35. BD ( 1) C  1- C  2       1.99526    -0.99489  43(g),44(g),45(g),46(g)
   36. BD ( 2) C  1- C  2       1.98480    -0.49110  65(v),74(v),83(v),92(v)
   37. BD ( 1) C  1-Cl  3       1.98726    -0.88624  45(v),57(v),75(v),41(g)
                                                     44(g)
   38. BD ( 1) C  1-Cl  4       1.98726    -0.88624  46(v),57(v),66(v),41(g)
                                                     43(g)
   39. BD ( 1) C  2-Cl  5       1.98726    -0.88624  43(v),48(v),93(v),41(g)
                                                     46(g)
   40. BD ( 1) C  2-Cl  6       1.98726    -0.88624  44(v),48(v),84(v),41(g)
                                                     45(g)
 ------ non-Lewis ----------------------------------
   41. BD*( 1) C  1- C  2       0.04338     0.83075
   42. BD*( 2) C  1- C  2       0.24074     0.09213
   43. BD*( 1) C  1-Cl  3       0.03491     0.35556
   44. BD*( 1) C  1-Cl  4       0.03491     0.35556
   45. BD*( 1) C  2-Cl  5       0.03491     0.35556
   46. BD*( 1) C  2-Cl  6       0.03491     0.35556
   47. RY ( 1) C  1             0.01007     1.03714
   48. RY ( 2) C  1             0.00909     1.09742
   49. RY ( 3) C  1             0.00319     1.41171
   50. RY ( 4) C  1             0.00141     2.30933
   51. RY ( 5) C  1             0.00138     1.23833
   52. RY ( 6) C  1             0.00137     1.90715
   53. RY ( 7) C  1             0.00023     1.47359
   54. RY ( 8) C  1             0.00018     2.04968
   55. RY ( 9) C  1             0.00003     2.27882
   56. RY ( 1) C  2             0.01007     1.03714
   57. RY ( 2) C  2             0.00909     1.09742
   58. RY ( 3) C  2             0.00319     1.41171
   59. RY ( 4) C  2             0.00141     2.30933
   60. RY ( 5) C  2             0.00138     1.23833
   61. RY ( 6) C  2             0.00137     1.90715
   62. RY ( 7) C  2             0.00023     1.47359
   63. RY ( 8) C  2             0.00018     2.04968
   64. RY ( 9) C  2             0.00003     2.27882
   65. RY ( 1)Cl  3             0.00433     0.78012
   66. RY ( 2)Cl  3             0.00248     0.69681
   67. RY ( 3)Cl  3             0.00077     0.66156
   68. RY ( 4)Cl  3             0.00015     1.27779
   69. RY ( 5)Cl  3             0.00004     1.07772
   70. RY ( 6)Cl  3             0.00002     0.97243
   71. RY ( 7)Cl  3             0.00001     1.24720
   72. RY ( 8)Cl  3             0.00000     1.08341
   73. RY ( 9)Cl  3             0.00000     1.02461
   74. RY ( 1)Cl  4             0.00433     0.78012
   75. RY ( 2)Cl  4             0.00248     0.69681
   76. RY ( 3)Cl  4             0.00077     0.66156
   77. RY ( 4)Cl  4             0.00015     1.27779
   78. RY ( 5)Cl  4             0.00004     1.07772
   79. RY ( 6)Cl  4             0.00002     0.97243
   80. RY ( 7)Cl  4             0.00001     1.24720
   81. RY ( 8)Cl  4             0.00000     1.08341
   82. RY ( 9)Cl  4             0.00000     1.02461
   83. RY ( 1)Cl  5             0.00433     0.78012
   84. RY ( 2)Cl  5             0.00248     0.69681
   85. RY ( 3)Cl  5             0.00077     0.66156
   86. RY ( 4)Cl  5             0.00015     1.27779
   87. RY ( 5)Cl  5             0.00004     1.07772
   88. RY ( 6)Cl  5             0.00002     0.97243
   89. RY ( 7)Cl  5             0.00001     1.24720
   90. RY ( 8)Cl  5             0.00000     1.08341
   91. RY ( 9)Cl  5             0.00000     1.02461
   92. RY ( 1)Cl  6             0.00433     0.78012
   93. RY ( 2)Cl  6             0.00248     0.69681
   94. RY ( 3)Cl  6             0.00077     0.66156
   95. RY ( 4)Cl  6             0.00015     1.27779
   96. RY ( 5)Cl  6             0.00004     1.07772
   97. RY ( 6)Cl  6             0.00002     0.97243
   98. RY ( 7)Cl  6             0.00001     1.24720
   99. RY ( 8)Cl  6             0.00000     1.08341
  100. RY ( 9)Cl  6             0.00000     1.02461
          -------------------------------
                 Total Lewis   79.49110  ( 99.3639%)
           Valence non-Lewis    0.42377  (  0.5297%)
           Rydberg non-Lewis    0.08512  (  0.1064%)
          -------------------------------
               Total unit  1   80.00000  (100.0000%)
              Charge unit  1    0.00000

 $CHOOSE
   LONE 3 3 4 3 5 3 6 3 END
   BOND D 1 2 S 1 3 S 1 4 S 2 5 S 2 6 END
 $END

 NBO analysis completed in 1.77 CPU seconds (3 wall seconds)
 Maximum scratch memory used by NBO was 437039 words (3.33 MB)
 Maximum scratch memory used by G16NBO was 23906 words (0.18 MB)

 Opening RunExU unformatted file "/cluster/work/users/beto93/mol74/Gau-1175985.EUF"
 Read unf file /cluster/work/users/beto93/mol74/Gau-1175985.EUF:
 Label Gaussian matrix elements                                         IVers= 2 NLab= 2 Version=ES64L-G16RevC.01
 Title mol74-NBO                                                       
 NAtoms=     6 NBasis=   100 NBsUse=   100 ICharg=     0 Multip=     1 NE=    80 Len12L=8 Len4L=8 IOpCl= 0 ICGU=111
 GAUSSIAN SCALARS                    NI= 1 NR= 1 NTot=       1 LenBuf=    2 NRI=1 N=    1000
 NPA CHARGES                         NI= 0 NR= 1 NTot=       6 LenBuf= 4000 NRI=1 N=       6
 Recovered energy= -1913.59565269     dipole=     -0.000000000000     -0.000000000000     -0.000000000000
 Unable to Open any file for archive entry.
 1\1\GINC-C3-20\SP\RHF\6-31G(d)\C2Cl4\BETO93\18-Nov-2024\0\\#RHF/6-31G*
  int=nobasistransform Symmetry=None 5D 7F Pop=NBO7Read\\mol74-NBO\\0,1
 \C,0,0.,0.,0.675402\C,0,0.,0.,-0.675402\Cl,0,0.,1.448939,1.589701\Cl,0
 ,0.,-1.448939,1.589701\Cl,0,0.,-1.448939,-1.589701\Cl,0,0.,1.448939,-1
 .589701\\Version=ES64L-G16RevC.01\HF=-1913.5956527\RMSD=2.717e-09\Dipo
 le=0.,0.,0.\Quadrupole=-0.7838145,1.0190652,-0.2352507,0.,0.,0.\PG=Unk
 nown\\@
 The archive entry for this job was punched.


 HE WHO LAUGHS LAST PROBABLY DIDN'T GET THE JOKE.
 Job cpu time:       0 days  0 hours  0 minutes 13.6 seconds.
 Elapsed time:       0 days  0 hours  0 minutes  4.6 seconds.
 File lengths (MBytes):  RWF=     15 Int=      0 D2E=      0 Chk=      2 Scr=      1
 Normal termination of Gaussian 16 at Mon Nov 18 16:40:43 2024.
