 Entering Gaussian System, Link 0=g16
 Initial command:
 /cluster/software/Gaussian/g16_C.01/l1.exe "/cluster/work/users/beto93/CH3BeH/Gau-1651613.inp" -scrdir="/cluster/work/users/beto93/CH3BeH/"
 Entering Link 1 = /cluster/software/Gaussian/g16_C.01/l1.exe PID=   1651614.
  
 Copyright (c) 1988-2019, Gaussian, Inc.  All Rights Reserved.
  
 This is part of the Gaussian(R) 16 program.  It is based on
 the Gaussian(R) 09 system (copyright 2009, Gaussian, Inc.),
 the Gaussian(R) 03 system (copyright 2003, Gaussian, Inc.),
 the Gaussian(R) 98 system (copyright 1998, Gaussian, Inc.),
 the Gaussian(R) 94 system (copyright 1995, Gaussian, Inc.),
 the Gaussian 92(TM) system (copyright 1992, Gaussian, Inc.),
 the Gaussian 90(TM) system (copyright 1990, Gaussian, Inc.),
 the Gaussian 88(TM) system (copyright 1988, Gaussian, Inc.),
 the Gaussian 86(TM) system (copyright 1986, Carnegie Mellon
 University), and the Gaussian 82(TM) system (copyright 1983,
 Carnegie Mellon University). Gaussian is a federally registered
 trademark of Gaussian, Inc.
  
 This software contains proprietary and confidential information,
 including trade secrets, belonging to Gaussian, Inc.
  
 This software is provided under written license and may be
 used, copied, transmitted, or stored only in accord with that
 written license.
  
 The following legend is applicable only to US Government
 contracts under FAR:
  
                    RESTRICTED RIGHTS LEGEND
  
 Use, reproduction and disclosure by the US Government is
 subject to restrictions as set forth in subparagraphs (a)
 and (c) of the Commercial Computer Software - Restricted
 Rights clause in FAR 52.227-19.
  
 Gaussian, Inc.
 340 Quinnipiac St., Bldg. 40, Wallingford CT 06492
  
  
 ---------------------------------------------------------------
 Warning -- This program may not be used in any manner that
 competes with the business of Gaussian, Inc. or will provide
 assistance to any competitor of Gaussian, Inc.  The licensee
 of this program is prohibited from giving any competitor of
 Gaussian, Inc. access to this program.  By using this program,
 the user acknowledges that Gaussian, Inc. is engaged in the
 business of creating and licensing software in the field of
 computational chemistry and represents and warrants to the
 licensee that it is not a competitor of Gaussian, Inc. and that
 it will not use this program in any manner prohibited above.
 ---------------------------------------------------------------
  

 Cite this work as:
 Gaussian 16, Revision C.01,
 M. J. Frisch, G. W. Trucks, H. B. Schlegel, G. E. Scuseria, 
 M. A. Robb, J. R. Cheeseman, G. Scalmani, V. Barone, 
 G. A. Petersson, H. Nakatsuji, X. Li, M. Caricato, A. V. Marenich, 
 J. Bloino, B. G. Janesko, R. Gomperts, B. Mennucci, H. P. Hratchian, 
 J. V. Ortiz, A. F. Izmaylov, J. L. Sonnenberg, D. Williams-Young, 
 F. Ding, F. Lipparini, F. Egidi, J. Goings, B. Peng, A. Petrone, 
 T. Henderson, D. Ranasinghe, V. G. Zakrzewski, J. Gao, N. Rega, 
 G. Zheng, W. Liang, M. Hada, M. Ehara, K. Toyota, R. Fukuda, 
 J. Hasegawa, M. Ishida, T. Nakajima, Y. Honda, O. Kitao, H. Nakai, 
 T. Vreven, K. Throssell, J. A. Montgomery, Jr., J. E. Peralta, 
 F. Ogliaro, M. J. Bearpark, J. J. Heyd, E. N. Brothers, K. N. Kudin, 
 V. N. Staroverov, T. A. Keith, R. Kobayashi, J. Normand, 
 K. Raghavachari, A. P. Rendell, J. C. Burant, S. S. Iyengar, 
 J. Tomasi, M. Cossi, J. M. Millam, M. Klene, C. Adamo, R. Cammi, 
 J. W. Ochterski, R. L. Martin, K. Morokuma, O. Farkas, 
 J. B. Foresman, and D. J. Fox, Gaussian, Inc., Wallingford CT, 2019.
 
 ******************************************
 Gaussian 16:  ES64L-G16RevC.01  3-Jul-2019
                24-Jul-2024 
 ******************************************
 %LindaWorkers=c1-2-ib
 %NProcShared=4
 Will use up to    4 processors via shared memory.
 %mem=25GB
 %chk=a.chk
 SetLPE:    new flags="-opt 'Tsnet.Node.lindarsharg: ssh'  -nodelist 'c1-2-ib.saga' -env GAUSS_MDEF=3355443200 -env GAUSS_EXEDIR="/cluster/software/Gaussian/g16_C.01/bsd:/cluster/software/Gaussian/g16_C.01""
 Will use up to    1 processors via Linda.
 ------------------------
 #RHF/6-31G* Pop=NBO7Read
 ------------------------
 1/38=1,163=2,172=1/1;
 2/12=2,17=6,18=5,40=1/2;
 3/5=1,6=6,7=1,11=1,25=1,30=1,116=1/1,2,3;
 4//1;
 5/5=2,38=5/2;
 6/7=2,8=2,9=2,10=2,28=1,40=2,113=1,114=1,124=2103/1,12;
 99/5=1,9=1/99;
 -----
 NBO-a
 -----
 Symbolic Z-matrix:
 Charge =  0 Multiplicity = 1
 C                     0.0345   -0.05974   0.02499 
 Be                   -0.76165   1.32287  -0.53406 
 H                     0.0575   -0.10099   1.10865 
 H                     1.06333  -0.09802  -0.31644 
 H                    -0.44808  -0.96878  -0.31751 
 H                    -1.36966   2.37874  -0.96099 
 
                          Input orientation:                          
 ---------------------------------------------------------------------
 Center     Atomic      Atomic             Coordinates (Angstroms)
 Number     Number       Type             X           Y           Z
 ---------------------------------------------------------------------
      1          6           0        0.034501   -0.059741    0.024991
      2          4           0       -0.761653    1.322867   -0.534058
      3          1           0        0.057502   -0.100992    1.108648
      4          1           0        1.063335   -0.098024   -0.316442
      5          1           0       -0.448079   -0.968780   -0.317508
      6          1           0       -1.369663    2.378741   -0.960994
 ---------------------------------------------------------------------
                    Distance matrix (angstroms):
                    1          2          3          4          5
     1  C    0.000000
     2  Be   1.690563   0.000000
     3  H    1.084686   2.323117   0.000000
     4  H    1.084685   2.323116   1.744302   0.000000
     5  H    1.084685   2.323116   1.744302   1.744302   0.000000
     6  H    2.981617   1.291054   3.531189   3.531188   3.531188
                    6
     6  H    0.000000
 Stoichiometry    CH4Be
 Framework group  C3[C3(HBeC),X(H3)]
 Deg. of freedom     4
 Full point group                 C3      NOp   3
 Largest Abelian subgroup         C1      NOp   1
 Largest concise Abelian subgroup C1      NOp   1
                         Standard orientation:                         
 ---------------------------------------------------------------------
 Center     Atomic      Atomic             Coordinates (Angstroms)
 Number     Number       Type             X           Y           Z
 ---------------------------------------------------------------------
      1          6           0        0.000000   -0.000000    0.609650
      2          4           0       -0.000000    0.000000   -1.080912
      3          1           0        0.815158   -0.591367    1.012572
      4          1           0       -0.919718   -0.410264    1.012572
      5          1           0        0.104560    1.001631    1.012572
      6          1           0       -0.000000    0.000000   -2.371966
 ---------------------------------------------------------------------
 Rotational constants (GHZ):         164.8118407          20.0785083          20.0785083
 Standard basis: 6-31G(d) (6D, 7F)
 There are    38 symmetry adapted cartesian basis functions of A   symmetry.
 There are    38 symmetry adapted basis functions of A   symmetry.
    38 basis functions,    72 primitive gaussians,    38 cartesian basis functions
     7 alpha electrons        7 beta electrons
       nuclear repulsion energy        23.0915125036 Hartrees.
 NAtoms=    6 NActive=    6 NUniq=    4 SFac= 2.25D+00 NAtFMM=   60 NAOKFM=F Big=F
 Integral buffers will be    131072 words long.
 Raffenetti 1 integral format.
 Two-electron integral symmetry is turned on.
 One-electron integrals computed using PRISM.
 NBasis=    38 RedAO= T EigKep=  1.26D-02  NBF=    38
 NBsUse=    38 1.00D-06 EigRej= -1.00D+00 NBFU=    38
 ExpMin= 8.23D-02 ExpMax= 3.05D+03 ExpMxC= 4.57D+02 IAcc=3 IRadAn=         5 AccDes= 0.00D+00
 Harris functional with IExCor=  205 and IRadAn=       5 diagonalized for initial guess.
 HarFok:  IExCor=  205 AccDes= 0.00D+00 IRadAn=         5 IDoV= 1 UseB2=F ITyADJ=14
 ICtDFT=  3500011 ScaDFX=  1.000000  1.000000  1.000000  1.000000
 FoFCou: FMM=F IPFlag=           0 FMFlag=      100000 FMFlg1=           0
         NFxFlg=           0 DoJE=T BraDBF=F KetDBF=T FulRan=T
         wScrn=  0.000000 ICntrl=       500 IOpCl=  0 I1Cent=   200000004 NGrid=           0
         NMat0=    1 NMatS0=      1 NMatT0=    0 NMatD0=    1 NMtDS0=    0 NMtDT0=    0
 Petite list used in FoFCou.
 Initial guess orbital symmetries:
       Occupied  (A) (A) (A) (E) (E) (A) (A)
       Virtual   (E) (E) (A) (E) (E) (A) (A) (E) (E) (A) (A) (E)
                 (E) (A) (E) (E) (E) (E) (A) (E) (E) (A) (A) (A)
                 (E) (E) (E) (E) (A) (A) (A)
 The electronic state of the initial guess is 1-A.
 Keep R1 ints in memory in canonical form, NReq=1110315.
 Requested convergence on RMS density matrix=1.00D-08 within 128 cycles.
 Requested convergence on MAX density matrix=1.00D-06.
 Requested convergence on             energy=1.00D-06.
 No special actions if energy rises.
 SCF Done:  E(RHF) =  -54.8152520195     A.U. after   10 cycles
            NFock= 10  Conv=0.23D-08     -V/T= 1.9981

 **********************************************************************

            Population analysis using the SCF Density.

 **********************************************************************

 Orbital symmetries:
       Occupied  (A) (A) (A) (E) (E) (A) (A)
       Virtual   (E) (E) (A) (A) (E) (E) (A) (E) (E) (A) (A) (E)
                 (E) (A) (E) (E) (E) (E) (A) (E) (E) (A) (A) (A)
                 (E) (E) (E) (E) (A) (A) (A)
 The electronic state is 1-A.
 Alpha  occ. eigenvalues --  -11.17600  -4.64323  -0.91149  -0.53111  -0.53111
 Alpha  occ. eigenvalues --   -0.47232  -0.42362
 Alpha virt. eigenvalues --    0.11513   0.11513   0.19019   0.28767   0.31876
 Alpha virt. eigenvalues --    0.31876   0.35589   0.50979   0.50979   0.57069
 Alpha virt. eigenvalues --    0.66158   0.80558   0.80558   0.82840   1.05807
 Alpha virt. eigenvalues --    1.05807   1.12903   1.12903   1.25874   1.26463
 Alpha virt. eigenvalues --    1.26463   1.30071   1.51322   1.95822   2.15319
 Alpha virt. eigenvalues --    2.15319   2.64258   2.64258   2.68322   3.01510
 Alpha virt. eigenvalues --    4.68179
          Condensed to atoms (all electrons):
               1          2          3          4          5          6
     1  C    5.145226   0.437735   0.379093   0.379093   0.379093   0.002726
     2  Be   0.437735   2.909364  -0.026569  -0.026569  -0.026569   0.432834
     3  H    0.379093  -0.026569   0.536140  -0.026035  -0.026035   0.000307
     4  H    0.379093  -0.026569  -0.026035   0.536140  -0.026035   0.000307
     5  H    0.379093  -0.026569  -0.026035  -0.026035   0.536140   0.000307
     6  H    0.002726   0.432834   0.000307   0.000307   0.000307   0.629621
 Mulliken charges:
               1
     1  C   -0.722966
     2  Be   0.299773
     3  H    0.163099
     4  H    0.163099
     5  H    0.163099
     6  H   -0.066102
 Sum of Mulliken charges =  -0.00000
 Mulliken charges with hydrogens summed into heavy atoms:
               1
     1  C   -0.233670
     2  Be   0.233670
 Electronic spatial extent (au):  <R**2>=             99.4885
 Charge=             -0.0000 electrons
 Dipole moment (field-independent basis, Debye):
    X=              0.0000    Y=             -0.0000    Z=              0.3578  Tot=              0.3578
 Quadrupole moment (field-independent basis, Debye-Ang):
   XX=            -12.7948   YY=            -12.7948   ZZ=            -18.6546
   XY=             -0.0000   XZ=              0.0000   YZ=             -0.0000
 Traceless Quadrupole moment (field-independent basis, Debye-Ang):
   XX=              1.9533   YY=              1.9533   ZZ=             -3.9065
   XY=             -0.0000   XZ=              0.0000   YZ=             -0.0000
 Octapole moment (field-independent basis, Debye-Ang**2):
  XXX=             -0.1394  YYY=              0.4323  ZZZ=             20.1229  XYY=              0.1394
  XXY=             -0.4323  XXZ=              1.9704  XZZ=              0.0000  YZZ=             -0.0000
  YYZ=              1.9704  XYZ=             -0.0000
 Hexadecapole moment (field-independent basis, Debye-Ang**3):
 XXXX=            -21.3262 YYYY=            -21.3262 ZZZZ=           -159.7275 XXXY=             -0.0000
 XXXZ=             -0.1846 YYYX=             -0.0000 YYYZ=              0.5722 ZZZX=              0.0000
 ZZZY=             -0.0000 XXYY=             -7.1087 XXZZ=            -23.6587 YYZZ=            -23.6587
 XXYZ=             -0.5722 YYXZ=              0.1846 ZZXY=             -0.0000
 N-N= 2.309151250357D+01 E-N=-1.733532387808D+02  KE= 5.491747744167D+01
 Running external command "gaunbo7 R"
         input file       "/cluster/work/users/beto93/CH3BeH/Gau-1651614.EIn"
         output file      "/cluster/work/users/beto93/CH3BeH/Gau-1651614.EOu"
         message file     "/cluster/work/users/beto93/CH3BeH/Gau-1651614.EMs"
         fchk file        "/cluster/work/users/beto93/CH3BeH/Gau-1651614.EFC"
         mat. el file     "/cluster/work/users/beto93/CH3BeH/Gau-1651614.EUF"

 Writing WrtUnf unformatted file "/cluster/work/users/beto93/CH3BeH/Gau-1651614.EUF"
 Gaussian matrix elements                                         Version   2 NLab=11 Len12L=8 Len4L=8
 Write SHELL TO ATOM MAP                   from file      0 offset           0 length                  16 to matrix element file.
 Write SHELL TYPES                         from file      0 offset           0 length                  16 to matrix element file.
 Write NUMBER OF PRIMITIVES PER SHELL      from file      0 offset           0 length                  16 to matrix element file.
 Write PRIMITIVE EXPONENTS                 from file      0 offset           0 length                  38 to matrix element file.
 Write CONTRACTION COEFFICIENTS            from file      0 offset           0 length                  38 to matrix element file.
 Write P(S=P) CONTRACTION COEFFICIENTS     from file      0 offset           0 length                  38 to matrix element file.
 Write COORDINATES OF EACH SHELL           from file      0 offset           0 length                  48 to matrix element file.
 Write BONDS PER ATOM                      from file      0 offset           0 length                   6 to matrix element file.
 Write BONDED ATOMS                        from file      0 offset           0 length                  10 to matrix element file.
 Write BOND TYPES                          from file      0 offset           0 length                  10 to matrix element file.
 Write ONIOM CHARGE/MULT                   from file      0 offset           0 length                  32 to matrix element file.
 Write ONIOM ATOM LAYERS                   from file      0 offset           0 length                   6 to matrix element file.
 Write ONIOM ATOM MODIFIERS                from file      0 offset           0 length                   6 to matrix element file.
 Write ONIOM ATOM TYPES                    from file      0 offset           0 length                   6 to matrix element file.
 Write ONIOM LINK ATOMS                    from file      0 offset           0 length                   6 to matrix element file.
 Write ONIOM LINK CHARGES                  from file      0 offset           0 length                   6 to matrix element file.
 Write ONIOM LINK DISTANCES                from file      0 offset           0 length                  24 to matrix element file.
 Write SYMINF INTS                         from file      0 offset           0 length                  26 to matrix element file.
 Write ROTTR TO SO                         from file      0 offset           0 length                  12 to matrix element file.
 Write GAUSSIAN SCALARS                    from file    501 offset           0 to matrix element file.
 Write OPTIMIZATION FLAGS                  from file      0 offset           0 length                   6 to matrix element file.
 Write INTEGER ISO                         from file      0 offset           0 length                   6 to matrix element file.
 Write INTEGER SPIN                        from file      0 offset           0 length                   6 to matrix element file.
 Write REAL ZEFFECTIVE                     from file      0 offset           0 length                   6 to matrix element file.
 Write REAL QUADRUPOLEMOMENT               from file      0 offset           0 length                   6 to matrix element file.
 Write REAL GFACTOR                        from file      0 offset           0 length                   6 to matrix element file.
 Write REAL ZNUCLEAR                       from file      0 offset           0 length                   6 to matrix element file.
 Write MULLIKEN CHARGES                    from file      0 offset           0 length                   6 to matrix element file.
 Write NUCLEAR GRADIENT                    from file  10584 offset           0 length                  18 to matrix element file.
 Array NUCLEAR FORCE CONSTANTS              on  file  10585 does not exist.
 Write ELECTRIC DIPOLE MOMENT              from file      0 offset           0 length                   3 to matrix element file.
 Write NON-ADIABATIC COUPLING              from file  10810 offset           0 length                  18 to matrix element file.
 Write FINITE EM FIELD                     from file  10521 offset           0 length                  35 to matrix element file.
 Write OVERLAP                             from file  10514 offset           0 length                 741 to matrix element file.
 Write CORE HAMILTONIAN ALPHA              from file  10515 offset           0 length                 741 to matrix element file.
 Write CORE HAMILTONIAN BETA               from file  10515 offset         741 length                 741 to matrix element file.
 Write KINETIC ENERGY                      from file  10516 offset           0 length                 741 to matrix element file.
 Write ORTHOGONAL BASIS                    from file  10685 offset           0 length                1444 to matrix element file.
 Write DIPOLE INTEGRALS                    from file  10518 offset           0 length                2223 to matrix element file.
 Array DIP VEL INTEGRALS                    on  file  10572 does not exist.
 Array R X DEL INTEGRALS                    on  file  10572 does not exist.
 Write ALPHA ORBITAL ENERGIES              from file      0 offset           0 length                  38 to matrix element file.
 Write ALPHA MO COEFFICIENTS               from file  10524 offset           0 length                1444 to matrix element file.
 Write ALPHA DENSITY MATRIX                from file      0 offset           0 length                 741 to matrix element file.
 Write ALPHA FOCK MATRIX                   from file  10536 offset           0 length                 741 to matrix element file.
 Write ENERGY-WEIGHTED DENSITY             from file  10571 offset           0 length                 741 to matrix element file.
 Write ALPHA SCF DENSITY MATRIX            from file      0 offset           0 length                 741 to matrix element file.
 No 2e integrals to process.
 Perform NBO analysis...executing G16NBO...

 *********************************** NBO 7.0 ***********************************
             N A T U R A L   A T O M I C   O R B I T A L   A N D
          N A T U R A L   B O N D   O R B I T A L   A N A L Y S I S
 **************************** Espen Tangen (S101595) ***************************
  (c) Copyright 1996-2021 Board of Regents of the University of Wisconsin System
      on behalf of the Theoretical Chemistry Institute.  All rights reserved.

          Cite this program [NBO 7.0.10 (8-Feb-2021)] as:

          NBO 7.0.  E. D. Glendening, J. K. Badenhoop, A. E. Reed,
          J. E. Carpenter, J. A. Bohmann, C. M. Morales, P. Karafiloglou,
          C. R. Landis, and F. Weinhold, Theoretical Chemistry Institute,
          University of Wisconsin, Madison, WI (2018)

       /NPA    / : Natural Population Analysis
       /AOPNAO / : Print the AO to PNAO transformation
       /AONAO  / : Print the AO to NAO transformation
       /AONO   / : Print the NOs in the AO basis
       /AOMO   / : Print the MOs in the AO basis
       /BOAO   / : Print the AO bond-order matrix
       /DMAO   / : Print the AO density matrix
       /DMPNAO / : Print the PNAO density matrix
       /DMNAO  / : Print the NAO density matrix
       /DMMO   / : Print the MO density matrix
       /SAO    / : Print the AO overlap matrix
       /SPNAO  / : Print the PNAO overlap matrix
       /DETAIL / : Write details of NBO search
       /ARCHIVE/ : Write the archive file to lfn47
       /AOINFO / : Write AO information to lfn31
       /FILE   / : Set to inpGenNbo

 Filename set to inpGenNbo

 Job title: NBO-a


 MOs in the AO basis:

           AO          1       2       3       4       5       6       7       8
      ------------ ------- ------- ------- ------- ------- ------- ------- -------
   1.  C 1 (s)      0.9957 -0.0005 -0.1922  0.0000  0.0000 -0.0057  0.0302  0.0000
   2.  C 1 (s)      0.0284  0.0005  0.3495  0.0000  0.0000  0.0052 -0.0602  0.0000
   3.  C 1 (px)     0.0000  0.0000  0.0000  0.3207 -0.2714  0.0000  0.0000  0.0295
   4.  C 1 (py)     0.0000  0.0000  0.0000  0.2714  0.3207  0.0000  0.0000 -0.0340
   5.  C 1 (pz)     0.0004 -0.0008  0.0528  0.0000  0.0000 -0.1721  0.4180  0.0000
   6.  C 1 (s)     -0.0130 -0.0023  0.3396  0.0000  0.0000  0.0518 -0.0590  0.0000
   7.  C 1 (px)     0.0000  0.0000  0.0000  0.1771 -0.1499  0.0000  0.0000  0.0651
   8.  C 1 (py)     0.0000  0.0000  0.0000  0.1499  0.1771  0.0000  0.0000 -0.0751
   9.  C 1 (pz)    -0.0002 -0.0008  0.0304  0.0000  0.0000 -0.1348  0.2490  0.0000
  10.  C 1 (d1)    -0.0019 -0.0001  0.0137 -0.0204 -0.0127 -0.0035  0.0054  0.0041
  11.  C 1 (d4)    -0.0019 -0.0001  0.0137  0.0204  0.0127 -0.0035  0.0054 -0.0041
  12.  C 1 (d6)    -0.0019  0.0009 -0.0001  0.0000  0.0000 -0.0014 -0.0121  0.0000
  13.  C 1 (d2)     0.0000  0.0000  0.0000 -0.0146  0.0235  0.0000  0.0000 -0.0079
  14.  C 1 (d3)     0.0000  0.0000  0.0000  0.0174 -0.0147  0.0000  0.0000  0.0143
  15.  C 1 (d5)     0.0000  0.0000  0.0000  0.0147  0.0174  0.0000  0.0000 -0.0165
  16. Be 2 (s)      0.0001  0.9975 -0.0443  0.0000  0.0000 -0.1742  0.0594  0.0000
  17. Be 2 (s)      0.0015  0.0180  0.0496  0.0000  0.0000  0.1969 -0.0714  0.0000
  18. Be 2 (px)     0.0000  0.0000  0.0000  0.0284 -0.0240  0.0000  0.0000 -0.1515
  19. Be 2 (py)     0.0000  0.0000  0.0000  0.0240  0.0284  0.0000  0.0000  0.1747
  20. Be 2 (pz)     0.0007 -0.0002  0.0776  0.0000  0.0000 -0.1432 -0.3547  0.0000
  21. Be 2 (s)      0.0008 -0.0066  0.0229  0.0000  0.0000  0.2186 -0.0641  0.0000
  22. Be 2 (px)     0.0000  0.0000  0.0000  0.0093 -0.0079  0.0000  0.0000 -0.5885
  23. Be 2 (py)     0.0000  0.0000  0.0000  0.0079  0.0093  0.0000  0.0000  0.6786
  24. Be 2 (pz)     0.0014 -0.0019  0.0108  0.0000  0.0000 -0.0731 -0.1034  0.0000
  25. Be 2 (d1)    -0.0001  0.0005 -0.0061 -0.0021 -0.0013 -0.0090  0.0029  0.0008
  26. Be 2 (d4)    -0.0001  0.0005 -0.0061  0.0021  0.0013 -0.0090  0.0029 -0.0008
  27. Be 2 (d6)    -0.0007  0.0028  0.0215  0.0000  0.0000  0.0664 -0.0083  0.0000
  28. Be 2 (d2)     0.0000  0.0000  0.0000 -0.0015  0.0024  0.0000  0.0000 -0.0015
  29. Be 2 (d3)     0.0000  0.0000  0.0000  0.0074 -0.0062  0.0000  0.0000  0.0022
  30. Be 2 (d5)     0.0000  0.0000  0.0000  0.0062  0.0074  0.0000  0.0000 -0.0025
  31.  H 3 (s)      0.0000  0.0002  0.1456  0.0645 -0.2627 -0.0379  0.0722  0.0698
  32.  H 3 (s)      0.0022  0.0015  0.0458  0.0559 -0.2278 -0.0247  0.0869  0.1971
  33.  H 4 (s)      0.0000  0.0002  0.1456 -0.2597  0.0755 -0.0379  0.0722 -0.0208
  34.  H 4 (s)      0.0022  0.0015  0.0458 -0.2253  0.0655 -0.0247  0.0869 -0.0588
  35.  H 5 (s)      0.0000  0.0002  0.1456  0.1952  0.1872 -0.0379  0.0722 -0.0490
  36.  H 5 (s)      0.0022  0.0015  0.0458  0.1693  0.1623 -0.0247  0.0869 -0.1383
  37.  H 6 (s)      0.0001  0.0009 -0.0020  0.0000  0.0000  0.2683  0.1503  0.0000
  38.  H 6 (s)      0.0008 -0.0017  0.0133  0.0000  0.0000  0.2797  0.1308  0.0000

           AO          9      10      11      12      13      14      15      16
      ------------ ------- ------- ------- ------- ------- ------- ------- -------
   1.  C 1 (s)      0.0000  0.1189  0.0725  0.0000  0.0000 -0.0532  0.0000  0.0000
   2.  C 1 (s)      0.0000 -0.0632  0.0229  0.0000  0.0000  0.0404  0.0000  0.0000
   3.  C 1 (px)    -0.0340  0.0000  0.0000 -0.1799  0.2091  0.0000  0.1008 -0.1154
   4.  C 1 (py)    -0.0295  0.0000  0.0000  0.2091  0.1799  0.0000 -0.1154 -0.1008
   5.  C 1 (pz)     0.0000  0.0699 -0.1454  0.0000  0.0000  0.2329  0.0000  0.0000
   6.  C 1 (s)      0.0000 -1.7465 -1.6364  0.0000  0.0000  1.2025  0.0000  0.0000
   7.  C 1 (px)    -0.0751  0.0000  0.0000 -0.9530  1.1076  0.0000  0.3310 -0.3790
   8.  C 1 (py)    -0.0651  0.0000  0.0000  1.1076  0.9530  0.0000 -0.3790 -0.3310
   9.  C 1 (pz)     0.0000  0.2652 -0.1146  0.0000  0.0000  1.1552  0.0000  0.0000
  10.  C 1 (d1)     0.0068  0.0155  0.0167  0.0035  0.0057  0.0001 -0.0049 -0.0082
  11.  C 1 (d4)    -0.0068  0.0155  0.0167 -0.0035 -0.0057  0.0001  0.0049  0.0082
  12.  C 1 (d6)     0.0000  0.0073 -0.0011  0.0000  0.0000 -0.0080  0.0000  0.0000
  13.  C 1 (d2)     0.0048  0.0000  0.0000 -0.0065  0.0040  0.0000  0.0095 -0.0057
  14.  C 1 (d3)    -0.0165  0.0000  0.0000  0.0038 -0.0044  0.0000  0.0189 -0.0217
  15.  C 1 (d5)    -0.0143  0.0000  0.0000 -0.0044 -0.0038  0.0000 -0.0217 -0.0189
  16. Be 2 (s)      0.0000 -0.0928  0.0223  0.0000  0.0000 -0.0735  0.0000  0.0000
  17. Be 2 (s)      0.0000 -0.3780  0.3349  0.0000  0.0000  0.4508  0.0000  0.0000
  18. Be 2 (px)     0.1747  0.0000  0.0000 -0.1826  0.2122  0.0000 -0.8631  0.9885
  19. Be 2 (py)     0.1515  0.0000  0.0000  0.2122  0.1826  0.0000  0.9885  0.8631
  20. Be 2 (pz)     0.0000  0.0000 -0.1735  0.0000  0.0000 -0.3563  0.0000  0.0000
  21. Be 2 (s)      0.0000  1.8294 -1.1894  0.0000  0.0000  0.5508  0.0000  0.0000
  22. Be 2 (px)     0.6786  0.0000  0.0000  0.3044 -0.3537  0.0000  0.6781 -0.7767
  23. Be 2 (py)     0.5885  0.0000  0.0000 -0.3537 -0.3044  0.0000 -0.7767 -0.6781
  24. Be 2 (pz)     0.0000  0.4528  2.1273  0.0000  0.0000  1.8612  0.0000  0.0000
  25. Be 2 (d1)     0.0013  0.0368 -0.0205  0.0092  0.0150  0.0098 -0.0095 -0.0159
  26. Be 2 (d4)    -0.0013  0.0368 -0.0205 -0.0092 -0.0150  0.0098  0.0095  0.0159
  27. Be 2 (d6)     0.0000  0.0603  0.0192  0.0000  0.0000  0.0283  0.0000  0.0000
  28. Be 2 (d2)     0.0009  0.0000  0.0000 -0.0173  0.0106  0.0000  0.0183 -0.0110
  29. Be 2 (d3)    -0.0025  0.0000  0.0000  0.0024 -0.0028  0.0000  0.0041 -0.0047
  30. Be 2 (d5)    -0.0022  0.0000  0.0000 -0.0028 -0.0024  0.0000 -0.0047 -0.0041
  31.  H 3 (s)     -0.0163  0.0043  0.0092  0.0584 -0.0138  0.0043  0.0190 -0.0044
  32.  H 3 (s)     -0.0459  0.3543  0.3301  1.6982 -0.4024 -1.3042 -0.8214  0.1883
  33.  H 4 (s)      0.0686  0.0043  0.0092 -0.0172  0.0574  0.0043 -0.0057  0.0186
  34.  H 4 (s)      0.1937  0.3543  0.3301 -0.5006  1.6719 -1.3042  0.2476 -0.8055
  35.  H 5 (s)     -0.0523  0.0043  0.0092 -0.0412 -0.0436  0.0043 -0.0133 -0.0143
  36.  H 5 (s)     -0.1478  0.3543  0.3301 -1.1976 -1.2695 -1.3042  0.5738  0.6172
  37.  H 6 (s)      0.0000 -0.1070  0.1008  0.0000  0.0000  0.0086  0.0000  0.0000
  38.  H 6 (s)      0.0000 -0.6027  1.7218  0.0000  0.0000  0.3730  0.0000  0.0000

           AO         17      18      19      20      21      22      23      24
      ------------ ------- ------- ------- ------- ------- ------- ------- -------
   1.  C 1 (s)      0.0398  0.0339  0.0000  0.0000 -0.0325  0.0000  0.0000  0.0000
   2.  C 1 (s)     -0.1391 -0.1367  0.0000  0.0000  0.3324  0.0000  0.0000  0.0000
   3.  C 1 (px)     0.0000  0.0000 -0.5145 -0.4417  0.0000  0.3282 -0.3251  0.3838
   4.  C 1 (py)     0.0000  0.0000  0.4417 -0.5145  0.0000 -0.3251 -0.3282 -0.4900
   5.  C 1 (pz)    -0.1205  0.0423  0.0000  0.0000 -0.7039  0.0000  0.0000  0.0000
   6.  C 1 (s)     -0.2867 -0.3100  0.0000  0.0000 -0.2996  0.0000  0.0000  0.0000
   7.  C 1 (px)     0.0000  0.0000  1.0202  0.8758  0.0000 -0.6378  0.6319 -0.9222
   8.  C 1 (py)     0.0000  0.0000 -0.8758  1.0202  0.0000  0.6319  0.6378  1.1775
   9.  C 1 (pz)    -0.0167  1.7180  0.0000  0.0000  1.6720  0.0000  0.0000  0.0000
  10.  C 1 (d1)    -0.0353 -0.0446 -0.0331  0.0788  0.0115  0.0089  0.0175 -0.0152
  11.  C 1 (d4)    -0.0353 -0.0446  0.0331 -0.0788  0.0115 -0.0089 -0.0175  0.0152
  12.  C 1 (d6)     0.0265  0.0862  0.0000  0.0000 -0.0083  0.0000  0.0000  0.0000
  13.  C 1 (d2)     0.0000  0.0000  0.0909  0.0382  0.0000 -0.0203  0.0103  0.0260
  14.  C 1 (d3)     0.0000  0.0000 -0.0476 -0.0408  0.0000 -0.0795  0.0788 -0.0724
  15.  C 1 (d5)     0.0000  0.0000  0.0408 -0.0476  0.0000  0.0788  0.0795  0.0925
  16. Be 2 (s)      0.0522 -0.0041  0.0000  0.0000  0.0958  0.0000  0.0000  0.0000
  17. Be 2 (s)      2.2579  0.0991  0.0000  0.0000 -0.2068  0.0000  0.0000  0.0000
  18. Be 2 (px)     0.0000  0.0000 -0.1265 -0.1086  0.0000  0.0172 -0.0171  0.0751
  19. Be 2 (py)     0.0000  0.0000  0.1086 -0.1265  0.0000 -0.0171 -0.0172 -0.0959
  20. Be 2 (pz)     0.0983  1.4529  0.0000  0.0000 -0.0148  0.0000  0.0000  0.0000
  21. Be 2 (s)     -1.5695  0.2300  0.0000  0.0000  1.6485  0.0000  0.0000  0.0000
  22. Be 2 (px)     0.0000  0.0000 -0.2082 -0.1788  0.0000  0.0939 -0.0931  0.0945
  23. Be 2 (py)     0.0000  0.0000  0.1788 -0.2082  0.0000 -0.0931 -0.0939 -0.1206
  24. Be 2 (pz)    -1.7264  1.6463  0.0000  0.0000  0.3905  0.0000  0.0000  0.0000
  25. Be 2 (d1)    -0.0373  0.0217 -0.0221  0.0527 -0.2426  0.2881  0.5690 -0.3266
  26. Be 2 (d4)    -0.0373  0.0217  0.0221 -0.0527 -0.2426 -0.2881 -0.5690  0.3266
  27. Be 2 (d6)    -0.0377 -0.0283  0.0000  0.0000  0.5697  0.0000  0.0000  0.0000
  28. Be 2 (d2)     0.0000  0.0000  0.0609  0.0255  0.0000 -0.6570  0.3327  0.5579
  29. Be 2 (d3)     0.0000  0.0000  0.1485  0.1275  0.0000  0.3655 -0.3621  0.3506
  30. Be 2 (d5)     0.0000  0.0000 -0.1275  0.1485  0.0000 -0.3621 -0.3655 -0.4477
  31.  H 3 (s)     -0.0552 -0.1440 -0.5365 -0.0440 -0.1773 -0.2524  0.0389 -0.2177
  32.  H 3 (s)      0.7555 -0.6321 -0.0041 -0.0003 -0.4004  0.6735 -0.1039  1.1078
  33.  H 4 (s)     -0.0552 -0.1440  0.2301  0.4866 -0.1773  0.0925 -0.2380  0.0549
  34.  H 4 (s)      0.7555 -0.6321  0.0018  0.0037 -0.4004 -0.2467  0.6352 -0.2793
  35.  H 5 (s)     -0.0552 -0.1440  0.3063 -0.4426 -0.1773  0.1599  0.1991  0.1628
  36.  H 5 (s)      0.7555 -0.6321  0.0023 -0.0034 -0.4004 -0.4267 -0.5313 -0.8285
  37.  H 6 (s)     -0.0587 -0.0663  0.0000  0.0000  0.2157  0.0000  0.0000  0.0000
  38.  H 6 (s)     -1.3203  2.0819  0.0000  0.0000 -0.8406  0.0000  0.0000  0.0000

           AO         25      26      27      28      29      30      31      32
      ------------ ------- ------- ------- ------- ------- ------- ------- -------
   1.  C 1 (s)      0.0000 -0.0180  0.0000  0.0000 -0.0609 -0.1491 -0.0378  0.0000
   2.  C 1 (s)      0.0000 -1.3730  0.0000  0.0000  0.7600 -1.5507  0.4248  0.0000
   3.  C 1 (px)    -0.4900  0.0000 -0.2130 -0.5723  0.0000  0.0000  0.0000 -0.0021
   4.  C 1 (py)    -0.3838  0.0000  0.5723 -0.2130  0.0000  0.0000  0.0000  0.0295
   5.  C 1 (pz)     0.0000 -0.8077  0.0000  0.0000 -0.3008  0.3832 -0.3672  0.0000
   6.  C 1 (s)      0.0000  3.6434  0.0000  0.0000 -0.7708  4.5323  0.1052  0.0000
   7.  C 1 (px)     1.1775  0.0000  0.0854  0.2294  0.0000  0.0000  0.0000  0.0373
   8.  C 1 (py)     0.9222  0.0000 -0.2294  0.0854  0.0000  0.0000  0.0000 -0.5136
   9.  C 1 (pz)     0.0000  1.0994  0.0000  0.0000  0.1472 -1.0426 -0.0270  0.0000
  10.  C 1 (d1)    -0.0225 -0.0322  0.1604 -0.1267  0.0473 -0.1049  0.1442  0.5014
  11.  C 1 (d4)     0.0225 -0.0322 -0.1604  0.1267  0.0473 -0.1049  0.1442 -0.5014
  12.  C 1 (d6)     0.0000 -0.1749  0.0000  0.0000  0.0648 -0.1103 -0.2773  0.0000
  13.  C 1 (d2)    -0.0176  0.0000 -0.1463 -0.1852  0.0000  0.0000  0.0000 -0.2342
  14.  C 1 (d3)     0.0925  0.0000 -0.0040 -0.0109  0.0000  0.0000  0.0000 -0.0576
  15.  C 1 (d5)     0.0724  0.0000  0.0109 -0.0040  0.0000  0.0000  0.0000  0.7937
  16. Be 2 (s)      0.0000 -0.0324  0.0000  0.0000 -0.0003 -0.0463  0.1330  0.0000
  17. Be 2 (s)      0.0000 -0.5420  0.0000  0.0000 -0.2138 -0.5714 -0.7331  0.0000
  18. Be 2 (px)    -0.0959  0.0000 -0.0010 -0.0026  0.0000  0.0000  0.0000 -0.0139
  19. Be 2 (py)    -0.0751  0.0000  0.0026 -0.0010  0.0000  0.0000  0.0000  0.1909
  20. Be 2 (pz)     0.0000 -0.3639  0.0000  0.0000 -0.5008 -0.8448  0.2418  0.0000
  21. Be 2 (s)      0.0000  0.0905  0.0000  0.0000 -0.6510 -0.7125 -0.0832  0.0000
  22. Be 2 (px)    -0.1206  0.0000  0.0565  0.1519  0.0000  0.0000  0.0000 -0.0060
  23. Be 2 (py)    -0.0945  0.0000 -0.1519  0.0565  0.0000  0.0000  0.0000  0.0829
  24. Be 2 (pz)     0.0000  0.8774  0.0000  0.0000  1.1491 -1.5978 -0.8936  0.0000
  25. Be 2 (d1)    -0.4832  0.1858 -0.0177  0.0139  0.2584  0.0330  0.8227 -0.0429
  26. Be 2 (d4)     0.4832  0.1858  0.0177 -0.0139  0.2584  0.0330  0.8227  0.0429
  27. Be 2 (d6)     0.0000 -0.3091  0.0000  0.0000 -0.3827 -0.0154 -0.7141  0.0000
  28. Be 2 (d2)    -0.3771  0.0000  0.0161  0.0204  0.0000  0.0000  0.0000  0.0200
  29. Be 2 (d3)    -0.4477  0.0000  0.2329  0.6259  0.0000  0.0000  0.0000 -0.0325
  30. Be 2 (d5)    -0.3506  0.0000 -0.6259  0.2329  0.0000  0.0000  0.0000  0.4484
  31.  H 3 (s)      0.0623  0.2917  0.6074  0.4040 -0.3687 -0.6508 -0.1902 -0.0840
  32.  H 3 (s)     -0.3171 -1.3723 -0.7208 -0.4794  0.1611 -0.0299  0.2731 -0.1239
  33.  H 4 (s)     -0.2197  0.2917  0.0462 -0.7281 -0.3687 -0.6508 -0.1902 -0.0443
  34.  H 4 (s)      1.1179 -1.3723 -0.0548  0.8640  0.1611 -0.0299  0.2731 -0.0654
  35.  H 5 (s)      0.1574  0.2917 -0.6536  0.3240 -0.3687 -0.6508 -0.1902  0.1283
  36.  H 5 (s)     -0.8008 -1.3723  0.7756 -0.3845  0.1611 -0.0299  0.2731  0.1894
  37.  H 6 (s)      0.0000 -0.3051  0.0000  0.0000 -0.9079  0.1755  1.1861  0.0000
  38.  H 6 (s)      0.0000  0.9538  0.0000  0.0000  1.8237 -1.2126 -1.0569  0.0000

           AO         33      34      35      36      37      38
      ------------ ------- ------- ------- ------- ------- -------
   1.  C 1 (s)      0.0000  0.0000  0.0000  0.0414 -0.0438 -0.4863
   2.  C 1 (s)      0.0000  0.0000  0.0000  0.1537  0.0492  2.9581
   3.  C 1 (px)     0.0295 -0.1551  0.0173  0.0000  0.0000  0.0000
   4.  C 1 (py)     0.0021 -0.0173 -0.1551  0.0000  0.0000  0.0000
   5.  C 1 (pz)     0.0000  0.0000  0.0000  0.2347 -0.3389  0.0711
   6.  C 1 (s)      0.0000  0.0000  0.0000 -1.2360  0.7033  2.1981
   7.  C 1 (px)    -0.5136 -0.4204  0.0468  0.0000  0.0000  0.0000
   8.  C 1 (py)    -0.0373 -0.0468 -0.4204  0.0000  0.0000  0.0000
   9.  C 1 (pz)     0.0000  0.0000  0.0000  1.0697 -0.3899  0.0847
  10.  C 1 (d1)     0.2028  0.3131  0.6959  0.5755 -0.2151 -1.8805
  11.  C 1 (d4)    -0.2028 -0.3131 -0.6959  0.5755 -0.2151 -1.8805
  12.  C 1 (d6)     0.0000  0.0000  0.0000 -1.0796  0.4040 -1.9379
  13.  C 1 (d2)     0.5789  0.8035 -0.3616  0.0000  0.0000  0.0000
  14.  C 1 (d3)     0.7937 -0.7204  0.0801  0.0000  0.0000  0.0000
  15.  C 1 (d5)     0.0576 -0.0801 -0.7204  0.0000  0.0000  0.0000
  16. Be 2 (s)      0.0000  0.0000  0.0000 -0.0632 -0.2912 -0.0310
  17. Be 2 (s)      0.0000  0.0000  0.0000  2.4766  6.2933 -0.5023
  18. Be 2 (px)     0.1909 -0.0267  0.0030  0.0000  0.0000  0.0000
  19. Be 2 (py)     0.0139 -0.0030 -0.0267  0.0000  0.0000  0.0000
  20. Be 2 (pz)     0.0000  0.0000  0.0000  0.8439 -0.3626 -0.0188
  21. Be 2 (s)      0.0000  0.0000  0.0000  0.2474 -0.5876 -0.0559
  22. Be 2 (px)     0.0829  0.1066 -0.0119  0.0000  0.0000  0.0000
  23. Be 2 (py)     0.0060  0.0119  0.1066  0.0000  0.0000  0.0000
  24. Be 2 (pz)     0.0000  0.0000  0.0000  0.5203 -0.3881 -0.1788
  25. Be 2 (d1)    -0.0173 -0.0235 -0.0523 -1.0673 -2.5505  0.0751
  26. Be 2 (d4)     0.0173  0.0235  0.0523 -1.0673 -2.5505  0.0751
  27. Be 2 (d6)     0.0000  0.0000  0.0000  0.1033 -3.4478  0.4401
  28. Be 2 (d2)    -0.0495 -0.0604  0.0272  0.0000  0.0000  0.0000
  29. Be 2 (d3)     0.4484 -0.0554  0.0062  0.0000  0.0000  0.0000
  30. Be 2 (d5)     0.0325 -0.0062 -0.0554  0.0000  0.0000  0.0000
  31.  H 3 (s)      0.0997  0.5996 -0.5457 -0.1296 -0.0319  0.1330
  32.  H 3 (s)      0.1471 -0.1000  0.0910 -0.1040  0.0597 -0.4428
  33.  H 4 (s)     -0.1226 -0.7724 -0.2464 -0.1296 -0.0319  0.1330
  34.  H 4 (s)     -0.1809  0.1289  0.0411 -0.1040  0.0597 -0.4428
  35.  H 5 (s)      0.0229  0.1728  0.7921 -0.1296 -0.0319  0.1330
  36.  H 5 (s)      0.0338 -0.0288 -0.1322 -0.1040  0.0597 -0.4428
  37.  H 6 (s)      0.0000  0.0000  0.0000 -0.4022  0.5174 -0.1189
  38.  H 6 (s)      0.0000  0.0000  0.0000  0.4162 -0.4357 -0.0780


 NOs in the AO basis:

           AO          1       2       3       4       5       6       7       8
      ------------ ------- ------- ------- ------- ------- ------- ------- -------
   1.  C 1 (s)      0.5113  0.2226  0.6750 -0.4842  0.0774 -0.1189  0.0893  0.0031
   2.  C 1 (s)      0.2154 -0.0650 -0.1446  0.0290 -0.2264  0.0533 -0.0101 -0.0143
   3.  C 1 (px)     0.0104 -0.0140 -0.0689 -0.0829 -0.0017 -0.2659 -0.3064 -0.0339
   4.  C 1 (py)     0.0000  0.0170  0.1196  0.0541  0.0041  0.2792 -0.2846  0.1964
   5.  C 1 (pz)    -0.2232 -0.0520  0.2164  0.0031 -0.3197 -0.0739  0.0113 -0.1251
   6.  C 1 (s)      0.2045 -0.0618 -0.1607  0.0833 -0.2026  0.0448 -0.0144  0.0517
   7.  C 1 (px)     0.0057 -0.0077 -0.0380 -0.0458 -0.0009 -0.1469 -0.1692  0.0879
   8.  C 1 (py)     0.0000  0.0094  0.0661  0.0299  0.0023  0.1542 -0.1572 -0.3175
   9.  C 1 (pz)    -0.1479 -0.0348  0.1257 -0.0233 -0.2006 -0.0366  0.0075  0.0853
  10.  C 1 (d1)     0.0015 -0.0045 -0.0084  0.0006 -0.0143 -0.0095  0.0204  0.0027
  11.  C 1 (d4)     0.0019 -0.0031  0.0021  0.0036 -0.0139  0.0115 -0.0212 -0.1182
  12.  C 1 (d6)     0.0033 -0.0008 -0.0084 -0.0040  0.0064  0.0040 -0.0004 -0.0524
  13.  C 1 (d2)    -0.0007  0.0012  0.0067  0.0063  0.0002  0.0223  0.0135 -0.0092
  14.  C 1 (d3)     0.0006 -0.0008 -0.0037 -0.0045 -0.0001 -0.0144 -0.0166 -0.0371
  15.  C 1 (d5)     0.0000  0.0009  0.0065  0.0029  0.0002  0.0152 -0.0155 -0.0793
  16. Be 2 (s)     -0.0292 -0.9626  0.2308 -0.1451  0.1690  0.0083  0.0223 -0.0111
  17. Be 2 (s)      0.1428  0.0019 -0.0368  0.1388  0.0720 -0.0200 -0.0076  0.1227
  18. Be 2 (px)     0.0009 -0.0012 -0.0061 -0.0073 -0.0002 -0.0235 -0.0271 -0.2598
  19. Be 2 (py)     0.0000  0.0015  0.0106  0.0048  0.0004  0.0247 -0.0252  0.2558
  20. Be 2 (pz)     0.1228 -0.0183 -0.2561 -0.2094  0.0822  0.1440 -0.0061 -0.1675
  21. Be 2 (s)      0.1335  0.0332 -0.0259  0.1545  0.0897 -0.0299 -0.0075 -0.0176
  22. Be 2 (px)     0.0003 -0.0004 -0.0020 -0.0024  0.0000 -0.0077 -0.0089 -0.5076
  23. Be 2 (py)     0.0000  0.0005  0.0035  0.0016  0.0001  0.0081 -0.0082 -0.5388
  24. Be 2 (pz)     0.0169 -0.0050 -0.0732 -0.0879  0.0217  0.0478 -0.0006  0.1019
  25. Be 2 (d1)    -0.0082 -0.0006  0.0025 -0.0072  0.0000 -0.0005  0.0026 -0.1426
  26. Be 2 (d4)    -0.0081 -0.0005  0.0036 -0.0069  0.0001  0.0016 -0.0017  0.2769
  27. Be 2 (d6)     0.0429  0.0018 -0.0059  0.0531  0.0117 -0.0106 -0.0025 -0.0785
  28. Be 2 (d2)    -0.0001  0.0001  0.0007  0.0006  0.0000  0.0023  0.0014 -0.3421
  29. Be 2 (d3)     0.0002 -0.0003 -0.0016 -0.0019  0.0000 -0.0061 -0.0070 -0.3726
  30. Be 2 (d5)     0.0000  0.0004  0.0028  0.0012  0.0001  0.0064 -0.0065 -0.0021
  31.  H 3 (s)      0.0298 -0.0526 -0.0936 -0.0474 -0.1614 -0.2394 -0.0542 -0.0420
  32.  H 3 (s)     -0.0184 -0.0297 -0.0352 -0.0413 -0.0903 -0.2259 -0.0440  0.1444
  33.  H 4 (s)      0.0183 -0.0351 -0.0034  0.0508 -0.1591  0.0878  0.2526 -0.0318
  34.  H 4 (s)     -0.0284 -0.0146  0.0431  0.0439 -0.0882  0.0579  0.2221 -0.3631
  35.  H 5 (s)      0.0251 -0.0289  0.0595  0.0454 -0.1565  0.1657 -0.2049  0.0913
  36.  H 5 (s)     -0.0225 -0.0092  0.0975  0.0392 -0.0860  0.1254 -0.1747  0.2984
  37.  H 6 (s)      0.0544  0.0277  0.1187  0.2558  0.0129 -0.1059 -0.0035 -0.0871
  38.  H 6 (s)      0.0752  0.0295  0.1024  0.2608  0.0152 -0.1012 -0.0047 -0.0372

           AO          9      10      11      12      13      14      15      16
      ------------ ------- ------- ------- ------- ------- ------- ------- -------
   1.  C 1 (s)      0.0067 -0.0118 -0.0030  0.0796 -0.0037 -0.0131 -0.0253  0.0029
   2.  C 1 (s)     -0.0340  0.0573  0.0180 -0.3814  0.0316  0.1232  0.0102 -0.0031
   3.  C 1 (px)    -0.6004 -0.0517  0.0618  0.1699  0.0925 -0.2020 -0.1881  0.1630
   4.  C 1 (py)     0.0351 -0.3225  0.1515 -0.2898  0.1170  0.1917 -0.5451  0.1741
   5.  C 1 (pz)    -0.2570 -0.2702 -0.1276 -0.0929 -0.0708  0.3550  0.4227 -0.0804
   6.  C 1 (s)     -0.1270 -0.1493 -0.0665 -0.2439  0.0162 -0.0786  0.1530 -0.1176
   7.  C 1 (px)     0.6664  0.0575 -0.1710 -0.5070  0.0628  0.0573  0.0875  0.4849
   8.  C 1 (py)    -0.7814  0.0343  0.0007  0.7846 -0.1463 -0.4434  0.5288  0.2204
   9.  C 1 (pz)     0.0662  0.1225 -0.0477  0.0311  0.1010  0.3851 -0.2755  0.2937
  10.  C 1 (d1)    -0.0774 -0.2241  0.0034 -0.1711 -0.0958 -0.3949  0.3174 -0.3826
  11.  C 1 (d4)    -0.1050  0.2312 -0.0149 -0.0607 -0.0352  0.1419  0.2034  0.0259
  12.  C 1 (d6)    -0.1910 -0.0283  0.0292 -0.0508 -0.0257  0.1880 -0.0353  0.0138
  13.  C 1 (d2)    -0.0701 -0.2851 -0.0091  0.0342  0.0633 -0.0373 -0.0182  0.1621
  14.  C 1 (d3)     0.0012  0.0299 -0.3087  0.1178  0.1316 -0.2151 -0.0456 -0.3462
  15.  C 1 (d5)    -0.0576  0.1184  0.0755 -0.0058  0.3328  0.0237 -0.3094 -0.1268
  16. Be 2 (s)     -0.0340  0.0434  0.0196 -0.0483  0.0043 -0.0374 -0.0002  0.0174
  17. Be 2 (s)      0.0915 -0.0658 -0.0988  0.0255  0.0605  0.4440 -0.2040  0.0755
  18. Be 2 (px)     0.1691 -0.7160  0.5046 -0.0192 -0.2684 -0.0267 -0.0571 -0.1175
  19. Be 2 (py)    -0.1845  0.0138 -0.0997  0.2388 -0.2786  0.0128 -0.5289 -0.3632
  20. Be 2 (pz)    -0.0223  0.2100  0.0213  0.0434  0.0775  0.4308 -0.0507  0.3456
  21. Be 2 (s)      0.4817  0.2315  0.0937  0.3060  0.0799 -0.0604 -0.2381  0.1937
  22. Be 2 (px)    -0.3918  0.6871 -0.0862  0.2089 -0.2045  0.1805 -0.1903 -0.3739
  23. Be 2 (py)     0.5742 -0.1044 -0.2829 -0.5768 -0.0459 -0.0980  0.0743  0.6160
  24. Be 2 (pz)    -0.2452 -0.3491 -0.1229  0.1301 -0.0416 -0.0424  0.1433 -0.0434
  25. Be 2 (d1)     0.0232 -0.2466  0.0503  0.5369  0.0781  0.2828  0.3456  0.0454
  26. Be 2 (d4)    -0.3862 -0.3244 -0.3084 -0.3770 -0.1852  0.0936 -0.1949 -0.3076
  27. Be 2 (d6)    -0.1902  0.0524  0.0112 -0.0179 -0.0025 -0.1804  0.0935  0.1484
  28. Be 2 (d2)     0.0111 -0.1338 -0.5088  0.0094  0.3639  0.0062 -0.0301 -0.0866
  29. Be 2 (d3)    -0.0958 -0.0242  0.0265  0.0512  0.4862  0.0779 -0.1978 -0.3357
  30. Be 2 (d5)     0.1867 -0.1141  0.3759 -0.2148  0.4580 -0.0603  0.0592 -0.1120
  31.  H 3 (s)     -0.4276 -0.0485  0.0547  0.4476  0.0287 -0.0656 -0.1824  0.4180
  32.  H 3 (s)      0.3754 -0.1706  0.1233  0.2859 -0.0909 -0.3687  0.0036 -0.4043
  33.  H 4 (s)      0.0862 -0.2288 -0.0616  0.3304  0.0775 -0.5987 -0.3157 -0.1099
  34.  H 4 (s)     -0.1538  0.4312  0.1546 -0.1363  0.0563  0.2673 -0.2362  0.8024
  35.  H 5 (s)      0.2509  0.2076  0.0952 -0.0171 -0.0107 -0.1884 -0.1571 -0.1811
  36.  H 5 (s)      0.5113  0.1282 -0.1263  0.0982  0.0027  0.2321 -0.0113 -0.3283
  37.  H 6 (s)     -0.2114  0.1033  0.0870 -0.0701  0.0564 -0.0870  0.0349  0.1931
  38.  H 6 (s)     -0.1034 -0.0646 -0.0438 -0.1039 -0.0581  0.1058  0.1569 -0.0936

           AO         17      18      19      20      21      22      23      24
      ------------ ------- ------- ------- ------- ------- ------- ------- -------
   1.  C 1 (s)     -0.0081 -0.0646  0.0053  0.0472 -0.0016 -0.1819  0.0639 -0.0333
   2.  C 1 (s)      0.0239 -0.0878 -0.0249 -0.2118 -0.1148  0.7595 -0.9876  0.0678
   3.  C 1 (px)    -0.0301  0.1275 -0.0294  0.0544 -0.5524  0.0513  0.0327  0.0302
   4.  C 1 (py)     0.0421  0.1076 -0.1134 -0.4719  0.0106 -0.1714 -0.0011 -0.2930
   5.  C 1 (pz)    -0.1608 -0.2871  0.1074 -0.1643  0.5449 -0.1378 -0.3596 -0.0249
   6.  C 1 (s)     -0.0949  0.6896  0.0047 -0.2401  0.0996  1.3767  1.0949  0.0800
   7.  C 1 (px)    -0.1381  0.1198 -0.0642 -0.1578  1.2553 -0.6246 -0.0247  0.3330
   8.  C 1 (py)     0.1878  0.0225  0.2126  0.5637  0.5280  0.8849  0.2064  0.0475
   9.  C 1 (pz)    -0.0669  0.8993 -0.0864  0.0820  0.0014  0.3071  1.6773  0.2784
  10.  C 1 (d1)    -0.0047  0.0341  0.0560 -0.0930 -0.2247 -0.7887  0.3947 -0.2769
  11.  C 1 (d4)    -0.0166  0.0173 -0.0080  0.0181 -0.2200 -0.5894  0.2968  0.2198
  12.  C 1 (d6)     0.0135 -0.3753 -0.0011  0.0691 -0.3341 -0.4297  0.2861 -0.2090
  13.  C 1 (d2)    -0.0971 -0.1517  0.0787  0.4044 -0.1741  0.0258  0.0092  0.3363
  14.  C 1 (d3)     0.1483 -0.0051  0.1424 -0.3709  0.0594  0.0469 -0.0035  0.2530
  15.  C 1 (d5)    -0.3697  0.1256 -0.0566  0.0741  0.0612  0.0181  0.0040 -0.4312
  16. Be 2 (s)      0.0208  0.0295 -0.0115 -0.0151  0.0066 -0.0043 -0.1667  0.0176
  17. Be 2 (s)     -0.1708  0.7075 -0.0441  0.1096 -0.5378  1.5460  1.4531  0.1428
  18. Be 2 (px)     0.6773 -0.0708 -0.0463  0.0461 -0.0990  0.1036 -0.0205  0.0806
  19. Be 2 (py)    -0.1872 -0.1055 -0.1877 -0.5578  0.0135 -0.1056 -0.0055  0.5393
  20. Be 2 (pz)    -0.0583 -0.2885 -0.0304 -0.0242  0.8018  0.0174  0.4179  0.2257
  21. Be 2 (s)      0.0962  0.0443 -0.0544  0.1145 -0.0111 -1.6620  0.5367  0.0504
  22. Be 2 (px)    -0.5804  0.1063 -0.1126  0.1131 -0.1321 -0.0665  0.0103 -0.0848
  23. Be 2 (py)    -0.2838 -0.0304  0.2372  0.0677 -0.3088 -0.0339 -0.0403 -0.4233
  24. Be 2 (pz)    -0.0647  0.7308  0.0761 -0.0554  0.0434 -0.1245  2.9313 -0.1533
  25. Be 2 (d1)    -0.1320 -0.1281  0.0499 -0.4071 -0.1063 -0.3156 -0.9624 -0.2030
  26. Be 2 (d4)    -0.1166 -0.2056  0.0711  0.4109  0.2227 -0.4279 -0.8849 -0.0390
  27. Be 2 (d6)     0.0244  0.0074  0.0217 -0.0045  0.7866  0.0461 -1.3031  0.1147
  28. Be 2 (d2)     0.2994  0.0065 -0.5670  0.0457 -0.0036  0.0340  0.0015 -0.0547
  29. Be 2 (d3)     0.1493 -0.0393  0.6930 -0.0678 -0.1234  0.0486 -0.0023  0.1655
  30. Be 2 (d5)    -0.5980 -0.1276 -0.3954 -0.0807 -0.1161 -0.1013 -0.0299  0.2442
  31.  H 3 (s)     -0.0274 -0.5936 -0.0154  0.2679  0.0851 -0.1662  0.0146 -0.2941
  32.  H 3 (s)      0.1830 -0.2002  0.0289  0.1152 -0.3998  0.9997 -1.3294 -0.2537
  33.  H 4 (s)     -0.2702 -0.0752  0.0680  0.0018  0.3829  0.2109  0.0087 -0.1844
  34.  H 4 (s)      0.2046 -0.3377 -0.0511  0.0900  0.5049 -0.7267 -1.3609  0.3870
  35.  H 5 (s)      0.2099 -0.7452 -0.0101  0.0330 -0.0728 -0.0143 -0.0220 -0.1675
  36.  H 5 (s)     -0.0428  0.1054 -0.0653  0.1611 -0.3594 -0.8952 -1.5992  0.2177
  37.  H 6 (s)      0.0483  0.3355 -0.0402 -0.1735  0.2510 -0.6238 -0.4041  0.0084
  38.  H 6 (s)     -0.0005 -0.2985  0.0526 -0.0355  0.1276  0.8363  2.9332 -0.0317

           AO         25      26      27      28      29      30      31      32
      ------------ ------- ------- ------- ------- ------- ------- ------- -------
   1.  C 1 (s)      0.0079  0.0849 -0.0052  0.0218  0.0502 -0.0008 -0.1153  0.0086
   2.  C 1 (s)      0.3945 -0.3094 -0.0579 -0.1321 -0.4477  0.1892 -2.1466 -0.0701
   3.  C 1 (px)    -0.5300  0.0473 -0.1144 -0.0240 -0.1650  0.2363 -0.0082 -0.0350
   4.  C 1 (py)    -0.1520 -0.3665 -0.3251 -0.2889  0.0991 -0.0865 -0.0266 -0.2740
   5.  C 1 (pz)    -0.6593 -0.1632  0.1430 -0.0903  0.1218 -0.2593 -0.0425  0.0114
   6.  C 1 (s)     -0.3328 -0.3349 -0.0068 -0.0529  0.1232  0.0135  6.0133 -0.0873
   7.  C 1 (px)     1.4474  0.1891  0.1159 -0.1957 -0.3631 -1.0690  0.0540  0.0535
   8.  C 1 (py)     1.1539 -0.0809  0.2638  0.2403  0.5055 -0.0712  0.1180  0.2340
   9.  C 1 (pz)     0.2517  0.6632 -0.1675  0.0667 -0.0662  0.3725 -0.9951  0.1668
  10.  C 1 (d1)    -0.0536  0.1016  0.1491 -0.0099 -0.1797  0.1557 -0.1533 -0.0996
  11.  C 1 (d4)     0.2423 -0.1389  0.1942  0.0448  0.8458 -0.0988 -0.0845  0.0574
  12.  C 1 (d6)     0.3323  0.6770 -0.0378 -0.0148 -0.4022 -0.2506  0.3643  0.0821
  13.  C 1 (d2)    -0.0350 -0.0840  0.2664 -0.6660  0.1698  0.0971 -0.0053 -0.0653
  14.  C 1 (d3)     0.0162  0.0130 -0.4626 -0.3022 -0.0113 -0.0195  0.0019  0.5593
  15.  C 1 (d5)     0.0357 -0.1756  0.4945 -0.1339  0.0438 -0.0545 -0.0053  0.5200
  16. Be 2 (s)      0.0628 -0.0251  0.0106 -0.0040 -0.0162  0.1200 -0.0264 -0.0005
  17. Be 2 (s)      0.4017  0.5048 -0.1350  0.0810  0.2188 -0.2015 -1.2376  0.0792
  18. Be 2 (px)    -0.1549  0.0061  0.2109  0.1667  0.0338  0.1534 -0.0089  0.5591
  19. Be 2 (py)    -0.0556  0.0244  0.6633  0.2062 -0.1958 -0.0389 -0.0145 -0.1100
  20. Be 2 (pz)    -0.2099 -0.2163 -0.0234 -0.0634 -0.1998  0.9640 -1.0925  0.0988
  21. Be 2 (s)     -0.1382  0.5402 -0.0930 -0.0110 -0.3651 -0.3454 -0.4343  0.0611
  22. Be 2 (px)    -0.1012 -0.0651 -0.4723 -0.2764  0.1019  0.0055 -0.0090 -0.4395
  23. Be 2 (py)    -0.2520  0.1266 -0.4344 -0.0086  0.1567  0.1318  0.0012  0.2450
  24. Be 2 (pz)    -0.2555  1.2638  0.0105  0.0813  0.7232 -0.7420 -2.1600  0.0708
  25. Be 2 (d1)     0.2532 -0.1164  0.0955 -0.1767 -0.0512  0.5118  0.3651 -0.0895
  26. Be 2 (d4)     0.2509 -0.1960 -0.1781  0.2370  0.0425  0.5608  0.3776  0.1110
  27. Be 2 (d6)    -0.9212 -0.1215  0.0983 -0.0160  0.1838 -0.4678 -0.3175 -0.0052
  28. Be 2 (d2)    -0.0205  0.0079  0.0887  0.1168  0.0126  0.0278  0.0005 -0.1774
  29. Be 2 (d3)    -0.1250 -0.0503 -0.0822  0.2129  0.0910  0.1016 -0.0075 -0.0860
  30. Be 2 (d5)    -0.1640  0.0918 -0.1270  0.2294 -0.0097  0.0248 -0.0115  0.2344
  31.  H 3 (s)      0.2325 -0.2710 -0.0037  0.0726  0.2992 -0.1695 -0.2327  0.1037
  32.  H 3 (s)     -0.4141 -0.3277  0.1290  0.1486  0.4439  1.0085 -0.5653 -0.1325
  33.  H 4 (s)      0.0764  0.1477 -0.2483 -0.0050 -0.0901 -0.0267 -0.2058 -0.1952
  34.  H 4 (s)      1.3394 -0.3797 -0.0353 -0.0829 -0.0758 -0.7632 -0.5351  0.3379
  35.  H 5 (s)     -0.1023  0.9925 -0.0746  0.0032  0.1178  0.2169 -0.1757 -0.1593
  36.  H 5 (s)     -0.9034 -1.0768 -0.0133  0.0409 -0.9773  0.0848 -0.7738 -0.0822
  37.  H 6 (s)      0.3828  0.3515  0.0248 -0.0442 -0.0074  1.0130  0.3830  0.0446
  38.  H 6 (s)     -0.3185 -0.0207  0.0649 -0.0048  0.2926 -0.3802 -1.7412 -0.0039

           AO         33      34      35      36      37      38
      ------------ ------- ------- ------- ------- ------- -------
   1.  C 1 (s)      0.1395 -0.0075 -0.1517 -0.3023 -0.2828  0.0636
   2.  C 1 (s)     -0.7226  0.1105  0.8660  1.9828  1.3198 -0.3312
   3.  C 1 (px)    -0.1682  0.4967  0.0165  0.1053 -0.2317 -0.0072
   4.  C 1 (py)     0.3334 -0.0292  0.0492 -0.0578  0.1000 -0.0060
   5.  C 1 (pz)    -0.2669  0.0888 -0.0007  0.0391 -0.2012 -0.0897
   6.  C 1 (s)     -0.5518  0.1906  0.5833  1.2911  2.4685 -0.2589
   7.  C 1 (px)    -0.4285  0.6705  0.0812 -0.5432  0.4733  0.0053
   8.  C 1 (py)    -0.8348 -0.2291 -0.3269  0.6649 -1.1309  0.0372
   9.  C 1 (pz)     0.4716  0.0678 -1.4049  0.6060  0.8156  1.3014
  10.  C 1 (d1)     0.1191 -0.3105 -0.9473 -1.3039 -0.7339  0.2996
  11.  C 1 (d4)     0.7678  0.4378 -0.6503 -0.8972 -1.1214  0.2813
  12.  C 1 (d6)     0.8311 -0.2819  0.0567 -0.9792 -1.3754 -0.0977
  13.  C 1 (d2)     0.1060 -0.4311 -0.0190  0.0366  0.0592 -0.0020
  14.  C 1 (d3)     0.0312  0.1330  0.0041  0.0110 -0.0777  0.0014
  15.  C 1 (d5)     0.0847  0.0659  0.0313  0.0549 -0.0372 -0.0036
  16. Be 2 (s)      0.0253 -0.0105  0.0264 -0.0515 -0.0194  0.2740
  17. Be 2 (s)      0.5347  0.2800 -2.1505 -1.3489  0.4487 -6.1713
  18. Be 2 (px)     0.1840  0.1149 -0.0124  0.0678  0.0075  0.0030
  19. Be 2 (py)     0.1253 -0.0724  0.0326 -0.0639  0.1377 -0.0133
  20. Be 2 (pz)     0.0282  0.2364 -0.6798 -0.0952  0.0268  0.3674
  21. Be 2 (s)      0.3340 -0.1766 -1.3168  2.0790 -0.2624  1.0244
  22. Be 2 (px)    -0.1186 -0.3575 -0.0038 -0.0188  0.0340 -0.0061
  23. Be 2 (py)    -0.0973 -0.0074  0.0128 -0.0748  0.0541  0.0162
  24. Be 2 (pz)     0.2613 -0.2339  0.9119  0.2249  0.3401  1.4028
  25. Be 2 (d1)    -0.1619  0.0813  0.8903 -0.0391 -0.0278  2.4569
  26. Be 2 (d4)    -0.2814 -0.0309  0.8584  0.0739 -0.1456  2.3986
  27. Be 2 (d6)    -0.2166 -0.0523 -0.2206  0.3188  0.1502  3.0470
  28. Be 2 (d2)     0.0029 -0.0091 -0.0026  0.0237 -0.0376  0.0011
  29. Be 2 (d3)     0.0906 -0.2667 -0.0161  0.0443 -0.0026 -0.0004
  30. Be 2 (d5)     0.0321 -0.0735  0.0459 -0.0850  0.1276 -0.0013
  31.  H 3 (s)      0.5450 -0.5481  0.0166  0.0691  0.5692  0.0286
  32.  H 3 (s)     -0.5458 -0.4395  0.0249  0.0178 -2.2907 -0.6104
  33.  H 4 (s)      0.5083  0.9273  0.1603  0.2903 -0.1621  0.0432
  34.  H 4 (s)     -1.4946 -0.1871  0.0866 -1.2168 -0.6648 -0.6415
  35.  H 5 (s)     -0.5360 -0.0207 -0.1255 -0.0906  0.3244  0.0818
  36.  H 5 (s)      1.2134  0.1688  0.7004 -1.2002  0.0248 -0.7377
  37.  H 6 (s)      0.2593 -0.1322  0.1194  0.1660 -0.0963 -0.6362
  38.  H 6 (s)     -0.1851  0.0868  1.5115 -0.7511  0.2089  1.2849


 AO overlap matrix:

           AO          1       2       3       4       5       6       7       8
      ------------ ------- ------- ------- ------- ------- ------- ------- -------
   1.  C 1 (s)      1.0000  0.2191  0.0000  0.0000  0.0000  0.1843  0.0000  0.0000
   2.  C 1 (s)      0.2191  1.0000  0.0000  0.0000  0.0000  0.8123  0.0000  0.0000
   3.  C 1 (px)     0.0000  0.0000  1.0000  0.0000  0.0000  0.0000  0.5698  0.0000
   4.  C 1 (py)     0.0000  0.0000  0.0000  1.0000  0.0000  0.0000  0.0000  0.5698
   5.  C 1 (pz)     0.0000  0.0000  0.0000  0.0000  1.0000  0.0000  0.0000  0.0000
   6.  C 1 (s)      0.1843  0.8123  0.0000  0.0000  0.0000  1.0000  0.0000  0.0000
   7.  C 1 (px)     0.0000  0.0000  0.5698  0.0000  0.0000  0.0000  1.0000  0.0000
   8.  C 1 (py)     0.0000  0.0000  0.0000  0.5698  0.0000  0.0000  0.0000  1.0000
   9.  C 1 (pz)     0.0000  0.0000  0.0000  0.0000  0.5698  0.0000  0.0000  0.0000
  10.  C 1 (d1)     0.0791  0.7102  0.0000  0.0000  0.0000  0.6299  0.0000  0.0000
  11.  C 1 (d4)     0.0791  0.7102  0.0000  0.0000  0.0000  0.6299  0.0000  0.0000
  12.  C 1 (d6)     0.0791  0.7102  0.0000  0.0000  0.0000  0.6299  0.0000  0.0000
  13.  C 1 (d2)     0.0000  0.0000  0.0000  0.0000  0.0000  0.0000  0.0000  0.0000
  14.  C 1 (d3)     0.0000  0.0000  0.0000  0.0000  0.0000  0.0000  0.0000  0.0000
  15.  C 1 (d5)     0.0000  0.0000  0.0000  0.0000  0.0000  0.0000  0.0000  0.0000
  16. Be 2 (s)      0.0000  0.0099  0.0000  0.0000 -0.0230  0.0688  0.0000  0.0000
  17. Be 2 (s)      0.0307  0.2103  0.0000  0.0000 -0.2109  0.3973  0.0000  0.0000
  18. Be 2 (px)     0.0000  0.0000  0.1115  0.0000  0.0000  0.0000  0.3285  0.0000
  19. Be 2 (py)     0.0000  0.0000  0.0000  0.1115  0.0000  0.0000  0.0000  0.3285
  20. Be 2 (pz)     0.0598  0.3370  0.0000  0.0000 -0.2811  0.4310  0.0000  0.0000
  21. Be 2 (s)      0.0485  0.2831  0.0000  0.0000 -0.1371  0.5173  0.0000  0.0000
  22. Be 2 (px)     0.0000  0.0000  0.1496  0.0000  0.0000  0.0000  0.4857  0.0000
  23. Be 2 (py)     0.0000  0.0000  0.0000  0.1496  0.0000  0.0000  0.0000  0.4857
  24. Be 2 (pz)     0.0872  0.4467  0.0000  0.0000 -0.0710  0.6373  0.0000  0.0000
  25. Be 2 (d1)     0.0007  0.0515  0.0000  0.0000 -0.0702  0.2112  0.0000  0.0000
  26. Be 2 (d4)     0.0007  0.0515  0.0000  0.0000 -0.0702  0.2112  0.0000  0.0000
  27. Be 2 (d6)     0.0618  0.3565  0.0000  0.0000 -0.3726  0.4271  0.0000  0.0000
  28. Be 2 (d2)     0.0000  0.0000  0.0000  0.0000  0.0000  0.0000  0.0000  0.0000
  29. Be 2 (d3)     0.0000  0.0000  0.1790  0.0000  0.0000  0.0000  0.2849  0.0000
  30. Be 2 (d5)     0.0000  0.0000  0.0000  0.1790  0.0000  0.0000  0.0000  0.2849
  31.  H 3 (s)      0.0335  0.2770  0.2801 -0.2032  0.1385  0.3792  0.3873 -0.2810
  32.  H 3 (s)      0.0928  0.4785  0.1998 -0.1449  0.0988  0.7069  0.4372 -0.3172
  33.  H 4 (s)      0.0335  0.2770 -0.3160 -0.1410  0.1385  0.3792 -0.4370 -0.1949
  34.  H 4 (s)      0.0928  0.4785 -0.2254 -0.1006  0.0988  0.7069 -0.4933 -0.2200
  35.  H 5 (s)      0.0335  0.2770  0.0359  0.3442  0.1385  0.3792  0.0497  0.4759
  36.  H 5 (s)      0.0928  0.4785  0.0256  0.2455  0.0988  0.7069  0.0561  0.5372
  37.  H 6 (s)      0.0000  0.0001  0.0000  0.0000 -0.0002  0.0091  0.0000  0.0000
  38.  H 6 (s)      0.0013  0.0163  0.0000  0.0000 -0.0224  0.0729  0.0000  0.0000

           AO          9      10      11      12      13      14      15      16
      ------------ ------- ------- ------- ------- ------- ------- ------- -------
   1.  C 1 (s)      0.0000  0.0791  0.0791  0.0791  0.0000  0.0000  0.0000  0.0000
   2.  C 1 (s)      0.0000  0.7102  0.7102  0.7102  0.0000  0.0000  0.0000  0.0099
   3.  C 1 (px)     0.0000  0.0000  0.0000  0.0000  0.0000  0.0000  0.0000  0.0000
   4.  C 1 (py)     0.0000  0.0000  0.0000  0.0000  0.0000  0.0000  0.0000  0.0000
   5.  C 1 (pz)     0.5698  0.0000  0.0000  0.0000  0.0000  0.0000  0.0000 -0.0230
   6.  C 1 (s)      0.0000  0.6299  0.6299  0.6299  0.0000  0.0000  0.0000  0.0688
   7.  C 1 (px)     0.0000  0.0000  0.0000  0.0000  0.0000  0.0000  0.0000  0.0000
   8.  C 1 (py)     0.0000  0.0000  0.0000  0.0000  0.0000  0.0000  0.0000  0.0000
   9.  C 1 (pz)     1.0000  0.0000  0.0000  0.0000  0.0000  0.0000  0.0000 -0.1654
  10.  C 1 (d1)     0.0000  1.0000  0.3333  0.3333  0.0000  0.0000  0.0000  0.0011
  11.  C 1 (d4)     0.0000  0.3333  1.0000  0.3333  0.0000  0.0000  0.0000  0.0011
  12.  C 1 (d6)     0.0000  0.3333  0.3333  1.0000  0.0000  0.0000  0.0000  0.0226
  13.  C 1 (d2)     0.0000  0.0000  0.0000  0.0000  1.0000  0.0000  0.0000  0.0000
  14.  C 1 (d3)     0.0000  0.0000  0.0000  0.0000  0.0000  1.0000  0.0000  0.0000
  15.  C 1 (d5)     0.0000  0.0000  0.0000  0.0000  0.0000  0.0000  1.0000  0.0000
  16. Be 2 (s)     -0.1654  0.0011  0.0011  0.0226  0.0000  0.0000  0.0000  1.0000
  17. Be 2 (s)     -0.5585  0.1352  0.1352  0.2477  0.0000  0.0000  0.0000  0.1907
  18. Be 2 (px)     0.0000  0.0000  0.0000  0.0000  0.0000 -0.1174  0.0000  0.0000
  19. Be 2 (py)     0.0000  0.0000  0.0000  0.0000  0.0000  0.0000 -0.1174  0.0000
  20. Be 2 (pz)    -0.3427  0.2254  0.2254  0.3649  0.0000  0.0000  0.0000  0.0000
  21. Be 2 (s)     -0.4451  0.2168  0.2168  0.2508  0.0000  0.0000  0.0000  0.2079
  22. Be 2 (px)     0.0000  0.0000  0.0000  0.0000  0.0000 -0.0642  0.0000  0.0000
  23. Be 2 (py)     0.0000  0.0000  0.0000  0.0000  0.0000  0.0000 -0.0642  0.0000
  24. Be 2 (pz)    -0.0628  0.3604  0.3604  0.3427  0.0000  0.0000  0.0000  0.0000
  25. Be 2 (d1)    -0.3899  0.0535  0.0178  0.0664  0.0000  0.0000  0.0000  0.1026
  26. Be 2 (d4)    -0.3899  0.0178  0.0535  0.0664  0.0000  0.0000  0.0000  0.1026
  27. Be 2 (d6)    -0.4594  0.2120  0.2120  0.4364  0.0000  0.0000  0.0000  0.1026
  28. Be 2 (d2)     0.0000  0.0000  0.0000  0.0000  0.0535  0.0000  0.0000  0.0000
  29. Be 2 (d3)     0.0000  0.0000  0.0000  0.0000  0.0000 -0.2378  0.0000  0.0000
  30. Be 2 (d5)     0.0000  0.0000  0.0000  0.0000  0.0000  0.0000 -0.2378  0.0000
  31.  H 3 (s)      0.1915  0.3119  0.2207  0.1664 -0.2419  0.1648 -0.1195  0.0001
  32.  H 3 (s)      0.2161  0.3986  0.3771  0.3643 -0.0570  0.0388 -0.0282  0.0186
  33.  H 4 (s)      0.1915  0.3644  0.1681  0.1664  0.1893 -0.1859 -0.0829  0.0001
  34.  H 4 (s)      0.2161  0.4110  0.3647  0.3643  0.0446 -0.0438 -0.0195  0.0186
  35.  H 5 (s)      0.1915  0.1226  0.4100  0.1664  0.0525  0.0211  0.2025  0.0001
  36.  H 5 (s)      0.2161  0.3540  0.4217  0.3643  0.0124  0.0050  0.0477  0.0186
  37.  H 6 (s)     -0.0336  0.0000  0.0000  0.0001  0.0000  0.0000  0.0000  0.0318
  38.  H 6 (s)     -0.1650  0.0088  0.0088  0.0238  0.0000  0.0000  0.0000  0.1340

           AO         17      18      19      20      21      22      23      24
      ------------ ------- ------- ------- ------- ------- ------- ------- -------
   1.  C 1 (s)      0.0307  0.0000  0.0000  0.0598  0.0485  0.0000  0.0000  0.0872
   2.  C 1 (s)      0.2103  0.0000  0.0000  0.3370  0.2831  0.0000  0.0000  0.4467
   3.  C 1 (px)     0.0000  0.1115  0.0000  0.0000  0.0000  0.1496  0.0000  0.0000
   4.  C 1 (py)     0.0000  0.0000  0.1115  0.0000  0.0000  0.0000  0.1496  0.0000
   5.  C 1 (pz)    -0.2109  0.0000  0.0000 -0.2811 -0.1371  0.0000  0.0000 -0.0710
   6.  C 1 (s)      0.3973  0.0000  0.0000  0.4310  0.5173  0.0000  0.0000  0.6373
   7.  C 1 (px)     0.0000  0.3285  0.0000  0.0000  0.0000  0.4857  0.0000  0.0000
   8.  C 1 (py)     0.0000  0.0000  0.3285  0.0000  0.0000  0.0000  0.4857  0.0000
   9.  C 1 (pz)    -0.5585  0.0000  0.0000 -0.3427 -0.4451  0.0000  0.0000 -0.0628
  10.  C 1 (d1)     0.1352  0.0000  0.0000  0.2254  0.2168  0.0000  0.0000  0.3604
  11.  C 1 (d4)     0.1352  0.0000  0.0000  0.2254  0.2168  0.0000  0.0000  0.3604
  12.  C 1 (d6)     0.2477  0.0000  0.0000  0.3649  0.2508  0.0000  0.0000  0.3427
  13.  C 1 (d2)     0.0000  0.0000  0.0000  0.0000  0.0000  0.0000  0.0000  0.0000
  14.  C 1 (d3)     0.0000 -0.1174  0.0000  0.0000  0.0000 -0.0642  0.0000  0.0000
  15.  C 1 (d5)     0.0000  0.0000 -0.1174  0.0000  0.0000  0.0000 -0.0642  0.0000
  16. Be 2 (s)      0.1907  0.0000  0.0000  0.0000  0.2079  0.0000  0.0000  0.0000
  17. Be 2 (s)      1.0000  0.0000  0.0000  0.0000  0.8713  0.0000  0.0000  0.0000
  18. Be 2 (px)     0.0000  1.0000  0.0000  0.0000  0.0000  0.6691  0.0000  0.0000
  19. Be 2 (py)     0.0000  0.0000  1.0000  0.0000  0.0000  0.0000  0.6691  0.0000
  20. Be 2 (pz)     0.0000  0.0000  0.0000  1.0000  0.0000  0.0000  0.0000  0.6691
  21. Be 2 (s)      0.8713  0.0000  0.0000  0.0000  1.0000  0.0000  0.0000  0.0000
  22. Be 2 (px)     0.0000  0.6691  0.0000  0.0000  0.0000  1.0000  0.0000  0.0000
  23. Be 2 (py)     0.0000  0.0000  0.6691  0.0000  0.0000  0.0000  1.0000  0.0000
  24. Be 2 (pz)     0.0000  0.0000  0.0000  0.6691  0.0000  0.0000  0.0000  1.0000
  25. Be 2 (d1)     0.7346  0.0000  0.0000  0.0000  0.6250  0.0000  0.0000  0.0000
  26. Be 2 (d4)     0.7346  0.0000  0.0000  0.0000  0.6250  0.0000  0.0000  0.0000
  27. Be 2 (d6)     0.7346  0.0000  0.0000  0.0000  0.6250  0.0000  0.0000  0.0000
  28. Be 2 (d2)     0.0000  0.0000  0.0000  0.0000  0.0000  0.0000  0.0000  0.0000
  29. Be 2 (d3)     0.0000  0.0000  0.0000  0.0000  0.0000  0.0000  0.0000  0.0000
  30. Be 2 (d5)     0.0000  0.0000  0.0000  0.0000  0.0000  0.0000  0.0000  0.0000
  31.  H 3 (s)      0.0354  0.0264 -0.0191  0.0677  0.1110  0.0877 -0.0636  0.2252
  32.  H 3 (s)      0.1805  0.0859 -0.0623  0.2207  0.3219  0.1884 -0.1367  0.4838
  33.  H 4 (s)      0.0354 -0.0297 -0.0133  0.0677  0.1110 -0.0990 -0.0441  0.2252
  34.  H 4 (s)      0.1805 -0.0970 -0.0433  0.2207  0.3219 -0.2125 -0.0948  0.4838
  35.  H 5 (s)      0.0354  0.0034  0.0324  0.0677  0.1110  0.0112  0.1078  0.2252
  36.  H 5 (s)      0.1805  0.0110  0.1056  0.2207  0.3219  0.0242  0.2315  0.4838
  37.  H 6 (s)      0.3015  0.0000  0.0000 -0.4432  0.2959  0.0000  0.0000 -0.3705
  38.  H 6 (s)      0.5878  0.0000  0.0000 -0.4959  0.6652  0.0000  0.0000 -0.6166

           AO         25      26      27      28      29      30      31      32
      ------------ ------- ------- ------- ------- ------- ------- ------- -------
   1.  C 1 (s)      0.0007  0.0007  0.0618  0.0000  0.0000  0.0000  0.0335  0.0928
   2.  C 1 (s)      0.0515  0.0515  0.3565  0.0000  0.0000  0.0000  0.2770  0.4785
   3.  C 1 (px)     0.0000  0.0000  0.0000  0.0000  0.1790  0.0000  0.2801  0.1998
   4.  C 1 (py)     0.0000  0.0000  0.0000  0.0000  0.0000  0.1790 -0.2032 -0.1449
   5.  C 1 (pz)    -0.0702 -0.0702 -0.3726  0.0000  0.0000  0.0000  0.1385  0.0988
   6.  C 1 (s)      0.2112  0.2112  0.4271  0.0000  0.0000  0.0000  0.3792  0.7069
   7.  C 1 (px)     0.0000  0.0000  0.0000  0.0000  0.2849  0.0000  0.3873  0.4372
   8.  C 1 (py)     0.0000  0.0000  0.0000  0.0000  0.0000  0.2849 -0.2810 -0.3172
   9.  C 1 (pz)    -0.3899 -0.3899 -0.4594  0.0000  0.0000  0.0000  0.1915  0.2161
  10.  C 1 (d1)     0.0535  0.0178  0.2120  0.0000  0.0000  0.0000  0.3119  0.3986
  11.  C 1 (d4)     0.0178  0.0535  0.2120  0.0000  0.0000  0.0000  0.2207  0.3771
  12.  C 1 (d6)     0.0664  0.0664  0.4364  0.0000  0.0000  0.0000  0.1664  0.3643
  13.  C 1 (d2)     0.0000  0.0000  0.0000  0.0535  0.0000  0.0000 -0.2419 -0.0570
  14.  C 1 (d3)     0.0000  0.0000  0.0000  0.0000 -0.2378  0.0000  0.1648  0.0388
  15.  C 1 (d5)     0.0000  0.0000  0.0000  0.0000  0.0000 -0.2378 -0.1195 -0.0282
  16. Be 2 (s)      0.1026  0.1026  0.1026  0.0000  0.0000  0.0000  0.0001  0.0186
  17. Be 2 (s)      0.7346  0.7346  0.7346  0.0000  0.0000  0.0000  0.0354  0.1805
  18. Be 2 (px)     0.0000  0.0000  0.0000  0.0000  0.0000  0.0000  0.0264  0.0859
  19. Be 2 (py)     0.0000  0.0000  0.0000  0.0000  0.0000  0.0000 -0.0191 -0.0623
  20. Be 2 (pz)     0.0000  0.0000  0.0000  0.0000  0.0000  0.0000  0.0677  0.2207
  21. Be 2 (s)      0.6250  0.6250  0.6250  0.0000  0.0000  0.0000  0.1110  0.3219
  22. Be 2 (px)     0.0000  0.0000  0.0000  0.0000  0.0000  0.0000  0.0877  0.1884
  23. Be 2 (py)     0.0000  0.0000  0.0000  0.0000  0.0000  0.0000 -0.0636 -0.1367
  24. Be 2 (pz)     0.0000  0.0000  0.0000  0.0000  0.0000  0.0000  0.2252  0.4838
  25. Be 2 (d1)     1.0000  0.3333  0.3333  0.0000  0.0000  0.0000  0.0089  0.0943
  26. Be 2 (d4)     0.3333  1.0000  0.3333  0.0000  0.0000  0.0000  0.0061  0.0863
  27. Be 2 (d6)     0.3333  0.3333  1.0000  0.0000  0.0000  0.0000  0.0419  0.1895
  28. Be 2 (d2)     0.0000  0.0000  0.0000  1.0000  0.0000  0.0000 -0.0074 -0.0214
  29. Be 2 (d3)     0.0000  0.0000  0.0000  0.0000  1.0000  0.0000  0.0262  0.0757
  30. Be 2 (d5)     0.0000  0.0000  0.0000  0.0000  0.0000  1.0000 -0.0190 -0.0549
  31.  H 3 (s)      0.0089  0.0061  0.0419 -0.0074  0.0262 -0.0190  1.0000  0.6583
  32.  H 3 (s)      0.0943  0.0863  0.1895 -0.0214  0.0757 -0.0549  0.6583  1.0000
  33.  H 4 (s)      0.0105  0.0045  0.0419  0.0058 -0.0296 -0.0132  0.0214  0.1582
  34.  H 4 (s)      0.0990  0.0816  0.1895  0.0167 -0.0854 -0.0381  0.1582  0.4164
  35.  H 5 (s)      0.0031  0.0119  0.0419  0.0016  0.0034  0.0322  0.0214  0.1582
  36.  H 5 (s)      0.0776  0.1030  0.1895  0.0046  0.0097  0.0930  0.1582  0.4164
  37.  H 6 (s)      0.0824  0.0824  0.5266  0.0000  0.0000  0.0000  0.0000  0.0020
  38.  H 6 (s)      0.3575  0.3575  0.5547  0.0000  0.0000  0.0000  0.0020  0.0276

           AO         33      34      35      36      37      38
      ------------ ------- ------- ------- ------- ------- -------
   1.  C 1 (s)      0.0335  0.0928  0.0335  0.0928  0.0000  0.0013
   2.  C 1 (s)      0.2770  0.4785  0.2770  0.4785  0.0001  0.0163
   3.  C 1 (px)    -0.3160 -0.2254  0.0359  0.0256  0.0000  0.0000
   4.  C 1 (py)    -0.1410 -0.1006  0.3442  0.2455  0.0000  0.0000
   5.  C 1 (pz)     0.1385  0.0988  0.1385  0.0988 -0.0002 -0.0224
   6.  C 1 (s)      0.3792  0.7069  0.3792  0.7069  0.0091  0.0729
   7.  C 1 (px)    -0.4370 -0.4933  0.0497  0.0561  0.0000  0.0000
   8.  C 1 (py)    -0.1949 -0.2200  0.4759  0.5372  0.0000  0.0000
   9.  C 1 (pz)     0.1915  0.2161  0.1915  0.2161 -0.0336 -0.1650
  10.  C 1 (d1)     0.3644  0.4110  0.1226  0.3540  0.0000  0.0088
  11.  C 1 (d4)     0.1681  0.3647  0.4100  0.4217  0.0000  0.0088
  12.  C 1 (d6)     0.1664  0.3643  0.1664  0.3643  0.0001  0.0238
  13.  C 1 (d2)     0.1893  0.0446  0.0525  0.0124  0.0000  0.0000
  14.  C 1 (d3)    -0.1859 -0.0438  0.0211  0.0050  0.0000  0.0000
  15.  C 1 (d5)    -0.0829 -0.0195  0.2025  0.0477  0.0000  0.0000
  16. Be 2 (s)      0.0001  0.0186  0.0001  0.0186  0.0318  0.1340
  17. Be 2 (s)      0.0354  0.1805  0.0354  0.1805  0.3015  0.5878
  18. Be 2 (px)    -0.0297 -0.0970  0.0034  0.0110  0.0000  0.0000
  19. Be 2 (py)    -0.0133 -0.0433  0.0324  0.1056  0.0000  0.0000
  20. Be 2 (pz)     0.0677  0.2207  0.0677  0.2207 -0.4432 -0.4959
  21. Be 2 (s)      0.1110  0.3219  0.1110  0.3219  0.2959  0.6652
  22. Be 2 (px)    -0.0990 -0.2125  0.0112  0.0242  0.0000  0.0000
  23. Be 2 (py)    -0.0441 -0.0948  0.1078  0.2315  0.0000  0.0000
  24. Be 2 (pz)     0.2252  0.4838  0.2252  0.4838 -0.3705 -0.6166
  25. Be 2 (d1)     0.0105  0.0990  0.0031  0.0776  0.0824  0.3575
  26. Be 2 (d4)     0.0045  0.0816  0.0119  0.1030  0.0824  0.3575
  27. Be 2 (d6)     0.0419  0.1895  0.0419  0.1895  0.5266  0.5547
  28. Be 2 (d2)     0.0058  0.0167  0.0016  0.0046  0.0000  0.0000
  29. Be 2 (d3)    -0.0296 -0.0854  0.0034  0.0097  0.0000  0.0000
  30. Be 2 (d5)    -0.0132 -0.0381  0.0322  0.0930  0.0000  0.0000
  31.  H 3 (s)      0.0214  0.1582  0.0214  0.1582  0.0000  0.0020
  32.  H 3 (s)      0.1582  0.4164  0.1582  0.4164  0.0020  0.0276
  33.  H 4 (s)      1.0000  0.6583  0.0214  0.1582  0.0000  0.0020
  34.  H 4 (s)      0.6583  1.0000  0.1582  0.4164  0.0020  0.0276
  35.  H 5 (s)      0.0214  0.1582  1.0000  0.6583  0.0000  0.0020
  36.  H 5 (s)      0.1582  0.4164  0.6583  1.0000  0.0020  0.0276
  37.  H 6 (s)      0.0000  0.0020  0.0000  0.0020  1.0000  0.6583
  38.  H 6 (s)      0.0020  0.0276  0.0020  0.0276  0.6583  1.0000


 AO bond-order matrix:

           AO          1       2       3       4       5       6       7       8
      ------------ ------- ------- ------- ------- ------- ------- ------- -------
   1.  C 1 (s)      2.0585 -0.0815  0.0000  0.0000  0.0078 -0.1606  0.0000  0.0000
   2.  C 1 (s)     -0.0815  0.2532  0.0000  0.0000 -0.0152  0.2443  0.0000  0.0000
   3.  C 1 (px)     0.0000  0.0000  0.3530  0.0000  0.0000  0.0000  0.1950  0.0000
   4.  C 1 (py)     0.0000  0.0000  0.0000  0.3530  0.0000  0.0000  0.0000  0.1950
   5.  C 1 (pz)     0.0078 -0.0152  0.0000  0.0000  0.4143 -0.0313  0.0000  0.0000
   6.  C 1 (s)     -0.1606  0.2443  0.0000  0.0000 -0.0313  0.2433  0.0000  0.0000
   7.  C 1 (px)     0.0000  0.0000  0.1950  0.0000  0.0000  0.0000  0.1077  0.0000
   8.  C 1 (py)     0.0000  0.0000  0.0000  0.1950  0.0000  0.0000  0.0000  0.1077
   9.  C 1 (pz)     0.0045 -0.0101  0.0000  0.0000  0.2578 -0.0227  0.0000  0.0000
  10.  C 1 (d1)    -0.0087  0.0088 -0.0062 -0.0192  0.0072  0.0083 -0.0034 -0.0106
  11.  C 1 (d4)    -0.0087  0.0088  0.0062  0.0192  0.0072  0.0083  0.0034  0.0106
  12.  C 1 (d6)    -0.0045  0.0013  0.0000  0.0000 -0.0097  0.0013  0.0000  0.0000
  13.  C 1 (d2)     0.0000  0.0000 -0.0221  0.0071  0.0000  0.0000 -0.0122  0.0039
  14.  C 1 (d3)     0.0000  0.0000  0.0192  0.0000  0.0000  0.0000  0.0106  0.0000
  15.  C 1 (d5)     0.0000  0.0000  0.0000  0.0192  0.0000  0.0000  0.0000  0.0106
  16. Be 2 (s)      0.0218 -0.0388  0.0000  0.0000  0.1034 -0.0597  0.0000  0.0000
  17. Be 2 (s)     -0.0227  0.0454  0.0000  0.0000 -0.1223  0.0624  0.0000  0.0000
  18. Be 2 (px)     0.0000  0.0000  0.0312  0.0000  0.0000  0.0000  0.0173  0.0000
  19. Be 2 (py)     0.0000  0.0000  0.0000  0.0312  0.0000  0.0000  0.0000  0.0173
  20. Be 2 (pz)    -0.0482  0.0955  0.0000  0.0000 -0.2390  0.0797  0.0000  0.0000
  21. Be 2 (s)     -0.0136  0.0260  0.0000  0.0000 -0.1264  0.0458  0.0000  0.0000
  22. Be 2 (px)     0.0000  0.0000  0.0102  0.0000  0.0000  0.0000  0.0056  0.0000
  23. Be 2 (py)     0.0000  0.0000  0.0000  0.0102  0.0000  0.0000  0.0000  0.0056
  24. Be 2 (pz)    -0.0067  0.0193  0.0000  0.0000 -0.0602  0.0119  0.0000  0.0000
  25. Be 2 (d1)     0.0024 -0.0047 -0.0006 -0.0020  0.0049 -0.0054 -0.0004 -0.0011
  26. Be 2 (d4)     0.0024 -0.0047  0.0006  0.0020  0.0049 -0.0054  0.0004  0.0011
  27. Be 2 (d6)    -0.0108  0.0167  0.0000  0.0000 -0.0275  0.0224  0.0000  0.0000
  28. Be 2 (d2)     0.0000  0.0000 -0.0023  0.0007  0.0000  0.0000 -0.0013  0.0004
  29. Be 2 (d3)     0.0000  0.0000  0.0081  0.0000  0.0000  0.0000  0.0045  0.0000
  30. Be 2 (d5)     0.0000  0.0000  0.0000  0.0081  0.0000  0.0000  0.0000  0.0045
  31.  H 3 (s)     -0.0511  0.0927  0.1840 -0.1334  0.0888  0.0864  0.1016 -0.0737
  32.  H 3 (s)     -0.0077  0.0214  0.1595 -0.1157  0.0860  0.0182  0.0881 -0.0639
  33.  H 4 (s)     -0.0511  0.0927 -0.2075 -0.0926  0.0888  0.0864 -0.1146 -0.0511
  34.  H 4 (s)     -0.0077  0.0214 -0.1800 -0.0803  0.0860  0.0182 -0.0994 -0.0444
  35.  H 5 (s)     -0.0511  0.0927  0.0236  0.2260  0.0888  0.0864  0.0130  0.1249
  36.  H 5 (s)     -0.0077  0.0214  0.0205  0.1960  0.0860  0.0182  0.0113  0.1083
  37.  H 6 (s)      0.0070 -0.0167  0.0000  0.0000  0.0331  0.0087  0.0000  0.0000
  38.  H 6 (s)      0.0012 -0.0035  0.0000  0.0000  0.0144  0.0226  0.0000  0.0000

           AO          9      10      11      12      13      14      15      16
      ------------ ------- ------- ------- ------- ------- ------- ------- -------
   1.  C 1 (s)      0.0045 -0.0087 -0.0087 -0.0045  0.0000  0.0000  0.0000  0.0218
   2.  C 1 (s)     -0.0101  0.0088  0.0088  0.0013  0.0000  0.0000  0.0000 -0.0388
   3.  C 1 (px)     0.0000 -0.0062  0.0062  0.0000 -0.0221  0.0192  0.0000  0.0000
   4.  C 1 (py)     0.0000 -0.0192  0.0192  0.0000  0.0071  0.0000  0.0192  0.0000
   5.  C 1 (pz)     0.2578  0.0072  0.0072 -0.0097  0.0000  0.0000  0.0000  0.1034
   6.  C 1 (s)     -0.0227  0.0083  0.0083  0.0013  0.0000  0.0000  0.0000 -0.0597
   7.  C 1 (px)     0.0000 -0.0034  0.0034  0.0000 -0.0122  0.0106  0.0000  0.0000
   8.  C 1 (py)     0.0000 -0.0106  0.0106  0.0000  0.0039  0.0000  0.0106  0.0000
   9.  C 1 (pz)     0.1622  0.0045  0.0045 -0.0057  0.0000  0.0000  0.0000  0.0723
  10.  C 1 (d1)     0.0045  0.0016 -0.0007 -0.0001  0.0000 -0.0003 -0.0010  0.0004
  11.  C 1 (d4)     0.0045 -0.0007  0.0016 -0.0001  0.0000  0.0003  0.0010  0.0004
  12.  C 1 (d6)    -0.0057 -0.0001 -0.0001  0.0003  0.0000  0.0000  0.0000  0.0008
  13.  C 1 (d2)     0.0000  0.0000  0.0000  0.0000  0.0015 -0.0012  0.0004  0.0000
  14.  C 1 (d3)     0.0000 -0.0003  0.0003  0.0000 -0.0012  0.0010  0.0000  0.0000
  15.  C 1 (d5)     0.0000 -0.0010  0.0010  0.0000  0.0004  0.0000  0.0010  0.0000
  16. Be 2 (s)      0.0723  0.0004  0.0004  0.0008  0.0000  0.0000  0.0000  2.0618
  17. Be 2 (s)     -0.0857 -0.0008 -0.0008  0.0012  0.0000  0.0000  0.0000 -0.0455
  18. Be 2 (px)     0.0000 -0.0005  0.0005  0.0000 -0.0020  0.0017  0.0000  0.0000
  19. Be 2 (py)     0.0000 -0.0017  0.0017  0.0000  0.0006  0.0000  0.0017  0.0000
  20. Be 2 (pz)    -0.1333 -0.0007 -0.0007  0.0090  0.0000  0.0000  0.0000  0.0004
  21. Be 2 (s)     -0.0895 -0.0016 -0.0016  0.0009  0.0000  0.0000  0.0000 -0.0990
  22. Be 2 (px)     0.0000 -0.0002  0.0002  0.0000 -0.0006  0.0006  0.0000  0.0000
  23. Be 2 (py)     0.0000 -0.0006  0.0006  0.0000  0.0002  0.0000  0.0006  0.0000
  24. Be 2 (pz)    -0.0312 -0.0003 -0.0003  0.0027  0.0000  0.0000  0.0000  0.0084
  25. Be 2 (d1)     0.0035  0.0000 -0.0002  0.0000  0.0000  0.0000 -0.0001  0.0051
  26. Be 2 (d4)     0.0035 -0.0002  0.0000  0.0000  0.0000  0.0000  0.0001  0.0051
  27. Be 2 (d6)    -0.0207  0.0000  0.0000  0.0000  0.0000  0.0000  0.0000 -0.0204
  28. Be 2 (d2)     0.0000  0.0000  0.0000  0.0000  0.0002 -0.0001  0.0000  0.0000
  29. Be 2 (d3)     0.0000 -0.0001  0.0001  0.0000 -0.0005  0.0004  0.0000  0.0000
  30. Be 2 (d5)     0.0000 -0.0004  0.0004  0.0000  0.0002  0.0000  0.0004  0.0000
  31.  H 3 (s)      0.0550  0.0091  0.0010 -0.0017 -0.0142  0.0100 -0.0072  0.0092
  32.  H 3 (s)      0.0527  0.0058 -0.0011 -0.0021 -0.0124  0.0087 -0.0063  0.0179
  33.  H 4 (s)      0.0550  0.0137 -0.0036 -0.0017  0.0111 -0.0113 -0.0050  0.0092
  34.  H 4 (s)      0.0527  0.0099 -0.0052 -0.0021  0.0097 -0.0098 -0.0044  0.0179
  35.  H 5 (s)      0.0550 -0.0077  0.0177 -0.0017  0.0031  0.0013  0.0123  0.0092
  36.  H 5 (s)      0.0527 -0.0087  0.0134 -0.0021  0.0027  0.0011  0.0106  0.0179
  37.  H 6 (s)      0.0024 -0.0003 -0.0003 -0.0044  0.0000  0.0000  0.0000 -0.0736
  38.  H 6 (s)     -0.0095 -0.0002 -0.0002 -0.0040  0.0000  0.0000  0.0000 -0.0865

           AO         17      18      19      20      21      22      23      24
      ------------ ------- ------- ------- ------- ------- ------- ------- -------
   1.  C 1 (s)     -0.0227  0.0000  0.0000 -0.0482 -0.0136  0.0000  0.0000 -0.0067
   2.  C 1 (s)      0.0454  0.0000  0.0000  0.0955  0.0260  0.0000  0.0000  0.0193
   3.  C 1 (px)     0.0000  0.0312  0.0000  0.0000  0.0000  0.0102  0.0000  0.0000
   4.  C 1 (py)     0.0000  0.0000  0.0312  0.0000  0.0000  0.0000  0.0102  0.0000
   5.  C 1 (pz)    -0.1223  0.0000  0.0000 -0.2390 -0.1264  0.0000  0.0000 -0.0602
   6.  C 1 (s)      0.0624  0.0000  0.0000  0.0797  0.0458  0.0000  0.0000  0.0119
   7.  C 1 (px)     0.0000  0.0173  0.0000  0.0000  0.0000  0.0056  0.0000  0.0000
   8.  C 1 (py)     0.0000  0.0000  0.0173  0.0000  0.0000  0.0000  0.0056  0.0000
   9.  C 1 (pz)    -0.0857  0.0000  0.0000 -0.1333 -0.0895  0.0000  0.0000 -0.0312
  10.  C 1 (d1)    -0.0008 -0.0005 -0.0017 -0.0007 -0.0016 -0.0002 -0.0006 -0.0003
  11.  C 1 (d4)    -0.0008  0.0005  0.0017 -0.0007 -0.0016  0.0002  0.0006 -0.0003
  12.  C 1 (d6)     0.0012  0.0000  0.0000  0.0090  0.0009  0.0000  0.0000  0.0027
  13.  C 1 (d2)     0.0000 -0.0020  0.0006  0.0000  0.0000 -0.0006  0.0002  0.0000
  14.  C 1 (d3)     0.0000  0.0017  0.0000  0.0000  0.0000  0.0006  0.0000  0.0000
  15.  C 1 (d5)     0.0000  0.0000  0.0017  0.0000  0.0000  0.0000  0.0006  0.0000
  16. Be 2 (s)     -0.0455  0.0000  0.0000  0.0004 -0.0990  0.0000  0.0000  0.0084
  17. Be 2 (s)      0.0933  0.0000  0.0000  0.0019  0.0973  0.0000  0.0000 -0.0130
  18. Be 2 (px)     0.0000  0.0028  0.0000  0.0000  0.0000  0.0009  0.0000  0.0000
  19. Be 2 (py)     0.0000  0.0000  0.0028  0.0000  0.0000  0.0000  0.0009  0.0000
  20. Be 2 (pz)     0.0019  0.0000  0.0000  0.3047 -0.0136  0.0000  0.0000  0.0960
  21. Be 2 (s)      0.0973  0.0000  0.0000 -0.0136  0.1049  0.0000  0.0000 -0.0182
  22. Be 2 (px)     0.0000  0.0009  0.0000  0.0000  0.0000  0.0003  0.0000  0.0000
  23. Be 2 (py)     0.0000  0.0000  0.0009  0.0000  0.0000  0.0000  0.0003  0.0000
  24. Be 2 (pz)    -0.0130  0.0000  0.0000  0.0960 -0.0182  0.0000  0.0000  0.0323
  25. Be 2 (d1)    -0.0045 -0.0001 -0.0002 -0.0005 -0.0046  0.0000 -0.0001  0.0006
  26. Be 2 (d4)    -0.0045  0.0001  0.0002 -0.0005 -0.0046  0.0000  0.0001  0.0006
  27. Be 2 (d6)     0.0296  0.0000  0.0000 -0.0098  0.0310  0.0000  0.0000 -0.0076
  28. Be 2 (d2)     0.0000 -0.0002  0.0001  0.0000  0.0000 -0.0001  0.0000  0.0000
  29. Be 2 (d3)     0.0000  0.0007  0.0000  0.0000  0.0000  0.0002  0.0000  0.0000
  30. Be 2 (d5)     0.0000  0.0000  0.0007  0.0000  0.0000  0.0000  0.0002  0.0000
  31.  H 3 (s)     -0.0108  0.0163 -0.0118 -0.0178 -0.0192  0.0053 -0.0039 -0.0063
  32.  H 3 (s)     -0.0175  0.0141 -0.0102 -0.0475 -0.0199  0.0046 -0.0034 -0.0134
  33.  H 4 (s)     -0.0108 -0.0184 -0.0082 -0.0178 -0.0192 -0.0060 -0.0027 -0.0063
  34.  H 4 (s)     -0.0175 -0.0159 -0.0071 -0.0475 -0.0199 -0.0052 -0.0023 -0.0134
  35.  H 5 (s)     -0.0108  0.0021  0.0200 -0.0178 -0.0192  0.0007  0.0065 -0.0063
  36.  H 5 (s)     -0.0175  0.0018  0.0173 -0.0475 -0.0199  0.0006  0.0057 -0.0134
  37.  H 6 (s)      0.0840  0.0000  0.0000 -0.1838  0.0979  0.0000  0.0000 -0.0704
  38.  H 6 (s)      0.0928  0.0000  0.0000 -0.1708  0.1062  0.0000  0.0000 -0.0676

           AO         25      26      27      28      29      30      31      32
      ------------ ------- ------- ------- ------- ------- ------- ------- -------
   1.  C 1 (s)      0.0024  0.0024 -0.0108  0.0000  0.0000  0.0000 -0.0511 -0.0077
   2.  C 1 (s)     -0.0047 -0.0047  0.0167  0.0000  0.0000  0.0000  0.0927  0.0214
   3.  C 1 (px)    -0.0006  0.0006  0.0000 -0.0023  0.0081  0.0000  0.1840  0.1595
   4.  C 1 (py)    -0.0020  0.0020  0.0000  0.0007  0.0000  0.0081 -0.1334 -0.1157
   5.  C 1 (pz)     0.0049  0.0049 -0.0275  0.0000  0.0000  0.0000  0.0888  0.0860
   6.  C 1 (s)     -0.0054 -0.0054  0.0224  0.0000  0.0000  0.0000  0.0864  0.0182
   7.  C 1 (px)    -0.0004  0.0004  0.0000 -0.0013  0.0045  0.0000  0.1016  0.0881
   8.  C 1 (py)    -0.0011  0.0011  0.0000  0.0004  0.0000  0.0045 -0.0737 -0.0639
   9.  C 1 (pz)     0.0035  0.0035 -0.0207  0.0000  0.0000  0.0000  0.0550  0.0527
[...]
            0.0000
           NBO accepted:    7. Label:BD ( 1)   1   4
      Occupancy is 0.001 for antibonding component
            0.0000 0.0000-0.6200 0.0000 0.0000 0.0000 0.0000 0.0000
            0.0000 0.0000 0.0000 0.0000 0.0000 0.0000 0.0000 0.7846
            0.0000
           NBO accepted:    8. Label:BD*( 1)   1   4
        2 eigenvector(s) stashed in permanent list

 Search of NHO DM block for the following atom(s):   1   5
      Select eigenvectors with eigenvalue > 1.900
       1.997 0.001 0.000 0.000 0.000 0.000 0.000 0.000 0.000 0.000 0.000 0.000
       0.000 0.000 0.000 0.000 0.000
      Eigenvector ( 1) has occupancy 1.99715
            0.0000 0.0000 0.0000 0.7846 0.0000 0.0000 0.0000 0.0000
            0.0000 0.0000 0.0000 0.0000 0.0000 0.0000 0.0000 0.6200
            0.0000
      Occupancy is 1.997 after deleting minor hybrid components
            0.0000 0.0000 0.0000 0.7846 0.0000 0.0000 0.0000 0.0000
            0.0000 0.0000 0.0000 0.0000 0.0000 0.0000 0.0000 0.6200
            0.0000
           NBO accepted:    9. Label:BD ( 1)   1   5
      Occupancy is 0.001 for antibonding component
            0.0000 0.0000 0.0000-0.6200 0.0000 0.0000 0.0000 0.0000
            0.0000 0.0000 0.0000 0.0000 0.0000 0.0000 0.0000 0.7846
            0.0000
           NBO accepted:   10. Label:BD*( 1)   1   5
        2 eigenvector(s) stashed in permanent list

 Search of NHO DM block for the following atom(s):   2   6
      Select eigenvectors with eigenvalue > 1.900
       1.925 0.053 0.000 0.000 0.000 0.000 0.000 0.000 0.000 0.000 0.000 0.000
       0.000 0.000 0.000 0.000 0.000
      Eigenvector ( 1) has occupancy 1.92542
            0.0000 0.0000 0.4269 0.0000 0.0000 0.0000 0.0000 0.0000
            0.0000 0.0000 0.0000 0.0000 0.0000 0.0000 0.0000 0.9043
            0.0000
      Occupancy is 1.925 after deleting minor hybrid components
            0.0000 0.0000 0.4269 0.0000 0.0000 0.0000 0.0000 0.0000
            0.0000 0.0000 0.0000 0.0000 0.0000 0.0000 0.0000 0.9043
            0.0000
           NBO accepted:   11. Label:BD ( 1)   2   6
      Occupancy is 0.053 for antibonding component
            0.0000 0.0000 0.9043 0.0000 0.0000 0.0000 0.0000 0.0000
            0.0000 0.0000 0.0000 0.0000 0.0000 0.0000 0.0000-0.4269
            0.0000
           NBO accepted:   12. Label:BD*( 1)   2   6
        2 eigenvector(s) stashed in permanent list

  2-center NBOs projected from the NHO density matrix
       0.015 electrons remain in the fully projected matrix

                            Occupancies       Lewis Structure    Low   High
         Max    Occ     -------------------  -----------------   occ   occ
  Cycle  Ctr   Thresh    Lewis   non-Lewis     CR  BD  nC  LP    (L)   (NL)
 ============================================================================
    4     2     1.90    13.86217   0.13783      2   5   0   0     0      0
 ----------------------------------------------------------------------------

 Structure accepted: No low occupancy Lewis orbitals

 -------------------------------------------------------
   Core                      3.99999 (100.000% of   4)
   Valence Lewis             9.86218 ( 98.622% of  10)
  ==================      =============================
   Total Lewis              13.86217 ( 99.015% of  14)
  -----------------------------------------------------
   Valence non-Lewis         0.12263 (  0.876% of  14)
   Rydberg non-Lewis         0.01520 (  0.109% of  14)
  ==================      =============================
   Total non-Lewis           0.13783 (  0.985% of  14)
 -------------------------------------------------------


     (Occupancy)   Bond orbital / Coefficients / Hybrids
 ------------------ Lewis ------------------------------------------------------
   1. (2.00000) CR ( 1) C  1            s(100.00%)
                                         1.0000  0.0000  0.0000  0.0000  0.0000
                                         0.0000  0.0000  0.0000  0.0000  0.0000
                                         0.0000  0.0000  0.0000  0.0000  0.0000
   2. (1.99999) CR ( 1)Be  2            s(100.00%)
                                         1.0000  0.0000  0.0000  0.0000  0.0000
                                         0.0000  0.0000  0.0000  0.0000  0.0000
                                         0.0000  0.0000  0.0000  0.0000  0.0000
   3. (1.94532) BD ( 1) C  1-Be  2
               ( 88.90%)   0.9429* C  1 s( 24.66%)p 3.05( 75.21%)d 0.01(  0.12%)
                                         0.0000  0.4937 -0.0535  0.0005  0.0000
                                         0.0000  0.0000  0.0000 -0.8658  0.0507
                                         0.0000  0.0000  0.0000  0.0000  0.0353
               ( 11.10%)   0.3332*Be  2 s( 48.74%)p 1.05( 51.26%)d 0.00(  0.00%)
                                         0.0000  0.6971 -0.0379  0.0040  0.0000
                                         0.0000  0.0000  0.0000  0.7158  0.0145
                                         0.0000  0.0000  0.0000  0.0000  0.0025
   4. (1.99715) BD ( 1) C  1- H  3
               ( 61.56%)   0.7846* C  1 s( 25.23%)p 2.96( 74.61%)d 0.01(  0.17%)
                                         0.0000  0.5014  0.0289 -0.0002  0.6599
                                         0.0192 -0.4787 -0.0139  0.2843  0.0106
                                        -0.0310  0.0176 -0.0128  0.0101 -0.0111
               ( 38.44%)   0.6200* H  3 s(100.00%)
                                         1.0000 -0.0003
   5. (1.99715) BD ( 1) C  1- H  4
               ( 61.56%)   0.7846* C  1 s( 25.23%)p 2.96( 74.61%)d 0.01(  0.17%)
                                         0.0000  0.5014  0.0289 -0.0002 -0.7445
                                        -0.0216 -0.3321 -0.0096  0.2843  0.0106
                                         0.0242 -0.0199 -0.0089  0.0218 -0.0111
               ( 38.44%)   0.6200* H  4 s(100.00%)
                                         1.0000 -0.0003
   6. (1.99715) BD ( 1) C  1- H  5
               ( 61.56%)   0.7846* C  1 s( 25.23%)p 2.96( 74.61%)d 0.01(  0.17%)
                                         0.0000  0.5014  0.0289 -0.0002  0.0846
                                         0.0025  0.8108  0.0235  0.2843  0.0106
                                         0.0067  0.0023  0.0216 -0.0319 -0.0111
               ( 38.44%)   0.6200* H  5 s(100.00%)
                                         1.0000 -0.0003
   7. (1.92542) BD ( 1)Be  2- H  6
               ( 18.22%)   0.4269*Be  2 s( 51.04%)p 0.94( 48.11%)d 0.02(  0.86%)
                                         0.0000  0.7137  0.0310 -0.0028  0.0000
                                         0.0000  0.0000  0.0000 -0.6934 -0.0169
                                         0.0000  0.0000  0.0000  0.0000  0.0925
               ( 81.78%)   0.9043* H  6 s(100.00%)
                                         1.0000  0.0043
 ---------------- non-Lewis ----------------------------------------------------
   8. (0.06754) BD*( 1) C  1-Be  2
               ( 11.10%)   0.3332* C  1 s( 24.66%)p 3.05( 75.21%)d 0.01(  0.12%)
                                         0.0000 -0.4937  0.0535 -0.0005  0.0000
                                         0.0000  0.0000  0.0000  0.8658 -0.0507
                                         0.0000  0.0000  0.0000  0.0000 -0.0353
               ( 88.90%)  -0.9429*Be  2 s( 48.74%)p 1.05( 51.26%)d 0.00(  0.00%)
                                         0.0000 -0.6971  0.0379 -0.0040  0.0000
                                         0.0000  0.0000  0.0000 -0.7158 -0.0145
                                         0.0000  0.0000  0.0000  0.0000 -0.0025
   9. (0.00083) BD*( 1) C  1- H  3
               ( 38.44%)   0.6200* C  1 s( 25.23%)p 2.96( 74.61%)d 0.01(  0.17%)
                                         0.0000 -0.5014 -0.0289  0.0002 -0.6599
                                        -0.0192  0.4787  0.0139 -0.2843 -0.0106
                                         0.0310 -0.0176  0.0128 -0.0101  0.0111
               ( 61.56%)  -0.7846* H  3 s(100.00%)
                                        -1.0000  0.0003
  10. (0.00083) BD*( 1) C  1- H  4
               ( 38.44%)   0.6200* C  1 s( 25.23%)p 2.96( 74.61%)d 0.01(  0.17%)
                                         0.0000 -0.5014 -0.0289  0.0002  0.7445
                                         0.0216  0.3321  0.0096 -0.2843 -0.0106
                                        -0.0242  0.0199  0.0089 -0.0218  0.0111
               ( 61.56%)  -0.7846* H  4 s(100.00%)
                                        -1.0000  0.0003
  11. (0.00083) BD*( 1) C  1- H  5
               ( 38.44%)   0.6200* C  1 s( 25.23%)p 2.96( 74.61%)d 0.01(  0.17%)
                                         0.0000 -0.5014 -0.0289  0.0002 -0.0846
                                        -0.0025 -0.8108 -0.0235 -0.2843 -0.0106
                                        -0.0067 -0.0023 -0.0216  0.0319  0.0111
               ( 61.56%)  -0.7846* H  5 s(100.00%)
                                        -1.0000  0.0003
  12. (0.05260) BD*( 1)Be  2- H  6
               ( 81.78%)   0.9043*Be  2 s( 51.04%)p 0.94( 48.11%)d 0.02(  0.86%)
                                         0.0000  0.7137  0.0310 -0.0028  0.0000
                                         0.0000  0.0000  0.0000 -0.6934 -0.0169
                                         0.0000  0.0000  0.0000  0.0000  0.0925
               ( 18.22%)  -0.4269* H  6 s(100.00%)
                                         1.0000  0.0043
  13. (0.00585) RY ( 1) C  1            s( 61.61%)p 0.58( 35.60%)d 0.05(  2.79%)
                                         0.0000  0.0110  0.7847  0.0125  0.0000
                                         0.0000  0.0000  0.0000 -0.0837 -0.5908
                                         0.0000  0.0000  0.0000  0.0000 -0.1671
  14. (0.00000) RY ( 2) C  1            s( 48.86%)p 0.89( 43.70%)d 0.15(  7.45%)
  15. (0.00000) RY ( 3) C  1            s(  0.56%)p22.41( 12.53%)d99.99( 86.91%)
  16. (0.00000) RY ( 4) C  1            s(  0.02%)p99.99( 44.82%)d99.99( 55.15%)
  17. (0.00000) RY ( 5) C  1            s(  0.00%)p 1.00( 11.89%)d 7.41( 88.11%)
  18. (0.00000) RY ( 6) C  1            s(  0.11%)p 2.47(  0.27%)d99.99( 99.63%)
  19. (0.00000) RY ( 7) C  1            s(  0.53%)p37.34( 19.96%)d99.99( 79.51%)
  20. (0.00000) RY ( 8) C  1            s(  0.66%)p71.12( 47.20%)d78.54( 52.13%)
  21. (0.00000) RY ( 9) C  1            s( 86.79%)p 0.11(  9.50%)d 0.04(  3.71%)
  22. (0.00000) RY (10) C  1            s(  0.52%)p99.99( 75.50%)d46.46( 23.98%)
  23. (0.00271) RY ( 1)Be  2            s(  0.00%)p 1.00( 97.99%)d 0.02(  2.01%)
                                         0.0000  0.0000  0.0000  0.0000  0.3461
                                        -0.1730  0.8150 -0.4073  0.0000  0.0000
                                        -0.0081  0.0427  0.1006 -0.0901  0.0000
  24. (0.00271) RY ( 2)Be  2            s(  0.00%)p 1.00( 97.99%)d 0.02(  2.01%)
                                         0.0000  0.0000  0.0000  0.0000  0.8150
                                        -0.4073 -0.3461  0.1730  0.0000  0.0000
                                        -0.0901  0.1006 -0.0427  0.0081  0.0000
  25. (0.00006) RY ( 3)Be  2            s( 74.74%)p 0.17( 12.67%)d 0.17( 12.59%)
  26. (0.00000) RY ( 4)Be  2            s(  3.27%)p 7.51( 24.56%)d22.05( 72.17%)
  27. (0.00000) RY ( 5)Be  2            s(  0.01%)p 1.00(  0.95%)d99.99( 99.05%)
  28. (0.00000) RY ( 6)Be  2            s(  0.00%)p 1.00( 19.73%)d 4.07( 80.27%)
  29. (0.00000) RY ( 7)Be  2            s(  0.00%)p 1.00( 61.69%)d 0.62( 38.31%)
  30. (0.00000) RY ( 8)Be  2            s( 43.68%)p 0.58( 25.29%)d 0.71( 31.03%)
  31. (0.00000) RY ( 9)Be  2            s( 63.14%)p 0.52( 32.63%)d 0.07(  4.23%)
  32. (0.00000) RY (10)Be  2            s( 14.73%)p 1.51( 22.20%)d 4.28( 63.07%)
  33. (0.00000) RY (11)Be  2            s(  0.25%)p99.99( 78.25%)d86.12( 21.50%)
  34. (0.00000) RY (12)Be  2            s(  0.40%)p66.13( 26.70%)d99.99( 72.89%)
  35. (0.00078) RY ( 1) H  3            s(100.00%)
                                         0.0003  1.0000
  36. (0.00078) RY ( 1) H  4            s(100.00%)
                                         0.0003  1.0000
  37. (0.00078) RY ( 1) H  5            s(100.00%)
                                         0.0003  1.0000
  38. (0.00153) RY ( 1) H  6            s(100.00%)
                                        -0.0043  1.0000


 NHO DIRECTIONALITY AND BOND BENDING (deviation from line of nuclear centers at
                                      the position of maximum hybrid amplitude)

         [Thresholds for printing:  angular deviation  >  1.0 degree]
                                    p- or d-character  > 25.0%
                                    orbital occupancy  >  0.10e

                        Line of Centers        Hybrid 1             Hybrid 2
                        ---------------  -------------------  ------------------
           NBO            Theta   Phi    Theta   Phi    Dev   Theta   Phi    Dev
 ===============================================================================
    None exceeding thresholds


 SECOND ORDER PERTURBATION THEORY ANALYSIS OF FOCK MATRIX IN NBO BASIS

     Threshold for printing:   0.50 kcal/mol
                                                          E(2) E(NL)-E(L) F(L,NL)
      Donor (L) NBO              Acceptor (NL) NBO      kcal/mol   a.u.    a.u.
 ===============================================================================

 within unit  1
    3. BD ( 1) C  1-Be  2       8. BD*( 1) C  1-Be  2      1.21    1.07   0.032
    3. BD ( 1) C  1-Be  2      12. BD*( 1)Be  2- H  6     33.99    1.00   0.165
    3. BD ( 1) C  1-Be  2      13. RY ( 1) C  1            0.77    1.70   0.032
    3. BD ( 1) C  1-Be  2      25. RY ( 3)Be  2            0.51    1.72   0.026
    4. BD ( 1) C  1- H  3      12. BD*( 1)Be  2- H  6      0.92    1.17   0.029
    4. BD ( 1) C  1- H  3      24. RY ( 2)Be  2            0.80    1.03   0.026
    5. BD ( 1) C  1- H  4      12. BD*( 1)Be  2- H  6      0.92    1.17   0.029
    6. BD ( 1) C  1- H  5      12. BD*( 1)Be  2- H  6      0.92    1.17   0.029
    6. BD ( 1) C  1- H  5      23. RY ( 1)Be  2            0.77    1.03   0.025
    7. BD ( 1)Be  2- H  6       8. BD*( 1) C  1-Be  2     52.53    1.02   0.206
    7. BD ( 1)Be  2- H  6      12. BD*( 1)Be  2- H  6      3.09    0.95   0.048
    7. BD ( 1)Be  2- H  6      13. RY ( 1) C  1            9.64    1.65   0.113
    7. BD ( 1)Be  2- H  6      15. RY ( 3) C  1            1.57    2.52   0.056
    7. BD ( 1)Be  2- H  6      30. RY ( 8)Be  2            1.15    2.41   0.047
    7. BD ( 1)Be  2- H  6      31. RY ( 9)Be  2            2.08    1.41   0.048
    7. BD ( 1)Be  2- H  6      32. RY (10)Be  2            0.55    1.72   0.027
    7. BD ( 1)Be  2- H  6      35. RY ( 1) H  3            0.79    1.24   0.028
    7. BD ( 1)Be  2- H  6      36. RY ( 1) H  4            0.79    1.24   0.028
    7. BD ( 1)Be  2- H  6      37. RY ( 1) H  5            0.79    1.24   0.028


 NATURAL BOND ORBITALS (Summary):

                                                     Principal Delocalizations
           NBO                 Occupancy    Energy   (geminal,vicinal,remote)
 ===============================================================================
 Molecular unit  1  (CH4Be)
 ------ Lewis --------------------------------------
    1. CR ( 1) C  1             2.00000   -11.17592
    2. CR ( 1)Be  2             1.99999    -4.64315
    3. BD ( 1) C  1-Be  2       1.94532    -0.46708  12(g),8(g),13(g),25(g)
    4. BD ( 1) C  1- H  3       1.99715    -0.63522  12(v),24(v)
    5. BD ( 1) C  1- H  4       1.99715    -0.63522  12(v)
    6. BD ( 1) C  1- H  5       1.99715    -0.63522  12(v),23(v)
    7. BD ( 1)Be  2- H  6       1.92542    -0.41757  8(g),13(v),12(g),31(g)
                                                     15(v),30(g),35(r),36(r)
                                                     37(r),32(g)
 ------ non-Lewis ----------------------------------
    8. BD*( 1) C  1-Be  2       0.06754     0.60021
    9. BD*( 1) C  1- H  3       0.00083     0.73518
   10. BD*( 1) C  1- H  4       0.00083     0.73518
   11. BD*( 1) C  1- H  5       0.00083     0.73518
   12. BD*( 1)Be  2- H  6       0.05260     0.53380
   13. RY ( 1) C  1             0.00585     1.23191
   14. RY ( 2) C  1             0.00000     2.05479
   15. RY ( 3) C  1             0.00000     2.10571
   16. RY ( 4) C  1             0.00000     1.62139
   17. RY ( 5) C  1             0.00000     1.91340
   18. RY ( 6) C  1             0.00000     2.06506
   19. RY ( 7) C  1             0.00000     2.20661
   20. RY ( 8) C  1             0.00000     1.73658
   21. RY ( 9) C  1             0.00000     3.75045
   22. RY (10) C  1             0.00000     1.15589
   23. RY ( 1)Be  2             0.00271     0.39476
   24. RY ( 2)Be  2             0.00271     0.39476
   25. RY ( 3)Be  2             0.00006     1.25295
   26. RY ( 4)Be  2             0.00000     1.43694
   27. RY ( 5)Be  2             0.00000     1.09816
   28. RY ( 6)Be  2             0.00000     0.99792
   29. RY ( 7)Be  2             0.00000     0.80422
   30. RY ( 8)Be  2             0.00000     1.99422
   31. RY ( 9)Be  2             0.00000     0.99574
   32. RY (10)Be  2             0.00000     1.29800
   33. RY (11)Be  2             0.00000     0.64672
   34. RY (12)Be  2             0.00000     0.95284
   35. RY ( 1) H  3             0.00078     0.82105
   36. RY ( 1) H  4             0.00078     0.82105
   37. RY ( 1) H  5             0.00078     0.82105
   38. RY ( 1) H  6             0.00153     1.30774
          -------------------------------
                 Total Lewis   13.86217  ( 99.0155%)
           Valence non-Lewis    0.12263  (  0.8759%)
           Rydberg non-Lewis    0.01520  (  0.1086%)
          -------------------------------
               Total unit  1   14.00000  (100.0000%)
              Charge unit  1    0.00000

 $CHOOSE
   BOND S 1 2 S 1 3 S 1 4 S 1 5 S 2 6 END
 $END

 NBO analysis completed in 0.68 CPU seconds (1 wall second)
 Maximum scratch memory used by NBO was 334644 words (2.55 MB)
 Maximum scratch memory used by G16NBO was 10551 words (0.08 MB)

 Opening RunExU unformatted file "/cluster/work/users/beto93/CH3BeH/Gau-1651614.EUF"
 Read unf file /cluster/work/users/beto93/CH3BeH/Gau-1651614.EUF:
 Label Gaussian matrix elements                                         IVers= 2 NLab= 2 Version=ES64L-G16RevC.01
 Title NBO-a                                                           
 NAtoms=     6 NBasis=    38 NBsUse=    38 ICharg=     0 Multip=     1 NE=    14 Len12L=8 Len4L=8 IOpCl= 0 ICGU=111
 GAUSSIAN SCALARS                    NI= 1 NR= 1 NTot=       1 LenBuf=    2 NRI=1 N=    1000
 NPA CHARGES                         NI= 0 NR= 1 NTot=       6 LenBuf= 4000 NRI=1 N=       6
 Recovered energy= -54.8152520195     dipole=      0.000000000000     -0.000000000000      0.140777729803
 Unable to Open any file for archive entry.
 1\1\GINC-C1-2\SP\RHF\6-31G(d)\C1H4Be1\BETO93\24-Jul-2024\0\\#RHF/6-31G
 * Pop=NBO7Read\\NBO-a\\0,1\C,0,0.034501,-0.059741,0.024991\Be,0,-0.761
 653,1.322867,-0.534058\H,0,0.057502,-0.100992,1.108648\H,0,1.063335,-0
 .098024,-0.316442\H,0,-0.448079,-0.96878,-0.317508\H,0,-1.369663,2.378
 741,-0.960994\\Version=ES64L-G16RevC.01\State=1-A\HF=-54.815252\RMSD=2
 .263e-09\Dipole=0.0662979,-0.1151335,0.0465535\Quadrupole=0.4859756,-1
 .4617678,0.9757922,1.6779709,-0.6784774,1.1782495\PG=C03 [C3(H1Be1C1),
 X(H3)]\\@
 The archive entry for this job was punched.


 In the race for quality, there is no finish line.
                               -- David T. Kearns
 Job cpu time:       0 days  0 hours  0 minutes 18.6 seconds.
 Elapsed time:       0 days  0 hours  0 minutes  5.8 seconds.
 File lengths (MBytes):  RWF=     10 Int=      0 D2E=      0 Chk=      1 Scr=      1
 Normal termination of Gaussian 16 at Wed Jul 24 12:08:04 2024.
