 Entering Gaussian System, Link 0=g16
 Initial command:
 /cluster/software/Gaussian/g16_C.01/l1.exe "/cluster/work/users/beto93/LiBeH/Gau-346848.inp" -scrdir="/cluster/work/users/beto93/LiBeH/"
 Entering Link 1 = /cluster/software/Gaussian/g16_C.01/l1.exe PID=    346853.
  
 Copyright (c) 1988-2019, Gaussian, Inc.  All Rights Reserved.
  
 This is part of the Gaussian(R) 16 program.  It is based on
 the Gaussian(R) 09 system (copyright 2009, Gaussian, Inc.),
 the Gaussian(R) 03 system (copyright 2003, Gaussian, Inc.),
 the Gaussian(R) 98 system (copyright 1998, Gaussian, Inc.),
 the Gaussian(R) 94 system (copyright 1995, Gaussian, Inc.),
 the Gaussian 92(TM) system (copyright 1992, Gaussian, Inc.),
 the Gaussian 90(TM) system (copyright 1990, Gaussian, Inc.),
 the Gaussian 88(TM) system (copyright 1988, Gaussian, Inc.),
 the Gaussian 86(TM) system (copyright 1986, Carnegie Mellon
 University), and the Gaussian 82(TM) system (copyright 1983,
 Carnegie Mellon University). Gaussian is a federally registered
 trademark of Gaussian, Inc.
  
 This software contains proprietary and confidential information,
 including trade secrets, belonging to Gaussian, Inc.
  
 This software is provided under written license and may be
 used, copied, transmitted, or stored only in accord with that
 written license.
  
 The following legend is applicable only to US Government
 contracts under FAR:
  
                    RESTRICTED RIGHTS LEGEND
  
 Use, reproduction and disclosure by the US Government is
 subject to restrictions as set forth in subparagraphs (a)
 and (c) of the Commercial Computer Software - Restricted
 Rights clause in FAR 52.227-19.
  
 Gaussian, Inc.
 340 Quinnipiac St., Bldg. 40, Wallingford CT 06492
  
  
 ---------------------------------------------------------------
 Warning -- This program may not be used in any manner that
 competes with the business of Gaussian, Inc. or will provide
 assistance to any competitor of Gaussian, Inc.  The licensee
 of this program is prohibited from giving any competitor of
 Gaussian, Inc. access to this program.  By using this program,
 the user acknowledges that Gaussian, Inc. is engaged in the
 business of creating and licensing software in the field of
 computational chemistry and represents and warrants to the
 licensee that it is not a competitor of Gaussian, Inc. and that
 it will not use this program in any manner prohibited above.
 ---------------------------------------------------------------
  

 Cite this work as:
 Gaussian 16, Revision C.01,
 M. J. Frisch, G. W. Trucks, H. B. Schlegel, G. E. Scuseria, 
 M. A. Robb, J. R. Cheeseman, G. Scalmani, V. Barone, 
 G. A. Petersson, H. Nakatsuji, X. Li, M. Caricato, A. V. Marenich, 
 J. Bloino, B. G. Janesko, R. Gomperts, B. Mennucci, H. P. Hratchian, 
 J. V. Ortiz, A. F. Izmaylov, J. L. Sonnenberg, D. Williams-Young, 
 F. Ding, F. Lipparini, F. Egidi, J. Goings, B. Peng, A. Petrone, 
 T. Henderson, D. Ranasinghe, V. G. Zakrzewski, J. Gao, N. Rega, 
 G. Zheng, W. Liang, M. Hada, M. Ehara, K. Toyota, R. Fukuda, 
 J. Hasegawa, M. Ishida, T. Nakajima, Y. Honda, O. Kitao, H. Nakai, 
 T. Vreven, K. Throssell, J. A. Montgomery, Jr., J. E. Peralta, 
 F. Ogliaro, M. J. Bearpark, J. J. Heyd, E. N. Brothers, K. N. Kudin, 
 V. N. Staroverov, T. A. Keith, R. Kobayashi, J. Normand, 
 K. Raghavachari, A. P. Rendell, J. C. Burant, S. S. Iyengar, 
 J. Tomasi, M. Cossi, J. M. Millam, M. Klene, C. Adamo, R. Cammi, 
 J. W. Ochterski, R. L. Martin, K. Morokuma, O. Farkas, 
 J. B. Foresman, and D. J. Fox, Gaussian, Inc., Wallingford CT, 2019.
 
 ******************************************
 Gaussian 16:  ES64L-G16RevC.01  3-Jul-2019
                24-Jul-2024 
 ******************************************
 %LindaWorkers=c1-34-ib
 %NProcShared=4
 Will use up to    4 processors via shared memory.
 %mem=25GB
 %chk=a.chk
 SetLPE:    new flags="-opt 'Tsnet.Node.lindarsharg: ssh'  -nodelist 'c1-34-ib.saga' -env GAUSS_MDEF=3355443200 -env GAUSS_EXEDIR="/cluster/software/Gaussian/g16_C.01/bsd:/cluster/software/Gaussian/g16_C.01""
 Will use up to    1 processors via Linda.
 ------------------------
 #RHF/6-31G* Pop=NBO7Read
 ------------------------
 1/38=1,163=2,172=1/1;
 2/12=2,17=6,18=5,40=1/2;
 3/5=1,6=6,7=1,11=1,25=1,30=1,116=1/1,2,3;
 4//1;
 5/5=2,38=5/2;
 6/7=2,8=2,9=2,10=2,28=1,40=2,113=1,114=1,124=2103/1,12;
 99/5=1,9=1/99;
 -----
 NBO-a
 -----
 Symbolic Z-matrix:
 Charge =  0 Multiplicity = 1
 Be                    0.        0.       -0.00011 
 Li                    0.        0.        2.3838 
 H                     0.        0.       -1.29969 
 
                          Input orientation:                          
 ---------------------------------------------------------------------
 Center     Atomic      Atomic             Coordinates (Angstroms)
 Number     Number       Type             X           Y           Z
 ---------------------------------------------------------------------
      1          4           0        0.000000    0.000000   -0.000110
      2          3           0        0.000000    0.000000    2.383800
      3          1           0        0.000000    0.000000   -1.299690
 ---------------------------------------------------------------------
                    Distance matrix (angstroms):
                    1          2          3
     1  Be   0.000000
     2  Li   2.383910   0.000000
     3  H    1.299580   3.683490   0.000000
 Stoichiometry    BeHLi
 Framework group  C*V[C*(LiBeH)]
 Deg. of freedom     2
 Full point group                 C*V     NOp   4
 Largest Abelian subgroup         C2V     NOp   4
 Largest concise Abelian subgroup C1      NOp   1
                         Standard orientation:                         
 ---------------------------------------------------------------------
 Center     Atomic      Atomic             Coordinates (Angstroms)
 Number     Number       Type             X           Y           Z
 ---------------------------------------------------------------------
      1          4           0        0.000000    0.000000    0.731519
      2          3           0        0.000000    0.000000   -1.652391
      3          1           0        0.000000    0.000000    2.031099
 ---------------------------------------------------------------------
 Rotational constants (GHZ):           0.0000000          18.2945047          18.2945047
 Standard basis: 6-31G(d) (6D, 7F)
 There are    18 symmetry adapted cartesian basis functions of A1  symmetry.
 There are     2 symmetry adapted cartesian basis functions of A2  symmetry.
 There are     6 symmetry adapted cartesian basis functions of B1  symmetry.
 There are     6 symmetry adapted cartesian basis functions of B2  symmetry.
 There are    18 symmetry adapted basis functions of A1  symmetry.
 There are     2 symmetry adapted basis functions of A2  symmetry.
 There are     6 symmetry adapted basis functions of B1  symmetry.
 There are     6 symmetry adapted basis functions of B2  symmetry.
    32 basis functions,    60 primitive gaussians,    32 cartesian basis functions
     4 alpha electrons        4 beta electrons
       nuclear repulsion energy         4.7234937597 Hartrees.
 NAtoms=    3 NActive=    3 NUniq=    3 SFac= 1.00D+00 NAtFMM=   60 NAOKFM=F Big=F
 Integral buffers will be    131072 words long.
 Raffenetti 1 integral format.
 Two-electron integral symmetry is turned on.
 One-electron integrals computed using PRISM.
 NBasis=    32 RedAO= T EigKep=  5.14D-03  NBF=    18     2     6     6
 NBsUse=    32 1.00D-06 EigRej= -1.00D+00 NBFU=    18     2     6     6
 ExpMin= 3.60D-02 ExpMax= 1.26D+03 ExpMxC= 1.90D+02 IAcc=3 IRadAn=         5 AccDes= 0.00D+00
 Harris functional with IExCor=  205 and IRadAn=       5 diagonalized for initial guess.
 HarFok:  IExCor=  205 AccDes= 0.00D+00 IRadAn=         5 IDoV= 1 UseB2=F ITyADJ=14
 ICtDFT=  3500011 ScaDFX=  1.000000  1.000000  1.000000  1.000000
 FoFCou: FMM=F IPFlag=           0 FMFlag=      100000 FMFlg1=           0
         NFxFlg=           0 DoJE=T BraDBF=F KetDBF=T FulRan=T
         wScrn=  0.000000 ICntrl=       500 IOpCl=  0 I1Cent=   200000004 NGrid=           0
         NMat0=    1 NMatS0=      1 NMatT0=    0 NMatD0=    1 NMtDS0=    0 NMtDT0=    0
 Petite list used in FoFCou.
 Initial guess orbital symmetries:
       Occupied  (SG) (SG) (SG) (SG)
       Virtual   (PI) (PI) (SG) (PI) (PI) (SG) (SG) (PI) (PI) (SG)
                 (SG) (PI) (PI) (SG) (DLTA) (DLTA) (PI) (PI) (SG)
                 (SG) (DLTA) (DLTA) (SG) (PI) (PI) (SG) (SG) (SG)
 The electronic state of the initial guess is 1-SG.
 Keep R1 ints in memory in symmetry-blocked form, NReq=971061.
 Requested convergence on RMS density matrix=1.00D-08 within 128 cycles.
 Requested convergence on MAX density matrix=1.00D-06.
 Requested convergence on             energy=1.00D-06.
 No special actions if energy rises.
 SCF Done:  E(RHF) =  -22.6076979536     A.U. after   10 cycles
            NFock= 10  Conv=0.31D-08     -V/T= 1.9932

 **********************************************************************

            Population analysis using the SCF Density.

 **********************************************************************

 Orbital symmetries:
       Occupied  (SG) (SG) (SG) (SG)
       Virtual   (SG) (PI) (PI) (SG) (PI) (PI) (SG) (PI) (PI) (SG)
                 (SG) (SG) (PI) (PI) (DLTA) (DLTA) (PI) (PI) (SG)
                 (SG) (DLTA) (DLTA) (SG) (PI) (PI) (SG) (SG) (SG)
 The electronic state is 1-SG.
 Alpha  occ. eigenvalues --   -4.62961  -2.43973  -0.43324  -0.23833
 Alpha virt. eigenvalues --    0.01940   0.04451   0.04451   0.12931   0.14514
 Alpha virt. eigenvalues --    0.14514   0.19272   0.22280   0.22280   0.28489
 Alpha virt. eigenvalues --    0.44388   0.52333   0.53050   0.53050   0.58007
 Alpha virt. eigenvalues --    0.58007   0.60771   0.60771   0.77945   0.93128
 Alpha virt. eigenvalues --    1.12260   1.12260   1.19495   1.21273   1.21273
 Alpha virt. eigenvalues --    1.29639   1.94975   2.95017
          Condensed to atoms (all electrons):
               1          2          3
     1  Be   2.922471   0.425979   0.414721
     2  Li   0.425979   2.712099  -0.024172
     3  H    0.414721  -0.024172   0.732372
 Mulliken charges:
               1
     1  Be   0.236828
     2  Li  -0.113907
     3  H   -0.122921
 Sum of Mulliken charges =  -0.00000
 Mulliken charges with hydrogens summed into heavy atoms:
               1
     1  Be   0.113907
     2  Li  -0.113907
 Electronic spatial extent (au):  <R**2>=             74.5718
 Charge=             -0.0000 electrons
 Dipole moment (field-independent basis, Debye):
    X=              0.0000    Y=              0.0000    Z=             -4.8438  Tot=              4.8438
 Quadrupole moment (field-independent basis, Debye-Ang):
   XX=            -12.4863   YY=            -12.4863   ZZ=             -5.8890
   XY=              0.0000   XZ=              0.0000   YZ=              0.0000
 Traceless Quadrupole moment (field-independent basis, Debye-Ang):
   XX=             -2.1991   YY=             -2.1991   ZZ=              4.3982
   XY=              0.0000   XZ=              0.0000   YZ=              0.0000
 Octapole moment (field-independent basis, Debye-Ang**2):
  XXX=              0.0000  YYY=              0.0000  ZZZ=            -36.4358  XYY=              0.0000
  XXY=              0.0000  XXZ=              0.5002  XZZ=              0.0000  YZZ=              0.0000
  YYZ=              0.5002  XYZ=              0.0000
 Hexadecapole moment (field-independent basis, Debye-Ang**3):
 XXXX=            -34.0669 YYYY=            -34.0669 ZZZZ=            -90.7766 XXXY=              0.0000
 XXXZ=              0.0000 YYYX=              0.0000 YYYZ=              0.0000 ZZZX=              0.0000
 ZZZY=              0.0000 XXYY=            -11.3556 XXZZ=            -24.4534 YYZZ=            -24.4534
 XXYZ=              0.0000 YYXZ=              0.0000 ZZXY=              0.0000
 N-N= 4.723493759669D+00 E-N=-6.194263094098D+01  KE= 2.276203904205D+01
 Symmetry A1   KE= 2.276203904205D+01
 Symmetry A2   KE=-2.718615734414D-51
 Symmetry B1   KE= 0.000000000000D+00
 Symmetry B2   KE= 0.000000000000D+00
 Running external command "gaunbo7 R"
         input file       "/cluster/work/users/beto93/LiBeH/Gau-346853.EIn"
         output file      "/cluster/work/users/beto93/LiBeH/Gau-346853.EOu"
         message file     "/cluster/work/users/beto93/LiBeH/Gau-346853.EMs"
         fchk file        "/cluster/work/users/beto93/LiBeH/Gau-346853.EFC"
         mat. el file     "/cluster/work/users/beto93/LiBeH/Gau-346853.EUF"

 Writing WrtUnf unformatted file "/cluster/work/users/beto93/LiBeH/Gau-346853.EUF"
 Gaussian matrix elements                                         Version   2 NLab=11 Len12L=8 Len4L=8
 Write SHELL TO ATOM MAP                   from file      0 offset           0 length                  10 to matrix element file.
 Write SHELL TYPES                         from file      0 offset           0 length                  10 to matrix element file.
 Write NUMBER OF PRIMITIVES PER SHELL      from file      0 offset           0 length                  10 to matrix element file.
 Write PRIMITIVE EXPONENTS                 from file      0 offset           0 length                  26 to matrix element file.
 Write CONTRACTION COEFFICIENTS            from file      0 offset           0 length                  26 to matrix element file.
 Write P(S=P) CONTRACTION COEFFICIENTS     from file      0 offset           0 length                  26 to matrix element file.
 Write COORDINATES OF EACH SHELL           from file      0 offset           0 length                  30 to matrix element file.
 Write BONDS PER ATOM                      from file      0 offset           0 length                   3 to matrix element file.
 Write BONDED ATOMS                        from file      0 offset           0 length                   4 to matrix element file.
 Write BOND TYPES                          from file      0 offset           0 length                   4 to matrix element file.
 Write ONIOM CHARGE/MULT                   from file      0 offset           0 length                  32 to matrix element file.
 Write ONIOM ATOM LAYERS                   from file      0 offset           0 length                   3 to matrix element file.
 Write ONIOM ATOM MODIFIERS                from file      0 offset           0 length                   3 to matrix element file.
 Write ONIOM ATOM TYPES                    from file      0 offset           0 length                   3 to matrix element file.
 Write ONIOM LINK ATOMS                    from file      0 offset           0 length                   3 to matrix element file.
 Write ONIOM LINK CHARGES                  from file      0 offset           0 length                   3 to matrix element file.
 Write ONIOM LINK DISTANCES                from file      0 offset           0 length                  12 to matrix element file.
 Write SYMINF INTS                         from file      0 offset           0 length                  26 to matrix element file.
 Write ROTTR TO SO                         from file      0 offset           0 length                  12 to matrix element file.
 Write GAUSSIAN SCALARS                    from file    501 offset           0 to matrix element file.
 Write OPTIMIZATION FLAGS                  from file      0 offset           0 length                   3 to matrix element file.
 Write INTEGER ISO                         from file      0 offset           0 length                   3 to matrix element file.
 Write INTEGER SPIN                        from file      0 offset           0 length                   3 to matrix element file.
 Write REAL ZEFFECTIVE                     from file      0 offset           0 length                   3 to matrix element file.
 Write REAL QUADRUPOLEMOMENT               from file      0 offset           0 length                   3 to matrix element file.
 Write REAL GFACTOR                        from file      0 offset           0 length                   3 to matrix element file.
 Write REAL ZNUCLEAR                       from file      0 offset           0 length                   3 to matrix element file.
 Write MULLIKEN CHARGES                    from file      0 offset           0 length                   3 to matrix element file.
 Write NUCLEAR GRADIENT                    from file  10584 offset           0 length                   9 to matrix element file.
 Array NUCLEAR FORCE CONSTANTS              on  file  10585 does not exist.
 Write ELECTRIC DIPOLE MOMENT              from file      0 offset           0 length                   3 to matrix element file.
 Write NON-ADIABATIC COUPLING              from file  10810 offset           0 length                   9 to matrix element file.
 Write FINITE EM FIELD                     from file  10521 offset           0 length                  35 to matrix element file.
 Write OVERLAP                             from file  10514 offset           0 length                 528 to matrix element file.
 Write CORE HAMILTONIAN ALPHA              from file  10515 offset           0 length                 528 to matrix element file.
 Write CORE HAMILTONIAN BETA               from file  10515 offset         528 length                 528 to matrix element file.
 Write KINETIC ENERGY                      from file  10516 offset           0 length                 528 to matrix element file.
 Write ORTHOGONAL BASIS                    from file  10685 offset           0 length                1024 to matrix element file.
 Write DIPOLE INTEGRALS                    from file  10518 offset           0 length                1584 to matrix element file.
 Array DIP VEL INTEGRALS                    on  file  10572 does not exist.
 Array R X DEL INTEGRALS                    on  file  10572 does not exist.
 Write ALPHA ORBITAL ENERGIES              from file      0 offset           0 length                  32 to matrix element file.
 Write ALPHA MO COEFFICIENTS               from file  10524 offset           0 length                1024 to matrix element file.
 Write ALPHA DENSITY MATRIX                from file      0 offset           0 length                 528 to matrix element file.
 Write ALPHA FOCK MATRIX                   from file  10536 offset           0 length                 528 to matrix element file.
 Write ENERGY-WEIGHTED DENSITY             from file  10571 offset           0 length                 528 to matrix element file.
 Write ALPHA SCF DENSITY MATRIX            from file      0 offset           0 length                 528 to matrix element file.
 No 2e integrals to process.
 Perform NBO analysis...executing G16NBO...

 *********************************** NBO 7.0 ***********************************
             N A T U R A L   A T O M I C   O R B I T A L   A N D
          N A T U R A L   B O N D   O R B I T A L   A N A L Y S I S
 **************************** Espen Tangen (S101595) ***************************
  (c) Copyright 1996-2021 Board of Regents of the University of Wisconsin System
      on behalf of the Theoretical Chemistry Institute.  All rights reserved.

          Cite this program [NBO 7.0.10 (8-Feb-2021)] as:

          NBO 7.0.  E. D. Glendening, J. K. Badenhoop, A. E. Reed,
          J. E. Carpenter, J. A. Bohmann, C. M. Morales, P. Karafiloglou,
          C. R. Landis, and F. Weinhold, Theoretical Chemistry Institute,
          University of Wisconsin, Madison, WI (2018)

       /NPA    / : Natural Population Analysis
       /AOPNAO / : Print the AO to PNAO transformation
       /AONAO  / : Print the AO to NAO transformation
       /AONO   / : Print the NOs in the AO basis
       /AOMO   / : Print the MOs in the AO basis
       /BOAO   / : Print the AO bond-order matrix
       /DMAO   / : Print the AO density matrix
       /DMPNAO / : Print the PNAO density matrix
       /DMNAO  / : Print the NAO density matrix
       /DMMO   / : Print the MO density matrix
       /SAO    / : Print the AO overlap matrix
       /SPNAO  / : Print the PNAO overlap matrix
       /DETAIL / : Write details of NBO search
       /ARCHIVE/ : Write the archive file to lfn47
       /AOINFO / : Write AO information to lfn31
       /FILE   / : Set to inpGenNbo

 Filename set to inpGenNbo

 Job title: NBO-a


 MOs in the AO basis:

           AO          1       2       3       4       5       6       7       8
      ------------ ------- ------- ------- ------- ------- ------- ------- -------
   1. Be 1 (s)      0.9980 -0.0009 -0.1495 -0.1037  0.0419  0.0000  0.0000  0.1325
   2. Be 1 (s)      0.0164 -0.0038  0.1860  0.1127 -0.0626  0.0000  0.0000  0.2068
   3. Be 1 (px)     0.0000  0.0000  0.0000  0.0000  0.0000  0.1114  0.0000  0.0000
   4. Be 1 (py)     0.0000  0.0000  0.0000  0.0000  0.0000  0.0000  0.1114  0.0000
   5. Be 1 (pz)    -0.0005 -0.0015  0.2196 -0.2819  0.0898  0.0000  0.0000  0.0675
   6. Be 1 (s)     -0.0101  0.0090  0.1762  0.2044  0.0523  0.0000  0.0000 -1.6717
   7. Be 1 (px)     0.0000  0.0000  0.0000  0.0000  0.0000  0.0684  0.0000  0.0000
   8. Be 1 (py)     0.0000  0.0000  0.0000  0.0000  0.0000  0.0000  0.0684  0.0000
   9. Be 1 (pz)     0.0029 -0.0133  0.0901 -0.0964  0.1399  0.0000  0.0000  0.5959
  10. Be 1 (d1)     0.0015  0.0003 -0.0090  0.0149 -0.0065  0.0000  0.0000 -0.0191
  11. Be 1 (d4)     0.0015  0.0003 -0.0090  0.0149 -0.0065  0.0000  0.0000 -0.0191
  12. Be 1 (d6)     0.0031  0.0023  0.0563  0.0114 -0.0058  0.0000  0.0000 -0.0439
  13. Be 1 (d2)     0.0000  0.0000  0.0000  0.0000  0.0000  0.0000  0.0000  0.0000
  14. Be 1 (d3)     0.0000  0.0000  0.0000  0.0000  0.0000 -0.0057  0.0000  0.0000
  15. Be 1 (d5)     0.0000  0.0000  0.0000  0.0000  0.0000  0.0000 -0.0057  0.0000
  16. Li 2 (s)      0.0003  0.9974 -0.0091 -0.1445 -0.1054  0.0000  0.0000 -0.0546
  17. Li 2 (s)      0.0024 -0.0216  0.0579  0.2293 -0.3352  0.0000  0.0000 -0.5697
  18. Li 2 (px)     0.0000  0.0000  0.0000  0.0000  0.0000  0.0485  0.0000  0.0000
  19. Li 2 (py)     0.0000  0.0000  0.0000  0.0000  0.0000  0.0000  0.0485  0.0000
  20. Li 2 (pz)     0.0006 -0.0160  0.0639  0.2275 -0.1173  0.0000  0.0000 -0.2711
  21. Li 2 (s)      0.0020 -0.0001  0.0317  0.3128  0.8247  0.0000  0.0000  1.7617
  22. Li 2 (px)     0.0000  0.0000  0.0000  0.0000  0.0000  0.8937  0.0000  0.0000
  23. Li 2 (py)     0.0000  0.0000  0.0000  0.0000  0.0000  0.0000  0.8937  0.0000
  24. Li 2 (pz)     0.0017  0.0055  0.0035  0.0124 -0.6733  0.0000  0.0000  1.6004
  25. Li 2 (d1)    -0.0002  0.0106 -0.0052  0.0007  0.0647  0.0000  0.0000  0.0549
  26. Li 2 (d4)    -0.0002  0.0106 -0.0052  0.0007  0.0647  0.0000  0.0000  0.0549
  27. Li 2 (d6)    -0.0009  0.0071  0.0168  0.0237  0.0831  0.0000  0.0000  0.1277
  28. Li 2 (d2)     0.0000  0.0000  0.0000  0.0000  0.0000  0.0000  0.0000  0.0000
  29. Li 2 (d3)     0.0000  0.0000  0.0000  0.0000  0.0000 -0.0022  0.0000  0.0000
  30. Li 2 (d5)     0.0000  0.0000  0.0000  0.0000  0.0000  0.0000 -0.0022  0.0000
  31.  H 3 (s)      0.0012 -0.0012  0.2942 -0.0931  0.0344  0.0000  0.0000 -0.0040
  32.  H 3 (s)     -0.0012  0.0067  0.3194 -0.1599  0.0038  0.0000  0.0000 -0.1448

           AO          9      10      11      12      13      14      15      16
      ------------ ------- ------- ------- ------- ------- ------- ------- -------
   1. Be 1 (s)      0.0000  0.0000  0.0120  0.0000  0.0000 -0.1071  0.0422 -0.0324
   2. Be 1 (s)      0.0000  0.0000 -0.0048  0.0000  0.0000 -0.2528 -0.7918 -0.7899
   3. Be 1 (px)     0.1982  0.0000  0.0000  0.0000 -0.0029  0.0000  0.0000  0.0000
   4. Be 1 (py)     0.0000  0.1982  0.0000 -0.0029  0.0000  0.0000  0.0000  0.0000
   5. Be 1 (pz)     0.0000  0.0000  0.0508  0.0000  0.0000 -0.0644 -0.7843  0.6964
   6. Be 1 (s)      0.0000  0.0000 -0.0535  0.0000  0.0000  2.0996  0.2577  2.1439
   7. Be 1 (px)     0.9454  0.0000  0.0000  0.0000 -0.2090  0.0000  0.0000  0.0000
   8. Be 1 (py)     0.0000  0.9454  0.0000 -0.2090  0.0000  0.0000  0.0000  0.0000
   9. Be 1 (pz)     0.0000  0.0000 -0.5730  0.0000  0.0000  0.6591  2.1207  0.6677
  10. Be 1 (d1)     0.0000  0.0000 -0.0054  0.0000  0.0000  0.0363 -0.0023  0.0258
  11. Be 1 (d4)     0.0000  0.0000 -0.0054  0.0000  0.0000  0.0363 -0.0023  0.0258
  12. Be 1 (d6)     0.0000  0.0000 -0.0117  0.0000  0.0000 -0.0183  0.0343  0.1120
  13. Be 1 (d2)     0.0000  0.0000  0.0000  0.0000  0.0000  0.0000  0.0000  0.0000
  14. Be 1 (d3)     0.0052  0.0000  0.0000  0.0000 -0.0214  0.0000  0.0000  0.0000
  15. Be 1 (d5)     0.0000  0.0052  0.0000 -0.0214  0.0000  0.0000  0.0000  0.0000
  16. Li 2 (s)      0.0000  0.0000 -0.0021  0.0000  0.0000  0.0713  0.1901  0.0738
  17. Li 2 (s)      0.0000  0.0000  2.3312  0.0000  0.0000 -0.1276  1.8359  1.5228
  18. Li 2 (px)     0.2106  0.0000  0.0000  0.0000  1.6560  0.0000  0.0000  0.0000
  19. Li 2 (py)     0.0000  0.2106  0.0000  1.6560  0.0000  0.0000  0.0000  0.0000
  20. Li 2 (pz)     0.0000  0.0000 -1.0751  0.0000  0.0000 -0.9944  1.2190  0.6174
  21. Li 2 (s)      0.0000  0.0000 -1.9816  0.0000  0.0000 -0.4739 -0.7238 -1.3256
  22. Li 2 (px)    -0.8155  0.0000  0.0000  0.0000 -1.2405  0.0000  0.0000  0.0000
  23. Li 2 (py)     0.0000 -0.8155  0.0000 -1.2405  0.0000  0.0000  0.0000  0.0000
  24. Li 2 (pz)     0.0000  0.0000  0.7212  0.0000  0.0000  0.1463 -0.6315 -0.8865
  25. Li 2 (d1)     0.0000  0.0000 -0.2168  0.0000  0.0000 -0.0623 -0.0489  0.1338
  26. Li 2 (d4)     0.0000  0.0000 -0.2168  0.0000  0.0000 -0.0623 -0.0489  0.1338
  27. Li 2 (d6)     0.0000  0.0000 -0.2199  0.0000  0.0000  0.1316  0.0075 -0.7357
  28. Li 2 (d2)     0.0000  0.0000  0.0000  0.0000  0.0000  0.0000  0.0000  0.0000
  29. Li 2 (d3)     0.0152  0.0000  0.0000  0.0000 -0.0451  0.0000  0.0000  0.0000
  30. Li 2 (d5)     0.0000  0.0152  0.0000 -0.0451  0.0000  0.0000  0.0000  0.0000
  31.  H 3 (s)      0.0000  0.0000  0.0267  0.0000  0.0000 -0.1107 -0.0944 -0.0524
  32.  H 3 (s)      0.0000  0.0000  0.4526  0.0000  0.0000 -1.3342 -0.3653 -1.4787

           AO         17      18      19      20      21      22      23      24
      ------------ ------- ------- ------- ------- ------- ------- ------- -------
   1. Be 1 (s)      0.0000  0.0000  0.0000  0.0000  0.0000  0.0000 -0.1036  0.1011
   2. Be 1 (s)      0.0000  0.0000  0.0000  0.0000  0.0000  0.0000 -2.6100  0.7304
   3. Be 1 (px)     0.0000  1.3105  0.0000  0.0000 -0.3640  0.0000  0.0000  0.0000
   4. Be 1 (py)     1.3105  0.0000  0.0000  0.0000  0.0000 -0.3640  0.0000  0.0000
   5. Be 1 (pz)     0.0000  0.0000  0.0000  0.0000  0.0000  0.0000  0.3906  0.9253
   6. Be 1 (s)      0.0000  0.0000  0.0000  0.0000  0.0000  0.0000  3.1733 -1.3587
   7. Be 1 (px)     0.0000 -1.2639  0.0000  0.0000 -0.0567  0.0000  0.0000  0.0000
   8. Be 1 (py)    -1.2639  0.0000  0.0000  0.0000  0.0000 -0.0567  0.0000  0.0000
   9. Be 1 (pz)     0.0000  0.0000  0.0000  0.0000  0.0000  0.0000 -2.3743  2.6396
  10. Be 1 (d1)     0.0000  0.0000  0.0000  0.0457  0.0000  0.0000  0.0447 -0.1961
  11. Be 1 (d4)     0.0000  0.0000  0.0000 -0.0457  0.0000  0.0000  0.0447 -0.1961
  12. Be 1 (d6)     0.0000  0.0000  0.0000  0.0000  0.0000  0.0000  0.0421  0.2042
  13. Be 1 (d2)     0.0000  0.0000  0.0528  0.0000  0.0000  0.0000  0.0000  0.0000
  14. Be 1 (d3)     0.0000 -0.0263  0.0000  0.0000 -0.1431  0.0000  0.0000  0.0000
  15. Be 1 (d5)    -0.0263  0.0000  0.0000  0.0000  0.0000 -0.1431  0.0000  0.0000
  16. Li 2 (s)      0.0000  0.0000  0.0000  0.0000  0.0000  0.0000 -0.2392  0.1997
  17. Li 2 (s)      0.0000  0.0000  0.0000  0.0000  0.0000  0.0000 -1.3943  0.6569
  18. Li 2 (px)     0.0000 -0.0531  0.0000  0.0000  0.0786  0.0000  0.0000  0.0000
  19. Li 2 (py)    -0.0531  0.0000  0.0000  0.0000  0.0000  0.0786  0.0000  0.0000
  20. Li 2 (pz)     0.0000  0.0000  0.0000  0.0000  0.0000  0.0000 -0.9720  2.1349
  21. Li 2 (s)      0.0000  0.0000  0.0000  0.0000  0.0000  0.0000 -0.5592  0.5374
  22. Li 2 (px)     0.0000  0.3577  0.0000  0.0000  0.0410  0.0000  0.0000  0.0000
  23. Li 2 (py)     0.3577  0.0000  0.0000  0.0000  0.0000  0.0410  0.0000  0.0000
  24. Li 2 (pz)     0.0000  0.0000  0.0000  0.0000  0.0000  0.0000 -0.3180 -0.3095
  25. Li 2 (d1)     0.0000  0.0000  0.0000  0.8623  0.0000  0.0000 -0.1760  0.0138
  26. Li 2 (d4)     0.0000  0.0000  0.0000 -0.8623  0.0000  0.0000 -0.1760  0.0138
  27. Li 2 (d6)     0.0000  0.0000  0.0000  0.0000  0.0000  0.0000  0.2984  1.5427
  28. Li 2 (d2)     0.0000  0.0000  0.9957  0.0000  0.0000  0.0000  0.0000  0.0000
  29. Li 2 (d3)     0.0000  0.2628  0.0000  0.0000  0.9709  0.0000  0.0000  0.0000
  30. Li 2 (d5)     0.2628  0.0000  0.0000  0.0000  0.0000  0.9709  0.0000  0.0000
  31.  H 3 (s)      0.0000  0.0000  0.0000  0.0000  0.0000  0.0000  0.1650  0.0770
  32.  H 3 (s)      0.0000  0.0000  0.0000  0.0000  0.0000  0.0000  0.9934 -2.2594

           AO         25      26      27      28      29      30      31      32
      ------------ ------- ------- ------- ------- ------- ------- ------- -------
   1. Be 1 (s)      0.0000  0.0000 -0.0055  0.0000  0.0000  0.0216  0.1442 -0.2997
   2. Be 1 (s)      0.0000  0.0000  0.0737  0.0000  0.0000  0.2209  0.0153  6.7669
   3. Be 1 (px)     0.0000  0.0000  0.0000  0.0000 -0.0050  0.0000  0.0000  0.0000
   4. Be 1 (py)     0.0000  0.0000  0.0000 -0.0050  0.0000  0.0000  0.0000  0.0000
   5. Be 1 (pz)     0.0000  0.0000  0.5436  0.0000  0.0000 -0.1631 -0.2015 -0.0063
   6. Be 1 (s)      0.0000  0.0000 -1.8485  0.0000  0.0000 -0.5109 -1.1246 -0.5257
   7. Be 1 (px)     0.0000  0.0000  0.0000  0.0000 -0.2164  0.0000  0.0000  0.0000
   8. Be 1 (py)     0.0000  0.0000  0.0000 -0.2164  0.0000  0.0000  0.0000  0.0000
   9. Be 1 (pz)     0.0000  0.0000 -0.3349  0.0000  0.0000  1.5751  2.3121  0.2567
  10. Be 1 (d1)     0.8661  0.0000  0.3563  0.0000  0.0000 -0.1626  0.6114 -2.8027
  11. Be 1 (d4)    -0.8661  0.0000  0.3563  0.0000  0.0000 -0.1626  0.6114 -2.8027
  12. Be 1 (d6)     0.0000  0.0000 -0.7291  0.0000  0.0000  0.4697 -0.8849 -3.0288
  13. Be 1 (d2)     0.0000  1.0001  0.0000  0.0000  0.0000  0.0000  0.0000  0.0000
  14. Be 1 (d3)     0.0000  0.0000  0.0000  0.0000  1.0377  0.0000  0.0000  0.0000
  15. Be 1 (d5)     0.0000  0.0000  0.0000  1.0377  0.0000  0.0000  0.0000  0.0000
  16. Li 2 (s)      0.0000  0.0000  0.0054  0.0000  0.0000  0.2430  0.2169  0.0022
  17. Li 2 (s)      0.0000  0.0000  1.9425  0.0000  0.0000 10.6678  2.7682  0.1229
  18. Li 2 (px)     0.0000  0.0000  0.0000  0.0000  0.2674  0.0000  0.0000  0.0000
  19. Li 2 (py)     0.0000  0.0000  0.0000  0.2674  0.0000  0.0000  0.0000  0.0000
  20. Li 2 (pz)     0.0000  0.0000  0.9188  0.0000  0.0000  0.7329  1.6480  0.2083
  21. Li 2 (s)      0.0000  0.0000 -0.1959  0.0000  0.0000 -2.9304 -0.3021  0.0165
  22. Li 2 (px)     0.0000  0.0000  0.0000  0.0000 -0.0451  0.0000  0.0000  0.0000
  23. Li 2 (py)     0.0000  0.0000  0.0000 -0.0451  0.0000  0.0000  0.0000  0.0000
  24. Li 2 (pz)     0.0000  0.0000 -0.0471  0.0000  0.0000 -0.0609 -0.2810 -0.0523
  25. Li 2 (d1)    -0.0927  0.0000 -0.8118  0.0000  0.0000 -3.2937 -0.5658 -0.0309
  26. Li 2 (d4)     0.0927  0.0000 -0.8118  0.0000  0.0000 -3.2937 -0.5658 -0.0309
  27. Li 2 (d6)     0.0000  0.0000  0.2074  0.0000  0.0000 -3.1538  0.2189  0.1628
  28. Li 2 (d2)     0.0000 -0.1071  0.0000  0.0000  0.0000  0.0000  0.0000  0.0000
  29. Li 2 (d3)     0.0000  0.0000  0.0000  0.0000  0.4383  0.0000  0.0000  0.0000
  30. Li 2 (d5)     0.0000  0.0000  0.0000  0.4383  0.0000  0.0000  0.0000  0.0000
  31.  H 3 (s)      0.0000  0.0000 -0.7713  0.0000  0.0000  0.0379  1.4064  0.2802
  32.  H 3 (s)      0.0000  0.0000  1.6643  0.0000  0.0000 -1.0448 -1.9348 -0.2833


 NOs in the AO basis:

           AO          1       2       3       4       5       6       7       8
      ------------ ------- ------- ------- ------- ------- ------- ------- -------
   1. Be 1 (s)      0.7542  0.0419 -0.6717  0.0855  0.0052  0.0000  0.0000  0.0211
   2. Be 1 (s)      0.1115 -0.0339  0.1425 -0.1169 -0.0350  0.0000  0.0000  0.0496
   3. Be 1 (px)     0.0000  0.0000  0.0000  0.0000 -0.1318 -0.2419  0.0000 -0.7450
   4. Be 1 (py)     0.0000  0.0000  0.0000  0.0000  0.1354  0.0051 -0.2248 -0.1140
   5. Be 1 (pz)     0.1189 -0.1093  0.1673  0.2714  0.0017  0.0000  0.0000  0.0382
   6. Be 1 (s)      0.0851 -0.0039  0.1551 -0.2042  0.0012  0.0000  0.0000 -0.0379
   7. Be 1 (px)     0.0000  0.0000  0.0000  0.0000  0.0668  0.5275  0.0000 -0.2168
   8. Be 1 (py)     0.0000  0.0000  0.0000  0.0000  0.8961 -0.0156  0.4738 -0.0048
   9. Be 1 (pz)     0.0495 -0.0535  0.0645  0.0902 -0.0098  0.0000  0.0000  0.1449
  10. Be 1 (d1)    -0.0036  0.0053 -0.0075 -0.0144 -0.0334  0.0000  0.0000 -0.1113
  11. Be 1 (d4)    -0.0036  0.0053 -0.0075 -0.0144  0.0518  0.0000  0.0000 -0.0100
  12. Be 1 (d6)     0.0329 -0.0110  0.0443 -0.0124 -0.0042  0.0000  0.0000 -0.0244
  13. Be 1 (d2)     0.0000  0.0000  0.0000  0.0000  0.0000 -0.0197 -0.0001  0.0000
  14. Be 1 (d3)     0.0000  0.0000  0.0000  0.0000  0.0000  0.0565  0.0000  0.0000
  15. Be 1 (d5)     0.0000  0.0000  0.0000  0.0000  0.0000  0.0676  0.0481  0.0000
  16. Li 2 (s)      0.1316  0.9222  0.2218  0.3144 -0.0036  0.0000  0.0000 -0.0220
  17. Li 2 (s)      0.0280  0.0036  0.0470 -0.2311  0.0387  0.0000  0.0000  0.0767
  18. Li 2 (px)     0.0000  0.0000  0.0000  0.0000  0.0000  1.1471  0.0000  0.0000
  19. Li 2 (py)     0.0000  0.0000  0.0000  0.0000  0.0000  0.0286  1.2605  0.0000
  20. Li 2 (pz)     0.0306  0.0070  0.0541 -0.2285 -0.0327  0.0000  0.0000 -0.2260
  21. Li 2 (s)      0.0160  0.0455  0.0339 -0.3089 -0.0224  0.0000  0.0000 -0.0130
  22. Li 2 (px)     0.0000  0.0000  0.0000  0.0000  0.0000 -1.7521  0.0000  0.0000
  23. Li 2 (py)     0.0000  0.0000  0.0000  0.0000  0.0000  0.0000 -1.7647  0.0000
  24. Li 2 (pz)     0.0039  0.0064  0.0035 -0.0114  0.0316  0.0000  0.0000  0.0633
  25. Li 2 (d1)    -0.0015  0.0115 -0.0016  0.0013  0.0470  0.0000  0.0000  0.1887
  26. Li 2 (d4)    -0.0015  0.0115 -0.0016  0.0013 -0.0296  0.0000  0.0000 -0.0387
  27. Li 2 (d6)     0.0090  0.0063  0.0163 -0.0225 -0.0088  0.0000  0.0000  0.2311
  28. Li 2 (d2)     0.0000  0.0000  0.0000  0.0000  0.0000  0.0000  0.0027  0.0000
  29. Li 2 (d3)     0.0000  0.0000  0.0000  0.0000  0.0000  0.0000  0.0000  0.0000
  30. Li 2 (d5)     0.0000  0.0000  0.0000  0.0000  0.0000  0.0000  0.0000  0.0000
  31.  H 3 (s)      0.1585 -0.0964  0.2320  0.0835  0.0255  0.0000  0.0000  0.0479
  32.  H 3 (s)      0.1716 -0.1074  0.2533  0.1500 -0.0032  0.0000  0.0000 -0.0882

           AO          9      10      11      12      13      14      15      16
      ------------ ------- ------- ------- ------- ------- ------- ------- -------
   1. Be 1 (s)      0.0000  0.0000 -0.0294 -0.0293  0.0708 -0.0053  0.0000  0.0028
   2. Be 1 (s)      0.0000  0.0000 -0.0605  0.2907 -0.3539  0.0290  0.0000 -0.0868
   3. Be 1 (px)     0.1544  0.0005 -0.4055 -0.9007 -0.2715  0.1194  0.0000  0.0173
   4. Be 1 (py)    -0.0428 -0.1747  0.0107 -0.0722 -0.0650 -1.3283  0.0006  0.0109
   5. Be 1 (pz)     0.0000  0.0000 -0.2614 -0.3422 -0.0772  0.0025  0.0000 -0.8843
   6. Be 1 (s)      0.0000  0.0000 -0.0185 -0.0306 -0.1873  0.0125  0.0000  0.2583
   7. Be 1 (px)    -0.4975  0.0013  0.0490  1.1936  0.3529 -0.0641  0.0000 -0.0461
   8. Be 1 (py)     0.1311  0.5353  0.0074  0.0000  0.0117  1.0037 -0.0013  0.0010
   9. Be 1 (pz)     0.0000  0.0000 -0.3058 -0.0441 -0.4347  0.0093  0.0000  0.1472
  10. Be 1 (d1)     0.0000  0.0000  0.0927 -0.0536 -0.0413  0.0277  0.0000  0.2590
  11. Be 1 (d4)     0.0000  0.0000 -0.0331  0.0365 -0.4559 -0.0331  0.0000 -0.1899
  12. Be 1 (d6)     0.0000  0.0000  0.0760 -0.1878  0.0256 -0.0028  0.0000  0.2694
  13. Be 1 (d2)     0.0685 -0.0686  0.0000  0.0000  0.0000  0.0000 -0.0544  0.0000
  14. Be 1 (d3)    -0.0775  0.0810  0.0000  0.0000  0.0000  0.0000  0.0000  0.0000
  15. Be 1 (d5)    -0.3387  0.3728  0.0000  0.0000  0.0000  0.0000 -0.0001  0.0000
  16. Li 2 (s)      0.0000  0.0000  0.0239  0.0105 -0.0677  0.0032  0.0000 -0.0248
  17. Li 2 (s)      0.0000  0.0000 -0.1649 -0.0667  0.2888 -0.0228  0.0000  0.2860
  18. Li 2 (px)     1.1533 -0.0309  0.0000  0.0000  0.0000  0.0000  0.0000  0.0000
  19. Li 2 (py)    -0.2397 -0.9787  0.0000  0.0000  0.0000  0.0000 -0.0034  0.0000
  20. Li 2 (pz)     0.0000  0.0000  0.4144 -0.2198 -0.0664  0.0197  0.0000 -0.4384
  21. Li 2 (s)      0.0000  0.0000  0.1318 -0.0556 -0.1230  0.0116  0.0000  0.5360
  22. Li 2 (px)    -0.2022  0.0237  0.0000  0.0000  0.0000  0.0000  0.0000  0.0000
  23. Li 2 (py)     0.0000  0.0000  0.0000  0.0000  0.0000  0.0000  0.0047  0.0000
  24. Li 2 (pz)     0.0000  0.0000 -0.2243 -0.1101  0.6155 -0.0326  0.0000 -0.3305
  25. Li 2 (d1)     0.0000  0.0000 -0.7471 -0.0187  0.2227 -0.0431  0.0000  0.0763
  26. Li 2 (d4)     0.0000  0.0000  0.3673 -0.2255  0.0481  0.0206  0.0000 -0.1999
  27. Li 2 (d6)     0.0000  0.0000 -0.4177  0.1372 -0.3574  0.0081  0.0000 -1.3763
  28. Li 2 (d2)     0.0000  0.0000  0.0000  0.0000  0.0000  0.0000  1.0015  0.0000
  29. Li 2 (d3)     0.0000  0.0000  0.0000  0.0000  0.0000  0.0000  0.0000  0.0000
  30. Li 2 (d5)     0.0000  0.0000  0.0000  0.0000  0.0000  0.0000  0.0000  0.0000
  31.  H 3 (s)      0.0000  0.0000  0.0567  0.1296  0.3665 -0.0231  0.0000 -0.2049
  32.  H 3 (s)      0.0000  0.0000  0.2942  0.1861  0.3418 -0.0036  0.0000  0.4872

           AO         17      18      19      20      21      22      23      24
      ------------ ------- ------- ------- ------- ------- ------- ------- -------
   1. Be 1 (s)      0.1138  0.0400 -0.0073  0.0000  0.0000  0.0297 -0.0677  0.0104
   2. Be 1 (s)      1.5679 -0.1997  0.6608  0.0000  0.0000 -0.2174  0.2847 -0.0605
   3. Be 1 (px)     0.0018 -0.2910  0.2557  0.0001 -0.0076 -0.0001 -0.1516 -0.0317
   4. Be 1 (py)    -0.0012  0.0017  0.0677 -0.0076 -0.0001 -0.0013  0.0256 -0.0038
   5. Be 1 (pz)    -0.3753  0.9027 -0.2900  0.0000  0.0000 -0.5140  0.3069  0.1705
   6. Be 1 (s)     -3.5617  0.1029 -0.2352  0.0000  0.0000  1.5318  0.1251 -0.2553
   7. Be 1 (px)     0.0009  0.4079 -0.1684  0.0036 -0.4174  0.0025  0.0302 -0.0527
   8. Be 1 (py)     0.0012  0.0000  0.0056 -0.4174 -0.0036  0.0000  0.0030  0.0063
   9. Be 1 (pz)    -0.0985  0.6112  0.0489  0.0000  0.0000  2.5605  0.1909  0.0201
  10. Be 1 (d1)     0.2005  0.2315  0.0750  0.0000  0.0000  0.0305  0.4957  0.1038
  11. Be 1 (d4)     0.2110 -0.0607 -0.8861  0.0000  0.0000  0.0644 -0.6536 -0.0686
  12. Be 1 (d6)     0.0728  0.5376 -0.1110  0.0000  0.0000  0.4549 -0.4305  1.0993
  13. Be 1 (d2)     0.0000  0.0000  0.0000  0.0000  0.0000  0.0000  0.0000  0.0000
  14. Be 1 (d3)     0.0000  0.0000  0.0000 -0.0025  0.2822  0.0000  0.0000  0.0000
  15. Be 1 (d5)     0.0000  0.0000  0.0000  0.2822  0.0025  0.0000  0.0000  0.0000
  16. Li 2 (s)     -0.0083  0.0062 -0.0282  0.0000  0.0000  0.2598  0.0479  0.0510
  17. Li 2 (s)     -1.8539 -0.3929 -0.4168  0.0000  0.0000  0.6373  0.2083 -0.8972
  18. Li 2 (px)     0.0000  0.0000  0.0000 -0.0009  0.0982  0.0000  0.0000  0.0000
  19. Li 2 (py)     0.0000  0.0000  0.0000  0.0982  0.0009  0.0000  0.0000  0.0000
  20. Li 2 (pz)    -0.6103  0.5612 -0.1739  0.0000  0.0000  0.2080  0.0809  0.5285
  21. Li 2 (s)      1.4455  0.2750  0.0720  0.0000  0.0000 -0.9596 -0.0794  0.0163
  22. Li 2 (px)     0.0000  0.0000  0.0000 -0.0012  0.1418  0.0000  0.0000  0.0000
  23. Li 2 (py)     0.0000  0.0000  0.0000  0.1418  0.0012  0.0000  0.0000  0.0000
  24. Li 2 (pz)     1.6105 -0.4820 -0.1868  0.0000  0.0000 -0.0831  0.4156 -0.5111
  25. Li 2 (d1)     0.5982  0.1634 -0.2105  0.0000  0.0000  0.4764 -0.0798  0.7489
  26. Li 2 (d4)     0.8136  0.8039  0.3632  0.0000  0.0000  0.6539 -0.4194 -0.0154
  27. Li 2 (d6)     0.5085  0.2347  0.6114  0.0000  0.0000  0.0200  0.2894  0.0958
  28. Li 2 (d2)     0.0000  0.0000  0.0000  0.0000  0.0000  0.0000  0.0000  0.0000
  29. Li 2 (d3)     0.0000  0.0000  0.0000 -0.0096  1.0982  0.0000  0.0000  0.0000
  30. Li 2 (d5)     0.0000  0.0000  0.0000  1.0982  0.0096  0.0000  0.0000  0.0000
  31.  H 3 (s)     -0.4147 -0.5637  0.2224  0.0000  0.0000  0.5428 -0.3609 -0.3752
  32.  H 3 (s)      1.2170 -0.7857  0.1795  0.0000  0.0000 -2.8090 -0.1135 -0.1928

           AO         25      26      27      28      29      30      31      32
      ------------ ------- ------- ------- ------- ------- ------- ------- -------
   1. Be 1 (s)     -0.0089 -0.0169  0.0000 -0.2713  0.0000  0.0000  0.0090 -0.2537
   2. Be 1 (s)      0.9847  0.3259  0.0000  0.8143  0.0000  0.0000  3.5739  6.0620
   3. Be 1 (px)    -0.0074  0.0078 -0.0905 -0.0030 -0.0214 -0.0089  0.0008 -0.0021
   4. Be 1 (py)     0.0012  0.0004 -0.0897  0.0015  0.0065  0.0054  0.0000 -0.0007
   5. Be 1 (pz)     0.2140 -0.0926  0.0000 -0.1426  0.0000  0.0000 -0.0618  0.1015
   6. Be 1 (s)      0.2973 -0.2057  0.0000  2.5633  0.0000  0.0000 -2.6074 -0.4721
   7. Be 1 (px)    -0.0184 -0.0495  0.2713  0.0016  0.0676  0.0262  0.0000  0.0008
   8. Be 1 (py)    -0.0024 -0.0015  0.2749 -0.0016 -0.0199 -0.0166  0.0000  0.0009
   9. Be 1 (pz)    -0.7381  0.0095  0.0000 -2.9385  0.0000  0.0000  3.1943  0.0426
  10. Be 1 (d1)     0.1686  0.3832  0.0000 -0.9536  0.0000  0.0000 -0.9905 -2.5808
  11. Be 1 (d4)    -0.2013  0.1331  0.0000 -0.9091  0.0000  0.0000 -0.9737 -2.4136
  12. Be 1 (d6)    -0.2823 -0.9632  0.0000 -0.2016  0.0000  0.0000 -1.0638 -2.5625
  13. Be 1 (d2)     0.0000  0.0000  0.1380  0.0000 -0.2631  0.9497  0.0000  0.0000
  14. Be 1 (d3)     0.0000  0.0000 -0.2002  0.0000 -0.9556 -0.2230  0.0000  0.0000
  15. Be 1 (d5)     0.0000  0.0000 -0.8216  0.0000  0.1831  0.2229  0.0000  0.0000
  16. Li 2 (s)     -0.0673  0.0582  0.0000 -0.1659  0.0000  0.0000  0.3769 -0.0827
  17. Li 2 (s)     -0.4118 -0.8521  0.0000  1.3743  0.0000  0.0000 10.3708 -4.8625
  18. Li 2 (px)     0.0000  0.0000 -0.4372  0.0000 -0.1428 -0.0376  0.0000  0.0000
  19. Li 2 (py)     0.0000  0.0000 -0.5027  0.0000  0.0364  0.0304  0.0000  0.0000
  20. Li 2 (pz)    -0.9139  0.9292  0.0000 -2.4555  0.0000  0.0000  2.1165  0.1358
  21. Li 2 (s)      0.1823 -0.7583  0.0000 -2.4478  0.0000  0.0000 -2.4148  1.9190
  22. Li 2 (px)     0.0000  0.0000 -0.0488  0.0000  0.0159 -0.0086  0.0000  0.0000
  23. Li 2 (py)     0.0000  0.0000  0.0000  0.0000  0.0000  0.0000  0.0000  0.0000
  24. Li 2 (pz)     0.3173 -1.0001  0.0000  0.1828  0.0000  0.0000 -0.1788 -0.0319
  25. Li 2 (d1)     0.0136  0.8698  0.0000 -0.5632  0.0000  0.0000 -2.7560  1.4644
  26. Li 2 (d4)    -0.0522  0.7847  0.0000 -0.4137  0.0000  0.0000 -2.7717  1.3944
  27. Li 2 (d6)    -0.4757  0.6795  0.0000 -1.6247  0.0000  0.0000 -2.1400  1.4853
  28. Li 2 (d2)     0.0000  0.0000  0.0000  0.0000  0.0000  0.0000  0.0000  0.0000
  29. Li 2 (d3)     0.0000  0.0000  0.0000  0.0000  0.0000  0.0000  0.0000  0.0000
  30. Li 2 (d5)     0.0000  0.0000  0.0000  0.0000  0.0000  0.0000  0.0000  0.0000
  31.  H 3 (s)      0.8680  0.2961  0.0000 -0.6760  0.0000  0.0000  0.3015  0.1357
  32.  H 3 (s)     -1.0063  0.5079  0.0000  1.7862  0.0000  0.0000 -1.7371 -0.2638


 AO overlap matrix:

           AO          1       2       3       4       5       6       7       8
      ------------ ------- ------- ------- ------- ------- ------- ------- -------
   1. Be 1 (s)      1.0000  0.1907  0.0000  0.0000  0.0000  0.2079  0.0000  0.0000
   2. Be 1 (s)      0.1907  1.0000  0.0000  0.0000  0.0000  0.8713  0.0000  0.0000
   3. Be 1 (px)     0.0000  0.0000  1.0000  0.0000  0.0000  0.0000  0.6691  0.0000
   4. Be 1 (py)     0.0000  0.0000  0.0000  1.0000  0.0000  0.0000  0.0000  0.6691
   5. Be 1 (pz)     0.0000  0.0000  0.0000  0.0000  1.0000  0.0000  0.0000  0.0000
   6. Be 1 (s)      0.2079  0.8713  0.0000  0.0000  0.0000  1.0000  0.0000  0.0000
   7. Be 1 (px)     0.0000  0.0000  0.6691  0.0000  0.0000  0.0000  1.0000  0.0000
   8. Be 1 (py)     0.0000  0.0000  0.0000  0.6691  0.0000  0.0000  0.0000  1.0000
   9. Be 1 (pz)     0.0000  0.0000  0.0000  0.0000  0.6691  0.0000  0.0000  0.0000
  10. Be 1 (d1)     0.1026  0.7346  0.0000  0.0000  0.0000  0.6250  0.0000  0.0000
  11. Be 1 (d4)     0.1026  0.7346  0.0000  0.0000  0.0000  0.6250  0.0000  0.0000
  12. Be 1 (d6)     0.1026  0.7346  0.0000  0.0000  0.0000  0.6250  0.0000  0.0000
  13. Be 1 (d2)     0.0000  0.0000  0.0000  0.0000  0.0000  0.0000  0.0000  0.0000
  14. Be 1 (d3)     0.0000  0.0000  0.0000  0.0000  0.0000  0.0000  0.0000  0.0000
  15. Be 1 (d5)     0.0000  0.0000  0.0000  0.0000  0.0000  0.0000  0.0000  0.0000
  16. Li 2 (s)      0.0000  0.0178  0.0000  0.0000 -0.0406  0.0694  0.0000  0.0000
  17. Li 2 (s)      0.0470  0.2898  0.0000  0.0000 -0.2527  0.4543  0.0000  0.0000
  18. Li 2 (px)     0.0000  0.0000  0.1874  0.0000  0.0000  0.0000  0.4275  0.0000
  19. Li 2 (py)     0.0000  0.0000  0.0000  0.1874  0.0000  0.0000  0.0000  0.4275
  20. Li 2 (pz)     0.0997  0.4794  0.0000  0.0000 -0.2767  0.5525  0.0000  0.0000
  21. Li 2 (s)      0.0566  0.3311  0.0000  0.0000 -0.1590  0.5310  0.0000  0.0000
  22. Li 2 (px)     0.0000  0.0000  0.1861  0.0000  0.0000  0.0000  0.4885  0.0000
  23. Li 2 (py)     0.0000  0.0000  0.0000  0.1861  0.0000  0.0000  0.0000  0.4885
  24. Li 2 (pz)     0.0949  0.4800  0.0000  0.0000 -0.0495  0.6314  0.0000  0.0000
  25. Li 2 (d1)     0.0011  0.0760  0.0000  0.0000 -0.1078  0.2171  0.0000  0.0000
  26. Li 2 (d4)     0.0011  0.0760  0.0000  0.0000 -0.1078  0.2171  0.0000  0.0000
  27. Li 2 (d6)     0.0733  0.3928  0.0000  0.0000 -0.4211  0.4286  0.0000  0.0000
  28. Li 2 (d2)     0.0000  0.0000  0.0000  0.0000  0.0000  0.0000  0.0000  0.0000
  29. Li 2 (d3)     0.0000  0.0000  0.2204  0.0000  0.0000  0.0000  0.2834  0.0000
  30. Li 2 (d5)     0.0000  0.0000  0.0000  0.2204  0.0000  0.0000  0.0000  0.2834
  31.  H 3 (s)      0.0306  0.2979  0.0000  0.0000  0.4393  0.2942  0.0000  0.0000
  32.  H 3 (s)      0.1324  0.5837  0.0000  0.0000  0.4953  0.6623  0.0000  0.0000

           AO          9      10      11      12      13      14      15      16
      ------------ ------- ------- ------- ------- ------- ------- ------- -------
   1. Be 1 (s)      0.0000  0.1026  0.1026  0.1026  0.0000  0.0000  0.0000  0.0000
   2. Be 1 (s)      0.0000  0.7346  0.7346  0.7346  0.0000  0.0000  0.0000  0.0178
   3. Be 1 (px)     0.0000  0.0000  0.0000  0.0000  0.0000  0.0000  0.0000  0.0000
   4. Be 1 (py)     0.0000  0.0000  0.0000  0.0000  0.0000  0.0000  0.0000  0.0000
   5. Be 1 (pz)     0.6691  0.0000  0.0000  0.0000  0.0000  0.0000  0.0000 -0.0406
   6. Be 1 (s)      0.0000  0.6250  0.6250  0.6250  0.0000  0.0000  0.0000  0.0694
   7. Be 1 (px)     0.0000  0.0000  0.0000  0.0000  0.0000  0.0000  0.0000  0.0000
   8. Be 1 (py)     0.0000  0.0000  0.0000  0.0000  0.0000  0.0000  0.0000  0.0000
   9. Be 1 (pz)     1.0000  0.0000  0.0000  0.0000  0.0000  0.0000  0.0000 -0.1648
  10. Be 1 (d1)     0.0000  1.0000  0.3333  0.3333  0.0000  0.0000  0.0000  0.0011
  11. Be 1 (d4)     0.0000  0.3333  1.0000  0.3333  0.0000  0.0000  0.0000  0.0011
  12. Be 1 (d6)     0.0000  0.3333  0.3333  1.0000  0.0000  0.0000  0.0000  0.0226
  13. Be 1 (d2)     0.0000  0.0000  0.0000  0.0000  1.0000  0.0000  0.0000  0.0000
  14. Be 1 (d3)     0.0000  0.0000  0.0000  0.0000  0.0000  1.0000  0.0000  0.0000
  15. Be 1 (d5)     0.0000  0.0000  0.0000  0.0000  0.0000  0.0000  1.0000  0.0000
  16. Li 2 (s)     -0.1648  0.0011  0.0011  0.0226  0.0000  0.0000  0.0000  1.0000
  17. Li 2 (s)     -0.5507  0.1746  0.1746  0.2580  0.0000  0.0000  0.0000  0.1453
  18. Li 2 (px)     0.0000  0.0000  0.0000  0.0000  0.0000 -0.1138  0.0000  0.0000
  19. Li 2 (py)     0.0000  0.0000  0.0000  0.0000  0.0000  0.0000 -0.1138  0.0000
  20. Li 2 (pz)    -0.2862  0.3242  0.3242  0.3824  0.0000  0.0000  0.0000  0.0000
  21. Li 2 (s)     -0.4174  0.2213  0.2213  0.2480  0.0000  0.0000  0.0000  0.1857
  22. Li 2 (px)     0.0000  0.0000  0.0000  0.0000  0.0000 -0.0540  0.0000  0.0000
  23. Li 2 (py)     0.0000  0.0000  0.0000  0.0000  0.0000  0.0000 -0.0540  0.0000
  24. Li 2 (pz)    -0.0077  0.3470  0.3470  0.3264  0.0000  0.0000  0.0000  0.0000
  25. Li 2 (d1)    -0.3976  0.0544  0.0181  0.0672  0.0000  0.0000  0.0000  0.0996
  26. Li 2 (d4)    -0.3976  0.0181  0.0544  0.0672  0.0000  0.0000  0.0000  0.0996
  27. Li 2 (d6)    -0.4576  0.2143  0.2143  0.4380  0.0000  0.0000  0.0000  0.0996
  28. Li 2 (d2)     0.0000  0.0000  0.0000  0.0000  0.0544  0.0000  0.0000  0.0000
  29. Li 2 (d3)     0.0000  0.0000  0.0000  0.0000  0.0000 -0.2398  0.0000  0.0000
  30. Li 2 (d5)     0.0000  0.0000  0.0000  0.0000  0.0000  0.0000 -0.2398  0.0000
  31.  H 3 (s)      0.3708  0.0808  0.0808  0.5216  0.0000  0.0000  0.0000  0.0000
  32.  H 3 (s)      0.6180  0.3542  0.3542  0.5523  0.0000  0.0000  0.0000  0.0006

           AO         17      18      19      20      21      22      23      24
      ------------ ------- ------- ------- ------- ------- ------- ------- -------
   1. Be 1 (s)      0.0470  0.0000  0.0000  0.0997  0.0566  0.0000  0.0000  0.0949
   2. Be 1 (s)      0.2898  0.0000  0.0000  0.4794  0.3311  0.0000  0.0000  0.4800
   3. Be 1 (px)     0.0000  0.1874  0.0000  0.0000  0.0000  0.1861  0.0000  0.0000
   4. Be 1 (py)     0.0000  0.0000  0.1874  0.0000  0.0000  0.0000  0.1861  0.0000
   5. Be 1 (pz)    -0.2527  0.0000  0.0000 -0.2767 -0.1590  0.0000  0.0000 -0.0495
   6. Be 1 (s)      0.4543  0.0000  0.0000  0.5525  0.5310  0.0000  0.0000  0.6314
   7. Be 1 (px)     0.0000  0.4275  0.0000  0.0000  0.0000  0.4885  0.0000  0.0000
   8. Be 1 (py)     0.0000  0.0000  0.4275  0.0000  0.0000  0.0000  0.4885  0.0000
   9. Be 1 (pz)    -0.5507  0.0000  0.0000 -0.2862 -0.4174  0.0000  0.0000 -0.0077
  10. Be 1 (d1)     0.1746  0.0000  0.0000  0.3242  0.2213  0.0000  0.0000  0.3470
  11. Be 1 (d4)     0.1746  0.0000  0.0000  0.3242  0.2213  0.0000  0.0000  0.3470
  12. Be 1 (d6)     0.2580  0.0000  0.0000  0.3824  0.2480  0.0000  0.0000  0.3264
  13. Be 1 (d2)     0.0000  0.0000  0.0000  0.0000  0.0000  0.0000  0.0000  0.0000
  14. Be 1 (d3)     0.0000 -0.1138  0.0000  0.0000  0.0000 -0.0540  0.0000  0.0000
  15. Be 1 (d5)     0.0000  0.0000 -0.1138  0.0000  0.0000  0.0000 -0.0540  0.0000
  16. Li 2 (s)      0.1453  0.0000  0.0000  0.0000  0.1857  0.0000  0.0000  0.0000
  17. Li 2 (s)      1.0000  0.0000  0.0000  0.0000  0.9055  0.0000  0.0000  0.0000
  18. Li 2 (px)     0.0000  1.0000  0.0000  0.0000  0.0000  0.8021  0.0000  0.0000
  19. Li 2 (py)     0.0000  0.0000  1.0000  0.0000  0.0000  0.0000  0.8021  0.0000
  20. Li 2 (pz)     0.0000  0.0000  0.0000  1.0000  0.0000  0.0000  0.0000  0.8021
  21. Li 2 (s)      0.9055  0.0000  0.0000  0.0000  1.0000  0.0000  0.0000  0.0000
  22. Li 2 (px)     0.0000  0.8021  0.0000  0.0000  0.0000  1.0000  0.0000  0.0000
  23. Li 2 (py)     0.0000  0.0000  0.8021  0.0000  0.0000  0.0000  1.0000  0.0000
  24. Li 2 (pz)     0.0000  0.0000  0.0000  0.8021  0.0000  0.0000  0.0000  1.0000
  25. Li 2 (d1)     0.7243  0.0000  0.0000  0.0000  0.5965  0.0000  0.0000  0.0000
  26. Li 2 (d4)     0.7243  0.0000  0.0000  0.0000  0.5965  0.0000  0.0000  0.0000
  27. Li 2 (d6)     0.7243  0.0000  0.0000  0.0000  0.5965  0.0000  0.0000  0.0000
  28. Li 2 (d2)     0.0000  0.0000  0.0000  0.0000  0.0000  0.0000  0.0000  0.0000
  29. Li 2 (d3)     0.0000  0.0000  0.0000  0.0000  0.0000  0.0000  0.0000  0.0000
  30. Li 2 (d5)     0.0000  0.0000  0.0000  0.0000  0.0000  0.0000  0.0000  0.0000
  31.  H 3 (s)      0.0156  0.0000  0.0000  0.0478  0.0516  0.0000  0.0000  0.1294
  32.  H 3 (s)      0.0753  0.0000  0.0000  0.1735  0.1633  0.0000  0.0000  0.3524

           AO         25      26      27      28      29      30      31      32
      ------------ ------- ------- ------- ------- ------- ------- ------- -------
   1. Be 1 (s)      0.0011  0.0011  0.0733  0.0000  0.0000  0.0000  0.0306  0.1324
   2. Be 1 (s)      0.0760  0.0760  0.3928  0.0000  0.0000  0.0000  0.2979  0.5837
   3. Be 1 (px)     0.0000  0.0000  0.0000  0.0000  0.2204  0.0000  0.0000  0.0000
   4. Be 1 (py)     0.0000  0.0000  0.0000  0.0000  0.0000  0.2204  0.0000  0.0000
   5. Be 1 (pz)    -0.1078 -0.1078 -0.4211  0.0000  0.0000  0.0000  0.4393  0.4953
   6. Be 1 (s)      0.2171  0.2171  0.4286  0.0000  0.0000  0.0000  0.2942  0.6623
   7. Be 1 (px)     0.0000  0.0000  0.0000  0.0000  0.2834  0.0000  0.0000  0.0000
   8. Be 1 (py)     0.0000  0.0000  0.0000  0.0000  0.0000  0.2834  0.0000  0.0000
   9. Be 1 (pz)    -0.3976 -0.3976 -0.4576  0.0000  0.0000  0.0000  0.3708  0.6180
  10. Be 1 (d1)     0.0544  0.0181  0.2143  0.0000  0.0000  0.0000  0.0808  0.3542
  11. Be 1 (d4)     0.0181  0.0544  0.2143  0.0000  0.0000  0.0000  0.0808  0.3542
  12. Be 1 (d6)     0.0672  0.0672  0.4380  0.0000  0.0000  0.0000  0.5216  0.5523
  13. Be 1 (d2)     0.0000  0.0000  0.0000  0.0544  0.0000  0.0000  0.0000  0.0000
  14. Be 1 (d3)     0.0000  0.0000  0.0000  0.0000 -0.2398  0.0000  0.0000  0.0000
  15. Be 1 (d5)     0.0000  0.0000  0.0000  0.0000  0.0000 -0.2398  0.0000  0.0000
  16. Li 2 (s)      0.0996  0.0996  0.0996  0.0000  0.0000  0.0000  0.0000  0.0006
  17. Li 2 (s)      0.7243  0.7243  0.7243  0.0000  0.0000  0.0000  0.0156  0.0753
  18. Li 2 (px)     0.0000  0.0000  0.0000  0.0000  0.0000  0.0000  0.0000  0.0000
  19. Li 2 (py)     0.0000  0.0000  0.0000  0.0000  0.0000  0.0000  0.0000  0.0000
  20. Li 2 (pz)     0.0000  0.0000  0.0000  0.0000  0.0000  0.0000  0.0478  0.1735
  21. Li 2 (s)      0.5965  0.5965  0.5965  0.0000  0.0000  0.0000  0.0516  0.1633
  22. Li 2 (px)     0.0000  0.0000  0.0000  0.0000  0.0000  0.0000  0.0000  0.0000
  23. Li 2 (py)     0.0000  0.0000  0.0000  0.0000  0.0000  0.0000  0.0000  0.0000
  24. Li 2 (pz)     0.0000  0.0000  0.0000  0.0000  0.0000  0.0000  0.1294  0.3524
  25. Li 2 (d1)     1.0000  0.3333  0.3333  0.0000  0.0000  0.0000  0.0001  0.0084
  26. Li 2 (d4)     0.3333  1.0000  0.3333  0.0000  0.0000  0.0000  0.0001  0.0084
  27. Li 2 (d6)     0.3333  0.3333  1.0000  0.0000  0.0000  0.0000  0.0055  0.0668
  28. Li 2 (d2)     0.0000  0.0000  0.0000  1.0000  0.0000  0.0000  0.0000  0.0000
  29. Li 2 (d3)     0.0000  0.0000  0.0000  0.0000  1.0000  0.0000  0.0000  0.0000
  30. Li 2 (d5)     0.0000  0.0000  0.0000  0.0000  0.0000  1.0000  0.0000  0.0000
  31.  H 3 (s)      0.0001  0.0001  0.0055  0.0000  0.0000  0.0000  1.0000  0.6583
  32.  H 3 (s)      0.0084  0.0084  0.0668  0.0000  0.0000  0.0000  0.6583  1.0000


 AO bond-order matrix:

           AO          1       2       3       4       5       6       7       8
      ------------ ------- ------- ------- ------- ------- ------- ------- -------
   1. Be 1 (s)      2.0581 -0.0461  0.0000  0.0000 -0.0082 -0.1152  0.0000  0.0000
   2. Be 1 (s)     -0.0461  0.0951  0.0000  0.0000  0.0181  0.1112  0.0000  0.0000
   3. Be 1 (px)     0.0000  0.0000  0.0000  0.0000  0.0000  0.0000  0.0000  0.0000
   4. Be 1 (py)     0.0000  0.0000  0.0000  0.0000  0.0000  0.0000  0.0000  0.0000
   5. Be 1 (pz)    -0.0082  0.0181  0.0000  0.0000  0.2554 -0.0379  0.0000  0.0000
   6. Be 1 (s)     -0.1152  0.1112  0.0000  0.0000 -0.0379  0.1460  0.0000  0.0000
   7. Be 1 (px)     0.0000  0.0000  0.0000  0.0000  0.0000  0.0000  0.0000  0.0000
   8. Be 1 (py)     0.0000  0.0000  0.0000  0.0000  0.0000  0.0000  0.0000  0.0000
   9. Be 1 (pz)    -0.0011  0.0120  0.0000  0.0000  0.0940 -0.0080  0.0000  0.0000
  10. Be 1 (d1)     0.0026  0.0001  0.0000  0.0000 -0.0124  0.0029  0.0000  0.0000
  11. Be 1 (d4)     0.0026  0.0001  0.0000  0.0000 -0.0124  0.0029  0.0000  0.0000
  12. Be 1 (d6)    -0.0130  0.0236  0.0000  0.0000  0.0183  0.0245  0.0000  0.0000
  13. Be 1 (d2)     0.0000  0.0000  0.0000  0.0000  0.0000  0.0000  0.0000  0.0000
  14. Be 1 (d3)     0.0000  0.0000  0.0000  0.0000  0.0000  0.0000  0.0000  0.0000
  15. Be 1 (d5)     0.0000  0.0000  0.0000  0.0000  0.0000  0.0000  0.0000  0.0000
  16. Li 2 (s)      0.0315 -0.0435  0.0000  0.0000  0.0745 -0.0444  0.0000  0.0000
  17. Li 2 (s)     -0.0600  0.0734  0.0000  0.0000 -0.1038  0.1137  0.0000  0.0000
  18. Li 2 (px)     0.0000  0.0000  0.0000  0.0000  0.0000  0.0000  0.0000  0.0000
  19. Li 2 (py)     0.0000  0.0000  0.0000  0.0000  0.0000  0.0000  0.0000  0.0000
  20. Li 2 (pz)    -0.0650  0.0752  0.0000  0.0000 -0.1002  0.1153  0.0000  0.0000
  21. Li 2 (s)     -0.0704  0.0824  0.0000  0.0000 -0.1624  0.1391  0.0000  0.0000
  22. Li 2 (px)     0.0000  0.0000  0.0000  0.0000  0.0000  0.0000  0.0000  0.0000
  23. Li 2 (py)     0.0000  0.0000  0.0000  0.0000  0.0000  0.0000  0.0000  0.0000
  24. Li 2 (pz)    -0.0003  0.0041  0.0000  0.0000 -0.0055  0.0064  0.0000  0.0000
  25. Li 2 (d1)     0.0011 -0.0019  0.0000  0.0000 -0.0027 -0.0014  0.0000  0.0000
  26. Li 2 (d4)     0.0011 -0.0019  0.0000  0.0000 -0.0027 -0.0014  0.0000  0.0000
  27. Li 2 (d6)    -0.0117  0.0115  0.0000  0.0000 -0.0060  0.0157  0.0000  0.0000
  28. Li 2 (d2)     0.0000  0.0000  0.0000  0.0000  0.0000  0.0000  0.0000  0.0000
  29. Li 2 (d3)     0.0000  0.0000  0.0000  0.0000  0.0000  0.0000  0.0000  0.0000
  30. Li 2 (d5)     0.0000  0.0000  0.0000  0.0000  0.0000  0.0000  0.0000  0.0000
  31.  H 3 (s)     -0.0663  0.0885  0.0000  0.0000  0.1817  0.0656  0.0000  0.0000
  32.  H 3 (s)     -0.0647  0.0827  0.0000  0.0000  0.2304  0.0473  0.0000  0.0000

           AO          9      10      11      12      13      14      15      16
      ------------ ------- ------- ------- ------- ------- ------- ------- -------
   1. Be 1 (s)     -0.0011  0.0026  0.0026 -0.0130  0.0000  0.0000  0.0000  0.0315
   2. Be 1 (s)      0.0120  0.0001  0.0001  0.0236  0.0000  0.0000  0.0000 -0.0435
   3. Be 1 (px)     0.0000  0.0000  0.0000  0.0000  0.0000  0.0000  0.0000  0.0000
   4. Be 1 (py)     0.0000  0.0000  0.0000  0.0000  0.0000  0.0000  0.0000  0.0000
   5. Be 1 (pz)     0.0940 -0.0124 -0.0124  0.0183  0.0000  0.0000  0.0000  0.0745
   6. Be 1 (s)     -0.0080  0.0029  0.0029  0.0245  0.0000  0.0000  0.0000 -0.0444
   7. Be 1 (px)     0.0000  0.0000  0.0000  0.0000  0.0000  0.0000  0.0000  0.0000
   8. Be 1 (py)     0.0000  0.0000  0.0000  0.0000  0.0000  0.0000  0.0000  0.0000
   9. Be 1 (pz)     0.0352 -0.0045 -0.0045  0.0079  0.0000  0.0000  0.0000 -0.0003
  10. Be 1 (d1)    -0.0045  0.0006  0.0006 -0.0007  0.0000  0.0000  0.0000 -0.0036
  11. Be 1 (d4)    -0.0045  0.0006  0.0006 -0.0007  0.0000  0.0000  0.0000 -0.0036
  12. Be 1 (d6)     0.0079 -0.0007 -0.0007  0.0066  0.0000  0.0000  0.0000  0.0002
  13. Be 1 (d2)     0.0000  0.0000  0.0000  0.0000  0.0000  0.0000  0.0000  0.0000
  14. Be 1 (d3)     0.0000  0.0000  0.0000  0.0000  0.0000  0.0000  0.0000  0.0000
  15. Be 1 (d5)     0.0000  0.0000  0.0000  0.0000  0.0000  0.0000  0.0000  0.0000
  16. Li 2 (s)     -0.0003 -0.0036 -0.0036  0.0002  0.0000  0.0000  0.0000  2.0316
  17. Li 2 (s)     -0.0332  0.0058  0.0058  0.0117  0.0000  0.0000  0.0000 -0.1104
  18. Li 2 (px)     0.0000  0.0000  0.0000  0.0000  0.0000  0.0000  0.0000  0.0000
  19. Li 2 (py)     0.0000  0.0000  0.0000  0.0000  0.0000  0.0000  0.0000  0.0000
  20. Li 2 (pz)    -0.0319  0.0056  0.0056  0.0123  0.0000  0.0000  0.0000 -0.0988
  21. Li 2 (s)     -0.0546  0.0088  0.0088  0.0107  0.0000  0.0000  0.0000 -0.0912
  22. Li 2 (px)     0.0000  0.0000  0.0000  0.0000  0.0000  0.0000  0.0000  0.0000
  23. Li 2 (py)     0.0000  0.0000  0.0000  0.0000  0.0000  0.0000  0.0000  0.0000
  24. Li 2 (pz)    -0.0019  0.0003  0.0003  0.0007  0.0000  0.0000  0.0000  0.0073
  25. Li 2 (d1)    -0.0013  0.0001  0.0001 -0.0005  0.0000  0.0000  0.0000  0.0210
  26. Li 2 (d4)    -0.0013  0.0001  0.0001 -0.0005  0.0000  0.0000  0.0000  0.0210
  27. Li 2 (d6)    -0.0017  0.0004  0.0004  0.0025  0.0000  0.0000  0.0000  0.0070
  28. Li 2 (d2)     0.0000  0.0000  0.0000  0.0000  0.0000  0.0000  0.0000  0.0000
  29. Li 2 (d3)     0.0000  0.0000  0.0000  0.0000  0.0000  0.0000  0.0000  0.0000
  30. Li 2 (d5)     0.0000  0.0000  0.0000  0.0000  0.0000  0.0000  0.0000  0.0000
  31.  H 3 (s)      0.0710 -0.0081 -0.0081  0.0310  0.0000  0.0000  0.0000  0.0193
  32.  H 3 (s)      0.0882 -0.0105 -0.0105  0.0323  0.0000  0.0000  0.0000  0.0538

           AO         17      18      19      20      21      22      23      24
      ------------ ------- ------- ------- ------- ------- ------- ------- -------
   1. Be 1 (s)     -0.0600  0.0000  0.0000 -0.0650 -0.0704  0.0000  0.0000 -0.0003
   2. Be 1 (s)      0.0734  0.0000  0.0000  0.0752  0.0824  0.0000  0.0000  0.0041
   3. Be 1 (px)     0.0000  0.0000  0.0000  0.0000  0.0000  0.0000  0.0000  0.0000
   4. Be 1 (py)     0.0000  0.0000  0.0000  0.0000  0.0000  0.0000  0.0000  0.0000
   5. Be 1 (pz)    -0.1038  0.0000  0.0000 -0.1002 -0.1624  0.0000  0.0000 -0.0055
   6. Be 1 (s)      0.1137  0.0000  0.0000  0.1153  0.1391  0.0000  0.0000  0.0064
   7. Be 1 (px)     0.0000  0.0000  0.0000  0.0000  0.0000  0.0000  0.0000  0.0000
   8. Be 1 (py)     0.0000  0.0000  0.0000  0.0000  0.0000  0.0000  0.0000  0.0000
   9. Be 1 (pz)    -0.0332  0.0000  0.0000 -0.0319 -0.0546  0.0000  0.0000 -0.0019
  10. Be 1 (d1)     0.0058  0.0000  0.0000  0.0056  0.0088  0.0000  0.0000  0.0003
  11. Be 1 (d4)     0.0058  0.0000  0.0000  0.0056  0.0088  0.0000  0.0000  0.0003
  12. Be 1 (d6)     0.0117  0.0000  0.0000  0.0123  0.0107  0.0000  0.0000  0.0007
  13. Be 1 (d2)     0.0000  0.0000  0.0000  0.0000  0.0000  0.0000  0.0000  0.0000
  14. Be 1 (d3)     0.0000  0.0000  0.0000  0.0000  0.0000  0.0000  0.0000  0.0000
  15. Be 1 (d5)     0.0000  0.0000  0.0000  0.0000  0.0000  0.0000  0.0000  0.0000
  16. Li 2 (s)     -0.1104  0.0000  0.0000 -0.0988 -0.0912  0.0000  0.0000  0.0073
  17. Li 2 (s)      0.1128  0.0000  0.0000  0.1124  0.1471  0.0000  0.0000  0.0059
  18. Li 2 (px)     0.0000  0.0000  0.0000  0.0000  0.0000  0.0000  0.0000  0.0000
  19. Li 2 (py)     0.0000  0.0000  0.0000  0.0000  0.0000  0.0000  0.0000  0.0000
  20. Li 2 (pz)     0.1124  0.0000  0.0000  0.1122  0.1464  0.0000  0.0000  0.0059
  21. Li 2 (s)      0.1471  0.0000  0.0000  0.1464  0.1978  0.0000  0.0000  0.0080
  22. Li 2 (px)     0.0000  0.0000  0.0000  0.0000  0.0000  0.0000  0.0000  0.0000
  23. Li 2 (py)     0.0000  0.0000  0.0000  0.0000  0.0000  0.0000  0.0000  0.0000
  24. Li 2 (pz)     0.0059  0.0000  0.0000  0.0059  0.0080  0.0000  0.0000  0.0004
  25. Li 2 (d1)    -0.0008  0.0000  0.0000 -0.0007  0.0001  0.0000  0.0000  0.0001
  26. Li 2 (d4)    -0.0008  0.0000  0.0000 -0.0007  0.0001  0.0000  0.0000  0.0001
  27. Li 2 (d6)     0.0125  0.0000  0.0000  0.0127  0.0159  0.0000  0.0000  0.0008
  28. Li 2 (d2)     0.0000  0.0000  0.0000  0.0000  0.0000  0.0000  0.0000  0.0000
  29. Li 2 (d3)     0.0000  0.0000  0.0000  0.0000  0.0000  0.0000  0.0000  0.0000
  30. Li 2 (d5)     0.0000  0.0000  0.0000  0.0000  0.0000  0.0000  0.0000  0.0000
  31.  H 3 (s)     -0.0086  0.0000  0.0000 -0.0047 -0.0396  0.0000  0.0000 -0.0003
  32.  H 3 (s)     -0.0367  0.0000  0.0000 -0.0322 -0.0798  0.0000  0.0000 -0.0017

           AO         25      26      27      28      29      30      31      32
      ------------ ------- ------- ------- ------- ------- ------- ------- -------
   1. Be 1 (s)      0.0011  0.0011 -0.0117  0.0000  0.0000  0.0000 -0.0663 -0.0647
   2. Be 1 (s)     -0.0019 -0.0019  0.0115  0.0000  0.0000  0.0000  0.0885  0.0827
   3. Be 1 (px)     0.0000  0.0000  0.0000  0.0000  0.0000  0.0000  0.0000  0.0000
   4. Be 1 (py)     0.0000  0.0000  0.0000  0.0000  0.0000  0.0000  0.0000  0.0000
   5. Be 1 (pz)    -0.0027 -0.0027 -0.0060  0.0000  0.0000  0.0000  0.1817  0.2304
   6. Be 1 (s)     -0.0014 -0.0014  0.0157  0.0000  0.0000  0.0000  0.0656  0.0473
   7. Be 1 (px)     0.0000  0.0000  0.0000  0.0000  0.0000  0.0000  0.0000  0.0000
   8. Be 1 (py)     0.0000  0.0000  0.0000  0.0000  0.0000  0.0000  0.0000  0.0000
   9. Be 1 (pz)    -0.0013 -0.0013 -0.0017  0.0000  0.0000  0.0000  0.0710  0.0882
  10. Be 1 (d1)     0.0001  0.0001  0.0004  0.0000  0.0000  0.0000 -0.0081 -0.0105
  11. Be 1 (d4)     0.0001  0.0001  0.0004  0.0000  0.0000  0.0000 -0.0081 -0.0105
  12. Be 1 (d6)    -0.0005 -0.0005  0.0025  0.0000  0.0000  0.0000  0.0310  0.0323
  13. Be 1 (d2)     0.0000  0.0000  0.0000  0.0000  0.0000  0.0000  0.0000  0.0000
  14. Be 1 (d3)     0.0000  0.0000  0.0000  0.0000  0.0000  0.0000  0.0000  0.0000
  15. Be 1 (d5)     0.0000  0.0000  0.0000  0.0000  0.0000  0.0000  0.0000  0.0000
  16. Li 2 (s)      0.0210  0.0210  0.0070  0.0000  0.0000  0.0000  0.0193  0.0538
  17. Li 2 (s)     -0.0008 -0.0008  0.0125  0.0000  0.0000  0.0000 -0.0086 -0.0367
  18. Li 2 (px)     0.0000  0.0000  0.0000  0.0000  0.0000  0.0000  0.0000  0.0000
  19. Li 2 (py)     0.0000  0.0000  0.0000  0.0000  0.0000  0.0000  0.0000  0.0000
  20. Li 2 (pz)    -0.0007 -0.0007  0.0127  0.0000  0.0000  0.0000 -0.0047 -0.0322
  21. Li 2 (s)      0.0001  0.0001  0.0159  0.0000  0.0000  0.0000 -0.0396 -0.0798
  22. Li 2 (px)     0.0000  0.0000  0.0000  0.0000  0.0000  0.0000  0.0000  0.0000
  23. Li 2 (py)     0.0000  0.0000  0.0000  0.0000  0.0000  0.0000  0.0000  0.0000
  24. Li 2 (pz)     0.0001  0.0001  0.0008  0.0000  0.0000  0.0000 -0.0003 -0.0017
  25. Li 2 (d1)     0.0003  0.0003  0.0000  0.0000  0.0000  0.0000 -0.0032 -0.0034
  26. Li 2 (d4)     0.0003  0.0003  0.0000  0.0000  0.0000  0.0000 -0.0032 -0.0034
  27. Li 2 (d6)     0.0000  0.0000  0.0018  0.0000  0.0000  0.0000  0.0054  0.0032
  28. Li 2 (d2)     0.0000  0.0000  0.0000  0.0000  0.0000  0.0000  0.0000  0.0000
  29. Li 2 (d3)     0.0000  0.0000  0.0000  0.0000  0.0000  0.0000  0.0000  0.0000
  30. Li 2 (d5)     0.0000  0.0000  0.0000  0.0000  0.0000  0.0000  0.0000  0.0000
  31.  H 3 (s)     -0.0032 -0.0032  0.0054  0.0000  0.0000  0.0000  0.1904  0.2177
  32.  H 3 (s)     -0.0034 -0.0034  0.0032  0.0000  0.0000  0.0000  0.2177  0.2553


 AO density matrix:

           AO          1       2       3       4       5       6       7       8
      ------------ ------- ------- ------- ------- ------- ------- ------- -------
   1. Be 1 (s)      1.9998  0.3900  0.0000  0.0000 -0.0021  0.4162  0.0000  0.0000
   2. Be 1 (s)      0.3900  1.4506  0.0000  0.0000  0.1035  1.6066  0.0000  0.0000
   3. Be 1 (px)     0.0000  0.0000  0.0000  0.0000  0.0000  0.0000  0.0000  0.0000
   4. Be 1 (py)     0.0000  0.0000  0.0000  0.0000  0.0000  0.0000  0.0000  0.0000
   5. Be 1 (pz)    -0.0021  0.1035  0.0000  0.0000  1.3779  0.0007  0.0000  0.0000
   6. Be 1 (s)      0.4162  1.6066  0.0000  0.0000  0.0007  1.7935  0.0000  0.0000
   7. Be 1 (px)     0.0000  0.0000  0.0000  0.0000  0.0000  0.0000  0.0000  0.0000
   8. Be 1 (py)     0.0000  0.0000  0.0000  0.0000  0.0000  0.0000  0.0000  0.0000
   9. Be 1 (pz)    -0.0006 -0.0456  0.0000  0.0000  1.4509 -0.1831  0.0000  0.0000
  10. Be 1 (d1)     0.2127  0.9444  0.0000  0.0000 -0.0142  1.0519  0.0000  0.0000
  11. Be 1 (d4)     0.2127  0.9444  0.0000  0.0000 -0.0142  1.0519  0.0000  0.0000
  12. Be 1 (d6)     0.2110  1.2533  0.0000  0.0000  0.2865  1.3742  0.0000  0.0000
  13. Be 1 (d2)     0.0000  0.0000  0.0000  0.0000  0.0000  0.0000  0.0000  0.0000
  14. Be 1 (d3)     0.0000  0.0000  0.0000  0.0000  0.0000  0.0000  0.0000  0.0000
  15. Be 1 (d5)     0.0000  0.0000  0.0000  0.0000  0.0000  0.0000  0.0000  0.0000
  16. Li 2 (s)      0.0001  0.0329  0.0000  0.0000 -0.0794  0.1366  0.0000  0.0000
  17. Li 2 (s)      0.0894  0.9403  0.0000  0.0000 -0.8167  1.1272  0.0000  0.0000
  18. Li 2 (px)     0.0000  0.0000  0.0000  0.0000  0.0000  0.0000  0.0000  0.0000
  19. Li 2 (py)     0.0000  0.0000  0.0000  0.0000  0.0000  0.0000  0.0000  0.0000
  20. Li 2 (pz)     0.2004  0.8190  0.0000  0.0000 -0.3698  0.9404  0.0000  0.0000
  21. Li 2 (s)      0.1081  1.0274  0.0000  0.0000 -0.6820  1.2169  0.0000  0.0000
  22. Li 2 (px)     0.0000  0.0000  0.0000  0.0000  0.0000  0.0000  0.0000  0.0000
  23. Li 2 (py)     0.0000  0.0000  0.0000  0.0000  0.0000  0.0000  0.0000  0.0000
  24. Li 2 (pz)     0.1892  0.8835  0.0000  0.0000 -0.0106  0.9837  0.0000  0.0000
  25. Li 2 (d1)    -0.0026  0.5257  0.0000  0.0000 -0.5518  0.6402  0.0000  0.0000
  26. Li 2 (d4)    -0.0026  0.5257  0.0000  0.0000 -0.5518  0.6402  0.0000  0.0000
  27. Li 2 (d6)     0.1468  0.8138  0.0000  0.0000 -0.7169  0.9733  0.0000  0.0000
  28. Li 2 (d2)     0.0000  0.0000  0.0000  0.0000  0.0000  0.0000  0.0000  0.0000
  29. Li 2 (d3)     0.0000  0.0000  0.0000  0.0000  0.0000  0.0000  0.0000  0.0000
  30. Li 2 (d5)     0.0000  0.0000  0.0000  0.0000  0.0000  0.0000  0.0000  0.0000
  31.  H 3 (s)      0.0593  0.8468  0.0000  0.0000  1.0997  0.8549  0.0000  0.0000
  32.  H 3 (s)      0.2633  1.2232  0.0000  0.0000  1.1073  1.2720  0.0000  0.0000

           AO          9      10      11      12      13      14      15      16
      ------------ ------- ------- ------- ------- ------- ------- ------- -------
   1. Be 1 (s)     -0.0006  0.2127  0.2127  0.2110  0.0000  0.0000  0.0000  0.0001
   2. Be 1 (s)     -0.0456  0.9444  0.9444  1.2533  0.0000  0.0000  0.0000  0.0329
   3. Be 1 (px)     0.0000  0.0000  0.0000  0.0000  0.0000  0.0000  0.0000  0.0000
   4. Be 1 (py)     0.0000  0.0000  0.0000  0.0000  0.0000  0.0000  0.0000  0.0000
   5. Be 1 (pz)     1.4509 -0.0142 -0.0142  0.2865  0.0000  0.0000  0.0000 -0.0794
   6. Be 1 (s)     -0.1831  1.0519  1.0519  1.3742  0.0000  0.0000  0.0000  0.1366
   7. Be 1 (px)     0.0000  0.0000  0.0000  0.0000  0.0000  0.0000  0.0000  0.0000
   8. Be 1 (py)     0.0000  0.0000  0.0000  0.0000  0.0000  0.0000  0.0000  0.0000
   9. Be 1 (pz)     1.5750 -0.1139 -0.1139  0.1635  0.0000  0.0000  0.0000 -0.3310
  10. Be 1 (d1)    -0.1139  0.6210  0.6210  0.8066  0.0000  0.0000  0.0000 -0.0008
  11. Be 1 (d4)    -0.1139  0.6210  0.6210  0.8066  0.0000  0.0000  0.0000 -0.0008
  12. Be 1 (d6)     0.1635  0.8066  0.8066  1.1193  0.0000  0.0000  0.0000  0.0452
  13. Be 1 (d2)     0.0000  0.0000  0.0000  0.0000  0.0000  0.0000  0.0000  0.0000
  14. Be 1 (d3)     0.0000  0.0000  0.0000  0.0000  0.0000  0.0000  0.0000  0.0000
  15. Be 1 (d5)     0.0000  0.0000  0.0000  0.0000  0.0000  0.0000  0.0000  0.0000
  16. Li 2 (s)     -0.3310 -0.0008 -0.0008  0.0452  0.0000  0.0000  0.0000  1.9998
  17. Li 2 (s)     -0.9989  0.6659  0.6659  0.7002  0.0000  0.0000  0.0000  0.3002
  18. Li 2 (px)     0.0000  0.0000  0.0000  0.0000  0.0000  0.0000  0.0000  0.0000
  19. Li 2 (py)     0.0000  0.0000  0.0000  0.0000  0.0000  0.0000  0.0000  0.0000
  20. Li 2 (pz)    -0.4739  0.5601  0.5601  0.6471  0.0000  0.0000  0.0000 -0.0114
  21. Li 2 (s)     -0.8754  0.7139  0.7139  0.7952  0.0000  0.0000  0.0000  0.3765
  22. Li 2 (px)     0.0000  0.0000  0.0000  0.0000  0.0000  0.0000  0.0000  0.0000
  23. Li 2 (py)     0.0000  0.0000  0.0000  0.0000  0.0000  0.0000  0.0000  0.0000
  24. Li 2 (pz)    -0.1033  0.5811  0.5811  0.7555  0.0000  0.0000  0.0000 -0.0057
  25. Li 2 (d1)    -0.6650  0.3787  0.3787  0.3817  0.0000  0.0000  0.0000  0.2083
  26. Li 2 (d4)    -0.6650  0.3787  0.3787  0.3817  0.0000  0.0000  0.0000  0.2083
  27. Li 2 (d6)    -0.8672  0.5761  0.5761  0.5994  0.0000  0.0000  0.0000  0.2075
  28. Li 2 (d2)     0.0000  0.0000  0.0000  0.0000  0.0000  0.0000  0.0000  0.0000
  29. Li 2 (d3)     0.0000  0.0000  0.0000  0.0000  0.0000  0.0000  0.0000  0.0000
  30. Li 2 (d5)     0.0000  0.0000  0.0000  0.0000  0.0000  0.0000  0.0000  0.0000
  31.  H 3 (s)      1.0674  0.4921  0.4921  0.8910  0.0000  0.0000  0.0000  0.0018
  32.  H 3 (s)      1.0387  0.7361  0.7361  1.2067  0.0000  0.0000  0.0000  0.0014

           AO         17      18      19      20      21      22      23      24
      ------------ ------- ------- ------- ------- ------- ------- ------- -------
   1. Be 1 (s)      0.0894  0.0000  0.0000  0.2004  0.1081  0.0000  0.0000  0.1892
   2. Be 1 (s)      0.9403  0.0000  0.0000  0.8190  1.0274  0.0000  0.0000  0.8835
   3. Be 1 (px)     0.0000  0.0000  0.0000  0.0000  0.0000  0.0000  0.0000  0.0000
   4. Be 1 (py)     0.0000  0.0000  0.0000  0.0000  0.0000  0.0000  0.0000  0.0000
   5. Be 1 (pz)    -0.8167  0.0000  0.0000 -0.3698 -0.6820  0.0000  0.0000 -0.0106
   6. Be 1 (s)      1.1272  0.0000  0.0000  0.9404  1.2169  0.0000  0.0000  0.9837
   7. Be 1 (px)     0.0000  0.0000  0.0000  0.0000  0.0000  0.0000  0.0000  0.0000
   8. Be 1 (py)     0.0000  0.0000  0.0000  0.0000  0.0000  0.0000  0.0000  0.0000
   9. Be 1 (pz)    -0.9989  0.0000  0.0000 -0.4739 -0.8754  0.0000  0.0000 -0.1033
  10. Be 1 (d1)     0.6659  0.0000  0.0000  0.5601  0.7139  0.0000  0.0000  0.5811
  11. Be 1 (d4)     0.6659  0.0000  0.0000  0.5601  0.7139  0.0000  0.0000  0.5811
  12. Be 1 (d6)     0.7002  0.0000  0.0000  0.6471  0.7952  0.0000  0.0000  0.7555
  13. Be 1 (d2)     0.0000  0.0000  0.0000  0.0000  0.0000  0.0000  0.0000  0.0000
  14. Be 1 (d3)     0.0000  0.0000  0.0000  0.0000  0.0000  0.0000  0.0000  0.0000
  15. Be 1 (d5)     0.0000  0.0000  0.0000  0.0000  0.0000  0.0000  0.0000  0.0000
  16. Li 2 (s)      0.3002  0.0000  0.0000 -0.0114  0.3765  0.0000  0.0000 -0.0057
  17. Li 2 (s)      1.2224  0.0000  0.0000  0.8035  1.2055  0.0000  0.0000  0.6215
  18. Li 2 (px)     0.0000  0.0000  0.0000  0.0000  0.0000  0.0000  0.0000  0.0000
  19. Li 2 (py)     0.0000  0.0000  0.0000  0.0000  0.0000  0.0000  0.0000  0.0000
  20. Li 2 (pz)     0.8035  0.0000  0.0000  0.5982  0.8104  0.0000  0.0000  0.5234
  21. Li 2 (s)      1.2055  0.0000  0.0000  0.8104  1.2093  0.0000  0.0000  0.6665
  22. Li 2 (px)     0.0000  0.0000  0.0000  0.0000  0.0000  0.0000  0.0000  0.0000
  23. Li 2 (py)     0.0000  0.0000  0.0000  0.0000  0.0000  0.0000  0.0000  0.0000
  24. Li 2 (pz)     0.6215  0.0000  0.0000  0.5234  0.6665  0.0000  0.0000  0.5438
  25. Li 2 (d1)     0.7540  0.0000  0.0000  0.4789  0.7371  0.0000  0.0000  0.3535
  26. Li 2 (d4)     0.7540  0.0000  0.0000  0.4789  0.7371  0.0000  0.0000  0.3535
  27. Li 2 (d6)     1.0519  0.0000  0.0000  0.6990  1.0341  0.0000  0.0000  0.5375
  28. Li 2 (d2)     0.0000  0.0000  0.0000  0.0000  0.0000  0.0000  0.0000  0.0000
  29. Li 2 (d3)     0.0000  0.0000  0.0000  0.0000  0.0000  0.0000  0.0000  0.0000
  30. Li 2 (d5)     0.0000  0.0000  0.0000  0.0000  0.0000  0.0000  0.0000  0.0000
  31.  H 3 (s)     -0.1023  0.0000  0.0000  0.1544  0.0479  0.0000  0.0000  0.4631
  32.  H 3 (s)      0.1432  0.0000  0.0000  0.3717  0.3137  0.0000  0.0000  0.6908

           AO         25      26      27      28      29      30      31      32
      ------------ ------- ------- ------- ------- ------- ------- ------- -------
   1. Be 1 (s)     -0.0026 -0.0026  0.1468  0.0000  0.0000  0.0000  0.0593  0.2633
   2. Be 1 (s)      0.5257  0.5257  0.8138  0.0000  0.0000  0.0000  0.8468  1.2232
   3. Be 1 (px)     0.0000  0.0000  0.0000  0.0000  0.0000  0.0000  0.0000  0.0000
   4. Be 1 (py)     0.0000  0.0000  0.0000  0.0000  0.0000  0.0000  0.0000  0.0000
   5. Be 1 (pz)    -0.5518 -0.5518 -0.7169  0.0000  0.0000  0.0000  1.0997  1.1073
   6. Be 1 (s)      0.6402  0.6402  0.9733  0.0000  0.0000  0.0000  0.8549  1.2720
   7. Be 1 (px)     0.0000  0.0000  0.0000  0.0000  0.0000  0.0000  0.0000  0.0000
   8. Be 1 (py)     0.0000  0.0000  0.0000  0.0000  0.0000  0.0000  0.0000  0.0000
   9. Be 1 (pz)    -0.6650 -0.6650 -0.8672  0.0000  0.0000  0.0000  1.0674  1.0387
  10. Be 1 (d1)     0.3787  0.3787  0.5761  0.0000  0.0000  0.0000  0.4921  0.7361
  11. Be 1 (d4)     0.3787  0.3787  0.5761  0.0000  0.0000  0.0000  0.4921  0.7361
  12. Be 1 (d6)     0.3817  0.3817  0.5994  0.0000  0.0000  0.0000  0.8910  1.2067
  13. Be 1 (d2)     0.0000  0.0000  0.0000  0.0000  0.0000  0.0000  0.0000  0.0000
  14. Be 1 (d3)     0.0000  0.0000  0.0000  0.0000  0.0000  0.0000  0.0000  0.0000
  15. Be 1 (d5)     0.0000  0.0000  0.0000  0.0000  0.0000  0.0000  0.0000  0.0000
  16. Li 2 (s)      0.2083  0.2083  0.2075  0.0000  0.0000  0.0000  0.0018  0.0014
  17. Li 2 (s)      0.7540  0.7540  1.0519  0.0000  0.0000  0.0000 -0.1023  0.1432
  18. Li 2 (px)     0.0000  0.0000  0.0000  0.0000  0.0000  0.0000  0.0000  0.0000
  19. Li 2 (py)     0.0000  0.0000  0.0000  0.0000  0.0000  0.0000  0.0000  0.0000
  20. Li 2 (pz)     0.4789  0.4789  0.6990  0.0000  0.0000  0.0000  0.1544  0.3717
  21. Li 2 (s)      0.7371  0.7371  1.0341  0.0000  0.0000  0.0000  0.0479  0.3137
  22. Li 2 (px)     0.0000  0.0000  0.0000  0.0000  0.0000  0.0000  0.0000  0.0000
  23. Li 2 (py)     0.0000  0.0000  0.0000  0.0000  0.0000  0.0000  0.0000  0.0000
  24. Li 2 (pz)     0.3535  0.3535  0.5375  0.0000  0.0000  0.0000  0.4631  0.6908
  25. Li 2 (d1)     0.4698  0.4698  0.6470  0.0000  0.0000  0.0000 -0.1245  0.0110
  26. Li 2 (d4)     0.4698  0.4698  0.6470  0.0000  0.0000  0.0000 -0.1245  0.0110
  27. Li 2 (d6)     0.6470  0.6470  0.9091  0.0000  0.0000  0.0000 -0.1026  0.1140
  28. Li 2 (d2)     0.0000  0.0000  0.0000  0.0000  0.0000  0.0000  0.0000  0.0000
  29. Li 2 (d3)     0.0000  0.0000  0.0000  0.0000  0.0000  0.0000  0.0000  0.0000
  30. Li 2 (d5)     0.0000  0.0000  0.0000  0.0000  0.0000  0.0000  0.0000  0.0000
  31.  H 3 (s)     -0.1245 -0.1245 -0.1026  0.0000  0.0000  0.0000  1.2945  1.4916
  32.  H 3 (s)      0.0110  0.0110  0.1140  0.0000  0.0000  0.0000  1.4916  1.7922


 MO density matrix:

      MO     1       2       3       4       5       6       7       8       9
     ---- ------  ------  ------  ------  ------  ------  ------  ------  ------
   1.     2.0000  0.0000  0.0000  0.0000  0.0000  0.0000  0.0000  0.0000  0.0000
   2.     0.0000  2.0000  0.0000  0.0000  0.0000  0.0000  0.0000  0.0000  0.0000
   3.     0.0000  0.0000  2.0000  0.0000  0.0000  0.0000  0.0000  0.0000  0.0000
   4.     0.0000  0.0000  0.0000  2.0000  0.0000  0.0000  0.0000  0.0000  0.0000
   5.     0.0000  0.0000  0.0000  0.0000  0.0000  0.0000  0.0000  0.0000  0.0000
   6.     0.0000  0.0000  0.0000  0.0000  0.0000  0.0000  0.0000  0.0000  0.0000
   7.     0.0000  0.0000  0.0000  0.0000  0.0000  0.0000  0.0000  0.0000  0.0000
   8.     0.0000  0.0000  0.0000  0.0000  0.0000  0.0000  0.0000  0.0000  0.0000
   9.     0.0000  0.0000  0.0000  0.0000  0.0000  0.0000  0.0000  0.0000  0.0000
  10.     0.0000  0.0000  0.0000  0.0000  0.0000  0.0000  0.0000  0.0000  0.0000
  11.     0.0000  0.0000  0.0000  0.0000  0.0000  0.0000  0.0000  0.0000  0.0000
  12.     0.0000  0.0000  0.0000  0.0000  0.0000  0.0000  0.0000  0.0000  0.0000
  13.     0.0000  0.0000  0.0000  0.0000  0.0000  0.0000  0.0000  0.0000  0.0000
  14.     0.0000  0.0000  0.0000  0.0000  0.0000  0.0000  0.0000  0.0000  0.0000
  15.     0.0000  0.0000  0.0000  0.0000  0.0000  0.0000  0.0000  0.0000  0.0000
  16.     0.0000  0.0000  0.0000  0.0000  0.0000  0.0000  0.0000  0.0000  0.0000
  17.     0.0000  0.0000  0.0000  0.0000  0.0000  0.0000  0.0000  0.0000  0.0000
  18.     0.0000  0.0000  0.0000  0.0000  0.0000  0.0000  0.0000  0.0000  0.0000
  19.     0.0000  0.0000  0.0000  0.0000  0.0000  0.0000  0.0000  0.0000  0.0000
  20.     0.0000  0.0000  0.0000  0.0000  0.0000  0.0000  0.0000  0.0000  0.0000
  21.     0.0000  0.0000  0.0000  0.0000  0.0000  0.0000  0.0000  0.0000  0.0000
  22.     0.0000  0.0000  0.0000  0.0000  0.0000  0.0000  0.0000  0.0000  0.0000
  23.     0.0000  0.0000  0.0000  0.0000  0.0000  0.0000  0.0000  0.0000  0.0000
  24.     0.0000  0.0000  0.0000  0.0000  0.0000  0.0000  0.0000  0.0000  0.0000
  25.     0.0000  0.0000  0.0000  0.0000  0.0000  0.0000  0.0000  0.0000  0.0000
  26.     0.0000  0.0000  0.0000  0.0000  0.0000  0.0000  0.0000  0.0000  0.0000
  27.     0.0000  0.0000  0.0000  0.0000  0.0000  0.0000  0.0000  0.0000  0.0000
  28.     0.0000  0.0000  0.0000  0.0000  0.0000  0.0000  0.0000  0.0000  0.0000
  29.     0.0000  0.0000  0.0000  0.0000  0.0000  0.0000  0.0000  0.0000  0.0000
  30.     0.0000  0.0000  0.0000  0.0000  0.0000  0.0000  0.0000  0.0000  0.0000
  31.     0.0000  0.0000  0.0000  0.0000  0.0000  0.0000  0.0000  0.0000  0.0000
  32.     0.0000  0.0000  0.0000  0.0000  0.0000  0.0000  0.0000  0.0000  0.0000

      MO    10      11      12      13      14      15      16      17      18
     ---- ------  ------  ------  ------  ------  ------  ------  ------  ------
   1.     0.0000  0.0000  0.0000  0.0000  0.0000  0.0000  0.0000  0.0000  0.0000
[...]
            1.0000 0.0000 0.0000 0.0000 0.0000 0.0000 0.0000 0.0000
            0.0000 0.0000 0.0000 0.0000 0.0000 0.0000 0.0000
        1 eigenvector(s) stashed in permanent list

 Search of NAO DM block for core orbitals on atom:   2
      Eigenvector ( 1) has occupancy 1.99996
            1.0000 0.0000 0.0000 0.0000 0.0000 0.0000 0.0000 0.0000
            0.0000 0.0000 0.0000 0.0000 0.0000 0.0000 0.0000
        1 eigenvector(s) stashed in permanent list

 Core orbitals projected from the NAO density matrix
       4.000 electrons remain (>1.790); search continues

 Search of NAO DM block for the following atom(s):   3
      Select eigenvectors with eigenvalue > 1.790
       1.714 0.017

 No NHOs identified in the 1-center search of the NAO density matrix
       4.000 electrons remain (>1.790); search continues

 Search of NAO DM block for the following atom(s):   1   2
      Select eigenvectors with eigenvalue > 1.790
       1.983 0.286 0.000 0.000 0.000 0.000 0.000 0.000 0.000 0.000 0.000 0.000
       0.000 0.000 0.000 0.000 0.000 0.000 0.000 0.000 0.000 0.000 0.000 0.000
       0.000 0.000 0.000 0.000 0.000 0.000
      Eigenvector ( 1) has occupancy 1.98328
            0.0000 0.7748 0.0115 0.0000 0.0000 0.0000 0.0000 0.0000
           -0.1775 0.0257 0.0000 0.0000 0.0000 0.0000 0.0407 0.0000
            0.5761-0.0015 0.0000 0.0000 0.0000 0.0000 0.0000 0.1833
            0.0067 0.0000 0.0000 0.0000 0.0000-0.0108
      1 hybrid on atom 1 stashed in prospective list
      1 hybrid on atom 2 stashed in prospective list

 Search of NAO DM block for the following atom(s):   1   3
      Select eigenvectors with eigenvalue > 1.790
       1.999 1.193 0.000 0.000 0.000 0.000 0.000 0.000 0.000 0.000 0.000 0.000
       0.000 0.000 0.000 0.000 0.000
      Eigenvector ( 1) has occupancy 1.99888
            0.0000 0.4450-0.0364 0.0000 0.0000 0.0000 0.0000 0.0000
            0.1650 0.0266 0.0000 0.0000 0.0000 0.0000 0.0351 0.8779
            0.0291
      1 hybrid on atom 1 stashed in prospective list
      1 hybrid on atom 3 stashed in prospective list

 Stash prospective hybrids having projection expectation value > 0.300
       0.306 0.306 0.306 0.306
      0 hybrids eliminated in 1 pass
      4 hybrids moved from prospective to permanent list

 NHOs of 2-center eigenvectors projected from the NAO density matrix
       0.020 electrons remain in the fully projected matrix

 Search of NHO DM block for the following atom(s):   1
      Select eigenvectors with eigenvalue > 1.790
       2.000 0.000 0.000 0.000 0.000 0.000 0.000 0.000 0.000 0.000 0.000 0.000
       0.000 0.000 0.000
      Eigenvector ( 1) has occupancy 2.00000
            1.0000 0.0000 0.0000 0.0000 0.0000 0.0000 0.0000 0.0000
            0.0000 0.0000 0.0000 0.0000 0.0000 0.0000 0.0000
           NBO accepted:    1. Label:CR ( 1)   1
        1 eigenvector(s) stashed in permanent list

 Search of NHO DM block for the following atom(s):   2
      Select eigenvectors with eigenvalue > 1.790
       2.000 0.001 0.000 0.000 0.000 0.000 0.000 0.000 0.000 0.000 0.000 0.000
       0.000 0.000 0.000
      Eigenvector ( 1) has occupancy 1.99996
            1.0000 0.0000 0.0000 0.0000 0.0000 0.0000 0.0000 0.0000
            0.0000 0.0000 0.0000 0.0000 0.0000 0.0000 0.0000
           NBO accepted:    2. Label:CR ( 1)   2
        1 eigenvector(s) stashed in permanent list

  1-center NBOs projected from the NHO density matrix
       4.000 electrons remain (>1.790); search continues

 Search of NHO DM block for the following atom(s):   1   2
      Select eigenvectors with eigenvalue > 1.790
       1.791 0.057 0.000 0.000 0.000 0.000 0.000 0.000 0.000 0.000 0.000 0.000
       0.000 0.000 0.000 0.000 0.000 0.000 0.000 0.000 0.000 0.000 0.000 0.000
       0.000 0.000 0.000 0.000 0.000 0.000
      Eigenvector ( 1) has occupancy 1.79057
            0.0000 0.7533 0.0000 0.0000 0.0000 0.0000 0.0000 0.0000
            0.0000 0.0000 0.0000 0.0000 0.0000 0.0000 0.0000 0.0000
            0.6577 0.0000 0.0000 0.0000 0.0000 0.0000 0.0000 0.0000
            0.0000 0.0000 0.0000 0.0000 0.0000 0.0000
      Occupancy is 1.791 after deleting minor hybrid components
            0.0000 0.7533 0.0000 0.0000 0.0000 0.0000 0.0000 0.0000
            0.0000 0.0000 0.0000 0.0000 0.0000 0.0000 0.0000 0.0000
            0.6577 0.0000 0.0000 0.0000 0.0000 0.0000 0.0000 0.0000
            0.0000 0.0000 0.0000 0.0000 0.0000 0.0000
           NBO accepted:    3. Label:BD ( 1)   1   2
      Occupancy is 0.057 for antibonding component
            0.0000-0.6577 0.0000 0.0000 0.0000 0.0000 0.0000 0.0000
            0.0000 0.0000 0.0000 0.0000 0.0000 0.0000 0.0000 0.0000
            0.7533 0.0000 0.0000 0.0000 0.0000 0.0000 0.0000 0.0000
            0.0000 0.0000 0.0000 0.0000 0.0000 0.0000
           NBO accepted:    4. Label:BD*( 1)   1   2
        2 eigenvector(s) stashed in permanent list

 Search of NHO DM block for the following atom(s):   1   3
      Select eigenvectors with eigenvalue > 1.790
       1.941 0.192 0.000 0.000 0.000 0.000 0.000 0.000 0.000 0.000 0.000 0.000
       0.000 0.000 0.000 0.000 0.000
      Eigenvector ( 1) has occupancy 1.94104
            0.0000 0.0000 0.3614 0.0000 0.0000 0.0000 0.0000 0.0000
            0.0000 0.0000 0.0000 0.0000 0.0000 0.0000 0.0000 0.9324
            0.0000
      Occupancy is 1.941 after deleting minor hybrid components
            0.0000 0.0000 0.3614 0.0000 0.0000 0.0000 0.0000 0.0000
            0.0000 0.0000 0.0000 0.0000 0.0000 0.0000 0.0000 0.9324
            0.0000
           NBO accepted:    5. Label:BD ( 1)   1   3
      Occupancy is 0.192 for antibonding component
            0.0000 0.0000 0.9324 0.0000 0.0000 0.0000 0.0000 0.0000
            0.0000 0.0000 0.0000 0.0000 0.0000 0.0000 0.0000-0.3614
            0.0000
           NBO accepted:    6. Label:BD*( 1)   1   3
        2 eigenvector(s) stashed in permanent list

  2-center NBOs projected from the NHO density matrix
       0.020 electrons remain in the fully projected matrix

                            Occupancies       Lewis Structure    Low   High
         Max    Occ     -------------------  -----------------   occ   occ
  Cycle  Ctr   Thresh    Lewis   non-Lewis     CR  BD  nC  LP    (L)   (NL)
 ============================================================================
    4     2     1.79     7.73157   0.26843      2   2   0   0     0      1
 ----------------------------------------------------------------------------

 Structure accepted: No low occupancy Lewis orbitals

 -------------------------------------------------------
   Core                      3.99995 ( 99.999% of   4)
   Valence Lewis             3.73162 ( 93.290% of   4)
  ==================      =============================
   Total Lewis               7.73157 ( 96.645% of   8)
  -----------------------------------------------------
   Valence non-Lewis         0.24856 (  3.107% of   8)
   Rydberg non-Lewis         0.01987 (  0.248% of   8)
  ==================      =============================
   Total non-Lewis           0.26843 (  3.355% of   8)
 -------------------------------------------------------


     (Occupancy)   Bond orbital / Coefficients / Hybrids
 ------------------ Lewis ------------------------------------------------------
   1. (2.00000) CR ( 1)Be  1            s(100.00%)
                                         1.0000  0.0000  0.0000  0.0000  0.0000
                                         0.0000  0.0000  0.0000  0.0000  0.0000
                                         0.0000  0.0000  0.0000  0.0000  0.0000
   2. (1.99996) CR ( 1)Li  2            s(100.00%)
                                         1.0000  0.0000  0.0000  0.0000  0.0000
                                         0.0000  0.0000  0.0000  0.0000  0.0000
                                         0.0000  0.0000  0.0000  0.0000  0.0000
   3. (1.79057) BD ( 1)Be  1-Li  2
               ( 56.74%)   0.7533*Be  1 s( 63.62%)p 0.57( 36.32%)d 0.00(  0.05%)
                                         0.0000  0.7936  0.0796  0.0000  0.0000
                                         0.0000  0.0000  0.0000 -0.6027  0.0078
                                         0.0000  0.0000  0.0000  0.0000  0.0232
               ( 43.26%)   0.6577*Li  2 s( 90.77%)p 0.10(  9.20%)d 0.00(  0.03%)
                                         0.0000  0.9527 -0.0024  0.0000  0.0000
                                         0.0000  0.0000  0.0000  0.3031  0.0110
                                         0.0000  0.0000  0.0000  0.0000 -0.0178
   4. (1.94104) BD ( 1)Be  1- H  3
               ( 13.06%)   0.3614*Be  1 s( 38.32%)p 1.60( 61.16%)d 0.01(  0.52%)
                                         0.0000  0.6033 -0.1389  0.0000  0.0000
                                         0.0000  0.0000  0.0000  0.7797  0.0606
                                         0.0000  0.0000  0.0000  0.0000  0.0721
               ( 86.94%)   0.9324* H  3 s(100.00%)
                                         0.9994  0.0332
 ---------------- non-Lewis ----------------------------------------------------
   5. (0.05700) BD*( 1)Be  1-Li  2
               ( 43.26%)   0.6577*Be  1 s( 63.62%)p 0.57( 36.32%)d 0.00(  0.05%)
                                         0.0000 -0.7936 -0.0796  0.0000  0.0000
                                         0.0000  0.0000  0.0000  0.6027 -0.0078
                                         0.0000  0.0000  0.0000  0.0000 -0.0232
               ( 56.74%)  -0.7533*Li  2 s( 90.77%)p 0.10(  9.20%)d 0.00(  0.03%)
                                         0.0000 -0.9527  0.0024  0.0000  0.0000
                                         0.0000  0.0000  0.0000 -0.3031 -0.0110
                                         0.0000  0.0000  0.0000  0.0000  0.0178
   6. (0.19156) BD*( 1)Be  1- H  3
               ( 86.94%)   0.9324*Be  1 s( 38.32%)p 1.60( 61.16%)d 0.01(  0.52%)
                                         0.0000  0.6033 -0.1389  0.0000  0.0000
                                         0.0000  0.0000  0.0000  0.7797  0.0606
                                         0.0000  0.0000  0.0000  0.0000  0.0721
               ( 13.06%)  -0.3614* H  3 s(100.00%)
                                         0.9994  0.0332
   7. (0.00001) RY ( 1)Be  1            s( 10.00%)p 8.40( 84.01%)d 0.60(  6.00%)
   8. (0.00000) RY ( 2)Be  1            s(  2.29%)p 4.11(  9.43%)d38.47( 88.28%)
   9. (0.00000) RY ( 3)Be  1            s(  1.18%)p 0.10(  0.12%)d83.99( 98.70%)
  10. (0.00000) RY ( 4)Be  1            s(  0.00%)p 1.00( 99.38%)d 0.01(  0.62%)
  11. (0.00000) RY ( 5)Be  1            s(  0.00%)p 1.00( 99.35%)d 0.01(  0.65%)
  12. (0.00000) RY ( 6)Be  1            s(  0.00%)p 1.00( 99.93%)d 0.00(  0.07%)
  13. (0.00000) RY ( 7)Be  1            s(  0.00%)p 1.00(  1.35%)d73.25( 98.65%)
  14. (0.00000) RY ( 8)Be  1            s(  0.00%)p 0.00(  0.00%)d 1.00(100.00%)
  15. (0.00000) RY ( 9)Be  1            s(  0.00%)p 0.00(  0.00%)d 1.00(100.00%)
  16. (0.00000) RY (10)Be  1            s(  0.00%)p 1.00(100.00%)
  17. (0.00000) RY (11)Be  1            s( 85.65%)p 0.10(  8.86%)d 0.06(  5.49%)
  18. (0.00000) RY (12)Be  1            s( 98.94%)p 0.00(  0.10%)d 0.01(  0.96%)
  19. (0.00125) RY ( 1)Li  2            s(  7.54%)p12.00( 90.42%)d 0.27(  2.05%)
                                         0.0000 -0.1928  0.1954  0.0026  0.0000
                                         0.0000  0.0000  0.0000  0.6251 -0.7165
                                         0.0000  0.0000  0.0000  0.0000 -0.1431
  20. (0.00002) RY ( 2)Li  2            s( 14.25%)p 5.08( 72.38%)d 0.94( 13.37%)
  21. (0.00000) RY ( 3)Li  2            s(  2.34%)p 7.27( 17.00%)d34.50( 80.66%)
  22. (0.00000) RY ( 4)Li  2            s(  0.00%)p 1.00( 95.56%)d 0.05(  4.44%)
  23. (0.00000) RY ( 5)Li  2            s(  0.00%)p 0.00(  0.00%)d 1.00(100.00%)
  24. (0.00000) RY ( 6)Li  2            s(  0.00%)p 0.00(  0.00%)d 1.00(100.00%)
  25. (0.00000) RY ( 7)Li  2            s(  0.00%)p 1.00( 16.53%)d 5.05( 83.47%)
  26. (0.00000) RY ( 8)Li  2            s(  0.00%)p 1.00( 87.92%)d 0.14( 12.08%)
  27. (0.00000) RY ( 9)Li  2            s(  0.00%)p 1.00(100.00%)d 0.00(  0.00%)
  28. (0.00000) RY (10)Li  2            s( 39.77%)p 0.06(  2.30%)d 1.46( 57.93%)
  29. (0.00000) RY (11)Li  2            s( 58.53%)p 0.04(  2.25%)d 0.67( 39.23%)
  30. (0.00000) RY (12)Li  2            s( 86.81%)p 0.07(  6.46%)d 0.08(  6.74%)
  31. (0.00000) RY (13)Li  2            s(  0.00%)p 1.00(100.00%)
  32. (0.01859) RY ( 1) H  3            s(100.00%)
                                        -0.0332  0.9994


 NHO DIRECTIONALITY AND BOND BENDING (deviation from line of nuclear centers at
                                      the position of maximum hybrid amplitude)

         [Thresholds for printing:  angular deviation  >  1.0 degree]
                                    p- or d-character  > 25.0%
                                    orbital occupancy  >  0.10e

                        Line of Centers        Hybrid 1             Hybrid 2
                        ---------------  -------------------  ------------------
           NBO            Theta   Phi    Theta   Phi    Dev   Theta   Phi    Dev
 ===============================================================================
    None exceeding thresholds


 SECOND ORDER PERTURBATION THEORY ANALYSIS OF FOCK MATRIX IN NBO BASIS

     Threshold for printing:   0.50 kcal/mol
                                                          E(2) E(NL)-E(L) F(L,NL)
      Donor (L) NBO              Acceptor (NL) NBO      kcal/mol   a.u.    a.u.
 ===============================================================================

 within unit  1
    3. BD ( 1)Be  1-Li  2       5. BD*( 1)Be  1-Li  2      4.33    0.37   0.036
    3. BD ( 1)Be  1-Li  2       6. BD*( 1)Be  1- H  3     91.14    0.67   0.220
    3. BD ( 1)Be  1-Li  2       8. RY ( 2)Be  1            0.65    1.51   0.028
    3. BD ( 1)Be  1-Li  2      20. RY ( 2)Li  2            0.60    1.05   0.022
    3. BD ( 1)Be  1-Li  2      32. RY ( 1) H  3            3.99    1.38   0.066
    4. BD ( 1)Be  1- H  3       5. BD*( 1)Be  1-Li  2     24.78    0.60   0.109
    4. BD ( 1)Be  1- H  3      19. RY ( 1)Li  2            1.16    0.71   0.026
    4. BD ( 1)Be  1- H  3      20. RY ( 2)Li  2            0.62    1.28   0.025
    4. BD ( 1)Be  1- H  3      32. RY ( 1) H  3            0.99    1.61   0.036


 NATURAL BOND ORBITALS (Summary):

                                                     Principal Delocalizations
           NBO                 Occupancy    Energy   (geminal,vicinal,remote)
 ===============================================================================
 Molecular unit  1  (HBeLi)
 ------ Lewis --------------------------------------
    1. CR ( 1)Be  1             2.00000    -4.62950
    2. CR ( 1)Li  2             1.99996    -2.43966
    3. BD ( 1)Be  1-Li  2       1.79057    -0.17428  6(g),5(g),32(v),8(g),20(g)
    4. BD ( 1)Be  1- H  3       1.94104    -0.39883  5(g),19(v),32(g),20(v)
 ------ non-Lewis ----------------------------------
    5. BD*( 1)Be  1-Li  2       0.05700     0.19999
    6. BD*( 1)Be  1- H  3       0.19156     0.49256
    7. RY ( 1)Be  1             0.00001     0.75250
    8. RY ( 2)Be  1             0.00000     1.33117
    9. RY ( 3)Be  1             0.00000     1.11017
   10. RY ( 4)Be  1             0.00000     0.33352
   11. RY ( 5)Be  1             0.00000     0.36134
   12. RY ( 6)Be  1             0.00000     0.33877
   13. RY ( 7)Be  1             0.00000     1.11295
   14. RY ( 8)Be  1             0.00000     1.12630
   15. RY ( 9)Be  1             0.00000     1.11839
   16. RY (10)Be  1             0.00000     0.25258
   17. RY (11)Be  1             0.00000     0.60025
   18. RY (12)Be  1             0.00000     2.89652
   19. RY ( 1)Li  2             0.00125     0.30837
   20. RY ( 2)Li  2             0.00002     0.87884
   21. RY ( 3)Li  2             0.00000     0.55837
   22. RY ( 4)Li  2             0.00000     0.14843
   23. RY ( 5)Li  2             0.00000     0.62908
   24. RY ( 6)Li  2             0.00000     0.62812
   25. RY ( 7)Li  2             0.00000     0.63361
   26. RY ( 8)Li  2             0.00000     0.21805
   27. RY ( 9)Li  2             0.00000     0.16373
   28. RY (10)Li  2             0.00000     0.51110
   29. RY (11)Li  2             0.00000     0.38844
   30. RY (12)Li  2             0.00000     1.06471
   31. RY (13)Li  2             0.00000     0.16461
   32. RY ( 1) H  3             0.01859     1.20656
          -------------------------------
                 Total Lewis    7.73157  ( 96.6446%)
           Valence non-Lewis    0.24856  (  3.1070%)
           Rydberg non-Lewis    0.01987  (  0.2484%)
          -------------------------------
               Total unit  1    8.00000  (100.0000%)
              Charge unit  1    0.00000

 $CHOOSE
   BOND S 1 2 S 1 3 END
 $END

 NBO analysis completed in 0.34 CPU seconds (0 wall seconds)
 Maximum scratch memory used by NBO was 330813 words (2.52 MB)
 Maximum scratch memory used by G16NBO was 9825 words (0.07 MB)

 Opening RunExU unformatted file "/cluster/work/users/beto93/LiBeH/Gau-346853.EUF"
 Read unf file /cluster/work/users/beto93/LiBeH/Gau-346853.EUF:
 Label Gaussian matrix elements                                         IVers= 2 NLab= 2 Version=ES64L-G16RevC.01
 Title NBO-a                                                           
 NAtoms=     3 NBasis=    32 NBsUse=    32 ICharg=     0 Multip=     1 NE=     8 Len12L=8 Len4L=8 IOpCl= 0 ICGU=111
 GAUSSIAN SCALARS                    NI= 1 NR= 1 NTot=       1 LenBuf=    2 NRI=1 N=    1000
 NPA CHARGES                         NI= 0 NR= 1 NTot=       3 LenBuf= 4000 NRI=1 N=       3
 Recovered energy= -22.6076979536     dipole=      0.000000000000      0.000000000000     -1.905709967295
 Unable to Open any file for archive entry.
 1\1\GINC-C1-34\SP\RHF\6-31G(d)\Be1H1Li1\BETO93\24-Jul-2024\0\\#RHF/6-3
 1G* Pop=NBO7Read\\NBO-a\\0,1\Be,0,0.,0.,-0.00011\Li,0,0.,0.,2.3838\H,0
 ,0.,0.,-1.29969\\Version=ES64L-G16RevC.01\State=1-SG\HF=-22.607698\RMS
 D=3.104e-09\Dipole=0.,0.,1.90571\Quadrupole=-1.6349633,-1.6349633,3.26
 99266,0.,0.,0.\PG=C*V [C*(Li1Be1H1)]\\@
 The archive entry for this job was punched.


 THOUGH I SPEAK WITH THE TONGUES OF MEN AND OF ANGELS, 
 AND HAVE NOT LOVE,
 I AM BECOME AS SOUNDING BRASS, A TINKLING CYMBAL.
 AND THOUGH I HAVE THE GIFT OF PROPHECY,
 AND UNDERSTAND ALL MYSTERIES, AND ALL KNOWLEDGE.
 AND THOUGH I HAVE ALL FAITH, SO THAT I COULD REMOVE MOUNTAINS,
 AND HAVE NOT LOVE, I AM NOTHING.
 AND THOUGH I BESTOW ALL MY GOODS TO FEED THE POOR,
 AND THOUGH I GIVE MY BODY TO BE BURNED,
 AND HAVE NOT LOVE IT PROFITETH ME NOTHING.
 LOVE SUFFERETH LONG, AND IS KIND,
 LOVE ENVIETH NOT,
 LOVE VAUNTETH NOT ITSELF, IS NOT PUFFED UP,
 DOTH NOT BEHAVE ITSELF UNSEEMLY, SEEKETH NOT HER OWN,
 IS NOT EASILY PROVOKED, THINKETH NO EVIL,
 REJOICETH NOT IN INIQUITY, BUT REJOICETH IN THE TRUTH,
 BEARETH ALL THINGS, BELIEVETH ALL THINGS,
 HOPETH ALL THINGS, ENDURETH ALL THINGS.
 LOVE NEVER FAILETH, BUT WHETHER THERE BE PROPHECIES, THEY SHALL FAIL, 
 WHETHER THERE BE TONGUES, THEY SHALL CEASE,
 WHETHER THERE BE KNOWLEDGE, IT SHALL VANISH AWAY.
 FOR WE KNOW IN PART, AND WE PROPHESY IN PART.
 BUT WHEN THAT WHICH IS PERFECT IS COME, THEN THAT WHICH IS IN PART 
 SHALL BE DONE AWAY. 
 WHEN I WAS A CHILD, I SPAKE AS A CHILD, I UNDERSTOOD AS A CHILD, 
 I THOUGHT AS A CHILD.
 BUT WHEN I BECAME A MAN, I PUT AWAY CHILDISH THINGS.
 FOR NOW WE SEE THROUGH A GLASS, DARKLY, BUT THEN FACE TO FACE.
 NOW I KNOW IN PART. BUT THEN SHALL I KNOW EVEN AS ALSO I AM KNOWN.
 AND NOW ABIDETH FAITH, HOPE AND LOVE, THESE THREE.
 BUT THE GREATEST OF THESE IS LOVE.

                     I CORINTHIANS 13
 Job cpu time:       0 days  0 hours  0 minutes 10.3 seconds.
 Elapsed time:       0 days  0 hours  0 minutes  3.4 seconds.
 File lengths (MBytes):  RWF=     10 Int=      0 D2E=      0 Chk=      1 Scr=      1
 Normal termination of Gaussian 16 at Wed Jul 24 12:08:03 2024.
