 Entering Gaussian System, Link 0=g16
 Initial command:
 /cluster/software/Gaussian/g16_C.01/l1.exe "/cluster/work/users/beto93/LiH/Gau-1953034.inp" -scrdir="/cluster/work/users/beto93/LiH/"
 Entering Link 1 = /cluster/software/Gaussian/g16_C.01/l1.exe PID=   1953036.
  
 Copyright (c) 1988-2019, Gaussian, Inc.  All Rights Reserved.
  
 This is part of the Gaussian(R) 16 program.  It is based on
 the Gaussian(R) 09 system (copyright 2009, Gaussian, Inc.),
 the Gaussian(R) 03 system (copyright 2003, Gaussian, Inc.),
 the Gaussian(R) 98 system (copyright 1998, Gaussian, Inc.),
 the Gaussian(R) 94 system (copyright 1995, Gaussian, Inc.),
 the Gaussian 92(TM) system (copyright 1992, Gaussian, Inc.),
 the Gaussian 90(TM) system (copyright 1990, Gaussian, Inc.),
 the Gaussian 88(TM) system (copyright 1988, Gaussian, Inc.),
 the Gaussian 86(TM) system (copyright 1986, Carnegie Mellon
 University), and the Gaussian 82(TM) system (copyright 1983,
 Carnegie Mellon University). Gaussian is a federally registered
 trademark of Gaussian, Inc.
  
 This software contains proprietary and confidential information,
 including trade secrets, belonging to Gaussian, Inc.
  
 This software is provided under written license and may be
 used, copied, transmitted, or stored only in accord with that
 written license.
  
 The following legend is applicable only to US Government
 contracts under FAR:
  
                    RESTRICTED RIGHTS LEGEND
  
 Use, reproduction and disclosure by the US Government is
 subject to restrictions as set forth in subparagraphs (a)
 and (c) of the Commercial Computer Software - Restricted
 Rights clause in FAR 52.227-19.
  
 Gaussian, Inc.
 340 Quinnipiac St., Bldg. 40, Wallingford CT 06492
  
  
 ---------------------------------------------------------------
 Warning -- This program may not be used in any manner that
 competes with the business of Gaussian, Inc. or will provide
 assistance to any competitor of Gaussian, Inc.  The licensee
 of this program is prohibited from giving any competitor of
 Gaussian, Inc. access to this program.  By using this program,
 the user acknowledges that Gaussian, Inc. is engaged in the
 business of creating and licensing software in the field of
 computational chemistry and represents and warrants to the
 licensee that it is not a competitor of Gaussian, Inc. and that
 it will not use this program in any manner prohibited above.
 ---------------------------------------------------------------
  

 Cite this work as:
 Gaussian 16, Revision C.01,
 M. J. Frisch, G. W. Trucks, H. B. Schlegel, G. E. Scuseria, 
 M. A. Robb, J. R. Cheeseman, G. Scalmani, V. Barone, 
 G. A. Petersson, H. Nakatsuji, X. Li, M. Caricato, A. V. Marenich, 
 J. Bloino, B. G. Janesko, R. Gomperts, B. Mennucci, H. P. Hratchian, 
 J. V. Ortiz, A. F. Izmaylov, J. L. Sonnenberg, D. Williams-Young, 
 F. Ding, F. Lipparini, F. Egidi, J. Goings, B. Peng, A. Petrone, 
 T. Henderson, D. Ranasinghe, V. G. Zakrzewski, J. Gao, N. Rega, 
 G. Zheng, W. Liang, M. Hada, M. Ehara, K. Toyota, R. Fukuda, 
 J. Hasegawa, M. Ishida, T. Nakajima, Y. Honda, O. Kitao, H. Nakai, 
 T. Vreven, K. Throssell, J. A. Montgomery, Jr., J. E. Peralta, 
 F. Ogliaro, M. J. Bearpark, J. J. Heyd, E. N. Brothers, K. N. Kudin, 
 V. N. Staroverov, T. A. Keith, R. Kobayashi, J. Normand, 
 K. Raghavachari, A. P. Rendell, J. C. Burant, S. S. Iyengar, 
 J. Tomasi, M. Cossi, J. M. Millam, M. Klene, C. Adamo, R. Cammi, 
 J. W. Ochterski, R. L. Martin, K. Morokuma, O. Farkas, 
 J. B. Foresman, and D. J. Fox, Gaussian, Inc., Wallingford CT, 2019.
 
 ******************************************
 Gaussian 16:  ES64L-G16RevC.01  3-Jul-2019
                 2-Aug-2024 
 ******************************************
 %LindaWorkers=c2-2-ib
 %NProcShared=4
 Will use up to    4 processors via shared memory.
 %mem=25GB
 %chk=LiH.chk
 SetLPE:    new flags="-opt 'Tsnet.Node.lindarsharg: ssh'  -nodelist 'c2-2-ib.saga' -env GAUSS_MDEF=3355443200 -env GAUSS_EXEDIR="/cluster/software/Gaussian/g16_C.01/bsd:/cluster/software/Gaussian/g16_C.01""
 Will use up to    1 processors via Linda.
 ----------------------------
 #RHF/STO-3G nmr Pop=NBO7Read
 ----------------------------
 1/38=1,163=2,172=1/1;
 2/12=2,17=6,18=5,40=1/2;
 3/6=3,11=1,25=1,30=1,116=1/1,2,3,8;
 4//1;
 5/5=2,38=5/2;
 8/6=1,10=90,11=11/1;
 10/13=100,45=16/2;
 6/7=2,8=2,9=2,10=2,28=1,40=2,64=1,113=1,114=1,124=2103,125=11000/1,12;
 99/9=1/99;
 -------
 NBO-LiH
 -------
 Symbolic Z-matrix:
 Charge =  0 Multiplicity = 1
 Li                    0.        0.        0.3777 
 H                     0.        0.       -1.13311 
 
                          Input orientation:                          
 ---------------------------------------------------------------------
 Center     Atomic      Atomic             Coordinates (Angstroms)
 Number     Number       Type             X           Y           Z
 ---------------------------------------------------------------------
      1          3           0        0.000000    0.000000    0.377703
      2          1           0        0.000000    0.000000   -1.133108
 ---------------------------------------------------------------------
 Stoichiometry    HLi
 Framework group  C*V[C*(HLi)]
 Deg. of freedom     1
 Full point group                 C*V     NOp   4
 Largest Abelian subgroup         C2V     NOp   4
 Largest concise Abelian subgroup C1      NOp   1
                         Standard orientation:                         
 ---------------------------------------------------------------------
 Center     Atomic      Atomic             Coordinates (Angstroms)
 Number     Number       Type             X           Y           Z
 ---------------------------------------------------------------------
      1          3           0        0.000000    0.000000    0.377703
      2          1           0        0.000000    0.000000   -1.133108
 ---------------------------------------------------------------------
 Rotational constants (GHZ):           0.0000000         251.2485794         251.2485794
 Standard basis: STO-3G (5D, 7F)
 There are     4 symmetry adapted cartesian basis functions of A1  symmetry.
 There are     0 symmetry adapted cartesian basis functions of A2  symmetry.
 There are     1 symmetry adapted cartesian basis functions of B1  symmetry.
 There are     1 symmetry adapted cartesian basis functions of B2  symmetry.
 There are     4 symmetry adapted basis functions of A1  symmetry.
 There are     0 symmetry adapted basis functions of A2  symmetry.
 There are     1 symmetry adapted basis functions of B1  symmetry.
 There are     1 symmetry adapted basis functions of B2  symmetry.
     6 basis functions,    18 primitive gaussians,     6 cartesian basis functions
     2 alpha electrons        2 beta electrons
       nuclear repulsion energy         1.0507810922 Hartrees.
 NAtoms=    2 NActive=    2 NUniq=    2 SFac= 1.00D+00 NAtFMM=   60 NAOKFM=F Big=F
 Integral buffers will be    131072 words long.
 Raffenetti 1 integral format.
 Two-electron integral symmetry is turned on.
 One-electron integrals computed using PRISM.
 NBasis=     6 RedAO= T EigKep=  3.23D-01  NBF=     4     0     1     1
 NBsUse=     6 1.00D-06 EigRej= -1.00D+00 NBFU=     4     0     1     1
 ExpMin= 4.81D-02 ExpMax= 1.61D+01 ExpMxC= 1.61D+01 IAcc=3 IRadAn=         5 AccDes= 0.00D+00
 Harris functional with IExCor=  205 and IRadAn=       5 diagonalized for initial guess.
 HarFok:  IExCor=  205 AccDes= 0.00D+00 IRadAn=         5 IDoV= 1 UseB2=F ITyADJ=14
 ICtDFT=  3500011 ScaDFX=  1.000000  1.000000  1.000000  1.000000
 FoFCou: FMM=F IPFlag=           0 FMFlag=      100000 FMFlg1=           0
         NFxFlg=           0 DoJE=T BraDBF=F KetDBF=T FulRan=T
         wScrn=  0.000000 ICntrl=       500 IOpCl=  0 I1Cent=   200000004 NGrid=           0
         NMat0=    1 NMatS0=      1 NMatT0=    0 NMatD0=    1 NMtDS0=    0 NMtDT0=    0
 Petite list used in FoFCou.
 Initial guess orbital symmetries:
       Occupied  (SG) (SG)
       Virtual   (SG) (PI) (PI) (SG)
 The electronic state of the initial guess is 1-SG.
 Keep R1 ints in memory in symmetry-blocked form, NReq=802321.
 Requested convergence on RMS density matrix=1.00D-08 within 128 cycles.
 Requested convergence on MAX density matrix=1.00D-06.
 Requested convergence on             energy=1.00D-06.
 No special actions if energy rises.
 SCF Done:  E(RHF) =  -7.86338214042     A.U. after    8 cycles
            NFock=  8  Conv=0.20D-08     -V/T= 1.9856
 Range of M.O.s used for correlation:     1     6
 NBasis=     6 NAE=     2 NBE=     2 NFC=     0 NFV=     0
 NROrb=      6 NOA=     2 NOB=     2 NVA=     4 NVB=     4
          Differentiating once with respect to magnetic field using GIAOs.
          Electric field/nuclear overlap derivatives assumed to be zero.
 Keep R3 ints in memory in symmetry-blocked form, NReq=802632.
 FoFJK:  IHMeth= 1 ICntrl=    6127 DoSepK=F KAlg= 0 I1Cent=           0 FoldK=F
 IRaf=         1 NMat=       1 IRICut=       1 DoRegI=T DoRafI=F ISym2E= 0 IDoP0=0 IntGTp=1.
          There are     3 degrees of freedom in the 1st order CPHF.  IDoFFX=0 NUNeed=     3.
      2 vectors produced by pass  0 Test12= 2.67D-16 3.33D-08 XBig12= 3.76D-01 6.13D-01.
 AX will form     2 AO Fock derivatives at one time.
      2 vectors produced by pass  1 Test12= 2.67D-16 3.33D-08 XBig12= 2.08D-06 1.44D-03.
 InvSVY:  IOpt=1 It=  1 EMax= 8.67D-19
 Solved reduced A of dimension     4 with     3 vectors.
 Calculating GIAO nuclear magnetic shielding tensors.
 SCF GIAO Magnetic shielding tensor (ppm):
      1  Li   Isotropic =    87.2729   Anisotropy =    21.2395
   XX=    80.1931   YX=     0.0000   ZX=     0.0000
   XY=     0.0000   YY=    80.1931   ZY=     0.0000
   XZ=     0.0000   YZ=     0.0000   ZZ=   101.4326
   Eigenvalues:    80.1931    80.1931   101.4326
      2  H    Isotropic =    25.9845   Anisotropy =     4.6724
   XX=    24.4270   YX=     0.0000   ZX=     0.0000
   XY=     0.0000   YY=    24.4270   ZY=     0.0000
   XZ=     0.0000   YZ=     0.0000   ZZ=    29.0994
   Eigenvalues:    24.4270    24.4270    29.0994
 End of Minotr F.D. properties file   721 does not exist.
 End of Minotr F.D. properties file   722 does not exist.
 End of Minotr F.D. properties file   788 does not exist.

 **********************************************************************

            Population analysis using the SCF Density.

 **********************************************************************

 Orbital symmetries:
       Occupied  (SG) (SG)
       Virtual   (SG) (PI) (PI) (SG)
 The electronic state is 1-SG.
 Alpha  occ. eigenvalues --   -2.34700  -0.29269
 Alpha virt. eigenvalues --    0.07892   0.16378   0.16378   0.57158
          Condensed to atoms (all electrons):
               1          2
     1  Li   2.626533   0.390223
     2  H    0.390223   0.593021
 Mulliken charges:
               1
     1  Li  -0.016756
     2  H    0.016756
 Sum of Mulliken charges =  -0.00000
 Mulliken charges with hydrogens summed into heavy atoms:
               1
     1  Li  -0.000000
 Electronic spatial extent (au):  <R**2>=             17.7065
 Charge=              0.0000 electrons
 Dipole moment (field-independent basis, Debye):
    X=              0.0000    Y=              0.0000    Z=              4.8390  Tot=              4.8390
 Quadrupole moment (field-independent basis, Debye-Ang):
   XX=             -5.2344   YY=             -5.2344   ZZ=             -5.1243
   XY=              0.0000   XZ=              0.0000   YZ=              0.0000
 Traceless Quadrupole moment (field-independent basis, Debye-Ang):
   XX=             -0.0367   YY=             -0.0367   ZZ=              0.0734
   XY=              0.0000   XZ=              0.0000   YZ=              0.0000
 Octapole moment (field-independent basis, Debye-Ang**2):
  XXX=              0.0000  YYY=              0.0000  ZZZ=              9.6326  XYY=              0.0000
  XXY=              0.0000  XXZ=              3.3424  XZZ=              0.0000  YZZ=              0.0000
  YYZ=              3.3424  XYZ=              0.0000
 Hexadecapole moment (field-independent basis, Debye-Ang**3):
 XXXX=            -12.2541 YYYY=            -12.2541 ZZZZ=            -22.6582 XXXY=              0.0000
 XXXZ=              0.0000 YYYX=              0.0000 YYYZ=              0.0000 ZZZX=              0.0000
 ZZZY=              0.0000 XXYY=             -4.0847 XXZZ=             -5.7880 YYZZ=             -5.7880
 XXYZ=              0.0000 YYXZ=              0.0000 ZZXY=              0.0000
 N-N= 1.050781092248D+00 E-N=-2.052684934803D+01  KE= 7.977905309258D+00
 Symmetry A1   KE= 7.977905309258D+00
 Symmetry A2   KE= 0.000000000000D+00
 Symmetry B1   KE= 0.000000000000D+00
 Symmetry B2   KE= 0.000000000000D+00
 Running external command "gaunbo7 R"
         input file       "/cluster/work/users/beto93/LiH/Gau-1953036.EIn"
         output file      "/cluster/work/users/beto93/LiH/Gau-1953036.EOu"
         message file     "/cluster/work/users/beto93/LiH/Gau-1953036.EMs"
         fchk file        "/cluster/work/users/beto93/LiH/Gau-1953036.EFC"
         mat. el file     "/cluster/work/users/beto93/LiH/Gau-1953036.EUF"

 Writing WrtUnf unformatted file "/cluster/work/users/beto93/LiH/Gau-1953036.EUF"
 Gaussian matrix elements                                         Version   2 NLab=11 Len12L=8 Len4L=8
 Write SHELL TO ATOM MAP                   from file      0 offset           0 length                   3 to matrix element file.
 Write SHELL TYPES                         from file      0 offset           0 length                   3 to matrix element file.
 Write NUMBER OF PRIMITIVES PER SHELL      from file      0 offset           0 length                   3 to matrix element file.
 Write PRIMITIVE EXPONENTS                 from file      0 offset           0 length                   9 to matrix element file.
 Write CONTRACTION COEFFICIENTS            from file      0 offset           0 length                   9 to matrix element file.
 Write P(S=P) CONTRACTION COEFFICIENTS     from file      0 offset           0 length                   9 to matrix element file.
 Write COORDINATES OF EACH SHELL           from file      0 offset           0 length                   9 to matrix element file.
 Write BONDS PER ATOM                      from file      0 offset           0 length                   2 to matrix element file.
 Write BONDED ATOMS                        from file      0 offset           0 length                   2 to matrix element file.
 Write BOND TYPES                          from file      0 offset           0 length                   2 to matrix element file.
 Write ONIOM CHARGE/MULT                   from file      0 offset           0 length                  32 to matrix element file.
 Write ONIOM ATOM LAYERS                   from file      0 offset           0 length                   2 to matrix element file.
 Write ONIOM ATOM MODIFIERS                from file      0 offset           0 length                   2 to matrix element file.
 Write ONIOM ATOM TYPES                    from file      0 offset           0 length                   2 to matrix element file.
 Write ONIOM LINK ATOMS                    from file      0 offset           0 length                   2 to matrix element file.
 Write ONIOM LINK CHARGES                  from file      0 offset           0 length                   2 to matrix element file.
 Write ONIOM LINK DISTANCES                from file      0 offset           0 length                   8 to matrix element file.
 Write SYMINF INTS                         from file      0 offset           0 length                  26 to matrix element file.
 Write ROTTR TO SO                         from file      0 offset           0 length                  12 to matrix element file.
 Write GAUSSIAN SCALARS                    from file    501 offset           0 to matrix element file.
 Write OPTIMIZATION FLAGS                  from file      0 offset           0 length                   2 to matrix element file.
 Write INTEGER ISO                         from file      0 offset           0 length                   2 to matrix element file.
 Write INTEGER SPIN                        from file      0 offset           0 length                   2 to matrix element file.
 Write REAL ZEFFECTIVE                     from file      0 offset           0 length                   2 to matrix element file.
 Write REAL QUADRUPOLEMOMENT               from file      0 offset           0 length                   2 to matrix element file.
 Write REAL GFACTOR                        from file      0 offset           0 length                   2 to matrix element file.
 Write REAL ZNUCLEAR                       from file      0 offset           0 length                   2 to matrix element file.
 Write MULLIKEN CHARGES                    from file      0 offset           0 length                   2 to matrix element file.
 Write NUCLEAR GRADIENT                    from file  10584 offset           0 length                   6 to matrix element file.
 Array NUCLEAR FORCE CONSTANTS              on  file  10585 does not exist.
 Write ELECTRIC DIPOLE MOMENT              from file      0 offset           0 length                   3 to matrix element file.
 Write NON-ADIABATIC COUPLING              from file  10810 offset           0 length                   6 to matrix element file.
 Write FINITE EM FIELD                     from file  10521 offset           0 length                  35 to matrix element file.
 Write OVERLAP                             from file  10514 offset           0 length                  21 to matrix element file.
 Write CORE HAMILTONIAN ALPHA              from file  10515 offset           0 length                  21 to matrix element file.
 Write CORE HAMILTONIAN BETA               from file  10515 offset          21 length                  21 to matrix element file.
 Write KINETIC ENERGY                      from file  10516 offset           0 length                  21 to matrix element file.
 Write ORTHOGONAL BASIS                    from file  10685 offset           0 length                  36 to matrix element file.
 Write DIPOLE INTEGRALS                    from file  10518 offset           0 length                  63 to matrix element file.
 Write DIP VEL INTEGRALS                   from file  10572 offset           0 length                  63 to matrix element file.
 Write R X DEL INTEGRALS                   from file  10572 offset          63 length                  63 to matrix element file.
 Write ALPHA ORBITAL ENERGIES              from file      0 offset           0 length                   6 to matrix element file.
 Write ALPHA MO COEFFICIENTS               from file  10524 offset           0 length                  36 to matrix element file.
 Write ALPHA DENSITY MATRIX                from file      0 offset           0 length                  21 to matrix element file.
 Write ALPHA FOCK MATRIX                   from file  10536 offset           0 length                  21 to matrix element file.
 Write ENERGY-WEIGHTED DENSITY             from file  10571 offset           0 length                  21 to matrix element file.
 Write ALPHA DENSITY DERIVATIVES           from file  10592 offset           0 length                  63 to matrix element file.
 Write ALPHA MO DERIVATIVES                from file      0 offset           0 length                  36 to matrix element file.
 Write ALPHA SCF DENSITY MATRIX            from file      0 offset           0 length                  21 to matrix element file.
 Write TRANS MO COEFFICIENTS               from file  10548 offset           0 length                  36 to matrix element file.
 Compute GIAO d2H/dBdm
 Compute GIAO d2H/dBdm, IAt=     1 NDo=     1
 Compute GIAO d2H/dBdm, IAt=     2 NDo=     1
 Write GIAO D2H/DBDM                       from file  19999 offset           0 length                 378 to matrix element file.
 Compute GIAO L/R3
 Compute GIAO L/R3, IAt=     1 NDo=     1
 Compute GIAO L/R3, IAt=     2 NDo=     1
 Write GIAO L/R3                           from file  19999 offset           0 length                 126 to matrix element file.
 Write INTEGER PARAMETERS                  from file      0 offset           0 length                   2 to matrix element file.
 No 2e integrals to process.
 Array PSCF 2PDM                            on  file  10629 does not exist.
 Perform NBO analysis...executing G16NBO...

 *********************************** NBO 7.0 ***********************************
             N A T U R A L   A T O M I C   O R B I T A L   A N D
          N A T U R A L   B O N D   O R B I T A L   A N A L Y S I S
 **************************** Espen Tangen (S101595) ***************************
  (c) Copyright 1996-2021 Board of Regents of the University of Wisconsin System
      on behalf of the Theoretical Chemistry Institute.  All rights reserved.

          Cite this program [NBO 7.0.10 (8-Feb-2021)] as:

          NBO 7.0.  E. D. Glendening, J. K. Badenhoop, A. E. Reed,
          J. E. Carpenter, J. A. Bohmann, C. M. Morales, P. Karafiloglou,
          C. R. Landis, and F. Weinhold, Theoretical Chemistry Institute,
          University of Wisconsin, Madison, WI (2018)

       /NPA    / : Natural Population Analysis
       /NCS    / : Natural Chemical Shielding Analysis
       /AOPNAO / : Print the AO to PNAO transformation
       /AONAO  / : Print the AO to NAO transformation
       /AONO   / : Print the NOs in the AO basis
       /AOMO   / : Print the MOs in the AO basis
       /BOAO   / : Print the AO bond-order matrix
       /DMAO   / : Print the AO density matrix
       /DMPNAO / : Print the PNAO density matrix
       /DMNAO  / : Print the NAO density matrix
       /DMMO   / : Print the MO density matrix
       /SAO    / : Print the AO overlap matrix
       /SPNAO  / : Print the PNAO overlap matrix
       /DETAIL / : Write details of NBO search
       /ARCHIVE/ : Write the archive file to lfn47
       /AOINFO / : Write AO information to lfn31
       /FILE   / : Set to LiH

 Filename set to LiH

 Job title: NBO-LiH


 MOs in the AO basis:

           AO          1       2       3       4       5       6
      ------------ ------- ------- ------- ------- ------- -------
   1. Li 1 (s)      0.9911 -0.1736 -0.2088  0.0000  0.0000  0.0806
   2. Li 1 (s)      0.0321  0.4471  0.8012  0.0000  0.0000 -0.7391
   3. Li 1 (px)     0.0000  0.0000  0.0000  1.0000  0.0000  0.0000
   4. Li 1 (py)     0.0000  0.0000  0.0000  0.0000  1.0000  0.0000
   5. Li 1 (pz)     0.0071 -0.3492  0.6128  0.0000  0.0000  1.0070
   6.  H 2 (s)      0.0067  0.5445 -0.1344  0.0000  0.0000  1.2317


 NOs in the AO basis:

           AO          1       2       3       4       5       6
      ------------ ------- ------- ------- ------- ------- -------
   1. Li 1 (s)      1.0042  0.0630  0.2193  0.0000  0.0104 -0.0436
   2. Li 1 (s)     -0.0175 -0.4479 -0.9166  0.0000 -0.0142  0.5898
   3. Li 1 (px)     0.0000  0.0000  0.0611  0.0000 -0.9956  0.0711
   4. Li 1 (py)     0.0000  0.0000  0.0000 -1.0000  0.0000  0.0000
   5. Li 1 (pz)     0.0456  0.3462 -0.4261  0.0000 -0.1043 -1.0941
   6.  H 2 (s)     -0.0535 -0.5419  0.3474  0.0000 -0.0634 -1.1876


 AO overlap matrix:

           AO          1       2       3       4       5       6
      ------------ ------- ------- ------- ------- ------- -------
   1. Li 1 (s)      1.0000  0.2411  0.0000  0.0000  0.0000  0.0804
   2. Li 1 (s)      0.2411  1.0000  0.0000  0.0000  0.0000  0.4176
   3. Li 1 (px)     0.0000  0.0000  1.0000  0.0000  0.0000  0.0000
   4. Li 1 (py)     0.0000  0.0000  0.0000  1.0000  0.0000  0.0000
   5. Li 1 (pz)     0.0000  0.0000  0.0000  0.0000  1.0000 -0.5284
   6.  H 2 (s)      0.0804  0.4176  0.0000  0.0000 -0.5284  1.0000


 AO bond-order matrix:

           AO          1       2       3       4       5       6
      ------------ ------- ------- ------- ------- ------- -------
   1. Li 1 (s)      2.0250 -0.0916  0.0000  0.0000  0.1353 -0.1758
   2. Li 1 (s)     -0.0916  0.4018  0.0000  0.0000 -0.3118  0.4873
   3. Li 1 (px)     0.0000  0.0000  0.0000  0.0000  0.0000  0.0000
   4. Li 1 (py)     0.0000  0.0000  0.0000  0.0000  0.0000  0.0000
   5. Li 1 (pz)     0.1353 -0.3118  0.0000  0.0000  0.2439 -0.3801
   6.  H 2 (s)     -0.1758  0.4873  0.0000  0.0000 -0.3801  0.5930


 AO density matrix:

           AO          1       2       3       4       5       6
      ------------ ------- ------- ------- ------- ------- -------
   1. Li 1 (s)      1.9986  0.5196  0.0000  0.0000  0.0351  0.1523
   2. Li 1 (s)      0.5196  0.9504  0.0000  0.0000 -0.8038  1.1935
   3. Li 1 (px)     0.0000  0.0000  0.0000  0.0000  0.0000  0.0000
   4. Li 1 (py)     0.0000  0.0000  0.0000  0.0000  0.0000  0.0000
   5. Li 1 (pz)     0.0351 -0.8038  0.0000  0.0000  0.8113 -1.1479
   6.  H 2 (s)      0.1523  1.1935  0.0000  0.0000 -1.1479  1.6447


 MO density matrix:

      MO     1       2       3       4       5       6
     ---- ------  ------  ------  ------  ------  ------
   1.     2.0000  0.0000  0.0000  0.0000  0.0000  0.0000
   2.     0.0000  2.0000  0.0000  0.0000  0.0000  0.0000
   3.     0.0000  0.0000  0.0000  0.0000  0.0000  0.0000
   4.     0.0000  0.0000  0.0000  0.0000  0.0000  0.0000
   5.     0.0000  0.0000  0.0000  0.0000  0.0000  0.0000
   6.     0.0000  0.0000  0.0000  0.0000  0.0000  0.0000


 NATURAL POPULATIONS:  Natural atomic orbital occupancies

  NAO Atom No lang   Type(AO)    Occupancy      Energy
 -------------------------------------------------------
   1   Li  1  s      Cor( 1s)     1.99993      -2.34689
   2   Li  1  s      Val( 2s)     0.39085       0.06645
   3   Li  1  px     Ryd( 2p)     0.00000       0.16378
   4   Li  1  py     Ryd( 2p)     0.00000       0.16378
   5   Li  1  pz     Ryd( 2p)     0.16137       0.37939

   6    H  2  s      Val( 1s)     1.44786      -0.08814


 Summary of Natural Population Analysis:

                                     Natural Population
             Natural    ---------------------------------------------
  Atom No    Charge        Core      Valence    Rydberg      Total
 --------------------------------------------------------------------
   Li  1    0.44786      1.99993     0.39085    0.16137     2.55214
    H  2   -0.44786      0.00000     1.44786    0.00000     1.44786
 ====================================================================
 * Total *  0.00000      1.99993     1.83870    0.16137     4.00000

                                 Natural Population
 ---------------------------------------------------------
   Core                       1.99993 ( 99.9963% of    2)
   Valence                    1.83870 ( 91.9352% of    2)
   Natural Minimal Basis      3.83863 ( 95.9658% of    4)
   Natural Rydberg Basis      0.16137 (  4.0342% of    4)
 ---------------------------------------------------------

    Atom No         Natural Electron Configuration
 ----------------------------------------------------------------------------
     Li  1      [core]2s( 0.39)2p( 0.16)
      H  2            1s( 1.45)


 PNAOs in the AO basis:

           AO          1       2       3       4       5       6
      ------------ ------- ------- ------- ------- ------- -------
   1. Li 1 (s)      0.9909 -0.2825  0.0000  0.0000  0.0000  0.0000
   2. Li 1 (s)      0.0352  1.0298  0.0000  0.0000  0.0000  0.0000
   3. Li 1 (px)     0.0000  0.0000  1.0000  0.0000  0.0000  0.0000
   4. Li 1 (py)     0.0000  0.0000  0.0000  1.0000  0.0000  0.0000
   5. Li 1 (pz)     0.0000  0.0000  0.0000  0.0000  1.0000  0.0000
   6.  H 2 (s)      0.0000  0.0000  0.0000  0.0000  0.0000  1.0000


 PNAO overlap matrix:

           NAO         1       2       3       4       5       6
      ------------ ------- ------- ------- ------- ------- -------
   1. Li 1( 1s )    1.0000  0.0000  0.0000  0.0000  0.0000  0.0944
   2. Li 1( 2s )    0.0000  1.0000  0.0000  0.0000  0.0000  0.4073
   3. Li 1( 2px)    0.0000  0.0000  1.0000  0.0000  0.0000  0.0000
   4. Li 1( 2py)    0.0000  0.0000  0.0000  1.0000  0.0000  0.0000
   5. Li 1( 2pz)    0.0000  0.0000  0.0000  0.0000  1.0000 -0.5284
   6.  H 2( 1s )    0.0944  0.4073  0.0000  0.0000 -0.5284  1.0000


 PNAO density matrix:

           NAO         1       2       3       4       5       6
      ------------ ------- ------- ------- ------- ------- -------
   1. Li 1( 1s )    1.9999  0.0000  0.0000  0.0000  0.0065  0.1929
   2. Li 1( 2s )    0.0000  0.8650  0.0000  0.0000 -0.8377  1.1860
   3. Li 1( 2px)    0.0000  0.0000  0.0000  0.0000  0.0000  0.0000
   4. Li 1( 2py)    0.0000  0.0000  0.0000  0.0000  0.0000  0.0000
   5. Li 1( 2pz)    0.0065 -0.8377  0.0000  0.0000  0.8113 -1.1479
   6.  H 2( 1s )    0.1929  1.1860  0.0000  0.0000 -1.1479  1.6447


 NAOs in the AO basis:

           AO          1       2       3       4       5       6
      ------------ ------- ------- ------- ------- ------- -------
   1. Li 1 (s)      0.9909 -0.2783  0.0000  0.0000  0.0170 -0.0544
   2. Li 1 (s)      0.0352  1.1178  0.0000  0.0000 -0.3328 -0.1664
   3. Li 1 (px)     0.0000  0.0000  1.0000  0.0000  0.0000  0.0000
   4. Li 1 (py)     0.0000  0.0000  0.0000  1.0000  0.0000  0.0000
   5. Li 1 (pz)     0.0000  0.0000  0.0000  0.0000  1.2294  0.0000
   6.  H 2 (s)      0.0000 -0.3007  0.0000  0.0000  0.7873  1.0590


 NAO density matrix:

           NAO         1       2       3       4       5       6
      ------------ ------- ------- ------- ------- ------- -------
   1. Li 1( 1s )    1.9999 -0.0013  0.0000  0.0000  0.0112  0.0044
   2. Li 1( 2s )   -0.0013  0.3908  0.0000  0.0000 -0.2511  0.7523
   3. Li 1( 2px)    0.0000  0.0000  0.0000  0.0000  0.0000  0.0000
   4. Li 1( 2py)    0.0000  0.0000  0.0000  0.0000  0.0000  0.0000
   5. Li 1( 2pz)    0.0112 -0.2511  0.0000  0.0000  0.1614 -0.4832
   6.  H 2( 1s )    0.0044  0.7523  0.0000  0.0000 -0.4832  1.4479


 NATURAL BOND ORBITAL ANALYSIS:

 Initiate 2-center NBO search using THRESH = 1.900 and PRJTHR = 0.300

 Search of NAO DM block for core orbitals on atom:   1
      Eigenvector ( 1) has occupancy 1.99993
            1.0000 0.0000 0.0000 0.0000 0.0000
        1 eigenvector(s) stashed in permanent list

 Core orbitals projected from the NAO density matrix
       2.000 electrons remain (>1.900); search continues

 No NHOs identified in the 1-center search of the NAO density matrix
       2.000 electrons remain (>1.900); search continues

 Search of NAO DM block for the following atom(s):   1   2
      Select eigenvectors with eigenvalue > 1.900
       2.000 0.000 0.000 0.000 0.000 0.000
      Eigenvector ( 1) has occupancy 2.00000
            0.0000 0.4421 0.0000 0.0000-0.2840 0.8508
      1 hybrid on atom 1 stashed in prospective list
      1 hybrid on atom 2 stashed in prospective list

 Stash prospective hybrids having projection expectation value > 0.300
       1.000 1.000
      0 hybrids eliminated in 1 pass
      2 hybrids moved from prospective to permanent list

 NHOs of 2-center eigenvectors projected from the NAO density matrix
       0.000 electrons remain in the fully projected matrix

 Search of NHO DM block for the following atom(s):   1
      Select eigenvectors with eigenvalue > 1.900
       2.000 0.000 0.000 0.000 0.000
      Eigenvector ( 1) has occupancy 1.99993
            1.0000 0.0000 0.0000 0.0000 0.0000
           NBO accepted:    1. Label:CR ( 1)   1
        1 eigenvector(s) stashed in permanent list

  1-center NBOs projected from the NHO density matrix
       2.000 electrons remain (>1.900); search continues

 Search of NHO DM block for the following atom(s):   1   2
      Select eigenvectors with eigenvalue > 1.900
       2.000 0.000 0.000 0.000 0.000 0.000
      Eigenvector ( 1) has occupancy 2.00000
            0.0000 0.5254 0.0000 0.0000 0.0000 0.8508
      Occupancy is 2.000 after deleting minor hybrid components
            0.0000 0.5254 0.0000 0.0000 0.0000 0.8508
           NBO accepted:    2. Label:BD ( 1)   1   2
      Occupancy is 0.000 for antibonding component
            0.0000 0.8508 0.0000 0.0000 0.0000-0.5254
           NBO accepted:    3. Label:BD*( 1)   1   2
        2 eigenvector(s) stashed in permanent list

  2-center NBOs projected from the NHO density matrix
       0.000 electrons remain in the fully projected matrix

                            Occupancies       Lewis Structure    Low   High
         Max    Occ     -------------------  -----------------   occ   occ
  Cycle  Ctr   Thresh    Lewis   non-Lewis     CR  BD  nC  LP    (L)   (NL)
 ============================================================================
    1     2     1.90     3.99993   0.00007      1   1   0   0     0      0
 ----------------------------------------------------------------------------

 Structure accepted: No low occupancy Lewis orbitals

 -------------------------------------------------------
   Core                      1.99993 ( 99.996% of   2)
   Valence Lewis             2.00000 (100.000% of   2)
  ==================      =============================
   Total Lewis               3.99993 ( 99.998% of   4)
  -----------------------------------------------------
   Valence non-Lewis         0.00004 (  0.001% of   4)
   Rydberg non-Lewis         0.00004 (  0.001% of   4)
  ==================      =============================
   Total non-Lewis           0.00007 (  0.002% of   4)
 -------------------------------------------------------


     (Occupancy)   Bond orbital / Coefficients / Hybrids
 ------------------ Lewis ------------------------------------------------------
   1. (1.99993) CR ( 1)Li  1            s(100.00%)
                                         1.0000  0.0000  0.0000  0.0000  0.0000
   2. (2.00000) BD ( 1)Li  1- H  2
               ( 27.61%)   0.5254*Li  1 s( 70.79%)p 0.41( 29.21%)
                                         0.0000  0.8413  0.0000  0.0000 -0.5405
               ( 72.39%)   0.8508* H  2 s(100.00%)
                                         1.0000
 ---------------- non-Lewis ----------------------------------------------------
   3. (0.00004) BD*( 1)Li  1- H  2
               ( 72.39%)   0.8508*Li  1 s( 70.79%)p 0.41( 29.21%)
               ( 27.61%)  -0.5254* H  2 s(100.00%)
   4. (0.00004) RY ( 1)Li  1            s( 29.21%)p 2.42( 70.79%)
   5. (0.00000) RY ( 2)Li  1            s(  0.00%)p 1.00(100.00%)
   6. (0.00000) RY ( 3)Li  1            s(  0.00%)p 1.00(100.00%)


 NHO DIRECTIONALITY AND BOND BENDING (deviation from line of nuclear centers at
                                      the position of maximum hybrid amplitude)

         [Thresholds for printing:  angular deviation  >  1.0 degree]
                                    p- or d-character  > 25.0%
                                    orbital occupancy  >  0.10e

                        Line of Centers        Hybrid 1             Hybrid 2
                        ---------------  -------------------  ------------------
           NBO            Theta   Phi    Theta   Phi    Dev   Theta   Phi    Dev
 ===============================================================================
 Failed to locate density maximum for hybrid 2 on center 1


 SECOND ORDER PERTURBATION THEORY ANALYSIS OF FOCK MATRIX IN NBO BASIS

     Threshold for printing:   0.50 kcal/mol
                                                          E(2) E(NL)-E(L) F(L,NL)
      Donor (L) NBO              Acceptor (NL) NBO      kcal/mol   a.u.    a.u.
 ===============================================================================

 within unit  1
       None above threshold


 NATURAL BOND ORBITALS (Summary):

                                                     Principal Delocalizations
           NBO                 Occupancy    Energy   (geminal,vicinal,remote)
 ===============================================================================
 Molecular unit  1  (HLi)
 ------ Lewis --------------------------------------
    1. CR ( 1)Li  1             1.99993    -2.34689
    2. BD ( 1)Li  1- H  2       2.00000    -0.29269
 ------ non-Lewis ----------------------------------
    3. BD*( 1)Li  1- H  2       0.00004     0.44822
    4. RY ( 1)Li  1             0.00004     0.20217
    5. RY ( 2)Li  1             0.00000     0.16378
    6. RY ( 3)Li  1             0.00000     0.16378
          -------------------------------
                 Total Lewis    3.99993  ( 99.9982%)
           Valence non-Lewis    0.00004  (  0.0009%)
           Rydberg non-Lewis    0.00004  (  0.0010%)
          -------------------------------
               Total unit  1    4.00000  (100.0000%)
              Charge unit  1    0.00000

 $CHOOSE
   BOND S 1 2 END
 $END


 NATURAL LOCALIZED MOLECULAR ORBITAL (NLMO) ANALYSIS:

 1 pass over DM reduced the maximum off-diagonal element to 0.92E-15

 Hybridization/Polarization Analysis of NLMOs in NAO Basis:
 NLMO / Occupancy / Percent from Parent NBO / Atomic Hybrid Contributions
 -------------------------------------------------------------------------------
   1. (2.00000)  99.9963% CR ( 1)Li  1
                         100.000% Li  1 s(100.00%)p 0.00(  0.00%)
   2. (2.00000) 100.0000% BD ( 1)Li  1- H  2
                          27.608% Li  1 s( 70.79%)p 0.41( 29.21%)
                          72.392%  H  2 s(100.00%)


 NATURAL CHEMICAL SHIELDING ANALYSIS:

 Summary of isotropic NMR chemical shielding
 Total Lewis (L) and non-Lewis (NL) contributions: (ppm)

         NBO           Li  1    H  2
 -----------------    ------- -------
   1. Li 1(cr)     L    93.58   -0.05
                   NL    0.01    0.02
   2. Li 1- H 2    L    -6.31   26.02
                   NL    0.00    0.00
 -----------------    ------- -------
             Lewis      87.27   25.97
         non-Lewis       0.01    0.02
 -----------------    ------- -------
             Total      87.27   25.98

 NBO analysis completed in 0.09 CPU seconds (0 wall seconds)
 Maximum scratch memory used by NBO was 220858 words (1.69 MB)
 Maximum scratch memory used by G16NBO was 8445 words (0.06 MB)

 Opening RunExU unformatted file "/cluster/work/users/beto93/LiH/Gau-1953036.EUF"
 Read unf file /cluster/work/users/beto93/LiH/Gau-1953036.EUF:
 Label Gaussian matrix elements                                         IVers= 2 NLab= 2 Version=ES64L-G16RevC.01
 Title NBO-LiH                                                         
 NAtoms=     2 NBasis=     6 NBsUse=     6 ICharg=     0 Multip=     1 NE=     4 Len12L=8 Len4L=8 IOpCl= 0 ICGU=111
 GAUSSIAN SCALARS                    NI= 1 NR= 1 NTot=       1 LenBuf=    2 NRI=1 N=    1000
 NPA CHARGES                         NI= 0 NR= 1 NTot=       2 LenBuf= 4000 NRI=1 N=       2
 Recovered energy= -7.86338214042     dipole=      0.000000000000      0.000000000000      1.903828701149
 Unable to Open any file for archive entry.
 1\1\GINC-C2-2\SP\RHF\STO-3G\H1Li1\BETO93\02-Aug-2024\0\\#RHF/STO-3G nm
 r Pop=NBO7Read\\NBO-LiH\\0,1\Li,0,0.,0.,0.377703\H,0,0.,0.,-1.133108\\
 Version=ES64L-G16RevC.01\State=1-SG\HF=-7.8633821\RMSD=1.951e-09\Dipol
 e=0.,0.,1.9038287\Quadrupole=-0.0272998,-0.0272998,0.0545997,0.,0.,0.\
 PG=C*V [C*(H1Li1)]\\@
 The archive entry for this job was punched.


 Children are likely to live up to what you believe of them.
 -- Lady Bird Johnson
 Job cpu time:       0 days  0 hours  0 minutes 12.6 seconds.
 Elapsed time:       0 days  0 hours  0 minutes  4.5 seconds.
 File lengths (MBytes):  RWF=     10 Int=      0 D2E=      0 Chk=      1 Scr=      1
 Normal termination of Gaussian 16 at Fri Aug  2 15:39:29 2024.
