 Entering Gaussian System, Link 0=g16
 Initial command:
 /cluster/software/Gaussian/g16_C.01/l1.exe "/cluster/work/users/beto93/CH3F/Gau-155915.inp" -scrdir="/cluster/work/users/beto93/CH3F/"
 Entering Link 1 = /cluster/software/Gaussian/g16_C.01/l1.exe PID=    155916.
  
 Copyright (c) 1988-2019, Gaussian, Inc.  All Rights Reserved.
  
 This is part of the Gaussian(R) 16 program.  It is based on
 the Gaussian(R) 09 system (copyright 2009, Gaussian, Inc.),
 the Gaussian(R) 03 system (copyright 2003, Gaussian, Inc.),
 the Gaussian(R) 98 system (copyright 1998, Gaussian, Inc.),
 the Gaussian(R) 94 system (copyright 1995, Gaussian, Inc.),
 the Gaussian 92(TM) system (copyright 1992, Gaussian, Inc.),
 the Gaussian 90(TM) system (copyright 1990, Gaussian, Inc.),
 the Gaussian 88(TM) system (copyright 1988, Gaussian, Inc.),
 the Gaussian 86(TM) system (copyright 1986, Carnegie Mellon
 University), and the Gaussian 82(TM) system (copyright 1983,
 Carnegie Mellon University). Gaussian is a federally registered
 trademark of Gaussian, Inc.
  
 This software contains proprietary and confidential information,
 including trade secrets, belonging to Gaussian, Inc.
  
 This software is provided under written license and may be
 used, copied, transmitted, or stored only in accord with that
 written license.
  
 The following legend is applicable only to US Government
 contracts under FAR:
  
                    RESTRICTED RIGHTS LEGEND
  
 Use, reproduction and disclosure by the US Government is
 subject to restrictions as set forth in subparagraphs (a)
 and (c) of the Commercial Computer Software - Restricted
 Rights clause in FAR 52.227-19.
  
 Gaussian, Inc.
 340 Quinnipiac St., Bldg. 40, Wallingford CT 06492
  
  
 ---------------------------------------------------------------
 Warning -- This program may not be used in any manner that
 competes with the business of Gaussian, Inc. or will provide
 assistance to any competitor of Gaussian, Inc.  The licensee
 of this program is prohibited from giving any competitor of
 Gaussian, Inc. access to this program.  By using this program,
 the user acknowledges that Gaussian, Inc. is engaged in the
 business of creating and licensing software in the field of
 computational chemistry and represents and warrants to the
 licensee that it is not a competitor of Gaussian, Inc. and that
 it will not use this program in any manner prohibited above.
 ---------------------------------------------------------------
  

 Cite this work as:
 Gaussian 16, Revision C.01,
 M. J. Frisch, G. W. Trucks, H. B. Schlegel, G. E. Scuseria, 
 M. A. Robb, J. R. Cheeseman, G. Scalmani, V. Barone, 
 G. A. Petersson, H. Nakatsuji, X. Li, M. Caricato, A. V. Marenich, 
 J. Bloino, B. G. Janesko, R. Gomperts, B. Mennucci, H. P. Hratchian, 
 J. V. Ortiz, A. F. Izmaylov, J. L. Sonnenberg, D. Williams-Young, 
 F. Ding, F. Lipparini, F. Egidi, J. Goings, B. Peng, A. Petrone, 
 T. Henderson, D. Ranasinghe, V. G. Zakrzewski, J. Gao, N. Rega, 
 G. Zheng, W. Liang, M. Hada, M. Ehara, K. Toyota, R. Fukuda, 
 J. Hasegawa, M. Ishida, T. Nakajima, Y. Honda, O. Kitao, H. Nakai, 
 T. Vreven, K. Throssell, J. A. Montgomery, Jr., J. E. Peralta, 
 F. Ogliaro, M. J. Bearpark, J. J. Heyd, E. N. Brothers, K. N. Kudin, 
 V. N. Staroverov, T. A. Keith, R. Kobayashi, J. Normand, 
 K. Raghavachari, A. P. Rendell, J. C. Burant, S. S. Iyengar, 
 J. Tomasi, M. Cossi, J. M. Millam, M. Klene, C. Adamo, R. Cammi, 
 J. W. Ochterski, R. L. Martin, K. Morokuma, O. Farkas, 
 J. B. Foresman, and D. J. Fox, Gaussian, Inc., Wallingford CT, 2019.
 
 ******************************************
 Gaussian 16:  ES64L-G16RevC.01  3-Jul-2019
                24-Jul-2024 
 ******************************************
 %LindaWorkers=c1-8-ib
 %NProcShared=4
 Will use up to    4 processors via shared memory.
 %mem=25GB
 %chk=a.chk
 SetLPE:    new flags="-opt 'Tsnet.Node.lindarsharg: ssh'  -nodelist 'c1-8-ib.saga' -env GAUSS_MDEF=3355443200 -env GAUSS_EXEDIR="/cluster/software/Gaussian/g16_C.01/bsd:/cluster/software/Gaussian/g16_C.01""
 Will use up to    1 processors via Linda.
 ------------------------
 #RHF/6-31G* Pop=NBO7Read
 ------------------------
 1/38=1,163=2,172=1/1;
 2/12=2,17=6,18=5,40=1/2;
 3/5=1,6=6,7=1,11=1,25=1,30=1,116=1/1,2,3;
 4//1;
 5/5=2,38=5/2;
 6/7=2,8=2,9=2,10=2,28=1,40=2,113=1,114=1,124=2103/1,12;
 99/5=1,9=1/99;
 -----
 NBO-a
 -----
 Symbolic Z-matrix:
 Charge =  0 Multiplicity = 1
 C                    -0.00886   0.01534  -0.00626 
 H                     0.00199  -0.00344   1.09006 
 H                     1.02838  -0.00344  -0.36148 
 H                    -0.51121  -0.89232  -0.36148 
 F                    -0.66115   1.14515  -0.4675 
 
                          Input orientation:                          
 ---------------------------------------------------------------------
 Center     Atomic      Atomic             Coordinates (Angstroms)
 Number     Number       Type             X           Y           Z
 ---------------------------------------------------------------------
      1          6           0       -0.008857    0.015341   -0.006262
      2          1           0        0.001985   -0.003442    1.090060
      3          1           0        1.028381   -0.003442   -0.361478
      4          1           0       -0.511210   -0.892323   -0.361480
      5          9           0       -0.661148    1.145146   -0.467503
 ---------------------------------------------------------------------
                    Distance matrix (angstroms):
                    1          2          3          4          5
     1  C    0.000000
     2  H    1.096536   0.000000
     3  H    1.096537   1.777766   0.000000
     4  H    1.096537   1.777765   1.777765   0.000000
     5  F    1.383722   2.045728   2.045728   2.045728   0.000000
 Stoichiometry    CH3F
 Framework group  C3V[C3(CF),3SGV(H)]
 Deg. of freedom     3
 Full point group                 C3V     NOp   6
 Largest Abelian subgroup         CS      NOp   2
 Largest concise Abelian subgroup CS      NOp   2
                         Standard orientation:                         
 ---------------------------------------------------------------------
 Center     Atomic      Atomic             Coordinates (Angstroms)
 Number     Number       Type             X           Y           Z
 ---------------------------------------------------------------------
      1          6           0       -0.000000    0.000000   -0.627546
      2          1           0       -0.000000    1.026393   -1.013434
      3          1           0       -0.888882   -0.513197   -1.013434
      4          1           0        0.888882   -0.513197   -1.013434
      5          9           0        0.000000   -0.000000    0.756176
 ---------------------------------------------------------------------
 Rotational constants (GHZ):         158.6658144          25.4357465          25.4357465
 Standard basis: 6-31G(d) (6D, 7F)
 There are    26 symmetry adapted cartesian basis functions of A'  symmetry.
 There are    10 symmetry adapted cartesian basis functions of A"  symmetry.
 There are    26 symmetry adapted basis functions of A'  symmetry.
 There are    10 symmetry adapted basis functions of A"  symmetry.
    36 basis functions,    68 primitive gaussians,    36 cartesian basis functions
     9 alpha electrons        9 beta electrons
       nuclear repulsion energy        37.2150512893 Hartrees.
 NAtoms=    5 NActive=    5 NUniq=    3 SFac= 2.78D+00 NAtFMM=   60 NAOKFM=F Big=F
 Integral buffers will be    131072 words long.
 Raffenetti 1 integral format.
 Two-electron integral symmetry is turned on.
 One-electron integrals computed using PRISM.
 NBasis=    36 RedAO= T EigKep=  6.68D-03  NBF=    26    10
 NBsUse=    36 1.00D-06 EigRej= -1.00D+00 NBFU=    26    10
 ExpMin= 1.61D-01 ExpMax= 7.00D+03 ExpMxC= 1.05D+03 IAcc=3 IRadAn=         5 AccDes= 0.00D+00
 Harris functional with IExCor=  205 and IRadAn=       5 diagonalized for initial guess.
 HarFok:  IExCor=  205 AccDes= 0.00D+00 IRadAn=         5 IDoV= 1 UseB2=F ITyADJ=14
 ICtDFT=  3500011 ScaDFX=  1.000000  1.000000  1.000000  1.000000
 FoFCou: FMM=F IPFlag=           0 FMFlag=      100000 FMFlg1=           0
         NFxFlg=           0 DoJE=T BraDBF=F KetDBF=T FulRan=T
         wScrn=  0.000000 ICntrl=       500 IOpCl=  0 I1Cent=   200000004 NGrid=           0
         NMat0=    1 NMatS0=      1 NMatT0=    0 NMatD0=    1 NMtDS0=    0 NMtDT0=    0
 Petite list used in FoFCou.
 Initial guess orbital symmetries:
       Occupied  (A1) (A1) (A1) (A1) (A1) (E) (E) (E) (E)
       Virtual   (A1) (A1) (E) (E) (A1) (E) (E) (E) (E) (A1) (A1)
                 (A1) (E) (E) (E) (E) (A1) (E) (E) (A1) (E) (E)
                 (E) (E) (A1) (A1) (A1)
 The electronic state of the initial guess is 1-A1.
 Keep R1 ints in memory in symmetry-blocked form, NReq=1056883.
 Requested convergence on RMS density matrix=1.00D-08 within 128 cycles.
 Requested convergence on MAX density matrix=1.00D-06.
 Requested convergence on             energy=1.00D-06.
 No special actions if energy rises.
 SCF Done:  E(RHF) =  -139.033295700     A.U. after   10 cycles
            NFock= 10  Conv=0.33D-08     -V/T= 2.0021

 **********************************************************************

            Population analysis using the SCF Density.

 **********************************************************************

 Orbital symmetries:
       Occupied  (A1) (A1) (A1) (A1) (E) (E) (A1) (E) (E)
       Virtual   (A1) (A1) (E) (E) (E) (E) (A1) (E) (E) (A1) (A1)
                 (A1) (E) (E) (E) (E) (A1) (E) (E) (A1) (E) (E)
                 (E) (E) (A1) (A1) (A1)
 The electronic state is 1-A1.
 Alpha  occ. eigenvalues --  -26.27333 -11.30783  -1.57548  -0.95012  -0.68450
 Alpha  occ. eigenvalues --   -0.68450  -0.66804  -0.52261  -0.52261
 Alpha virt. eigenvalues --    0.24778   0.30969   0.31553   0.31553   0.74411
 Alpha virt. eigenvalues --    0.74411   0.77428   1.10485   1.10485   1.11110
 Alpha virt. eigenvalues --    1.19040   1.44550   1.57831   1.57831   1.80301
 Alpha virt. eigenvalues --    1.80301   2.08426   2.12507   2.12507   2.42255
 Alpha virt. eigenvalues --    2.49640   2.49640   2.77157   2.77157   3.35319
 Alpha virt. eigenvalues --    4.43740   4.62973
          Condensed to atoms (all electrons):
               1          2          3          4          5
     1  C    4.699364   0.384355   0.384355   0.384355   0.214096
     2  H    0.384355   0.563059  -0.038352  -0.038352  -0.026807
     3  H    0.384355  -0.038352   0.563059  -0.038352  -0.026807
     4  H    0.384355  -0.038352  -0.038352   0.563059  -0.026807
     5  F    0.214096  -0.026807  -0.026807  -0.026807   9.268091
 Mulliken charges:
               1
     1  C   -0.066526
     2  H    0.156097
     3  H    0.156097
     4  H    0.156097
     5  F   -0.401766
 Sum of Mulliken charges =  -0.00000
 Mulliken charges with hydrogens summed into heavy atoms:
               1
     1  C    0.401766
     5  F   -0.401766
 Electronic spatial extent (au):  <R**2>=             75.5693
 Charge=             -0.0000 electrons
 Dipole moment (field-independent basis, Debye):
    X=             -0.0000    Y=             -0.0000    Z=             -2.0626  Tot=              2.0626
 Quadrupole moment (field-independent basis, Debye-Ang):
   XX=            -11.7675   YY=            -11.7675   ZZ=            -12.0609
   XY=              0.0000   XZ=              0.0000   YZ=              0.0000
 Traceless Quadrupole moment (field-independent basis, Debye-Ang):
   XX=              0.0978   YY=              0.0978   ZZ=             -0.1956
   XY=              0.0000   XZ=              0.0000   YZ=              0.0000
 Octapole moment (field-independent basis, Debye-Ang**2):
  XXX=             -0.0000  YYY=              0.4700  ZZZ=              4.2739  XYY=             -0.0000
  XXY=             -0.4700  XXZ=              1.3903  XZZ=             -0.0000  YZZ=             -0.0000
  YYZ=              1.3903  XYZ=             -0.0000
 Hexadecapole moment (field-independent basis, Debye-Ang**3):
 XXXX=            -16.2930 YYYY=            -16.2930 ZZZZ=            -49.8810 XXXY=              0.0000
 XXXZ=             -0.0000 YYYX=              0.0000 YYYZ=             -0.5900 ZZZX=             -0.0000
 ZZZY=              0.0000 XXYY=             -5.4310 XXZZ=            -10.8612 YYZZ=            -10.8612
 XXYZ=              0.5900 YYXZ=             -0.0000 ZZXY=              0.0000
 N-N= 3.721505128928D+01 E-N=-4.048553863362D+02  KE= 1.387367284717D+02
 Symmetry A'   KE= 1.303662696756D+02
 Symmetry A"   KE= 8.370458796043D+00
 Running external command "gaunbo7 R"
         input file       "/cluster/work/users/beto93/CH3F/Gau-155916.EIn"
         output file      "/cluster/work/users/beto93/CH3F/Gau-155916.EOu"
         message file     "/cluster/work/users/beto93/CH3F/Gau-155916.EMs"
         fchk file        "/cluster/work/users/beto93/CH3F/Gau-155916.EFC"
         mat. el file     "/cluster/work/users/beto93/CH3F/Gau-155916.EUF"

 Writing WrtUnf unformatted file "/cluster/work/users/beto93/CH3F/Gau-155916.EUF"
 Gaussian matrix elements                                         Version   2 NLab=11 Len12L=8 Len4L=8
 Write SHELL TO ATOM MAP                   from file      0 offset           0 length                  14 to matrix element file.
 Write SHELL TYPES                         from file      0 offset           0 length                  14 to matrix element file.
 Write NUMBER OF PRIMITIVES PER SHELL      from file      0 offset           0 length                  14 to matrix element file.
 Write PRIMITIVE EXPONENTS                 from file      0 offset           0 length                  34 to matrix element file.
 Write CONTRACTION COEFFICIENTS            from file      0 offset           0 length                  34 to matrix element file.
 Write P(S=P) CONTRACTION COEFFICIENTS     from file      0 offset           0 length                  34 to matrix element file.
 Write COORDINATES OF EACH SHELL           from file      0 offset           0 length                  42 to matrix element file.
 Write BONDS PER ATOM                      from file      0 offset           0 length                   5 to matrix element file.
 Write BONDED ATOMS                        from file      0 offset           0 length                   8 to matrix element file.
 Write BOND TYPES                          from file      0 offset           0 length                   8 to matrix element file.
 Write ONIOM CHARGE/MULT                   from file      0 offset           0 length                  32 to matrix element file.
 Write ONIOM ATOM LAYERS                   from file      0 offset           0 length                   5 to matrix element file.
 Write ONIOM ATOM MODIFIERS                from file      0 offset           0 length                   5 to matrix element file.
 Write ONIOM ATOM TYPES                    from file      0 offset           0 length                   5 to matrix element file.
 Write ONIOM LINK ATOMS                    from file      0 offset           0 length                   5 to matrix element file.
 Write ONIOM LINK CHARGES                  from file      0 offset           0 length                   5 to matrix element file.
 Write ONIOM LINK DISTANCES                from file      0 offset           0 length                  20 to matrix element file.
 Write SYMINF INTS                         from file      0 offset           0 length                  26 to matrix element file.
 Write ROTTR TO SO                         from file      0 offset           0 length                  12 to matrix element file.
 Write GAUSSIAN SCALARS                    from file    501 offset           0 to matrix element file.
 Write OPTIMIZATION FLAGS                  from file      0 offset           0 length                   5 to matrix element file.
 Write INTEGER ISO                         from file      0 offset           0 length                   5 to matrix element file.
 Write INTEGER SPIN                        from file      0 offset           0 length                   5 to matrix element file.
 Write REAL ZEFFECTIVE                     from file      0 offset           0 length                   5 to matrix element file.
 Write REAL GFACTOR                        from file      0 offset           0 length                   5 to matrix element file.
 Write REAL ZNUCLEAR                       from file      0 offset           0 length                   5 to matrix element file.
 Write MULLIKEN CHARGES                    from file      0 offset           0 length                   5 to matrix element file.
 Write NUCLEAR GRADIENT                    from file  10584 offset           0 length                  15 to matrix element file.
 Array NUCLEAR FORCE CONSTANTS              on  file  10585 does not exist.
 Write ELECTRIC DIPOLE MOMENT              from file      0 offset           0 length                   3 to matrix element file.
 Write NON-ADIABATIC COUPLING              from file  10810 offset           0 length                  15 to matrix element file.
 Write FINITE EM FIELD                     from file  10521 offset           0 length                  35 to matrix element file.
 Write OVERLAP                             from file  10514 offset           0 length                 666 to matrix element file.
 Write CORE HAMILTONIAN ALPHA              from file  10515 offset           0 length                 666 to matrix element file.
 Write CORE HAMILTONIAN BETA               from file  10515 offset         666 length                 666 to matrix element file.
 Write KINETIC ENERGY                      from file  10516 offset           0 length                 666 to matrix element file.
 Write ORTHOGONAL BASIS                    from file  10685 offset           0 length                1296 to matrix element file.
 Write DIPOLE INTEGRALS                    from file  10518 offset           0 length                1998 to matrix element file.
 Array DIP VEL INTEGRALS                    on  file  10572 does not exist.
 Array R X DEL INTEGRALS                    on  file  10572 does not exist.
 Write ALPHA ORBITAL ENERGIES              from file      0 offset           0 length                  36 to matrix element file.
 Write ALPHA MO COEFFICIENTS               from file  10524 offset           0 length                1296 to matrix element file.
 Write ALPHA DENSITY MATRIX                from file      0 offset           0 length                 666 to matrix element file.
 Write ALPHA FOCK MATRIX                   from file  10536 offset           0 length                 666 to matrix element file.
 Write ENERGY-WEIGHTED DENSITY             from file  10571 offset           0 length                 666 to matrix element file.
 Write ALPHA SCF DENSITY MATRIX            from file      0 offset           0 length                 666 to matrix element file.
 No 2e integrals to process.
 Perform NBO analysis...executing G16NBO...

 *********************************** NBO 7.0 ***********************************
             N A T U R A L   A T O M I C   O R B I T A L   A N D
          N A T U R A L   B O N D   O R B I T A L   A N A L Y S I S
 **************************** Espen Tangen (S101595) ***************************
  (c) Copyright 1996-2021 Board of Regents of the University of Wisconsin System
      on behalf of the Theoretical Chemistry Institute.  All rights reserved.

          Cite this program [NBO 7.0.10 (8-Feb-2021)] as:

          NBO 7.0.  E. D. Glendening, J. K. Badenhoop, A. E. Reed,
          J. E. Carpenter, J. A. Bohmann, C. M. Morales, P. Karafiloglou,
          C. R. Landis, and F. Weinhold, Theoretical Chemistry Institute,
          University of Wisconsin, Madison, WI (2018)

       /NPA    / : Natural Population Analysis
       /AOPNAO / : Print the AO to PNAO transformation
       /AONAO  / : Print the AO to NAO transformation
       /AONO   / : Print the NOs in the AO basis
       /AOMO   / : Print the MOs in the AO basis
       /BOAO   / : Print the AO bond-order matrix
       /DMAO   / : Print the AO density matrix
       /DMPNAO / : Print the PNAO density matrix
       /DMNAO  / : Print the NAO density matrix
       /DMMO   / : Print the MO density matrix
       /SAO    / : Print the AO overlap matrix
       /SPNAO  / : Print the PNAO overlap matrix
       /DETAIL / : Write details of NBO search
       /ARCHIVE/ : Write the archive file to lfn47
       /AOINFO / : Write AO information to lfn31
       /FILE   / : Set to inpGenNbo

 Filename set to inpGenNbo

 Job title: NBO-a


 MOs in the AO basis:

           AO          1       2       3       4       5       6       7       8
      ------------ ------- ------- ------- ------- ------- ------- ------- -------
   1.  C 1 (s)      0.0000  0.9958 -0.0529 -0.1827  0.0000  0.0000 -0.0173  0.0000
   2.  C 1 (s)      0.0002  0.0270  0.0922  0.3608  0.0000  0.0000  0.0282  0.0000
   3.  C 1 (px)     0.0000  0.0000  0.0000  0.0000  0.0000  0.2844  0.0000 -0.3614
   4.  C 1 (py)     0.0000  0.0000  0.0000  0.0000  0.2844  0.0000  0.0000  0.0000
   5.  C 1 (pz)     0.0006  0.0013  0.0813 -0.0626  0.0000  0.0000 -0.3259  0.0000
   6.  C 1 (s)      0.0000 -0.0109  0.0330  0.3259  0.0000  0.0000  0.1004  0.0000
   7.  C 1 (px)     0.0000  0.0000  0.0000  0.0000  0.0000  0.1478  0.0000 -0.1371
   8.  C 1 (py)     0.0000  0.0000  0.0000  0.0000  0.1478  0.0000  0.0000  0.0000
   9.  C 1 (pz)    -0.0002  0.0009  0.0049 -0.0454  0.0000  0.0000 -0.1009  0.0000
  10.  C 1 (d1)     0.0000 -0.0018 -0.0068  0.0123 -0.0145  0.0000  0.0191  0.0000
  11.  C 1 (d4)     0.0000 -0.0018 -0.0068  0.0123  0.0145  0.0000  0.0191  0.0000
  12.  C 1 (d6)     0.0004 -0.0012  0.0215 -0.0019  0.0000  0.0000 -0.0375  0.0000
  13.  C 1 (d2)     0.0000  0.0000  0.0000  0.0000  0.0000 -0.0167  0.0000  0.0254
  14.  C 1 (d3)     0.0000  0.0000  0.0000  0.0000  0.0000  0.0025  0.0000  0.0356
  15.  C 1 (d5)     0.0000  0.0000  0.0000  0.0000  0.0025  0.0000  0.0000  0.0000
  16.  H 2 (s)      0.0000  0.0000  0.0141  0.1391  0.1427  0.0000  0.0839  0.0000
  17.  H 2 (s)     -0.0001  0.0023  0.0020  0.0367  0.0858  0.0000  0.0521  0.0000
  18.  H 3 (s)      0.0000  0.0000  0.0141  0.1391 -0.0714 -0.1236  0.0839  0.2142
  19.  H 3 (s)     -0.0001  0.0023  0.0020  0.0367 -0.0429 -0.0743  0.0521  0.2053
  20.  H 4 (s)      0.0000  0.0000  0.0141  0.1391 -0.0714  0.1236  0.0839 -0.2142
  21.  H 4 (s)     -0.0001  0.0023  0.0020  0.0367 -0.0429  0.0743  0.0521 -0.2053
  22.  F 5 (s)      0.9944 -0.0001 -0.2219  0.0618  0.0000  0.0000 -0.0347  0.0000
  23.  F 5 (s)      0.0177  0.0002  0.5178 -0.1315  0.0000  0.0000  0.0643  0.0000
  24.  F 5 (px)     0.0000  0.0000  0.0000  0.0000  0.0000  0.5091  0.0000  0.4216
  25.  F 5 (py)     0.0000  0.0000  0.0000  0.0000  0.5091  0.0000  0.0000  0.0000
  26.  F 5 (pz)    -0.0009 -0.0003 -0.0599 -0.2039  0.0000  0.0000  0.5115  0.0000
  27.  F 5 (s)      0.0082  0.0006  0.4378 -0.2140  0.0000  0.0000  0.1577  0.0000
  28.  F 5 (px)     0.0000  0.0000  0.0000  0.0000  0.0000  0.3486  0.0000  0.3362
  29.  F 5 (py)     0.0000  0.0000  0.0000  0.0000  0.3486  0.0000  0.0000  0.0000
  30.  F 5 (pz)     0.0006  0.0011 -0.0381 -0.1226  0.0000  0.0000  0.3601  0.0000
  31.  F 5 (d1)    -0.0045  0.0001  0.0220 -0.0027 -0.0002  0.0000  0.0015  0.0000
  32.  F 5 (d4)    -0.0045  0.0001  0.0220 -0.0027  0.0002  0.0000  0.0015  0.0000
  33.  F 5 (d6)    -0.0051 -0.0011  0.0387  0.0208  0.0000  0.0000 -0.0369  0.0000
  34.  F 5 (d2)     0.0000  0.0000  0.0000  0.0000  0.0000 -0.0002  0.0000  0.0010
  35.  F 5 (d3)     0.0000  0.0000  0.0000  0.0000  0.0000 -0.0214  0.0000 -0.0088
  36.  F 5 (d5)     0.0000  0.0000  0.0000  0.0000 -0.0214  0.0000  0.0000  0.0000

           AO          9      10      11      12      13      14      15      16
      ------------ ------- ------- ------- ------- ------- ------- ------- -------
   1.  C 1 (s)      0.0000 -0.1291  0.0957  0.0000  0.0000  0.0000  0.0000  0.0437
   2.  C 1 (s)      0.0000  0.1144 -0.1141  0.0000  0.0000  0.0000  0.0000 -0.4420
   3.  C 1 (px)     0.0000  0.0000  0.0000  0.3721  0.0000  0.0000 -0.7357  0.0000
   4.  C 1 (py)    -0.3614  0.0000  0.0000  0.0000 -0.3721 -0.7357  0.0000  0.0000
   5.  C 1 (pz)     0.0000 -0.1810 -0.2355  0.0000  0.0000  0.0000  0.0000 -0.9904
   6.  C 1 (s)      0.0000  2.3262 -1.1137  0.0000  0.0000  0.0000  0.0000  0.3911
   7.  C 1 (px)     0.0000  0.0000  0.0000  1.4352  0.0000  0.0000  1.6494  0.0000
   8.  C 1 (py)    -0.1371  0.0000  0.0000  0.0000 -1.4352  1.6494  0.0000  0.0000
   9.  C 1 (pz)     0.0000 -0.7595 -1.1669  0.0000  0.0000  0.0000  0.0000  1.1380
  10.  C 1 (d1)     0.0220 -0.0121 -0.0186  0.0000 -0.0123  0.0894  0.0000 -0.0386
  11.  C 1 (d4)    -0.0220 -0.0121 -0.0186  0.0000  0.0123 -0.0894  0.0000 -0.0386
  12.  C 1 (d6)     0.0000 -0.0091  0.0108  0.0000  0.0000  0.0000  0.0000  0.1028
  13.  C 1 (d2)     0.0000  0.0000  0.0000  0.0142  0.0000  0.0000  0.1032  0.0000
  14.  C 1 (d3)     0.0000  0.0000  0.0000 -0.0007  0.0000  0.0000  0.0341  0.0000
  15.  C 1 (d5)     0.0356  0.0000  0.0000  0.0000  0.0007  0.0341  0.0000  0.0000
  16.  H 2 (s)     -0.2473 -0.0084 -0.0334  0.0000  0.0473 -0.4798  0.0000  0.0803
  17.  H 2 (s)     -0.2370 -1.2010  0.1978  0.0000  1.8764 -0.3548  0.0000  0.0211
  18.  H 3 (s)      0.1237 -0.0084 -0.0334  0.0409 -0.0236  0.2399  0.4155  0.0803
  19.  H 3 (s)      0.1185 -1.2010  0.1978  1.6250 -0.9382  0.1774  0.3072  0.0211
  20.  H 4 (s)      0.1237 -0.0084 -0.0334 -0.0409 -0.0236  0.2399 -0.4155  0.0803
  21.  H 4 (s)      0.1185 -1.2010  0.1978 -1.6250 -0.9382  0.1774 -0.3072  0.0211
  22.  F 5 (s)      0.0000 -0.0102 -0.0906  0.0000  0.0000  0.0000  0.0000 -0.0014
  23.  F 5 (s)      0.0000  0.0298  0.0220  0.0000  0.0000  0.0000  0.0000  0.2115
  24.  F 5 (px)     0.0000  0.0000  0.0000 -0.0902  0.0000  0.0000 -0.1387  0.0000
  25.  F 5 (py)     0.4216  0.0000  0.0000  0.0000  0.0902 -0.1387  0.0000  0.0000
  26.  F 5 (pz)     0.0000  0.0067 -0.2738  0.0000  0.0000  0.0000  0.0000 -0.3397
  27.  F 5 (s)      0.0000  0.0811  1.1703  0.0000  0.0000  0.0000  0.0000 -0.7368
  28.  F 5 (px)     0.0000  0.0000  0.0000 -0.1928  0.0000  0.0000 -0.1911  0.0000
  29.  F 5 (py)     0.3362  0.0000  0.0000  0.0000  0.1928 -0.1911  0.0000  0.0000
  30.  F 5 (pz)     0.0000 -0.0028 -0.5949  0.0000  0.0000  0.0000  0.0000  0.0492
  31.  F 5 (d1)     0.0009  0.0013 -0.0723  0.0000 -0.0055  0.0127  0.0000  0.1220
  32.  F 5 (d4)    -0.0009  0.0013 -0.0723  0.0000  0.0055 -0.0127  0.0000  0.1220
  33.  F 5 (d6)     0.0000  0.0142 -0.0442  0.0000  0.0000  0.0000  0.0000 -0.0886
  34.  F 5 (d2)     0.0000  0.0000  0.0000  0.0064  0.0000  0.0000  0.0147  0.0000
  35.  F 5 (d3)     0.0000  0.0000  0.0000 -0.0025  0.0000  0.0000  0.0228  0.0000
  36.  F 5 (d5)    -0.0088  0.0000  0.0000  0.0000  0.0025  0.0228  0.0000  0.0000

           AO         17      18      19      20      21      22      23      24
      ------------ ------- ------- ------- ------- ------- ------- ------- -------
   1.  C 1 (s)      0.0000  0.0000 -0.1093  0.0059  0.0739  0.0000  0.0000  0.0000
   2.  C 1 (s)      0.0000  0.0000 -0.7299 -1.7134  0.6868  0.0000  0.0000  0.0000
   3.  C 1 (px)    -0.8549  0.0000  0.0000  0.0000  0.0000 -0.0149  0.0000  0.0000
   4.  C 1 (py)     0.0000  0.8549  0.0000  0.0000  0.0000  0.0000 -0.0149 -0.2013
   5.  C 1 (pz)     0.0000  0.0000 -0.0027  0.4815  0.1479  0.0000  0.0000  0.0000
   6.  C 1 (s)      0.0000  0.0000  2.3486  3.8669 -1.8581  0.0000  0.0000  0.0000
   7.  C 1 (px)     1.2467  0.0000  0.0000  0.0000  0.0000 -0.4627  0.0000  0.0000
   8.  C 1 (py)     0.0000 -1.2467  0.0000  0.0000  0.0000  0.0000 -0.4627  0.3205
   9.  C 1 (pz)     0.0000  0.0000 -0.4851 -0.7013 -0.0690  0.0000  0.0000  0.0000
  10.  C 1 (d1)     0.0000  0.1404 -0.1262 -0.0666 -0.0097  0.0000 -0.2216 -0.3035
  11.  C 1 (d4)     0.0000 -0.1404 -0.1262 -0.0666 -0.0097  0.0000  0.2216  0.3035
  12.  C 1 (d6)     0.0000  0.0000  0.0733 -0.1321  0.2529  0.0000  0.0000  0.0000
  13.  C 1 (d2)    -0.1621  0.0000  0.0000  0.0000  0.0000 -0.2559  0.0000  0.0000
  14.  C 1 (d3)    -0.1481  0.0000  0.0000  0.0000  0.0000  0.2023  0.0000  0.0000
  15.  C 1 (d5)     0.0000  0.1481  0.0000  0.0000  0.0000  0.0000  0.2023  0.5868
  16.  H 2 (s)      0.0000 -0.7967 -0.6019  0.3745  0.2688  0.0000  0.1219  0.1094
  17.  H 2 (s)      0.0000  1.5416 -0.3307 -1.2069  0.2791  0.0000  0.1282 -0.2488
  18.  H 3 (s)     -0.6900  0.3984 -0.6019  0.3745  0.2688 -0.1056 -0.0610 -0.0547
  19.  H 3 (s)      1.3350 -0.7708 -0.3307 -1.2069  0.2791 -0.1110 -0.0641  0.1244
  20.  H 4 (s)      0.6900  0.3984 -0.6019  0.3745  0.2688  0.1056 -0.0610 -0.0547
  21.  H 4 (s)     -1.3350 -0.7708 -0.3307 -1.2069  0.2791  0.1110 -0.0641  0.1244
  22.  F 5 (s)      0.0000  0.0000 -0.0276 -0.0039 -0.0763  0.0000  0.0000  0.0000
  23.  F 5 (s)      0.0000  0.0000 -0.8325 -0.1422 -1.1139  0.0000  0.0000  0.0000
  24.  F 5 (px)     0.0905  0.0000  0.0000  0.0000  0.0000 -0.8798  0.0000  0.0000
  25.  F 5 (py)     0.0000 -0.0905  0.0000  0.0000  0.0000  0.0000 -0.8798  0.2692
  26.  F 5 (pz)     0.0000  0.0000 -0.0806 -0.0867 -0.6574  0.0000  0.0000  0.0000
  27.  F 5 (s)      0.0000  0.0000  1.3511  0.0399  2.5242  0.0000  0.0000  0.0000
  28.  F 5 (px)    -0.1195  0.0000  0.0000  0.0000  0.0000  1.0498  0.0000  0.0000
  29.  F 5 (py)     0.0000  0.1195  0.0000  0.0000  0.0000  0.0000  1.0498 -0.4817
  30.  F 5 (pz)     0.0000  0.0000  0.2472  0.1689  0.6832  0.0000  0.0000  0.0000
  31.  F 5 (d1)     0.0000 -0.0055 -0.3547 -0.0423 -0.5846  0.0000 -0.0523 -0.0877
  32.  F 5 (d4)     0.0000  0.0055 -0.3547 -0.0423 -0.5846  0.0000  0.0523  0.0877
  33.  F 5 (d6)     0.0000  0.0000 -0.4517 -0.1229 -0.4749  0.0000  0.0000  0.0000
  34.  F 5 (d2)     0.0063  0.0000  0.0000  0.0000  0.0000 -0.0604  0.0000  0.0000
  35.  F 5 (d3)     0.1065  0.0000  0.0000  0.0000  0.0000 -0.0210  0.0000  0.0000
  36.  F 5 (d5)     0.0000 -0.1065  0.0000  0.0000  0.0000  0.0000 -0.0210 -0.5223

           AO         25      26      27      28      29      30      31      32
      ------------ ------- ------- ------- ------- ------- ------- ------- -------
   1.  C 1 (s)      0.0000  0.0493  0.0000  0.0000  0.0042  0.0000  0.0000  0.0000
   2.  C 1 (s)      0.0000  0.7357  0.0000  0.0000 -0.1160  0.0000  0.0000  0.0000
   3.  C 1 (px)    -0.2013  0.0000  0.0000 -0.0541  0.0000  0.0000 -0.1792  0.0065
   4.  C 1 (py)     0.0000  0.0000 -0.0541  0.0000  0.0000 -0.1792  0.0000  0.0000
   5.  C 1 (pz)     0.0000 -0.0924  0.0000  0.0000 -0.1366  0.0000  0.0000  0.0000
   6.  C 1 (s)      0.0000 -2.7379  0.0000  0.0000 -0.1671  0.0000  0.0000  0.0000
   7.  C 1 (px)     0.3205  0.0000  0.0000 -0.3486  0.0000  0.0000 -0.5832  0.1662
   8.  C 1 (py)     0.0000  0.0000 -0.3486  0.0000  0.0000 -0.5832  0.0000  0.0000
   9.  C 1 (pz)     0.0000 -0.7743  0.0000  0.0000  0.3836  0.0000  0.0000  0.0000
  10.  C 1 (d1)     0.0000  0.1014  0.2303  0.0000 -0.5131  0.7943  0.0000  0.0000
  11.  C 1 (d4)     0.0000  0.1014 -0.2303  0.0000 -0.5131 -0.7943  0.0000  0.0000
  12.  C 1 (d6)     0.0000 -0.2238  0.0000  0.0000  0.8905  0.0000  0.0000  0.0000
  13.  C 1 (d2)    -0.3505  0.0000  0.0000  0.2660  0.0000  0.0000  0.9172  0.3001
  14.  C 1 (d3)     0.5868  0.0000  0.0000  0.1743  0.0000  0.0000  0.0396  0.9073
  15.  C 1 (d5)     0.0000  0.0000  0.1743  0.0000  0.0000  0.0396  0.0000  0.0000
  16.  H 2 (s)      0.0000  0.2077  0.2793  0.0000  0.2832  0.6659  0.0000  0.0000
  17.  H 2 (s)      0.0000  0.3237  0.1189  0.0000  0.0025  0.0084  0.0000  0.0000
  18.  H 3 (s)     -0.0948  0.2077 -0.1396 -0.2419  0.2832 -0.3329 -0.5767 -0.3171
  19.  H 3 (s)      0.2154  0.3237 -0.0594 -0.1029  0.0025 -0.0042 -0.0073  0.2048
  20.  H 4 (s)      0.0948  0.2077 -0.1396  0.2419  0.2832 -0.3329  0.5767  0.3171
  21.  H 4 (s)     -0.2154  0.3237 -0.0594  0.1029  0.0025 -0.0042  0.0073 -0.2048
  22.  F 5 (s)      0.0000 -0.1109  0.0000  0.0000  0.0338  0.0000  0.0000  0.0000
  23.  F 5 (s)      0.0000 -1.6696  0.0000  0.0000 -0.3263  0.0000  0.0000  0.0000
  24.  F 5 (px)     0.2692  0.0000  0.0000 -0.0862  0.0000  0.0000 -0.1739  0.1297
  25.  F 5 (py)     0.0000  0.0000 -0.0862  0.0000  0.0000 -0.1739  0.0000  0.0000
  26.  F 5 (pz)     0.0000  0.4150  0.0000  0.0000  0.4958  0.0000  0.0000  0.0000
  27.  F 5 (s)      0.0000  4.0693  0.0000  0.0000  0.0924  0.0000  0.0000  0.0000
  28.  F 5 (px)    -0.4817  0.0000  0.0000  0.1425  0.0000  0.0000  0.3539 -0.3427
  29.  F 5 (py)     0.0000  0.0000  0.1425  0.0000  0.0000  0.3539  0.0000  0.0000
  30.  F 5 (pz)     0.0000 -1.1887  0.0000  0.0000 -0.3061  0.0000  0.0000  0.0000
  31.  F 5 (d1)     0.0000 -0.3692  0.7969  0.0000 -0.1312 -0.3217  0.0000  0.0000
  32.  F 5 (d4)     0.0000 -0.3692 -0.7969  0.0000 -0.1312  0.3217  0.0000  0.0000
  33.  F 5 (d6)     0.0000 -1.1222  0.0000  0.0000  0.1410  0.0000  0.0000  0.0000
  34.  F 5 (d2)    -0.1013  0.0000  0.0000  0.9201  0.0000  0.0000 -0.3715 -0.0899
  35.  F 5 (d3)    -0.5223  0.0000  0.0000 -0.1646  0.0000  0.0000 -0.4463  0.8127
  36.  F 5 (d5)     0.0000  0.0000 -0.1646  0.0000  0.0000 -0.4463  0.0000  0.0000

           AO         33      34      35      36
      ------------ ------- ------- ------- -------
   1.  C 1 (s)      0.0000  0.0843 -0.0712 -0.4718
   2.  C 1 (s)      0.0000 -0.6840  0.6583  2.8479
   3.  C 1 (px)     0.0000  0.0000  0.0000  0.0000
   4.  C 1 (py)     0.0065  0.0000  0.0000  0.0000
   5.  C 1 (pz)     0.0000 -1.0188 -0.3371 -0.1965
   6.  C 1 (s)      0.0000 -1.3580 -1.5852  2.2497
   7.  C 1 (px)     0.0000  0.0000  0.0000  0.0000
   8.  C 1 (py)     0.1662  0.0000  0.0000  0.0000
   9.  C 1 (pz)     0.0000 -0.5473 -0.8602 -0.1295
  10.  C 1 (d1)     0.2599  0.5460 -0.2446 -1.7939
  11.  C 1 (d4)    -0.2599  0.5460 -0.2446 -1.7939
  12.  C 1 (d6)     0.0000 -0.8296 -0.5649 -2.0938
  13.  C 1 (d2)     0.0000  0.0000  0.0000  0.0000
  14.  C 1 (d3)     0.0000  0.0000  0.0000  0.0000
  15.  C 1 (d5)     0.9073  0.0000  0.0000  0.0000
  16.  H 2 (s)      0.3662 -0.0198  0.1563  0.1084
  17.  H 2 (s)     -0.2365  0.1560  0.0647 -0.5031
  18.  H 3 (s)     -0.1831 -0.0198  0.1563  0.1084
  19.  H 3 (s)      0.1183  0.1560  0.0647 -0.5031
  20.  H 4 (s)     -0.1831 -0.0198  0.1563  0.1084
  21.  H 4 (s)      0.1183  0.1560  0.0647 -0.5031
  22.  F 5 (s)      0.0000 -0.0121 -0.6459  0.1255
  23.  F 5 (s)      0.0000 -1.1208 -1.8608  0.2536
  24.  F 5 (px)     0.0000  0.0000  0.0000  0.0000
  25.  F 5 (py)     0.1297  0.0000  0.0000  0.0000
  26.  F 5 (pz)     0.0000  0.2096  0.2839 -0.0902
  27.  F 5 (s)      0.0000  2.3722  8.1022 -1.4672
  28.  F 5 (px)     0.0000  0.0000  0.0000  0.0000
  29.  F 5 (py)    -0.3427  0.0000  0.0000  0.0000
  30.  F 5 (pz)     0.0000 -1.4751 -1.2114 -0.1753
  31.  F 5 (d1)    -0.0779 -0.5880 -2.7189  0.4142
  32.  F 5 (d4)     0.0779 -0.5880 -2.7189  0.4142
  33.  F 5 (d6)     0.0000  1.1174 -2.0859  0.8927
  34.  F 5 (d2)     0.0000  0.0000  0.0000  0.0000
  35.  F 5 (d3)     0.0000  0.0000  0.0000  0.0000
  36.  F 5 (d5)     0.8127  0.0000  0.0000  0.0000


 NOs in the AO basis:

           AO          1       2       3       4       5       6       7       8
      ------------ ------- ------- ------- ------- ------- ------- ------- -------
   1.  C 1 (s)     -0.5439  0.8456 -0.0573  0.1135  0.0238  0.0036 -0.0203  0.0096
   2.  C 1 (s)     -0.0114 -0.0568  0.3253  0.1580 -0.0682 -0.0060 -0.0065 -0.0355
   3.  C 1 (px)     0.0056  0.0084 -0.0280  0.0053 -0.0801 -0.2119  0.1112 -0.0367
   4.  C 1 (py)    -0.0027 -0.0033 -0.0141  0.0392  0.1733  0.0303  0.2489 -0.3376
   5.  C 1 (pz)    -0.0183  0.0530  0.0889 -0.3165  0.0283 -0.0558 -0.0088 -0.0353
   6.  C 1 (s)      0.0121 -0.0876  0.2459  0.2034 -0.0823  0.0229  0.0090 -0.0207
   7.  C 1 (px)     0.0026  0.0038 -0.0152  0.0046 -0.0456 -0.1133  0.0577 -0.0133
   8.  C 1 (py)    -0.0016 -0.0014 -0.0005  0.0165  0.0883  0.0155  0.1265 -0.1258
   9.  C 1 (pz)    -0.0067  0.0226 -0.0015 -0.1073  0.0056 -0.0095  0.0032 -0.0074
  10.  C 1 (d1)     0.0020 -0.0059  0.0022  0.0189 -0.0150  0.0039 -0.0106  0.0221
  11.  C 1 (d4)     0.0018 -0.0063 -0.0003  0.0235  0.0029  0.0070  0.0152 -0.0194
  12.  C 1 (d6)    -0.0008  0.0036  0.0191 -0.0347  0.0089 -0.0124 -0.0056 -0.0052
  13.  C 1 (d2)    -0.0004 -0.0005  0.0016 -0.0002  0.0044  0.0122 -0.0065  0.0026
  14.  C 1 (d3)    -0.0002 -0.0004 -0.0007  0.0014 -0.0038 -0.0042  0.0009  0.0041
  15.  C 1 (d5)    -0.0002  0.0002  0.0051 -0.0026  0.0002  0.0001  0.0000  0.0350
  16.  H 2 (s)      0.0041 -0.0410  0.0756  0.1496  0.0597  0.0258  0.1283 -0.2382
  17.  H 2 (s)      0.0015 -0.0141 -0.0078  0.0822  0.0519  0.0138  0.0799 -0.2249
  18.  H 3 (s)      0.0030 -0.0422  0.1111  0.1123 -0.0439  0.0911 -0.1130  0.1352
  19.  H 3 (s)     -0.0001 -0.0149  0.0304  0.0523 -0.0210  0.0477 -0.0727  0.1381
  20.  H 4 (s)      0.0086 -0.0336  0.0882  0.1129 -0.1045 -0.0861 -0.0162  0.0904
  21.  H 4 (s)      0.0043 -0.0079  0.0186  0.0473 -0.0453 -0.0495 -0.0142  0.0938
  22.  F 5 (s)      0.8224  0.5359  0.0686  0.0464 -0.1870  0.1558  0.1160 -0.0048
  23.  F 5 (s)      0.0343  0.0041  0.0670  0.0184  0.3746 -0.2948 -0.2374 -0.0082
  24.  F 5 (px)     0.0031  0.0026 -0.0639  0.0473 -0.2277 -0.4449  0.1973  0.0556
  25.  F 5 (py)    -0.0084  0.0006  0.1193 -0.0113  0.2735  0.0486  0.3863  0.4422
  26.  F 5 (pz)     0.0309 -0.0254 -0.3627  0.3920  0.1050  0.0145 -0.0447  0.0800
  27.  F 5 (s)      0.0300  0.0068 -0.0633  0.0730  0.3675 -0.2605 -0.2211  0.0144
  28.  F 5 (px)     0.0018  0.0012 -0.0443  0.0340 -0.1597 -0.3075  0.1350  0.0434
  29.  F 5 (py)    -0.0059  0.0007  0.0881 -0.0113  0.1857  0.0330  0.2619  0.3493
  30.  F 5 (pz)     0.0221 -0.0204 -0.2364  0.2837  0.0689  0.0106 -0.0311  0.0541
  31.  F 5 (d1)    -0.0031 -0.0030  0.0053  0.0003  0.0147 -0.0124 -0.0099  0.0002
  32.  F 5 (d4)    -0.0031 -0.0030  0.0051  0.0004  0.0149 -0.0123 -0.0096 -0.0016
  33.  F 5 (d6)    -0.0049 -0.0046  0.0435 -0.0263  0.0116 -0.0190 -0.0107 -0.0081
  34.  F 5 (d2)     0.0000  0.0000  0.0000  0.0000  0.0000  0.0001 -0.0001  0.0001
  35.  F 5 (d3)    -0.0002 -0.0002  0.0026 -0.0017  0.0089  0.0181 -0.0083 -0.0013
  36.  F 5 (d5)     0.0003  0.0000 -0.0038 -0.0002 -0.0118 -0.0021 -0.0167 -0.0098

           AO          9      10      11      12      13      14      15      16
      ------------ ------- ------- ------- ------- ------- ------- ------- -------
   1.  C 1 (s)     -0.0026 -0.0322 -0.0721  0.1289  0.0442  0.0265 -0.1147  0.0203
   2.  C 1 (s)      0.0039 -0.1387  0.6240 -0.7874 -0.4012 -0.1420  0.4901 -0.2497
   3.  C 1 (px)     0.3814  0.4707 -0.3688  0.1053 -0.5972  0.2072  0.0851 -0.3781
   4.  C 1 (py)    -0.0533  0.0493  0.0280  0.2134 -0.0404  0.6176  0.6948  0.4928
   5.  C 1 (pz)    -0.0158  0.0549 -0.6150  0.0878  0.2751 -0.4221  0.1644  0.1415
   6.  C 1 (s)      0.0078  0.8776 -0.1622 -0.5174  0.1767  0.0869  0.8809  0.0512
   7.  C 1 (px)     0.1482 -2.0982  0.3291 -0.4475  0.4413  0.4515  0.0296 -0.5547
   8.  C 1 (py)    -0.0221 -0.2445  0.1570  0.5392  0.1133  0.0472 -1.7925 -0.4987
   9.  C 1 (pz)    -0.0048 -0.0583  1.2113  0.1164 -0.6159  0.0459 -0.3950  0.4989
  10.  C 1 (d1)     0.0042 -0.0732 -0.1223 -0.0535  0.1955  0.0323  0.2230 -0.2202
  11.  C 1 (d4)    -0.0020 -0.0048 -0.2896  0.2706 -0.0860 -0.1063 -0.2958  0.0300
  12.  C 1 (d6)    -0.0021 -0.0136 -0.4659  0.6474  0.1942 -0.3251 -0.4872  0.1534
  13.  C 1 (d2)    -0.0266  0.0344 -0.0334 -0.0568  0.2509  0.0240  0.0483  0.2961
  14.  C 1 (d3)    -0.0350 -0.0607 -0.0473 -0.0441  0.2576  0.1421 -0.0172  0.0952
  15.  C 1 (d5)     0.0038 -0.0166  0.2335  0.0160  0.2231 -0.1284  0.1199 -0.0215
  16.  H 2 (s)     -0.0291 -0.1693  0.4403  0.6918  0.0355 -0.4945  0.2120 -0.4749
  17.  H 2 (s)     -0.0278  0.1368 -0.3932 -1.3032 -0.2111  0.0650  0.4088  0.9638
  18.  H 3 (s)     -0.2002  0.4772  0.2073 -0.0416 -0.2013  0.6290 -0.4353 -0.3827
  19.  H 3 (s)     -0.1915 -2.5163  0.1380  0.5991 -0.0217  0.1227 -0.5354 -0.1570
  20.  H 4 (s)      0.2442 -0.3976  0.0132 -0.0745 -0.2174 -0.0098 -0.4288  0.9297
  21.  H 4 (s)      0.2268  1.6337  0.3917  1.2128  0.3186 -0.1066 -0.7288 -0.0951
  22.  F 5 (s)     -0.0063 -0.0080 -0.0250  0.0049 -0.0275  0.0161 -0.0277 -0.0196
  23.  F 5 (s)     -0.0127  0.0426  0.1243 -0.1687  0.1190  0.0193  0.1416  0.0180
  24.  F 5 (px)    -0.3725 -0.0503 -0.0832 -0.0003 -0.3889  0.1126  0.0106 -0.0413
  25.  F 5 (py)     0.0233  0.0069 -0.0860  0.0369 -0.0730  0.0083 -0.0010  0.2961
  26.  F 5 (pz)     0.0188 -0.0465  0.0223  0.1184 -0.1173 -0.4309 -0.0201 -0.0080
  27.  F 5 (s)     -0.0081 -0.0968 -0.3643  0.2085  0.1689 -0.1342  0.0311 -0.1160
  28.  F 5 (px)    -0.3020  0.3546  0.0504  0.0850  0.3132 -0.3116 -0.0185  0.2439
  29.  F 5 (py)     0.0213  0.0197  0.0337 -0.0712  0.0217 -0.0983  0.3116 -0.3289
  30.  F 5 (pz)     0.0134  0.1571 -0.0591 -0.0922  0.0620  0.0407  0.0823  0.2546
  31.  F 5 (d1)    -0.0004 -0.0170 -0.0307 -0.1421  0.1148 -0.1034 -0.0154 -0.1335
  32.  F 5 (d4)    -0.0006 -0.0388 -0.3786  0.1320 -0.0672  0.1109  0.0390 -0.0839
  33.  F 5 (d6)    -0.0021 -0.0801  0.1495 -0.1304 -0.1483  0.4382 -0.1894 -0.2372
  34.  F 5 (d2)    -0.0010  0.0463  0.0081  0.0087  0.0054  0.0036 -0.0051 -0.0115
  35.  F 5 (d3)     0.0068 -0.1019  0.0149 -0.1062  0.0704  0.0483  0.0261 -0.0783
  36.  F 5 (d5)     0.0000 -0.0047 -0.0285  0.1538 -0.0791  0.1461 -0.1108  0.0348

           AO         17      18      19      20      21      22      23      24
      ------------ ------- ------- ------- ------- ------- ------- ------- -------
   1.  C 1 (s)     -0.0145  0.0255 -0.0536  0.0506 -0.0505  0.0402 -0.0414 -0.0017
   2.  C 1 (s)      0.6104 -0.3869 -0.3953 -0.0888  0.3546 -0.2197  0.1769  0.1915
   3.  C 1 (px)    -0.2008 -0.0272 -0.0333 -0.4733  0.1582  0.3393 -0.1257  0.0435
   4.  C 1 (py)    -0.0084  0.0183 -0.0753  0.2480  0.2543  0.1963  0.0175 -0.2146
   5.  C 1 (pz)     0.5587  0.4804  0.1215  0.0771  0.4016  0.1423  0.1094  0.0519
   6.  C 1 (s)     -0.3754  0.2599  1.3852  0.1503 -0.2932  0.0023  0.0006 -0.1285
   7.  C 1 (px)    -0.2617  0.6837 -0.2029  0.5805  0.1881 -0.4092  0.1610  0.1308
   8.  C 1 (py)     0.3233 -0.2164  1.4276 -0.2332  0.4056 -0.2363 -0.1736  0.7488
   9.  C 1 (pz)    -0.5519  0.0408 -0.1214 -0.4163 -0.0409  0.0648  0.1798 -0.2117
  10.  C 1 (d1)     0.3183 -0.2882  0.1342 -0.1950 -0.1295 -0.0444  0.0662  0.2049
  11.  C 1 (d4)    -0.3166  0.6440  0.6636  0.6042 -0.2760  0.3956 -0.1100 -0.0332
  12.  C 1 (d6)    -0.6118 -0.4191 -0.0251  0.4592  0.1618  0.3953  0.0851 -0.1658
  13.  C 1 (d2)    -0.0883 -0.3031  0.0808 -0.0706  0.0083 -0.0032  0.1878 -0.1004
  14.  C 1 (d3)    -0.1279 -0.0462  0.0415 -0.1668 -0.0079  0.3232  0.4058  0.0447
  15.  C 1 (d5)    -0.2220 -0.0467 -0.1369 -0.1835 -0.0232 -0.0039 -0.3598  0.2109
  16.  H 2 (s)      0.3620 -0.1702 -0.6917 -0.1448 -0.2762 -0.0056 -0.0475  0.2509
  17.  H 2 (s)     -0.5549  0.4676 -1.5408 -0.1141 -0.1502  0.0268  0.0847 -0.6469
  18.  H 3 (s)      0.1623  0.4938 -0.5829  0.4251  0.4925  0.1533 -0.0908  0.1141
  19.  H 3 (s)     -0.1385  0.1343  0.3864 -0.5509  0.1362 -0.1985 -0.0584  0.1313
  20.  H 4 (s)      0.4683 -0.3081 -0.2290  0.3346  0.0581  0.3738 -0.0482 -0.1770
  21.  H 4 (s)      0.1902 -0.1428  0.3888 -0.7657  0.1159 -0.4139 -0.0265  0.1700
  22.  F 5 (s)      0.0178  0.0031 -0.0479 -0.0206 -0.0663 -0.0155  0.1410  0.0155
  23.  F 5 (s)     -0.0259  0.0289  0.1954  0.0852  0.2016  0.2480 -0.8321 -0.0838
  24.  F 5 (px)     0.0010 -0.0356 -0.0096  0.1212  0.0388 -0.4755 -0.0420 -0.0359
  25.  F 5 (py)    -0.1690  0.0228 -0.0150  0.0414  0.0214 -0.0044 -0.0273  0.8778
  26.  F 5 (pz)    -0.0938 -0.0362 -0.1529 -0.0644  0.7363  0.0419  0.1970 -0.0618
  27.  F 5 (s)      0.1889 -0.1225 -0.0877  0.1552  0.1712 -0.3025  0.2237  0.1362
  28.  F 5 (px)     0.1185 -0.1281  0.0663 -0.1855 -0.1211  0.5265 -0.0871 -0.0181
  29.  F 5 (py)     0.1773  0.0198 -0.2227  0.0012 -0.1653  0.0193  0.1512 -1.1395
  30.  F 5 (pz)     0.0741  0.1985  0.5028  0.0674 -0.5267  0.2263  0.0887 -0.0077
  31.  F 5 (d1)    -0.0841 -0.0375 -0.1505  0.2686  0.0564  0.0020  0.2712  0.0589
  32.  F 5 (d4)     0.1463  0.0146 -0.1568  0.0577 -0.1308 -0.4248  0.2030  0.0849
  33.  F 5 (d6)     0.2823 -0.0400 -0.2956 -0.3950 -0.5986  0.3222  0.0938  0.0544
  34.  F 5 (d2)    -0.0035  0.0062 -0.0030 -0.0091  0.0008  0.0031 -0.0488  0.0047
  35.  F 5 (d3)    -0.0831  0.0501 -0.0102 -0.2367  0.0543 -0.0095 -0.1836  0.0151
  36.  F 5 (d5)     0.0180 -0.0520  0.0569  0.2083  0.0114 -0.0762  0.0156  0.0938

           AO         25      26      27      28      29      30      31      32
      ------------ ------- ------- ------- ------- ------- ------- ------- -------
   1.  C 1 (s)     -0.0070  0.0023 -0.0339 -0.2936 -0.0301  0.0029 -0.0065  0.0206
   2.  C 1 (s)     -0.3759 -0.0948  0.2412 -0.3681 -0.0097 -0.0813  0.0486 -0.1424
   3.  C 1 (px)    -0.2466  0.0092 -0.0611 -0.0428 -0.2147 -0.0099  0.0065 -0.0861
   4.  C 1 (py)     0.0820  0.0505 -0.1958 -0.0870  0.1619  0.1554 -0.0122 -0.0524
   5.  C 1 (pz)     0.0229 -0.0754 -0.2241  0.0560 -0.0759 -0.1631  0.0167 -0.0257
   6.  C 1 (s)      0.1885  0.0152 -0.0183  5.4037  0.1377  0.0667 -0.0011 -0.0224
   7.  C 1 (px)     0.4649  0.1253 -0.0204  0.2172  0.3061  0.0151 -0.0310  0.0677
   8.  C 1 (py)    -0.2492 -0.0674 -0.1153  0.1096 -0.0992 -0.1424  0.0042 -0.0363
   9.  C 1 (pz)     0.1358  0.1589  0.3530 -0.8011  0.0703 -0.1134 -0.0047  0.0174
  10.  C 1 (d1)     0.1222 -0.0059 -0.0528 -0.9310  0.0755  0.0017  0.0038  0.0042
  11.  C 1 (d4)    -0.0371  0.0787 -0.2939 -0.9825 -0.0753 -0.1347 -0.0322  0.0893
  12.  C 1 (d6)     0.2560  0.1839 -0.1688 -0.8813  0.2550 -0.0580 -0.0508  0.1478
  13.  C 1 (d2)    -0.1105  0.2953 -0.0978 -0.0088 -0.6116 -0.6311 -0.0447  0.0925
  14.  C 1 (d3)    -0.2044 -0.5813  0.2457  0.0005 -0.0925 -0.1428  0.0395 -0.1481
  15.  C 1 (d5)    -0.1295 -0.3922 -0.5426  0.0106  0.3215 -0.4191  0.0456 -0.2320
  16.  H 2 (s)     -0.1599 -0.1218  0.1020  0.1876 -0.2897 -0.2159  0.0170 -0.0107
  17.  H 2 (s)      0.3125  0.0466  0.2118 -1.6743  0.1948  0.0990  0.0186 -0.0845
  18.  H 3 (s)     -0.0791  0.1975 -0.1164  0.0682  0.0855  0.0929 -0.0350  0.0866
  19.  H 3 (s)      0.0758 -0.0312  0.0897 -1.3320 -0.0784  0.0522  0.0041 -0.0089
  20.  H 4 (s)     -0.4323 -0.1049 -0.0750  0.1732 -0.2510 -0.1366 -0.0025  0.0245
  21.  H 4 (s)      0.1173 -0.0820  0.1119 -1.7969 -0.1866  0.0156  0.0099  0.0098
  22.  F 5 (s)     -0.0062  0.0288 -0.1303 -0.0819  0.0337  0.0343 -0.0002 -0.0069
  23.  F 5 (s)      0.2750 -0.1365  0.6331 -0.3348 -0.1639 -0.2070 -0.0057  0.0626
  24.  F 5 (px)     0.3334 -0.4046 -0.1900  0.0082 -0.1819 -0.1767  0.0073  0.1550
  25.  F 5 (py)     0.1170  0.0879  0.0673  0.0115 -0.0440  0.0311 -0.0110  0.0238
  26.  F 5 (pz)     0.1574  0.0754  0.0078  0.0798  0.1743 -0.0872  0.0030  0.0020
  27.  F 5 (s)     -0.4866 -0.0513 -0.1843  0.7789 -0.0365  0.1113  0.0126 -0.0539
  28.  F 5 (px)    -0.4220  0.5460  0.1607 -0.0377  0.1755  0.2408 -0.0142 -0.1656
  29.  F 5 (py)    -0.0481 -0.0059  0.1103 -0.0253 -0.0413  0.0560  0.0062  0.0144
  30.  F 5 (pz)     0.0911  0.0242 -0.1149 -0.1103 -0.0105 -0.1100 -0.0046  0.0168
  31.  F 5 (d1)    -0.0730 -0.2204 -0.5066 -0.5212 -0.4984  0.5769  0.0303 -0.2024
  32.  F 5 (d4)    -0.5631  0.1955 -0.0152 -0.5043  0.4468 -0.2339 -0.0167  0.0930
  33.  F 5 (d6)     0.6040  0.1256 -0.3084 -0.1024  0.1372 -0.0364 -0.0189  0.0790
  34.  F 5 (d2)    -0.0033  0.0854 -0.0274 -0.0055  0.0162  0.0513  0.9898  0.0681
  35.  F 5 (d3)    -0.0868  0.2490 -0.1842  0.0028 -0.1255  0.1123 -0.0777 -0.4649
  36.  F 5 (d5)     0.1579 -0.1033  0.0339  0.0110  0.1260 -0.3349  0.1115 -0.8868

           AO         33      34      35      36
      ------------ ------- ------- ------- -------
   1.  C 1 (s)      0.0140 -0.0969 -0.3539 -0.0868
   2.  C 1 (s)     -0.0617  0.5208  3.2482 -0.2972
   3.  C 1 (px)    -0.1258 -0.0879  0.0155 -0.0020
   4.  C 1 (py)     0.0113  0.0531  0.0101 -0.0178
   5.  C 1 (pz)     0.0354 -0.8304  0.1423  0.5353
   6.  C 1 (s)      0.0080 -0.3739 -0.3763  3.7406
   7.  C 1 (px)     0.3090 -0.2937 -0.0332  0.0291
   8.  C 1 (py)    -0.0960  0.1105  0.2937  0.0478
   9.  C 1 (pz)     0.0282 -0.6063 -0.0076  1.3128
  10.  C 1 (d1)    -0.0403 -0.3617 -1.7923 -0.3026
  11.  C 1 (d4)     0.1399  0.1015 -1.3136 -0.3390
  12.  C 1 (d6)     0.2519 -1.3657 -1.1272  0.3406
  13.  C 1 (d2)    -0.0873  0.1107 -0.0057 -0.0014
  14.  C 1 (d3)     0.5837  0.0835 -0.0113 -0.0001
  15.  C 1 (d5)    -0.2164 -0.0420 -0.0179  0.0041
  16.  H 2 (s)      0.0509 -0.1984 -0.0100 -0.1202
  17.  H 2 (s)     -0.1068 -0.0863 -0.0989 -0.5225
  18.  H 3 (s)      0.0347 -0.1978  0.1230 -0.1602
  19.  H 3 (s)     -0.1575 -0.1124  0.2829 -0.4039
  20.  H 4 (s)      0.1482  0.1211  0.0510 -0.1490
  21.  H 4 (s)     -0.0818  0.2083  0.4019 -0.4694
  22.  F 5 (s)     -0.0070  0.1289 -0.0184  0.6220
  23.  F 5 (s)      0.0435 -0.0516 -0.0663  2.8387
  24.  F 5 (px)     0.3348 -0.0556 -0.0095  0.0009
  25.  F 5 (py)     0.0139  0.0334  0.0302  0.0014
  26.  F 5 (pz)     0.0606  0.3938 -0.1699 -0.2898
  27.  F 5 (s)     -0.0327 -0.4322  0.2526 -9.9219
  28.  F 5 (px)    -0.5388  0.1225  0.0128 -0.0053
  29.  F 5 (py)     0.0499 -0.0548 -0.0825 -0.0078
  30.  F 5 (pz)     0.0532 -1.5223  0.2273  1.7095
  31.  F 5 (d1)    -0.2200  0.3500 -0.0694  2.7713
  32.  F 5 (d4)     0.1262  0.3829 -0.0845  2.7896
  33.  F 5 (d6)    -0.0127  1.4602 -0.0888  2.0800
  34.  F 5 (d2)     0.0813 -0.0016  0.0013 -0.0007
  35.  F 5 (d3)     0.8239 -0.0252 -0.0015  0.0003
  36.  F 5 (d5)    -0.2789  0.0110  0.0074  0.0025


 AO overlap matrix:

           AO          1       2       3       4       5       6       7       8
      ------------ ------- ------- ------- ------- ------- ------- ------- -------
   1.  C 1 (s)      1.0000  0.2191  0.0000  0.0000  0.0000  0.1843  0.0000  0.0000
   2.  C 1 (s)      0.2191  1.0000  0.0000  0.0000  0.0000  0.8123  0.0000  0.0000
   3.  C 1 (px)     0.0000  0.0000  1.0000  0.0000  0.0000  0.0000  0.5698  0.0000
   4.  C 1 (py)     0.0000  0.0000  0.0000  1.0000  0.0000  0.0000  0.0000  0.5698
   5.  C 1 (pz)     0.0000  0.0000  0.0000  0.0000  1.0000  0.0000  0.0000  0.0000
   6.  C 1 (s)      0.1843  0.8123  0.0000  0.0000  0.0000  1.0000  0.0000  0.0000
   7.  C 1 (px)     0.0000  0.0000  0.5698  0.0000  0.0000  0.0000  1.0000  0.0000
   8.  C 1 (py)     0.0000  0.0000  0.0000  0.5698  0.0000  0.0000  0.0000  1.0000
   9.  C 1 (pz)     0.0000  0.0000  0.0000  0.0000  0.5698  0.0000  0.0000  0.0000
  10.  C 1 (d1)     0.0791  0.7102  0.0000  0.0000  0.0000  0.6299  0.0000  0.0000
  11.  C 1 (d4)     0.0791  0.7102  0.0000  0.0000  0.0000  0.6299  0.0000  0.0000
  12.  C 1 (d6)     0.0791  0.7102  0.0000  0.0000  0.0000  0.6299  0.0000  0.0000
  13.  C 1 (d2)     0.0000  0.0000  0.0000  0.0000  0.0000  0.0000  0.0000  0.0000
  14.  C 1 (d3)     0.0000  0.0000  0.0000  0.0000  0.0000  0.0000  0.0000  0.0000
  15.  C 1 (d5)     0.0000  0.0000  0.0000  0.0000  0.0000  0.0000  0.0000  0.0000
  16.  H 2 (s)      0.0318  0.2696  0.0000  0.3418 -0.1285  0.3744  0.0000  0.4816
  17.  H 2 (s)      0.0915  0.4732  0.0000  0.2486 -0.0935  0.7016  0.0000  0.5463
  18.  H 3 (s)      0.0318  0.2696 -0.2960 -0.1709 -0.1285  0.3744 -0.4171 -0.2408
  19.  H 3 (s)      0.0915  0.4732 -0.2153 -0.1243 -0.0935  0.7016 -0.4731 -0.2732
  20.  H 4 (s)      0.0318  0.2696  0.2960 -0.1709 -0.1285  0.3744  0.4171 -0.2408
  21.  H 4 (s)      0.0915  0.4732  0.2153 -0.1243 -0.0935  0.7016  0.4731 -0.2732
  22.  F 5 (s)      0.0000  0.0076  0.0000  0.0000  0.0182  0.0322  0.0000  0.0000
  23.  F 5 (s)      0.0007  0.0745  0.0000  0.0000  0.1379  0.1892  0.0000  0.0000
  24.  F 5 (px)     0.0000  0.0000  0.0334  0.0000  0.0000  0.0000  0.0908  0.0000
  25.  F 5 (py)     0.0000  0.0000  0.0000  0.0334  0.0000  0.0000  0.0000  0.0908
  26.  F 5 (pz)    -0.0019 -0.0939  0.0000  0.0000 -0.1532 -0.0975  0.0000  0.0000
  27.  F 5 (s)      0.0315  0.2368  0.0000  0.0000  0.2821  0.4115  0.0000  0.0000
  28.  F 5 (px)     0.0000  0.0000  0.1803  0.0000  0.0000  0.0000  0.3840  0.0000
  29.  F 5 (py)     0.0000  0.0000  0.0000  0.1803  0.0000  0.0000  0.0000  0.3840
  30.  F 5 (pz)    -0.0914 -0.4342  0.0000  0.0000 -0.3751 -0.4124  0.0000  0.0000
  31.  F 5 (d1)     0.0009  0.0824  0.0000  0.0000  0.1292  0.2430  0.0000  0.0000
  32.  F 5 (d4)     0.0009  0.0824  0.0000  0.0000  0.1292  0.2430  0.0000  0.0000
  33.  F 5 (d6)     0.0432  0.3112  0.0000  0.0000  0.3964  0.3406  0.0000  0.0000
  34.  F 5 (d2)     0.0000  0.0000  0.0000  0.0000  0.0000  0.0000  0.0000  0.0000
  35.  F 5 (d3)     0.0000  0.0000 -0.1654  0.0000  0.0000  0.0000 -0.1574  0.0000
  36.  F 5 (d5)     0.0000  0.0000  0.0000 -0.1654  0.0000  0.0000  0.0000 -0.1574

           AO          9      10      11      12      13      14      15      16
      ------------ ------- ------- ------- ------- ------- ------- ------- -------
   1.  C 1 (s)      0.0000  0.0791  0.0791  0.0791  0.0000  0.0000  0.0000  0.0318
   2.  C 1 (s)      0.0000  0.7102  0.7102  0.7102  0.0000  0.0000  0.0000  0.2696
   3.  C 1 (px)     0.0000  0.0000  0.0000  0.0000  0.0000  0.0000  0.0000  0.0000
   4.  C 1 (py)     0.0000  0.0000  0.0000  0.0000  0.0000  0.0000  0.0000  0.3418
   5.  C 1 (pz)     0.5698  0.0000  0.0000  0.0000  0.0000  0.0000  0.0000 -0.1285
   6.  C 1 (s)      0.0000  0.6299  0.6299  0.6299  0.0000  0.0000  0.0000  0.3744
   7.  C 1 (px)     0.0000  0.0000  0.0000  0.0000  0.0000  0.0000  0.0000  0.0000
   8.  C 1 (py)     0.0000  0.0000  0.0000  0.0000  0.0000  0.0000  0.0000  0.4816
   9.  C 1 (pz)     1.0000  0.0000  0.0000  0.0000  0.0000  0.0000  0.0000 -0.1811
  10.  C 1 (d1)     0.0000  1.0000  0.3333  0.3333  0.0000  0.0000  0.0000  0.1155
  11.  C 1 (d4)     0.0000  0.3333  1.0000  0.3333  0.0000  0.0000  0.0000  0.4094
  12.  C 1 (d6)     0.0000  0.3333  0.3333  1.0000  0.0000  0.0000  0.0000  0.1570
  13.  C 1 (d2)     0.0000  0.0000  0.0000  0.0000  1.0000  0.0000  0.0000  0.0000
  14.  C 1 (d3)     0.0000  0.0000  0.0000  0.0000  0.0000  1.0000  0.0000  0.0000
  15.  C 1 (d5)     0.0000  0.0000  0.0000  0.0000  0.0000  0.0000  1.0000 -0.1914
  16.  H 2 (s)     -0.1811  0.1155  0.4094  0.1570  0.0000  0.0000 -0.1914  1.0000
  17.  H 2 (s)     -0.2054  0.3489  0.4199  0.3589  0.0000  0.0000 -0.0463  0.6583
  18.  H 3 (s)     -0.1811  0.3359  0.1889  0.1570  0.2205  0.1658  0.0957  0.0186
  19.  H 3 (s)     -0.2054  0.4022  0.3666  0.3589  0.0533  0.0401  0.0231  0.1497
  20.  H 4 (s)     -0.1811  0.3359  0.1889  0.1570 -0.2205 -0.1658  0.0957  0.0186
  21.  H 4 (s)     -0.2054  0.4022  0.3666  0.3589 -0.0533 -0.0401  0.0231  0.1497
  22.  F 5 (s)      0.0680  0.0002  0.0002  0.0201  0.0000  0.0000  0.0000  0.0000
  23.  F 5 (s)      0.3588  0.0149  0.0149  0.1788  0.0000  0.0000  0.0000  0.0013
  24.  F 5 (px)     0.0000  0.0000  0.0000  0.0000  0.0000  0.0686  0.0000  0.0000
  25.  F 5 (py)     0.0000  0.0000  0.0000  0.0000  0.0000  0.0000  0.0686  0.0012
  26.  F 5 (pz)    -0.0970 -0.0222 -0.0222 -0.2224  0.0000  0.0000  0.0000 -0.0021
  27.  F 5 (s)      0.6008  0.1306  0.1306  0.3284  0.0000  0.0000  0.0000  0.0258
  28.  F 5 (px)     0.0000  0.0000  0.0000  0.0000  0.0000  0.2189  0.0000  0.0000
  29.  F 5 (py)     0.0000  0.0000  0.0000  0.0000  0.0000  0.0000  0.2189  0.0389
  30.  F 5 (pz)    -0.2182 -0.2823 -0.2823 -0.4572  0.0000  0.0000  0.0000 -0.0671
  31.  F 5 (d1)     0.4310  0.0649  0.0216  0.1400  0.0000  0.0000  0.0000  0.0025
  32.  F 5 (d4)     0.4310  0.0216  0.0649  0.1400  0.0000  0.0000  0.0000  0.0081
  33.  F 5 (d6)     0.4224  0.1400  0.1400  0.4755  0.0000  0.0000  0.0000  0.0189
  34.  F 5 (d2)     0.0000  0.0000  0.0000  0.0000  0.0649  0.0000  0.0000  0.0000
  35.  F 5 (d3)     0.0000  0.0000  0.0000  0.0000  0.0000 -0.2901  0.0000  0.0000
  36.  F 5 (d5)     0.0000  0.0000  0.0000  0.0000  0.0000  0.0000 -0.2901 -0.0165

           AO         17      18      19      20      21      22      23      24
      ------------ ------- ------- ------- ------- ------- ------- ------- -------
   1.  C 1 (s)      0.0915  0.0318  0.0915  0.0318  0.0915  0.0000  0.0007  0.0000
   2.  C 1 (s)      0.4732  0.2696  0.4732  0.2696  0.4732  0.0076  0.0745  0.0000
   3.  C 1 (px)     0.0000 -0.2960 -0.2153  0.2960  0.2153  0.0000  0.0000  0.0334
   4.  C 1 (py)     0.2486 -0.1709 -0.1243 -0.1709 -0.1243  0.0000  0.0000  0.0000
   5.  C 1 (pz)    -0.0935 -0.1285 -0.0935 -0.1285 -0.0935  0.0182  0.1379  0.0000
   6.  C 1 (s)      0.7016  0.3744  0.7016  0.3744  0.7016  0.0322  0.1892  0.0000
   7.  C 1 (px)     0.0000 -0.4171 -0.4731  0.4171  0.4731  0.0000  0.0000  0.0908
   8.  C 1 (py)     0.5463 -0.2408 -0.2732 -0.2408 -0.2732  0.0000  0.0000  0.0000
   9.  C 1 (pz)    -0.2054 -0.1811 -0.2054 -0.1811 -0.2054  0.0680  0.3588  0.0000
  10.  C 1 (d1)     0.3489  0.3359  0.4022  0.3359  0.4022  0.0002  0.0149  0.0000
  11.  C 1 (d4)     0.4199  0.1889  0.3666  0.1889  0.3666  0.0002  0.0149  0.0000
  12.  C 1 (d6)     0.3589  0.1570  0.3589  0.1570  0.3589  0.0201  0.1788  0.0000
  13.  C 1 (d2)     0.0000  0.2205  0.0533 -0.2205 -0.0533  0.0000  0.0000  0.0000
  14.  C 1 (d3)     0.0000  0.1658  0.0401 -0.1658 -0.0401  0.0000  0.0000  0.0686
  15.  C 1 (d5)    -0.0463  0.0957  0.0231  0.0957  0.0231  0.0000  0.0000  0.0000
  16.  H 2 (s)      0.6583  0.0186  0.1497  0.0186  0.1497  0.0000  0.0013  0.0000
  17.  H 2 (s)      1.0000  0.1497  0.4025  0.1497  0.4025  0.0090  0.0601  0.0000
  18.  H 3 (s)      0.1497  1.0000  0.6583  0.0186  0.1497  0.0000  0.0013 -0.0011
  19.  H 3 (s)      0.4025  0.6583  1.0000  0.1497  0.4025  0.0090  0.0601 -0.0188
  20.  H 4 (s)      0.1497  0.0186  0.1497  1.0000  0.6583  0.0000  0.0013  0.0011
  21.  H 4 (s)      0.4025  0.1497  0.4025  0.6583  1.0000  0.0090  0.0601  0.0188
  22.  F 5 (s)      0.0090  0.0000  0.0090  0.0000  0.0090  1.0000  0.2443  0.0000
  23.  F 5 (s)      0.0601  0.0013  0.0601  0.0013  0.0601  0.2443  1.0000  0.0000
  24.  F 5 (px)     0.0000 -0.0011 -0.0188  0.0011  0.0188  0.0000  0.0000  1.0000
  25.  F 5 (py)     0.0217 -0.0006 -0.0109 -0.0006 -0.0109  0.0000  0.0000  0.0000
  26.  F 5 (pz)    -0.0374 -0.0021 -0.0374 -0.0021 -0.0374  0.0000  0.0000  0.0000
  27.  F 5 (s)      0.1689  0.0258  0.1689  0.0258  0.1689  0.1716  0.7635  0.0000
  28.  F 5 (px)     0.0000 -0.0337 -0.1055  0.0337  0.1055  0.0000  0.0000  0.4995
  29.  F 5 (py)     0.1218 -0.0195 -0.0609 -0.0195 -0.0609  0.0000  0.0000  0.0000
  30.  F 5 (pz)    -0.2099 -0.0671 -0.2099 -0.0671 -0.2099  0.0000  0.0000  0.0000
  31.  F 5 (d1)     0.0835  0.0067  0.0963  0.0067  0.0963  0.0231  0.4474  0.0000
  32.  F 5 (d4)     0.1005  0.0039  0.0878  0.0039  0.0878  0.0231  0.4474  0.0000
  33.  F 5 (d6)     0.1341  0.0189  0.1341  0.0189  0.1341  0.0231  0.4474  0.0000
  34.  F 5 (d2)     0.0000  0.0041  0.0128 -0.0041 -0.0128  0.0000  0.0000  0.0000
  35.  F 5 (d3)     0.0000  0.0143  0.0440 -0.0143 -0.0440  0.0000  0.0000  0.0000
  36.  F 5 (d5)    -0.0508  0.0082  0.0254  0.0082  0.0254  0.0000  0.0000  0.0000

           AO         25      26      27      28      29      30      31      32
      ------------ ------- ------- ------- ------- ------- ------- ------- -------
   1.  C 1 (s)      0.0000 -0.0019  0.0315  0.0000  0.0000 -0.0914  0.0009  0.0009
   2.  C 1 (s)      0.0000 -0.0939  0.2368  0.0000  0.0000 -0.4342  0.0824  0.0824
   3.  C 1 (px)     0.0000  0.0000  0.0000  0.1803  0.0000  0.0000  0.0000  0.0000
   4.  C 1 (py)     0.0334  0.0000  0.0000  0.0000  0.1803  0.0000  0.0000  0.0000
   5.  C 1 (pz)     0.0000 -0.1532  0.2821  0.0000  0.0000 -0.3751  0.1292  0.1292
   6.  C 1 (s)      0.0000 -0.0975  0.4115  0.0000  0.0000 -0.4124  0.2430  0.2430
   7.  C 1 (px)     0.0000  0.0000  0.0000  0.3840  0.0000  0.0000  0.0000  0.0000
   8.  C 1 (py)     0.0908  0.0000  0.0000  0.0000  0.3840  0.0000  0.0000  0.0000
   9.  C 1 (pz)     0.0000 -0.0970  0.6008  0.0000  0.0000 -0.2182  0.4310  0.4310
  10.  C 1 (d1)     0.0000 -0.0222  0.1306  0.0000  0.0000 -0.2823  0.0649  0.0216
  11.  C 1 (d4)     0.0000 -0.0222  0.1306  0.0000  0.0000 -0.2823  0.0216  0.0649
  12.  C 1 (d6)     0.0000 -0.2224  0.3284  0.0000  0.0000 -0.4572  0.1400  0.1400
  13.  C 1 (d2)     0.0000  0.0000  0.0000  0.0000  0.0000  0.0000  0.0000  0.0000
  14.  C 1 (d3)     0.0000  0.0000  0.0000  0.2189  0.0000  0.0000  0.0000  0.0000
  15.  C 1 (d5)     0.0686  0.0000  0.0000  0.0000  0.2189  0.0000  0.0000  0.0000
  16.  H 2 (s)      0.0012 -0.0021  0.0258  0.0000  0.0389 -0.0671  0.0025  0.0081
  17.  H 2 (s)      0.0217 -0.0374  0.1689  0.0000  0.1218 -0.2099  0.0835  0.1005
  18.  H 3 (s)     -0.0006 -0.0021  0.0258 -0.0337 -0.0195 -0.0671  0.0067  0.0039
  19.  H 3 (s)     -0.0109 -0.0374  0.1689 -0.1055 -0.0609 -0.2099  0.0963  0.0878
  20.  H 4 (s)     -0.0006 -0.0021  0.0258  0.0337 -0.0195 -0.0671  0.0067  0.0039
  21.  H 4 (s)     -0.0109 -0.0374  0.1689  0.1055 -0.0609 -0.2099  0.0963  0.0878
  22.  F 5 (s)      0.0000  0.0000  0.1716  0.0000  0.0000  0.0000  0.0231  0.0231
  23.  F 5 (s)      0.0000  0.0000  0.7635  0.0000  0.0000  0.0000  0.4474  0.4474
  24.  F 5 (px)     0.0000  0.0000  0.0000  0.4995  0.0000  0.0000  0.0000  0.0000
  25.  F 5 (py)     1.0000  0.0000  0.0000  0.0000  0.4995  0.0000  0.0000  0.0000
  26.  F 5 (pz)     0.0000  1.0000  0.0000  0.0000  0.0000  0.4995  0.0000  0.0000
  27.  F 5 (s)      0.0000  0.0000  1.0000  0.0000  0.0000  0.0000  0.7089  0.7089
  28.  F 5 (px)     0.0000  0.0000  0.0000  1.0000  0.0000  0.0000  0.0000  0.0000
  29.  F 5 (py)     0.4995  0.0000  0.0000  0.0000  1.0000  0.0000  0.0000  0.0000
  30.  F 5 (pz)     0.0000  0.4995  0.0000  0.0000  0.0000  1.0000  0.0000  0.0000
  31.  F 5 (d1)     0.0000  0.0000  0.7089  0.0000  0.0000  0.0000  1.0000  0.3333
  32.  F 5 (d4)     0.0000  0.0000  0.7089  0.0000  0.0000  0.0000  0.3333  1.0000
  33.  F 5 (d6)     0.0000  0.0000  0.7089  0.0000  0.0000  0.0000  0.3333  0.3333
  34.  F 5 (d2)     0.0000  0.0000  0.0000  0.0000  0.0000  0.0000  0.0000  0.0000
  35.  F 5 (d3)     0.0000  0.0000  0.0000  0.0000  0.0000  0.0000  0.0000  0.0000
  36.  F 5 (d5)     0.0000  0.0000  0.0000  0.0000  0.0000  0.0000  0.0000  0.0000

           AO         33      34      35      36
      ------------ ------- ------- ------- -------
   1.  C 1 (s)      0.0432  0.0000  0.0000  0.0000
   2.  C 1 (s)      0.3112  0.0000  0.0000  0.0000
   3.  C 1 (px)     0.0000  0.0000 -0.1654  0.0000
   4.  C 1 (py)     0.0000  0.0000  0.0000 -0.1654
   5.  C 1 (pz)     0.3964  0.0000  0.0000  0.0000
   6.  C 1 (s)      0.3406  0.0000  0.0000  0.0000
   7.  C 1 (px)     0.0000  0.0000 -0.1574  0.0000
   8.  C 1 (py)     0.0000  0.0000  0.0000 -0.1574
   9.  C 1 (pz)     0.4224  0.0000  0.0000  0.0000
  10.  C 1 (d1)     0.1400  0.0000  0.0000  0.0000
  11.  C 1 (d4)     0.1400  0.0000  0.0000  0.0000
  12.  C 1 (d6)     0.4755  0.0000  0.0000  0.0000
  13.  C 1 (d2)     0.0000  0.0649  0.0000  0.0000
  14.  C 1 (d3)     0.0000  0.0000 -0.2901  0.0000
  15.  C 1 (d5)     0.0000  0.0000  0.0000 -0.2901
  16.  H 2 (s)      0.0189  0.0000  0.0000 -0.0165
  17.  H 2 (s)      0.1341  0.0000  0.0000 -0.0508
  18.  H 3 (s)      0.0189  0.0041  0.0143  0.0082
  19.  H 3 (s)      0.1341  0.0128  0.0440  0.0254
  20.  H 4 (s)      0.0189 -0.0041 -0.0143  0.0082
  21.  H 4 (s)      0.1341 -0.0128 -0.0440  0.0254
  22.  F 5 (s)      0.0231  0.0000  0.0000  0.0000
  23.  F 5 (s)      0.4474  0.0000  0.0000  0.0000
  24.  F 5 (px)     0.0000  0.0000  0.0000  0.0000
  25.  F 5 (py)     0.0000  0.0000  0.0000  0.0000
  26.  F 5 (pz)     0.0000  0.0000  0.0000  0.0000
  27.  F 5 (s)      0.7089  0.0000  0.0000  0.0000
  28.  F 5 (px)     0.0000  0.0000  0.0000  0.0000
  29.  F 5 (py)     0.0000  0.0000  0.0000  0.0000
  30.  F 5 (pz)     0.0000  0.0000  0.0000  0.0000
  31.  F 5 (d1)     0.3333  0.0000  0.0000  0.0000
  32.  F 5 (d4)     0.3333  0.0000  0.0000  0.0000
  33.  F 5 (d6)     1.0000  0.0000  0.0000  0.0000
  34.  F 5 (d2)     0.0000  1.0000  0.0000  0.0000
  35.  F 5 (d3)     0.0000  0.0000  1.0000  0.0000
  36.  F 5 (d5)     0.0000  0.0000  0.0000  1.0000


 AO bond-order matrix:

           AO          1       2       3       4       5       6       7       8
      ------------ ------- ------- ------- ------- ------- ------- ------- -------
   1.  C 1 (s)      2.0562 -0.0888  0.0000  0.0000  0.0282 -0.1478  0.0000  0.0000
   2.  C 1 (s)     -0.0888  0.2804  0.0000  0.0000 -0.0485  0.2463  0.0000  0.0000
   3.  C 1 (px)     0.0000  0.0000  0.4229  0.0000  0.0000  0.0000  0.1832  0.0000
   4.  C 1 (py)     0.0000  0.0000  0.0000  0.4229  0.0000  0.0000  0.0000  0.1832
   5.  C 1 (pz)     0.0282 -0.0485  0.0000  0.0000  0.2334 -0.1009  0.0000  0.0000
   6.  C 1 (s)     -0.1478  0.2463  0.0000  0.0000 -0.1009  0.2350  0.0000  0.0000
   7.  C 1 (px)     0.0000  0.0000  0.1832  0.0000  0.0000  0.0000  0.0813  0.0000
   8.  C 1 (py)     0.0000  0.0000  0.0000  0.1832  0.0000  0.0000  0.0000  0.0813
   9.  C 1 (pz)     0.0213 -0.0374  0.0000  0.0000  0.0723 -0.0495  0.0000  0.0000
  10.  C 1 (d1)    -0.0079  0.0086  0.0000 -0.0242 -0.0151  0.0114  0.0000 -0.0103
  11.  C 1 (d4)    -0.0079  0.0086  0.0000  0.0242 -0.0151  0.0114  0.0000  0.0103
  12.  C 1 (d6)    -0.0027  0.0004  0.0000  0.0000  0.0282 -0.0073  0.0000  0.0000
  13.  C 1 (d2)     0.0000  0.0000 -0.0279  0.0000  0.0000  0.0000 -0.0119  0.0000
  14.  C 1 (d3)     0.0000  0.0000 -0.0243  0.0000  0.0000  0.0000 -0.0090  0.0000
  15.  C 1 (d5)     0.0000  0.0000  0.0000 -0.0243  0.0000  0.0000  0.0000 -0.0090
  16.  H 2 (s)     -0.0551  0.1077  0.0000  0.2599 -0.0698  0.1084  0.0000  0.1100
  17.  H 2 (s)     -0.0108  0.0299  0.0000  0.2201 -0.0382  0.0345  0.0000  0.0904
  18.  H 3 (s)     -0.0551  0.1077 -0.2251 -0.1300 -0.0698  0.1084 -0.0953 -0.0550
  19.  H 3 (s)     -0.0108  0.0299 -0.1906 -0.1100 -0.0382  0.0345 -0.0783 -0.0452
  20.  H 4 (s)     -0.0551  0.1077  0.2251 -0.1300 -0.0698  0.1084  0.0953 -0.0550
  21.  H 4 (s)     -0.0108  0.0299  0.1906 -0.1100 -0.0382  0.0345  0.0783 -0.0452
  22.  F 5 (s)      0.0018  0.0021  0.0000  0.0000 -0.0201  0.0187  0.0000  0.0000
  23.  F 5 (s)     -0.0086  0.0042  0.0000  0.0000  0.0587 -0.0387  0.0000  0.0000
  24.  F 5 (px)     0.0000  0.0000 -0.0152  0.0000  0.0000  0.0000  0.0349  0.0000
  25.  F 5 (py)     0.0000  0.0000  0.0000 -0.0152  0.0000  0.0000  0.0000  0.0349
  26.  F 5 (pz)     0.0624 -0.1294  0.0000  0.0000 -0.3176 -0.0341  0.0000  0.0000
  27.  F 5 (s)      0.0277 -0.0648  0.0000  0.0000 -0.0048 -0.0790  0.0000  0.0000
  28.  F 5 (px)     0.0000  0.0000 -0.0447  0.0000  0.0000  0.0000  0.0108  0.0000
  29.  F 5 (py)     0.0000  0.0000  0.0000 -0.0447  0.0000  0.0000  0.0000  0.0108
  30.  F 5 (pz)     0.0386 -0.0752  0.0000  0.0000 -0.2255 -0.0101  0.0000  0.0000
  31.  F 5 (d1)    -0.0011  0.0022  0.0000 -0.0007  0.0029  0.0000  0.0000 -0.0003
  32.  F 5 (d4)    -0.0011  0.0022  0.0000  0.0007  0.0029  0.0000  0.0000  0.0003
  33.  F 5 (d6)    -0.0126  0.0200  0.0000  0.0000  0.0277  0.0087  0.0000  0.0000
  34.  F 5 (d2)     0.0000  0.0000 -0.0009  0.0000  0.0000  0.0000 -0.0003  0.0000
  35.  F 5 (d3)     0.0000  0.0000 -0.0058  0.0000  0.0000  0.0000 -0.0039  0.0000
  36.  F 5 (d5)     0.0000  0.0000  0.0000 -0.0058  0.0000  0.0000  0.0000 -0.0039

           AO          9      10      11      12      13      14      15      16
      ------------ ------- ------- ------- ------- ------- ------- ------- -------
   1.  C 1 (s)      0.0213 -0.0079 -0.0079 -0.0027  0.0000  0.0000  0.0000 -0.0551
   2.  C 1 (s)     -0.0374  0.0086  0.0086  0.0004  0.0000  0.0000  0.0000  0.1077
   3.  C 1 (px)     0.0000  0.0000  0.0000  0.0000 -0.0279 -0.0243  0.0000  0.0000
   4.  C 1 (py)     0.0000 -0.0242  0.0242  0.0000  0.0000  0.0000 -0.0243  0.2599
   5.  C 1 (pz)     0.0723 -0.0151 -0.0151  0.0282  0.0000  0.0000  0.0000 -0.0698
   6.  C 1 (s)     -0.0495  0.0114  0.0114 -0.0073  0.0000  0.0000  0.0000  0.1084
   7.  C 1 (px)     0.0000  0.0000  0.0000  0.0000 -0.0119 -0.0090  0.0000  0.0000
   8.  C 1 (py)     0.0000 -0.0103  0.0103  0.0000  0.0000  0.0000 -0.0090  0.1100
   9.  C 1 (pz)     0.0245 -0.0050 -0.0050  0.0079  0.0000  0.0000  0.0000 -0.0294
  10.  C 1 (d1)    -0.0050  0.0025 -0.0003 -0.0018  0.0000  0.0000  0.0015 -0.0086
  11.  C 1 (d4)    -0.0050 -0.0003  0.0025 -0.0018  0.0000  0.0000 -0.0015  0.0215
  12.  C 1 (d6)     0.0079 -0.0018 -0.0018  0.0037  0.0000  0.0000  0.0000 -0.0062
  13.  C 1 (d2)     0.0000  0.0000  0.0000  0.0000  0.0019  0.0017  0.0000  0.0000
  14.  C 1 (d3)     0.0000  0.0000  0.0000  0.0000  0.0017  0.0025  0.0000  0.0000
  15.  C 1 (d5)     0.0000  0.0015 -0.0015  0.0000  0.0000  0.0000  0.0025 -0.0169
  16.  H 2 (s)     -0.0294 -0.0086  0.0215 -0.0062  0.0000  0.0000 -0.0169  0.2162
  17.  H 2 (s)     -0.0138 -0.0101  0.0158 -0.0040  0.0000  0.0000 -0.0165  0.1607
  18.  H 3 (s)     -0.0294  0.0139 -0.0011 -0.0062  0.0150  0.0146  0.0085 -0.0284
  19.  H 3 (s)     -0.0138  0.0093 -0.0036 -0.0040  0.0129  0.0143  0.0082 -0.0519
  20.  H 4 (s)     -0.0294  0.0139 -0.0011 -0.0062 -0.0150 -0.0146  0.0085 -0.0284
  21.  H 4 (s)     -0.0138  0.0093 -0.0036 -0.0040 -0.0129 -0.0143  0.0082 -0.0519
  22.  F 5 (s)     -0.0011  0.0031  0.0031 -0.0065  0.0000  0.0000  0.0000  0.0051
  23.  F 5 (s)      0.0041 -0.0079 -0.0079  0.0180  0.0000  0.0000  0.0000 -0.0112
  24.  F 5 (px)     0.0000  0.0000  0.0000  0.0000  0.0044  0.0325  0.0000  0.0000
  25.  F 5 (py)     0.0000  0.0038 -0.0038  0.0000  0.0000  0.0000  0.0325 -0.0632
  26.  F 5 (pz)    -0.0854  0.0153  0.0153 -0.0402  0.0000  0.0000  0.0000  0.0274
  27.  F 5 (s)     -0.0081 -0.0053 -0.0053  0.0078  0.0000  0.0000  0.0000 -0.0207
  28.  F 5 (px)     0.0000  0.0000  0.0000  0.0000  0.0055  0.0257  0.0000  0.0000
  29.  F 5 (py)     0.0000  0.0047 -0.0047  0.0000  0.0000  0.0000  0.0257 -0.0668
  30.  F 5 (pz)    -0.0619  0.0112  0.0112 -0.0282  0.0000  0.0000  0.0000  0.0252
  31.  F 5 (d1)     0.0002 -0.0003 -0.0004  0.0008  0.0000  0.0000  0.0001 -0.0004
  32.  F 5 (d4)     0.0002 -0.0004 -0.0003  0.0008  0.0000  0.0000 -0.0001  0.0006
  33.  F 5 (d6)     0.0059 -0.0014 -0.0014  0.0043  0.0000  0.0000  0.0000  0.0007
  34.  F 5 (d2)     0.0000  0.0000  0.0000  0.0000  0.0001  0.0001  0.0000  0.0000
  35.  F 5 (d3)     0.0000  0.0000  0.0000  0.0000  0.0003 -0.0007  0.0000  0.0000
  36.  F 5 (d5)     0.0000  0.0002 -0.0002  0.0000  0.0000  0.0000 -0.0007 -0.0018

           AO         17      18      19      20      21      22      23      24
      ------------ ------- ------- ------- ------- ------- ------- ------- -------
   1.  C 1 (s)     -0.0108 -0.0551 -0.0108 -0.0551 -0.0108  0.0018 -0.0086  0.0000
   2.  C 1 (s)      0.0299  0.1077  0.0299  0.1077  0.0299  0.0021  0.0042  0.0000
   3.  C 1 (px)     0.0000 -0.2251 -0.1906  0.2251  0.1906  0.0000  0.0000 -0.0152
   4.  C 1 (py)     0.2201 -0.1300 -0.1100 -0.1300 -0.1100  0.0000  0.0000  0.0000
   5.  C 1 (pz)    -0.0382 -0.0698 -0.0382 -0.0698 -0.0382 -0.0201  0.0587  0.0000
   6.  C 1 (s)      0.0345  0.1084  0.0345  0.1084  0.0345  0.0187 -0.0387  0.0000
   7.  C 1 (px)     0.0000 -0.0953 -0.0783  0.0953  0.0783  0.0000  0.0000  0.0349
   8.  C 1 (py)     0.0904 -0.0550 -0.0452 -0.0550 -0.0452  0.0000  0.0000  0.0000
   9.  C 1 (pz)    -0.0138 -0.0294 -0.0138 -0.0294 -0.0138 -0.0011  0.0041  0.0000
  10.  C 1 (d1)    -0.0101  0.0139  0.0093  0.0139  0.0093  0.0031 -0.0079  0.0000
  11.  C 1 (d4)     0.0158 -0.0011 -0.0036 -0.0011 -0.0036  0.0031 -0.0079  0.0000
  12.  C 1 (d6)    -0.0040 -0.0062 -0.0040 -0.0062 -0.0040 -0.0065  0.0180  0.0000
  13.  C 1 (d2)     0.0000  0.0150  0.0129 -0.0150 -0.0129  0.0000  0.0000  0.0044
  14.  C 1 (d3)     0.0000  0.0146  0.0143 -0.0146 -0.0143  0.0000  0.0000  0.0325
  15.  C 1 (d5)    -0.0165  0.0085  0.0082  0.0085  0.0082  0.0000  0.0000  0.0000
  16.  H 2 (s)      0.1607 -0.0284 -0.0519 -0.0284 -0.0519  0.0051 -0.0112  0.0000
  17.  H 2 (s)      0.1352 -0.0519 -0.0554 -0.0519 -0.0554 -0.0001 -0.0009  0.0000
  18.  H 3 (s)     -0.0519  0.2162  0.1607 -0.0284 -0.0519  0.0051 -0.0112  0.0547
  19.  H 3 (s)     -0.0554  0.1607  0.1352 -0.0519 -0.0554 -0.0001 -0.0009  0.0974
  20.  H 4 (s)     -0.0519 -0.0284 -0.0519  0.2162  0.1607  0.0051 -0.0112 -0.0547
  21.  H 4 (s)     -0.0554 -0.0519 -0.0554  0.1607  0.1352 -0.0001 -0.0009 -0.0974
  22.  F 5 (s)     -0.0001  0.0051 -0.0001  0.0051 -0.0001  2.0863 -0.2152  0.0000
  23.  F 5 (s)     -0.0009 -0.0112 -0.0009 -0.0112 -0.0009 -0.2152  0.5797  0.0000
  24.  F 5 (px)     0.0000  0.0547  0.0974 -0.0547 -0.0974  0.0000  0.0000  0.8738
  25.  F 5 (py)    -0.1125  0.0316  0.0562  0.0316  0.0562  0.0000  0.0000  0.0000
  26.  F 5 (pz)     0.0381  0.0274  0.0381  0.0274  0.0381 -0.0359  0.0573  0.0000
  27.  F 5 (s)      0.0025 -0.0207  0.0025 -0.0207  0.0025 -0.2153  0.5302  0.0000
  28.  F 5 (px)     0.0000  0.0578  0.0862 -0.0578 -0.0862  0.0000  0.0000  0.6384
  29.  F 5 (py)    -0.0996  0.0334  0.0498  0.0334  0.0498  0.0000  0.0000  0.0000
  30.  F 5 (pz)     0.0284  0.0252  0.0284  0.0252  0.0284 -0.0220  0.0391  0.0000
  31.  F 5 (d1)    -0.0004  0.0004  0.0003  0.0004  0.0003 -0.0192  0.0235  0.0000
  32.  F 5 (d4)     0.0005 -0.0001 -0.0002 -0.0001 -0.0002 -0.0192  0.0235  0.0000
  33.  F 5 (d6)    -0.0022  0.0007 -0.0022  0.0007 -0.0022 -0.0221  0.0297  0.0000
  34.  F 5 (d2)     0.0000  0.0005  0.0005 -0.0005 -0.0005  0.0000  0.0000  0.0007
  35.  F 5 (d3)     0.0000  0.0015 -0.0004 -0.0015  0.0004  0.0000  0.0000 -0.0292
  36.  F 5 (d5)     0.0005  0.0009 -0.0002  0.0009 -0.0002  0.0000  0.0000  0.0000

           AO         25      26      27      28      29      30      31      32
      ------------ ------- ------- ------- ------- ------- ------- ------- -------
   1.  C 1 (s)      0.0000  0.0624  0.0277  0.0000  0.0000  0.0386 -0.0011 -0.0011
   2.  C 1 (s)      0.0000 -0.1294 -0.0648  0.0000  0.0000 -0.0752  0.0022  0.0022
   3.  C 1 (px)     0.0000  0.0000  0.0000 -0.0447  0.0000  0.0000  0.0000  0.0000
   4.  C 1 (py)    -0.0152  0.0000  0.0000  0.0000 -0.0447  0.0000 -0.0007  0.0007
   5.  C 1 (pz)     0.0000 -0.3176 -0.0048  0.0000  0.0000 -0.2255  0.0029  0.0029
   6.  C 1 (s)      0.0000 -0.0341 -0.0790  0.0000  0.0000 -0.0101  0.0000  0.0000
   7.  C 1 (px)     0.0000  0.0000  0.0000  0.0108  0.0000  0.0000  0.0000  0.0000
   8.  C 1 (py)     0.0349  0.0000  0.0000  0.0000  0.0108  0.0000 -0.0003  0.0003
   9.  C 1 (pz)     0.0000 -0.0854 -0.0081  0.0000  0.0000 -0.0619  0.0002  0.0002
  10.  C 1 (d1)     0.0038  0.0153 -0.0053  0.0000  0.0047  0.0112 -0.0003 -0.0004
  11.  C 1 (d4)    -0.0038  0.0153 -0.0053  0.0000 -0.0047  0.0112 -0.0004 -0.0003
  12.  C 1 (d6)     0.0000 -0.0402  0.0078  0.0000  0.0000 -0.0282  0.0008  0.0008
  13.  C 1 (d2)     0.0000  0.0000  0.0000  0.0055  0.0000  0.0000  0.0000  0.0000
  14.  C 1 (d3)     0.0000  0.0000  0.0000  0.0257  0.0000  0.0000  0.0000  0.0000
  15.  C 1 (d5)     0.0325  0.0000  0.0000  0.0000  0.0257  0.0000  0.0001 -0.0001
  16.  H 2 (s)     -0.0632  0.0274 -0.0207  0.0000 -0.0668  0.0252 -0.0004  0.0006
  17.  H 2 (s)     -0.1125  0.0381  0.0025  0.0000 -0.0996  0.0284 -0.0004  0.0005
  18.  H 3 (s)      0.0316  0.0274 -0.0207  0.0578  0.0334  0.0252  0.0004 -0.0001
  19.  H 3 (s)      0.0562  0.0381  0.0025  0.0862  0.0498  0.0284  0.0003 -0.0002
  20.  H 4 (s)      0.0316  0.0274 -0.0207 -0.0578  0.0334  0.0252  0.0004 -0.0001
  21.  H 4 (s)      0.0562  0.0381  0.0025 -0.0862  0.0498  0.0284  0.0003 -0.0002
  22.  F 5 (s)      0.0000 -0.0359 -0.2153  0.0000  0.0000 -0.0220 -0.0192 -0.0192
  23.  F 5 (s)      0.0000  0.0573  0.5302  0.0000  0.0000  0.0391  0.0235  0.0235
  24.  F 5 (px)     0.0000  0.0000  0.0000  0.6384  0.0000  0.0000  0.0000  0.0000
  25.  F 5 (py)     0.8738  0.0000  0.0000  0.0000  0.6384  0.0000  0.0006 -0.0006
  26.  F 5 (pz)     0.0000  0.6136  0.1961  0.0000  0.0000  0.4230  0.0000  0.0000
  27.  F 5 (s)      0.0000  0.1961  0.5248  0.0000  0.0000  0.1327  0.0208  0.0208
  28.  F 5 (px)     0.0000  0.0000  0.0000  0.4691  0.0000  0.0000  0.0000  0.0000
  29.  F 5 (py)     0.6384  0.0000  0.0000  0.0000  0.4691  0.0000  0.0005 -0.0005
  30.  F 5 (pz)     0.0000  0.4230  0.1327  0.0000  0.0000  0.2924  0.0001  0.0001
  31.  F 5 (d1)     0.0006  0.0000  0.0208  0.0000  0.0005  0.0001  0.0010  0.0010
  32.  F 5 (d4)    -0.0006  0.0000  0.0208  0.0000 -0.0005  0.0001  0.0010  0.0010
  33.  F 5 (d6)     0.0000 -0.0508  0.0132  0.0000  0.0000 -0.0346  0.0015  0.0015
  34.  F 5 (d2)     0.0000  0.0000  0.0000  0.0006  0.0000  0.0000  0.0000  0.0000
  35.  F 5 (d3)     0.0000  0.0000  0.0000 -0.0208  0.0000  0.0000  0.0000  0.0000
  36.  F 5 (d5)    -0.0292  0.0000  0.0000  0.0000 -0.0208  0.0000  0.0000  0.0000

           AO         33      34      35      36
      ------------ ------- ------- ------- -------
   1.  C 1 (s)     -0.0126  0.0000  0.0000  0.0000
   2.  C 1 (s)      0.0200  0.0000  0.0000  0.0000
   3.  C 1 (px)     0.0000 -0.0009 -0.0058  0.0000
   4.  C 1 (py)     0.0000  0.0000  0.0000 -0.0058
   5.  C 1 (pz)     0.0277  0.0000  0.0000  0.0000
   6.  C 1 (s)      0.0087  0.0000  0.0000  0.0000
   7.  C 1 (px)     0.0000 -0.0003 -0.0039  0.0000
   8.  C 1 (py)     0.0000  0.0000  0.0000 -0.0039
   9.  C 1 (pz)     0.0059  0.0000  0.0000  0.0000
  10.  C 1 (d1)    -0.0014  0.0000  0.0000  0.0002
  11.  C 1 (d4)    -0.0014  0.0000  0.0000 -0.0002
  12.  C 1 (d6)     0.0043  0.0000  0.0000  0.0000
  13.  C 1 (d2)     0.0000  0.0001  0.0003  0.0000
  14.  C 1 (d3)     0.0000  0.0001 -0.0007  0.0000
  15.  C 1 (d5)     0.0000  0.0000  0.0000 -0.0007
  16.  H 2 (s)      0.0007  0.0000  0.0000 -0.0018
  17.  H 2 (s)     -0.0022  0.0000  0.0000  0.0005
  18.  H 3 (s)      0.0007  0.0005  0.0015  0.0009
  19.  H 3 (s)     -0.0022  0.0005 -0.0004 -0.0002
  20.  H 4 (s)      0.0007 -0.0005 -0.0015  0.0009
  21.  H 4 (s)     -0.0022 -0.0005  0.0004 -0.0002
  22.  F 5 (s)     -0.0221  0.0000  0.0000  0.0000
  23.  F 5 (s)      0.0297  0.0000  0.0000  0.0000
  24.  F 5 (px)     0.0000  0.0007 -0.0292  0.0000
  25.  F 5 (py)     0.0000  0.0000  0.0000 -0.0292
  26.  F 5 (pz)    -0.0508  0.0000  0.0000  0.0000
  27.  F 5 (s)      0.0132  0.0000  0.0000  0.0000
  28.  F 5 (px)     0.0000  0.0006 -0.0208  0.0000
  29.  F 5 (py)     0.0000  0.0000  0.0000 -0.0208
  30.  F 5 (pz)    -0.0346  0.0000  0.0000  0.0000
  31.  F 5 (d1)     0.0015  0.0000  0.0000  0.0000
  32.  F 5 (d4)     0.0015  0.0000  0.0000  0.0000
  33.  F 5 (d6)     0.0066  0.0000  0.0000  0.0000
  34.  F 5 (d2)     0.0000  0.0000  0.0000  0.0000
  35.  F 5 (d3)     0.0000  0.0000  0.0011  0.0000
  36.  F 5 (d5)     0.0000  0.0000  0.0000  0.0011


 AO density matrix:

           AO          1       2       3       4       5       6       7       8
      ------------ ------- ------- ------- ------- ------- ------- ------- -------
   1.  C 1 (s)      1.9998  0.4482  0.0000  0.0000  0.0029  0.3672  0.0000  0.0000
   2.  C 1 (s)      0.4482  1.5404  0.0000  0.0000 -0.1254  1.6428  0.0000  0.0000
   3.  C 1 (px)     0.0000  0.0000  1.2902  0.0000  0.0000  0.0000  1.3759  0.0000
   4.  C 1 (py)     0.0000  0.0000  0.0000  1.2902  0.0000  0.0000  0.0000  1.3759
   5.  C 1 (pz)     0.0029 -0.1254  0.0000  0.0000  0.9720 -0.1844  0.0000  0.0000
   6.  C 1 (s)      0.3672  1.6428  0.0000  0.0000 -0.1844  1.8127  0.0000  0.0000
   7.  C 1 (px)     0.0000  0.0000  1.3759  0.0000  0.0000  0.0000  1.4876  0.0000
   8.  C 1 (py)     0.0000  0.0000  0.0000  1.3759  0.0000  0.0000  0.0000  1.4876
   9.  C 1 (pz)     0.0034 -0.2031  0.0000  0.0000  0.8924 -0.1572  0.0000  0.0000
[...]
            0.0000
      Occupancy is 1.998 after deleting minor hybrid components
            0.0000 0.0000 0.0000 0.7696 0.0000 0.0000 0.0000 0.0000
            0.0000 0.0000 0.0000 0.0000 0.0000 0.0000 0.0000 0.6386
            0.0000
           NBO accepted:   10. Label:BD ( 1)   1   4
      Occupancy is 0.013 for antibonding component
            0.0000 0.0000 0.0000-0.6386 0.0000 0.0000 0.0000 0.0000
            0.0000 0.0000 0.0000 0.0000 0.0000 0.0000 0.0000 0.7696
            0.0000
           NBO accepted:   11. Label:BD*( 1)   1   4
        2 eigenvector(s) stashed in permanent list

 Search of NHO DM block for the following atom(s):   1   5
      Select eigenvectors with eigenvalue > 1.900
       1.999 0.001 0.000 0.000 0.000 0.000 0.000 0.000 0.000 0.000 0.000 0.000
       0.000 0.000 0.000 0.000 0.000 0.000 0.000 0.000 0.000 0.000 0.000 0.000
       0.000 0.000 0.000 0.000 0.000 0.000
      Eigenvector ( 1) has occupancy 1.99852
            0.0000 0.0000 0.0000 0.0000 0.5134 0.0000 0.0000 0.0000
            0.0000 0.0000 0.0000 0.0000 0.0000 0.0000 0.0000 0.0000
            0.0000 0.0000 0.0000 0.8582 0.0000 0.0000 0.0000 0.0000
            0.0000 0.0000 0.0000 0.0000 0.0000 0.0000
      Occupancy is 1.999 after deleting minor hybrid components
            0.0000 0.0000 0.0000 0.0000 0.5134 0.0000 0.0000 0.0000
            0.0000 0.0000 0.0000 0.0000 0.0000 0.0000 0.0000 0.0000
            0.0000 0.0000 0.0000 0.8582 0.0000 0.0000 0.0000 0.0000
            0.0000 0.0000 0.0000 0.0000 0.0000 0.0000
           NBO accepted:   12. Label:BD ( 1)   1   5
      Occupancy is 0.001 for antibonding component
            0.0000 0.0000 0.0000 0.0000 0.8582 0.0000 0.0000 0.0000
            0.0000 0.0000 0.0000 0.0000 0.0000 0.0000 0.0000 0.0000
            0.0000 0.0000 0.0000-0.5134 0.0000 0.0000 0.0000 0.0000
            0.0000 0.0000 0.0000 0.0000 0.0000 0.0000
           NBO accepted:   13. Label:BD*( 1)   1   5
        2 eigenvector(s) stashed in permanent list

  2-center NBOs projected from the NHO density matrix
       0.012 electrons remain in the fully projected matrix

                            Occupancies       Lewis Structure    Low   High
         Max    Occ     -------------------  -----------------   occ   occ
  Cycle  Ctr   Thresh    Lewis   non-Lewis     CR  BD  nC  LP    (L)   (NL)
 ============================================================================
    1     2     1.90    17.94679   0.05321      2   4   0   3     0      0
 ----------------------------------------------------------------------------

 Structure accepted: No low occupancy Lewis orbitals

 -------------------------------------------------------
   Core                      3.99999 (100.000% of   4)
   Valence Lewis            13.94680 ( 99.620% of  14)
  ==================      =============================
   Total Lewis              17.94679 ( 99.704% of  18)
  -----------------------------------------------------
   Valence non-Lewis         0.04137 (  0.230% of  18)
   Rydberg non-Lewis         0.01183 (  0.066% of  18)
  ==================      =============================
   Total non-Lewis           0.05321 (  0.296% of  18)
 -------------------------------------------------------


     (Occupancy)   Bond orbital / Coefficients / Hybrids
 ------------------ Lewis ------------------------------------------------------
   1. (1.99999) CR ( 1) C  1            s(100.00%)
                                         1.0000  0.0000  0.0000  0.0000  0.0000
                                         0.0000  0.0000  0.0000  0.0000  0.0000
                                         0.0000  0.0000  0.0000  0.0000  0.0000
   2. (2.00000) CR ( 1) F  5            s(100.00%)
                                         1.0000  0.0000  0.0000  0.0000  0.0000
                                         0.0000  0.0000  0.0000  0.0000  0.0000
                                         0.0000  0.0000  0.0000  0.0000  0.0000
   3. (1.99490) LP ( 1) F  5            s( 71.68%)p 0.39( 28.30%)d 0.00(  0.02%)
                                         0.0000  0.8466  0.0048 -0.0003  0.0000
                                         0.0000  0.0000  0.0000  0.5320 -0.0036
                                         0.0000  0.0000  0.0000  0.0000 -0.0138
   4. (1.97918) LP ( 2) F  5            s(  0.00%)p 1.00( 99.93%)d 0.00(  0.07%)
                                         0.0000  0.0000  0.0000  0.0000  0.8528
                                        -0.0005 -0.5217  0.0003  0.0000  0.0000
                                         0.0006 -0.0220  0.0134 -0.0004  0.0000
   5. (1.97918) LP ( 3) F  5            s(  0.00%)p 1.00( 99.93%)d 0.00(  0.07%)
                                         0.0000  0.0000  0.0000  0.0000  0.5217
                                        -0.0003  0.8528 -0.0005  0.0000  0.0000
                                         0.0004 -0.0134 -0.0220  0.0006  0.0000
   6. (1.99834) BD ( 1) C  1- H  2
               ( 59.22%)   0.7696* C  1 s( 27.09%)p 2.68( 72.70%)d 0.01(  0.21%)
                                         0.0000  0.5204  0.0065 -0.0006  0.0000
                                         0.0000  0.8154 -0.0057 -0.2492  0.0024
                                         0.0000  0.0000 -0.0270 -0.0319 -0.0178
               ( 40.78%)   0.6386* H  2 s(100.00%)
                                         1.0000  0.0021
   7. (1.99834) BD ( 1) C  1- H  3
               ( 59.22%)   0.7696* C  1 s( 27.09%)p 2.68( 72.70%)d 0.01(  0.21%)
                                         0.0000  0.5204  0.0065 -0.0006 -0.7062
                                         0.0049 -0.4077  0.0028 -0.2492  0.0024
                                         0.0276  0.0234  0.0135  0.0159 -0.0178
               ( 40.78%)   0.6386* H  3 s(100.00%)
                                         1.0000  0.0021
   8. (1.99834) BD ( 1) C  1- H  4
               ( 59.22%)   0.7696* C  1 s( 27.09%)p 2.68( 72.70%)d 0.01(  0.21%)
                                         0.0000  0.5204  0.0065 -0.0006  0.7062
                                        -0.0049 -0.4077  0.0028 -0.2492  0.0024
                                        -0.0276 -0.0234  0.0135  0.0159 -0.0178
               ( 40.78%)   0.6386* H  4 s(100.00%)
                                         1.0000  0.0021
   9. (1.99852) BD ( 1) C  1- F  5
               ( 26.36%)   0.5134* C  1 s( 18.86%)p 4.28( 80.71%)d 0.02(  0.43%)
                                         0.0000  0.4321 -0.0431  0.0045  0.0000
                                         0.0000  0.0000  0.0000  0.8971  0.0488
                                         0.0000  0.0000  0.0000  0.0000  0.0654
               ( 73.64%)   0.8582* F  5 s( 28.32%)p 2.52( 71.49%)d 0.01(  0.19%)
                                         0.0000  0.5320 -0.0108  0.0006  0.0000
                                         0.0000  0.0000  0.0000 -0.8455 -0.0045
                                         0.0000  0.0000  0.0000  0.0000  0.0438
 ---------------- non-Lewis ----------------------------------------------------
  10. (0.01340) BD*( 1) C  1- H  2
               ( 40.78%)   0.6386* C  1 s( 27.09%)p 2.68( 72.70%)d 0.01(  0.21%)
                                         0.0000 -0.5204 -0.0065  0.0006  0.0000
                                         0.0000 -0.8154  0.0057  0.2492 -0.0024
                                         0.0000  0.0000  0.0270  0.0319  0.0178
               ( 59.22%)  -0.7696* H  2 s(100.00%)
                                        -1.0000 -0.0021
  11. (0.01340) BD*( 1) C  1- H  3
               ( 40.78%)   0.6386* C  1 s( 27.09%)p 2.68( 72.70%)d 0.01(  0.21%)
                                         0.0000 -0.5204 -0.0065  0.0006  0.7062
                                        -0.0049  0.4077 -0.0028  0.2492 -0.0024
                                        -0.0276 -0.0234 -0.0135 -0.0159  0.0178
               ( 59.22%)  -0.7696* H  3 s(100.00%)
                                        -1.0000 -0.0021
  12. (0.01340) BD*( 1) C  1- H  4
               ( 40.78%)   0.6386* C  1 s( 27.09%)p 2.68( 72.70%)d 0.01(  0.21%)
                                         0.0000 -0.5204 -0.0065  0.0006 -0.7062
                                         0.0049  0.4077 -0.0028  0.2492 -0.0024
                                         0.0276  0.0234 -0.0135 -0.0159  0.0178
               ( 59.22%)  -0.7696* H  4 s(100.00%)
                                        -1.0000 -0.0021
  13. (0.00118) BD*( 1) C  1- F  5
               ( 73.64%)   0.8582* C  1 s( 18.86%)p 4.28( 80.71%)d 0.02(  0.43%)
                                         0.0000  0.4321 -0.0431  0.0045  0.0000
                                         0.0000  0.0000  0.0000  0.8971  0.0488
                                         0.0000  0.0000  0.0000  0.0000  0.0654
               ( 26.36%)  -0.5134* F  5 s( 28.32%)p 2.52( 71.49%)d 0.01(  0.19%)
                                         0.0000  0.5320 -0.0108  0.0006  0.0000
                                         0.0000  0.0000  0.0000 -0.8455 -0.0045
                                         0.0000  0.0000  0.0000  0.0000  0.0438
  14. (0.00375) RY ( 1) C  1            s( 23.88%)p 3.12( 74.45%)d 0.07(  1.66%)
                                         0.0000  0.0255  0.4841  0.0623  0.0000
                                         0.0000  0.0000  0.0000  0.0668 -0.8603
                                         0.0000  0.0000  0.0000  0.0000 -0.1290
  15. (0.00156) RY ( 2) C  1            s(  0.00%)p 1.00( 16.16%)d 5.19( 83.84%)
                                         0.0000  0.0000  0.0000  0.0000  0.0299
                                        -0.3560  0.0154 -0.1835  0.0000  0.0000
                                         0.1509  0.7998  0.4122  0.0778  0.0000
  16. (0.00156) RY ( 3) C  1            s(  0.00%)p 1.00( 16.16%)d 5.19( 83.84%)
                                         0.0000  0.0000  0.0000  0.0000 -0.0154
                                         0.1835  0.0299 -0.3560  0.0000  0.0000
                                        -0.0778 -0.4122  0.7998  0.1509  0.0000
  17. (0.00000) RY ( 4) C  1            s( 91.60%)p 0.09(  7.83%)d 0.01(  0.56%)
  18. (0.00000) RY ( 5) C  1            s(  2.09%)p35.03( 73.06%)d11.92( 24.86%)
  19. (0.00000) RY ( 6) C  1            s(  2.98%)p24.68( 73.44%)d 7.93( 23.58%)
  20. (0.00000) RY ( 7) C  1            s(  6.17%)p 0.11(  0.66%)d15.10( 93.17%)
  21. (0.00000) RY ( 8) C  1            s( 59.25%)p 0.23( 13.50%)d 0.46( 27.25%)
  22. (0.00000) RY ( 9) C  1            s(  0.31%)p 3.92(  1.21%)d99.99( 98.48%)
  23. (0.00000) RY (10) C  1            s( 13.59%)p 1.82( 24.70%)d 4.54( 61.70%)
  24. (0.00079) RY ( 1) H  2            s(100.00%)
                                        -0.0021  1.0000
  25. (0.00079) RY ( 1) H  3            s(100.00%)
                                        -0.0021  1.0000
  26. (0.00079) RY ( 1) H  4            s(100.00%)
                                        -0.0021  1.0000
  27. (0.00114) RY ( 1) F  5            s(  0.00%)p 1.00( 97.30%)d 0.03(  2.70%)
                                         0.0000  0.0000  0.0000  0.0000 -0.0015
                                        -0.3458  0.0041  0.9238  0.0000  0.0000
                                        -0.0247 -0.0520  0.1389  0.0660  0.0000
  28. (0.00114) RY ( 2) F  5            s(  0.00%)p 1.00( 97.30%)d 0.03(  2.70%)
                                         0.0000  0.0000  0.0000  0.0000  0.0041
                                         0.9238  0.0015  0.3458  0.0000  0.0000
                                         0.0660  0.1389  0.0520  0.0247  0.0000
  29. (0.00030) RY ( 3) F  5            s( 54.98%)p 0.78( 43.02%)d 0.04(  2.01%)
                                         0.0000 -0.0040  0.7395  0.0533  0.0000
                                         0.0000  0.0000  0.0000 -0.0010 -0.6559
                                         0.0000  0.0000  0.0000  0.0000  0.1416
  30. (0.00000) RY ( 4) F  5            s(  0.00%)p 1.00(  2.43%)d40.22( 97.57%)
  31. (0.00000) RY ( 5) F  5            s(  0.24%)p 1.33(  0.32%)d99.99( 99.44%)
  32. (0.00000) RY ( 6) F  5            s( 12.05%)p 2.51( 30.24%)d 4.79( 57.71%)
  33. (0.00000) RY ( 7) F  5            s( 41.57%)p 0.60( 25.03%)d 0.80( 33.39%)
  34. (0.00000) RY ( 8) F  5            s( 91.16%)p 0.02(  1.91%)d 0.08(  6.93%)
  35. (0.00000) RY ( 9) F  5            s(  0.00%)p 1.00(  2.64%)d36.87( 97.36%)
  36. (0.00000) RY (10) F  5            s(  0.00%)p 1.00(  0.15%)d99.99( 99.85%)


 NHO DIRECTIONALITY AND BOND BENDING (deviation from line of nuclear centers at
                                      the position of maximum hybrid amplitude)

         [Thresholds for printing:  angular deviation  >  1.0 degree]
                                    p- or d-character  > 25.0%
                                    orbital occupancy  >  0.10e

                        Line of Centers        Hybrid 1             Hybrid 2
                        ---------------  -------------------  ------------------
           NBO            Theta   Phi    Theta   Phi    Dev   Theta   Phi    Dev
 ===============================================================================
   3. LP ( 1) F  5          --     --      0.0    0.0   --      --     --    --
   4. LP ( 2) F  5          --     --     90.2  148.5   --      --     --    --
   5. LP ( 3) F  5          --     --     90.2   58.5   --      --     --    --
   6. BD ( 1) C  1- H  2  110.6   90.0   108.3   90.0   2.3     --     --    --
   7. BD ( 1) C  1- H  3  110.6  210.0   108.3  210.0   2.3     --     --    --
   8. BD ( 1) C  1- H  4  110.6  330.0   108.3  330.0   2.3     --     --    --


 SECOND ORDER PERTURBATION THEORY ANALYSIS OF FOCK MATRIX IN NBO BASIS

     Threshold for printing:   0.50 kcal/mol
                                                          E(2) E(NL)-E(L) F(L,NL)
      Donor (L) NBO              Acceptor (NL) NBO      kcal/mol   a.u.    a.u.
 ===============================================================================

 within unit  1
    3. LP ( 1) F  5            14. RY ( 1) C  1            4.67    2.05   0.087
    4. LP ( 2) F  5            10. BD*( 1) C  1- H  2      2.37    1.31   0.050
    4. LP ( 2) F  5            11. BD*( 1) C  1- H  3      1.99    1.31   0.046
    4. LP ( 2) F  5            12. BD*( 1) C  1- H  4      8.71    1.31   0.095
    4. LP ( 2) F  5            16. RY ( 3) C  1            1.12    2.63   0.048
    5. LP ( 3) F  5            10. BD*( 1) C  1- H  2      6.34    1.31   0.081
    5. LP ( 3) F  5            11. BD*( 1) C  1- H  3      6.73    1.31   0.084
    5. LP ( 3) F  5            15. RY ( 2) C  1            1.12    2.63   0.048
    6. BD ( 1) C  1- H  2      27. RY ( 1) F  5            0.91    2.32   0.041
    7. BD ( 1) C  1- H  3      28. RY ( 2) F  5            1.01    2.32   0.043
    8. BD ( 1) C  1- H  4      27. RY ( 1) F  5            0.62    2.32   0.034


 NATURAL BOND ORBITALS (Summary):

                                                     Principal Delocalizations
           NBO                 Occupancy    Energy   (geminal,vicinal,remote)
 ===============================================================================
 Molecular unit  1  (CH3F)
 ------ Lewis --------------------------------------
    1. CR ( 1) C  1             1.99999   -11.30779
    2. CR ( 1) F  5             2.00000   -26.27307
    3. LP ( 1) F  5             1.99490    -1.18433  14(v)
    4. LP ( 2) F  5             1.97918    -0.60945  12(v),10(v),11(v),16(v)
    5. LP ( 3) F  5             1.97918    -0.60945  11(v),10(v),15(v)
    6. BD ( 1) C  1- H  2       1.99834    -0.69132  27(v)
    7. BD ( 1) C  1- H  3       1.99834    -0.69132  28(v)
    8. BD ( 1) C  1- H  4       1.99834    -0.69132  27(v)
    9. BD ( 1) C  1- F  5       1.99852    -1.09535
 ------ non-Lewis ----------------------------------
   10. BD*( 1) C  1- H  2       0.01340     0.69729
   11. BD*( 1) C  1- H  3       0.01340     0.69729
   12. BD*( 1) C  1- H  4       0.01340     0.69729
   13. BD*( 1) C  1- F  5       0.00118     0.50373
   14. RY ( 1) C  1             0.00375     0.86070
   15. RY ( 2) C  1             0.00156     2.02102
   16. RY ( 3) C  1             0.00156     2.02102
   17. RY ( 4) C  1             0.00000     2.71449
   18. RY ( 5) C  1             0.00000     1.24228
   19. RY ( 6) C  1             0.00000     1.32587
   20. RY ( 7) C  1             0.00000     2.55859
   21. RY ( 8) C  1             0.00000     2.72793
   22. RY ( 9) C  1             0.00000     2.18917
   23. RY (10) C  1             0.00000     1.88885
   24. RY ( 1) H  2             0.00079     0.78787
   25. RY ( 1) H  3             0.00079     0.78787
   26. RY ( 1) H  4             0.00079     0.78787
   27. RY ( 1) F  5             0.00114     1.62847
   28. RY ( 2) F  5             0.00114     1.62847
   29. RY ( 3) F  5             0.00030     2.63799
   30. RY ( 4) F  5             0.00000     2.36997
   31. RY ( 5) F  5             0.00000     2.17164
   32. RY ( 6) F  5             0.00000     2.25227
   33. RY ( 7) F  5             0.00000     1.90111
   34. RY ( 8) F  5             0.00000     4.20848
   35. RY ( 9) F  5             0.00000     2.29742
   36. RY (10) F  5             0.00000     2.24297
          -------------------------------
                 Total Lewis   17.94679  ( 99.7044%)
           Valence non-Lewis    0.04137  (  0.2298%)
           Rydberg non-Lewis    0.01183  (  0.0657%)
          -------------------------------
               Total unit  1   18.00000  (100.0000%)
              Charge unit  1    0.00000

 $CHOOSE
   LONE 5 3 END
   BOND S 1 2 S 1 3 S 1 4 S 1 5 END
 $END

 NBO analysis completed in 0.38 CPU seconds (1 wall second)
 Maximum scratch memory used by NBO was 333295 words (2.54 MB)
 Maximum scratch memory used by G16NBO was 10297 words (0.08 MB)

 Opening RunExU unformatted file "/cluster/work/users/beto93/CH3F/Gau-155916.EUF"
 Read unf file /cluster/work/users/beto93/CH3F/Gau-155916.EUF:
 Label Gaussian matrix elements                                         IVers= 2 NLab= 2 Version=ES64L-G16RevC.01
 Title NBO-a                                                           
 NAtoms=     5 NBasis=    36 NBsUse=    36 ICharg=     0 Multip=     1 NE=    18 Len12L=8 Len4L=8 IOpCl= 0 ICGU=111
 GAUSSIAN SCALARS                    NI= 1 NR= 1 NTot=       1 LenBuf=    2 NRI=1 N=    1000
 NPA CHARGES                         NI= 0 NR= 1 NTot=       5 LenBuf= 4000 NRI=1 N=       5
 Recovered energy= -139.033295700     dipole=     -0.000000000000     -0.000000000000     -0.811487775152
 Unable to Open any file for archive entry.
 1\1\GINC-C1-8\SP\RHF\6-31G(d)\C1H3F1\BETO93\24-Jul-2024\0\\#RHF/6-31G*
  Pop=NBO7Read\\NBO-a\\0,1\C,0,-0.008857,0.015341,-0.006262\H,0,0.00198
 5,-0.003442,1.09006\H,0,1.028381,-0.003442,-0.361478\H,0,-0.51121,-0.8
 92323,-0.36148\F,0,-0.661148,1.145146,-0.467503\\Version=ES64L-G16RevC
 .01\State=1-A1\HF=-139.0332957\RMSD=3.325e-09\Dipole=0.382538,-0.66257
 75,0.2704961\Quadrupole=0.0242377,-0.0727124,0.0484748,0.0839607,-0.03
 42768,0.0593694\PG=C03V [C3(C1F1),3SGV(H1)]\\@
 The archive entry for this job was punched.


      HUMANKIND PERIODICALLY GOES THROUGH A SPEEDUP OF ITS AFFAIRS, 
      THEREBY EXPERIENCING THE RACE BETWEEN THE RENEWABLE VITALITY
      OF THE LIVING, AND THE BECKONING VITIATION OF DECADENCE.
      IN THIS PERIODIC RACE, ANY PAUSE BECOMES A LUXURY.
      ONLY THEN CAN ONE REFLECT THAT ALL IS PERMITTED;
      ALL IS POSSIBLE.

                              -- THE APOCRYPHA OF MUAD'DIB
                                 CHILDREN OF DUNE, BY FRANK HERBERT
 Job cpu time:       0 days  0 hours  0 minutes 12.2 seconds.
 Elapsed time:       0 days  0 hours  0 minutes  4.0 seconds.
 File lengths (MBytes):  RWF=     10 Int=      0 D2E=      0 Chk=      1 Scr=      1
 Normal termination of Gaussian 16 at Wed Jul 24 12:08:02 2024.
