 Entering Gaussian System, Link 0=g16
 Initial command:
 /cluster/software/Gaussian/g16_C.01/l1.exe "/cluster/work/users/beto93/mol56/Gau-736633.inp" -scrdir="/cluster/work/users/beto93/mol56/"
 Entering Link 1 = /cluster/software/Gaussian/g16_C.01/l1.exe PID=    736634.
  
 Copyright (c) 1988-2019, Gaussian, Inc.  All Rights Reserved.
  
 This is part of the Gaussian(R) 16 program.  It is based on
 the Gaussian(R) 09 system (copyright 2009, Gaussian, Inc.),
 the Gaussian(R) 03 system (copyright 2003, Gaussian, Inc.),
 the Gaussian(R) 98 system (copyright 1998, Gaussian, Inc.),
 the Gaussian(R) 94 system (copyright 1995, Gaussian, Inc.),
 the Gaussian 92(TM) system (copyright 1992, Gaussian, Inc.),
 the Gaussian 90(TM) system (copyright 1990, Gaussian, Inc.),
 the Gaussian 88(TM) system (copyright 1988, Gaussian, Inc.),
 the Gaussian 86(TM) system (copyright 1986, Carnegie Mellon
 University), and the Gaussian 82(TM) system (copyright 1983,
 Carnegie Mellon University). Gaussian is a federally registered
 trademark of Gaussian, Inc.
  
 This software contains proprietary and confidential information,
 including trade secrets, belonging to Gaussian, Inc.
  
 This software is provided under written license and may be
 used, copied, transmitted, or stored only in accord with that
 written license.
  
 The following legend is applicable only to US Government
 contracts under FAR:
  
                    RESTRICTED RIGHTS LEGEND
  
 Use, reproduction and disclosure by the US Government is
 subject to restrictions as set forth in subparagraphs (a)
 and (c) of the Commercial Computer Software - Restricted
 Rights clause in FAR 52.227-19.
  
 Gaussian, Inc.
 340 Quinnipiac St., Bldg. 40, Wallingford CT 06492
  
  
 ---------------------------------------------------------------
 Warning -- This program may not be used in any manner that
 competes with the business of Gaussian, Inc. or will provide
 assistance to any competitor of Gaussian, Inc.  The licensee
 of this program is prohibited from giving any competitor of
 Gaussian, Inc. access to this program.  By using this program,
 the user acknowledges that Gaussian, Inc. is engaged in the
 business of creating and licensing software in the field of
 computational chemistry and represents and warrants to the
 licensee that it is not a competitor of Gaussian, Inc. and that
 it will not use this program in any manner prohibited above.
 ---------------------------------------------------------------
  

 Cite this work as:
 Gaussian 16, Revision C.01,
 M. J. Frisch, G. W. Trucks, H. B. Schlegel, G. E. Scuseria, 
 M. A. Robb, J. R. Cheeseman, G. Scalmani, V. Barone, 
 G. A. Petersson, H. Nakatsuji, X. Li, M. Caricato, A. V. Marenich, 
 J. Bloino, B. G. Janesko, R. Gomperts, B. Mennucci, H. P. Hratchian, 
 J. V. Ortiz, A. F. Izmaylov, J. L. Sonnenberg, D. Williams-Young, 
 F. Ding, F. Lipparini, F. Egidi, J. Goings, B. Peng, A. Petrone, 
 T. Henderson, D. Ranasinghe, V. G. Zakrzewski, J. Gao, N. Rega, 
 G. Zheng, W. Liang, M. Hada, M. Ehara, K. Toyota, R. Fukuda, 
 J. Hasegawa, M. Ishida, T. Nakajima, Y. Honda, O. Kitao, H. Nakai, 
 T. Vreven, K. Throssell, J. A. Montgomery, Jr., J. E. Peralta, 
 F. Ogliaro, M. J. Bearpark, J. J. Heyd, E. N. Brothers, K. N. Kudin, 
 V. N. Staroverov, T. A. Keith, R. Kobayashi, J. Normand, 
 K. Raghavachari, A. P. Rendell, J. C. Burant, S. S. Iyengar, 
 J. Tomasi, M. Cossi, J. M. Millam, M. Klene, C. Adamo, R. Cammi, 
 J. W. Ochterski, R. L. Martin, K. Morokuma, O. Farkas, 
 J. B. Foresman, and D. J. Fox, Gaussian, Inc., Wallingford CT, 2019.
 
 ******************************************
 Gaussian 16:  ES64L-G16RevC.01  3-Jul-2019
                18-Nov-2024 
 ******************************************
 %LindaWorkers=c2-37-ib
 %NProcShared=4
 Will use up to    4 processors via shared memory.
 %mem=25GB
 %chk=mol56.chk
 SetLPE:    new flags="-opt 'Tsnet.Node.lindarsharg: ssh'  -nodelist 'c2-37-ib.saga' -env GAUSS_MDEF=3355443200 -env GAUSS_EXEDIR="/cluster/software/Gaussian/g16_C.01/bsd:/cluster/software/Gaussian/g16_C.01""
 Will use up to    1 processors via Linda.
 -----------------------------------------------------------------
 #RHF/6-31G* int=nobasistransform Symmetry=None 5D 7F Pop=NBO7Read
 -----------------------------------------------------------------
 1/38=1,163=2,172=1/1;
 2/12=2,15=3,17=6,18=5,40=1/2;
 3/5=1,6=6,7=1,8=11,11=1,25=1,30=1,60=-1,116=1/1,2,3;
 4//1;
 5/5=2,38=5/2;
 6/7=2,8=2,9=2,10=2,28=1,40=2,113=1,114=1,124=2103/1,12;
 99/5=1,9=1/99;
 ---------
 mol56-NBO
 ---------
 Symbolic Z-matrix:
 Charge =  0 Multiplicity = 1
 B                     0.        0.        0. 
 Cl                    0.        1.73535   0. 
 Cl                    1.50286  -0.86768   0. 
 Cl                   -1.50286  -0.86768   0. 
 
                          Input orientation:                          
 ---------------------------------------------------------------------
 Center     Atomic      Atomic             Coordinates (Angstroms)
 Number     Number       Type             X           Y           Z
 ---------------------------------------------------------------------
      1          5           0        0.000000    0.000000    0.000000
      2         17           0        0.000000    1.735352    0.000000
      3         17           0        1.502859   -0.867676    0.000000
      4         17           0       -1.502859   -0.867676    0.000000
 ---------------------------------------------------------------------
                    Distance matrix (angstroms):
                    1          2          3          4
     1  B    0.000000
     2  Cl   1.735352   0.000000
     3  Cl   1.735352   3.005718   0.000000
     4  Cl   1.735352   3.005718   3.005718   0.000000
 Symmetry turned off by external request.
 Stoichiometry    BCl3
 Rotational constants (GHZ):           3.1994063           3.1994059           1.5997031
 Standard basis: 6-31G(d) (5D, 7F)
    68 basis functions,   184 primitive gaussians,    72 cartesian basis functions
    28 alpha electrons       28 beta electrons
       nuclear repulsion energy       230.4008307040 Hartrees.
 NAtoms=    4 NActive=    4 NUniq=    4 SFac= 1.00D+00 NAtFMM=   60 NAOKFM=F Big=F
 Integral buffers will be    131072 words long.
 Raffenetti 1 integral format.
 Two-electron integral symmetry is turned off.
 One-electron integrals computed using PRISM.
 NBasis=    68 RedAO= T EigKep=  1.02D-02  NBF=    68
 NBsUse=    68 1.00D-06 EigRej= -1.00D+00 NBFU=    68
 ExpMin= 1.27D-01 ExpMax= 2.52D+04 ExpMxC= 3.78D+03 IAcc=3 IRadAn=         5 AccDes= 0.00D+00
 Harris functional with IExCor=  205 and IRadAn=       5 diagonalized for initial guess.
 HarFok:  IExCor=  205 AccDes= 0.00D+00 IRadAn=         5 IDoV= 1 UseB2=F ITyADJ=14
 ICtDFT=  3500011 ScaDFX=  1.000000  1.000000  1.000000  1.000000
 FoFCou: FMM=F IPFlag=           0 FMFlag=      100000 FMFlg1=           0
         NFxFlg=           0 DoJE=T BraDBF=F KetDBF=T FulRan=T
         wScrn=  0.000000 ICntrl=       500 IOpCl=  0 I1Cent=   200000004 NGrid=           0
         NMat0=    1 NMatS0=      1 NMatT0=    0 NMatD0=    1 NMtDS0=    0 NMtDT0=    0
 Symmetry not used in FoFCou.
 Keep R1 ints in memory in canonical form, NReq=3600197.
 Requested convergence on RMS density matrix=1.00D-08 within 128 cycles.
 Requested convergence on MAX density matrix=1.00D-06.
 Requested convergence on             energy=1.00D-06.
 No special actions if energy rises.
 SCF Done:  E(RHF) =  -1403.24899698     A.U. after   10 cycles
            NFock= 10  Conv=0.59D-08     -V/T= 1.9996

 **********************************************************************

            Population analysis using the SCF Density.

 **********************************************************************

 Alpha  occ. eigenvalues -- -104.84391-104.84391-104.84388 -10.58583 -10.58583
 Alpha  occ. eigenvalues --  -10.58580  -8.05391  -8.05391  -8.05391  -8.05153
 Alpha  occ. eigenvalues --   -8.05153  -8.05152  -8.05106  -8.05106  -8.05106
 Alpha  occ. eigenvalues --   -7.77231  -1.18858  -1.12503  -1.12503  -0.71042
 Alpha  occ. eigenvalues --   -0.61700  -0.61700  -0.56029  -0.49584  -0.49584
 Alpha  occ. eigenvalues --   -0.48547  -0.48547  -0.45967
 Alpha virt. eigenvalues --    0.07782   0.20289   0.26129   0.26129   0.44055
 Alpha virt. eigenvalues --    0.52365   0.52365   0.55570   0.56352   0.56352
 Alpha virt. eigenvalues --    0.60521   0.62708   0.62708   0.64209   0.64209
 Alpha virt. eigenvalues --    0.69475   0.69803   0.81101   0.87777   0.87777
 Alpha virt. eigenvalues --    0.93960   0.93960   1.11612   1.11729   1.11729
 Alpha virt. eigenvalues --    1.11810   1.11810   1.14260   1.14557   1.24485
 Alpha virt. eigenvalues --    1.24485   1.26093   1.33085   1.50743   1.50743
 Alpha virt. eigenvalues --    1.70912   1.70912   1.99054   2.14683   2.14683
          Condensed to atoms (all electrons):
               1          2          3          4
     1  B    3.672918   0.348691   0.348691   0.348691
     2  Cl   0.348691  16.914430  -0.084726  -0.084726
     3  Cl   0.348691  -0.084726  16.914430  -0.084726
     4  Cl   0.348691  -0.084726  -0.084726  16.914430
 Mulliken charges:
               1
     1  B    0.281008
     2  Cl  -0.093669
     3  Cl  -0.093669
     4  Cl  -0.093669
 Sum of Mulliken charges =  -0.00000
 Mulliken charges with hydrogens summed into heavy atoms:
               1
     1  B    0.281008
     2  Cl  -0.093669
     3  Cl  -0.093669
     4  Cl  -0.093669
 Electronic spatial extent (au):  <R**2>=            646.5664
 Charge=             -0.0000 electrons
 Dipole moment (field-independent basis, Debye):
    X=             -0.0000    Y=              0.0000    Z=             -0.0000  Tot=              0.0000
 Quadrupole moment (field-independent basis, Debye-Ang):
   XX=            -44.7527   YY=            -44.7527   ZZ=            -42.4543
   XY=              0.0000   XZ=              0.0000   YZ=              0.0000
 Traceless Quadrupole moment (field-independent basis, Debye-Ang):
   XX=             -0.7661   YY=             -0.7661   ZZ=              1.5323
   XY=              0.0000   XZ=              0.0000   YZ=              0.0000
 Octapole moment (field-independent basis, Debye-Ang**2):
  XXX=             -0.0000  YYY=              2.3548  ZZZ=              0.0000  XYY=             -0.0000
  XXY=             -2.3548  XXZ=             -0.0000  XZZ=             -0.0000  YZZ=              0.0000
  YYZ=             -0.0000  XYZ=              0.0000
 Hexadecapole moment (field-independent basis, Debye-Ang**3):
 XXXX=           -376.6274 YYYY=           -376.6274 ZZZZ=            -47.3858 XXXY=              0.0000
 XXXZ=             -0.0000 YYYX=              0.0000 YYYZ=              0.0000 ZZZX=             -0.0000
 ZZZY=              0.0000 XXYY=           -125.5425 XXZZ=            -73.7811 YYZZ=            -73.7811
 XXYZ=              0.0000 YYXZ=              0.0000 ZZXY=              0.0000
 N-N= 2.304008307040D+02 E-N=-3.801254781502D+03  KE= 1.403748347124D+03
 Running external command "gaunbo7 R"
         input file       "/cluster/work/users/beto93/mol56/Gau-736634.EIn"
         output file      "/cluster/work/users/beto93/mol56/Gau-736634.EOu"
         message file     "/cluster/work/users/beto93/mol56/Gau-736634.EMs"
         fchk file        "/cluster/work/users/beto93/mol56/Gau-736634.EFC"
         mat. el file     "/cluster/work/users/beto93/mol56/Gau-736634.EUF"

 Writing WrtUnf unformatted file "/cluster/work/users/beto93/mol56/Gau-736634.EUF"
 Gaussian matrix elements                                         Version   2 NLab=11 Len12L=8 Len4L=8
 Write SHELL TO ATOM MAP                   from file      0 offset           0 length                  19 to matrix element file.
 Write SHELL TYPES                         from file      0 offset           0 length                  19 to matrix element file.
 Write NUMBER OF PRIMITIVES PER SHELL      from file      0 offset           0 length                  19 to matrix element file.
 Write PRIMITIVE EXPONENTS                 from file      0 offset           0 length                  62 to matrix element file.
 Write CONTRACTION COEFFICIENTS            from file      0 offset           0 length                  62 to matrix element file.
 Write P(S=P) CONTRACTION COEFFICIENTS     from file      0 offset           0 length                  62 to matrix element file.
 Write COORDINATES OF EACH SHELL           from file      0 offset           0 length                  57 to matrix element file.
 Write BONDS PER ATOM                      from file      0 offset           0 length                   4 to matrix element file.
 Write BONDED ATOMS                        from file      0 offset           0 length                   6 to matrix element file.
 Write BOND TYPES                          from file      0 offset           0 length                   6 to matrix element file.
 Write ONIOM CHARGE/MULT                   from file      0 offset           0 length                  32 to matrix element file.
 Write ONIOM ATOM LAYERS                   from file      0 offset           0 length                   4 to matrix element file.
 Write ONIOM ATOM MODIFIERS                from file      0 offset           0 length                   4 to matrix element file.
 Write ONIOM ATOM TYPES                    from file      0 offset           0 length                   4 to matrix element file.
 Write ONIOM LINK ATOMS                    from file      0 offset           0 length                   4 to matrix element file.
 Write ONIOM LINK CHARGES                  from file      0 offset           0 length                   4 to matrix element file.
 Write ONIOM LINK DISTANCES                from file      0 offset           0 length                  16 to matrix element file.
 Write SYMINF INTS                         from file      0 offset           0 length                  26 to matrix element file.
 Write ROTTR TO SO                         from file      0 offset           0 length                  12 to matrix element file.
 Write GAUSSIAN SCALARS                    from file    501 offset           0 to matrix element file.
 Write OPTIMIZATION FLAGS                  from file      0 offset           0 length                   4 to matrix element file.
 Write INTEGER ISO                         from file      0 offset           0 length                   4 to matrix element file.
 Write INTEGER SPIN                        from file      0 offset           0 length                   4 to matrix element file.
 Write REAL ZEFFECTIVE                     from file      0 offset           0 length                   4 to matrix element file.
 Write REAL QUADRUPOLEMOMENT               from file      0 offset           0 length                   4 to matrix element file.
 Write REAL GFACTOR                        from file      0 offset           0 length                   4 to matrix element file.
 Write REAL ZNUCLEAR                       from file      0 offset           0 length                   4 to matrix element file.
 Write MULLIKEN CHARGES                    from file      0 offset           0 length                   4 to matrix element file.
 Write NUCLEAR GRADIENT                    from file  10584 offset           0 length                  12 to matrix element file.
 Array NUCLEAR FORCE CONSTANTS              on  file  10585 does not exist.
 Write ELECTRIC DIPOLE MOMENT              from file      0 offset           0 length                   3 to matrix element file.
 Write NON-ADIABATIC COUPLING              from file  10810 offset           0 length                  12 to matrix element file.
 Write FINITE EM FIELD                     from file  10521 offset           0 length                  35 to matrix element file.
 Write OVERLAP                             from file  10514 offset           0 length                2346 to matrix element file.
 Write CORE HAMILTONIAN ALPHA              from file  10515 offset           0 length                2346 to matrix element file.
 Write CORE HAMILTONIAN BETA               from file  10515 offset        2346 length                2346 to matrix element file.
 Write KINETIC ENERGY                      from file  10516 offset           0 length                2346 to matrix element file.
 Write ORTHOGONAL BASIS                    from file  10685 offset           0 length                4624 to matrix element file.
 Write DIPOLE INTEGRALS                    from file  10518 offset           0 length                7038 to matrix element file.
 Array DIP VEL INTEGRALS                    on  file  10572 does not exist.
 Array R X DEL INTEGRALS                    on  file  10572 does not exist.
 Write ALPHA ORBITAL ENERGIES              from file      0 offset           0 length                  68 to matrix element file.
 Write ALPHA MO COEFFICIENTS               from file  10524 offset           0 length                4624 to matrix element file.
 Write ALPHA DENSITY MATRIX                from file      0 offset           0 length                2346 to matrix element file.
 Write ALPHA FOCK MATRIX                   from file  10536 offset           0 length                2346 to matrix element file.
 Write ENERGY-WEIGHTED DENSITY             from file  10571 offset           0 length                2346 to matrix element file.
 Write ALPHA SCF DENSITY MATRIX            from file      0 offset           0 length                2346 to matrix element file.
 No 2e integrals to process.
 Perform NBO analysis...executing G16NBO...

 *********************************** NBO 7.0 ***********************************
             N A T U R A L   A T O M I C   O R B I T A L   A N D
          N A T U R A L   B O N D   O R B I T A L   A N A L Y S I S
 **************************** Espen Tangen (S101595) ***************************
  (c) Copyright 1996-2021 Board of Regents of the University of Wisconsin System
      on behalf of the Theoretical Chemistry Institute.  All rights reserved.

          Cite this program [NBO 7.0.10 (8-Feb-2021)] as:

          NBO 7.0.  E. D. Glendening, J. K. Badenhoop, A. E. Reed,
          J. E. Carpenter, J. A. Bohmann, C. M. Morales, P. Karafiloglou,
          C. R. Landis, and F. Weinhold, Theoretical Chemistry Institute,
          University of Wisconsin, Madison, WI (2018)

       /NPA    / : Natural Population Analysis
       /AOPNAO / : Print the AO to PNAO transformation
       /AONAO  / : Print the AO to NAO transformation
       /AOMO   / : Print the MOs in the AO basis
       /BOAO   / : Print the AO bond-order matrix
       /DMAO   / : Print the AO density matrix
       /DMPNAO / : Print the PNAO density matrix
       /DMNAO  / : Print the NAO density matrix
       /DMMO   / : Print the MO density matrix
       /SAO    / : Print the AO overlap matrix
       /SPNAO  / : Print the PNAO overlap matrix
       /DETAIL / : Write details of NBO search
       /ARCHIVE/ : Write the archive file to lfn47
       /AOINFO / : Write AO information to lfn31
       /FILE   / : Set to mol56.gen*

 Filename set to mol56.gen1

 Job title: mol56-NBO


 MOs in the AO basis:

           AO          1       2       3       4       5       6       7       8
      ------------ ------- ------- ------- ------- ------- ------- ------- -------
   1.  B 1 (s)      0.0000  0.0000  0.0000  0.0000  0.0000  0.0001 -0.0021  0.0000
   2.  B 1 (s)      0.0000  0.0000  0.0006  0.0000  0.0000 -0.0014  0.0009  0.0000
   3.  B 1 (px)     0.0000  0.0003  0.0000  0.0000  0.0007  0.0000  0.0000  0.0000
   4.  B 1 (py)     0.0003  0.0000  0.0000 -0.0007  0.0000  0.0000  0.0000  0.0014
   5.  B 1 (pz)     0.0000  0.0000  0.0000  0.0000  0.0000  0.0000  0.0000  0.0000
   6.  B 1 (s)      0.0000  0.0000 -0.0023  0.0000  0.0000  0.0060 -0.0012  0.0000
   7.  B 1 (px)     0.0000 -0.0019  0.0000  0.0000 -0.0048  0.0000  0.0000  0.0000
   8.  B 1 (py)    -0.0019  0.0000  0.0000  0.0048  0.0000  0.0000  0.0000  0.0004
   9.  B 1 (pz)     0.0000  0.0000  0.0000  0.0000  0.0000  0.0000  0.0000  0.0000
  10.  B 1 (d5)     0.0000  0.0000 -0.0002  0.0000  0.0000  0.0004 -0.0011  0.0000
  11.  B 1 (d2)     0.0000  0.0000  0.0000  0.0000  0.0000  0.0000  0.0000  0.0000
  12.  B 1 (d3)     0.0000  0.0000  0.0000  0.0000  0.0000  0.0000  0.0000  0.0000
  13.  B 1 (d4)    -0.0002  0.0000  0.0000  0.0004  0.0000  0.0000  0.0000 -0.0012
  14.  B 1 (d1)     0.0000 -0.0002  0.0000  0.0000 -0.0004  0.0000  0.0000  0.0000
  15. Cl 2 (s)      0.8137  0.0000  0.5753 -0.2342  0.0000 -0.1656 -0.0006 -0.0009
  16. Cl 2 (s)      0.0103  0.0000  0.0073  0.8420  0.0000  0.5952  0.0024  0.0034
  17. Cl 2 (px)     0.0000  0.0000  0.0000  0.0000  0.0000  0.0000  0.0000  0.0000
  18. Cl 2 (py)    -0.0001  0.0000  0.0000 -0.0026  0.0000 -0.0019  0.5742  0.8099
  19. Cl 2 (pz)     0.0000  0.0000  0.0000  0.0000  0.0000  0.0000  0.0000  0.0000
  20. Cl 2 (s)     -0.0036  0.0000 -0.0023  0.0197  0.0000  0.0132 -0.0007 -0.0017
  21. Cl 2 (px)     0.0000  0.0001  0.0000  0.0000  0.0002  0.0000  0.0000  0.0000
  22. Cl 2 (py)     0.0003  0.0000  0.0001 -0.0012  0.0000 -0.0006  0.0132  0.0188
  23. Cl 2 (pz)     0.0000  0.0000  0.0000  0.0000  0.0000  0.0000  0.0000  0.0000
  24. Cl 2 (s)      0.0035  0.0000  0.0017 -0.0097  0.0000 -0.0049 -0.0001  0.0007
  25. Cl 2 (px)     0.0000  0.0002  0.0000  0.0000  0.0004  0.0000  0.0000  0.0000
  26. Cl 2 (py)    -0.0012  0.0000 -0.0004  0.0032  0.0000  0.0012 -0.0029 -0.0048
  27. Cl 2 (pz)     0.0000  0.0000  0.0000  0.0000  0.0000  0.0000  0.0000  0.0000
  28. Cl 2 (d5)     0.0000  0.0000  0.0000  0.0000  0.0000 -0.0001  0.0003  0.0003
  29. Cl 2 (d2)     0.0000  0.0000  0.0000  0.0000  0.0000  0.0000  0.0000  0.0000
  30. Cl 2 (d3)     0.0000  0.0000  0.0000  0.0000  0.0000  0.0000  0.0000  0.0000
  31. Cl 2 (d4)     0.0000  0.0000  0.0000 -0.0002  0.0000 -0.0001  0.0005  0.0007
  32. Cl 2 (d1)     0.0000 -0.0001  0.0000  0.0000 -0.0001  0.0000  0.0000  0.0000
  33. Cl 3 (s)     -0.4068  0.7046  0.5754  0.1171  0.2028 -0.1656 -0.0006  0.0005
  34. Cl 3 (s)     -0.0051  0.0089  0.0073 -0.4209 -0.7291  0.5953  0.0024 -0.0017
  35. Cl 3 (px)     0.0000 -0.0001  0.0000  0.0012  0.0020 -0.0016  0.4960 -0.3519
  36. Cl 3 (py)     0.0000  0.0000  0.0000 -0.0006 -0.0012  0.0009 -0.2864  0.2025
  37. Cl 3 (pz)     0.0000  0.0000  0.0000  0.0000  0.0000  0.0000  0.0000  0.0000
  38. Cl 3 (s)      0.0018 -0.0032 -0.0023 -0.0099 -0.0171  0.0132 -0.0007  0.0008
  39. Cl 3 (px)    -0.0001  0.0002  0.0001  0.0005  0.0010 -0.0005  0.0114 -0.0082
  40. Cl 3 (py)     0.0001 -0.0001  0.0000 -0.0005 -0.0005  0.0003 -0.0066  0.0048
  41. Cl 3 (pz)     0.0000  0.0000  0.0000  0.0000  0.0000  0.0000  0.0000  0.0000
  42. Cl 3 (s)     -0.0017  0.0030  0.0017  0.0049  0.0084 -0.0049 -0.0001 -0.0004
  43. Cl 3 (px)     0.0006 -0.0009 -0.0004 -0.0015 -0.0023  0.0010 -0.0025  0.0018
  44. Cl 3 (py)    -0.0002  0.0006  0.0002  0.0005  0.0015 -0.0006  0.0015 -0.0016
  45. Cl 3 (pz)     0.0000  0.0000  0.0000  0.0000  0.0000  0.0000  0.0000  0.0000
  46. Cl 3 (d5)     0.0000  0.0000  0.0000  0.0000  0.0000 -0.0001  0.0003 -0.0002
  47. Cl 3 (d2)     0.0000  0.0000  0.0000  0.0000  0.0000  0.0000  0.0000  0.0000
  48. Cl 3 (d3)     0.0000  0.0000  0.0000  0.0000  0.0000  0.0000  0.0000  0.0000
  49. Cl 3 (d4)    -0.0001  0.0000  0.0000  0.0000 -0.0001  0.0001 -0.0002  0.0003
  50. Cl 3 (d1)     0.0000  0.0000  0.0000  0.0001  0.0001 -0.0001  0.0004 -0.0002
  51. Cl 4 (s)     -0.4068 -0.7046  0.5754  0.1171 -0.2028 -0.1656 -0.0006  0.0005
  52. Cl 4 (s)     -0.0051 -0.0089  0.0073 -0.4209  0.7291  0.5953  0.0024 -0.0017
  53. Cl 4 (px)     0.0000 -0.0001  0.0000 -0.0012  0.0020  0.0016 -0.4960  0.3519
  54. Cl 4 (py)     0.0000  0.0000  0.0000 -0.0006  0.0012  0.0009 -0.2864  0.2025
  55. Cl 4 (pz)     0.0000  0.0000  0.0000  0.0000  0.0000  0.0000  0.0000  0.0000
  56. Cl 4 (s)      0.0018  0.0032 -0.0023 -0.0099  0.0171  0.0132 -0.0007  0.0008
  57. Cl 4 (px)     0.0001  0.0002 -0.0001 -0.0005  0.0010  0.0005 -0.0114  0.0082
  58. Cl 4 (py)     0.0001  0.0001  0.0000 -0.0005  0.0005  0.0003 -0.0066  0.0048
  59. Cl 4 (pz)     0.0000  0.0000  0.0000  0.0000  0.0000  0.0000  0.0000  0.0000
  60. Cl 4 (s)     -0.0017 -0.0030  0.0017  0.0049 -0.0084 -0.0049 -0.0001 -0.0004
  61. Cl 4 (px)    -0.0006 -0.0009  0.0004  0.0015 -0.0023 -0.0010  0.0025 -0.0018
  62. Cl 4 (py)    -0.0002 -0.0006  0.0002  0.0005 -0.0015 -0.0006  0.0015 -0.0016
  63. Cl 4 (pz)     0.0000  0.0000  0.0000  0.0000  0.0000  0.0000  0.0000  0.0000
  64. Cl 4 (d5)     0.0000  0.0000  0.0000  0.0000  0.0000 -0.0001  0.0003 -0.0002
  65. Cl 4 (d2)     0.0000  0.0000  0.0000  0.0000  0.0000  0.0000  0.0000  0.0000
  66. Cl 4 (d3)     0.0000  0.0000  0.0000  0.0000  0.0000  0.0000  0.0000  0.0000
  67. Cl 4 (d4)    -0.0001  0.0000  0.0000  0.0000  0.0001  0.0001 -0.0002  0.0003
  68. Cl 4 (d1)     0.0000  0.0000  0.0000 -0.0001  0.0001  0.0001 -0.0004  0.0002

           AO          9      10      11      12      13      14      15      16
      ------------ ------- ------- ------- ------- ------- ------- ------- -------
   1.  B 1 (s)      0.0000  0.0000  0.0000  0.0000  0.0000  0.0000  0.0000  0.9964
   2.  B 1 (s)      0.0000  0.0000  0.0000  0.0000  0.0000  0.0000  0.0000  0.0234
   3.  B 1 (px)     0.0014  0.0000  0.0000  0.0000  0.0000 -0.0003  0.0000  0.0000
   4.  B 1 (py)     0.0000  0.0000  0.0000  0.0000  0.0000  0.0000 -0.0003  0.0000
   5.  B 1 (pz)     0.0000  0.0000  0.0000 -0.0005  0.0000  0.0000  0.0000  0.0000
   6.  B 1 (s)      0.0000  0.0000  0.0000  0.0000  0.0000  0.0000  0.0000 -0.0122
   7.  B 1 (px)     0.0004  0.0000  0.0000  0.0000  0.0000 -0.0001  0.0000  0.0000
   8.  B 1 (py)     0.0000  0.0000  0.0000  0.0000  0.0000  0.0000 -0.0001  0.0000
   9.  B 1 (pz)     0.0000  0.0000  0.0000  0.0017  0.0000  0.0000  0.0000  0.0000
  10.  B 1 (d5)     0.0000  0.0000  0.0000  0.0000  0.0000  0.0000  0.0000 -0.0007
  11.  B 1 (d2)     0.0000  0.0000 -0.0004  0.0000  0.0000  0.0000  0.0000  0.0000
  12.  B 1 (d3)     0.0000 -0.0004  0.0000  0.0000  0.0000  0.0000  0.0000  0.0000
  13.  B 1 (d4)     0.0000  0.0000  0.0000  0.0000  0.0000  0.0000 -0.0004  0.0000
  14.  B 1 (d1)    -0.0012  0.0000  0.0000  0.0000  0.0000 -0.0004  0.0000  0.0000
  15. Cl 2 (s)      0.0000  0.0000  0.0000  0.0000  0.0000  0.0000  0.0000  0.0001
  16. Cl 2 (s)      0.0000  0.0000  0.0000  0.0000  0.0000  0.0000  0.0000 -0.0003
  17. Cl 2 (px)    -0.0006  0.0000  0.0000  0.0000  0.5750  0.8102  0.0000  0.0000
  18. Cl 2 (py)     0.0000  0.0000  0.0000  0.0000  0.0000  0.0000  0.0006  0.0014
  19. Cl 2 (pz)     0.0000  0.8115  0.0000  0.5731  0.0000  0.0000  0.0000  0.0000
  20. Cl 2 (s)      0.0000  0.0000  0.0000  0.0000  0.0000  0.0000 -0.0006 -0.0004
  21. Cl 2 (px)     0.0001  0.0000  0.0000  0.0000  0.0120  0.0167  0.0000  0.0000
  22. Cl 2 (py)     0.0000  0.0000  0.0000  0.0000  0.0000  0.0000  0.0001  0.0000
  23. Cl 2 (pz)     0.0000  0.0171  0.0000  0.0120  0.0000  0.0000  0.0000  0.0000
  24. Cl 2 (s)      0.0000  0.0000  0.0000  0.0000  0.0000  0.0000  0.0011  0.0025
  25. Cl 2 (px)    -0.0006  0.0000  0.0000  0.0000 -0.0033 -0.0036  0.0000  0.0000
  26. Cl 2 (py)     0.0000  0.0000  0.0000  0.0000  0.0000  0.0000 -0.0006 -0.0010
  27. Cl 2 (pz)     0.0000 -0.0040  0.0000 -0.0030  0.0000  0.0000  0.0000  0.0000
  28. Cl 2 (d5)     0.0000  0.0000  0.0000  0.0000  0.0000  0.0000 -0.0001  0.0001
  29. Cl 2 (d2)     0.0000  0.0000  0.0000  0.0000  0.0000  0.0000  0.0000  0.0000
  30. Cl 2 (d3)     0.0000 -0.0002  0.0000 -0.0001  0.0000  0.0000  0.0000  0.0000
  31. Cl 2 (d4)     0.0000  0.0000  0.0000  0.0000  0.0000  0.0000  0.0000  0.0001
  32. Cl 2 (d1)     0.0001  0.0000  0.0000  0.0000  0.0000 -0.0003  0.0000  0.0000
  33. Cl 3 (s)     -0.0008  0.0000  0.0000  0.0000  0.0000  0.0000  0.0000  0.0001
  34. Cl 3 (s)      0.0029  0.0000  0.0000  0.0000  0.0000  0.0000  0.0000 -0.0003
  35. Cl 3 (px)     0.6078  0.0000  0.0000  0.0000 -0.2864  0.2037  0.3510  0.0012
  36. Cl 3 (py)    -0.3513  0.0000  0.0000  0.0000 -0.4961  0.3519  0.6085 -0.0007
  37. Cl 3 (pz)     0.0000 -0.4052  0.7024  0.5738  0.0000  0.0000  0.0000  0.0000
  38. Cl 3 (s)     -0.0014  0.0000  0.0000  0.0000  0.0000 -0.0005  0.0003 -0.0004
  39. Cl 3 (px)     0.0142  0.0000  0.0000  0.0000 -0.0060  0.0043  0.0072  0.0000
  40. Cl 3 (py)    -0.0081  0.0000  0.0000  0.0000 -0.0104  0.0072  0.0126  0.0000
  41. Cl 3 (pz)     0.0000 -0.0085  0.0148  0.0120  0.0000  0.0000  0.0000  0.0000
  42. Cl 3 (s)      0.0006  0.0000  0.0000  0.0000  0.0000  0.0010 -0.0006  0.0025
  43. Cl 3 (px)    -0.0037  0.0000  0.0000  0.0000  0.0017 -0.0014 -0.0013 -0.0009
  44. Cl 3 (py)     0.0018  0.0000  0.0000  0.0000  0.0029 -0.0013 -0.0029  0.0005
  45. Cl 3 (pz)     0.0000  0.0020 -0.0035 -0.0030  0.0000  0.0000  0.0000  0.0000
  46. Cl 3 (d5)     0.0003  0.0000  0.0000  0.0000  0.0000  0.0000  0.0000  0.0001
  47. Cl 3 (d2)     0.0000  0.0001 -0.0002 -0.0001  0.0000  0.0000  0.0000  0.0000
  48. Cl 3 (d3)     0.0000  0.0000  0.0001  0.0001  0.0000  0.0000  0.0000  0.0000
  49. Cl 3 (d4)    -0.0002  0.0000  0.0000  0.0000  0.0000 -0.0002 -0.0002 -0.0001
  50. Cl 3 (d1)     0.0006  0.0000  0.0000  0.0000  0.0000 -0.0001 -0.0002  0.0001
  51. Cl 4 (s)      0.0008  0.0000  0.0000  0.0000  0.0000  0.0000  0.0000  0.0001
  52. Cl 4 (s)     -0.0029  0.0000  0.0000  0.0000  0.0000  0.0000  0.0000 -0.0003
  53. Cl 4 (px)     0.6078  0.0000  0.0000  0.0000 -0.2864  0.2037 -0.3510 -0.0012
  54. Cl 4 (py)     0.3513  0.0000  0.0000  0.0000  0.4961 -0.3519  0.6085 -0.0007
  55. Cl 4 (pz)     0.0000 -0.4052 -0.7024  0.5738  0.0000  0.0000  0.0000  0.0000
  56. Cl 4 (s)      0.0014  0.0000  0.0000  0.0000  0.0000  0.0005  0.0003 -0.0004
  57. Cl 4 (px)     0.0142  0.0000  0.0000  0.0000 -0.0060  0.0043 -0.0072  0.0000
  58. Cl 4 (py)     0.0081  0.0000  0.0000  0.0000  0.0104 -0.0072  0.0126  0.0000
  59. Cl 4 (pz)     0.0000 -0.0085 -0.0148  0.0120  0.0000  0.0000  0.0000  0.0000
  60. Cl 4 (s)     -0.0006  0.0000  0.0000  0.0000  0.0000 -0.0010 -0.0006  0.0025
  61. Cl 4 (px)    -0.0037  0.0000  0.0000  0.0000  0.0017 -0.0014  0.0013  0.0009
  62. Cl 4 (py)    -0.0018  0.0000  0.0000  0.0000 -0.0029  0.0013 -0.0029  0.0005
  63. Cl 4 (pz)     0.0000  0.0020  0.0035 -0.0030  0.0000  0.0000  0.0000  0.0000
  64. Cl 4 (d5)    -0.0003  0.0000  0.0000  0.0000  0.0000  0.0000  0.0000  0.0001
  65. Cl 4 (d2)     0.0000 -0.0001 -0.0002  0.0001  0.0000  0.0000  0.0000  0.0000
  66. Cl 4 (d3)     0.0000  0.0000 -0.0001  0.0001  0.0000  0.0000  0.0000  0.0000
  67. Cl 4 (d4)     0.0002  0.0000  0.0000  0.0000  0.0000  0.0002 -0.0002 -0.0001
  68. Cl 4 (d1)     0.0006  0.0000  0.0000  0.0000  0.0000 -0.0001  0.0002 -0.0001

           AO         17      18      19      20      21      22      23      24
      ------------ ------- ------- ------- ------- ------- ------- ------- -------
   1.  B 1 (s)     -0.1031  0.0000  0.0000  0.1459  0.0000  0.0000  0.0000  0.0000
   2.  B 1 (s)      0.1972  0.0000  0.0000 -0.3016  0.0000  0.0000  0.0000  0.0000
   3.  B 1 (px)     0.0000  0.0000  0.1519  0.0000  0.3179  0.0000  0.0000 -0.1246
   4.  B 1 (py)     0.0000  0.1519  0.0000  0.0000  0.0000 -0.3179  0.0000  0.0000
   5.  B 1 (pz)     0.0000  0.0000  0.0000  0.0000  0.0000  0.0000  0.1980  0.0000
   6.  B 1 (s)      0.0496  0.0000  0.0000 -0.2475  0.0000  0.0000  0.0000  0.0000
   7.  B 1 (px)     0.0000  0.0000 -0.0082  0.0000  0.1450  0.0000  0.0000  0.0554
   8.  B 1 (py)     0.0000 -0.0082  0.0000  0.0000  0.0000 -0.1450  0.0000  0.0000
   9.  B 1 (pz)     0.0000  0.0000  0.0000  0.0000  0.0000  0.0000  0.1174  0.0000
  10.  B 1 (d5)    -0.0193  0.0000  0.0000  0.0219  0.0000  0.0000  0.0000  0.0000
  11.  B 1 (d2)     0.0000  0.0000  0.0000  0.0000  0.0000  0.0000  0.0000  0.0000
  12.  B 1 (d3)     0.0000  0.0000  0.0000  0.0000  0.0000  0.0000  0.0000  0.0000
  13.  B 1 (d4)     0.0000 -0.0217  0.0000  0.0000  0.0000  0.0141  0.0000  0.0000
  14.  B 1 (d1)     0.0000  0.0000 -0.0217  0.0000 -0.0141  0.0000  0.0000  0.0499
  15. Cl 2 (s)      0.0421  0.0654  0.0000  0.0202  0.0000  0.0145  0.0000  0.0000
  16. Cl 2 (s)     -0.1917 -0.2990  0.0000 -0.0943  0.0000 -0.0695  0.0000  0.0000
  17. Cl 2 (px)     0.0000  0.0000 -0.0072  0.0000 -0.0995  0.0000  0.0000 -0.1996
  18. Cl 2 (py)     0.0298  0.0242  0.0000 -0.1228  0.0000 -0.1747  0.0000  0.0000
  19. Cl 2 (pz)     0.0000  0.0000  0.0000  0.0000  0.0000  0.0000 -0.1439  0.0000
  20. Cl 2 (s)      0.3780  0.5880  0.0000  0.1895  0.0000  0.1341  0.0000  0.0000
  21. Cl 2 (px)     0.0000  0.0000  0.0170  0.0000  0.2549  0.0000  0.0000  0.5189
  22. Cl 2 (py)    -0.0678 -0.0516  0.0000  0.3078  0.0000  0.4387  0.0000  0.0000
  23. Cl 2 (pz)     0.0000  0.0000  0.0000  0.0000  0.0000  0.0000  0.3707  0.0000
  24. Cl 2 (s)      0.1486  0.2674  0.0000  0.1733  0.0000  0.2046  0.0000  0.0000
  25. Cl 2 (px)     0.0000  0.0000  0.0034  0.0000  0.0969  0.0000  0.0000  0.2776
  26. Cl 2 (py)    -0.0105 -0.0183  0.0000  0.0818  0.0000  0.1258  0.0000  0.0000
  27. Cl 2 (pz)     0.0000  0.0000  0.0000  0.0000  0.0000  0.0000  0.1732  0.0000
  28. Cl 2 (d5)    -0.0077 -0.0066  0.0000  0.0146  0.0000  0.0179  0.0000  0.0000
  29. Cl 2 (d2)     0.0000  0.0000  0.0000  0.0000  0.0000  0.0000  0.0000  0.0000
  30. Cl 2 (d3)     0.0000  0.0000  0.0000  0.0000  0.0000  0.0000 -0.0229  0.0000
  31. Cl 2 (d4)    -0.0137 -0.0127  0.0000  0.0268  0.0000  0.0313  0.0000  0.0000
  32. Cl 2 (d1)     0.0000  0.0000 -0.0038  0.0000 -0.0186  0.0000  0.0000 -0.0108
  33. Cl 3 (s)      0.0421 -0.0327  0.0566  0.0202 -0.0126 -0.0073  0.0000  0.0002
  34. Cl 3 (s)     -0.1917  0.1495 -0.2590 -0.0943  0.0601  0.0347  0.0000 -0.0017
  35. Cl 3 (px)     0.0258 -0.0136  0.0164 -0.1063  0.1062  0.1188  0.0000 -0.1376
  36. Cl 3 (py)    -0.0149  0.0007 -0.0136  0.0614 -0.1188  0.0310  0.0000 -0.0358
  37. Cl 3 (pz)     0.0000  0.0000  0.0000  0.0000  0.0000  0.0000 -0.1439  0.0000
  38. Cl 3 (s)      0.3780 -0.2940  0.5093  0.1895 -0.1162 -0.0671  0.0000  0.0017
  39. Cl 3 (px)    -0.0587  0.0297 -0.0344  0.2666 -0.2653 -0.3003  0.0000  0.3560
  40. Cl 3 (py)     0.0339 -0.0001  0.0297 -0.1539  0.3003 -0.0815  0.0000  0.0941
  41. Cl 3 (pz)     0.0000  0.0000  0.0000  0.0000  0.0000  0.0000  0.3707  0.0000
  42. Cl 3 (s)      0.1486 -0.1337  0.2316  0.1733 -0.1772 -0.1023  0.0000 -0.0187
  43. Cl 3 (px)    -0.0091  0.0094 -0.0129  0.0708 -0.0701 -0.0964  0.0000  0.1882
  44. Cl 3 (py)     0.0053 -0.0020  0.0094 -0.0409  0.0964 -0.0412  0.0000  0.0516
  45. Cl 3 (pz)     0.0000  0.0000  0.0000  0.0000  0.0000  0.0000  0.1732  0.0000
  46. Cl 3 (d5)    -0.0077  0.0033 -0.0057  0.0146 -0.0155 -0.0089  0.0000  0.0065
  47. Cl 3 (d2)     0.0000  0.0000  0.0000  0.0000  0.0000  0.0000 -0.0199  0.0000
  48. Cl 3 (d3)     0.0000  0.0000  0.0000  0.0000  0.0000  0.0000  0.0115  0.0000
  49. Cl 3 (d4)     0.0068 -0.0061  0.0039 -0.0134  0.0055  0.0218  0.0000 -0.0136
  50. Cl 3 (d1)    -0.0119  0.0039 -0.0105  0.0232 -0.0281 -0.0055  0.0000  0.0127
  51. Cl 4 (s)      0.0421 -0.0327 -0.0566  0.0202  0.0126 -0.0073  0.0000 -0.0002
  52. Cl 4 (s)     -0.1917  0.1495  0.2590 -0.0943 -0.0601  0.0347  0.0000  0.0017
  53. Cl 4 (px)    -0.0258  0.0136  0.0164  0.1063  0.1062 -0.1187  0.0000 -0.1376
  54. Cl 4 (py)    -0.0149  0.0007  0.0136  0.0614  0.1187  0.0310  0.0000  0.0358
  55. Cl 4 (pz)     0.0000  0.0000  0.0000  0.0000  0.0000  0.0000 -0.1439  0.0000
  56. Cl 4 (s)      0.3780 -0.2940 -0.5093  0.1895  0.1162 -0.0671  0.0000 -0.0017
  57. Cl 4 (px)     0.0587 -0.0297 -0.0344 -0.2666 -0.2653  0.3003  0.0000  0.3560
  58. Cl 4 (py)     0.0339 -0.0001 -0.0297 -0.1539 -0.3003 -0.0815  0.0000 -0.0941
  59. Cl 4 (pz)     0.0000  0.0000  0.0000  0.0000  0.0000  0.0000  0.3707  0.0000
  60. Cl 4 (s)      0.1486 -0.1337 -0.2316  0.1733  0.1772 -0.1023  0.0000  0.0187
  61. Cl 4 (px)     0.0091 -0.0094 -0.0129 -0.0708 -0.0701  0.0964  0.0000  0.1882
  62. Cl 4 (py)     0.0053 -0.0020 -0.0094 -0.0409 -0.0964 -0.0412  0.0000 -0.0516
  63. Cl 4 (pz)     0.0000  0.0000  0.0000  0.0000  0.0000  0.0000  0.1732  0.0000
  64. Cl 4 (d5)    -0.0077  0.0033  0.0057  0.0146  0.0155 -0.0089  0.0000 -0.0065
  65. Cl 4 (d2)     0.0000  0.0000  0.0000  0.0000  0.0000  0.0000  0.0199  0.0000
  66. Cl 4 (d3)     0.0000  0.0000  0.0000  0.0000  0.0000  0.0000  0.0115  0.0000
  67. Cl 4 (d4)     0.0068 -0.0061 -0.0039 -0.0134 -0.0055  0.0218  0.0000  0.0136
  68. Cl 4 (d1)     0.0119 -0.0039 -0.0105 -0.0232 -0.0281  0.0055  0.0000  0.0127

           AO         25      26      27      28      29      30      31      32
      ------------ ------- ------- ------- ------- ------- ------- ------- -------
   1.  B 1 (s)      0.0000  0.0000  0.0000  0.0000  0.0000 -0.1984  0.0000  0.0000
   2.  B 1 (s)      0.0000  0.0000  0.0000  0.0000  0.0000  0.1924  0.0000  0.0000
   3.  B 1 (px)     0.0000  0.0000  0.0000  0.0000  0.0000  0.0000  0.4792  0.0000
   4.  B 1 (py)    -0.1246  0.0000  0.0000  0.0000  0.0000  0.0000  0.0000  0.4792
   5.  B 1 (pz)     0.0000  0.0000  0.0000  0.0000  0.4762  0.0000  0.0000  0.0000
   6.  B 1 (s)      0.0000  0.0000  0.0000  0.0000  0.0000  2.8490  0.0000  0.0000
   7.  B 1 (px)     0.0000  0.0000  0.0000  0.0000  0.0000  0.0000  2.4174  0.0000
   8.  B 1 (py)     0.0554  0.0000  0.0000  0.0000  0.0000  0.0000  0.0000  2.4174
   9.  B 1 (pz)     0.0000  0.0000  0.0000  0.0000  0.8322  0.0000  0.0000  0.0000
  10.  B 1 (d5)     0.0000  0.0000  0.0000  0.0000  0.0000  0.0128  0.0000  0.0000
  11.  B 1 (d2)     0.0000  0.0000  0.0376  0.0000  0.0000  0.0000  0.0000  0.0000
  12.  B 1 (d3)     0.0000  0.0376  0.0000  0.0000  0.0000  0.0000  0.0000  0.0000
  13.  B 1 (d4)     0.0499  0.0000  0.0000  0.0000  0.0000  0.0000  0.0000  0.0245
  14.  B 1 (d1)     0.0000  0.0000  0.0000  0.0000  0.0000  0.0000  0.0245  0.0000
  15. Cl 2 (s)      0.0003  0.0000  0.0000  0.0000  0.0000 -0.0173  0.0000 -0.0202
  16. Cl 2 (s)     -0.0019  0.0000  0.0000  0.0000  0.0000  0.0889  0.0000  0.1164
  17. Cl 2 (px)     0.0000  0.0000  0.0000 -0.1704  0.0000  0.0000  0.0323  0.0000
  18. Cl 2 (py)    -0.1169  0.0000  0.0000  0.0000  0.0000 -0.0837  0.0000 -0.0620
  19. Cl 2 (pz)     0.0000 -0.2301  0.0000  0.0000  0.0788  0.0000  0.0000  0.0000
  20. Cl 2 (s)      0.0020  0.0000  0.0000  0.0000  0.0000 -0.1538  0.0000 -0.1411
  21. Cl 2 (px)     0.0000  0.0000  0.0000  0.4460  0.0000  0.0000 -0.0690  0.0000
  22. Cl 2 (py)     0.3016  0.0000  0.0000  0.0000  0.0000  0.2094  0.0000  0.1371
  23. Cl 2 (pz)     0.0000  0.5957  0.0000  0.0000 -0.2069  0.0000  0.0000  0.0000
  24. Cl 2 (s)     -0.0215  0.0000  0.0000  0.0000  0.0000 -0.7518  0.0000 -1.7185
  25. Cl 2 (px)     0.0000  0.0000  0.0000  0.2489  0.0000  0.0000 -0.5726  0.0000
  26. Cl 2 (py)     0.1584  0.0000  0.0000  0.0000  0.0000  0.8207  0.0000  1.4015
  27. Cl 2 (pz)     0.0000  0.3395  0.0000  0.0000 -0.3277  0.0000  0.0000  0.0000
  28. Cl 2 (d5)     0.0075  0.0000  0.0000  0.0000  0.0000 -0.0208  0.0000 -0.0490
  29. Cl 2 (d2)     0.0000  0.0000  0.0027  0.0000  0.0000  0.0000  0.0000  0.0000
  30. Cl 2 (d3)     0.0000 -0.0192  0.0000  0.0000 -0.0688  0.0000  0.0000  0.0000
  31. Cl 2 (d4)     0.0206  0.0000  0.0000  0.0000  0.0000 -0.0682  0.0000 -0.0751
  32. Cl 2 (d1)     0.0000  0.0000  0.0000 -0.0061  0.0000  0.0000 -0.1078  0.0000
  33. Cl 3 (s)     -0.0001  0.0000  0.0000  0.0000  0.0000 -0.0173 -0.0175  0.0101
  34. Cl 3 (s)      0.0010  0.0000  0.0000  0.0000  0.0000  0.0889  0.1008 -0.0582
  35. Cl 3 (px)    -0.0358  0.0000  0.0000  0.0852  0.0000 -0.0725 -0.0385  0.0408
  36. Cl 3 (py)    -0.1789  0.0000  0.0000  0.1476  0.0000  0.0418  0.0408  0.0087
  37. Cl 3 (pz)     0.0000  0.1150 -0.1992  0.0000  0.0788  0.0000  0.0000  0.0000
  38. Cl 3 (s)     -0.0010  0.0000  0.0000  0.0000  0.0000 -0.1538 -0.1222  0.0705
  39. Cl 3 (px)     0.0941  0.0000  0.0000 -0.2230  0.0000  0.1813  0.0856 -0.0892
  40. Cl 3 (py)     0.4646  0.0000  0.0000 -0.3863  0.0000 -0.1047 -0.0892 -0.0175
  41. Cl 3 (pz)     0.0000 -0.2978  0.5159  0.0000 -0.2069  0.0000  0.0000  0.0000
  42. Cl 3 (s)      0.0108  0.0000  0.0000  0.0000  0.0000 -0.7518 -1.4883  0.8592
  43. Cl 3 (px)     0.0516  0.0000  0.0000 -0.1245  0.0000  0.7107  0.9080 -0.8548
  44. Cl 3 (py)     0.2478  0.0000  0.0000 -0.2156  0.0000 -0.4103 -0.8548 -0.0791
  45. Cl 3 (pz)     0.0000 -0.1698  0.2940  0.0000 -0.3277  0.0000  0.0000  0.0000
  46. Cl 3 (d5)    -0.0037  0.0000  0.0000  0.0000  0.0000 -0.0208 -0.0424  0.0245
  47. Cl 3 (d2)     0.0000  0.0095 -0.0138  0.0000 -0.0595  0.0000  0.0000  0.0000
  48. Cl 3 (d3)     0.0000 -0.0028  0.0095  0.0000  0.0344  0.0000  0.0000  0.0000
  49. Cl 3 (d4)    -0.0030  0.0000  0.0000  0.0053  0.0000  0.0341 -0.0142 -0.0996
  50. Cl 3 (d1)    -0.0136  0.0000  0.0000  0.0030  0.0000 -0.0591 -0.0833 -0.0142
  51. Cl 4 (s)     -0.0001  0.0000  0.0000  0.0000  0.0000 -0.0173  0.0175  0.0101
  52. Cl 4 (s)      0.0010  0.0000  0.0000  0.0000  0.0000  0.0889 -0.1008 -0.0582
  53. Cl 4 (px)     0.0358  0.0000  0.0000  0.0852  0.0000  0.0725 -0.0385 -0.0408
  54. Cl 4 (py)    -0.1789  0.0000  0.0000 -0.1476  0.0000  0.0418 -0.0408  0.0087
  55. Cl 4 (pz)     0.0000  0.1150  0.1992  0.0000  0.0788  0.0000  0.0000  0.0000
  56. Cl 4 (s)     -0.0010  0.0000  0.0000  0.0000  0.0000 -0.1538  0.1222  0.0705
  57. Cl 4 (px)    -0.0941  0.0000  0.0000 -0.2230  0.0000 -0.1813  0.0856  0.0892
  58. Cl 4 (py)     0.4646  0.0000  0.0000  0.3863  0.0000 -0.1047  0.0892 -0.0175
  59. Cl 4 (pz)     0.0000 -0.2978 -0.5159  0.0000 -0.2069  0.0000  0.0000  0.0000
  60. Cl 4 (s)      0.0108  0.0000  0.0000  0.0000  0.0000 -0.7518  1.4883  0.8592
  61. Cl 4 (px)    -0.0516  0.0000  0.0000 -0.1245  0.0000 -0.7107  0.9080  0.8548
  62. Cl 4 (py)     0.2478  0.0000  0.0000  0.2156  0.0000 -0.4103  0.8548 -0.0791
  63. Cl 4 (pz)     0.0000 -0.1698 -0.2940  0.0000 -0.3277  0.0000  0.0000  0.0000
  64. Cl 4 (d5)    -0.0037  0.0000  0.0000  0.0000  0.0000 -0.0208  0.0424  0.0245
  65. Cl 4 (d2)     0.0000 -0.0095 -0.0138  0.0000  0.0595  0.0000  0.0000  0.0000
  66. Cl 4 (d3)     0.0000 -0.0028 -0.0095  0.0000  0.0344  0.0000  0.0000  0.0000
  67. Cl 4 (d4)    -0.0030  0.0000  0.0000 -0.0053  0.0000  0.0341  0.0142 -0.0996
  68. Cl 4 (d1)     0.0136  0.0000  0.0000  0.0030  0.0000  0.0591 -0.0833  0.0142

           AO         33      34      35      36      37      38      39      40
      ------------ ------- ------- ------- ------- ------- ------- ------- -------
   1.  B 1 (s)      0.0075  0.0000  0.0000  0.0000  0.0000  0.0000  0.0825  0.0000
   2.  B 1 (s)      0.9212  0.0000  0.0000  0.0000  0.0000  0.0000  0.0160  0.0000
   3.  B 1 (px)     0.0000  0.0000 -0.6902  0.0000  0.0000 -0.1475  0.0000 -0.5114
   4.  B 1 (py)     0.0000 -0.6902  0.0000  0.0000 -0.1475  0.0000  0.0000  0.0000
   5.  B 1 (pz)     0.0000  0.0000  0.0000  0.7233  0.0000  0.0000  0.0000  0.0000
   6.  B 1 (s)     -0.0295  0.0000  0.0000  0.0000  0.0000  0.0000  0.4417  0.0000
   7.  B 1 (px)     0.0000  0.0000  1.0763  0.0000  0.0000  1.2003  0.0000  1.3151
   8.  B 1 (py)     0.0000  1.0763  0.0000  0.0000  1.2003  0.0000  0.0000  0.0000
   9.  B 1 (pz)     0.0000  0.0000  0.0000 -0.5170  0.0000  0.0000  0.0000  0.0000
  10.  B 1 (d5)    -0.1159  0.0000  0.0000  0.0000  0.0000  0.0000 -0.1255  0.0000
  11.  B 1 (d2)     0.0000  0.0000  0.0000  0.0000  0.0000  0.0000  0.0000  0.0000
  12.  B 1 (d3)     0.0000  0.0000  0.0000  0.0000  0.0000  0.0000  0.0000  0.0000
  13.  B 1 (d4)     0.0000  0.0991  0.0000  0.0000  0.1567  0.0000  0.0000  0.0000
  14.  B 1 (d1)     0.0000  0.0000  0.0991  0.0000  0.0000  0.1567  0.0000  0.0030
  15. Cl 2 (s)      0.0338 -0.0280  0.0000  0.0000  0.0265  0.0000 -0.0135  0.0000
  16. Cl 2 (s)     -0.0484  0.0299  0.0000  0.0000 -0.0500  0.0000  0.0209  0.0000
  17. Cl 2 (px)     0.0000  0.0000  0.1216  0.0000  0.0000 -0.0827  0.0000 -0.1914
  18. Cl 2 (py)     0.0220 -0.0023  0.0000  0.0000 -0.1575  0.0000  0.1709  0.0000
  19. Cl 2 (pz)     0.0000  0.0000  0.0000 -0.1327  0.0000  0.0000  0.0000  0.0000
  20. Cl 2 (s)      0.7421 -0.6523  0.0000  0.0000  0.5413  0.0000 -0.2974  0.0000
  21. Cl 2 (px)     0.0000  0.0000 -0.4363  0.0000  0.0000  0.3514  0.0000  0.7445
  22. Cl 2 (py)    -0.1144  0.0751  0.0000  0.0000  0.6396  0.0000 -0.6491  0.0000
  23. Cl 2 (pz)     0.0000  0.0000  0.0000  0.5126  0.0000  0.0000  0.0000  0.0000
  24. Cl 2 (s)     -0.8403  0.2973  0.0000  0.0000 -1.1429  0.0000  0.2622  0.0000
  25. Cl 2 (px)     0.0000  0.0000  0.0979  0.0000  0.0000 -0.7401  0.0000 -0.9872
  26. Cl 2 (py)     0.3254 -0.2067  0.0000  0.0000 -0.4854  0.0000  0.6996  0.0000
  27. Cl 2 (pz)     0.0000  0.0000  0.0000 -0.4457  0.0000  0.0000  0.0000  0.0000
  28. Cl 2 (d5)    -0.0468  0.1015  0.0000  0.0000  0.0492  0.0000 -0.0047  0.0000
  29. Cl 2 (d2)     0.0000  0.0000  0.0000  0.0000  0.0000  0.0000  0.0000  0.0000
  30. Cl 2 (d3)     0.0000  0.0000  0.0000 -0.0406  0.0000  0.0000  0.0000  0.0000
  31. Cl 2 (d4)    -0.0993  0.1788  0.0000  0.0000  0.0532  0.0000 -0.0019  0.0000
  32. Cl 2 (d1)     0.0000  0.0000 -0.0942  0.0000  0.0000 -0.1672  0.0000 -0.0104
  33. Cl 3 (s)      0.0338  0.0140 -0.0242  0.0000 -0.0132  0.0229 -0.0135 -0.0126
  34. Cl 3 (s)     -0.0484 -0.0150  0.0259  0.0000  0.0250 -0.0433  0.0209  0.0160
  35. Cl 3 (px)     0.0190  0.0536  0.0287  0.0000  0.0324 -0.1388  0.1480  0.0532
  36. Cl 3 (py)    -0.0110  0.0906  0.0536  0.0000 -0.1014  0.0324 -0.0854 -0.1412
  37. Cl 3 (pz)     0.0000  0.0000  0.0000 -0.1327  0.0000  0.0000  0.0000  0.0000
  38. Cl 3 (s)      0.7421  0.3262 -0.5649  0.0000 -0.2706  0.4687 -0.2974 -0.2887
  39. Cl 3 (px)    -0.0991 -0.2214 -0.0527  0.0000 -0.1248  0.5676 -0.5622 -0.1724
  40. Cl 3 (py)     0.0572 -0.3084 -0.2214  0.0000  0.4234 -0.1248  0.3246  0.5293
  41. Cl 3 (pz)     0.0000  0.0000  0.0000  0.5126  0.0000  0.0000  0.0000  0.0000
  42. Cl 3 (s)     -0.8403 -0.1487  0.2575  0.0000  0.5715 -0.9898  0.2622 -0.2269
  43. Cl 3 (px)     0.2818  0.1319 -0.1306  0.0000 -0.1103 -0.5491  0.6059  0.2445
  44. Cl 3 (py)    -0.1627  0.0217  0.1319  0.0000 -0.6764 -0.1103 -0.3498 -0.7111
  45. Cl 3 (pz)     0.0000  0.0000  0.0000 -0.4457  0.0000  0.0000  0.0000  0.0000
  46. Cl 3 (d5)    -0.0468 -0.0507  0.0879  0.0000 -0.0246  0.0426 -0.0047  0.0825
  47. Cl 3 (d2)     0.0000  0.0000  0.0000 -0.0351  0.0000  0.0000  0.0000  0.0000
  48. Cl 3 (d3)     0.0000  0.0000  0.0000  0.0203  0.0000  0.0000  0.0000  0.0000
  49. Cl 3 (d4)     0.0497 -0.0260 -0.1182  0.0000 -0.1121 -0.0954  0.0010 -0.0434
  50. Cl 3 (d1)    -0.0860 -0.1182  0.1105  0.0000 -0.0954 -0.0019 -0.0017  0.0649
  51. Cl 4 (s)      0.0338  0.0140  0.0242  0.0000 -0.0132 -0.0229 -0.0135  0.0126
  52. Cl 4 (s)     -0.0484 -0.0150 -0.0259  0.0000  0.0250  0.0433  0.0209 -0.0160
  53. Cl 4 (px)    -0.0190 -0.0536  0.0287  0.0000 -0.0324 -0.1388 -0.1480  0.0532
  54. Cl 4 (py)    -0.0110  0.0906 -0.0536  0.0000 -0.1014 -0.0324 -0.0854  0.1412
  55. Cl 4 (pz)     0.0000  0.0000  0.0000 -0.1327  0.0000  0.0000  0.0000  0.0000
  56. Cl 4 (s)      0.7421  0.3262  0.5649  0.0000 -0.2706 -0.4688 -0.2974  0.2887
  57. Cl 4 (px)     0.0991  0.2214 -0.0527  0.0000  0.1248  0.5676  0.5622 -0.1724
  58. Cl 4 (py)     0.0572 -0.3084  0.2214  0.0000  0.4234  0.1248  0.3246 -0.5293
  59. Cl 4 (pz)     0.0000  0.0000  0.0000  0.5126  0.0000  0.0000  0.0000  0.0000
  60. Cl 4 (s)     -0.8403 -0.1487 -0.2575  0.0000  0.5715  0.9898  0.2622  0.2269
  61. Cl 4 (px)    -0.2818 -0.1319 -0.1306  0.0000  0.1103 -0.5491 -0.6059  0.2445
  62. Cl 4 (py)    -0.1627  0.0217 -0.1319  0.0000 -0.6764  0.1103 -0.3498  0.7111
  63. Cl 4 (pz)     0.0000  0.0000  0.0000 -0.4457  0.0000  0.0000  0.0000  0.0000
  64. Cl 4 (d5)    -0.0468 -0.0507 -0.0879  0.0000 -0.0246 -0.0426 -0.0047 -0.0825
  65. Cl 4 (d2)     0.0000  0.0000  0.0000  0.0351  0.0000  0.0000  0.0000  0.0000
  66. Cl 4 (d3)     0.0000  0.0000  0.0000  0.0203  0.0000  0.0000  0.0000  0.0000
  67. Cl 4 (d4)     0.0497 -0.0260  0.1182  0.0000 -0.1121  0.0954  0.0010  0.0434
  68. Cl 4 (d1)     0.0860  0.1182  0.1105  0.0000  0.0954 -0.0019  0.0017  0.0649

           AO         41      42      43      44      45      46      47      48
      ------------ ------- ------- ------- ------- ------- ------- ------- -------
   1.  B 1 (s)      0.0000  0.0000  0.0000  0.0000  0.0000 -0.0616  0.0000  0.0000
   2.  B 1 (s)      0.0000  0.0000  0.0000  0.0000  0.0000 -1.9876  0.0000  0.0000
   3.  B 1 (px)     0.0000  0.0000  0.0000  0.0000  0.0000  0.0000 -0.7254  0.0000
   4.  B 1 (py)    -0.5114  0.0000  0.0000  0.0000  0.0000  0.0000  0.0000  0.7254
   5.  B 1 (pz)     0.0000  0.0000  0.0000 -0.9924  0.0000  0.0000  0.0000  0.0000
   6.  B 1 (s)      0.0000  0.0000  0.0000  0.0000  0.0000  6.0634  0.0000  0.0000
   7.  B 1 (px)     0.0000  0.0000  0.0000  0.0000  0.0000  0.0000  3.4691  0.0000
   8.  B 1 (py)     1.3151  0.0000  0.0000  0.0000  0.0000  0.0000  0.0000 -3.4691
   9.  B 1 (pz)     0.0000  0.0000  0.0000  1.6485  0.0000  0.0000  0.0000  0.0000
  10.  B 1 (d5)     0.0000  0.0000  0.0000  0.0000  0.0000  0.0770  0.0000  0.0000
  11.  B 1 (d2)     0.0000  0.0000 -0.0655  0.0000  0.0000  0.0000  0.0000  0.0000
  12.  B 1 (d3)     0.0000 -0.0655  0.0000  0.0000  0.0000  0.0000  0.0000  0.0000
  13.  B 1 (d4)     0.0030  0.0000  0.0000  0.0000  0.0000  0.0000  0.0000  0.1510
  14.  B 1 (d1)     0.0000  0.0000  0.0000  0.0000  0.0000  0.0000 -0.1510  0.0000
  15. Cl 2 (s)     -0.0145  0.0000  0.0000  0.0000  0.0000  0.0273  0.0000 -0.0537
  16. Cl 2 (s)      0.0184  0.0000  0.0000  0.0000  0.0000 -0.0081  0.0000  0.0205
  17. Cl 2 (px)     0.0000  0.0000  0.0000  0.0000  0.1627  0.0000  0.0449  0.0000
  18. Cl 2 (py)     0.1348  0.0000  0.0000  0.0000  0.0000  0.0572  0.0000 -0.1203
  19. Cl 2 (pz)     0.0000  0.2410  0.0000 -0.1070  0.0000  0.0000  0.0000  0.0000
  20. Cl 2 (s)     -0.3334  0.0000  0.0000  0.0000  0.0000  0.7027  0.0000 -1.3804
  21. Cl 2 (px)     0.0000  0.0000  0.0000  0.0000 -0.6675  0.0000 -0.1868  0.0000
  22. Cl 2 (py)    -0.4780  0.0000  0.0000  0.0000  0.0000 -0.1983  0.0000  0.4959
  23. Cl 2 (pz)     0.0000 -0.9532  0.0000  0.4317  0.0000  0.0000  0.0000  0.0000
  24. Cl 2 (s)     -0.2620  0.0000  0.0000  0.0000  0.0000 -2.1521  0.0000  3.7647
  25. Cl 2 (px)     0.0000  0.0000  0.0000  0.0000  0.8817  0.0000 -0.3052  0.0000
  26. Cl 2 (py)     0.6551  0.0000  0.0000  0.0000  0.0000  1.1398  0.0000 -1.9428
  27. Cl 2 (pz)     0.0000  1.0835  0.0000 -0.8164  0.0000  0.0000  0.0000  0.0000
  28. Cl 2 (d5)     0.0952  0.0000  0.0000  0.0000  0.0000  0.1804  0.0000  0.1236
  29. Cl 2 (d2)     0.0000  0.0000  0.0381  0.0000  0.0000  0.0000  0.0000  0.0000
  30. Cl 2 (d3)     0.0000  0.0801  0.0000 -0.0671  0.0000  0.0000  0.0000  0.0000
  31. Cl 2 (d4)     0.0900  0.0000  0.0000  0.0000  0.0000 -0.0118  0.0000 -0.0063
  32. Cl 2 (d1)     0.0000  0.0000  0.0000  0.0000  0.1397  0.0000 -0.1036  0.0000
  33. Cl 3 (s)      0.0073  0.0000  0.0000  0.0000  0.0000  0.0273  0.0465  0.0269
  34. Cl 3 (s)     -0.0092  0.0000  0.0000  0.0000  0.0000 -0.0081 -0.0177 -0.0102
  35. Cl 3 (px)    -0.1412  0.0000  0.0000  0.0000 -0.0813  0.0496  0.1015  0.0326
  36. Cl 3 (py)    -0.1098  0.0000  0.0000  0.0000 -0.1409 -0.0286 -0.0326 -0.0638
  37. Cl 3 (pz)     0.0000 -0.1205  0.2087 -0.1070  0.0000  0.0000  0.0000  0.0000
  38. Cl 3 (s)      0.1667  0.0000  0.0000  0.0000  0.0000  0.7027  1.1955  0.6902
  39. Cl 3 (px)     0.5293  0.0000  0.0000  0.0000  0.3337 -0.1717 -0.4186 -0.1339
  40. Cl 3 (py)     0.4389  0.0000  0.0000  0.0000  0.5780  0.0991  0.1339  0.2640
  41. Cl 3 (pz)     0.0000  0.4766 -0.8255  0.4317  0.0000  0.0000  0.0000  0.0000
  42. Cl 3 (s)      0.1310  0.0000  0.0000  0.0000  0.0000 -2.1521 -3.2603 -1.8824
  43. Cl 3 (px)    -0.7111  0.0000  0.0000  0.0000 -0.4408  0.9871  1.3808  0.9734
  44. Cl 3 (py)    -0.5766  0.0000  0.0000  0.0000 -0.7636 -0.5699 -0.9734 -0.2568
  45. Cl 3 (pz)     0.0000 -0.5417  0.9383 -0.8164  0.0000  0.0000  0.0000  0.0000
  46. Cl 3 (d5)    -0.0476  0.0000  0.0000  0.0000  0.0000  0.1804 -0.1070 -0.0618
  47. Cl 3 (d2)     0.0000 -0.0182  0.0696 -0.0581  0.0000  0.0000  0.0000  0.0000
  48. Cl 3 (d3)     0.0000  0.0486 -0.0182  0.0335  0.0000  0.0000  0.0000  0.0000
  49. Cl 3 (d4)     0.0147  0.0000  0.0000  0.0000 -0.1210  0.0059 -0.0476  0.0761
  50. Cl 3 (d1)    -0.0434  0.0000  0.0000  0.0000 -0.0699 -0.0102 -0.0212  0.0476
  51. Cl 4 (s)      0.0073  0.0000  0.0000  0.0000  0.0000  0.0273 -0.0465  0.0269
  52. Cl 4 (s)     -0.0092  0.0000  0.0000  0.0000  0.0000 -0.0081  0.0177 -0.0102
  53. Cl 4 (px)     0.1412  0.0000  0.0000  0.0000 -0.0813 -0.0496  0.1015 -0.0326
  54. Cl 4 (py)    -0.1098  0.0000  0.0000  0.0000  0.1409 -0.0286  0.0326 -0.0638
  55. Cl 4 (pz)     0.0000 -0.1205 -0.2087 -0.1070  0.0000  0.0000  0.0000  0.0000
  56. Cl 4 (s)      0.1667  0.0000  0.0000  0.0000  0.0000  0.7027 -1.1955  0.6902
  57. Cl 4 (px)    -0.5293  0.0000  0.0000  0.0000  0.3337  0.1717 -0.4186  0.1339
  58. Cl 4 (py)     0.4389  0.0000  0.0000  0.0000 -0.5780  0.0991 -0.1339  0.2640
  59. Cl 4 (pz)     0.0000  0.4766  0.8255  0.4317  0.0000  0.0000  0.0000  0.0000
  60. Cl 4 (s)      0.1310  0.0000  0.0000  0.0000  0.0000 -2.1521  3.2603 -1.8824
  61. Cl 4 (px)     0.7111  0.0000  0.0000  0.0000 -0.4408 -0.9871  1.3808 -0.9734
  62. Cl 4 (py)    -0.5766  0.0000  0.0000  0.0000  0.7636 -0.5699  0.9734 -0.2568
  63. Cl 4 (pz)     0.0000 -0.5417 -0.9383 -0.8164  0.0000  0.0000  0.0000  0.0000
  64. Cl 4 (d5)    -0.0476  0.0000  0.0000  0.0000  0.0000  0.1804  0.1070 -0.0618
  65. Cl 4 (d2)     0.0000  0.0182  0.0696  0.0581  0.0000  0.0000  0.0000  0.0000
  66. Cl 4 (d3)     0.0000  0.0486  0.0182  0.0335  0.0000  0.0000  0.0000  0.0000
  67. Cl 4 (d4)     0.0147  0.0000  0.0000  0.0000  0.1210  0.0059  0.0476  0.0761
  68. Cl 4 (d1)     0.0434  0.0000  0.0000  0.0000 -0.0699  0.0102 -0.0212 -0.0476

           AO         49      50      51      52      53      54      55      56
      ------------ ------- ------- ------- ------- ------- ------- ------- -------
   1.  B 1 (s)      0.0000  0.0000  0.0000  0.0000  0.0000  0.0000  0.0000  0.0000
   2.  B 1 (s)      0.0000  0.0000  0.0000  0.0000  0.0000  0.0000  0.0000  0.0000
   3.  B 1 (px)     0.0000  0.0000  0.0000 -0.2084  0.0000  0.0000  0.0000  0.0000
   4.  B 1 (py)     0.0000  0.0000  0.0000  0.0000 -0.2084  0.0000  0.0000  0.0000
   5.  B 1 (pz)     0.0000  0.0000  0.0000  0.0000  0.0000  0.0000  0.0000  0.0000
   6.  B 1 (s)      0.0000  0.0000  0.0000  0.0000  0.0000  0.0000  0.0000  0.0000
   7.  B 1 (px)     0.0000  0.0000  0.0000  0.8248  0.0000  0.0000  0.0000  0.0000
   8.  B 1 (py)     0.0000  0.0000  0.0000  0.0000  0.8248  0.0000  0.0000  0.0000
   9.  B 1 (pz)     0.0000  0.0000  0.0000  0.0000  0.0000  0.0000  0.0000  0.0000
  10.  B 1 (d5)     0.0000  0.0000  0.0000  0.0000  0.0000  0.0000  0.0000  0.0000
  11.  B 1 (d2)     0.0000  0.4584  0.0000  0.0000  0.0000  0.0084  0.0000  0.0000
  12.  B 1 (d3)    -0.4584  0.0000  0.0000  0.0000  0.0000  0.0000  0.0084  0.0000
  13.  B 1 (d4)     0.0000  0.0000  0.0000  0.0000 -0.1425  0.0000  0.0000  0.0000
  14.  B 1 (d1)     0.0000  0.0000  0.0000 -0.1425  0.0000  0.0000  0.0000  0.0000
  15. Cl 2 (s)      0.0000  0.0000  0.0000  0.0000  0.0043  0.0000  0.0000  0.0000
  16. Cl 2 (s)      0.0000  0.0000  0.0000  0.0000  0.0070  0.0000  0.0000  0.0000
  17. Cl 2 (px)     0.0000  0.0000  0.0000  0.0107  0.0000  0.0000  0.0000 -0.0515
  18. Cl 2 (py)     0.0000  0.0000  0.0000  0.0000 -0.0098  0.0000  0.0000  0.0000
  19. Cl 2 (pz)    -0.0473  0.0000  0.0000  0.0000  0.0000  0.0000 -0.0203  0.0000
  20. Cl 2 (s)      0.0000  0.0000  0.0000  0.0000  0.1365  0.0000  0.0000  0.0000
  21. Cl 2 (px)     0.0000  0.0000  0.0000 -0.0456  0.0000  0.0000  0.0000  0.2158
  22. Cl 2 (py)     0.0000  0.0000  0.0000  0.0000  0.0420  0.0000  0.0000  0.0000
  23. Cl 2 (pz)     0.1612  0.0000  0.0000  0.0000  0.0000  0.0000  0.0820  0.0000
  24. Cl 2 (s)      0.0000  0.0000  0.0000  0.0000 -0.6724  0.0000  0.0000  0.0000
  25. Cl 2 (px)     0.0000  0.0000  0.0000 -0.0732  0.0000  0.0000  0.0000 -0.2971
  26. Cl 2 (py)     0.0000  0.0000  0.0000  0.0000  0.2620  0.0000  0.0000  0.0000
  27. Cl 2 (pz)    -0.0533  0.0000  0.0000  0.0000  0.0000  0.0000 -0.0981  0.0000
  28. Cl 2 (d5)     0.0000  0.0000  0.0000  0.0000  0.6196  0.0000  0.0000  0.0000
  29. Cl 2 (d2)     0.0000  0.1480  0.5774  0.0000  0.0000  0.7956  0.0000  0.0000
  30. Cl 2 (d3)     0.6314  0.0000  0.0000  0.0000  0.0000  0.0000  0.1765  0.0000
  31. Cl 2 (d4)     0.0000  0.0000  0.0000  0.0000 -0.4960  0.0000  0.0000  0.0000
  32. Cl 2 (d1)     0.0000  0.0000  0.0000  0.0550  0.0000  0.0000  0.0000  0.5625
  33. Cl 3 (s)      0.0000  0.0000  0.0000  0.0037 -0.0021  0.0000  0.0000  0.0000
  34. Cl 3 (s)      0.0000  0.0000  0.0000  0.0060 -0.0035  0.0000  0.0000  0.0000
  35. Cl 3 (px)     0.0000  0.0000  0.0000 -0.0047  0.0089  0.0000  0.0000  0.0258
  36. Cl 3 (py)     0.0000  0.0000  0.0000  0.0089  0.0055  0.0000  0.0000  0.0446
  37. Cl 3 (pz)     0.0237  0.0410  0.0000  0.0000  0.0000 -0.0176  0.0101  0.0000
  38. Cl 3 (s)      0.0000  0.0000  0.0000  0.1182 -0.0682  0.0000  0.0000  0.0000
  39. Cl 3 (px)     0.0000  0.0000  0.0000  0.0201 -0.0379  0.0000  0.0000 -0.1079
  40. Cl 3 (py)     0.0000  0.0000  0.0000 -0.0379 -0.0237  0.0000  0.0000 -0.1869
  41. Cl 3 (pz)    -0.0806 -0.1396  0.0000  0.0000  0.0000  0.0710 -0.0410  0.0000
  42. Cl 3 (s)      0.0000  0.0000  0.0000 -0.5823  0.3362  0.0000  0.0000  0.0000
  43. Cl 3 (px)     0.0000  0.0000  0.0000  0.1782 -0.1451  0.0000  0.0000  0.1485
  44. Cl 3 (py)     0.0000  0.0000  0.0000 -0.1451  0.0106  0.0000  0.0000  0.2573
  45. Cl 3 (pz)     0.0266  0.0461  0.0000  0.0000  0.0000 -0.0850  0.0491  0.0000
  46. Cl 3 (d5)     0.0000  0.0000  0.0000  0.5366 -0.3098  0.0000  0.0000  0.0000
  47. Cl 3 (d2)    -0.3375 -0.4365 -0.2887  0.0000  0.0000  0.3312  0.2681  0.0000
  48. Cl 3 (d3)     0.0469  0.3375 -0.5000  0.0000  0.0000  0.2681  0.6408  0.0000
  49. Cl 3 (d4)     0.0000  0.0000  0.0000  0.2386 -0.0828  0.0000  0.0000 -0.4871
  50. Cl 3 (d1)     0.0000  0.0000  0.0000 -0.3583  0.2386  0.0000  0.0000 -0.2812
  51. Cl 4 (s)      0.0000  0.0000  0.0000 -0.0037 -0.0021  0.0000  0.0000  0.0000
  52. Cl 4 (s)      0.0000  0.0000  0.0000 -0.0060 -0.0035  0.0000  0.0000  0.0000
  53. Cl 4 (px)     0.0000  0.0000  0.0000 -0.0047 -0.0089  0.0000  0.0000  0.0258
  54. Cl 4 (py)     0.0000  0.0000  0.0000 -0.0089  0.0055  0.0000  0.0000 -0.0446
  55. Cl 4 (pz)     0.0237 -0.0410  0.0000  0.0000  0.0000  0.0176  0.0101  0.0000
  56. Cl 4 (s)      0.0000  0.0000  0.0000 -0.1182 -0.0682  0.0000  0.0000  0.0000
  57. Cl 4 (px)     0.0000  0.0000  0.0000  0.0201  0.0379  0.0000  0.0000 -0.1079
  58. Cl 4 (py)     0.0000  0.0000  0.0000  0.0379 -0.0237  0.0000  0.0000  0.1869
  59. Cl 4 (pz)    -0.0806  0.1396  0.0000  0.0000  0.0000 -0.0710 -0.0410  0.0000
  60. Cl 4 (s)      0.0000  0.0000  0.0000  0.5823  0.3362  0.0000  0.0000  0.0000
  61. Cl 4 (px)     0.0000  0.0000  0.0000  0.1782  0.1451  0.0000  0.0000  0.1485
  62. Cl 4 (py)     0.0000  0.0000  0.0000  0.1451  0.0106  0.0000  0.0000 -0.2573
  63. Cl 4 (pz)     0.0266 -0.0461  0.0000  0.0000  0.0000  0.0850  0.0491  0.0000
  64. Cl 4 (d5)     0.0000  0.0000  0.0000 -0.5366 -0.3098  0.0000  0.0000  0.0000
  65. Cl 4 (d2)     0.3375 -0.4365 -0.2887  0.0000  0.0000  0.3312 -0.2681  0.0000
  66. Cl 4 (d3)     0.0469 -0.3375  0.5000  0.0000  0.0000 -0.2681  0.6408  0.0000
  67. Cl 4 (d4)     0.0000  0.0000  0.0000 -0.2386 -0.0828  0.0000  0.0000  0.4871
  68. Cl 4 (d1)     0.0000  0.0000  0.0000 -0.3583 -0.2386  0.0000  0.0000 -0.2812

           AO         57      58      59      60      61      62      63      64
      ------------ ------- ------- ------- ------- ------- ------- ------- -------
   1.  B 1 (s)     -0.0299  0.0000  0.0000  0.0000 -0.0473  0.0000  0.0000  0.0000
   2.  B 1 (s)     -0.9318  0.0000  0.0000  0.0000  0.8979  0.0000  0.0000  0.0000
   3.  B 1 (px)     0.0000 -0.5524  0.0000  0.0000  0.0000  0.0000  0.2873  0.0000
   4.  B 1 (py)     0.0000  0.0000 -0.5524  0.0000  0.0000 -0.2873  0.0000  0.0000
   5.  B 1 (pz)     0.0000  0.0000  0.0000  0.0085  0.0000  0.0000  0.0000  0.0000
   6.  B 1 (s)      2.6017  0.0000  0.0000  0.0000 -0.1224  0.0000  0.0000  0.0000
   7.  B 1 (px)     0.0000  2.1044  0.0000  0.0000  0.0000  0.0000  2.4300  0.0000
   8.  B 1 (py)     0.0000  0.0000  2.1044  0.0000  0.0000 -2.4300  0.0000  0.0000
   9.  B 1 (pz)     0.0000  0.0000  0.0000  0.6851  0.0000  0.0000  0.0000  0.0000
  10.  B 1 (d5)    -0.1186  0.0000  0.0000  0.0000  0.3856  0.0000  0.0000  0.0000
  11.  B 1 (d2)     0.0000  0.0000  0.0000  0.0000  0.0000  0.0000  0.0000  0.9366
  12.  B 1 (d3)     0.0000  0.0000  0.0000  0.0000  0.0000  0.0000  0.0000  0.0000
  13.  B 1 (d4)     0.0000  0.0000 -0.3504  0.0000  0.0000 -0.1124  0.0000  0.0000
  14.  B 1 (d1)     0.0000 -0.3504  0.0000  0.0000  0.0000  0.0000  0.1124  0.0000
  15. Cl 2 (s)      0.0082  0.0000 -0.0114  0.0000  0.0066 -0.0224  0.0000  0.0000
  16. Cl 2 (s)      0.0047  0.0000  0.0331  0.0000 -0.0015 -0.0309  0.0000  0.0000
  17. Cl 2 (px)     0.0000 -0.0340  0.0000  0.0000  0.0000  0.0000  0.0227  0.0000
  18. Cl 2 (py)     0.0066  0.0000 -0.0932  0.0000  0.0278 -0.0076  0.0000  0.0000
  19. Cl 2 (pz)     0.0000  0.0000  0.0000 -0.0238  0.0000  0.0000  0.0000  0.0000
  20. Cl 2 (s)      0.2352  0.0000 -0.2068  0.0000  0.1794 -0.7137  0.0000  0.0000
  21. Cl 2 (px)     0.0000  0.1487  0.0000  0.0000  0.0000  0.0000 -0.0718  0.0000
  22. Cl 2 (py)    -0.0158  0.0000  0.4180  0.0000 -0.1448  0.0735  0.0000  0.0000
  23. Cl 2 (pz)     0.0000  0.0000  0.0000  0.1122  0.0000  0.0000  0.0000  0.0000
  24. Cl 2 (s)     -0.8727  0.0000 -0.9609  0.0000 -0.2134  2.5477  0.0000  0.0000
  25. Cl 2 (px)     0.0000 -0.5958  0.0000  0.0000  0.0000  0.0000 -0.4239  0.0000
  26. Cl 2 (py)     0.4434  0.0000  0.0856  0.0000  0.2788 -1.3540  0.0000  0.0000
  27. Cl 2 (pz)     0.0000  0.0000  0.0000 -0.3375  0.0000  0.0000  0.0000  0.0000
  28. Cl 2 (d5)    -0.5007  0.0000 -0.3419  0.0000  0.1136 -0.3339  0.0000  0.0000
  29. Cl 2 (d2)     0.0000  0.0000  0.0000  0.0000  0.0000  0.0000  0.0000 -0.1062
  30. Cl 2 (d3)     0.0000  0.0000  0.0000  0.5886  0.0000  0.0000  0.0000  0.0000
  31. Cl 2 (d4)     0.2047  0.0000 -0.2243  0.0000  0.4800 -0.4591  0.0000  0.0000
  32. Cl 2 (d1)     0.0000  0.5089  0.0000  0.0000  0.0000  0.0000  0.6322  0.0000
  33. Cl 3 (s)      0.0082 -0.0099  0.0057  0.0000  0.0066  0.0112  0.0194  0.0000
  34. Cl 3 (s)      0.0047  0.0287 -0.0166  0.0000 -0.0015  0.0155  0.0268  0.0000
  35. Cl 3 (px)     0.0057 -0.0784  0.0256  0.0000  0.0241 -0.0065  0.0114  0.0000
  36. Cl 3 (py)    -0.0033  0.0256 -0.0488  0.0000 -0.0139 -0.0189  0.0065  0.0000
  37. Cl 3 (pz)     0.0000  0.0000  0.0000 -0.0238  0.0000  0.0000  0.0000  0.0174
  38. Cl 3 (s)      0.2352 -0.1791  0.1034  0.0000  0.1794  0.3568  0.6181  0.0000
  39. Cl 3 (px)    -0.0137  0.3507 -0.1166  0.0000 -0.1254 -0.0008 -0.0731  0.0000
  40. Cl 3 (py)     0.0079 -0.1166  0.2160  0.0000  0.0724  0.0722  0.0008  0.0000
  41. Cl 3 (pz)     0.0000  0.0000  0.0000  0.1122  0.0000  0.0000  0.0000 -0.0388
  42. Cl 3 (s)     -0.8727 -0.8321  0.4804  0.0000 -0.2134 -1.2738 -2.2063  0.0000
  43. Cl 3 (px)     0.3840 -0.0848 -0.2951  0.0000  0.2415  0.7699  0.9095  0.0000
  44. Cl 3 (py)    -0.2217 -0.2951 -0.4255  0.0000 -0.1394 -0.0206 -0.7699  0.0000
  45. Cl 3 (pz)     0.0000  0.0000  0.0000 -0.3375  0.0000  0.0000  0.0000 -0.1272
  46. Cl 3 (d5)    -0.5007 -0.2961  0.1710  0.0000  0.1136  0.1669  0.2891  0.0000
  47. Cl 3 (d2)     0.0000  0.0000  0.0000  0.5098  0.0000  0.0000  0.0000  0.3572
  48. Cl 3 (d3)     0.0000  0.0000  0.0000 -0.2943  0.0000  0.0000  0.0000 -0.2676
  49. Cl 3 (d4)    -0.1023  0.3175  0.3256  0.0000 -0.2400 -0.5889  0.0749  0.0000
  50. Cl 3 (d1)     0.1772 -0.0410  0.3175  0.0000  0.4157 -0.0749  0.5024  0.0000
  51. Cl 4 (s)      0.0082  0.0099  0.0057  0.0000  0.0066  0.0112 -0.0194  0.0000
  52. Cl 4 (s)      0.0047 -0.0287 -0.0166  0.0000 -0.0015  0.0155 -0.0268  0.0000
  53. Cl 4 (px)    -0.0057 -0.0784 -0.0256  0.0000 -0.0241  0.0065  0.0114  0.0000
  54. Cl 4 (py)    -0.0033 -0.0256 -0.0488  0.0000 -0.0139 -0.0189 -0.0065  0.0000
  55. Cl 4 (pz)     0.0000  0.0000  0.0000 -0.0238  0.0000  0.0000  0.0000 -0.0174
  56. Cl 4 (s)      0.2352  0.1791  0.1034  0.0000  0.1794  0.3568 -0.6181  0.0000
  57. Cl 4 (px)     0.0137  0.3507  0.1166  0.0000  0.1254  0.0008 -0.0731  0.0000
  58. Cl 4 (py)     0.0079  0.1166  0.2160  0.0000  0.0724  0.0722 -0.0008  0.0000
  59. Cl 4 (pz)     0.0000  0.0000  0.0000  0.1122  0.0000  0.0000  0.0000  0.0388
  60. Cl 4 (s)     -0.8727  0.8321  0.4804  0.0000 -0.2134 -1.2738  2.2063  0.0000
  61. Cl 4 (px)    -0.3840 -0.0848  0.2951  0.0000 -0.2415 -0.7699  0.9095  0.0000
  62. Cl 4 (py)    -0.2217  0.2951 -0.4255  0.0000 -0.1394 -0.0206  0.7699  0.0000
  63. Cl 4 (pz)     0.0000  0.0000  0.0000 -0.3375  0.0000  0.0000  0.0000  0.1272
  64. Cl 4 (d5)    -0.5007  0.2961  0.1710  0.0000  0.1136  0.1669 -0.2891  0.0000
  65. Cl 4 (d2)     0.0000  0.0000  0.0000 -0.5098  0.0000  0.0000  0.0000  0.3572
  66. Cl 4 (d3)     0.0000  0.0000  0.0000 -0.2943  0.0000  0.0000  0.0000  0.2676
  67. Cl 4 (d4)    -0.1023 -0.3175  0.3256  0.0000 -0.2400 -0.5889 -0.0749  0.0000
  68. Cl 4 (d1)    -0.1772 -0.0410 -0.3175  0.0000 -0.4157  0.0749  0.5024  0.0000

           AO         65      66      67      68
      ------------ ------- ------- ------- -------
   1.  B 1 (s)      0.0000 -0.1428  0.0000  0.0000
   2.  B 1 (s)      0.0000 -0.4255  0.0000  0.0000
   3.  B 1 (px)     0.0000  0.0000  0.3609  0.0000
   4.  B 1 (py)     0.0000  0.0000  0.0000  0.3609
   5.  B 1 (pz)     0.0000  0.0000  0.0000  0.0000
   6.  B 1 (s)      0.0000  3.2855  0.0000  0.0000
   7.  B 1 (px)     0.0000  0.0000  1.2427  0.0000
   8.  B 1 (py)     0.0000  0.0000  0.0000  1.2427
   9.  B 1 (pz)     0.0000  0.0000  0.0000  0.0000
  10.  B 1 (d5)     0.0000 -1.0919  0.0000  0.0000
  11.  B 1 (d2)     0.0000  0.0000  0.0000  0.0000
  12.  B 1 (d3)     0.9366  0.0000  0.0000  0.0000
  13.  B 1 (d4)     0.0000  0.0000  0.0000 -1.1611
  14.  B 1 (d1)     0.0000  0.0000 -1.1611  0.0000
  15. Cl 2 (s)      0.0000 -0.0013  0.0000 -0.0076
  16. Cl 2 (s)      0.0000  0.0552  0.0000  0.0781
  17. Cl 2 (px)     0.0000  0.0000 -0.0227  0.0000
  18. Cl 2 (py)     0.0000 -0.0686  0.0000 -0.1096
  19. Cl 2 (pz)     0.0201  0.0000  0.0000  0.0000
  20. Cl 2 (s)      0.0000  0.1346  0.0000  0.0305
  21. Cl 2 (px)     0.0000  0.0000  0.0677  0.0000
  22. Cl 2 (py)     0.0000  0.2725  0.0000  0.4449
  23. Cl 2 (pz)    -0.0448  0.0000  0.0000  0.0000
  24. Cl 2 (s)      0.0000 -1.1635  0.0000 -1.2346
  25. Cl 2 (px)     0.0000  0.0000 -0.1486  0.0000
  26. Cl 2 (py)     0.0000  0.6065  0.0000  0.5696
  27. Cl 2 (pz)    -0.1469  0.0000  0.0000  0.0000
  28. Cl 2 (d5)     0.0000  0.2392  0.0000  0.2707
  29. Cl 2 (d2)     0.0000  0.0000  0.0000  0.0000
  30. Cl 2 (d3)     0.5117  0.0000  0.0000  0.0000
  31. Cl 2 (d4)     0.0000  0.3483  0.0000  0.5285
  32. Cl 2 (d1)     0.0000  0.0000 -0.2203  0.0000
  33. Cl 3 (s)      0.0000 -0.0013 -0.0065  0.0038
  34. Cl 3 (s)      0.0000  0.0552  0.0677 -0.0391
  35. Cl 3 (px)     0.0000 -0.0594 -0.0879  0.0376
  36. Cl 3 (py)     0.0000  0.0343  0.0376 -0.0445
  37. Cl 3 (pz)    -0.0101  0.0000  0.0000  0.0000
  38. Cl 3 (s)      0.0000  0.1346  0.0264 -0.0153
  39. Cl 3 (px)     0.0000  0.2360  0.3506 -0.1633
  40. Cl 3 (py)     0.0000 -0.1363 -0.1633  0.1620
  41. Cl 3 (pz)     0.0224  0.0000  0.0000  0.0000
  42. Cl 3 (s)      0.0000 -1.1635 -1.0692  0.6173
  43. Cl 3 (px)     0.0000  0.5252  0.3901 -0.3110
  44. Cl 3 (py)     0.0000 -0.3032 -0.3110  0.0310
  45. Cl 3 (pz)     0.0735  0.0000  0.0000  0.0000
  46. Cl 3 (d5)     0.0000  0.2392  0.2345 -0.1354
  47. Cl 3 (d2)    -0.2676  0.0000  0.0000  0.0000
  48. Cl 3 (d3)     0.0483  0.0000  0.0000  0.0000
  49. Cl 3 (d4)     0.0000 -0.1742 -0.3243 -0.0331
  50. Cl 3 (d1)     0.0000  0.3016  0.3413 -0.3243
  51. Cl 4 (s)      0.0000 -0.0013  0.0065  0.0038
  52. Cl 4 (s)      0.0000  0.0552 -0.0677 -0.0391
  53. Cl 4 (px)     0.0000  0.0594 -0.0879 -0.0376
  54. Cl 4 (py)     0.0000  0.0343 -0.0376 -0.0445
  55. Cl 4 (pz)    -0.0101  0.0000  0.0000  0.0000
  56. Cl 4 (s)      0.0000  0.1346 -0.0264 -0.0153
  57. Cl 4 (px)     0.0000 -0.2360  0.3506  0.1633
  58. Cl 4 (py)     0.0000 -0.1363  0.1633  0.1620
  59. Cl 4 (pz)     0.0224  0.0000  0.0000  0.0000
  60. Cl 4 (s)      0.0000 -1.1635  1.0692  0.6173
  61. Cl 4 (px)     0.0000 -0.5252  0.3901  0.3110
  62. Cl 4 (py)     0.0000 -0.3032  0.3110  0.0310
  63. Cl 4 (pz)     0.0735  0.0000  0.0000  0.0000
  64. Cl 4 (d5)     0.0000  0.2392 -0.2345 -0.1354
  65. Cl 4 (d2)     0.2676  0.0000  0.0000  0.0000
  66. Cl 4 (d3)     0.0483  0.0000  0.0000  0.0000
  67. Cl 4 (d4)     0.0000 -0.1742  0.3243 -0.0331
  68. Cl 4 (d1)     0.0000 -0.3016  0.3413  0.3243


 AO overlap matrix:

           AO          1       2       3       4       5       6       7       8
      ------------ ------- ------- ------- ------- ------- ------- ------- -------
   1.  B 1 (s)      1.0000  0.2228  0.0000  0.0000  0.0000  0.1987  0.0000  0.0000
   2.  B 1 (s)      0.2228  1.0000  0.0000  0.0000  0.0000  0.8478  0.0000  0.0000
   3.  B 1 (px)     0.0000  0.0000  1.0000  0.0000  0.0000  0.0000  0.6236  0.0000
   4.  B 1 (py)     0.0000  0.0000  0.0000  1.0000  0.0000  0.0000  0.0000  0.6236
   5.  B 1 (pz)     0.0000  0.0000  0.0000  0.0000  1.0000  0.0000  0.0000  0.0000
   6.  B 1 (s)      0.1987  0.8478  0.0000  0.0000  0.0000  1.0000  0.0000  0.0000
   7.  B 1 (px)     0.0000  0.0000  0.6236  0.0000  0.0000  0.0000  1.0000  0.0000
   8.  B 1 (py)     0.0000  0.0000  0.0000  0.6236  0.0000  0.0000  0.0000  1.0000
   9.  B 1 (pz)     0.0000  0.0000  0.0000  0.0000  0.6236  0.0000  0.0000  0.0000
  10.  B 1 (d5)     0.0000  0.0000  0.0000  0.0000  0.0000  0.0000  0.0000  0.0000
  11.  B 1 (d2)     0.0000  0.0000  0.0000  0.0000  0.0000  0.0000  0.0000  0.0000
  12.  B 1 (d3)     0.0000  0.0000  0.0000  0.0000  0.0000  0.0000  0.0000  0.0000
  13.  B 1 (d4)     0.0000  0.0000  0.0000  0.0000  0.0000  0.0000  0.0000  0.0000
  14.  B 1 (d1)     0.0000  0.0000  0.0000  0.0000  0.0000  0.0000  0.0000  0.0000
  15. Cl 2 (s)      0.0000  0.0017  0.0000  0.0043  0.0000  0.0080  0.0000  0.0187
  16. Cl 2 (s)      0.0000  0.0167  0.0000  0.0386  0.0000  0.0639  0.0000  0.1429
  17. Cl 2 (px)     0.0000  0.0000  0.0045  0.0000  0.0000  0.0000  0.0168  0.0000
  18. Cl 2 (py)     0.0000 -0.0134  0.0000 -0.0268  0.0000 -0.0196  0.0000 -0.0272
  19. Cl 2 (pz)     0.0000  0.0000  0.0000  0.0000  0.0045  0.0000  0.0000  0.0000
  20. Cl 2 (s)      0.0086  0.1424  0.0000  0.2215  0.0000  0.2806  0.0000  0.4987
  21. Cl 2 (px)     0.0000  0.0000  0.0830  0.0000  0.0000  0.0000  0.1966  0.0000
  22. Cl 2 (py)    -0.0225 -0.2178  0.0000 -0.2943  0.0000 -0.2296  0.0000 -0.2245
  23. Cl 2 (pz)     0.0000  0.0000  0.0000  0.0000  0.0830  0.0000  0.0000  0.0000
  24. Cl 2 (s)      0.0498  0.3012  0.0000  0.2678  0.0000  0.4846  0.0000  0.5992
  25. Cl 2 (px)     0.0000  0.0000  0.2162  0.0000  0.0000  0.0000  0.4838  0.0000
  26. Cl 2 (py)    -0.1177 -0.5233  0.0000 -0.2723  0.0000 -0.5648  0.0000 -0.2146
  27. Cl 2 (pz)     0.0000  0.0000  0.0000  0.0000  0.2162  0.0000  0.0000  0.0000
  28. Cl 2 (d5)    -0.0054 -0.0698  0.0000 -0.0959  0.0000 -0.0358  0.0000 -0.0102
  29. Cl 2 (d2)     0.0000  0.0000  0.0000  0.0000  0.0000  0.0000  0.0000  0.0000
  30. Cl 2 (d3)     0.0000  0.0000  0.0000  0.0000 -0.0923  0.0000  0.0000  0.0000
  31. Cl 2 (d4)    -0.0093 -0.1209  0.0000 -0.1661  0.0000 -0.0620  0.0000 -0.0176
  32. Cl 2 (d1)     0.0000  0.0000 -0.0923  0.0000  0.0000  0.0000 -0.1062  0.0000
  33. Cl 3 (s)      0.0000  0.0017  0.0037 -0.0021  0.0000  0.0080  0.0162 -0.0093
  34. Cl 3 (s)      0.0000  0.0167  0.0334 -0.0193  0.0000  0.0639  0.1237 -0.0714
  35. Cl 3 (px)     0.0000 -0.0116 -0.0190  0.0135  0.0000 -0.0170 -0.0162  0.0191
  36. Cl 3 (py)     0.0000  0.0067  0.0135 -0.0033  0.0000  0.0098  0.0191  0.0058
  37. Cl 3 (pz)     0.0000  0.0000  0.0000  0.0000  0.0045  0.0000  0.0000  0.0000
  38. Cl 3 (s)      0.0086  0.1424  0.1919 -0.1108  0.0000  0.2806  0.4319 -0.2493
  39. Cl 3 (px)    -0.0195 -0.1886 -0.2000  0.1633  0.0000 -0.1988 -0.1192  0.1824
  40. Cl 3 (py)     0.0112  0.1089  0.1633 -0.0113  0.0000  0.1148  0.1824  0.0913
  41. Cl 3 (pz)     0.0000  0.0000  0.0000  0.0000  0.0830  0.0000  0.0000  0.0000
  42. Cl 3 (s)      0.0498  0.3012  0.2319 -0.1339  0.0000  0.4846  0.5189 -0.2996
  43. Cl 3 (px)    -0.1020 -0.4532 -0.1502  0.2115  0.0000 -0.4891 -0.0400  0.3024
  44. Cl 3 (py)     0.0589  0.2617  0.2115  0.0941  0.0000  0.2824  0.3024  0.3092
  45. Cl 3 (pz)     0.0000  0.0000  0.0000  0.0000  0.2162  0.0000  0.0000  0.0000
  46. Cl 3 (d5)    -0.0054 -0.0698 -0.0830  0.0479  0.0000 -0.0358 -0.0088  0.0051
  47. Cl 3 (d2)     0.0000  0.0000  0.0000  0.0000 -0.0799  0.0000  0.0000  0.0000
  48. Cl 3 (d3)     0.0000  0.0000  0.0000  0.0000  0.0461  0.0000  0.0000  0.0000
  49. Cl 3 (d4)     0.0047  0.0604  0.0320 -0.1107  0.0000  0.0310 -0.0383 -0.0840
  50. Cl 3 (d1)    -0.0081 -0.1047 -0.1476  0.0320  0.0000 -0.0537 -0.0398 -0.0383
  51. Cl 4 (s)      0.0000  0.0017 -0.0037 -0.0021  0.0000  0.0080 -0.0162 -0.0093
  52. Cl 4 (s)      0.0000  0.0167 -0.0334 -0.0193  0.0000  0.0639 -0.1237 -0.0714
  53. Cl 4 (px)     0.0000  0.0116 -0.0190 -0.0135  0.0000  0.0170 -0.0162 -0.0191
  54. Cl 4 (py)     0.0000  0.0067 -0.0135 -0.0033  0.0000  0.0098 -0.0191  0.0058
  55. Cl 4 (pz)     0.0000  0.0000  0.0000  0.0000  0.0045  0.0000  0.0000  0.0000
  56. Cl 4 (s)      0.0086  0.1424 -0.1919 -0.1108  0.0000  0.2806 -0.4319 -0.2493
  57. Cl 4 (px)     0.0195  0.1886 -0.2000 -0.1633  0.0000  0.1988 -0.1192 -0.1824
  58. Cl 4 (py)     0.0112  0.1089 -0.1633 -0.0113  0.0000  0.1148 -0.1824  0.0913
  59. Cl 4 (pz)     0.0000  0.0000  0.0000  0.0000  0.0830  0.0000  0.0000  0.0000
  60. Cl 4 (s)      0.0498  0.3012 -0.2319 -0.1339  0.0000  0.4846 -0.5189 -0.2996
  61. Cl 4 (px)     0.1020  0.4532 -0.1502 -0.2115  0.0000  0.4891 -0.0400 -0.3024
  62. Cl 4 (py)     0.0589  0.2617 -0.2115  0.0941  0.0000  0.2824 -0.3024  0.3092
  63. Cl 4 (pz)     0.0000  0.0000  0.0000  0.0000  0.2162  0.0000  0.0000  0.0000
  64. Cl 4 (d5)    -0.0054 -0.0698  0.0830  0.0479  0.0000 -0.0358  0.0088  0.0051
  65. Cl 4 (d2)     0.0000  0.0000  0.0000  0.0000  0.0799  0.0000  0.0000  0.0000
  66. Cl 4 (d3)     0.0000  0.0000  0.0000  0.0000  0.0461  0.0000  0.0000  0.0000
  67. Cl 4 (d4)     0.0047  0.0604 -0.0320 -0.1107  0.0000  0.0310  0.0383 -0.0840
  68. Cl 4 (d1)     0.0081  0.1047 -0.1476 -0.0320  0.0000  0.0537 -0.0398  0.0383

           AO          9      10      11      12      13      14      15      16
      ------------ ------- ------- ------- ------- ------- ------- ------- -------
   1.  B 1 (s)      0.0000  0.0000  0.0000  0.0000  0.0000  0.0000  0.0000  0.0000
   2.  B 1 (s)      0.0000  0.0000  0.0000  0.0000  0.0000  0.0000  0.0017  0.0167
   3.  B 1 (px)     0.0000  0.0000  0.0000  0.0000  0.0000  0.0000  0.0000  0.0000
   4.  B 1 (py)     0.0000  0.0000  0.0000  0.0000  0.0000  0.0000  0.0043  0.0386
   5.  B 1 (pz)     0.6236  0.0000  0.0000  0.0000  0.0000  0.0000  0.0000  0.0000
   6.  B 1 (s)      0.0000  0.0000  0.0000  0.0000  0.0000  0.0000  0.0080  0.0639
   7.  B 1 (px)     0.0000  0.0000  0.0000  0.0000  0.0000  0.0000  0.0000  0.0000
   8.  B 1 (py)     0.0000  0.0000  0.0000  0.0000  0.0000  0.0000  0.0187  0.1429
   9.  B 1 (pz)     1.0000  0.0000  0.0000  0.0000  0.0000  0.0000  0.0000  0.0000
  10.  B 1 (d5)     0.0000  1.0000  0.0000  0.0000  0.0000  0.0000 -0.0012 -0.0148
  11.  B 1 (d2)     0.0000  0.0000  1.0000  0.0000  0.0000  0.0000  0.0000  0.0000
  12.  B 1 (d3)     0.0000  0.0000  0.0000  1.0000  0.0000  0.0000  0.0000  0.0000
  13.  B 1 (d4)     0.0000  0.0000  0.0000  0.0000  1.0000  0.0000 -0.0021 -0.0256
  14.  B 1 (d1)     0.0000  0.0000  0.0000  0.0000  0.0000  1.0000  0.0000  0.0000
  15. Cl 2 (s)      0.0000 -0.0012  0.0000  0.0000 -0.0021  0.0000  1.0000  0.2672
  16. Cl 2 (s)      0.0000 -0.0148  0.0000  0.0000 -0.0256  0.0000  0.2672  1.0000
  17. Cl 2 (px)     0.0000  0.0000  0.0000  0.0000  0.0000  0.0059  0.0000  0.0000
  18. Cl 2 (py)     0.0000  0.0148  0.0000  0.0000  0.0256  0.0000  0.0000  0.0000
  19. Cl 2 (pz)     0.0168  0.0000  0.0000  0.0059  0.0000  0.0000  0.0000  0.0000
  20. Cl 2 (s)      0.0000 -0.0908  0.0000  0.0000 -0.1572  0.0000  0.0112  0.3358
  21. Cl 2 (px)     0.0000  0.0000  0.0000  0.0000  0.0000  0.1185  0.0000  0.0000
  22. Cl 2 (py)     0.0000  0.1257  0.0000  0.0000  0.2178  0.0000  0.0000  0.0000
  23. Cl 2 (pz)     0.1966  0.0000  0.0000  0.1185  0.0000  0.0000  0.0000  0.0000
  24. Cl 2 (s)      0.0000 -0.0557  0.0000  0.0000 -0.0964  0.0000  0.0341  0.2556
  25. Cl 2 (px)     0.0000  0.0000  0.0000  0.0000  0.0000  0.1557  0.0000  0.0000
  26. Cl 2 (py)     0.0000  0.0215  0.0000  0.0000  0.0373  0.0000  0.0000  0.0000
  27. Cl 2 (pz)     0.4838  0.0000  0.0000  0.1557  0.0000  0.0000  0.0000  0.0000
  28. Cl 2 (d5)     0.0000  0.0786  0.0000  0.0000  0.0890  0.0000  0.0000  0.0000
  29. Cl 2 (d2)     0.0000  0.0000  0.0271  0.0000  0.0000  0.0000  0.0000  0.0000
  30. Cl 2 (d3)    -0.1062  0.0000  0.0000 -0.1675  0.0000  0.0000  0.0000  0.0000
  31. Cl 2 (d4)     0.0000  0.0890  0.0000  0.0000  0.1814  0.0000  0.0000  0.0000
  32. Cl 2 (d1)     0.0000  0.0000  0.0000  0.0000  0.0000 -0.1675  0.0000  0.0000
  33. Cl 3 (s)      0.0000 -0.0012  0.0000  0.0000  0.0011 -0.0019  0.0000  0.0000
  34. Cl 3 (s)      0.0000 -0.0148  0.0000  0.0000  0.0128 -0.0221  0.0000  0.0000
  35. Cl 3 (px)     0.0000  0.0128  0.0000  0.0000 -0.0086  0.0207  0.0000  0.0000
  36. Cl 3 (py)     0.0000 -0.0074  0.0000  0.0000  0.0108 -0.0086  0.0000  0.0000
  37. Cl 3 (pz)     0.0168  0.0000  0.0051 -0.0029  0.0000  0.0000  0.0000  0.0000
  38. Cl 3 (s)      0.0000 -0.0908  0.0000  0.0000  0.0786 -0.1361  0.0000  0.0000
  39. Cl 3 (px)     0.0000  0.1089  0.0000  0.0000 -0.0430  0.1930  0.0000  0.0000
  40. Cl 3 (py)     0.0000 -0.0629  0.0000  0.0000  0.1433 -0.0430  0.0000  0.0000
  41. Cl 3 (pz)     0.1966  0.0000  0.1026 -0.0592  0.0000  0.0000  0.0000  0.0000
  42. Cl 3 (s)      0.0000 -0.0557  0.0000  0.0000  0.0482 -0.0835  0.0003  0.0032
  43. Cl 3 (px)     0.0000  0.0186  0.0000  0.0000  0.0513  0.0669 -0.0007 -0.0065
  44. Cl 3 (py)     0.0000 -0.0108  0.0000  0.0000  0.1261  0.0513  0.0013  0.0113
  45. Cl 3 (pz)     0.4838  0.0000  0.1348 -0.0778  0.0000  0.0000  0.0000  0.0000
  46. Cl 3 (d5)     0.0000  0.0786  0.0000  0.0000 -0.0445  0.0771  0.0000  0.0000
  47. Cl 3 (d2)    -0.0919  0.0000 -0.1188  0.0843  0.0000  0.0000  0.0000  0.0000
  48. Cl 3 (d3)     0.0531  0.0000  0.0843 -0.0215  0.0000  0.0000  0.0000  0.0000
  49. Cl 3 (d4)     0.0000 -0.0445  0.0000  0.0000 -0.0803 -0.1511  0.0000  0.0000
  50. Cl 3 (d1)     0.0000  0.0771  0.0000  0.0000 -0.1511  0.0942  0.0000  0.0000
  51. Cl 4 (s)      0.0000 -0.0012  0.0000  0.0000  0.0011  0.0019  0.0000  0.0000
  52. Cl 4 (s)      0.0000 -0.0148  0.0000  0.0000  0.0128  0.0221  0.0000  0.0000
  53. Cl 4 (px)     0.0000 -0.0128  0.0000  0.0000  0.0086  0.0207  0.0000  0.0000
  54. Cl 4 (py)     0.0000 -0.0074  0.0000  0.0000  0.0108  0.0086  0.0000  0.0000
  55. Cl 4 (pz)     0.0168  0.0000 -0.0051 -0.0029  0.0000  0.0000  0.0000  0.0000
  56. Cl 4 (s)      0.0000 -0.0908  0.0000  0.0000  0.0786  0.1361  0.0000  0.0000
  57. Cl 4 (px)     0.0000 -0.1089  0.0000  0.0000  0.0430  0.1930  0.0000  0.0000
[...]
                                         0.0168  0.0000  0.0000
  32. (0.05349) BD*( 2) B  1-Cl  4
               ( 68.00%)   0.8246* B  1 s( 33.23%)p 1.99( 66.26%)d 0.02(  0.51%)
                                         0.0000  0.5765 -0.0030 -0.7035 -0.0451
                                        -0.4062 -0.0261  0.0000  0.0000  0.0550
                                         0.0000  0.0000  0.0317 -0.0320
               ( 32.00%)  -0.5657*Cl  4 s( 29.12%)p 2.41( 70.32%)d 0.02(  0.55%)
                                         0.0000  0.0000  0.5394 -0.0152  0.0000
                                         0.7259 -0.0222  0.0000  0.4191 -0.0128
                                         0.0000  0.0000  0.0000  0.0569  0.0000
                                         0.0000  0.0328 -0.0351
  33. (0.02470) RY ( 1) B  1            s(  0.00%)p 1.00( 88.69%)d 0.13( 11.31%)
                                         0.0000  0.0000  0.0000 -0.0864  0.9378
                                         0.0000  0.0000  0.0000  0.0000 -0.3363
                                         0.0000  0.0000  0.0000  0.0000
  34. (0.02470) RY ( 2) B  1            s(  0.00%)p 1.00( 88.69%)d 0.13( 11.31%)
                                         0.0000  0.0000  0.0000  0.0000  0.0000
                                        -0.0864  0.9378  0.0000  0.0000  0.0000
                                         0.0000  0.0000 -0.3363  0.0000
  35. (0.00767) RY ( 3) B  1            s(  0.00%)p 1.00(  1.16%)d85.32( 98.84%)
                                         0.0000  0.0000  0.0000  0.0000  0.0000
                                         0.0000  0.0000  0.1071 -0.0103  0.0000
                                         0.8610  0.4971  0.0000  0.0000
  36. (0.00362) RY ( 4) B  1            s( 98.03%)p 0.00(  0.00%)d 0.02(  1.97%)
                                         0.0000 -0.0027  0.9901  0.0000  0.0000
                                         0.0000  0.0000  0.0000  0.0000  0.0000
                                         0.0000  0.0000  0.0000 -0.1403
  37. (0.00299) RY ( 5) B  1            s(  0.00%)p 0.00(  0.00%)d 1.00(100.00%)
                                         0.0000  0.0000  0.0000  0.0000  0.0000
                                         0.0000  0.0000  0.0000  0.0000  0.0000
                                        -0.5000  0.8660  0.0000  0.0000
  38. (0.00279) RY ( 6) B  1            s(  0.00%)p 1.00( 11.91%)d 7.39( 88.09%)
                                         0.0000  0.0000  0.0000  0.0514  0.3413
                                         0.0000  0.0000  0.0000  0.0000  0.9385
                                         0.0000  0.0000  0.0000  0.0000
  39. (0.00279) RY ( 7) B  1            s(  0.00%)p 1.00( 11.91%)d 7.39( 88.09%)
                                         0.0000  0.0000  0.0000  0.0000  0.0000
                                         0.0514  0.3413  0.0000  0.0000  0.0000
                                         0.0000  0.0000  0.9385  0.0000
  40. (0.00000) RY ( 8) B  1            s(  2.28%)p 0.00(  0.00%)d42.92( 97.72%)
  41. (0.00000) RY ( 9) B  1            s(  0.00%)p 1.00(100.00%)d 0.00(  0.00%)
  42. (0.00115) RY ( 1)Cl  2            s(  0.00%)p 1.00( 65.42%)d 0.53( 34.58%)
                                         0.0000  0.0000  0.0000  0.0000  0.0000
                                         0.0051  0.8088  0.0000  0.0000  0.0000
                                         0.0000  0.0000  0.0000  0.5880  0.0000
                                         0.0000  0.0000  0.0000
  43. (0.00085) RY ( 2)Cl  2            s( 59.01%)p 0.65( 38.17%)d 0.05(  2.82%)
                                         0.0000  0.0000  0.0044  0.7682  0.0000
                                         0.0000  0.0000  0.0000 -0.0391 -0.6166
                                         0.0000  0.0000  0.0000  0.0000  0.0000
                                         0.0000  0.0283  0.1654
  44. (0.00069) RY ( 3)Cl  2            s(  0.00%)p 1.00( 80.89%)d 0.24( 19.11%)
                                         0.0000  0.0000  0.0000  0.0000  0.0000
                                         0.0000  0.0000  0.0000  0.0000  0.0000
                                         0.0000  0.0019  0.8994  0.0000  0.0000
                                         0.4372  0.0000  0.0000
  45. (0.00004) RY ( 4)Cl  2            s( 15.12%)p 1.28( 19.36%)d 4.33( 65.52%)
  46. (0.00002) RY ( 5)Cl  2            s(  0.00%)p 0.00(  0.00%)d 1.00(100.00%)
  47. (0.00001) RY ( 6)Cl  2            s(  0.00%)p 1.00( 34.63%)d 1.89( 65.37%)
  48. (0.00000) RY ( 7)Cl  2            s( 15.47%)p 0.57(  8.79%)d 4.90( 75.74%)
  49. (0.00000) RY ( 8)Cl  2            s( 10.41%)p 3.30( 34.30%)d 5.31( 55.29%)
  50. (0.00000) RY ( 9)Cl  2            s(  0.00%)p 1.00( 19.22%)d 4.20( 80.78%)
  51. (0.00115) RY ( 1)Cl  3            s(  0.00%)p 1.00( 65.42%)d 0.53( 34.58%)
                                         0.0000  0.0000  0.0000  0.0000  0.0000
                                         0.0025  0.4044  0.0000  0.0044  0.7005
                                         0.0000  0.0000  0.0000  0.2940  0.0000
                                         0.0000  0.5092  0.0000
  52. (0.00085) RY ( 2)Cl  3            s( 59.01%)p 0.65( 38.17%)d 0.05(  2.82%)
                                         0.0000  0.0000  0.0044  0.7682  0.0000
                                        -0.0339 -0.5340  0.0000  0.0195  0.3083
                                         0.0000  0.0000  0.0000  0.0245  0.0000
                                         0.0000 -0.0141  0.1654
  53. (0.00069) RY ( 3)Cl  3            s(  0.00%)p 1.00( 80.89%)d 0.24( 19.11%)
                                         0.0000  0.0000  0.0000  0.0000  0.0000
                                         0.0000  0.0000  0.0000  0.0000  0.0000
                                         0.0000  0.0019  0.8994  0.0000  0.3786
                                        -0.2186  0.0000  0.0000
  54. (0.00004) RY ( 4)Cl  3            s( 15.12%)p 1.28( 19.36%)d 4.33( 65.52%)
  55. (0.00002) RY ( 5)Cl  3            s(  0.00%)p 0.00(  0.00%)d 1.00(100.00%)
  56. (0.00001) RY ( 6)Cl  3            s(  0.00%)p 1.00( 34.63%)d 1.89( 65.37%)
  57. (0.00000) RY ( 7)Cl  3            s( 15.47%)p 0.57(  8.79%)d 4.90( 75.74%)
  58. (0.00000) RY ( 8)Cl  3            s( 10.41%)p 3.30( 34.30%)d 5.31( 55.29%)
  59. (0.00000) RY ( 9)Cl  3            s(  0.00%)p 1.00( 19.22%)d 4.20( 80.78%)
  60. (0.00115) RY ( 1)Cl  4            s(  0.00%)p 1.00( 65.42%)d 0.53( 34.58%)
                                         0.0000  0.0000  0.0000  0.0000  0.0000
                                        -0.0025 -0.4044  0.0000  0.0044  0.7005
                                         0.0000  0.0000  0.0000 -0.2940  0.0000
                                         0.0000  0.5092  0.0000
  61. (0.00085) RY ( 2)Cl  4            s( 59.01%)p 0.65( 38.17%)d 0.05(  2.82%)
                                         0.0000  0.0000  0.0044  0.7682  0.0000
                                         0.0339  0.5340  0.0000  0.0195  0.3083
                                         0.0000  0.0000  0.0000 -0.0245  0.0000
                                         0.0000 -0.0141  0.1654
  62. (0.00070) RY ( 3)Cl  4            s(  0.00%)p 1.00( 80.90%)d 0.24( 19.10%)
                                         0.0000  0.0000  0.0000  0.0000  0.0000
                                         0.0000  0.0000  0.0000  0.0000  0.0000
                                         0.0000  0.0040  0.8994  0.0000 -0.3785
                                        -0.2185  0.0000  0.0000
  63. (0.00004) RY ( 4)Cl  4            s( 15.12%)p 1.28( 19.36%)d 4.33( 65.52%)
  64. (0.00002) RY ( 5)Cl  4            s(  0.00%)p 0.00(  0.00%)d 1.00(100.00%)
  65. (0.00001) RY ( 6)Cl  4            s(  0.00%)p 1.00( 34.63%)d 1.89( 65.37%)
  66. (0.00000) RY ( 7)Cl  4            s( 15.47%)p 0.57(  8.79%)d 4.90( 75.74%)
  67. (0.00000) RY ( 8)Cl  4            s(  0.00%)p 1.00( 19.22%)d 4.20( 80.78%)
  68. (0.00000) RY ( 9)Cl  4            s( 10.41%)p 3.30( 34.30%)d 5.31( 55.29%)


 NHO DIRECTIONALITY AND BOND BENDING (deviation from line of nuclear centers at
                                      the position of maximum hybrid amplitude)

         [Thresholds for printing:  angular deviation  >  1.0 degree]
                                    p- or d-character  > 25.0%
                                    orbital occupancy  >  0.10e

                        Line of Centers        Hybrid 1             Hybrid 2
                        ---------------  -------------------  ------------------
           NBO            Theta   Phi    Theta   Phi    Dev   Theta   Phi    Dev
 ===============================================================================
  17. LP ( 1)Cl  2          --     --     90.0   90.0   --      --     --    --
  18. LP ( 2)Cl  2          --     --     90.0  357.5   --      --     --    --
  19. LP ( 3)Cl  2          --     --      4.3  270.0   --      --     --    --
  20. LP ( 1)Cl  3          --     --     90.0  330.0   --      --     --    --
  21. LP ( 2)Cl  3          --     --     90.0   62.5   --      --     --    --
  22. LP ( 3)Cl  3          --     --      4.3  150.0   --      --     --    --
  23. LP ( 1)Cl  4          --     --     90.0  210.0   --      --     --    --
  24. LP ( 2)Cl  4          --     --     90.0  117.5   --      --     --    --
  27. BD ( 1) B  1-Cl  4   90.0  210.0   172.7  210.0  82.7   175.6   30.0  85.6


 3-Center, 4-Electron A:-B-:C Hyperbonds (A-B :C <=> A: B-C)
              [threshold for detection: 33.3%]

                                                  NBOs       3-center hybrids
                                              -------------  ----------------
       Hyperbond A:-B-:C   %A-B/%B-C   occ    BD(A-B) LP(C)  h(A)  h(B)  h(C)
      -------------------  ---------  ------  ------- -----  ----  ----  ----
   1. Cl  4:- B  1-:Cl  2  50.5/49.5  4.1255      27     19    29    30    19
   2. Cl  4:- B  1-:Cl  3  50.5/49.5  4.1255      27     22    29    30    22


 SECOND ORDER PERTURBATION THEORY ANALYSIS OF FOCK MATRIX IN NBO BASIS

     Threshold for printing:   0.50 kcal/mol
                                                          E(2) E(NL)-E(L) F(L,NL)
      Donor (L) NBO              Acceptor (NL) NBO      kcal/mol   a.u.    a.u.
 ===============================================================================

 within unit  1
   17. LP ( 1)Cl  2            30. BD*( 1) B  1-Cl  3      0.83    1.28   0.029
   17. LP ( 1)Cl  2            32. BD*( 2) B  1-Cl  4      0.83    1.28   0.029
   17. LP ( 1)Cl  2            34. RY ( 2) B  1            9.82    1.58   0.111
   17. LP ( 1)Cl  2            36. RY ( 4) B  1            1.30    1.45   0.039
   18. LP ( 2)Cl  2            30. BD*( 1) B  1-Cl  3     13.31    0.88   0.097
   18. LP ( 2)Cl  2            32. BD*( 2) B  1-Cl  4     13.31    0.88   0.097
   18. LP ( 2)Cl  2            33. RY ( 1) B  1            2.80    1.18   0.051
   18. LP ( 2)Cl  2            38. RY ( 6) B  1            1.04    2.19   0.043
   19. LP ( 3)Cl  2            31. BD*( 1) B  1-Cl  4     55.31    0.51   0.150
   19. LP ( 3)Cl  2            35. RY ( 3) B  1            1.51    1.93   0.048
   19. LP ( 3)Cl  2            37. RY ( 5) B  1            1.94    1.94   0.055
   19. LP ( 3)Cl  2            44. RY ( 3)Cl  2            0.64    1.16   0.024
   20. LP ( 1)Cl  3            29. BD*( 1) B  1-Cl  2      0.83    1.28   0.029
   20. LP ( 1)Cl  3            32. BD*( 2) B  1-Cl  4      0.83    1.28   0.029
   20. LP ( 1)Cl  3            33. RY ( 1) B  1            7.36    1.58   0.096
   20. LP ( 1)Cl  3            34. RY ( 2) B  1            2.45    1.58   0.056
   20. LP ( 1)Cl  3            36. RY ( 4) B  1            1.30    1.45   0.039
   21. LP ( 2)Cl  3            29. BD*( 1) B  1-Cl  2     13.31    0.88   0.097
   21. LP ( 2)Cl  3            32. BD*( 2) B  1-Cl  4     13.31    0.88   0.097
   21. LP ( 2)Cl  3            33. RY ( 1) B  1            0.70    1.18   0.026
   21. LP ( 2)Cl  3            34. RY ( 2) B  1            2.10    1.18   0.044
   21. LP ( 2)Cl  3            39. RY ( 7) B  1            0.78    2.19   0.037
   22. LP ( 3)Cl  3            31. BD*( 1) B  1-Cl  4     55.31    0.51   0.150
   22. LP ( 3)Cl  3            35. RY ( 3) B  1            1.51    1.93   0.048
   22. LP ( 3)Cl  3            37. RY ( 5) B  1            1.94    1.94   0.055
   22. LP ( 3)Cl  3            53. RY ( 3)Cl  3            0.64    1.16   0.024
   23. LP ( 1)Cl  4            29. BD*( 1) B  1-Cl  2      0.83    1.28   0.029
   23. LP ( 1)Cl  4            30. BD*( 1) B  1-Cl  3      0.83    1.28   0.029
   23. LP ( 1)Cl  4            33. RY ( 1) B  1            7.36    1.58   0.096
   23. LP ( 1)Cl  4            34. RY ( 2) B  1            2.45    1.58   0.056
   23. LP ( 1)Cl  4            36. RY ( 4) B  1            1.30    1.45   0.039
   24. LP ( 2)Cl  4            29. BD*( 1) B  1-Cl  2     13.31    0.88   0.097
   24. LP ( 2)Cl  4            30. BD*( 1) B  1-Cl  3     13.31    0.88   0.097
   24. LP ( 2)Cl  4            33. RY ( 1) B  1            0.70    1.18   0.026
   24. LP ( 2)Cl  4            34. RY ( 2) B  1            2.10    1.18   0.044
   24. LP ( 2)Cl  4            39. RY ( 7) B  1            0.78    2.19   0.037


 NATURAL BOND ORBITALS (Summary):

                                                     Principal Delocalizations
           NBO                 Occupancy    Energy   (geminal,vicinal,remote)
 ===============================================================================
 Molecular unit  1  (BCl3)
 ------ Lewis --------------------------------------
    1. CR ( 1) B  1             2.00000    -7.77228
    2. CR ( 1)Cl  2             2.00000   -93.59999
    3. CR ( 2)Cl  2             2.00000   -21.82929
    4. CR ( 3)Cl  2             2.00000    -8.05102
    5. CR ( 4)Cl  2             1.99999    -8.05390
    6. CR ( 5)Cl  2             2.00000    -8.05150
    7. CR ( 1)Cl  3             2.00000   -93.59999
    8. CR ( 2)Cl  3             2.00000   -21.82929
    9. CR ( 3)Cl  3             2.00000    -8.05318
   10. CR ( 4)Cl  3             2.00000    -8.05174
   11. CR ( 5)Cl  3             2.00000    -8.05150
   12. CR ( 1)Cl  4             2.00000   -93.59999
   13. CR ( 2)Cl  4             2.00000   -21.82929
   14. CR ( 3)Cl  4             2.00000    -8.05318
   15. CR ( 4)Cl  4             2.00000    -8.05174
   16. CR ( 5)Cl  4             2.00000    -8.05150
   17. LP ( 1)Cl  2             1.98338    -0.87236  34(v),36(v),30(v),32(v)
   18. LP ( 2)Cl  2             1.94400    -0.47458  30(v),32(v),33(v),38(v)
   19. LP ( 3)Cl  2             1.86170    -0.46331  31(v),37(v),35(v),44(g)
   20. LP ( 1)Cl  3             1.98338    -0.87236  33(v),34(v),36(v),29(v)
                                                     32(v)
   21. LP ( 2)Cl  3             1.94400    -0.47458  29(v),32(v),34(v),39(v)
                                                     33(v)
   22. LP ( 3)Cl  3             1.86170    -0.46331  31(v),37(v),35(v),53(g)
   23. LP ( 1)Cl  4             1.98338    -0.87236  33(v),34(v),36(v),29(v)
                                                     30(v)
   24. LP ( 2)Cl  4             1.94400    -0.47458  29(v),30(v),34(v),39(v)
                                                     33(v)
   25. BD ( 1) B  1-Cl  2       1.99756    -0.89324
   26. BD ( 1) B  1-Cl  3       1.99756    -0.89324
   27. BD ( 1) B  1-Cl  4       1.99924    -0.51386
   28. BD ( 2) B  1-Cl  4       1.99756    -0.89324
 ------ non-Lewis ----------------------------------
   29. BD*( 1) B  1-Cl  2       0.05349     0.40785
   30. BD*( 1) B  1-Cl  3       0.05349     0.40785
   31. BD*( 1) B  1-Cl  4       0.26458     0.04741
   32. BD*( 2) B  1-Cl  4       0.05349     0.40785
   33. RY ( 1) B  1             0.02470     0.70494
   34. RY ( 2) B  1             0.02470     0.70494
   35. RY ( 3) B  1             0.00767     1.46247
   36. RY ( 4) B  1             0.00362     0.58193
   37. RY ( 5) B  1             0.00299     1.47985
   38. RY ( 6) B  1             0.00279     1.71787
   39. RY ( 7) B  1             0.00279     1.71787
   40. RY ( 8) B  1             0.00000     1.75990
   41. RY ( 9) B  1             0.00000     0.60634
   42. RY ( 1)Cl  2             0.00115     0.75105
   43. RY ( 2)Cl  2             0.00085     0.79072
   44. RY ( 3)Cl  2             0.00069     0.69224
   45. RY ( 4)Cl  2             0.00004     1.10235
   46. RY ( 5)Cl  2             0.00002     1.11767
   47. RY ( 6)Cl  2             0.00001     1.15058
   48. RY ( 7)Cl  2             0.00000     1.00676
   49. RY ( 8)Cl  2             0.00000     1.05864
   50. RY ( 9)Cl  2             0.00000     1.13554
   51. RY ( 1)Cl  3             0.00115     0.75105
   52. RY ( 2)Cl  3             0.00085     0.79072
   53. RY ( 3)Cl  3             0.00069     0.69224
   54. RY ( 4)Cl  3             0.00004     1.10235
   55. RY ( 5)Cl  3             0.00002     1.11767
   56. RY ( 6)Cl  3             0.00001     1.15058
   57. RY ( 7)Cl  3             0.00000     1.00676
   58. RY ( 8)Cl  3             0.00000     1.05864
   59. RY ( 9)Cl  3             0.00000     1.13554
   60. RY ( 1)Cl  4             0.00115     0.75105
   61. RY ( 2)Cl  4             0.00085     0.79072
   62. RY ( 3)Cl  4             0.00070     0.69214
   63. RY ( 4)Cl  4             0.00004     1.10235
   64. RY ( 5)Cl  4             0.00002     1.11767
   65. RY ( 6)Cl  4             0.00001     1.15058
   66. RY ( 7)Cl  4             0.00000     1.00676
   67. RY ( 8)Cl  4             0.00000     1.13554
   68. RY ( 9)Cl  4             0.00000     1.05864
          -------------------------------
                 Total Lewis   55.49741  ( 99.1025%)
           Valence non-Lewis    0.42504  (  0.7590%)
           Rydberg non-Lewis    0.07755  (  0.1385%)
          -------------------------------
               Total unit  1   56.00000  (100.0000%)
              Charge unit  1    0.00000

 $CHOOSE
   LONE 2 3 3 3 4 2 END
   BOND S 1 2 S 1 3 D 1 4 END
 $END

 NBO analysis completed in 1.66 CPU seconds (3 wall seconds)
 Maximum scratch memory used by NBO was 392073 words (2.99 MB)
 Maximum scratch memory used by G16NBO was 15554 words (0.12 MB)

 Opening RunExU unformatted file "/cluster/work/users/beto93/mol56/Gau-736634.EUF"
 Read unf file /cluster/work/users/beto93/mol56/Gau-736634.EUF:
 Label Gaussian matrix elements                                         IVers= 2 NLab= 2 Version=ES64L-G16RevC.01
 Title mol56-NBO                                                       
 NAtoms=     4 NBasis=    68 NBsUse=    68 ICharg=     0 Multip=     1 NE=    56 Len12L=8 Len4L=8 IOpCl= 0 ICGU=111
 GAUSSIAN SCALARS                    NI= 1 NR= 1 NTot=       1 LenBuf=    2 NRI=1 N=    1000
 NPA CHARGES                         NI= 0 NR= 1 NTot=       4 LenBuf= 4000 NRI=1 N=       4
 Recovered energy= -1403.24899698     dipole=     -0.000000000000      0.000000118403     -0.000000000000
 Unable to Open any file for archive entry.
 1\1\GINC-C2-37\SP\RHF\6-31G(d)\B1Cl3\BETO93\18-Nov-2024\0\\#RHF/6-31G*
  int=nobasistransform Symmetry=None 5D 7F Pop=NBO7Read\\mol56-NBO\\0,1
 \B,0,0.,0.,0.\Cl,0,0.,1.735352,0.\Cl,0,1.502859,-0.867676,0.\Cl,0,-1.5
 02859,-0.867676,0.\\Version=ES64L-G16RevC.01\HF=-1403.248997\RMSD=5.87
 7e-09\Dipole=0.,0.0000001,0.\Quadrupole=-0.5696075,-0.5696071,1.139214
 6,0.,0.,0.\PG=Unknown\\@
 The archive entry for this job was punched.


 ABOVE ALL I AM AN OPTIMIST FOR NUMBER THEORY,
 AND I HOLD THE HOPE THAT WE MAY NOT BE FAR FROM
 A TIME WHEN IRREFUTABLE ARITHMETIC WILL CELEBRATE
 ITS TRIUMPHS IN PHYSICS AND CHEMISTRY.
   -- HERMANN MINKOWSKI, 1905
 Job cpu time:       0 days  0 hours  0 minutes 13.1 seconds.
 Elapsed time:       0 days  0 hours  0 minutes  4.3 seconds.
 File lengths (MBytes):  RWF=     10 Int=      0 D2E=      0 Chk=      1 Scr=      1
 Normal termination of Gaussian 16 at Mon Nov 18 16:40:12 2024.
