 Entering Gaussian System, Link 0=g16
 Initial command:
 /cluster/software/Gaussian/g16_C.01/l1.exe "/cluster/work/users/beto93/LiBH2/Gau-1268405.inp" -scrdir="/cluster/work/users/beto93/LiBH2/"
 Entering Link 1 = /cluster/software/Gaussian/g16_C.01/l1.exe PID=   1268408.
  
 Copyright (c) 1988-2019, Gaussian, Inc.  All Rights Reserved.
  
 This is part of the Gaussian(R) 16 program.  It is based on
 the Gaussian(R) 09 system (copyright 2009, Gaussian, Inc.),
 the Gaussian(R) 03 system (copyright 2003, Gaussian, Inc.),
 the Gaussian(R) 98 system (copyright 1998, Gaussian, Inc.),
 the Gaussian(R) 94 system (copyright 1995, Gaussian, Inc.),
 the Gaussian 92(TM) system (copyright 1992, Gaussian, Inc.),
 the Gaussian 90(TM) system (copyright 1990, Gaussian, Inc.),
 the Gaussian 88(TM) system (copyright 1988, Gaussian, Inc.),
 the Gaussian 86(TM) system (copyright 1986, Carnegie Mellon
 University), and the Gaussian 82(TM) system (copyright 1983,
 Carnegie Mellon University). Gaussian is a federally registered
 trademark of Gaussian, Inc.
  
 This software contains proprietary and confidential information,
 including trade secrets, belonging to Gaussian, Inc.
  
 This software is provided under written license and may be
 used, copied, transmitted, or stored only in accord with that
 written license.
  
 The following legend is applicable only to US Government
 contracts under FAR:
  
                    RESTRICTED RIGHTS LEGEND
  
 Use, reproduction and disclosure by the US Government is
 subject to restrictions as set forth in subparagraphs (a)
 and (c) of the Commercial Computer Software - Restricted
 Rights clause in FAR 52.227-19.
  
 Gaussian, Inc.
 340 Quinnipiac St., Bldg. 40, Wallingford CT 06492
  
  
 ---------------------------------------------------------------
 Warning -- This program may not be used in any manner that
 competes with the business of Gaussian, Inc. or will provide
 assistance to any competitor of Gaussian, Inc.  The licensee
 of this program is prohibited from giving any competitor of
 Gaussian, Inc. access to this program.  By using this program,
 the user acknowledges that Gaussian, Inc. is engaged in the
 business of creating and licensing software in the field of
 computational chemistry and represents and warrants to the
 licensee that it is not a competitor of Gaussian, Inc. and that
 it will not use this program in any manner prohibited above.
 ---------------------------------------------------------------
  

 Cite this work as:
 Gaussian 16, Revision C.01,
 M. J. Frisch, G. W. Trucks, H. B. Schlegel, G. E. Scuseria, 
 M. A. Robb, J. R. Cheeseman, G. Scalmani, V. Barone, 
 G. A. Petersson, H. Nakatsuji, X. Li, M. Caricato, A. V. Marenich, 
 J. Bloino, B. G. Janesko, R. Gomperts, B. Mennucci, H. P. Hratchian, 
 J. V. Ortiz, A. F. Izmaylov, J. L. Sonnenberg, D. Williams-Young, 
 F. Ding, F. Lipparini, F. Egidi, J. Goings, B. Peng, A. Petrone, 
 T. Henderson, D. Ranasinghe, V. G. Zakrzewski, J. Gao, N. Rega, 
 G. Zheng, W. Liang, M. Hada, M. Ehara, K. Toyota, R. Fukuda, 
 J. Hasegawa, M. Ishida, T. Nakajima, Y. Honda, O. Kitao, H. Nakai, 
 T. Vreven, K. Throssell, J. A. Montgomery, Jr., J. E. Peralta, 
 F. Ogliaro, M. J. Bearpark, J. J. Heyd, E. N. Brothers, K. N. Kudin, 
 V. N. Staroverov, T. A. Keith, R. Kobayashi, J. Normand, 
 K. Raghavachari, A. P. Rendell, J. C. Burant, S. S. Iyengar, 
 J. Tomasi, M. Cossi, J. M. Millam, M. Klene, C. Adamo, R. Cammi, 
 J. W. Ochterski, R. L. Martin, K. Morokuma, O. Farkas, 
 J. B. Foresman, and D. J. Fox, Gaussian, Inc., Wallingford CT, 2019.
 
 ******************************************
 Gaussian 16:  ES64L-G16RevC.01  3-Jul-2019
                24-Jul-2024 
 ******************************************
 %LindaWorkers=c1-25-ib
 %NProcShared=4
 Will use up to    4 processors via shared memory.
 %mem=25GB
 %chk=a.chk
 SetLPE:    new flags="-opt 'Tsnet.Node.lindarsharg: ssh'  -nodelist 'c1-25-ib.saga' -env GAUSS_MDEF=3355443200 -env GAUSS_EXEDIR="/cluster/software/Gaussian/g16_C.01/bsd:/cluster/software/Gaussian/g16_C.01""
 Will use up to    1 processors via Linda.
 -----------------------
 #RHF/4-31G Pop=NBO7Read
 -----------------------
 1/38=1,163=2,172=1/1;
 2/12=2,17=6,18=5,40=1/2;
 3/5=1,11=1,25=1,30=1,116=1/1,2,3;
 4//1;
 5/5=2,38=5/2;
 6/7=2,8=2,9=2,10=2,28=1,40=2,113=1,114=1,124=2103/1,12;
 99/5=1,9=1/99;
 -----
 NBO-a
 -----
 Symbolic Z-matrix:
 Charge =  0 Multiplicity = 1
 B                     0.00008   0.        0.00005 
 Li                   -1.82483   0.       -1.21701 
 H                     0.00191   0.        1.16358 
 H                     1.07496   0.       -0.44539 
 
                          Input orientation:                          
 ---------------------------------------------------------------------
 Center     Atomic      Atomic             Coordinates (Angstroms)
 Number     Number       Type             X           Y           Z
 ---------------------------------------------------------------------
      1          5           0        0.000076    0.000000    0.000050
      2          3           0       -1.824832    0.000000   -1.217012
      3          1           0        0.001914    0.000000    1.163577
      4          1           0        1.074962    0.000000   -0.445390
 ---------------------------------------------------------------------
                    Distance matrix (angstroms):
                    1          2          3          4
     1  B    0.000000
     2  Li   2.193520   0.000000
     3  H    1.163528   3.000701   0.000000
     4  H    1.163528   3.000701   1.933961   0.000000
 Stoichiometry    BH2Li
 Framework group  C2V[C2(LiB),SGV(H2)]
 Deg. of freedom     3
 Full point group                 C2V     NOp   4
 Largest Abelian subgroup         C2V     NOp   4
 Largest concise Abelian subgroup C2      NOp   2
                         Standard orientation:                         
 ---------------------------------------------------------------------
 Center     Atomic      Atomic             Coordinates (Angstroms)
 Number     Number       Type             X           Y           Z
 ---------------------------------------------------------------------
      1          5           0        0.000000    0.000000    0.528635
      2          3           0       -0.000000    0.000000   -1.664885
      3          1           0       -0.000000    0.966981    1.175740
      4          1           0       -0.000000   -0.966981    1.175740
 ---------------------------------------------------------------------
 Rotational constants (GHZ):         268.1427530          20.4589531          19.0086194
 Standard basis: 4-31G (6D, 7F)
 There are    12 symmetry adapted cartesian basis functions of A1  symmetry.
 There are     0 symmetry adapted cartesian basis functions of A2  symmetry.
 There are     4 symmetry adapted cartesian basis functions of B1  symmetry.
 There are     6 symmetry adapted cartesian basis functions of B2  symmetry.
 There are    12 symmetry adapted basis functions of A1  symmetry.
 There are     0 symmetry adapted basis functions of A2  symmetry.
 There are     4 symmetry adapted basis functions of B1  symmetry.
 There are     6 symmetry adapted basis functions of B2  symmetry.
    22 basis functions,    45 primitive gaussians,    22 cartesian basis functions
     5 alpha electrons        5 beta electrons
       nuclear repulsion energy         9.4984550474 Hartrees.
 NAtoms=    4 NActive=    4 NUniq=    3 SFac= 1.78D+00 NAtFMM=   60 NAOKFM=F Big=F
 Integral buffers will be    131072 words long.
 Raffenetti 1 integral format.
 Two-electron integral symmetry is turned on.
 One-electron integrals computed using PRISM.
 NBasis=    22 RedAO= T EigKep=  2.80D-02  NBF=    12     0     4     6
 NBsUse=    22 1.00D-06 EigRej= -1.00D+00 NBFU=    12     0     4     6
 ExpMin= 4.04D-02 ExpMax= 3.31D+02 ExpMxC= 3.31D+02 IAcc=3 IRadAn=         5 AccDes= 0.00D+00
 Harris functional with IExCor=  205 and IRadAn=       5 diagonalized for initial guess.
 HarFok:  IExCor=  205 AccDes= 0.00D+00 IRadAn=         5 IDoV= 1 UseB2=F ITyADJ=14
 ICtDFT=  3500011 ScaDFX=  1.000000  1.000000  1.000000  1.000000
 FoFCou: FMM=F IPFlag=           0 FMFlag=      100000 FMFlg1=           0
         NFxFlg=           0 DoJE=T BraDBF=F KetDBF=T FulRan=T
         wScrn=  0.000000 ICntrl=       500 IOpCl=  0 I1Cent=   200000004 NGrid=           0
         NMat0=    1 NMatS0=      1 NMatT0=    0 NMatD0=    1 NMtDS0=    0 NMtDT0=    0
 Petite list used in FoFCou.
 Initial guess orbital symmetries:
       Occupied  (A1) (A1) (A1) (B2) (A1)
       Virtual   (B1) (A1) (B2) (B1) (A1) (B2) (A1) (B1) (A1) (B2)
                 (A1) (B2) (B1) (A1) (A1) (B2) (A1)
 The electronic state of the initial guess is 1-A1.
 Keep R1 ints in memory in symmetry-blocked form, NReq=840260.
 Requested convergence on RMS density matrix=1.00D-08 within 128 cycles.
 Requested convergence on MAX density matrix=1.00D-06.
 Requested convergence on             energy=1.00D-06.
 No special actions if energy rises.
 SCF Done:  E(RHF) =  -33.1679459739     A.U. after   11 cycles
            NFock= 11  Conv=0.18D-08     -V/T= 1.9944

 **********************************************************************

            Population analysis using the SCF Density.

 **********************************************************************

 Orbital symmetries:
       Occupied  (A1) (A1) (A1) (B2) (A1)
       Virtual   (A1) (B1) (B2) (A1) (B1) (B2) (B1) (A1) (A1) (B2)
                 (A1) (B2) (A1) (B1) (A1) (B2) (A1)
 The electronic state is 1-A1.
 Alpha  occ. eigenvalues --   -7.52035  -2.42805  -0.61992  -0.42678  -0.25269
 Alpha virt. eigenvalues --    0.02251   0.05213   0.07276   0.14871   0.17891
 Alpha virt. eigenvalues --    0.24660   0.25867   0.26102   0.39783   0.41873
 Alpha virt. eigenvalues --    0.48083   0.77269   0.83857   0.85341   1.15987
 Alpha virt. eigenvalues --    1.33257   1.36101
          Condensed to atoms (all electrons):
               1          2          3          4
     1  B    3.800446   0.392453   0.380859   0.380859
     2  Li   0.392453   2.470361  -0.038557  -0.038557
     3  H    0.380859  -0.038557   0.827241  -0.039702
     4  H    0.380859  -0.038557  -0.039702   0.827241
 Mulliken charges:
               1
     1  B    0.045383
     2  Li   0.214300
     3  H   -0.129841
     4  H   -0.129841
 Sum of Mulliken charges =  -0.00000
 Mulliken charges with hydrogens summed into heavy atoms:
               1
     1  B   -0.214300
     2  Li   0.214300
 Electronic spatial extent (au):  <R**2>=             71.1659
 Charge=             -0.0000 electrons
 Dipole moment (field-independent basis, Debye):
    X=              0.0000    Y=              0.0000    Z=             -5.1385  Tot=              5.1385
 Quadrupole moment (field-independent basis, Debye-Ang):
   XX=            -10.9278   YY=            -13.8000   ZZ=             -2.0782
   XY=             -0.0000   XZ=              0.0000   YZ=             -0.0000
 Traceless Quadrupole moment (field-independent basis, Debye-Ang):
   XX=             -1.9924   YY=             -4.8647   ZZ=              6.8572
   XY=             -0.0000   XZ=              0.0000   YZ=             -0.0000
 Octapole moment (field-independent basis, Debye-Ang**2):
  XXX=              0.0000  YYY=             -0.0000  ZZZ=            -29.5144  XYY=              0.0000
  XXY=             -0.0000  XXZ=             -0.0281  XZZ=              0.0000  YZZ=             -0.0000
  YYZ=             -2.2656  XYZ=             -0.0000
 Hexadecapole moment (field-independent basis, Debye-Ang**3):
 XXXX=            -19.3684 YYYY=            -36.7525 ZZZZ=            -36.8587 XXXY=             -0.0000
 XXXZ=              0.0000 YYYX=             -0.0000 YYYZ=              0.0000 ZZZX=              0.0000
 ZZZY=              0.0000 XXYY=             -9.3060 XXZZ=            -15.4034 YYZZ=            -20.2084
 XXYZ=             -0.0000 YYXZ=              0.0000 ZZXY=             -0.0000
 N-N= 9.498455047377D+00 E-N=-9.619124632146D+01  KE= 3.335403511411D+01
 Symmetry A1   KE= 3.193520725748D+01
 Symmetry A2   KE= 0.000000000000D+00
 Symmetry B1   KE= 3.639775557403D-33
 Symmetry B2   KE= 1.418827856625D+00
 Running external command "gaunbo7 R"
         input file       "/cluster/work/users/beto93/LiBH2/Gau-1268408.EIn"
         output file      "/cluster/work/users/beto93/LiBH2/Gau-1268408.EOu"
         message file     "/cluster/work/users/beto93/LiBH2/Gau-1268408.EMs"
         fchk file        "/cluster/work/users/beto93/LiBH2/Gau-1268408.EFC"
         mat. el file     "/cluster/work/users/beto93/LiBH2/Gau-1268408.EUF"

 Writing WrtUnf unformatted file "/cluster/work/users/beto93/LiBH2/Gau-1268408.EUF"
 Gaussian matrix elements                                         Version   2 NLab=11 Len12L=8 Len4L=8
 Write SHELL TO ATOM MAP                   from file      0 offset           0 length                  10 to matrix element file.
 Write SHELL TYPES                         from file      0 offset           0 length                  10 to matrix element file.
 Write NUMBER OF PRIMITIVES PER SHELL      from file      0 offset           0 length                  10 to matrix element file.
 Write PRIMITIVE EXPONENTS                 from file      0 offset           0 length                  24 to matrix element file.
 Write CONTRACTION COEFFICIENTS            from file      0 offset           0 length                  24 to matrix element file.
 Write P(S=P) CONTRACTION COEFFICIENTS     from file      0 offset           0 length                  24 to matrix element file.
 Write COORDINATES OF EACH SHELL           from file      0 offset           0 length                  30 to matrix element file.
 Write BONDS PER ATOM                      from file      0 offset           0 length                   4 to matrix element file.
 Write BONDED ATOMS                        from file      0 offset           0 length                   6 to matrix element file.
 Write BOND TYPES                          from file      0 offset           0 length                   6 to matrix element file.
 Write ONIOM CHARGE/MULT                   from file      0 offset           0 length                  32 to matrix element file.
 Write ONIOM ATOM LAYERS                   from file      0 offset           0 length                   4 to matrix element file.
 Write ONIOM ATOM MODIFIERS                from file      0 offset           0 length                   4 to matrix element file.
 Write ONIOM ATOM TYPES                    from file      0 offset           0 length                   4 to matrix element file.
 Write ONIOM LINK ATOMS                    from file      0 offset           0 length                   4 to matrix element file.
 Write ONIOM LINK CHARGES                  from file      0 offset           0 length                   4 to matrix element file.
 Write ONIOM LINK DISTANCES                from file      0 offset           0 length                  16 to matrix element file.
 Write SYMINF INTS                         from file      0 offset           0 length                  26 to matrix element file.
 Write ROTTR TO SO                         from file      0 offset           0 length                  12 to matrix element file.
 Write GAUSSIAN SCALARS                    from file    501 offset           0 to matrix element file.
 Write OPTIMIZATION FLAGS                  from file      0 offset           0 length                   4 to matrix element file.
 Write INTEGER ISO                         from file      0 offset           0 length                   4 to matrix element file.
 Write INTEGER SPIN                        from file      0 offset           0 length                   4 to matrix element file.
 Write REAL ZEFFECTIVE                     from file      0 offset           0 length                   4 to matrix element file.
 Write REAL QUADRUPOLEMOMENT               from file      0 offset           0 length                   4 to matrix element file.
 Write REAL GFACTOR                        from file      0 offset           0 length                   4 to matrix element file.
 Write REAL ZNUCLEAR                       from file      0 offset           0 length                   4 to matrix element file.
 Write MULLIKEN CHARGES                    from file      0 offset           0 length                   4 to matrix element file.
 Write NUCLEAR GRADIENT                    from file  10584 offset           0 length                  12 to matrix element file.
 Array NUCLEAR FORCE CONSTANTS              on  file  10585 does not exist.
 Write ELECTRIC DIPOLE MOMENT              from file      0 offset           0 length                   3 to matrix element file.
 Write NON-ADIABATIC COUPLING              from file  10810 offset           0 length                  12 to matrix element file.
 Write FINITE EM FIELD                     from file  10521 offset           0 length                  35 to matrix element file.
 Write OVERLAP                             from file  10514 offset           0 length                 253 to matrix element file.
 Write CORE HAMILTONIAN ALPHA              from file  10515 offset           0 length                 253 to matrix element file.
 Write CORE HAMILTONIAN BETA               from file  10515 offset         253 length                 253 to matrix element file.
 Write KINETIC ENERGY                      from file  10516 offset           0 length                 253 to matrix element file.
 Write ORTHOGONAL BASIS                    from file  10685 offset           0 length                 484 to matrix element file.
 Write DIPOLE INTEGRALS                    from file  10518 offset           0 length                 759 to matrix element file.
 Array DIP VEL INTEGRALS                    on  file  10572 does not exist.
 Array R X DEL INTEGRALS                    on  file  10572 does not exist.
 Write ALPHA ORBITAL ENERGIES              from file      0 offset           0 length                  22 to matrix element file.
 Write ALPHA MO COEFFICIENTS               from file  10524 offset           0 length                 484 to matrix element file.
 Write ALPHA DENSITY MATRIX                from file      0 offset           0 length                 253 to matrix element file.
 Write ALPHA FOCK MATRIX                   from file  10536 offset           0 length                 253 to matrix element file.
 Write ENERGY-WEIGHTED DENSITY             from file  10571 offset           0 length                 253 to matrix element file.
 Write ALPHA SCF DENSITY MATRIX            from file      0 offset           0 length                 253 to matrix element file.
 No 2e integrals to process.
 Perform NBO analysis...executing G16NBO...

 *********************************** NBO 7.0 ***********************************
             N A T U R A L   A T O M I C   O R B I T A L   A N D
          N A T U R A L   B O N D   O R B I T A L   A N A L Y S I S
 **************************** Espen Tangen (S101595) ***************************
  (c) Copyright 1996-2021 Board of Regents of the University of Wisconsin System
      on behalf of the Theoretical Chemistry Institute.  All rights reserved.

          Cite this program [NBO 7.0.10 (8-Feb-2021)] as:

          NBO 7.0.  E. D. Glendening, J. K. Badenhoop, A. E. Reed,
          J. E. Carpenter, J. A. Bohmann, C. M. Morales, P. Karafiloglou,
          C. R. Landis, and F. Weinhold, Theoretical Chemistry Institute,
          University of Wisconsin, Madison, WI (2018)

       /NPA    / : Natural Population Analysis
       /AOPNAO / : Print the AO to PNAO transformation
       /AONAO  / : Print the AO to NAO transformation
       /AONO   / : Print the NOs in the AO basis
       /AOMO   / : Print the MOs in the AO basis
       /BOAO   / : Print the AO bond-order matrix
       /DMAO   / : Print the AO density matrix
       /DMPNAO / : Print the PNAO density matrix
       /DMNAO  / : Print the NAO density matrix
       /DMMO   / : Print the MO density matrix
       /SAO    / : Print the AO overlap matrix
       /SPNAO  / : Print the PNAO overlap matrix
       /DETAIL / : Write details of NBO search
       /ARCHIVE/ : Write the archive file to lfn47
       /AOINFO / : Write AO information to lfn31
       /FILE   / : Set to inpGenNbo

 Filename set to inpGenNbo

 Job title: NBO-a


 MOs in the AO basis:

           AO          1       2       3       4       5       6       7       8
      ------------ ------- ------- ------- ------- ------- ------- ------- -------
   1.  B 1 (s)      0.9943 -0.0009 -0.1836  0.0000  0.0699  0.0263  0.0000  0.0000
   2.  B 1 (s)      0.0574 -0.0003  0.2392  0.0000 -0.0597 -0.0395  0.0000  0.0000
   3.  B 1 (px)     0.0000  0.0000  0.0000  0.0000  0.0000  0.0000  0.1139  0.0000
   4.  B 1 (py)     0.0000  0.0000  0.0000  0.3540  0.0000  0.0000  0.0000 -0.0231
   5.  B 1 (pz)     0.0009 -0.0012  0.1225  0.0000  0.3367  0.0863  0.0000  0.0000
   6.  B 1 (s)     -0.0368  0.0037  0.3003  0.0000 -0.2650 -0.0560  0.0000  0.0000
   7.  B 1 (px)     0.0000  0.0000  0.0000  0.0000  0.0000  0.0000  0.1100  0.0000
   8.  B 1 (py)     0.0000  0.0000  0.0000  0.1419  0.0000  0.0000  0.0000 -0.0856
   9.  B 1 (pz)    -0.0007 -0.0033  0.0213  0.0000  0.2903  0.1156  0.0000  0.0000
  10. Li 2 (s)      0.0006  0.9982 -0.0244  0.0000  0.1440 -0.1318  0.0000  0.0000
  11. Li 2 (s)      0.0029  0.0284  0.0359  0.0000 -0.2117 -0.1423  0.0000  0.0000
  12. Li 2 (px)     0.0000  0.0000  0.0000  0.0000  0.0000  0.0000  0.0197  0.0000
  13. Li 2 (py)     0.0000  0.0000  0.0000  0.0155  0.0000  0.0000  0.0000 -0.0045
  14. Li 2 (pz)     0.0040 -0.0114  0.0384  0.0000 -0.2270 -0.1417  0.0000  0.0000
  15. Li 2 (s)      0.0024 -0.0154  0.0120  0.0000 -0.2363  0.8302  0.0000  0.0000
  16. Li 2 (px)     0.0000  0.0000  0.0000  0.0000  0.0000  0.0000  0.9128  0.0000
  17. Li 2 (py)     0.0000  0.0000  0.0000  0.0216  0.0000  0.0000  0.0000  1.0436
  18. Li 2 (pz)     0.0011  0.0067 -0.0062  0.0000  0.0306 -0.5935  0.0000  0.0000
  19.  H 3 (s)     -0.0016  0.0001  0.2050  0.2481  0.0876  0.0132  0.0000 -0.0360
  20.  H 3 (s)      0.0072  0.0002  0.1728  0.3008  0.1432  0.0796  0.0000 -0.1153
  21.  H 4 (s)     -0.0016  0.0001  0.2050 -0.2481  0.0876  0.0132  0.0000  0.0360
  22.  H 4 (s)      0.0072  0.0002  0.1728 -0.3008  0.1432  0.0796  0.0000  0.1153

           AO          9      10      11      12      13      14      15      16
      ------------ ------- ------- ------- ------- ------- ------- ------- -------
   1.  B 1 (s)      0.0998  0.0000  0.0000  0.0000  0.0369 -0.1306  0.0000  0.1059
   2.  B 1 (s)      0.0109  0.0000  0.0000  0.0000  0.0245 -0.0181  0.0000 -0.0231
   3.  B 1 (px)     0.0000  0.2805  0.0000 -0.0663  0.0000  0.0000  0.0000  0.0000
   4.  B 1 (py)     0.0000  0.0000  0.0578  0.0000  0.0000  0.0000  0.2725  0.0000
   5.  B 1 (pz)     0.0611  0.0000  0.0000  0.0000 -0.0265  0.2103  0.0000  0.2589
   6.  B 1 (s)     -0.7865  0.0000  0.0000  0.0000 -0.5110  2.2795  0.0000 -1.1711
   7.  B 1 (px)     0.0000  0.7975  0.0000 -0.2630  0.0000  0.0000  0.0000  0.0000
   8.  B 1 (py)     0.0000  0.0000  0.3536  0.0000  0.0000  0.0000  1.8621  0.0000
   9.  B 1 (pz)     0.2447  0.0000  0.0000  0.0000  0.2757  1.3846  0.0000  0.7264
  10. Li 2 (s)     -0.0994  0.0000  0.0000  0.0000 -0.0625  0.0268  0.0000  0.1077
  11. Li 2 (s)     -0.1561  0.0000  0.0000  0.0000 -1.7014  0.0722  0.0000  2.0856
  12. Li 2 (px)     0.0000  0.3309  0.0000  1.6849  0.0000  0.0000  0.0000  0.0000
  13. Li 2 (py)     0.0000  0.0000  1.5706  0.0000  0.0000  0.0000 -0.8739  0.0000
  14. Li 2 (pz)    -0.5386  0.0000  0.0000  0.0000  1.2625  0.1529  0.0000  1.8202
  15. Li 2 (s)      0.9801  0.0000  0.0000  0.0000  1.9105  0.3242  0.0000 -1.2194
  16. Li 2 (px)     0.0000 -0.7750  0.0000 -1.2363  0.0000  0.0000  0.0000  0.0000
  17. Li 2 (py)     0.0000  0.0000 -1.3132  0.0000  0.0000  0.0000  0.4998  0.0000
  18. Li 2 (pz)     1.4796  0.0000  0.0000  0.0000 -0.6592  0.2450  0.0000 -0.9645
  19.  H 3 (s)      0.0026  0.0000 -0.0314  0.0000 -0.0086 -0.0265 -0.0332  0.0564
  20.  H 3 (s)     -0.1307  0.0000 -0.3137  0.0000 -0.0026 -1.8383 -1.7290  0.2196
  21.  H 4 (s)      0.0026  0.0000  0.0314  0.0000 -0.0086 -0.0265  0.0332  0.0564
  22.  H 4 (s)     -0.1307  0.0000  0.3137  0.0000 -0.0026 -1.8383  1.7290  0.2196

           AO         17      18      19      20      21      22
      ------------ ------- ------- ------- ------- ------- -------
   1.  B 1 (s)      0.0000 -0.0527  0.0000 -0.1015  0.0000 -0.0066
   2.  B 1 (s)      0.0000 -0.7695  0.0000 -1.6659  0.0000 -1.5208
   3.  B 1 (px)     0.0000  0.0000  1.2513  0.0000  0.0000  0.0000
   4.  B 1 (py)    -0.9439  0.0000  0.0000  0.0000  0.8981  0.0000
   5.  B 1 (pz)     0.0000 -0.8946  0.0000  0.8451  0.0000 -0.3877
   6.  B 1 (s)      0.0000  1.2980  0.0000  2.5158  0.0000  2.7808
   7.  B 1 (px)     0.0000  0.0000 -1.0916  0.0000  0.0000  0.0000
   8.  B 1 (py)     1.5947  0.0000  0.0000  0.0000 -1.2286  0.0000
   9.  B 1 (pz)     0.0000  1.7251  0.0000 -1.2029  0.0000  0.4649
  10. Li 2 (s)      0.0000  0.1549  0.0000 -0.1292  0.0000 -0.0405
  11. Li 2 (s)      0.0000  0.8711  0.0000 -0.7695  0.0000 -0.3869
  12. Li 2 (px)     0.0000  0.0000  0.0607  0.0000  0.0000  0.0000
  13. Li 2 (py)    -0.2647  0.0000  0.0000  0.0000  0.2026  0.0000
  14. Li 2 (pz)     0.0000  0.6233  0.0000 -0.8548  0.0000 -0.3899
  15. Li 2 (s)      0.0000 -0.5346  0.0000 -0.2100  0.0000  0.1865
  16. Li 2 (px)     0.0000  0.0000  0.1672  0.0000  0.0000  0.0000
  17. Li 2 (py)    -0.1088  0.0000  0.0000  0.0000 -0.1244  0.0000
  18. Li 2 (pz)     0.0000 -0.4593  0.0000 -0.0515  0.0000  0.2202
  19.  H 3 (s)     -0.3736 -0.3711  0.0000 -0.3944 -0.9000  0.8083
  20.  H 3 (s)     -0.1551 -0.3232  0.0000  0.1620  1.4080 -1.4125
  21.  H 4 (s)      0.3736 -0.3711  0.0000 -0.3944  0.9000  0.8083
  22.  H 4 (s)      0.1551 -0.3232  0.0000  0.1620 -1.4080 -1.4125


 NOs in the AO basis:

           AO          1       2       3       4       5       6       7       8
      ------------ ------- ------- ------- ------- ------- ------- ------- -------
   1.  B 1 (s)      0.9687  0.1978  0.2005  0.0137 -0.0967  0.0015  0.0199  0.0000
   2.  B 1 (s)     -0.0148 -0.0760  0.2285 -0.0035  0.0766 -0.0201 -0.0186  0.0000
   3.  B 1 (px)     0.0000  0.0000  0.0000  0.0000  0.0000 -0.0082  0.3150 -0.1425
   4.  B 1 (py)    -0.0095  0.0156  0.0084  0.3534  0.0046  0.1871 -0.2035  0.0000
   5.  B 1 (pz)    -0.0442 -0.0618  0.1266  0.0028 -0.3265  0.0824 -0.1950  0.0000
   6.  B 1 (s)     -0.1130 -0.1033  0.2363 -0.0079  0.2872  0.0247  0.0569  0.0000
   7.  B 1 (px)     0.0000  0.0000  0.0000  0.0000  0.0000  0.1636 -0.0583  0.3262
   8.  B 1 (py)    -0.0038  0.0062  0.0034  0.1417  0.0018 -0.2279  0.0907  0.0000
   9.  B 1 (pz)    -0.0156 -0.0207  0.0349  0.0034 -0.2879  0.0572  0.3848  0.0000
  10. Li 2 (s)      0.2538 -0.9160 -0.3121  0.0561 -0.1171  0.0015 -0.0919  0.0000
  11. Li 2 (s)      0.0052 -0.0273  0.0130 -0.0018  0.2144  0.0692  0.1158  0.0000
  12. Li 2 (px)     0.0000  0.0000  0.0000  0.0000  0.0000  0.0000  0.0000  1.0478
  13. Li 2 (py)    -0.0004  0.0007  0.0004  0.0154  0.0002 -0.1703  0.0816  0.0000
  14. Li 2 (pz)    -0.0041  0.0094  0.0267 -0.0041  0.2288  0.1378 -0.4301  0.0000
  15. Li 2 (s)      0.0013  0.0230  0.0035 -0.0041  0.2359 -0.0123  0.5876  0.0000
  16. Li 2 (px)     0.0000  0.0000  0.0000  0.0000  0.0000  0.0000  0.0000 -1.6814
  17. Li 2 (py)    -0.0006  0.0009  0.0005  0.0215  0.0003 -0.8136 -0.1312  0.0000
  18. Li 2 (pz)     0.0036 -0.0054 -0.0054  0.0009 -0.0308 -0.0233 -0.2259  0.0000
  19.  H 3 (s)     -0.0699 -0.0689  0.1907  0.2460 -0.0688  0.0247  0.0638  0.0000
  20.  H 3 (s)     -0.0553 -0.0568  0.1697  0.2999 -0.1260  0.1815 -0.0007  0.0000
  21.  H 4 (s)     -0.0567 -0.0907  0.1788 -0.2494 -0.0752 -0.0480 -0.0359  0.0000
  22.  H 4 (s)     -0.0392 -0.0832  0.1554 -0.3007 -0.1338 -0.3019 -0.0686  0.0000

           AO          9      10      11      12      13      14      15      16
      ------------ ------- ------- ------- ------- ------- ------- ------- -------
   1.  B 1 (s)      0.0000  0.0941  0.0105 -0.0228 -0.0236 -0.0325 -0.0073 -0.0123
   2.  B 1 (s)      0.0000 -0.4273 -0.3699  0.0494  0.0644  0.4234 -0.0522  0.0602
   3.  B 1 (px)    -0.1532 -0.2541  0.0209 -0.3039 -0.9384  0.0097  0.1093  0.6607
   4.  B 1 (py)     0.0000 -0.3162 -0.0024 -0.3879  0.2479  0.2414  0.4193  0.2468
   5.  B 1 (pz)     0.0000 -0.4398 -0.0274  0.2724 -0.0649  0.3307 -0.5225  0.0952
   6.  B 1 (s)      0.0000 -0.4807  0.0091  0.1655  0.1566  0.2157 -0.0440  0.0510
   7.  B 1 (px)     0.4296 -0.1195 -0.0192 -0.0347  0.1925 -0.0419  0.0347 -1.2154
   8.  B 1 (py)     0.0000  0.1767  0.0357 -0.0908  0.0870 -0.8315  0.6328 -0.0749
   9.  B 1 (pz)     0.0000  0.4257  0.2443 -0.1334 -0.1342 -1.0371 -0.2109  0.0968
  10. Li 2 (s)      0.0000 -0.0157  0.1599 -0.0115 -0.0189 -0.0876  0.0315  0.0014
  11. Li 2 (s)      0.0000  0.1056  2.6055 -0.0113 -0.0899 -0.2739 -0.3172  0.0320
  12. Li 2 (px)    -1.3619  0.0000  0.0000  0.0000  0.0000  0.0000  0.0000  0.0000
  13. Li 2 (py)     0.0000  0.0537  0.0059  1.4376 -0.4964  0.2475  0.5914 -0.0763
  14. Li 2 (pz)     0.0000 -0.2705  0.2893  0.1776 -0.2141 -1.9533 -0.4736  0.1598
  15. Li 2 (s)      0.0000  0.3942 -2.5505 -0.0498  0.0034 -0.1617 -0.1168  0.0345
  16. Li 2 (px)     0.4035  0.0001  0.0000  0.0000  0.0000  0.0000  0.0000  0.0000
  17. Li 2 (py)     0.0000 -0.1783 -0.0035 -1.2954  0.3493 -0.1062 -0.7053 -0.0378
  18. Li 2 (pz)     0.0000  0.9690 -0.4645 -0.3054 -0.3697  1.5423  0.0830 -0.1392
  19.  H 3 (s)      0.0000  0.0197 -0.1146  0.1513 -0.0902  0.0910 -0.3103 -0.1707
  20.  H 3 (s)      0.0000  0.2580  0.3866  0.1206 -0.0379  0.3781 -0.0674 -0.0412
  21.  H 4 (s)      0.0000  0.0198 -0.1254 -0.2475  0.1002  0.2709  0.4214  0.0227
  22.  H 4 (s)      0.0000  0.0193  0.4578 -0.2139  0.2401 -0.8558  0.7238 -0.0668

           AO         17      18      19      20      21      22
      ------------ ------- ------- ------- ------- ------- -------
   1.  B 1 (s)      0.0182 -0.0665  0.0435  0.0401 -0.1057  0.1492
   2.  B 1 (s)     -0.2442  0.4615 -0.7433  0.3081 -0.3118  2.0381
   3.  B 1 (px)     0.1636  0.0516  0.0408 -0.0086  0.0331  0.0008
   4.  B 1 (py)    -0.3637 -0.9611 -0.1374 -0.0946  0.0840  0.0392
   5.  B 1 (pz)    -0.4669  0.0061  0.9253  0.0002  0.0627  0.0319
   6.  B 1 (s)      0.0457  0.0977 -0.1958 -0.5190  0.6332 -4.7052
   7.  B 1 (px)    -0.2216 -0.0737 -0.0121 -0.0104 -0.0011 -0.0001
   8.  B 1 (py)    -0.2874  1.9764  0.7036  1.2859 -0.4906 -0.2621
   9.  B 1 (pz)    -0.6392 -0.0608 -2.1294  0.1281 -0.5663 -0.6261
  10. Li 2 (s)      0.0171  0.0404 -0.1958 -0.0110 -0.0045  0.0444
  11. Li 2 (s)     -0.4644 -0.0127 -0.9138  0.2107 -0.5963  0.5845
  12. Li 2 (px)     0.0000  0.0000  0.0000  0.0000  0.0000  0.0000
  13. Li 2 (py)    -0.1255 -0.6612 -0.2113 -0.2626  0.0512  0.0634
  14. Li 2 (pz)    -0.2824 -0.3855 -0.7548 -0.0847 -0.7399  0.8097
  15. Li 2 (s)     -0.2472 -0.2712  0.1943  0.1209 -0.1404 -0.0239
  16. Li 2 (px)     0.0000  0.0000  0.0000  0.0000  0.0000  0.0000
  17. Li 2 (py)     0.1051  0.1100  0.0562  0.1825  0.0953 -0.0266
  18. Li 2 (pz)    -0.3186  0.2172 -0.0277  0.4098  0.0262 -0.2625
  19.  H 3 (s)      0.8007 -0.1937 -0.1087  0.8763 -0.4301 -0.2780
  20.  H 3 (s)      0.4150 -0.9287  0.7029 -2.0269  0.7105  2.0319
  21.  H 4 (s)      0.0845 -0.1923  0.0171 -0.5542 -1.0765 -0.2252
  22.  H 4 (s)      0.1882  0.8229  1.5115  1.6899  0.7985  1.5887


 AO overlap matrix:

           AO          1       2       3       4       5       6       7       8
      ------------ ------- ------- ------- ------- ------- ------- ------- -------
   1.  B 1 (s)      1.0000  0.1843  0.0000  0.0000  0.0000  0.2054  0.0000  0.0000
   2.  B 1 (s)      0.1843  1.0000  0.0000  0.0000  0.0000  0.8432  0.0000  0.0000
   3.  B 1 (px)     0.0000  0.0000  1.0000  0.0000  0.0000  0.0000  0.6180  0.0000
   4.  B 1 (py)     0.0000  0.0000  0.0000  1.0000  0.0000  0.0000  0.0000  0.6180
   5.  B 1 (pz)     0.0000  0.0000  0.0000  0.0000  1.0000  0.0000  0.0000  0.0000
   6.  B 1 (s)      0.2054  0.8432  0.0000  0.0000  0.0000  1.0000  0.0000  0.0000
   7.  B 1 (px)     0.0000  0.0000  0.6180  0.0000  0.0000  0.0000  1.0000  0.0000
   8.  B 1 (py)     0.0000  0.0000  0.0000  0.6180  0.0000  0.0000  0.0000  1.0000
   9.  B 1 (pz)     0.0000  0.0000  0.0000  0.0000  0.6180  0.0000  0.0000  0.0000
  10. Li 2 (s)      0.0000  0.0053  0.0000  0.0000 -0.0125  0.0507  0.0000  0.0000
  11. Li 2 (s)      0.0366  0.2195  0.0000  0.0000 -0.1539  0.3913  0.0000  0.0000
  12. Li 2 (px)     0.0000  0.0000  0.1139  0.0000  0.0000  0.0000  0.3531  0.0000
  13. Li 2 (py)     0.0000  0.0000  0.0000  0.1139  0.0000  0.0000  0.0000  0.3531
  14. Li 2 (pz)     0.0756  0.3881  0.0000  0.0000 -0.1797  0.5558  0.0000  0.0000
  15. Li 2 (s)      0.0415  0.2406  0.0000  0.0000 -0.0885  0.4372  0.0000  0.0000
  16. Li 2 (px)     0.0000  0.0000  0.1061  0.0000  0.0000  0.0000  0.3616  0.0000
  17. Li 2 (py)     0.0000  0.0000  0.0000  0.1061  0.0000  0.0000  0.0000  0.3616
  18. Li 2 (pz)     0.0685  0.3636  0.0000  0.0000 -0.0294  0.5693  0.0000  0.0000
  19.  H 3 (s)      0.0307  0.2774  0.0000  0.3248  0.2174  0.3494  0.0000  0.4025
  20.  H 3 (s)      0.1052  0.5064  0.0000  0.2723  0.1822  0.6904  0.0000  0.5059
  21.  H 4 (s)      0.0307  0.2774  0.0000 -0.3248  0.2174  0.3494  0.0000 -0.4025
  22.  H 4 (s)      0.1052  0.5064  0.0000 -0.2723  0.1822  0.6904  0.0000 -0.5059

           AO          9      10      11      12      13      14      15      16
      ------------ ------- ------- ------- ------- ------- ------- ------- -------
   1.  B 1 (s)      0.0000  0.0000  0.0366  0.0000  0.0000  0.0756  0.0415  0.0000
   2.  B 1 (s)      0.0000  0.0053  0.2195  0.0000  0.0000  0.3881  0.2406  0.0000
   3.  B 1 (px)     0.0000  0.0000  0.0000  0.1139  0.0000  0.0000  0.0000  0.1061
   4.  B 1 (py)     0.0000  0.0000  0.0000  0.0000  0.1139  0.0000  0.0000  0.0000
   5.  B 1 (pz)     0.6180 -0.0125 -0.1539  0.0000  0.0000 -0.1797 -0.0885  0.0000
   6.  B 1 (s)      0.0000  0.0507  0.3913  0.0000  0.0000  0.5558  0.4372  0.0000
   7.  B 1 (px)     0.0000  0.0000  0.0000  0.3531  0.0000  0.0000  0.0000  0.3616
   8.  B 1 (py)     0.0000  0.0000  0.0000  0.0000  0.3531  0.0000  0.0000  0.0000
   9.  B 1 (pz)     1.0000 -0.1395 -0.4348  0.0000  0.0000 -0.3257 -0.3014  0.0000
  10. Li 2 (s)     -0.1395  1.0000  0.1397  0.0000  0.0000  0.0000  0.1972  0.0000
  11. Li 2 (s)     -0.4348  0.1397  1.0000  0.0000  0.0000  0.0000  0.9100  0.0000
  12. Li 2 (px)     0.0000  0.0000  0.0000  1.0000  0.0000  0.0000  0.0000  0.8105
  13. Li 2 (py)     0.0000  0.0000  0.0000  0.0000  1.0000  0.0000  0.0000  0.0000
  14. Li 2 (pz)    -0.3257  0.0000  0.0000  0.0000  0.0000  1.0000  0.0000  0.0000
  15. Li 2 (s)     -0.3014  0.1972  0.9100  0.0000  0.0000  0.0000  1.0000  0.0000
  16. Li 2 (px)     0.0000  0.0000  0.0000  0.8105  0.0000  0.0000  0.0000  1.0000
  17. Li 2 (py)     0.0000  0.0000  0.0000  0.0000  0.8105  0.0000  0.0000  0.0000
  18. Li 2 (pz)    -0.0309  0.0000  0.0000  0.0000  0.0000  0.8105  0.0000  0.0000
  19.  H 3 (s)      0.2694  0.0000  0.0431  0.0000  0.0357  0.1048  0.0856  0.0000
  20.  H 3 (s)      0.3385  0.0055  0.1634  0.0000  0.1011  0.2970  0.2533  0.0000
  21.  H 4 (s)      0.2694  0.0000  0.0431  0.0000 -0.0357  0.1048  0.0856  0.0000
  22.  H 4 (s)      0.3385  0.0055  0.1634  0.0000 -0.1011  0.2970  0.2533  0.0000

           AO         17      18      19      20      21      22
      ------------ ------- ------- ------- ------- ------- -------
   1.  B 1 (s)      0.0000  0.0685  0.0307  0.1052  0.0307  0.1052
   2.  B 1 (s)      0.0000  0.3636  0.2774  0.5064  0.2774  0.5064
   3.  B 1 (px)     0.0000  0.0000  0.0000  0.0000  0.0000  0.0000
   4.  B 1 (py)     0.1061  0.0000  0.3248  0.2723 -0.3248 -0.2723
   5.  B 1 (pz)     0.0000 -0.0294  0.2174  0.1822  0.2174  0.1822
   6.  B 1 (s)      0.0000  0.5693  0.3494  0.6904  0.3494  0.6904
   7.  B 1 (px)     0.0000  0.0000  0.0000  0.0000  0.0000  0.0000
   8.  B 1 (py)     0.3616  0.0000  0.4025  0.5059 -0.4025 -0.5059
   9.  B 1 (pz)     0.0000 -0.0309  0.2694  0.3385  0.2694  0.3385
  10. Li 2 (s)      0.0000  0.0000  0.0000  0.0055  0.0000  0.0055
  11. Li 2 (s)      0.0000  0.0000  0.0431  0.1634  0.0431  0.1634
  12. Li 2 (px)     0.0000  0.0000  0.0000  0.0000  0.0000  0.0000
  13. Li 2 (py)     0.8105  0.0000  0.0357  0.1011 -0.0357 -0.1011
  14. Li 2 (pz)     0.0000  0.8105  0.1048  0.2970  0.1048  0.2970
  15. Li 2 (s)      0.0000  0.0000  0.0856  0.2533  0.0856  0.2533
  16. Li 2 (px)     0.0000  0.0000  0.0000  0.0000  0.0000  0.0000
  17. Li 2 (py)     1.0000  0.0000  0.0594  0.1489 -0.0594 -0.1489
  18. Li 2 (pz)     0.0000  1.0000  0.1746  0.4373  0.1746  0.4373
  19.  H 3 (s)      0.0594  0.1746  1.0000  0.6583  0.0095  0.1142
  20.  H 3 (s)      0.1489  0.4373  0.6583  1.0000  0.1142  0.3406
  21.  H 4 (s)     -0.0594  0.1746  0.0095  0.1142  1.0000  0.6583
  22.  H 4 (s)     -0.1489  0.4373  0.1142  0.3406  0.6583  1.0000


 AO bond-order matrix:

           AO          1       2       3       4       5       6       7       8
      ------------ ------- ------- ------- ------- ------- ------- ------- -------
   1.  B 1 (s)      2.0544  0.0180  0.0000  0.0000  0.0039 -0.2207  0.0000  0.0000
   2.  B 1 (s)      0.0180  0.1282  0.0000  0.0000  0.0185  0.1711  0.0000  0.0000
   3.  B 1 (px)     0.0000  0.0000  0.0000  0.0000  0.0000  0.0000  0.0000  0.0000
   4.  B 1 (py)     0.0000  0.0000  0.0000  0.2507  0.0000  0.0000  0.0000  0.1005
   5.  B 1 (pz)     0.0039  0.0185  0.0000  0.0000  0.2568 -0.1050  0.0000  0.0000
   6.  B 1 (s)     -0.2207  0.1711  0.0000  0.0000 -0.1050  0.3236  0.0000  0.0000
   7.  B 1 (px)     0.0000  0.0000  0.0000  0.0000  0.0000  0.0000  0.0000  0.0000
   8.  B 1 (py)     0.0000  0.0000  0.0000  0.1005  0.0000  0.0000  0.0000  0.0403
   9.  B 1 (pz)     0.0314 -0.0246  0.0000  0.0000  0.2008 -0.1411  0.0000  0.0000
  10. Li 2 (s)      0.0284 -0.0293  0.0000  0.0000  0.0886 -0.0837  0.0000  0.0000
  11. Li 2 (s)     -0.0370  0.0428  0.0000  0.0000 -0.1338  0.1338  0.0000  0.0000
  12. Li 2 (px)     0.0000  0.0000  0.0000  0.0000  0.0000  0.0000  0.0000  0.0000
  13. Li 2 (py)     0.0000  0.0000  0.0000  0.0109  0.0000  0.0000  0.0000  0.0044
  14. Li 2 (pz)    -0.0379  0.0460  0.0000  0.0000 -0.1435  0.1430  0.0000  0.0000
  15. Li 2 (s)     -0.0326  0.0343  0.0000  0.0000 -0.1562  0.1322  0.0000  0.0000
  16. Li 2 (px)     0.0000  0.0000  0.0000  0.0000  0.0000  0.0000  0.0000  0.0000
  17. Li 2 (py)     0.0000  0.0000  0.0000  0.0153  0.0000  0.0000  0.0000  0.0061
  18. Li 2 (pz)     0.0087 -0.0065  0.0000  0.0000  0.0191 -0.0199  0.0000  0.0000
  19.  H 3 (s)     -0.0662  0.0874  0.0000  0.1757  0.1092  0.0768  0.0000  0.0704
  20.  H 3 (s)     -0.0290  0.0664  0.0000  0.2130  0.1388  0.0274  0.0000  0.0854
  21.  H 4 (s)     -0.0662  0.0874  0.0000 -0.1757  0.1092  0.0768  0.0000 -0.0704
  22.  H 4 (s)     -0.0290  0.0664  0.0000 -0.2130  0.1388  0.0274  0.0000 -0.0854

           AO          9      10      11      12      13      14      15      16
      ------------ ------- ------- ------- ------- ------- ------- ------- -------
   1.  B 1 (s)      0.0314  0.0284 -0.0370  0.0000  0.0000 -0.0379 -0.0326  0.0000
   2.  B 1 (s)     -0.0246 -0.0293  0.0428  0.0000  0.0000  0.0460  0.0343  0.0000
   3.  B 1 (px)     0.0000  0.0000  0.0000  0.0000  0.0000  0.0000  0.0000  0.0000
   4.  B 1 (py)     0.0000  0.0000  0.0000  0.0000  0.0109  0.0000  0.0000  0.0000
   5.  B 1 (pz)     0.2008  0.0886 -0.1338  0.0000  0.0000 -0.1435 -0.1562  0.0000
   6.  B 1 (s)     -0.1411 -0.0837  0.1338  0.0000  0.0000  0.1430  0.1322  0.0000
   7.  B 1 (px)     0.0000  0.0000  0.0000  0.0000  0.0000  0.0000  0.0000  0.0000
   8.  B 1 (py)     0.0000  0.0000  0.0000  0.0000  0.0044  0.0000  0.0000  0.0000
   9.  B 1 (pz)     0.1695  0.0760 -0.1216  0.0000  0.0000 -0.1301 -0.1366  0.0000
  10. Li 2 (s)      0.0760  2.0356 -0.0059  0.0000  0.0000 -0.0900 -0.0994  0.0000
  11. Li 2 (s)     -0.1216 -0.0059  0.0938  0.0000  0.0000  0.0982  0.1000  0.0000
  12. Li 2 (px)     0.0000  0.0000  0.0000  0.0000  0.0000  0.0000  0.0000  0.0000
  13. Li 2 (py)     0.0000  0.0000  0.0000  0.0000  0.0005  0.0000  0.0000  0.0000
  14. Li 2 (pz)    -0.1301 -0.0900  0.0982  0.0000  0.0000  0.1063  0.1086  0.0000
  15. Li 2 (s)     -0.1366 -0.0994  0.1000  0.0000  0.0000  0.1086  0.1125  0.0000
  16. Li 2 (px)     0.0000  0.0000  0.0000  0.0000  0.0000  0.0000  0.0000  0.0000
  17. Li 2 (py)     0.0000  0.0000  0.0000  0.0000  0.0007  0.0000  0.0000  0.0000
  18. Li 2 (pz)     0.0175  0.0224 -0.0130  0.0000  0.0000 -0.0145 -0.0148  0.0000
  19.  H 3 (s)      0.0596  0.0155 -0.0224  0.0000  0.0077 -0.0241 -0.0365  0.0000
  20.  H 3 (s)      0.0905  0.0332 -0.0482  0.0000  0.0093 -0.0517 -0.0635  0.0000
  21.  H 4 (s)      0.0596  0.0155 -0.0224  0.0000 -0.0077 -0.0241 -0.0365  0.0000
  22.  H 4 (s)      0.0905  0.0332 -0.0482  0.0000 -0.0093 -0.0517 -0.0635  0.0000

           AO         17      18      19      20      21      22
      ------------ ------- ------- ------- ------- ------- -------
   1.  B 1 (s)      0.0000  0.0087 -0.0662 -0.0290 -0.0662 -0.0290
   2.  B 1 (s)      0.0000 -0.0065  0.0874  0.0664  0.0874  0.0664
   3.  B 1 (px)     0.0000  0.0000  0.0000  0.0000  0.0000  0.0000
   4.  B 1 (py)     0.0153  0.0000  0.1757  0.2130 -0.1757 -0.2130
   5.  B 1 (pz)     0.0000  0.0191  0.1092  0.1388  0.1092  0.1388
   6.  B 1 (s)      0.0000 -0.0199  0.0768  0.0274  0.0768  0.0274
   7.  B 1 (px)     0.0000  0.0000  0.0000  0.0000  0.0000  0.0000
   8.  B 1 (py)     0.0061  0.0000  0.0704  0.0854 -0.0704 -0.0854
   9.  B 1 (pz)     0.0000  0.0175  0.0596  0.0905  0.0596  0.0905
  10. Li 2 (s)      0.0000  0.0224  0.0155  0.0332  0.0155  0.0332
  11. Li 2 (s)      0.0000 -0.0130 -0.0224 -0.0482 -0.0224 -0.0482
  12. Li 2 (px)     0.0000  0.0000  0.0000  0.0000  0.0000  0.0000
  13. Li 2 (py)     0.0007  0.0000  0.0077  0.0093 -0.0077 -0.0093
  14. Li 2 (pz)     0.0000 -0.0145 -0.0241 -0.0517 -0.0241 -0.0517
  15. Li 2 (s)      0.0000 -0.0148 -0.0365 -0.0635 -0.0365 -0.0635
  16. Li 2 (px)     0.0000  0.0000  0.0000  0.0000  0.0000  0.0000
  17. Li 2 (py)     0.0009  0.0000  0.0107  0.0130 -0.0107 -0.0130
  18. Li 2 (pz)     0.0000  0.0020  0.0028  0.0066  0.0028  0.0066
  19.  H 3 (s)      0.0107  0.0028  0.2225  0.2452 -0.0237 -0.0534
  20.  H 3 (s)      0.0130  0.0066  0.2452  0.2818 -0.0534 -0.0801
  21.  H 4 (s)     -0.0107  0.0028 -0.0237 -0.0534  0.2225  0.2452
  22.  H 4 (s)     -0.0130  0.0066 -0.0534 -0.0801  0.2452  0.2818


 AO density matrix:

           AO          1       2       3       4       5       6       7       8
      ------------ ------- ------- ------- ------- ------- ------- ------- -------
   1.  B 1 (s)      1.9986  0.3963  0.0000  0.0000 -0.0013  0.4108  0.0000  0.0000
   2.  B 1 (s)      0.3963  1.4155  0.0000  0.0000  0.0659  1.6303  0.0000  0.0000
   3.  B 1 (px)     0.0000  0.0000  0.0000  0.0000  0.0000  0.0000  0.0000  0.0000
   4.  B 1 (py)     0.0000  0.0000  0.0000  1.1883  0.0000  0.0000  0.0000  1.3536
   5.  B 1 (pz)    -0.0013  0.0659  0.0000  0.0000  1.1261  0.0231  0.0000  0.0000
   6.  B 1 (s)      0.4108  1.6303  0.0000  0.0000  0.0231  1.8855  0.0000  0.0000
   7.  B 1 (px)     0.0000  0.0000  0.0000  0.0000  0.0000  0.0000  0.0000  0.0000
   8.  B 1 (py)     0.0000  0.0000  0.0000  1.3536  0.0000  0.0000  0.0000  1.5420
   9.  B 1 (pz)    -0.0010  0.0142  0.0000  0.0000  1.3667 -0.0598  0.0000  0.0000
  10. Li 2 (s)      0.0001  0.0072  0.0000  0.0000 -0.0199  0.0995  0.0000  0.0000
  11. Li 2 (s)      0.0623  0.7411  0.0000  0.0000 -0.7661  0.9079  0.0000  0.0000
  12. Li 2 (px)     0.0000  0.0000  0.0000  0.0000  0.0000  0.0000  0.0000  0.0000
  13. Li 2 (py)     0.0000  0.0000  0.0000  0.3113  0.0000  0.0000  0.0000  0.3546
  14. Li 2 (pz)     0.1460  0.8627  0.0000  0.0000 -0.3672  1.0141  0.0000  0.0000
  15. Li 2 (s)      0.0710  0.8136  0.0000  0.0000 -0.6060  0.9892  0.0000  0.0000
  16. Li 2 (px)     0.0000  0.0000  0.0000  0.0000  0.0000  0.0000  0.0000  0.0000
  17. Li 2 (py)     0.0000  0.0000  0.0000  0.3731  0.0000  0.0000  0.0000  0.4251
  18. Li 2 (pz)     0.1292  0.8821  0.0000  0.0000  0.0116  1.0197  0.0000  0.0000
  19.  H 3 (s)      0.0530  0.7551  0.0000  0.8994  0.5721  0.8485  0.0000  1.0246
  20.  H 3 (s)      0.2028  1.1690  0.0000  0.7806  0.5018  1.3289  0.0000  0.8892
  21.  H 4 (s)      0.0530  0.7551  0.0000 -0.8994  0.5721  0.8485  0.0000 -1.0246
  22.  H 4 (s)      0.2028  1.1690  0.0000 -0.7806  0.5018  1.3289  0.0000 -0.8892

           AO          9      10      11      12      13      14      15      16
      ------------ ------- ------- ------- ------- ------- ------- ------- -------
   1.  B 1 (s)     -0.0010  0.0001  0.0623  0.0000  0.0000  0.1460  0.0710  0.0000
   2.  B 1 (s)      0.0142  0.0072  0.7411  0.0000  0.0000  0.8627  0.8136  0.0000
   3.  B 1 (px)     0.0000  0.0000  0.0000  0.0000  0.0000  0.0000  0.0000  0.0000
   4.  B 1 (py)     0.0000  0.0000  0.0000  0.0000  0.3113  0.0000  0.0000  0.0000
   5.  B 1 (pz)     1.3667 -0.0199 -0.7661  0.0000  0.0000 -0.3672 -0.6060  0.0000
   6.  B 1 (s)     -0.0598  0.0995  0.9079  0.0000  0.0000  1.0141  0.9892  0.0000
   7.  B 1 (px)     0.0000  0.0000  0.0000  0.0000  0.0000  0.0000  0.0000  0.0000
   8.  B 1 (py)     0.0000  0.0000  0.0000  0.0000  0.3546  0.0000  0.0000  0.0000
   9.  B 1 (pz)     1.6941 -0.2775 -1.0035  0.0000  0.0000 -0.4843 -0.8261  0.0000
  10. Li 2 (s)     -0.2775  1.9995  0.2980  0.0000  0.0000 -0.0170  0.4057  0.0000
  11. Li 2 (s)     -1.0035  0.2980  1.0114  0.0000  0.0000  0.7468  0.9538  0.0000
  12. Li 2 (px)     0.0000  0.0000  0.0000  0.0000  0.0000  0.0000  0.0000  0.0000
  13. Li 2 (py)     0.0000  0.0000  0.0000  0.0000  0.0815  0.0000  0.0000  0.0000
  14. Li 2 (pz)    -0.4843 -0.0170  0.7468  0.0000  0.0000  0.6797  0.7331  0.0000
  15. Li 2 (s)     -0.8261  0.4057  0.9538  0.0000  0.0000  0.7331  0.9279  0.0000
  16. Li 2 (px)     0.0000  0.0000  0.0000  0.0000  0.0000  0.0000  0.0000  0.0000
  17. Li 2 (py)     0.0000  0.0000  0.0000  0.0000  0.0977  0.0000  0.0000  0.0000
  18. Li 2 (pz)    -0.0266 -0.0076  0.4911  0.0000  0.0000  0.5550  0.5320  0.0000
  19.  H 3 (s)      0.6584  0.0013  0.0261  0.0000  0.2356  0.2734  0.1408  0.0000
  20.  H 3 (s)      0.5531  0.0110  0.3048  0.0000  0.2045  0.5564  0.4284  0.0000
  21.  H 4 (s)      0.6584  0.0013  0.0261  0.0000 -0.2356  0.2734  0.1408  0.0000
  22.  H 4 (s)      0.5531  0.0110  0.3048  0.0000 -0.2045  0.5564  0.4284  0.0000

           AO         17      18      19      20      21      22
      ------------ ------- ------- ------- ------- ------- -------
   1.  B 1 (s)      0.0000  0.1292  0.0530  0.2028  0.0530  0.2028
   2.  B 1 (s)      0.0000  0.8821  0.7551  1.1690  0.7551  1.1690
   3.  B 1 (px)     0.0000  0.0000  0.0000  0.0000  0.0000  0.0000
   4.  B 1 (py)     0.3731  0.0000  0.8994  0.7806 -0.8994 -0.7806
   5.  B 1 (pz)     0.0000  0.0116  0.5721  0.5018  0.5721  0.5018
   6.  B 1 (s)      0.0000  1.0197  0.8485  1.3289  0.8485  1.3289
   7.  B 1 (px)     0.0000  0.0000  0.0000  0.0000  0.0000  0.0000
   8.  B 1 (py)     0.4251  0.0000  1.0246  0.8892 -1.0246 -0.8892
   9.  B 1 (pz)     0.0000 -0.0266  0.6584  0.5531  0.6584  0.5531
  10. Li 2 (s)      0.0000 -0.0076  0.0013  0.0110  0.0013  0.0110
  11. Li 2 (s)      0.0000  0.4911  0.0261  0.3048  0.0261  0.3048
  12. Li 2 (px)     0.0000  0.0000  0.0000  0.0000  0.0000  0.0000
  13. Li 2 (py)     0.0977  0.0000  0.2356  0.2045 -0.2356 -0.2045
  14. Li 2 (pz)     0.0000  0.5550  0.2734  0.5564  0.2734  0.5564
  15. Li 2 (s)      0.0000  0.5320  0.1408  0.4284  0.1408  0.4284
  16. Li 2 (px)     0.0000  0.0000  0.0000  0.0000  0.0000  0.0000
  17. Li 2 (py)     0.1172  0.0000  0.2824  0.2451 -0.2824 -0.2451
  18. Li 2 (pz)     0.0000  0.5579  0.4657  0.7240  0.4657  0.7240
  19.  H 3 (s)      0.2824  0.4657  1.3521  1.4376 -0.0094  0.2560
  20.  H 3 (s)      0.2451  0.7240  1.4376  1.6637  0.2560  0.6382
  21.  H 4 (s)     -0.2824  0.4657 -0.0094  0.2560  1.3521  1.4376
  22.  H 4 (s)     -0.2451  0.7240  0.2560  0.6382  1.4376  1.6637


 MO density matrix:

      MO     1       2       3       4       5       6       7       8       9
     ---- ------  ------  ------  ------  ------  ------  ------  ------  ------
   1.     2.0000  0.0000  0.0000  0.0000  0.0000  0.0000  0.0000  0.0000  0.0000
   2.     0.0000  2.0000  0.0000  0.0000  0.0000  0.0000  0.0000  0.0000  0.0000
   3.     0.0000  0.0000  2.0000  0.0000  0.0000  0.0000  0.0000  0.0000  0.0000
   4.     0.0000  0.0000  0.0000  2.0000  0.0000  0.0000  0.0000  0.0000  0.0000
   5.     0.0000  0.0000  0.0000  0.0000  2.0000  0.0000  0.0000  0.0000  0.0000
   6.     0.0000  0.0000  0.0000  0.0000  0.0000  0.0000  0.0000  0.0000  0.0000
   7.     0.0000  0.0000  0.0000  0.0000  0.0000  0.0000  0.0000  0.0000  0.0000
   8.     0.0000  0.0000  0.0000  0.0000  0.0000  0.0000  0.0000  0.0000  0.0000
   9.     0.0000  0.0000  0.0000  0.0000  0.0000  0.0000  0.0000  0.0000  0.0000
  10.     0.0000  0.0000  0.0000  0.0000  0.0000  0.0000  0.0000  0.0000  0.0000
  11.     0.0000  0.0000  0.0000  0.0000  0.0000  0.0000  0.0000  0.0000  0.0000
  12.     0.0000  0.0000  0.0000  0.0000  0.0000  0.0000  0.0000  0.0000  0.0000
  13.     0.0000  0.0000  0.0000  0.0000  0.0000  0.0000  0.0000  0.0000  0.0000
  14.     0.0000  0.0000  0.0000  0.0000  0.0000  0.0000  0.0000  0.0000  0.0000
  15.     0.0000  0.0000  0.0000  0.0000  0.0000  0.0000  0.0000  0.0000  0.0000
  16.     0.0000  0.0000  0.0000  0.0000  0.0000  0.0000  0.0000  0.0000  0.0000
  17.     0.0000  0.0000  0.0000  0.0000  0.0000  0.0000  0.0000  0.0000  0.0000
  18.     0.0000  0.0000  0.0000  0.0000  0.0000  0.0000  0.0000  0.0000  0.0000
  19.     0.0000  0.0000  0.0000  0.0000  0.0000  0.0000  0.0000  0.0000  0.0000
  20.     0.0000  0.0000  0.0000  0.0000  0.0000  0.0000  0.0000  0.0000  0.0000
  21.     0.0000  0.0000  0.0000  0.0000  0.0000  0.0000  0.0000  0.0000  0.0000
  22.     0.0000  0.0000  0.0000  0.0000  0.0000  0.0000  0.0000  0.0000  0.0000

      MO    10      11      12      13      14      15      16      17      18
     ---- ------  ------  ------  ------  ------  ------  ------  ------  ------
   1.     0.0000  0.0000  0.0000  0.0000  0.0000  0.0000  0.0000  0.0000  0.0000
   2.     0.0000  0.0000  0.0000  0.0000  0.0000  0.0000  0.0000  0.0000  0.0000
   3.     0.0000  0.0000  0.0000  0.0000  0.0000  0.0000  0.0000  0.0000  0.0000
   4.     0.0000  0.0000  0.0000  0.0000  0.0000  0.0000  0.0000  0.0000  0.0000
   5.     0.0000  0.0000  0.0000  0.0000  0.0000  0.0000  0.0000  0.0000  0.0000
   6.     0.0000  0.0000  0.0000  0.0000  0.0000  0.0000  0.0000  0.0000  0.0000
   7.     0.0000  0.0000  0.0000  0.0000  0.0000  0.0000  0.0000  0.0000  0.0000
   8.     0.0000  0.0000  0.0000  0.0000  0.0000  0.0000  0.0000  0.0000  0.0000
   9.     0.0000  0.0000  0.0000  0.0000  0.0000  0.0000  0.0000  0.0000  0.0000
  10.     0.0000  0.0000  0.0000  0.0000  0.0000  0.0000  0.0000  0.0000  0.0000
  11.     0.0000  0.0000  0.0000  0.0000  0.0000  0.0000  0.0000  0.0000  0.0000
  12.     0.0000  0.0000  0.0000  0.0000  0.0000  0.0000  0.0000  0.0000  0.0000
  13.     0.0000  0.0000  0.0000  0.0000  0.0000  0.0000  0.0000  0.0000  0.0000
  14.     0.0000  0.0000  0.0000  0.0000  0.0000  0.0000  0.0000  0.0000  0.0000
  15.     0.0000  0.0000  0.0000  0.0000  0.0000  0.0000  0.0000  0.0000  0.0000
  16.     0.0000  0.0000  0.0000  0.0000  0.0000  0.0000  0.0000  0.0000  0.0000
  17.     0.0000  0.0000  0.0000  0.0000  0.0000  0.0000  0.0000  0.0000  0.0000
  18.     0.0000  0.0000  0.0000  0.0000  0.0000  0.0000  0.0000  0.0000  0.0000
  19.     0.0000  0.0000  0.0000  0.0000  0.0000  0.0000  0.0000  0.0000  0.0000
  20.     0.0000  0.0000  0.0000  0.0000  0.0000  0.0000  0.0000  0.0000  0.0000
  21.     0.0000  0.0000  0.0000  0.0000  0.0000  0.0000  0.0000  0.0000  0.0000
  22.     0.0000  0.0000  0.0000  0.0000  0.0000  0.0000  0.0000  0.0000  0.0000

      MO    19      20      21      22
     ---- ------  ------  ------  ------
   1.     0.0000  0.0000  0.0000  0.0000
   2.     0.0000  0.0000  0.0000  0.0000
   3.     0.0000  0.0000  0.0000  0.0000
   4.     0.0000  0.0000  0.0000  0.0000
   5.     0.0000  0.0000  0.0000  0.0000
   6.     0.0000  0.0000  0.0000  0.0000
   7.     0.0000  0.0000  0.0000  0.0000
   8.     0.0000  0.0000  0.0000  0.0000
   9.     0.0000  0.0000  0.0000  0.0000
  10.     0.0000  0.0000  0.0000  0.0000
  11.     0.0000  0.0000  0.0000  0.0000
  12.     0.0000  0.0000  0.0000  0.0000
  13.     0.0000  0.0000  0.0000  0.0000
  14.     0.0000  0.0000  0.0000  0.0000
  15.     0.0000  0.0000  0.0000  0.0000
  16.     0.0000  0.0000  0.0000  0.0000
  17.     0.0000  0.0000  0.0000  0.0000
  18.     0.0000  0.0000  0.0000  0.0000
  19.     0.0000  0.0000  0.0000  0.0000
  20.     0.0000  0.0000  0.0000  0.0000
  21.     0.0000  0.0000  0.0000  0.0000
  22.     0.0000  0.0000  0.0000  0.0000


 NATURAL POPULATIONS:  Natural atomic orbital occupancies

  NAO Atom No lang   Type(AO)    Occupancy      Energy
 -------------------------------------------------------
   1    B  1  s      Cor( 1s)     1.99996      -7.51976
   2    B  1  s      Val( 2s)     1.20711      -0.08376
   3    B  1  s      Ryd( 3s)     0.01221       1.02614
   4    B  1  px     Val( 2p)     0.00000       0.17637
   5    B  1  px     Ryd( 3p)     0.00000       0.80425
   6    B  1  py     Val( 2p)     0.82179       0.21233
   7    B  1  py     Ryd( 3p)     0.00644       0.79196
   8    B  1  pz     Val( 2p)     1.22823       0.04488
   9    B  1  pz     Ryd( 3p)     0.01181       0.83898

  10   Li  2  s      Cor( 1s)     1.99995      -2.42798
  11   Li  2  s      Val( 2s)     0.40434       0.01758
  12   Li  2  s      Ryd( 3s)     0.00062       0.31006
  13   Li  2  px     Ryd( 3p)     0.00000       0.18713
  14   Li  2  px     Ryd( 2p)     0.00000       0.17536
  15   Li  2  py     Ryd( 3p)     0.00092       0.24120
  16   Li  2  py     Ryd( 2p)     0.00041       0.18537
  17   Li  2  pz     Ryd( 3p)     0.02375       0.50275
  18   Li  2  pz     Ryd( 2p)     0.00004       0.24190

  19    H  3  s      Val( 1s)     1.14104       0.02574
  20    H  3  s      Ryd( 2s)     0.00018       0.91639

  21    H  4  s      Val( 1s)     1.14104       0.02574
  22    H  4  s      Ryd( 2s)     0.00018       0.91639


 Summary of Natural Population Analysis:

                                     Natural Population
             Natural    ---------------------------------------------
  Atom No    Charge        Core      Valence    Rydberg      Total
 --------------------------------------------------------------------
    B  1   -0.28753      1.99996     3.25712    0.03046     5.28753
   Li  2    0.56997      1.99995     0.40434    0.02573     2.43003
    H  3   -0.14122      0.00000     1.14104    0.00018     1.14122
    H  4   -0.14122      0.00000     1.14104    0.00018     1.14122
 ====================================================================
 * Total *  0.00000      3.99991     5.94354    0.05655    10.00000

                                 Natural Population
 ---------------------------------------------------------
   Core                       3.99991 ( 99.9976% of    4)
   Valence                    5.94354 ( 99.0590% of    6)
   Natural Minimal Basis      9.94345 ( 99.4345% of   10)
   Natural Rydberg Basis      0.05655 (  0.5655% of   10)
 ---------------------------------------------------------

    Atom No         Natural Electron Configuration
 ----------------------------------------------------------------------------
      B  1      [core]2s( 1.21)2p( 2.05)3s( 0.01)3p( 0.02)
     Li  2      [core]2s( 0.40)3p( 0.02)
      H  3            1s( 1.14)
      H  4            1s( 1.14)


 PNAOs in the AO basis:

           AO          1       2       3       4       5       6       7       8
      ------------ ------- ------- ------- ------- ------- ------- ------- -------
   1.  B 1 (s)      0.9952 -0.2289 -0.0402  0.0000  0.0000  0.0000  0.0000  0.0000
   2.  B 1 (s)      0.0496  0.0644  1.8589  0.0000  0.0000  0.0000  0.0000  0.0000
   3.  B 1 (px)     0.0000  0.0000  0.0000  0.3507  1.2227  0.0000  0.0000  0.0000
   4.  B 1 (py)     0.0000  0.0000  0.0000  0.0000  0.0000  0.3507  1.2227  0.0000
   5.  B 1 (pz)     0.0000  0.0000  0.0000  0.0000  0.0000  0.0000  0.0000  0.3507
   6.  B 1 (s)     -0.0238  0.9668 -1.5989  0.0000  0.0000  0.0000  0.0000  0.0000
   7.  B 1 (px)     0.0000  0.0000  0.0000  0.7445 -1.0313  0.0000  0.0000  0.0000
   8.  B 1 (py)     0.0000  0.0000  0.0000  0.0000  0.0000  0.7445 -1.0313  0.0000
   9.  B 1 (pz)     0.0000  0.0000  0.0000  0.0000  0.0000  0.0000  0.0000  0.7445
  10. Li 2 (s)      0.0000  0.0000  0.0000  0.0000  0.0000  0.0000  0.0000  0.0000
  11. Li 2 (s)      0.0000  0.0000  0.0000  0.0000  0.0000  0.0000  0.0000  0.0000
  12. Li 2 (px)     0.0000  0.0000  0.0000  0.0000  0.0000  0.0000  0.0000  0.0000
  13. Li 2 (py)     0.0000  0.0000  0.0000  0.0000  0.0000  0.0000  0.0000  0.0000
  14. Li 2 (pz)     0.0000  0.0000  0.0000  0.0000  0.0000  0.0000  0.0000  0.0000
  15. Li 2 (s)      0.0000  0.0000  0.0000  0.0000  0.0000  0.0000  0.0000  0.0000
  16. Li 2 (px)     0.0000  0.0000  0.0000  0.0000  0.0000  0.0000  0.0000  0.0000
  17. Li 2 (py)     0.0000  0.0000  0.0000  0.0000  0.0000  0.0000  0.0000  0.0000
  18. Li 2 (pz)     0.0000  0.0000  0.0000  0.0000  0.0000  0.0000  0.0000  0.0000
  19.  H 3 (s)      0.0000  0.0000  0.0000  0.0000  0.0000  0.0000  0.0000  0.0000
  20.  H 3 (s)      0.0000  0.0000  0.0000  0.0000  0.0000  0.0000  0.0000  0.0000
  21.  H 4 (s)      0.0000  0.0000  0.0000  0.0000  0.0000  0.0000  0.0000  0.0000
  22.  H 4 (s)      0.0000  0.0000  0.0000  0.0000  0.0000  0.0000  0.0000  0.0000

           AO          9      10      11      12      13      14      15      16
      ------------ ------- ------- ------- ------- ------- ------- ------- -------
   1.  B 1 (s)      0.0000  0.0000  0.0000  0.0000  0.0000  0.0000  0.0000  0.0000
   2.  B 1 (s)      0.0000  0.0000  0.0000  0.0000  0.0000  0.0000  0.0000  0.0000
   3.  B 1 (px)     0.0000  0.0000  0.0000  0.0000  0.0000  0.0000  0.0000  0.0000
   4.  B 1 (py)     0.0000  0.0000  0.0000  0.0000  0.0000  0.0000  0.0000  0.0000
   5.  B 1 (pz)     1.2227  0.0000  0.0000  0.0000  0.0000  0.0000  0.0000  0.0000
   6.  B 1 (s)      0.0000  0.0000  0.0000  0.0000  0.0000  0.0000  0.0000  0.0000
   7.  B 1 (px)     0.0000  0.0000  0.0000  0.0000  0.0000  0.0000  0.0000  0.0000
   8.  B 1 (py)     0.0000  0.0000  0.0000  0.0000  0.0000  0.0000  0.0000  0.0000
   9.  B 1 (pz)    -1.0313  0.0000  0.0000  0.0000  0.0000  0.0000  0.0000  0.0000
  10. Li 2 (s)      0.0000  0.9984 -0.1700 -0.1576  0.0000  0.0000  0.0000  0.0000
  11. Li 2 (s)      0.0000  0.0328  0.8629 -2.2646  0.0000  0.0000  0.0000  0.0000
  12. Li 2 (px)     0.0000  0.0000  0.0000  0.0000  0.7949 -1.5109  0.0000  0.0000
  13. Li 2 (py)     0.0000  0.0000  0.0000  0.0000  0.0000  0.0000  0.7949 -1.5109
  14. Li 2 (pz)     0.0000  0.0000  0.0000  0.0000  0.0000  0.0000  0.0000  0.0000
  15. Li 2 (s)      0.0000 -0.0159  0.1607  2.4426  0.0000  0.0000  0.0000  0.0000
  16. Li 2 (px)     0.0000  0.0000  0.0000  0.0000  0.2407  1.6902  0.0000  0.0000
  17. Li 2 (py)     0.0000  0.0000  0.0000  0.0000  0.0000  0.0000  0.2407  1.6902
  18. Li 2 (pz)     0.0000  0.0000  0.0000  0.0000  0.0000  0.0000  0.0000  0.0000
  19.  H 3 (s)      0.0000  0.0000  0.0000  0.0000  0.0000  0.0000  0.0000  0.0000
  20.  H 3 (s)      0.0000  0.0000  0.0000  0.0000  0.0000  0.0000  0.0000  0.0000
  21.  H 4 (s)      0.0000  0.0000  0.0000  0.0000  0.0000  0.0000  0.0000  0.0000
  22.  H 4 (s)      0.0000  0.0000  0.0000  0.0000  0.0000  0.0000  0.0000  0.0000

           AO         17      18      19      20      21      22
      ------------ ------- ------- ------- ------- ------- -------
   1.  B 1 (s)      0.0000  0.0000  0.0000  0.0000  0.0000  0.0000
   2.  B 1 (s)      0.0000  0.0000  0.0000  0.0000  0.0000  0.0000
   3.  B 1 (px)     0.0000  0.0000  0.0000  0.0000  0.0000  0.0000
   4.  B 1 (py)     0.0000  0.0000  0.0000  0.0000  0.0000  0.0000
   5.  B 1 (pz)     0.0000  0.0000  0.0000  0.0000  0.0000  0.0000
   6.  B 1 (s)      0.0000  0.0000  0.0000  0.0000  0.0000  0.0000
   7.  B 1 (px)     0.0000  0.0000  0.0000  0.0000  0.0000  0.0000
   8.  B 1 (py)     0.0000  0.0000  0.0000  0.0000  0.0000  0.0000
   9.  B 1 (pz)     0.0000  0.0000  0.0000  0.0000  0.0000  0.0000
  10. Li 2 (s)      0.0000  0.0000  0.0000  0.0000  0.0000  0.0000
  11. Li 2 (s)      0.0000  0.0000  0.0000  0.0000  0.0000  0.0000
  12. Li 2 (px)     0.0000  0.0000  0.0000  0.0000  0.0000  0.0000
  13. Li 2 (py)     0.0000  0.0000  0.0000  0.0000  0.0000  0.0000
  14. Li 2 (pz)     0.7949 -1.5109  0.0000  0.0000  0.0000  0.0000
  15. Li 2 (s)      0.0000  0.0000  0.0000  0.0000  0.0000  0.0000
  16. Li 2 (px)     0.0000  0.0000  0.0000  0.0000  0.0000  0.0000
  17. Li 2 (py)     0.0000  0.0000  0.0000  0.0000  0.0000  0.0000
  18. Li 2 (pz)     0.2407  1.6902  0.0000  0.0000  0.0000  0.0000
  19.  H 3 (s)      0.0000  0.0000  0.3891  1.2702  0.0000  0.0000
  20.  H 3 (s)      0.0000  0.0000  0.7000 -1.1290  0.0000  0.0000
  21.  H 4 (s)      0.0000  0.0000  0.0000  0.0000  0.3891  1.2702
  22.  H 4 (s)      0.0000  0.0000  0.0000  0.0000  0.7000 -1.1290


 PNAO overlap matrix:

           NAO         1       2       3       4       5       6       7       8
      ------------ ------- ------- ------- ------- ------- ------- ------- -------
   1.  B 1( 1s )    1.0000  0.0000  0.0000  0.0000  0.0000  0.0000  0.0000  0.0000
   2.  B 1( 2s )    0.0000  1.0000  0.0000  0.0000  0.0000  0.0000  0.0000  0.0000
   3.  B 1( 3s )    0.0000  0.0000  1.0000  0.0000  0.0000  0.0000  0.0000  0.0000
   4.  B 1( 2px)    0.0000  0.0000  0.0000  1.0000  0.0000  0.0000  0.0000  0.0000
   5.  B 1( 3px)    0.0000  0.0000  0.0000  0.0000  1.0000  0.0000  0.0000  0.0000
   6.  B 1( 2py)    0.0000  0.0000  0.0000  0.0000  0.0000  1.0000  0.0000  0.0000
   7.  B 1( 3py)    0.0000  0.0000  0.0000  0.0000  0.0000  0.0000  1.0000  0.0000
   8.  B 1( 2pz)    0.0000  0.0000  0.0000  0.0000  0.0000  0.0000  0.0000  1.0000
   9.  B 1( 3pz)    0.0000  0.0000  0.0000  0.0000  0.0000  0.0000  0.0000  0.0000
  10. Li 2( 1s )   -0.0004  0.0551 -0.0742  0.0000  0.0000  0.0000  0.0000 -0.1164
  11. Li 2( 2s )    0.0399  0.3919 -0.2177  0.0000  0.0000  0.0000  0.0000 -0.3486
  12. Li 2( 3s )    0.0187  0.1696 -0.1116  0.0000  0.0000  0.0000  0.0000  0.2485
  13. Li 2( 3px)    0.0000  0.0000  0.0000  0.3145 -0.2373  0.0000  0.0000  0.0000
  14. Li 2( 2px)    0.0000  0.0000  0.0000  0.0604 -0.0713  0.0000  0.0000  0.0000
  15. Li 2( 3py)    0.0000  0.0000  0.0000  0.0000  0.0000  0.3145 -0.2373  0.0000
  16. Li 2( 2py)    0.0000  0.0000  0.0000  0.0000  0.0000  0.0604 -0.0713  0.0000
  17. Li 2( 3pz)    0.0821  0.5676 -0.1923  0.0000  0.0000  0.0000  0.0000 -0.2509
  18. Li 2( 2pz)   -0.0001  0.1198 -0.1436  0.0000  0.0000  0.0000  0.0000  0.4054
  19.  H 3( 1s )    0.0934  0.6089 -0.1340  0.0000  0.0000  0.4914 -0.1392  0.3289
  20.  H 3( 2s )   -0.0823 -0.3204  0.1320  0.0000  0.0000 -0.0077  0.1904 -0.0052
  21.  H 4( 1s )    0.0934  0.6089 -0.1340  0.0000  0.0000 -0.4914  0.1392  0.3289
  22.  H 4( 2s )   -0.0823 -0.3204  0.1320  0.0000  0.0000  0.0077 -0.1904 -0.0052

           NAO         9      10      11      12      13      14      15      16
      ------------ ------- ------- ------- ------- ------- ------- ------- -------
   1.  B 1( 1s )    0.0000 -0.0004  0.0399  0.0187  0.0000  0.0000  0.0000  0.0000
   2.  B 1( 2s )    0.0000  0.0551  0.3919  0.1696  0.0000  0.0000  0.0000  0.0000
   3.  B 1( 3s )    0.0000 -0.0742 -0.2177 -0.1116  0.0000  0.0000  0.0000  0.0000
   4.  B 1( 2px)    0.0000  0.0000  0.0000  0.0000  0.3145  0.0604  0.0000  0.0000
   5.  B 1( 3px)    0.0000  0.0000  0.0000  0.0000 -0.2373 -0.0713  0.0000  0.0000
   6.  B 1( 2py)    0.0000  0.0000  0.0000  0.0000  0.0000  0.0000  0.3145  0.0604
   7.  B 1( 3py)    0.0000  0.0000  0.0000  0.0000  0.0000  0.0000 -0.2373 -0.0713
   8.  B 1( 2pz)    0.0000 -0.1164 -0.3486  0.2485  0.0000  0.0000  0.0000  0.0000
   9.  B 1( 3pz)    1.0000  0.1337  0.2354 -0.1146  0.0000  0.0000  0.0000  0.0000
  10. Li 2( 1s )    0.1337  1.0000  0.0000  0.0000  0.0000  0.0000  0.0000  0.0000
  11. Li 2( 2s )    0.2354  0.0000  1.0000  0.0000  0.0000  0.0000  0.0000  0.0000
  12. Li 2( 3s )   -0.1146  0.0000  0.0000  1.0000  0.0000  0.0000  0.0000  0.0000
  13. Li 2( 3px)    0.0000  0.0000  0.0000  0.0000  1.0000  0.0000  0.0000  0.0000
  14. Li 2( 2px)    0.0000  0.0000  0.0000  0.0000  0.0000  1.0000  0.0000  0.0000
  15. Li 2( 3py)    0.0000  0.0000  0.0000  0.0000  0.0000  0.0000  1.0000  0.0000
  16. Li 2( 2py)    0.0000  0.0000  0.0000  0.0000  0.0000  0.0000  0.0000  1.0000
  17. Li 2( 3pz)    0.0913  0.0000  0.0000  0.0000  0.0000  0.0000  0.0000  0.0000
  18. Li 2( 2pz)   -0.1824  0.0000  0.0000  0.0000  0.0000  0.0000  0.0000  0.0000
  19.  H 3( 1s )   -0.0931  0.0048  0.1464  0.2169  0.0000  0.0000  0.0979  0.0873
  20.  H 3( 2s )    0.1274 -0.0076 -0.1394 -0.1384  0.0000  0.0000 -0.0770 -0.0525
  21.  H 4( 1s )   -0.0931  0.0048  0.1464  0.2169  0.0000  0.0000 -0.0979 -0.0873
  22.  H 4( 2s )    0.1274 -0.0076 -0.1394 -0.1384  0.0000  0.0000  0.0770  0.0525

           NAO        17      18      19      20      21      22
      ------------ ------- ------- ------- ------- ------- -------
   1.  B 1( 1s )    0.0821 -0.0001  0.0934 -0.0823  0.0934 -0.0823
   2.  B 1( 2s )    0.5676  0.1198  0.6089 -0.3204  0.6089 -0.3204
   3.  B 1( 3s )   -0.1923 -0.1436 -0.1340  0.1320 -0.1340  0.1320
   4.  B 1( 2px)    0.0000  0.0000  0.0000  0.0000  0.0000  0.0000
   5.  B 1( 3px)    0.0000  0.0000  0.0000  0.0000  0.0000  0.0000
   6.  B 1( 2py)    0.0000  0.0000  0.4914 -0.0077 -0.4914  0.0077
   7.  B 1( 3py)    0.0000  0.0000 -0.1392  0.1904  0.1392 -0.1904
   8.  B 1( 2pz)   -0.2509  0.4054  0.3289 -0.0052  0.3289 -0.0052
   9.  B 1( 3pz)    0.0913 -0.1824 -0.0931  0.1274 -0.0931  0.1274
  10. Li 2( 1s )    0.0000  0.0000  0.0048 -0.0076  0.0048 -0.0076
  11. Li 2( 2s )    0.0000  0.0000  0.1464 -0.1394  0.1464 -0.1394
  12. Li 2( 3s )    0.0000  0.0000  0.2169 -0.1384  0.2169 -0.1384
  13. Li 2( 3px)    0.0000  0.0000  0.0000  0.0000  0.0000  0.0000
  14. Li 2( 2px)    0.0000  0.0000  0.0000  0.0000  0.0000  0.0000
  15. Li 2( 3py)    0.0000  0.0000  0.0979 -0.0770 -0.0979  0.0770
  16. Li 2( 2py)    0.0000  0.0000  0.0873 -0.0525 -0.0873  0.0525
  17. Li 2( 3pz)    1.0000  0.0000  0.2877 -0.2262  0.2877 -0.2262
  18. Li 2( 2pz)    0.0000  1.0000  0.2564 -0.1542  0.2564 -0.1542
  19.  H 3( 1s )    0.2877  0.2564  1.0000  0.0000  0.2305 -0.2132
  20.  H 3( 2s )   -0.2262 -0.1542  0.0000  1.0000 -0.2132  0.1220
  21.  H 4( 1s )    0.2877  0.2564  0.2305 -0.2132  1.0000  0.0000
  22.  H 4( 2s )   -0.2262 -0.1542 -0.2132  0.1220  0.0000  1.0000


 PNAO density matrix:

           NAO         1       2       3       4       5       6       7       8
      ------------ ------- ------- ------- ------- ------- ------- ------- -------
   1.  B 1( 1s )    2.0000  0.0000  0.0000  0.0000  0.0000  0.0000  0.0000  0.0014
   2.  B 1( 2s )    0.0000  1.8826  0.0000  0.0000  0.0000  0.0000  0.0000 -0.0328
   3.  B 1( 3s )    0.0000  0.0000  0.0169  0.0000  0.0000  0.0000  0.0000  0.1210
   4.  B 1( 2px)    0.0000  0.0000  0.0000  0.0000  0.0000  0.0000  0.0000  0.0000
   5.  B 1( 3px)    0.0000  0.0000  0.0000  0.0000  0.0000  0.0000  0.0000  0.0000
   6.  B 1( 2py)    0.0000  0.0000  0.0000  0.0000  0.0000  1.7077  0.0681  0.0000
   7.  B 1( 3py)    0.0000  0.0000  0.0000  0.0000  0.0000  0.0681  0.0027  0.0000
   8.  B 1( 2pz)    0.0014 -0.0328  0.1210  0.0000  0.0000  0.0000  0.0000  1.7912
   9.  B 1( 3pz)    0.0006  0.0913 -0.0211  0.0000  0.0000  0.0000  0.0000 -0.0681
  10. Li 2( 1s )   -0.0007  0.1106 -0.1469  0.0000  0.0000  0.0000  0.0000 -0.2334
  11. Li 2( 2s )    0.0810  0.9294 -0.0527  0.0000  0.0000  0.0000  0.0000 -0.9732
  12. Li 2( 3s )    0.0392  0.3455  0.0201  0.0000  0.0000  0.0000  0.0000  0.3126
  13. Li 2( 3px)    0.0000  0.0000  0.0000  0.0000  0.0000  0.0000  0.0000  0.0000
  14. Li 2( 2px)    0.0000  0.0000  0.0000  0.0000  0.0000  0.0000  0.0000  0.0000
  15. Li 2( 3py)    0.0000  0.0000  0.0000  0.0000  0.0000  0.4043  0.0161  0.0000
  16. Li 2( 2py)    0.0000  0.0000  0.0000  0.0000  0.0000  0.1923  0.0077  0.0000
  17. Li 2( 3pz)    0.1660  1.0409 -0.0178  0.0000  0.0000  0.0000  0.0000 -0.3928
  18. Li 2( 2pz)    0.0026  0.1975  0.0425  0.0000  0.0000  0.0000  0.0000  0.7128
  19.  H 3( 1s )    0.1870  1.2530  0.0456  0.0000  0.0000  1.0746  0.0429  0.6802
  20.  H 3( 2s )   -0.1687 -0.3949  0.0117  0.0000  0.0000  0.3130  0.0125  0.2138
  21.  H 4( 1s )    0.1870  1.2530  0.0456  0.0000  0.0000 -1.0746 -0.0429  0.6802
  22.  H 4( 2s )   -0.1687 -0.3949  0.0117  0.0000  0.0000 -0.3130 -0.0125  0.2138

           NAO         9      10      11      12      13      14      15      16
      ------------ ------- ------- ------- ------- ------- ------- ------- -------
   1.  B 1( 1s )    0.0006 -0.0007  0.0810  0.0392  0.0000  0.0000  0.0000  0.0000
   2.  B 1( 2s )    0.0913  0.1106  0.9294  0.3455  0.0000  0.0000  0.0000  0.0000
   3.  B 1( 3s )   -0.0211 -0.1469 -0.0527  0.0201  0.0000  0.0000  0.0000  0.0000
   4.  B 1( 2px)    0.0000  0.0000  0.0000  0.0000  0.0000  0.0000  0.0000  0.0000
   5.  B 1( 3px)    0.0000  0.0000  0.0000  0.0000  0.0000  0.0000  0.0000  0.0000
   6.  B 1( 2py)    0.0000  0.0000  0.0000  0.0000  0.0000  0.0000  0.4043  0.1923
   7.  B 1( 3py)    0.0000  0.0000  0.0000  0.0000  0.0000  0.0000  0.0161  0.0077
   8.  B 1( 2pz)   -0.0681 -0.2334 -0.9732  0.3126  0.0000  0.0000  0.0000  0.0000
   9.  B 1( 3pz)    0.0385  0.2629  0.0580  0.0076  0.0000  0.0000  0.0000  0.0000
  10. Li 2( 1s )    0.2629  1.9999  0.0000  0.0000  0.0000  0.0000  0.0000  0.0000
  11. Li 2( 2s )    0.0580  0.0000  0.9898  0.0000  0.0000  0.0000  0.0000  0.0000
  12. Li 2( 3s )    0.0076  0.0000  0.0000  0.1211  0.0000  0.0000  0.0000  0.0000
  13. Li 2( 3px)    0.0000  0.0000  0.0000  0.0000  0.0000  0.0000  0.0000  0.0000
  14. Li 2( 2px)    0.0000  0.0000  0.0000  0.0000  0.0000  0.0000  0.0000  0.0000
  15. Li 2( 3py)    0.0000  0.0000  0.0000  0.0000  0.0000  0.0000  0.0957  0.0455
  16. Li 2( 2py)    0.0000  0.0000  0.0000  0.0000  0.0000  0.0000  0.0455  0.0216
  17. Li 2( 3pz)    0.0501 -0.0033  0.7311  0.1264  0.0000  0.0000  0.0000  0.0000
  18. Li 2( 2pz)   -0.0060  0.0063 -0.2931  0.1646  0.0000  0.0000  0.0000  0.0000
  19.  H 3( 1s )    0.0382  0.0099  0.2485  0.3588  0.0000  0.0000  0.2544  0.1210
  20.  H 3( 2s )   -0.0226 -0.0161 -0.3155 -0.0386  0.0000  0.0000  0.0741  0.0352
  21.  H 4( 1s )    0.0382  0.0099  0.2485  0.3588  0.0000  0.0000 -0.2544 -0.1210
  22.  H 4( 2s )   -0.0226 -0.0161 -0.3155 -0.0386  0.0000  0.0000 -0.0741 -0.0352

           NAO        17      18      19      20      21      22
      ------------ ------- ------- ------- ------- ------- -------
   1.  B 1( 1s )    0.1660  0.0026  0.1870 -0.1687  0.1870 -0.1687
   2.  B 1( 2s )    1.0409  0.1975  1.2530 -0.3949  1.2530 -0.3949
   3.  B 1( 3s )   -0.0178  0.0425  0.0456  0.0117  0.0456  0.0117
   4.  B 1( 2px)    0.0000  0.0000  0.0000  0.0000  0.0000  0.0000
   5.  B 1( 3px)    0.0000  0.0000  0.0000  0.0000  0.0000  0.0000
   6.  B 1( 2py)    0.0000  0.0000  1.0746  0.3130 -1.0746 -0.3130
   7.  B 1( 3py)    0.0000  0.0000  0.0429  0.0125 -0.0429 -0.0125
   8.  B 1( 2pz)   -0.3928  0.7128  0.6802  0.2138  0.6802  0.2138
   9.  B 1( 3pz)    0.0501 -0.0060  0.0382 -0.0226  0.0382 -0.0226
  10. Li 2( 1s )   -0.0033  0.0063  0.0099 -0.0161  0.0099 -0.0161
  11. Li 2( 2s )    0.7311 -0.2931  0.2485 -0.3155  0.2485 -0.3155
  12. Li 2( 3s )    0.1264  0.1646  0.3588 -0.0386  0.3588 -0.0386
  13. Li 2( 3px)    0.0000  0.0000  0.0000  0.0000  0.0000  0.0000
  14. Li 2( 2px)    0.0000  0.0000  0.0000  0.0000  0.0000  0.0000
  15. Li 2( 3py)    0.0000  0.0000  0.2544  0.0741 -0.2544 -0.0741
  16. Li 2( 2py)    0.0000  0.0000  0.1210  0.0352 -0.1210 -0.0352
  17. Li 2( 3pz)    0.6742 -0.0455  0.5598 -0.2776  0.5598 -0.2776
  18. Li 2( 2pz)   -0.0455  0.3111  0.4136  0.0427  0.4136  0.0427
  19.  H 3( 1s )    0.5598  0.4136  1.8031  0.0000  0.4508 -0.3939
  20.  H 3( 2s )   -0.2776  0.0427  0.0000  0.1790 -0.3939  0.0642
  21.  H 4( 1s )    0.5598  0.4136  0.4508 -0.3939  1.8031  0.0000
  22.  H 4( 2s )   -0.2776  0.0427 -0.3939  0.0642  0.0000  0.1790


 NAOs in the AO basis:

           AO          1       2       3       4       5       6       7       8
      ------------ ------- ------- ------- ------- ------- ------- ------- -------
   1.  B 1 (s)      0.9952 -0.2616  0.0675  0.0000  0.0000  0.0000  0.0000 -0.0154
   2.  B 1 (s)      0.0496  0.3186  2.1842  0.0000  0.0000  0.0000  0.0000  0.0514
   3.  B 1 (px)     0.0000  0.0000  0.0000  0.5246  1.1639  0.0000  0.0000  0.0000
   4.  B 1 (py)     0.0000  0.0000  0.0000  0.0000  0.0000  0.7059  1.1430  0.0000
   5.  B 1 (pz)     0.0000  0.0915 -0.0546  0.0000  0.0000  0.0000  0.0000  0.6411
   6.  B 1 (s)     -0.0238  1.3364 -3.3826  0.0000  0.0000  0.0000  0.0000  0.2844
   7.  B 1 (px)     0.0000  0.0000  0.0000  0.5855 -1.1416  0.0000  0.0000  0.0000
   8.  B 1 (py)     0.0000  0.0000  0.0000  0.0000  0.0000  0.8346 -2.1148  0.0000
   9.  B 1 (pz)     0.0000  0.1675 -0.4047  0.0000  0.0000  0.0000  0.0000  0.7199
  10. Li 2 (s)      0.0002 -0.0280  0.0398  0.0000  0.0000  0.0000  0.0000  0.0775
  11. Li 2 (s)      0.0000 -0.1000  0.2671  0.0000  0.0000  0.0000  0.0000  0.1250
  12. Li 2 (px)     0.0000  0.0000  0.0000  0.0029  0.0197  0.0000  0.0000  0.0000
  13. Li 2 (py)     0.0000  0.0000  0.0000  0.0000  0.0000  0.0083  0.0567  0.0000
  14. Li 2 (pz)     0.0000  0.0043  0.0459  0.0000  0.0000  0.0000  0.0000 -0.0116
  15. Li 2 (s)      0.0000 -0.0144  0.0817  0.0000  0.0000  0.0000  0.0000  0.0316
  16. Li 2 (px)     0.0000  0.0000  0.0000  0.0015  0.0100  0.0000  0.0000  0.0000
  17. Li 2 (py)     0.0000  0.0000  0.0000  0.0000  0.0000 -0.0002 -0.0013  0.0000
  18. Li 2 (pz)     0.0000  0.0003  0.0034  0.0000  0.0000  0.0000  0.0000  0.0014
  19.  H 3 (s)      0.0000 -0.2421  0.0494  0.0000  0.0000 -0.2701 -0.0463 -0.1898
  20.  H 3 (s)      0.0000 -0.3627  0.8767  0.0000  0.0000 -0.3184  1.0621 -0.2218
  21.  H 4 (s)      0.0000 -0.2421  0.0494  0.0000  0.0000  0.2701  0.0463 -0.1898
  22.  H 4 (s)      0.0000 -0.3627  0.8767  0.0000  0.0000  0.3184 -1.0621 -0.2218

           AO          9      10      11      12      13      14      15      16
      ------------ ------- ------- ------- ------- ------- ------- ------- -------
   1.  B 1 (s)      0.0335  0.0002  0.0248  0.0024  0.0000  0.0000  0.0000  0.0000
   2.  B 1 (s)      0.1262  0.0000 -0.0095  0.0673  0.0000  0.0000  0.0000  0.0000
   3.  B 1 (px)     0.0000  0.0000  0.0000  0.0000  0.1408  0.1096  0.0000  0.0000
   4.  B 1 (py)     0.0000  0.0000  0.0000  0.0000  0.0000  0.0000  0.2123  0.0450
   5.  B 1 (pz)     1.1696  0.0000  0.0903 -0.0111  0.0000  0.0000  0.0000  0.0000
   6.  B 1 (s)     -0.9992  0.0000 -0.2524  0.0705  0.0000  0.0000  0.0000  0.0000
   7.  B 1 (px)     0.0000  0.0000  0.0000  0.0000 -0.4448 -0.2546  0.0000  0.0000
   8.  B 1 (py)     0.0000  0.0000  0.0000  0.0000  0.0000  0.0000 -1.1674  0.0674
   9.  B 1 (pz)    -1.9026  0.0000  0.1641 -0.2097  0.0000  0.0000  0.0000  0.0000
  10. Li 2 (s)     -0.1402  0.9984 -0.1769 -0.1679  0.0000  0.0000  0.0000  0.0000
  11. Li 2 (s)     -0.4877  0.0328  0.6245 -2.5791  0.0000  0.0000  0.0000  0.0000
  12. Li 2 (px)     0.0000  0.0000  0.0000  0.0000  1.2027 -1.2271  0.0000  0.0000
  13. Li 2 (py)     0.0000  0.0000  0.0000  0.0000  0.0000  0.0000  1.2988 -1.2850
  14. Li 2 (pz)    -0.0797  0.0000 -0.0037 -0.0252  0.0000  0.0000  0.0000  0.0000
  15. Li 2 (s)     -0.0134 -0.0159  0.5664  2.5701  0.0000  0.0000  0.0000  0.0000
  16. Li 2 (px)     0.0000  0.0000  0.0000  0.0000 -0.1659  1.7212  0.0000  0.0000
  17. Li 2 (py)     0.0000  0.0000  0.0000  0.0000  0.0000  0.0000 -0.1961  1.7471
  18. Li 2 (pz)     0.0092  0.0000  0.0058  0.0390  0.0000  0.0000  0.0000  0.0000
  19.  H 3 (s)      0.0023  0.0000 -0.0083  0.0588  0.0000  0.0000  0.0234  0.0803
  20.  H 3 (s)      0.8228  0.0000 -0.0630 -0.2191  0.0000  0.0000  0.6327 -0.3325
  21.  H 4 (s)      0.0023  0.0000 -0.0083  0.0588  0.0000  0.0000 -0.0234 -0.0803
  22.  H 4 (s)      0.8228  0.0000 -0.0630 -0.2191  0.0000  0.0000 -0.6327  0.3325

           AO         17      18      19      20      21      22
      ------------ ------- ------- ------- ------- ------- -------
   1.  B 1 (s)      0.1086  0.0164 -0.0055 -0.0391 -0.0055 -0.0391
   2.  B 1 (s)      0.8270  0.1692 -0.0858 -0.2476 -0.0858 -0.2476
   3.  B 1 (px)     0.0000  0.0000  0.0000  0.0000  0.0000  0.0000
   4.  B 1 (py)     0.0000  0.0000 -0.1559 -0.0175  0.1559  0.0175
   5.  B 1 (pz)    -0.3028  0.0308 -0.1118 -0.0070 -0.1118 -0.0070
   6.  B 1 (s)     -1.9733  0.1267 -0.4215  1.5357 -0.4215  1.5357
   7.  B 1 (px)     0.0000  0.0000  0.0000  0.0000  0.0000  0.0000
   8.  B 1 (py)     0.0000  0.0000 -0.2232  0.7200  0.2232 -0.7200
   9.  B 1 (pz)     1.5022 -0.2340 -0.1603  0.5264 -0.1603  0.5264
  10. Li 2 (s)      0.1181 -0.0729 -0.0044 -0.0033 -0.0044 -0.0033
  11. Li 2 (s)      1.0832 -0.5377 -0.0234 -0.0171 -0.0234 -0.0171
  12. Li 2 (px)     0.0000  0.0000  0.0000  0.0000  0.0000  0.0000
  13. Li 2 (py)     0.0000  0.0000 -0.0026 -0.0180  0.0026  0.0180
  14. Li 2 (pz)     2.0696 -1.5074 -0.0001 -0.0005 -0.0001 -0.0005
  15. Li 2 (s)      0.1738  0.5790  0.0077  0.0804  0.0077  0.0804
  16. Li 2 (px)     0.0000  0.0000  0.0000  0.0000  0.0000  0.0000
  17. Li 2 (py)     0.0000  0.0000  0.0011  0.0075 -0.0011 -0.0075
  18. Li 2 (pz)    -0.2517  2.0406  0.0017  0.0117  0.0017  0.0117
  19.  H 3 (s)      0.0424  0.1498  0.7922  1.0862  0.0007 -0.0267
  20.  H 3 (s)     -0.2083 -0.5359  0.7851 -2.5414  0.0038 -0.0304
  21.  H 4 (s)      0.0424  0.1498  0.0007 -0.0267  0.7922  1.0862
  22.  H 4 (s)     -0.2083 -0.5359  0.0038 -0.0304  0.7851 -2.5414


 NAO density matrix:

           NAO         1       2       3       4       5       6       7       8
      ------------ ------- ------- ------- ------- ------- ------- ------- -------
   1.  B 1( 1s )    2.0000  0.0001  0.0023  0.0000  0.0000  0.0000  0.0000  0.0021
   2.  B 1( 2s )    0.0001  1.2071  0.0000  0.0000  0.0000  0.0000  0.0000 -0.3495
   3.  B 1( 3s )    0.0023  0.0000  0.0122  0.0000  0.0000  0.0000  0.0000  0.1173
   4.  B 1( 2px)    0.0000  0.0000  0.0000  0.0000  0.0000  0.0000  0.0000  0.0000
   5.  B 1( 3px)    0.0000  0.0000  0.0000  0.0000  0.0000  0.0000  0.0000  0.0000
   6.  B 1( 2py)    0.0000  0.0000  0.0000  0.0000  0.0000  0.8218  0.0727  0.0000
   7.  B 1( 3py)    0.0000  0.0000  0.0000  0.0000  0.0000  0.0727  0.0064  0.0000
   8.  B 1( 2pz)    0.0021 -0.3495  0.1173  0.0000  0.0000  0.0000  0.0000  1.2282
   9.  B 1( 3pz)    0.0011  0.1118 -0.0042  0.0000  0.0000  0.0000  0.0000 -0.0727
  10. Li 2( 1s )    0.0000  0.0004  0.0020  0.0000  0.0000  0.0000  0.0000 -0.0015
  11. Li 2( 2s )    0.0019  0.4567 -0.0532  0.0000  0.0000  0.0000  0.0000 -0.6431
  12. Li 2( 3s )    0.0005 -0.0207 -0.0018  0.0000  0.0000  0.0000  0.0000 -0.0113
  13. Li 2( 3px)    0.0000  0.0000  0.0000  0.0000  0.0000  0.0000  0.0000  0.0000
[...]
      Eigenvector ( 2) has occupancy 1.58264
            0.0000 1.0000 0.0000 0.0000 0.0000 0.0000 0.0000 0.0000
            0.0000
           NBO accepted:    2. Label:LP ( 1)   1
        2 eigenvector(s) stashed in permanent list

 Search of NHO DM block for the following atom(s):   2
      Select eigenvectors with eigenvalue > 1.580
       2.000 0.428 0.001 0.001 0.000 0.000 0.000 0.000 0.000
      Eigenvector ( 1) has occupancy 1.99995
            1.0000 0.0000 0.0000 0.0000 0.0000 0.0000 0.0000 0.0000
            0.0000
           NBO accepted:    3. Label:CR ( 1)   2
        1 eigenvector(s) stashed in permanent list

  1-center NBOs projected from the NHO density matrix
       4.417 electrons remain (>1.580); search continues

 Search of NHO DM block for the following atom(s):   1   3
      Select eigenvectors with eigenvalue > 1.580
       1.992 0.002 0.000 0.000 0.000 0.000 0.000 0.000 0.000 0.000 0.000
      Eigenvector ( 1) has occupancy 1.99174
            0.0000 0.0000 0.6538 0.0000 0.0000 0.0000 0.0000 0.0000
            0.0000 0.7566 0.0000
      Occupancy is 1.992 after deleting minor hybrid components
            0.0000 0.0000 0.6538 0.0000 0.0000 0.0000 0.0000 0.0000
            0.0000 0.7566 0.0000
           NBO accepted:    4. Label:BD ( 1)   1   3
      Occupancy is 0.002 for antibonding component
            0.0000 0.0000 0.7566 0.0000 0.0000 0.0000 0.0000 0.0000
            0.0000-0.6538 0.0000
           NBO accepted:    5. Label:BD*( 1)   1   3
        2 eigenvector(s) stashed in permanent list

 Search of NHO DM block for the following atom(s):   1   4
      Select eigenvectors with eigenvalue > 1.580
       1.992 0.002 0.000 0.000 0.000 0.000 0.000 0.000 0.000 0.000 0.000
      Eigenvector ( 1) has occupancy 1.99174
            0.0000 0.0000 0.0000 0.6538 0.0000 0.0000 0.0000 0.0000
            0.0000 0.7566 0.0000
      Occupancy is 1.992 after deleting minor hybrid components
            0.0000 0.0000 0.0000 0.6538 0.0000 0.0000 0.0000 0.0000
            0.0000 0.7566 0.0000
           NBO accepted:    6. Label:BD ( 1)   1   4
      Occupancy is 0.002 for antibonding component
            0.0000 0.0000 0.0000 0.7566 0.0000 0.0000 0.0000 0.0000
            0.0000-0.6538 0.0000
           NBO accepted:    7. Label:BD*( 1)   1   4
        2 eigenvector(s) stashed in permanent list

  2-center NBOs projected from the NHO density matrix
       0.430 electrons remain in the fully projected matrix

                            Occupancies       Lewis Structure    Low   High
         Max    Occ     -------------------  -----------------   occ   occ
  Cycle  Ctr   Thresh    Lewis   non-Lewis     CR  BD  nC  LP    (L)   (NL)
 ============================================================================
    2     2     1.58     9.56602   0.43398      2   2   0   1     0      1

 Initiate 2-center NBO search using THRESH = 1.900 and PRJTHR = 0.300

 Search of NAO DM block for core orbitals on atom:   1
      Eigenvector ( 1) has occupancy 1.99996
            1.0000 0.0000 0.0000 0.0000 0.0000 0.0000 0.0000 0.0000
            0.0000
        1 eigenvector(s) stashed in permanent list

 Search of NAO DM block for core orbitals on atom:   2
      Eigenvector ( 1) has occupancy 1.99995
            1.0000 0.0000 0.0000 0.0000 0.0000 0.0000 0.0000 0.0000
            0.0000
        1 eigenvector(s) stashed in permanent list

 Core orbitals projected from the NAO density matrix
       6.000 electrons remain (>1.900); search continues

 Search of NAO DM block for the following atom(s):   1
      Select eigenvectors with eigenvalue > 1.900
       1.583 0.877 0.828 0.000 0.000 0.000 0.000 0.000 0.000

 No NHOs identified in the 1-center search of the NAO density matrix
       6.000 electrons remain (>1.900); search continues

 Search of NAO DM block for the following atom(s):   1   2
      Select eigenvectors with eigenvalue > 1.900
       2.000 0.888 0.830 0.000 0.000 0.000 0.000 0.000 0.000 0.000 0.000 0.000
       0.000 0.000 0.000 0.000 0.000 0.000
      Eigenvector ( 1) has occupancy 1.99989
            0.0000-0.5770 0.0523 0.0000 0.0000 0.0000 0.0000 0.6698
           -0.0714 0.0000-0.4462 0.0022 0.0000 0.0000 0.0000 0.0000
           -0.1077 0.0030
      1 hybrid on atom 1 stashed in prospective list
      1 hybrid on atom 2 stashed in prospective list

 Search of NAO DM block for the following atom(s):   1   3
      Select eigenvectors with eigenvalue > 1.900
       1.999 1.577 0.853 0.000 0.000 0.000 0.000 0.000 0.000 0.000 0.000
      Eigenvector ( 1) has occupancy 1.99893
            0.0000 0.4236 0.0367 0.0000 0.0000 0.4455 0.0394 0.2296
            0.0266 0.7522-0.0003
      1 hybrid on atom 1 stashed in prospective list
      1 hybrid on atom 3 stashed in prospective list

 Search of NAO DM block for the following atom(s):   1   4
      Select eigenvectors with eigenvalue > 1.900
       1.999 1.577 0.853 0.000 0.000 0.000 0.000 0.000 0.000 0.000 0.000
      Eigenvector ( 1) has occupancy 1.99893
            0.0000 0.4236 0.0367 0.0000 0.0000-0.4455-0.0394 0.2296
            0.0266 0.7522-0.0003
      1 hybrid on atom 1 stashed in prospective list
      1 hybrid on atom 4 stashed in prospective list

 Stash prospective hybrids having projection expectation value > 0.300
       0.973 0.973 0.973 0.973 0.956 0.956
      0 hybrids eliminated in 1 pass
      6 hybrids moved from prospective to permanent list

 NHOs of 2-center eigenvectors projected from the NAO density matrix
       0.002 electrons remain in the fully projected matrix

 Search of NHO DM block for the following atom(s):   1
      Select eigenvectors with eigenvalue > 1.900
       2.000 0.000 0.000 0.000 0.000 0.000 0.000 0.000 0.000
      Eigenvector ( 1) has occupancy 1.99996
            1.0000 0.0000 0.0000 0.0000 0.0000 0.0000 0.0000 0.0000
            0.0000
           NBO accepted:    1. Label:CR ( 1)   1
        1 eigenvector(s) stashed in permanent list

 Search of NHO DM block for the following atom(s):   2
      Select eigenvectors with eigenvalue > 1.900
       2.000 0.001 0.001 0.000 0.000 0.000 0.000 0.000 0.000
      Eigenvector ( 1) has occupancy 1.99995
            1.0000 0.0000 0.0000 0.0000 0.0000 0.0000 0.0000 0.0000
            0.0000
           NBO accepted:    2. Label:CR ( 1)   2
        1 eigenvector(s) stashed in permanent list

  1-center NBOs projected from the NHO density matrix
       6.000 electrons remain (>1.900); search continues

 Search of NHO DM block for the following atom(s):   1   2
      Select eigenvectors with eigenvalue > 1.900
       1.995 0.003 0.000 0.000 0.000 0.000 0.000 0.000 0.000 0.000 0.000 0.000
       0.000 0.000 0.000 0.000 0.000 0.000
      Eigenvector ( 1) has occupancy 1.99459
            0.0000 0.0000 0.0000 0.8870 0.0000 0.0000 0.0000 0.0000
            0.0000 0.0000 0.4618 0.0000 0.0000 0.0000 0.0000 0.0000
            0.0000 0.0000
      Occupancy is 1.995 after deleting minor hybrid components
            0.0000 0.0000 0.0000 0.8870 0.0000 0.0000 0.0000 0.0000
            0.0000 0.0000 0.4618 0.0000 0.0000 0.0000 0.0000 0.0000
            0.0000 0.0000
           NBO accepted:    3. Label:BD ( 1)   1   2
      Occupancy is 0.003 for antibonding component
            0.0000 0.0000 0.0000-0.4618 0.0000 0.0000 0.0000 0.0000
            0.0000 0.0000 0.8870 0.0000 0.0000 0.0000 0.0000 0.0000
            0.0000 0.0000
           NBO accepted:    4. Label:BD*( 1)   1   2
        2 eigenvector(s) stashed in permanent list

 Search of NHO DM block for the following atom(s):   1   3
      Select eigenvectors with eigenvalue > 1.900
       1.997 0.003 0.000 0.000 0.000 0.000 0.000 0.000 0.000 0.000 0.000
      Eigenvector ( 1) has occupancy 1.99673
            0.0000 0.6551 0.0000 0.0000 0.0000 0.0000 0.0000 0.0000
            0.0000 0.7555 0.0000
      Occupancy is 1.997 after deleting minor hybrid components
            0.0000 0.6551 0.0000 0.0000 0.0000 0.0000 0.0000 0.0000
            0.0000 0.7555 0.0000
           NBO accepted:    5. Label:BD ( 1)   1   3
      Occupancy is 0.003 for antibonding component
            0.0000 0.7555 0.0000 0.0000 0.0000 0.0000 0.0000 0.0000
            0.0000-0.6551 0.0000
           NBO accepted:    6. Label:BD*( 1)   1   3
        2 eigenvector(s) stashed in permanent list

 Search of NHO DM block for the following atom(s):   1   4
      Select eigenvectors with eigenvalue > 1.900
       1.997 0.003 0.000 0.000 0.000 0.000 0.000 0.000 0.000 0.000 0.000
      Eigenvector ( 1) has occupancy 1.99673
            0.0000 0.0000 0.6551 0.0000 0.0000 0.0000 0.0000 0.0000
            0.0000 0.7555 0.0000
      Occupancy is 1.997 after deleting minor hybrid components
            0.0000 0.0000 0.6551 0.0000 0.0000 0.0000 0.0000 0.0000
            0.0000 0.7555 0.0000
           NBO accepted:    7. Label:BD ( 1)   1   4
      Occupancy is 0.003 for antibonding component
            0.0000 0.0000 0.7555 0.0000 0.0000 0.0000 0.0000 0.0000
            0.0000-0.6551 0.0000
           NBO accepted:    8. Label:BD*( 1)   1   4
        2 eigenvector(s) stashed in permanent list

  2-center NBOs projected from the NHO density matrix
       0.002 electrons remain in the fully projected matrix

                            Occupancies       Lewis Structure    Low   High
         Max    Occ     -------------------  -----------------   occ   occ
  Cycle  Ctr   Thresh    Lewis   non-Lewis     CR  BD  nC  LP    (L)   (NL)
 ============================================================================
    3     2     1.90     9.98794   0.01206      2   3   0   0     0      0
 ----------------------------------------------------------------------------

 Structure accepted: No low occupancy Lewis orbitals

 -------------------------------------------------------
   Core                      3.99991 ( 99.998% of   4)
   Valence Lewis             5.98804 ( 99.801% of   6)
  ==================      =============================
   Total Lewis               9.98794 ( 99.879% of  10)
  -----------------------------------------------------
   Valence non-Lewis         0.00966 (  0.097% of  10)
   Rydberg non-Lewis         0.00240 (  0.024% of  10)
  ==================      =============================
   Total non-Lewis           0.01206 (  0.121% of  10)
 -------------------------------------------------------


     (Occupancy)   Bond orbital / Coefficients / Hybrids
 ------------------ Lewis ------------------------------------------------------
   1. (1.99996) CR ( 1) B  1            s(100.00%)
                                         1.0000  0.0000  0.0000  0.0000  0.0000
                                         0.0000  0.0000  0.0000  0.0000
   2. (1.99995) CR ( 1)Li  2            s(100.00%)
                                         1.0000  0.0000  0.0000  0.0000  0.0000
                                         0.0000  0.0000  0.0000  0.0000
   3. (1.99459) BD ( 1) B  1-Li  2
               ( 78.68%)   0.8870* B  1 s( 35.10%)p 1.85( 64.90%)
                                         0.0000  0.5888 -0.0657  0.0000  0.0000
                                         0.0000  0.0000 -0.8019  0.0771
               ( 21.32%)   0.4618*Li  2 s( 94.49%)p 0.06(  5.51%)
                                         0.0000  0.9721 -0.0048  0.0000  0.0000
                                         0.0000  0.0000  0.2346 -0.0064
   4. (1.99673) BD ( 1) B  1- H  3
               ( 42.92%)   0.6551* B  1 s( 32.65%)p 2.06( 67.35%)
                                         0.0000  0.5682  0.0603  0.0000  0.0000
                                         0.7044  0.0623  0.4153  0.0319
               ( 57.08%)   0.7555* H  3 s(100.00%)
                                         1.0000 -0.0004
   5. (1.99673) BD ( 1) B  1- H  4
               ( 42.92%)   0.6551* B  1 s( 32.65%)p 2.06( 67.35%)
                                         0.0000  0.5682  0.0603  0.0000  0.0000
                                        -0.7044 -0.0623  0.4153  0.0319
               ( 57.08%)   0.7555* H  4 s(100.00%)
                                         1.0000 -0.0004
 ---------------- non-Lewis ----------------------------------------------------
   6. (0.00000) LV ( 1) B  1            s(  0.00%)p 1.00(100.00%)
   7. (0.00347) BD*( 1) B  1-Li  2
               ( 21.32%)   0.4618* B  1 s( 35.10%)p 1.85( 64.90%)
                                         0.0000 -0.5888  0.0657  0.0000  0.0000
                                         0.0000  0.0000  0.8019 -0.0771
               ( 78.68%)  -0.8870*Li  2 s( 94.49%)p 0.06(  5.51%)
                                         0.0000 -0.9721  0.0048  0.0000  0.0000
                                         0.0000  0.0000 -0.2346  0.0064
   8. (0.00310) BD*( 1) B  1- H  3
               ( 57.08%)   0.7555* B  1 s( 32.65%)p 2.06( 67.35%)
                                         0.0000 -0.5682 -0.0603  0.0000  0.0000
                                        -0.7044 -0.0623 -0.4153 -0.0319
               ( 42.92%)  -0.6551* H  3 s(100.00%)
                                        -1.0000  0.0004
   9. (0.00310) BD*( 1) B  1- H  4
               ( 57.08%)   0.7555* B  1 s( 32.65%)p 2.06( 67.35%)
                                         0.0000 -0.5682 -0.0603  0.0000  0.0000
                                         0.7044  0.0623 -0.4153 -0.0319
               ( 42.92%)  -0.6551* H  4 s(100.00%)
                                        -1.0000  0.0004
  10. (0.00001) RY ( 1) B  1            s( 23.04%)p 3.34( 76.96%)
  11. (0.00000) RY ( 2) B  1            s( 76.56%)p 0.31( 23.44%)
  12. (0.00000) RY ( 3) B  1            s(  0.00%)p 1.00(100.00%)
  13. (0.00000) RY ( 4) B  1            s(  0.00%)p 1.00(100.00%)
  14. (0.00132) RY ( 1)Li  2            s(  0.00%)p 1.00(100.00%)
                                         0.0000  0.0000  0.0000  0.0000  0.0000
                                         0.8326  0.5539  0.0000  0.0000
  15. (0.00065) RY ( 2)Li  2            s( 96.71%)p 0.03(  3.29%)
                                         0.0000 -0.0327  0.9829  0.0000  0.0000
                                         0.0000  0.0000  0.1578  0.0892
  16. (0.00004) RY ( 3)Li  2            s(  4.26%)p22.46( 95.74%)
  17. (0.00001) RY ( 4)Li  2            s(  4.53%)p21.07( 95.47%)
  18. (0.00000) RY ( 5)Li  2            s(  0.00%)p 1.00(100.00%)
  19. (0.00000) RY ( 6)Li  2            s(  0.00%)p 1.00(100.00%)
  20. (0.00000) RY ( 7)Li  2            s(  0.00%)p 1.00(100.00%)
  21. (0.00018) RY ( 1) H  3            s(100.00%)
                                         0.0004  1.0000
  22. (0.00018) RY ( 1) H  4            s(100.00%)
                                         0.0004  1.0000


 NHO DIRECTIONALITY AND BOND BENDING (deviation from line of nuclear centers at
                                      the position of maximum hybrid amplitude)

         [Thresholds for printing:  angular deviation  >  1.0 degree]
                                    p- or d-character  > 25.0%
                                    orbital occupancy  >  0.10e

                        Line of Centers        Hybrid 1             Hybrid 2
                        ---------------  -------------------  ------------------
           NBO            Theta   Phi    Theta   Phi    Dev   Theta   Phi    Dev
 ===============================================================================
   4. BD ( 1) B  1- H  3   56.2   90.0    59.1   90.0   2.9     --     --    --
   5. BD ( 1) B  1- H  4   56.2  270.0    59.1  270.0   2.9     --     --    --


 SECOND ORDER PERTURBATION THEORY ANALYSIS OF FOCK MATRIX IN NBO BASIS

     Threshold for printing:   0.50 kcal/mol
                                                          E(2) E(NL)-E(L) F(L,NL)
      Donor (L) NBO              Acceptor (NL) NBO      kcal/mol   a.u.    a.u.
 ===============================================================================

 within unit  1
    3. BD ( 1) B  1-Li  2       8. BD*( 1) B  1- H  3      2.06    1.01   0.041
    3. BD ( 1) B  1-Li  2       9. BD*( 1) B  1- H  4      2.06    1.01   0.041
    4. BD ( 1) B  1- H  3       7. BD*( 1) B  1-Li  2      0.81    0.66   0.021
    5. BD ( 1) B  1- H  4       7. BD*( 1) B  1-Li  2      0.81    0.66   0.021


 NATURAL BOND ORBITALS (Summary):

                                                     Principal Delocalizations
           NBO                 Occupancy    Energy   (geminal,vicinal,remote)
 ===============================================================================
 Molecular unit  1  (H2BLi)
 ------ Lewis --------------------------------------
    1. CR ( 1) B  1             1.99996    -7.51976
    2. CR ( 1)Li  2             1.99995    -2.42798
    3. BD ( 1) B  1-Li  2       1.99459    -0.27537  8(g),9(g)
    4. BD ( 1) B  1- H  3       1.99673    -0.50941  7(g)
    5. BD ( 1) B  1- H  4       1.99673    -0.50941  7(g)
 ------ non-Lewis ----------------------------------
    6. LV ( 1) B  1             0.00000     0.27411
    7. BD*( 1) B  1-Li  2       0.00347     0.15090
    8. BD*( 1) B  1- H  3       0.00310     0.73076
    9. BD*( 1) B  1- H  4       0.00310     0.73076
   10. RY ( 1) B  1             0.00001     0.90044
   11. RY ( 2) B  1             0.00000     0.96068
   12. RY ( 3) B  1             0.00000     0.70651
   13. RY ( 4) B  1             0.00000     0.76381
   14. RY ( 1)Li  2             0.00132     0.14329
   15. RY ( 2)Li  2             0.00065     0.30893
   16. RY ( 3)Li  2             0.00004     0.48379
   17. RY ( 4)Li  2             0.00001     0.21804
   18. RY ( 5)Li  2             0.00000     0.12357
   19. RY ( 6)Li  2             0.00000     0.23892
   20. RY ( 7)Li  2             0.00000     0.28328
   21. RY ( 1) H  3             0.00018     0.91658
   22. RY ( 1) H  4             0.00018     0.91658
          -------------------------------
                 Total Lewis    9.98794  ( 99.8794%)
           Valence non-Lewis    0.00966  (  0.0966%)
           Rydberg non-Lewis    0.00240  (  0.0240%)
          -------------------------------
               Total unit  1   10.00000  (100.0000%)
              Charge unit  1    0.00000

 $CHOOSE
   BOND S 1 2 S 1 3 S 1 4 END
 $END

 NBO analysis completed in 0.22 CPU seconds (0 wall seconds)
 Maximum scratch memory used by NBO was 265484 words (2.03 MB)
 Maximum scratch memory used by G16NBO was 8959 words (0.07 MB)

 Opening RunExU unformatted file "/cluster/work/users/beto93/LiBH2/Gau-1268408.EUF"
 Read unf file /cluster/work/users/beto93/LiBH2/Gau-1268408.EUF:
 Label Gaussian matrix elements                                         IVers= 2 NLab= 2 Version=ES64L-G16RevC.01
 Title NBO-a                                                           
 NAtoms=     4 NBasis=    22 NBsUse=    22 ICharg=     0 Multip=     1 NE=    10 Len12L=8 Len4L=8 IOpCl= 0 ICGU=111
 GAUSSIAN SCALARS                    NI= 1 NR= 1 NTot=       1 LenBuf=    2 NRI=1 N=    1000
 NPA CHARGES                         NI= 0 NR= 1 NTot=       4 LenBuf= 4000 NRI=1 N=       4
 Recovered energy= -33.1679459739     dipole=      0.000000000000      0.000000000000     -2.021639740598
 Unable to Open any file for archive entry.
 1\1\GINC-C1-25\SP\RHF\4-31G\B1H2Li1\BETO93\24-Jul-2024\0\\#RHF/4-31G P
 op=NBO7Read\\NBO-a\\0,1\B,0,0.000076,0.,0.00005\Li,0,-1.824832,0.,-1.2
 17012\H,0,0.001914,0.,1.163577\H,0,1.074962,0.,-0.44539\\Version=ES64L
 -G16RevC.01\State=1-A1\HF=-33.167946\RMSD=1.758e-09\Dipole=-1.6819116,
 0.,-1.1216955\Quadrupole=2.4152191,-1.4813367,-0.9338823,0.,4.0228488,
 0.\PG=C02V [C2(Li1B1),SGV(H2)]\\@
 The archive entry for this job was punched.


 LEARN FROM YESTERDAY,
 LIVE FOR TODAY,
 LOOK TO TOMORROW,
 REST THIS AFTERNOON.

           -- SNOOPY
 Job cpu time:       0 days  0 hours  0 minutes  9.1 seconds.
 Elapsed time:       0 days  0 hours  0 minutes  3.0 seconds.
 File lengths (MBytes):  RWF=     10 Int=      0 D2E=      0 Chk=      1 Scr=      1
 Normal termination of Gaussian 16 at Wed Jul 24 13:57:02 2024.
