 Entering Gaussian System, Link 0=g16
 Initial command:
 /cluster/software/Gaussian/g16_C.01/l1.exe "/cluster/work/users/beto93/LiNH2/Gau-3395431.inp" -scrdir="/cluster/work/users/beto93/LiNH2/"
 Entering Link 1 = /cluster/software/Gaussian/g16_C.01/l1.exe PID=   3395433.
  
 Copyright (c) 1988-2019, Gaussian, Inc.  All Rights Reserved.
  
 This is part of the Gaussian(R) 16 program.  It is based on
 the Gaussian(R) 09 system (copyright 2009, Gaussian, Inc.),
 the Gaussian(R) 03 system (copyright 2003, Gaussian, Inc.),
 the Gaussian(R) 98 system (copyright 1998, Gaussian, Inc.),
 the Gaussian(R) 94 system (copyright 1995, Gaussian, Inc.),
 the Gaussian 92(TM) system (copyright 1992, Gaussian, Inc.),
 the Gaussian 90(TM) system (copyright 1990, Gaussian, Inc.),
 the Gaussian 88(TM) system (copyright 1988, Gaussian, Inc.),
 the Gaussian 86(TM) system (copyright 1986, Carnegie Mellon
 University), and the Gaussian 82(TM) system (copyright 1983,
 Carnegie Mellon University). Gaussian is a federally registered
 trademark of Gaussian, Inc.
  
 This software contains proprietary and confidential information,
 including trade secrets, belonging to Gaussian, Inc.
  
 This software is provided under written license and may be
 used, copied, transmitted, or stored only in accord with that
 written license.
  
 The following legend is applicable only to US Government
 contracts under FAR:
  
                    RESTRICTED RIGHTS LEGEND
  
 Use, reproduction and disclosure by the US Government is
 subject to restrictions as set forth in subparagraphs (a)
 and (c) of the Commercial Computer Software - Restricted
 Rights clause in FAR 52.227-19.
  
 Gaussian, Inc.
 340 Quinnipiac St., Bldg. 40, Wallingford CT 06492
  
  
 ---------------------------------------------------------------
 Warning -- This program may not be used in any manner that
 competes with the business of Gaussian, Inc. or will provide
 assistance to any competitor of Gaussian, Inc.  The licensee
 of this program is prohibited from giving any competitor of
 Gaussian, Inc. access to this program.  By using this program,
 the user acknowledges that Gaussian, Inc. is engaged in the
 business of creating and licensing software in the field of
 computational chemistry and represents and warrants to the
 licensee that it is not a competitor of Gaussian, Inc. and that
 it will not use this program in any manner prohibited above.
 ---------------------------------------------------------------
  

 Cite this work as:
 Gaussian 16, Revision C.01,
 M. J. Frisch, G. W. Trucks, H. B. Schlegel, G. E. Scuseria, 
 M. A. Robb, J. R. Cheeseman, G. Scalmani, V. Barone, 
 G. A. Petersson, H. Nakatsuji, X. Li, M. Caricato, A. V. Marenich, 
 J. Bloino, B. G. Janesko, R. Gomperts, B. Mennucci, H. P. Hratchian, 
 J. V. Ortiz, A. F. Izmaylov, J. L. Sonnenberg, D. Williams-Young, 
 F. Ding, F. Lipparini, F. Egidi, J. Goings, B. Peng, A. Petrone, 
 T. Henderson, D. Ranasinghe, V. G. Zakrzewski, J. Gao, N. Rega, 
 G. Zheng, W. Liang, M. Hada, M. Ehara, K. Toyota, R. Fukuda, 
 J. Hasegawa, M. Ishida, T. Nakajima, Y. Honda, O. Kitao, H. Nakai, 
 T. Vreven, K. Throssell, J. A. Montgomery, Jr., J. E. Peralta, 
 F. Ogliaro, M. J. Bearpark, J. J. Heyd, E. N. Brothers, K. N. Kudin, 
 V. N. Staroverov, T. A. Keith, R. Kobayashi, J. Normand, 
 K. Raghavachari, A. P. Rendell, J. C. Burant, S. S. Iyengar, 
 J. Tomasi, M. Cossi, J. M. Millam, M. Klene, C. Adamo, R. Cammi, 
 J. W. Ochterski, R. L. Martin, K. Morokuma, O. Farkas, 
 J. B. Foresman, and D. J. Fox, Gaussian, Inc., Wallingford CT, 2019.
 
 ******************************************
 Gaussian 16:  ES64L-G16RevC.01  3-Jul-2019
                24-Jul-2024 
 ******************************************
 %LindaWorkers=c2-4-ib
 %NProcShared=4
 Will use up to    4 processors via shared memory.
 %mem=25GB
 %chk=a.chk
 SetLPE:    new flags="-opt 'Tsnet.Node.lindarsharg: ssh'  -nodelist 'c2-4-ib.saga' -env GAUSS_MDEF=3355443200 -env GAUSS_EXEDIR="/cluster/software/Gaussian/g16_C.01/bsd:/cluster/software/Gaussian/g16_C.01""
 Will use up to    1 processors via Linda.
 -----------------------
 #RHF/4-31G Pop=NBO7Read
 -----------------------
 1/38=1,163=2,172=1/1;
 2/12=2,17=6,18=5,40=1/2;
 3/5=1,11=1,25=1,30=1,116=1/1,2,3;
 4//1;
 5/5=2,38=5/2;
 6/7=2,8=2,9=2,10=2,28=1,40=2,113=1,114=1,124=2103/1,12;
 99/5=1,9=1/99;
 -----
 NBO-a
 -----
 Symbolic Z-matrix:
 Charge =  0 Multiplicity = 1
 N                     0.        0.        1.635 
 Li                    0.        0.        0.00025 
 H                     0.79956   0.        2.27847 
 H                    -0.79956   0.        2.27847 
 
                          Input orientation:                          
 ---------------------------------------------------------------------
 Center     Atomic      Atomic             Coordinates (Angstroms)
 Number     Number       Type             X           Y           Z
 ---------------------------------------------------------------------
      1          7           0        0.000000    0.000000    1.635004
      2          3           0        0.000000    0.000000    0.000247
      3          1           0        0.799559    0.000000    2.278467
      4          1           0       -0.799559    0.000000    2.278467
 ---------------------------------------------------------------------
                    Distance matrix (angstroms):
                    1          2          3          4
     1  N    0.000000
     2  Li   1.634757   0.000000
     3  H    1.026323   2.414453   0.000000
     4  H    1.026323   2.414453   1.599118   0.000000
 Stoichiometry    H2LiN
 Framework group  C2V[C2(LiN),SGV(H2)]
 Deg. of freedom     3
 Full point group                 C2V     NOp   4
 Largest Abelian subgroup         C2V     NOp   4
 Largest concise Abelian subgroup C2      NOp   2
                         Standard orientation:                         
 ---------------------------------------------------------------------
 Center     Atomic      Atomic             Coordinates (Angstroms)
 Number     Number       Type             X           Y           Z
 ---------------------------------------------------------------------
      1          7           0        0.000000    0.000000    0.301445
      2          3           0        0.000000    0.000000   -1.333312
      3          1           0       -0.000000    0.799559    0.944908
      4          1           0       -0.000000   -0.799559    0.944908
 ---------------------------------------------------------------------
 Rotational constants (GHZ):         392.1940752          33.4864471          30.8522130
 Standard basis: 4-31G (6D, 7F)
 There are    12 symmetry adapted cartesian basis functions of A1  symmetry.
 There are     0 symmetry adapted cartesian basis functions of A2  symmetry.
 There are     4 symmetry adapted cartesian basis functions of B1  symmetry.
 There are     6 symmetry adapted cartesian basis functions of B2  symmetry.
 There are    12 symmetry adapted basis functions of A1  symmetry.
 There are     0 symmetry adapted basis functions of A2  symmetry.
 There are     4 symmetry adapted basis functions of B1  symmetry.
 There are     6 symmetry adapted basis functions of B2  symmetry.
    22 basis functions,    45 primitive gaussians,    22 cartesian basis functions
     6 alpha electrons        6 beta electrons
       nuclear repulsion energy        15.6621921805 Hartrees.
 NAtoms=    4 NActive=    4 NUniq=    3 SFac= 1.78D+00 NAtFMM=   60 NAOKFM=F Big=F
 Integral buffers will be    131072 words long.
 Raffenetti 1 integral format.
 Two-electron integral symmetry is turned on.
 One-electron integrals computed using PRISM.
 NBasis=    22 RedAO= T EigKep=  3.17D-02  NBF=    12     0     4     6
 NBsUse=    22 1.00D-06 EigRej= -1.00D+00 NBFU=    12     0     4     6
 ExpMin= 4.04D-02 ExpMax= 6.71D+02 ExpMxC= 6.71D+02 IAcc=3 IRadAn=         5 AccDes= 0.00D+00
 Harris functional with IExCor=  205 and IRadAn=       5 diagonalized for initial guess.
 HarFok:  IExCor=  205 AccDes= 0.00D+00 IRadAn=         5 IDoV= 1 UseB2=F ITyADJ=14
 ICtDFT=  3500011 ScaDFX=  1.000000  1.000000  1.000000  1.000000
 FoFCou: FMM=F IPFlag=           0 FMFlag=      100000 FMFlg1=           0
         NFxFlg=           0 DoJE=T BraDBF=F KetDBF=T FulRan=T
         wScrn=  0.000000 ICntrl=       500 IOpCl=  0 I1Cent=   200000004 NGrid=           0
         NMat0=    1 NMatS0=      1 NMatT0=    0 NMatD0=    1 NMtDS0=    0 NMtDT0=    0
 Petite list used in FoFCou.
 Initial guess orbital symmetries:
       Occupied  (A1) (A1) (A1) (B2) (A1) (B1)
       Virtual   (A1) (B2) (A1) (B1) (B2) (A1) (B1) (B2) (A1) (A1)
                 (B1) (B2) (B2) (A1) (A1) (A1)
 The electronic state of the initial guess is 1-A1.
 Keep R1 ints in memory in symmetry-blocked form, NReq=840302.
 Requested convergence on RMS density matrix=1.00D-08 within 128 cycles.
 Requested convergence on MAX density matrix=1.00D-06.
 Requested convergence on             energy=1.00D-06.
 No special actions if energy rises.
 SCF Done:  E(RHF) =  -62.9662806302     A.U. after   11 cycles
            NFock= 11  Conv=0.37D-08     -V/T= 1.9985

 **********************************************************************

            Population analysis using the SCF Density.

 **********************************************************************

 Orbital symmetries:
       Occupied  (A1) (A1) (A1) (B2) (A1) (B1)
       Virtual   (A1) (B2) (B1) (A1) (B2) (A1) (B1) (A1) (B2) (A1)
                 (B2) (B1) (A1) (B2) (A1) (A1)
 The electronic state is 1-A1.
 Alpha  occ. eigenvalues --  -15.40236  -2.39136  -0.99179  -0.51456  -0.41101
 Alpha  occ. eigenvalues --   -0.28732
 Alpha virt. eigenvalues --    0.02636   0.08389   0.10274   0.12965   0.26210
 Alpha virt. eigenvalues --    0.26992   0.29255   0.37236   0.41586   0.54585
 Alpha virt. eigenvalues --    1.13147   1.19257   1.33601   1.38877   1.41697
 Alpha virt. eigenvalues --    1.80822
          Condensed to atoms (all electrons):
               1          2          3          4
     1  N    7.207636   0.280808   0.307861   0.307861
     2  Li   0.280808   2.188357  -0.024659  -0.024659
     3  H    0.307861  -0.024659   0.491974  -0.037182
     4  H    0.307861  -0.024659  -0.037182   0.491974
 Mulliken charges:
               1
     1  N   -1.104166
     2  Li   0.580154
     3  H    0.262006
     4  H    0.262006
 Sum of Mulliken charges =  -0.00000
 Mulliken charges with hydrogens summed into heavy atoms:
               1
     1  N   -0.580154
     2  Li   0.580154
 Electronic spatial extent (au):  <R**2>=             48.1742
 Charge=              0.0000 electrons
 Dipole moment (field-independent basis, Debye):
    X=             -0.0000    Y=              0.0000    Z=             -4.0017  Tot=              4.0017
 Quadrupole moment (field-independent basis, Debye-Ang):
   XX=            -12.4097   YY=             -8.4337   ZZ=             -0.5626
   XY=              0.0000   XZ=             -0.0000   YZ=             -0.0000
 Traceless Quadrupole moment (field-independent basis, Debye-Ang):
   XX=             -5.2744   YY=             -1.2984   ZZ=              6.5728
   XY=              0.0000   XZ=             -0.0000   YZ=             -0.0000
 Octapole moment (field-independent basis, Debye-Ang**2):
  XXX=              0.0000  YYY=             -0.0000  ZZZ=            -13.6643  XYY=             -0.0000
  XXY=              0.0000  XXZ=             -0.7564  XZZ=             -0.0000  YZZ=             -0.0000
  YYZ=             -0.2855  XYZ=              0.0000
 Hexadecapole moment (field-independent basis, Debye-Ang**3):
 XXXX=            -19.5137 YYYY=            -14.2917 ZZZZ=            -16.6178 XXXY=             -0.0000
 XXXZ=              0.0000 YYYX=             -0.0000 YYYZ=              0.0000 ZZZX=              0.0000
 ZZZY=              0.0000 XXYY=             -5.8231 XXZZ=             -9.9756 YYZZ=             -6.4446
 XXYZ=             -0.0000 YYXZ=             -0.0000 ZZXY=              0.0000
 N-N= 1.566219218053D+01 E-N=-1.803218821089D+02  KE= 6.306175130244D+01
 Symmetry A1   KE= 5.796548576445D+01
 Symmetry A2   KE= 0.000000000000D+00
 Symmetry B1   KE= 2.682274500981D+00
 Symmetry B2   KE= 2.413991037015D+00
 Running external command "gaunbo7 R"
         input file       "/cluster/work/users/beto93/LiNH2/Gau-3395433.EIn"
         output file      "/cluster/work/users/beto93/LiNH2/Gau-3395433.EOu"
         message file     "/cluster/work/users/beto93/LiNH2/Gau-3395433.EMs"
         fchk file        "/cluster/work/users/beto93/LiNH2/Gau-3395433.EFC"
         mat. el file     "/cluster/work/users/beto93/LiNH2/Gau-3395433.EUF"

 Writing WrtUnf unformatted file "/cluster/work/users/beto93/LiNH2/Gau-3395433.EUF"
 Gaussian matrix elements                                         Version   2 NLab=11 Len12L=8 Len4L=8
 Write SHELL TO ATOM MAP                   from file      0 offset           0 length                  10 to matrix element file.
 Write SHELL TYPES                         from file      0 offset           0 length                  10 to matrix element file.
 Write NUMBER OF PRIMITIVES PER SHELL      from file      0 offset           0 length                  10 to matrix element file.
 Write PRIMITIVE EXPONENTS                 from file      0 offset           0 length                  24 to matrix element file.
 Write CONTRACTION COEFFICIENTS            from file      0 offset           0 length                  24 to matrix element file.
 Write P(S=P) CONTRACTION COEFFICIENTS     from file      0 offset           0 length                  24 to matrix element file.
 Write COORDINATES OF EACH SHELL           from file      0 offset           0 length                  30 to matrix element file.
 Write BONDS PER ATOM                      from file      0 offset           0 length                   4 to matrix element file.
 Write BONDED ATOMS                        from file      0 offset           0 length                   6 to matrix element file.
 Write BOND TYPES                          from file      0 offset           0 length                   6 to matrix element file.
 Write ONIOM CHARGE/MULT                   from file      0 offset           0 length                  32 to matrix element file.
 Write ONIOM ATOM LAYERS                   from file      0 offset           0 length                   4 to matrix element file.
 Write ONIOM ATOM MODIFIERS                from file      0 offset           0 length                   4 to matrix element file.
 Write ONIOM ATOM TYPES                    from file      0 offset           0 length                   4 to matrix element file.
 Write ONIOM LINK ATOMS                    from file      0 offset           0 length                   4 to matrix element file.
 Write ONIOM LINK CHARGES                  from file      0 offset           0 length                   4 to matrix element file.
 Write ONIOM LINK DISTANCES                from file      0 offset           0 length                  16 to matrix element file.
 Write SYMINF INTS                         from file      0 offset           0 length                  26 to matrix element file.
 Write ROTTR TO SO                         from file      0 offset           0 length                  12 to matrix element file.
 Write GAUSSIAN SCALARS                    from file    501 offset           0 to matrix element file.
 Write OPTIMIZATION FLAGS                  from file      0 offset           0 length                   4 to matrix element file.
 Write INTEGER ISO                         from file      0 offset           0 length                   4 to matrix element file.
 Write INTEGER SPIN                        from file      0 offset           0 length                   4 to matrix element file.
 Write REAL ZEFFECTIVE                     from file      0 offset           0 length                   4 to matrix element file.
 Write REAL QUADRUPOLEMOMENT               from file      0 offset           0 length                   4 to matrix element file.
 Write REAL GFACTOR                        from file      0 offset           0 length                   4 to matrix element file.
 Write REAL ZNUCLEAR                       from file      0 offset           0 length                   4 to matrix element file.
 Write MULLIKEN CHARGES                    from file      0 offset           0 length                   4 to matrix element file.
 Write NUCLEAR GRADIENT                    from file  10584 offset           0 length                  12 to matrix element file.
 Array NUCLEAR FORCE CONSTANTS              on  file  10585 does not exist.
 Write ELECTRIC DIPOLE MOMENT              from file      0 offset           0 length                   3 to matrix element file.
 Write NON-ADIABATIC COUPLING              from file  10810 offset           0 length                  12 to matrix element file.
 Write FINITE EM FIELD                     from file  10521 offset           0 length                  35 to matrix element file.
 Write OVERLAP                             from file  10514 offset           0 length                 253 to matrix element file.
 Write CORE HAMILTONIAN ALPHA              from file  10515 offset           0 length                 253 to matrix element file.
 Write CORE HAMILTONIAN BETA               from file  10515 offset         253 length                 253 to matrix element file.
 Write KINETIC ENERGY                      from file  10516 offset           0 length                 253 to matrix element file.
 Write ORTHOGONAL BASIS                    from file  10685 offset           0 length                 484 to matrix element file.
 Write DIPOLE INTEGRALS                    from file  10518 offset           0 length                 759 to matrix element file.
 Array DIP VEL INTEGRALS                    on  file  10572 does not exist.
 Array R X DEL INTEGRALS                    on  file  10572 does not exist.
 Write ALPHA ORBITAL ENERGIES              from file      0 offset           0 length                  22 to matrix element file.
 Write ALPHA MO COEFFICIENTS               from file  10524 offset           0 length                 484 to matrix element file.
 Write ALPHA DENSITY MATRIX                from file      0 offset           0 length                 253 to matrix element file.
 Write ALPHA FOCK MATRIX                   from file  10536 offset           0 length                 253 to matrix element file.
 Write ENERGY-WEIGHTED DENSITY             from file  10571 offset           0 length                 253 to matrix element file.
 Write ALPHA SCF DENSITY MATRIX            from file      0 offset           0 length                 253 to matrix element file.
 No 2e integrals to process.
 Perform NBO analysis...executing G16NBO...

 *********************************** NBO 7.0 ***********************************
             N A T U R A L   A T O M I C   O R B I T A L   A N D
          N A T U R A L   B O N D   O R B I T A L   A N A L Y S I S
 **************************** Espen Tangen (S101595) ***************************
  (c) Copyright 1996-2021 Board of Regents of the University of Wisconsin System
      on behalf of the Theoretical Chemistry Institute.  All rights reserved.

          Cite this program [NBO 7.0.10 (8-Feb-2021)] as:

          NBO 7.0.  E. D. Glendening, J. K. Badenhoop, A. E. Reed,
          J. E. Carpenter, J. A. Bohmann, C. M. Morales, P. Karafiloglou,
          C. R. Landis, and F. Weinhold, Theoretical Chemistry Institute,
          University of Wisconsin, Madison, WI (2018)

       /NPA    / : Natural Population Analysis
       /AOPNAO / : Print the AO to PNAO transformation
       /AONAO  / : Print the AO to NAO transformation
       /AONO   / : Print the NOs in the AO basis
       /AOMO   / : Print the MOs in the AO basis
       /BOAO   / : Print the AO bond-order matrix
       /DMAO   / : Print the AO density matrix
       /DMPNAO / : Print the PNAO density matrix
       /DMNAO  / : Print the NAO density matrix
       /DMMO   / : Print the MO density matrix
       /SAO    / : Print the AO overlap matrix
       /SPNAO  / : Print the PNAO overlap matrix
       /DETAIL / : Write details of NBO search
       /ARCHIVE/ : Write the archive file to lfn47
       /AOINFO / : Write AO information to lfn31
       /FILE   / : Set to inpGenNbo

 Filename set to inpGenNbo

 Job title: NBO-a


 MOs in the AO basis:

           AO          1       2       3       4       5       6       7       8
      ------------ ------- ------- ------- ------- ------- ------- ------- -------
   1.  N 1 (s)      0.9927 -0.0038 -0.1989  0.0000  0.0662  0.0000  0.0153  0.0000
   2.  N 1 (s)      0.0535  0.0064  0.3621  0.0000 -0.1202  0.0000 -0.0173  0.0000
   3.  N 1 (px)     0.0000  0.0000  0.0000  0.0000  0.0000  0.5171  0.0000  0.0000
   4.  N 1 (py)     0.0000  0.0000  0.0000  0.4277  0.0000  0.0000  0.0000 -0.0547
   5.  N 1 (pz)     0.0015 -0.0077  0.0863  0.0000  0.4740  0.0000  0.0262  0.0000
   6.  N 1 (s)     -0.0319  0.0099  0.5081  0.0000 -0.2827  0.0000 -0.1082  0.0000
   7.  N 1 (px)     0.0000  0.0000  0.0000  0.0000  0.0000  0.5434  0.0000  0.0000
   8.  N 1 (py)     0.0000  0.0000  0.0000  0.2828  0.0000  0.0000  0.0000 -0.0304
   9.  N 1 (pz)    -0.0011 -0.0046  0.0351  0.0000  0.3813  0.0000  0.0721  0.0000
  10. Li 2 (s)      0.0016  0.9963 -0.0607  0.0000  0.1560  0.0000 -0.1516  0.0000
  11. Li 2 (s)      0.0071  0.0280  0.0053  0.0000 -0.1216  0.0000 -0.1463  0.0000
  12. Li 2 (px)     0.0000  0.0000  0.0000  0.0000  0.0000  0.1308  0.0000  0.0000
  13. Li 2 (py)     0.0000  0.0000  0.0000  0.0226  0.0000  0.0000  0.0000 -0.1366
  14. Li 2 (pz)     0.0069 -0.0150  0.0206  0.0000 -0.1957  0.0000 -0.0677  0.0000
  15. Li 2 (s)     -0.0030 -0.0145  0.0126  0.0000 -0.0078  0.0000  0.9481  0.0000
  16. Li 2 (px)     0.0000  0.0000  0.0000  0.0000  0.0000  0.0798  0.0000  0.0000
  17. Li 2 (py)     0.0000  0.0000  0.0000  0.0116  0.0000  0.0000  0.0000  1.1565
  18. Li 2 (pz)    -0.0035  0.0091 -0.0014  0.0000  0.0855  0.0000 -0.5546  0.0000
  19.  H 3 (s)     -0.0004  0.0002  0.1586  0.2504  0.1420  0.0000 -0.0005 -0.0297
  20.  H 3 (s)      0.0065 -0.0003  0.0212  0.1828  0.1259  0.0000  0.0669 -0.1895
  21.  H 4 (s)     -0.0004  0.0002  0.1586 -0.2504  0.1420  0.0000 -0.0005  0.0297
  22.  H 4 (s)      0.0065 -0.0003  0.0212 -0.1828  0.1259  0.0000  0.0669  0.1895

           AO          9      10      11      12      13      14      15      16
      ------------ ------- ------- ------- ------- ------- ------- ------- -------
   1.  N 1 (s)      0.0000  0.0480  0.0000  0.0259  0.0000  0.0803  0.0000  0.0918
   2.  N 1 (s)      0.0000 -0.0741  0.0000  0.0193  0.0000 -0.0474  0.0000 -0.1190
   3.  N 1 (px)    -0.1513  0.0000  0.0000  0.0000 -0.1108  0.0000  0.0000  0.0000
   4.  N 1 (py)     0.0000  0.0000  0.0714  0.0000  0.0000  0.0000 -0.3259  0.0000
   5.  N 1 (pz)     0.0000 -0.0310  0.0000 -0.0452  0.0000 -0.2548  0.0000  0.1914
   6.  N 1 (s)      0.0000 -0.2831  0.0000 -0.3991  0.0000 -1.3734  0.0000 -1.2316
   7.  N 1 (px)    -0.2636  0.0000  0.0000  0.0000 -0.2880  0.0000  0.0000  0.0000
   8.  N 1 (py)     0.0000  0.0000  0.1788  0.0000  0.0000  0.0000 -1.0994  0.0000
   9.  N 1 (pz)     0.0000  0.0139  0.0000  0.1300  0.0000 -0.9162  0.0000  0.5039
  10. Li 2 (s)      0.0000 -0.1179  0.0000 -0.0306  0.0000 -0.0306  0.0000  0.2015
  11. Li 2 (s)      0.0000 -0.1976  0.0000 -1.6048  0.0000  0.0927  0.0000  2.3525
  12. Li 2 (px)    -0.2225  0.0000  0.0000  0.0000  1.7500  0.0000  0.0000  0.0000
  13. Li 2 (py)     0.0000  0.0000  1.5686  0.0000  0.0000  0.0000  0.8512  0.0000
  14. Li 2 (pz)     0.0000 -0.4392  0.0000  1.3361  0.0000 -0.1757  0.0000  1.9034
  15. Li 2 (s)      0.0000  0.9216  0.0000  1.7122  0.0000 -0.7487  0.0000 -1.5125
  16. Li 2 (px)     1.1875  0.0000  0.0000  0.0000 -1.2259  0.0000  0.0000  0.0000
  17. Li 2 (py)     0.0000  0.0000 -1.1453  0.0000  0.0000  0.0000 -0.7392  0.0000
  18. Li 2 (pz)     0.0000  1.3673  0.0000 -0.7916  0.0000 -0.5480  0.0000 -1.0918
  19.  H 3 (s)      0.0000  0.0112 -0.0612 -0.0020  0.0000  0.0354  0.0066  0.0743
  20.  H 3 (s)      0.0000 -0.2065 -0.3903 -0.0300  0.0000  1.5075  1.4640  0.1352
  21.  H 4 (s)      0.0000  0.0112  0.0612 -0.0020  0.0000  0.0354 -0.0066  0.0743
  22.  H 4 (s)      0.0000 -0.2065  0.3903 -0.0300  0.0000  1.5075 -1.4640  0.1352

           AO         17      18      19      20      21      22
      ------------ ------- ------- ------- ------- ------- -------
   1.  N 1 (s)      0.0000  0.0000  0.0603  0.0000 -0.0063  0.0034
   2.  N 1 (s)      0.0000  0.0000 -0.1173  0.0000 -0.4056 -1.9168
   3.  N 1 (px)     0.0000 -1.0479  0.0000  0.0000  0.0000  0.0000
   4.  N 1 (py)    -0.1355  0.0000  0.0000 -1.1088  0.0000  0.0000
   5.  N 1 (pz)     0.0000  0.0000 -0.3134  0.0000 -1.0395  0.2242
   6.  N 1 (s)      0.0000  0.0000  0.0109  0.0000  0.8659  3.3544
   7.  N 1 (px)     0.0000  1.1077  0.0000  0.0000  0.0000  0.0000
   8.  N 1 (py)     1.0371  0.0000  0.0000  1.5818  0.0000  0.0000
   9.  N 1 (pz)     0.0000  0.0000 -0.3400  0.0000  1.9864 -0.3025
  10. Li 2 (s)      0.0000  0.0000 -0.0933  0.0000  0.3191 -0.2648
  11. Li 2 (s)      0.0000  0.0000 -0.4157  0.0000  0.9738 -1.2493
  12. Li 2 (px)     0.0000 -0.2633  0.0000  0.0000  0.0000  0.0000
  13. Li 2 (py)    -0.4542  0.0000  0.0000 -0.4155  0.0000  0.0000
  14. Li 2 (pz)     0.0000  0.0000 -0.2468  0.0000  0.6920 -1.1284
  15. Li 2 (s)      0.0000  0.0000  0.5011  0.0000 -0.3230  0.5521
  16. Li 2 (px)     0.0000 -0.0158  0.0000  0.0000  0.0000  0.0000
  17. Li 2 (py)     0.0928  0.0000  0.0000  0.2660  0.0000  0.0000
  18. Li 2 (pz)     0.0000  0.0000  0.4034  0.0000 -0.1986  0.5247
  19.  H 3 (s)     -0.9215  0.0000  1.0278  0.2994 -0.2071 -0.1217
  20.  H 3 (s)      0.3880  0.0000 -0.6490 -1.0805 -0.7410 -0.5606
  21.  H 4 (s)      0.9215  0.0000  1.0278 -0.2994 -0.2071 -0.1217
  22.  H 4 (s)     -0.3880  0.0000 -0.6490  1.0805 -0.7410 -0.5606


 NOs in the AO basis:

           AO          1       2       3       4       5       6       7       8
      ------------ ------- ------- ------- ------- ------- ------- ------- -------
   1.  N 1 (s)      0.8732  0.3625 -0.2440 -0.2750  0.0002 -0.0188  0.0038  0.0023
   2.  N 1 (s)     -0.0418  0.2855  0.1598  0.1985 -0.0011  0.0158 -0.0195  0.0034
   3.  N 1 (px)     0.0010  0.0031  0.0678 -0.0180 -0.0096 -0.5122  0.3855 -0.0511
   4.  N 1 (py)     0.0014 -0.0006  0.0025  0.0023  0.4276 -0.0078  0.0122 -0.4733
   5.  N 1 (pz)    -0.0559  0.0412  0.2485 -0.4042  0.0018  0.0472  0.2040 -0.0885
   6.  N 1 (s)     -0.1387  0.3505  0.1941  0.3991 -0.0020  0.0135 -0.0444  0.0363
   7.  N 1 (px)     0.0010  0.0032  0.0712 -0.0189 -0.0101 -0.5382 -0.1847  0.1172
   8.  N 1 (py)     0.0009 -0.0004  0.0016  0.0015  0.2827 -0.0051 -0.0922  0.4091
   9.  N 1 (pz)    -0.0389  0.0089  0.1783 -0.3347  0.0015  0.0353 -0.0905  0.0868
  10. Li 2 (s)     -0.4794  0.4613 -0.6242 -0.4291  0.0069 -0.0658 -0.0541  0.0756
  11. Li 2 (s)      0.0009  0.0256 -0.0652  0.1030 -0.0004 -0.0121  0.0005 -0.0376
  12. Li 2 (px)     0.0002  0.0008  0.0171 -0.0046 -0.0024 -0.1296  0.8459  0.0062
  13. Li 2 (py)     0.0001  0.0000  0.0001  0.0001  0.0226 -0.0004 -0.0544 -0.2819
  14. Li 2 (pz)     0.0237  0.0166 -0.0576  0.1861 -0.0010 -0.0140 -0.0095  0.1663
  15. Li 2 (s)      0.0019  0.0001  0.0145  0.0150 -0.0001  0.0014  0.2033 -0.1970
  16. Li 2 (px)     0.0002  0.0005  0.0105 -0.0028 -0.0015 -0.0791 -1.4081 -0.1681
  17. Li 2 (py)     0.0000  0.0000  0.0001  0.0001  0.0116 -0.0002 -0.0111  0.8684
  18. Li 2 (pz)    -0.0139 -0.0009  0.0282 -0.0798  0.0004  0.0065  0.1236  0.3755
  19.  H 3 (s)     -0.0520  0.1049  0.1553 -0.0836  0.2506  0.0193 -0.0448 -0.0085
  20.  H 3 (s)     -0.0096  0.0135  0.0639 -0.1083  0.1833  0.0089  0.0512 -0.2507
  21.  H 4 (s)     -0.0536  0.1056  0.1524 -0.0863 -0.2500  0.0284 -0.1703  0.2196
  22.  H 4 (s)     -0.0108  0.0140  0.0618 -0.1103 -0.1823  0.0155 -0.0040 -0.2024

           AO          9      10      11      12      13      14      15      16
      ------------ ------- ------- ------- ------- ------- ------- ------- -------
   1.  N 1 (s)      0.0201 -0.0096  0.0060 -0.0039  0.0519  0.0013 -0.0200  0.0134
   2.  N 1 (s)     -0.0347 -0.0151 -0.0162  0.0570  0.2666 -0.0508 -0.5795 -0.0848
   3.  N 1 (px)     0.0874  0.1699  0.0617 -0.0271 -0.0328  0.1107 -0.0037 -0.0781
   4.  N 1 (py)    -0.3498  0.3109 -0.1455  0.4815 -0.0613  0.6007 -0.0388  0.3350
   5.  N 1 (pz)    -0.0958  0.1770  0.0402  0.1720  0.0776  0.0314 -0.3370  0.2455
   6.  N 1 (s)     -0.0106 -0.0123 -0.1557 -0.1973 -0.9292  0.0657  1.4427  0.1721
   7.  N 1 (px)     0.2251  0.2285 -0.1221 -0.0327  0.0290 -0.0781  0.0027  0.0490
   8.  N 1 (py)     0.4519 -0.3465  0.9397 -0.6829 -0.4170 -0.1185 -0.1111 -1.3881
   9.  N 1 (pz)     0.0872 -0.1727 -0.2557  0.0509 -1.0653 -0.3388  1.6555 -0.1961
  10. Li 2 (s)     -0.0811  0.0322 -0.0339 -0.0785 -0.2521 -0.0210  0.1475 -0.0141
  11. Li 2 (s)      0.3222 -0.2913 -0.6010 -0.2233 -2.0615 -0.2773 -0.2102  0.5949
  12. Li 2 (px)    -0.9615 -1.2246  0.1029 -0.0775  0.0051  0.1342  0.0009  0.0169
  13. Li 2 (py)    -0.4266  0.1619 -1.7356 -0.1100  0.3730  0.0181  0.0523 -0.2677
  14. Li 2 (pz)    -0.2881  0.2642  0.1679 -0.1107  0.0141  0.1966  1.3821  0.0137
  15. Li 2 (s)      0.2771 -0.1359  0.3302  0.6459  1.8905 -0.1336  0.9941 -0.5231
  16. Li 2 (px)     0.4652  0.6028  0.0250  0.2250 -0.0036 -0.2158  0.0007  0.0312
  17. Li 2 (py)     0.4325 -0.2484  1.1467  0.7272 -0.2678  0.2954 -0.0251  0.2470
  18. Li 2 (pz)    -0.0559  0.0092 -0.2557  0.2257 -0.0378 -0.8022 -0.6483  0.1696
  19.  H 3 (s)      0.1693 -0.1330 -0.1350 -0.3294  0.7049 -0.2085 -0.0643  0.5950
  20.  H 3 (s)     -0.2427  0.2076 -0.2616  0.2312  0.5237  0.2459 -1.2336  0.5338
  21.  H 4 (s)      0.2900 -0.2327  0.0271 -0.5376  0.3246  0.7419 -0.2721  0.1554
  22.  H 4 (s)     -0.0945  0.1180  0.8174  0.2817  0.1019 -0.0105 -1.2442 -1.3779

           AO         17      18      19      20      21      22
      ------------ ------- ------- ------- ------- ------- -------
   1.  N 1 (s)      0.0389  0.1066  0.0420 -0.0028 -0.0196  0.0538
   2.  N 1 (s)     -0.1775 -0.8249 -0.7777 -0.0570  0.1589  1.4518
   3.  N 1 (px)    -0.0725  0.2062 -0.0288 -0.1862  0.9155  0.0001
   4.  N 1 (py)    -0.0744  0.2102 -0.2791 -0.1707 -0.1749 -0.0147
   5.  N 1 (pz)     0.2890 -0.3084  0.1944  0.8726  0.1824 -0.1456
   6.  N 1 (s)     -0.0076  0.1061  0.2860  0.0218 -0.0026 -3.5380
   7.  N 1 (px)     0.0581 -0.2534  0.0277  0.1387 -1.0563 -0.0002
   8.  N 1 (py)     0.7900 -0.0290 -0.1900  0.4246  0.0291 -0.0189
   9.  N 1 (pz)    -0.2823  0.2683 -0.4457 -0.6586 -0.1526  0.5579
  10. Li 2 (s)     -0.0598  0.0070 -0.0218 -0.1657 -0.0191  0.3443
  11. Li 2 (s)      0.4152  0.6834  0.3631 -0.2456 -0.0954  2.1666
  12. Li 2 (px)     0.0052  0.0273  0.0124 -0.0584  0.0485  0.0001
  13. Li 2 (py)    -0.0761  0.0366  0.1745  0.0431  0.1202  0.0073
  14. Li 2 (pz)     0.1816  0.3900  0.3564  0.2362 -0.0538  2.2155
  15. Li 2 (s)     -0.1827 -0.2311 -0.9645  0.3419  0.0192 -1.2242
  16. Li 2 (px)     0.0129  0.1136 -0.0179  0.1439  0.4351  0.0001
  17. Li 2 (py)     0.3123 -0.2022  0.0431 -0.2590 -0.0032 -0.0097
  18. Li 2 (pz)     0.1792  0.2469 -1.1705 -0.1177  0.0019 -1.3880
  19.  H 3 (s)      0.7858 -0.1091  0.0416 -0.5910  0.0951  0.0363
  20.  H 3 (s)     -1.8019  0.2718  0.8434  0.4075 -0.0914  0.7975
  21.  H 4 (s)     -0.0165  0.5803 -0.6246  0.2654 -0.0819  0.0301
  22.  H 4 (s)      1.1037 -0.4617  0.9728 -0.2941 -0.0249  0.7348


 AO overlap matrix:

           AO          1       2       3       4       5       6       7       8
      ------------ ------- ------- ------- ------- ------- ------- ------- -------
   1.  N 1 (s)      1.0000  0.1971  0.0000  0.0000  0.0000  0.1696  0.0000  0.0000
   2.  N 1 (s)      0.1971  1.0000  0.0000  0.0000  0.0000  0.7759  0.0000  0.0000
   3.  N 1 (px)     0.0000  0.0000  1.0000  0.0000  0.0000  0.0000  0.5196  0.0000
   4.  N 1 (py)     0.0000  0.0000  0.0000  1.0000  0.0000  0.0000  0.0000  0.5196
   5.  N 1 (pz)     0.0000  0.0000  0.0000  0.0000  1.0000  0.0000  0.0000  0.0000
   6.  N 1 (s)      0.1696  0.7759  0.0000  0.0000  0.0000  1.0000  0.0000  0.0000
   7.  N 1 (px)     0.0000  0.0000  0.5196  0.0000  0.0000  0.0000  1.0000  0.0000
   8.  N 1 (py)     0.0000  0.0000  0.0000  0.5196  0.0000  0.0000  0.0000  1.0000
   9.  N 1 (pz)     0.0000  0.0000  0.0000  0.0000  0.5196  0.0000  0.0000  0.0000
  10. Li 2 (s)      0.0003  0.0130  0.0000  0.0000 -0.0246  0.0958  0.0000  0.0000
  11. Li 2 (s)      0.0410  0.2410  0.0000  0.0000 -0.0901  0.4730  0.0000  0.0000
  12. Li 2 (px)     0.0000  0.0000  0.0998  0.0000  0.0000  0.0000  0.4139  0.0000
  13. Li 2 (py)     0.0000  0.0000  0.0000  0.0998  0.0000  0.0000  0.0000  0.4139
  14. Li 2 (pz)     0.0645  0.3621  0.0000  0.0000 -0.0679  0.6078  0.0000  0.0000
  15. Li 2 (s)      0.0330  0.2021  0.0000  0.0000 -0.0406  0.4382  0.0000  0.0000
  16. Li 2 (px)     0.0000  0.0000  0.0654  0.0000  0.0000  0.0000  0.3145  0.0000
  17. Li 2 (py)     0.0000  0.0000  0.0000  0.0654  0.0000  0.0000  0.0000  0.3145
  18. Li 2 (pz)     0.0408  0.2387  0.0000  0.0000  0.0171  0.4618  0.0000  0.0000
  19.  H 3 (s)      0.0304  0.2420  0.0000  0.2359  0.1899  0.3993  0.0000  0.4353
  20.  H 3 (s)      0.0737  0.4047  0.0000  0.1429  0.1150  0.6871  0.0000  0.4111
  21.  H 4 (s)      0.0304  0.2420  0.0000 -0.2359  0.1899  0.3993  0.0000 -0.4353
  22.  H 4 (s)      0.0737  0.4047  0.0000 -0.1429  0.1150  0.6871  0.0000 -0.4111

           AO          9      10      11      12      13      14      15      16
      ------------ ------- ------- ------- ------- ------- ------- ------- -------
   1.  N 1 (s)      0.0000  0.0003  0.0410  0.0000  0.0000  0.0645  0.0330  0.0000
   2.  N 1 (s)      0.0000  0.0130  0.2410  0.0000  0.0000  0.3621  0.2021  0.0000
   3.  N 1 (px)     0.0000  0.0000  0.0000  0.0998  0.0000  0.0000  0.0000  0.0654
   4.  N 1 (py)     0.0000  0.0000  0.0000  0.0000  0.0998  0.0000  0.0000  0.0000
   5.  N 1 (pz)     0.5196 -0.0246 -0.0901  0.0000  0.0000 -0.0679 -0.0406  0.0000
   6.  N 1 (s)      0.0000  0.0958  0.4730  0.0000  0.0000  0.6078  0.4382  0.0000
   7.  N 1 (px)     0.0000  0.0000  0.0000  0.4139  0.0000  0.0000  0.0000  0.3145
   8.  N 1 (py)     0.0000  0.0000  0.0000  0.0000  0.4139  0.0000  0.0000  0.0000
   9.  N 1 (pz)     1.0000 -0.2302 -0.3327  0.0000  0.0000 -0.1215 -0.1954  0.0000
  10. Li 2 (s)     -0.2302  1.0000  0.1397  0.0000  0.0000  0.0000  0.1972  0.0000
  11. Li 2 (s)     -0.3327  0.1397  1.0000  0.0000  0.0000  0.0000  0.9100  0.0000
  12. Li 2 (px)     0.0000  0.0000  0.0000  1.0000  0.0000  0.0000  0.0000  0.8105
  13. Li 2 (py)     0.0000  0.0000  0.0000  0.0000  1.0000  0.0000  0.0000  0.0000
  14. Li 2 (pz)    -0.1215  0.0000  0.0000  0.0000  0.0000  1.0000  0.0000  0.0000
  15. Li 2 (s)     -0.1954  0.1972  0.9100  0.0000  0.0000  0.0000  1.0000  0.0000
  16. Li 2 (px)     0.0000  0.0000  0.0000  0.8105  0.0000  0.0000  0.0000  1.0000
  17. Li 2 (py)     0.0000  0.0000  0.0000  0.0000  0.8105  0.0000  0.0000  0.0000
  18. Li 2 (pz)     0.1086  0.0000  0.0000  0.0000  0.0000  0.8105  0.0000  0.0000
  19.  H 3 (s)      0.3503  0.0003  0.1036  0.0000  0.0711  0.2027  0.1320  0.0000
  20.  H 3 (s)      0.3308  0.0261  0.3042  0.0000  0.1605  0.4572  0.3655  0.0000
  21.  H 4 (s)      0.3503  0.0003  0.1036  0.0000 -0.0711  0.2027  0.1320  0.0000
  22.  H 4 (s)      0.3308  0.0261  0.3042  0.0000 -0.1605  0.4572  0.3655  0.0000

           AO         17      18      19      20      21      22
      ------------ ------- ------- ------- ------- ------- -------
   1.  N 1 (s)      0.0000  0.0408  0.0304  0.0737  0.0304  0.0737
   2.  N 1 (s)      0.0000  0.2387  0.2420  0.4047  0.2420  0.4047
   3.  N 1 (px)     0.0000  0.0000  0.0000  0.0000  0.0000  0.0000
   4.  N 1 (py)     0.0654  0.0000  0.2359  0.1429 -0.2359 -0.1429
   5.  N 1 (pz)     0.0000  0.0171  0.1899  0.1150  0.1899  0.1150
   6.  N 1 (s)      0.0000  0.4618  0.3993  0.6871  0.3993  0.6871
   7.  N 1 (px)     0.0000  0.0000  0.0000  0.0000  0.0000  0.0000
   8.  N 1 (py)     0.3145  0.0000  0.4353  0.4111 -0.4353 -0.4111
   9.  N 1 (pz)     0.0000  0.1086  0.3503  0.3308  0.3503  0.3308
  10. Li 2 (s)      0.0000  0.0000  0.0003  0.0261  0.0003  0.0261
  11. Li 2 (s)      0.0000  0.0000  0.1036  0.3042  0.1036  0.3042
  12. Li 2 (px)     0.0000  0.0000  0.0000  0.0000  0.0000  0.0000
  13. Li 2 (py)     0.8105  0.0000  0.0711  0.1605 -0.0711 -0.1605
  14. Li 2 (pz)     0.0000  0.8105  0.2027  0.4572  0.2027  0.4572
  15. Li 2 (s)      0.0000  0.0000  0.1320  0.3655  0.1320  0.3655
  16. Li 2 (px)     0.0000  0.0000  0.0000  0.0000  0.0000  0.0000
  17. Li 2 (py)     1.0000  0.0000  0.0758  0.1776 -0.0758 -0.1776
  18. Li 2 (pz)     0.0000  1.0000  0.2159  0.5060  0.2159  0.5060
  19.  H 3 (s)      0.0758  0.2159  1.0000  0.6583  0.0379  0.1985
  20.  H 3 (s)      0.1776  0.5060  0.6583  1.0000  0.1985  0.4788
  21.  H 4 (s)     -0.0758  0.2159  0.0379  0.1985  1.0000  0.6583
  22.  H 4 (s)     -0.1776  0.5060  0.1985  0.4788  0.6583  1.0000


 AO bond-order matrix:

           AO          1       2       3       4       5       6       7       8
      ------------ ------- ------- ------- ------- ------- ------- ------- -------
   1.  N 1 (s)      2.0589 -0.0538  0.0000  0.0000  0.0315 -0.3029  0.0000  0.0000
   2.  N 1 (s)     -0.0538  0.2969  0.0000  0.0000 -0.0514  0.4326  0.0000  0.0000
   3.  N 1 (px)     0.0000  0.0000  0.5348  0.0000  0.0000  0.0000  0.5619  0.0000
   4.  N 1 (py)     0.0000  0.0000  0.0000  0.3659  0.0000  0.0000  0.0000  0.2419
   5.  N 1 (pz)     0.0315 -0.0514  0.0000  0.0000  0.4643 -0.1805  0.0000  0.0000
   6.  N 1 (s)     -0.3029  0.4326  0.0000  0.0000 -0.1805  0.6784  0.0000  0.0000
   7.  N 1 (px)     0.0000  0.0000  0.5619  0.0000  0.0000  0.0000  0.5905  0.0000
   8.  N 1 (py)     0.0000  0.0000  0.0000  0.2419  0.0000  0.0000  0.0000  0.1599
   9.  N 1 (pz)     0.0344 -0.0665  0.0000  0.0000  0.3676 -0.1800  0.0000  0.0000
  10. Li 2 (s)      0.0403 -0.0686  0.0000  0.0000  0.1221 -0.1303  0.0000  0.0000
  11. Li 2 (s)     -0.0043  0.0342  0.0000  0.0000 -0.1147  0.0742  0.0000  0.0000
  12. Li 2 (px)     0.0000  0.0000  0.1353  0.0000  0.0000  0.0000  0.1421  0.0000
  13. Li 2 (py)     0.0000  0.0000  0.0000  0.0194  0.0000  0.0000  0.0000  0.0128
  14. Li 2 (pz)    -0.0203  0.0625  0.0000  0.0000 -0.1817  0.1309  0.0000  0.0000
  15. Li 2 (s)     -0.0120  0.0105  0.0000  0.0000 -0.0050  0.0171  0.0000  0.0000
  16. Li 2 (px)     0.0000  0.0000  0.0825  0.0000  0.0000  0.0000  0.0867  0.0000
  17. Li 2 (py)     0.0000  0.0000  0.0000  0.0099  0.0000  0.0000  0.0000  0.0066
  18. Li 2 (pz)     0.0049 -0.0218  0.0000  0.0000  0.0807 -0.0494  0.0000  0.0000
  19.  H 3 (s)     -0.0452  0.0807  0.0000  0.2142  0.1620  0.0809  0.0000  0.1416
  20.  H 3 (s)      0.0212 -0.0142  0.0000  0.1564  0.1230 -0.0501  0.0000  0.1034
  21.  H 4 (s)     -0.0452  0.0807  0.0000 -0.2142  0.1620  0.0809  0.0000 -0.1416
  22.  H 4 (s)      0.0212 -0.0142  0.0000 -0.1564  0.1230 -0.0501  0.0000 -0.1034

           AO          9      10      11      12      13      14      15      16
      ------------ ------- ------- ------- ------- ------- ------- ------- -------
   1.  N 1 (s)      0.0344  0.0403 -0.0043  0.0000  0.0000 -0.0203 -0.0120  0.0000
   2.  N 1 (s)     -0.0665 -0.0686  0.0342  0.0000  0.0000  0.0625  0.0105  0.0000
   3.  N 1 (px)     0.0000  0.0000  0.0000  0.1353  0.0000  0.0000  0.0000  0.0825
   4.  N 1 (py)     0.0000  0.0000  0.0000  0.0000  0.0194  0.0000  0.0000  0.0000
   5.  N 1 (pz)     0.3676  0.1221 -0.1147  0.0000  0.0000 -0.1817 -0.0050  0.0000
   6.  N 1 (s)     -0.1800 -0.1303  0.0742  0.0000  0.0000  0.1309  0.0171  0.0000
   7.  N 1 (px)     0.0000  0.0000  0.0000  0.1421  0.0000  0.0000  0.0000  0.0867
   8.  N 1 (py)     0.0000  0.0000  0.0000  0.0000  0.0128  0.0000  0.0000  0.0000
   9.  N 1 (pz)     0.2933  0.1056 -0.0926  0.0000  0.0000 -0.1477 -0.0049  0.0000
  10. Li 2 (s)      0.1056  2.0413  0.0173  0.0000  0.0000 -0.0934 -0.0329  0.0000
  11. Li 2 (s)     -0.0926  0.0173  0.0313  0.0000  0.0000  0.0471  0.0012  0.0000
  12. Li 2 (px)     0.0000  0.0000  0.0000  0.0342  0.0000  0.0000  0.0000  0.0209
  13. Li 2 (py)     0.0000  0.0000  0.0000  0.0000  0.0010  0.0000  0.0000  0.0000
  14. Li 2 (pz)    -0.1477 -0.0934  0.0471  0.0000  0.0000  0.0780  0.0040  0.0000
  15. Li 2 (s)     -0.0049 -0.0329  0.0012  0.0000  0.0000  0.0040  0.0009  0.0000
  16. Li 2 (px)     0.0000  0.0000  0.0000  0.0209  0.0000  0.0000  0.0000  0.0127
  17. Li 2 (py)     0.0000  0.0000  0.0000  0.0000  0.0005  0.0000  0.0000  0.0000
  18. Li 2 (pz)     0.0650  0.0449 -0.0203  0.0000  0.0000 -0.0338 -0.0016  0.0000
  19.  H 3 (s)      0.1194  0.0255 -0.0328  0.0000  0.0113 -0.0490  0.0018  0.0000
  20.  H 3 (s)      0.0975  0.0361 -0.0303  0.0000  0.0083 -0.0483 -0.0015  0.0000
  21.  H 4 (s)      0.1194  0.0255 -0.0328  0.0000 -0.0113 -0.0490  0.0018  0.0000
  22.  H 4 (s)      0.0975  0.0361 -0.0303  0.0000 -0.0083 -0.0483 -0.0015  0.0000

           AO         17      18      19      20      21      22
      ------------ ------- ------- ------- ------- ------- -------
   1.  N 1 (s)      0.0000  0.0049 -0.0452  0.0212 -0.0452  0.0212
   2.  N 1 (s)      0.0000 -0.0218  0.0807 -0.0142  0.0807 -0.0142
   3.  N 1 (px)     0.0000  0.0000  0.0000  0.0000  0.0000  0.0000
   4.  N 1 (py)     0.0099  0.0000  0.2142  0.1564 -0.2142 -0.1564
   5.  N 1 (pz)     0.0000  0.0807  0.1620  0.1230  0.1620  0.1230
   6.  N 1 (s)      0.0000 -0.0494  0.0809 -0.0501  0.0809 -0.0501
   7.  N 1 (px)     0.0000  0.0000  0.0000  0.0000  0.0000  0.0000
   8.  N 1 (py)     0.0066  0.0000  0.1416  0.1034 -0.1416 -0.1034
   9.  N 1 (pz)     0.0000  0.0650  0.1194  0.0975  0.1194  0.0975
  10. Li 2 (s)      0.0000  0.0449  0.0255  0.0361  0.0255  0.0361
  11. Li 2 (s)      0.0000 -0.0203 -0.0328 -0.0303 -0.0328 -0.0303
  12. Li 2 (px)     0.0000  0.0000  0.0000  0.0000  0.0000  0.0000
  13. Li 2 (py)     0.0005  0.0000  0.0113  0.0083 -0.0113 -0.0083
  14. Li 2 (pz)     0.0000 -0.0338 -0.0490 -0.0483 -0.0490 -0.0483
  15. Li 2 (s)      0.0000 -0.0016  0.0018 -0.0015  0.0018 -0.0015
  16. Li 2 (px)     0.0000  0.0000  0.0000  0.0000  0.0000  0.0000
  17. Li 2 (py)     0.0003  0.0000  0.0058  0.0043 -0.0058 -0.0043
  18. Li 2 (pz)     0.0000  0.0148  0.0239  0.0214  0.0239  0.0214
  19.  H 3 (s)      0.0058  0.0239  0.2160  0.1340 -0.0347 -0.0491
  20.  H 3 (s)      0.0043  0.0214  0.1340  0.0995 -0.0491 -0.0342
  21.  H 4 (s)     -0.0058  0.0239 -0.0347 -0.0491  0.2160  0.1340
  22.  H 4 (s)     -0.0043  0.0214 -0.0491 -0.0342  0.1340  0.0995


 AO density matrix:

           AO          1       2       3       4       5       6       7       8
      ------------ ------- ------- ------- ------- ------- ------- ------- -------
   1.  N 1 (s)      1.9987  0.4169  0.0000  0.0000  0.0049  0.3300  0.0000  0.0000
   2.  N 1 (s)      0.4169  1.5687  0.0000  0.0000 -0.0899  1.7102  0.0000  0.0000
   3.  N 1 (px)     0.0000  0.0000  1.3372  0.0000  0.0000  0.0000  1.4575  0.0000
   4.  N 1 (py)     0.0000  0.0000  0.0000  1.1192  0.0000  0.0000  0.0000  1.3261
   5.  N 1 (pz)     0.0049 -0.0899  0.0000  0.0000  1.2673 -0.0120  0.0000  0.0000
   6.  N 1 (s)      0.3300  1.7102  0.0000  0.0000 -0.0120  1.8931  0.0000  0.0000
   7.  N 1 (px)     0.0000  0.0000  1.4575  0.0000  0.0000  0.0000  1.5887  0.0000
   8.  N 1 (py)     0.0000  0.0000  0.0000  1.3261  0.0000  0.0000  0.0000  1.5712
   9.  N 1 (pz)     0.0022 -0.0640  0.0000  0.0000  1.4090 -0.0074  0.0000  0.0000
  10. Li 2 (s)      0.0006  0.0244  0.0000  0.0000 -0.0500  0.1920  0.0000  0.0000
  11. Li 2 (s)      0.0703  0.7675  0.0000  0.0000 -0.4054  0.8440  0.0000  0.0000
  12. Li 2 (px)     0.0000  0.0000  0.7719  0.0000  0.0000  0.0000  0.8414  0.0000
  13. Li 2 (py)     0.0000  0.0000  0.0000  0.4280  0.0000  0.0000  0.0000  0.5072
  14. Li 2 (pz)     0.1164  1.0032  0.0000  0.0000 -0.2027  1.0902  0.0000  0.0000
  15. Li 2 (s)      0.0548  0.6835  0.0000  0.0000 -0.2074  0.7753  0.0000  0.0000
  16. Li 2 (px)     0.0000  0.0000  0.6386  0.0000  0.0000  0.0000  0.6961  0.0000
  17. Li 2 (py)     0.0000  0.0000  0.0000  0.3737  0.0000  0.0000  0.0000  0.4428
  18. Li 2 (pz)     0.0713  0.7134  0.0000  0.0000  0.1562  0.7986  0.0000  0.0000
  19.  H 3 (s)      0.0505  0.6984  0.0000  0.8250  0.6419  0.8194  0.0000  0.9776
  20.  H 3 (s)      0.1347  1.0837  0.0000  0.5887  0.4902  1.2352  0.0000  0.6975
  21.  H 4 (s)      0.0505  0.6984  0.0000 -0.8250  0.6419  0.8194  0.0000 -0.9776
  22.  H 4 (s)      0.1347  1.0837  0.0000 -0.5887  0.4902  1.2352  0.0000 -0.6975

           AO          9      10      11      12      13      14      15      16
      ------------ ------- ------- ------- ------- ------- ------- ------- -------
   1.  N 1 (s)      0.0022  0.0006  0.0703  0.0000  0.0000  0.1164  0.0548  0.0000
   2.  N 1 (s)     -0.0640  0.0244  0.7675  0.0000  0.0000  1.0032  0.6835  0.0000
   3.  N 1 (px)     0.0000  0.0000  0.0000  0.7719  0.0000  0.0000  0.0000  0.6386
   4.  N 1 (py)     0.0000  0.0000  0.0000  0.0000  0.4280  0.0000  0.0000  0.0000
   5.  N 1 (pz)     1.4090 -0.0500 -0.4054  0.0000  0.0000 -0.2027 -0.2074  0.0000
   6.  N 1 (s)     -0.0074  0.1920  0.8440  0.0000  0.0000  1.0902  0.7753  0.0000
   7.  N 1 (px)     0.0000  0.0000  0.0000  0.8414  0.0000  0.0000  0.0000  0.6961
   8.  N 1 (py)     0.0000  0.0000  0.0000  0.0000  0.5072  0.0000  0.0000  0.0000
   9.  N 1 (pz)     1.6500 -0.4613 -0.4894  0.0000  0.0000 -0.1934 -0.2947  0.0000
  10. Li 2 (s)     -0.4613  1.9993  0.3042  0.0000  0.0000 -0.0187  0.4125  0.0000
  11. Li 2 (s)     -0.4894  0.3042  0.5260  0.0000  0.0000  0.5365  0.4458  0.0000
  12. Li 2 (px)     0.0000  0.0000  0.0000  0.4456  0.0000  0.0000  0.0000  0.3686
  13. Li 2 (py)     0.0000  0.0000  0.0000  0.0000  0.1637  0.0000  0.0000  0.0000
  14. Li 2 (pz)    -0.1934 -0.0187  0.5365  0.0000  0.0000  0.6705  0.4581  0.0000
  15. Li 2 (s)     -0.2947  0.4125  0.4458  0.0000  0.0000  0.4581  0.4064  0.0000
  16. Li 2 (px)     0.0000  0.0000  0.0000  0.3686  0.0000  0.0000  0.0000  0.3050
  17. Li 2 (py)     0.0000  0.0000  0.0000  0.0000  0.1429  0.0000  0.0000  0.0000
  18. Li 2 (pz)     0.1933 -0.0067  0.2993  0.0000  0.0000  0.4433  0.2905  0.0000
  19.  H 3 (s)      0.7284  0.0016  0.1588  0.0000  0.3155  0.3796  0.2266  0.0000
  20.  H 3 (s)      0.5600  0.0545  0.3912  0.0000  0.2251  0.6412  0.4210  0.0000
  21.  H 4 (s)      0.7284  0.0016  0.1588  0.0000 -0.3155  0.3796  0.2266  0.0000
  22.  H 4 (s)      0.5600  0.0545  0.3912  0.0000 -0.2251  0.6412  0.4210  0.0000

           AO         17      18      19      20      21      22
      ------------ ------- ------- ------- ------- ------- -------
   1.  N 1 (s)      0.0000  0.0713  0.0505  0.1347  0.0505  0.1347
   2.  N 1 (s)      0.0000  0.7134  0.6984  1.0837  0.6984  1.0837
   3.  N 1 (px)     0.0000  0.0000  0.0000  0.0000  0.0000  0.0000
   4.  N 1 (py)     0.3737  0.0000  0.8250  0.5887 -0.8250 -0.5887
   5.  N 1 (pz)     0.0000  0.1562  0.6419  0.4902  0.6419  0.4902
   6.  N 1 (s)      0.0000  0.7986  0.8194  1.2352  0.8194  1.2352
   7.  N 1 (px)     0.0000  0.0000  0.0000  0.0000  0.0000  0.0000
   8.  N 1 (py)     0.4428  0.0000  0.9776  0.6975 -0.9776 -0.6975
   9.  N 1 (pz)     0.0000  0.1933  0.7284  0.5600  0.7284  0.5600
  10. Li 2 (s)      0.0000 -0.0067  0.0016  0.0545  0.0016  0.0545
  11. Li 2 (s)      0.0000  0.2993  0.1588  0.3912  0.1588  0.3912
  12. Li 2 (px)     0.0000  0.0000  0.0000  0.0000  0.0000  0.0000
  13. Li 2 (py)     0.1429  0.0000  0.3155  0.2251 -0.3155 -0.2251
  14. Li 2 (pz)     0.0000  0.4433  0.3796  0.6412  0.3796  0.6412
  15. Li 2 (s)      0.0000  0.2905  0.2266  0.4210  0.2266  0.4210
  16. Li 2 (px)     0.0000  0.0000  0.0000  0.0000  0.0000  0.0000
  17. Li 2 (py)     0.1248  0.0000  0.2755  0.1965 -0.2755 -0.1965
  18. Li 2 (pz)     0.0000  0.3633  0.4338  0.5896  0.4338  0.5896
  19.  H 3 (s)      0.2755  0.4338  1.2997  1.2285  0.0833  0.3606
  20.  H 3 (s)      0.1965  0.5896  1.2285  1.3162  0.3606  0.6970
  21.  H 4 (s)     -0.2755  0.4338  0.0833  0.3606  1.2997  1.2285
  22.  H 4 (s)     -0.1965  0.5896  0.3606  0.6970  1.2285  1.3162


 MO density matrix:

      MO     1       2       3       4       5       6       7       8       9
     ---- ------  ------  ------  ------  ------  ------  ------  ------  ------
   1.     2.0000  0.0000  0.0000  0.0000  0.0000  0.0000  0.0000  0.0000  0.0000
   2.     0.0000  2.0000  0.0000  0.0000  0.0000  0.0000  0.0000  0.0000  0.0000
   3.     0.0000  0.0000  2.0000  0.0000  0.0000  0.0000  0.0000  0.0000  0.0000
   4.     0.0000  0.0000  0.0000  2.0000  0.0000  0.0000  0.0000  0.0000  0.0000
   5.     0.0000  0.0000  0.0000  0.0000  2.0000  0.0000  0.0000  0.0000  0.0000
   6.     0.0000  0.0000  0.0000  0.0000  0.0000  2.0000  0.0000  0.0000  0.0000
   7.     0.0000  0.0000  0.0000  0.0000  0.0000  0.0000  0.0000  0.0000  0.0000
   8.     0.0000  0.0000  0.0000  0.0000  0.0000  0.0000  0.0000  0.0000  0.0000
   9.     0.0000  0.0000  0.0000  0.0000  0.0000  0.0000  0.0000  0.0000  0.0000
  10.     0.0000  0.0000  0.0000  0.0000  0.0000  0.0000  0.0000  0.0000  0.0000
  11.     0.0000  0.0000  0.0000  0.0000  0.0000  0.0000  0.0000  0.0000  0.0000
  12.     0.0000  0.0000  0.0000  0.0000  0.0000  0.0000  0.0000  0.0000  0.0000
  13.     0.0000  0.0000  0.0000  0.0000  0.0000  0.0000  0.0000  0.0000  0.0000
  14.     0.0000  0.0000  0.0000  0.0000  0.0000  0.0000  0.0000  0.0000  0.0000
  15.     0.0000  0.0000  0.0000  0.0000  0.0000  0.0000  0.0000  0.0000  0.0000
  16.     0.0000  0.0000  0.0000  0.0000  0.0000  0.0000  0.0000  0.0000  0.0000
  17.     0.0000  0.0000  0.0000  0.0000  0.0000  0.0000  0.0000  0.0000  0.0000
  18.     0.0000  0.0000  0.0000  0.0000  0.0000  0.0000  0.0000  0.0000  0.0000
  19.     0.0000  0.0000  0.0000  0.0000  0.0000  0.0000  0.0000  0.0000  0.0000
  20.     0.0000  0.0000  0.0000  0.0000  0.0000  0.0000  0.0000  0.0000  0.0000
  21.     0.0000  0.0000  0.0000  0.0000  0.0000  0.0000  0.0000  0.0000  0.0000
  22.     0.0000  0.0000  0.0000  0.0000  0.0000  0.0000  0.0000  0.0000  0.0000

      MO    10      11      12      13      14      15      16      17      18
     ---- ------  ------  ------  ------  ------  ------  ------  ------  ------
   1.     0.0000  0.0000  0.0000  0.0000  0.0000  0.0000  0.0000  0.0000  0.0000
   2.     0.0000  0.0000  0.0000  0.0000  0.0000  0.0000  0.0000  0.0000  0.0000
   3.     0.0000  0.0000  0.0000  0.0000  0.0000  0.0000  0.0000  0.0000  0.0000
   4.     0.0000  0.0000  0.0000  0.0000  0.0000  0.0000  0.0000  0.0000  0.0000
   5.     0.0000  0.0000  0.0000  0.0000  0.0000  0.0000  0.0000  0.0000  0.0000
   6.     0.0000  0.0000  0.0000  0.0000  0.0000  0.0000  0.0000  0.0000  0.0000
   7.     0.0000  0.0000  0.0000  0.0000  0.0000  0.0000  0.0000  0.0000  0.0000
   8.     0.0000  0.0000  0.0000  0.0000  0.0000  0.0000  0.0000  0.0000  0.0000
   9.     0.0000  0.0000  0.0000  0.0000  0.0000  0.0000  0.0000  0.0000  0.0000
  10.     0.0000  0.0000  0.0000  0.0000  0.0000  0.0000  0.0000  0.0000  0.0000
  11.     0.0000  0.0000  0.0000  0.0000  0.0000  0.0000  0.0000  0.0000  0.0000
  12.     0.0000  0.0000  0.0000  0.0000  0.0000  0.0000  0.0000  0.0000  0.0000
  13.     0.0000  0.0000  0.0000  0.0000  0.0000  0.0000  0.0000  0.0000  0.0000
  14.     0.0000  0.0000  0.0000  0.0000  0.0000  0.0000  0.0000  0.0000  0.0000
  15.     0.0000  0.0000  0.0000  0.0000  0.0000  0.0000  0.0000  0.0000  0.0000
  16.     0.0000  0.0000  0.0000  0.0000  0.0000  0.0000  0.0000  0.0000  0.0000
  17.     0.0000  0.0000  0.0000  0.0000  0.0000  0.0000  0.0000  0.0000  0.0000
  18.     0.0000  0.0000  0.0000  0.0000  0.0000  0.0000  0.0000  0.0000  0.0000
  19.     0.0000  0.0000  0.0000  0.0000  0.0000  0.0000  0.0000  0.0000  0.0000
  20.     0.0000  0.0000  0.0000  0.0000  0.0000  0.0000  0.0000  0.0000  0.0000
  21.     0.0000  0.0000  0.0000  0.0000  0.0000  0.0000  0.0000  0.0000  0.0000
  22.     0.0000  0.0000  0.0000  0.0000  0.0000  0.0000  0.0000  0.0000  0.0000

      MO    19      20      21      22
     ---- ------  ------  ------  ------
   1.     0.0000  0.0000  0.0000  0.0000
   2.     0.0000  0.0000  0.0000  0.0000
   3.     0.0000  0.0000  0.0000  0.0000
   4.     0.0000  0.0000  0.0000  0.0000
   5.     0.0000  0.0000  0.0000  0.0000
   6.     0.0000  0.0000  0.0000  0.0000
   7.     0.0000  0.0000  0.0000  0.0000
   8.     0.0000  0.0000  0.0000  0.0000
   9.     0.0000  0.0000  0.0000  0.0000
  10.     0.0000  0.0000  0.0000  0.0000
  11.     0.0000  0.0000  0.0000  0.0000
  12.     0.0000  0.0000  0.0000  0.0000
  13.     0.0000  0.0000  0.0000  0.0000
  14.     0.0000  0.0000  0.0000  0.0000
  15.     0.0000  0.0000  0.0000  0.0000
  16.     0.0000  0.0000  0.0000  0.0000
  17.     0.0000  0.0000  0.0000  0.0000
  18.     0.0000  0.0000  0.0000  0.0000
  19.     0.0000  0.0000  0.0000  0.0000
  20.     0.0000  0.0000  0.0000  0.0000
  21.     0.0000  0.0000  0.0000  0.0000
  22.     0.0000  0.0000  0.0000  0.0000


 NATURAL POPULATIONS:  Natural atomic orbital occupancies

  NAO Atom No lang   Type(AO)    Occupancy      Energy
 -------------------------------------------------------
   1    N  1  s      Cor( 1s)     1.99994     -15.40127
   2    N  1  s      Val( 2s)     1.63631      -0.61844
   3    N  1  s      Ryd( 3s)     0.00324       1.65988
   4    N  1  px     Val( 2p)     1.93851      -0.27369
   5    N  1  px     Ryd( 3p)     0.00133       1.18495
   6    N  1  py     Val( 2p)     1.35710      -0.11102
   7    N  1  py     Ryd( 3p)     0.00339       1.25675
   8    N  1  pz     Val( 2p)     1.67585      -0.23158
   9    N  1  pz     Ryd( 3p)     0.00119       1.35907

  10   Li  2  s      Cor( 1s)     1.99984      -2.39093
  11   Li  2  s      Val( 2s)     0.03022       0.16055
  12   Li  2  s      Ryd( 3s)     0.00038       0.29485
  13   Li  2  px     Ryd( 2p)     0.05985       0.15396
  14   Li  2  px     Ryd( 3p)     0.00031       0.23531
  15   Li  2  py     Ryd( 2p)     0.00001       0.16353
  16   Li  2  py     Ryd( 3p)     0.00000       0.28693
  17   Li  2  pz     Ryd( 2p)     0.00344       0.25950
  18   Li  2  pz     Ryd( 3p)     0.00586       0.50902

  19    H  3  s      Val( 1s)     0.64091       0.30927
  20    H  3  s      Ryd( 2s)     0.00070       0.83049

  21    H  4  s      Val( 1s)     0.64091       0.30927
  22    H  4  s      Ryd( 2s)     0.00070       0.83049


 Summary of Natural Population Analysis:

                                     Natural Population
             Natural    ---------------------------------------------
  Atom No    Charge        Core      Valence    Rydberg      Total
 --------------------------------------------------------------------
    N  1   -1.61687      1.99994     6.60777    0.00915     8.61687
   Li  2    0.90009      1.99984     0.03022    0.06985     2.09991
    H  3    0.35839      0.00000     0.64091    0.00070     0.64161
    H  4    0.35839      0.00000     0.64091    0.00070     0.64161
 ====================================================================
 * Total *  0.00000      3.99979     7.91981    0.08041    12.00000

                                 Natural Population
 ---------------------------------------------------------
   Core                       3.99979 ( 99.9947% of    4)
   Valence                    7.91981 ( 98.9976% of    8)
   Natural Minimal Basis     11.91959 ( 99.3299% of   12)
   Natural Rydberg Basis      0.08041 (  0.6701% of   12)
 ---------------------------------------------------------

    Atom No         Natural Electron Configuration
 ----------------------------------------------------------------------------
      N  1      [core]2s( 1.64)2p( 4.97)3p( 0.01)
     Li  2      [core]2s( 0.03)2p( 0.06)3p( 0.01)
      H  3            1s( 0.64)
      H  4            1s( 0.64)


 PNAOs in the AO basis:

           AO          1       2       3       4       5       6       7       8
      ------------ ------- ------- ------- ------- ------- ------- ------- -------
   1.  N 1 (s)      0.9937 -0.2114 -0.0953  0.0000  0.0000  0.0000  0.0000  0.0000
   2.  N 1 (s)      0.0454  0.3205  1.5609  0.0000  0.0000  0.0000  0.0000  0.0000
   3.  N 1 (px)     0.0000  0.0000  0.0000  0.4524  1.0794  0.0000  0.0000  0.0000
   4.  N 1 (py)     0.0000  0.0000  0.0000  0.0000  0.0000  0.4524  1.0794  0.0000
   5.  N 1 (pz)     0.0000  0.0000  0.0000  0.0000  0.0000  0.0000  0.0000  0.4524
   6.  N 1 (s)     -0.0186  0.7488 -1.3978  0.0000  0.0000  0.0000  0.0000  0.0000
   7.  N 1 (px)     0.0000  0.0000  0.0000  0.6872 -0.9474  0.0000  0.0000  0.0000
   8.  N 1 (py)     0.0000  0.0000  0.0000  0.0000  0.0000  0.6872 -0.9474  0.0000
   9.  N 1 (pz)     0.0000  0.0000  0.0000  0.0000  0.0000  0.0000  0.0000  0.6872
  10. Li 2 (s)      0.0000  0.0000  0.0000  0.0000  0.0000  0.0000  0.0000  0.0000
  11. Li 2 (s)      0.0000  0.0000  0.0000  0.0000  0.0000  0.0000  0.0000  0.0000
  12. Li 2 (px)     0.0000  0.0000  0.0000  0.0000  0.0000  0.0000  0.0000  0.0000
  13. Li 2 (py)     0.0000  0.0000  0.0000  0.0000  0.0000  0.0000  0.0000  0.0000
  14. Li 2 (pz)     0.0000  0.0000  0.0000  0.0000  0.0000  0.0000  0.0000  0.0000
  15. Li 2 (s)      0.0000  0.0000  0.0000  0.0000  0.0000  0.0000  0.0000  0.0000
  16. Li 2 (px)     0.0000  0.0000  0.0000  0.0000  0.0000  0.0000  0.0000  0.0000
  17. Li 2 (py)     0.0000  0.0000  0.0000  0.0000  0.0000  0.0000  0.0000  0.0000
  18. Li 2 (pz)     0.0000  0.0000  0.0000  0.0000  0.0000  0.0000  0.0000  0.0000
  19.  H 3 (s)      0.0000  0.0000  0.0000  0.0000  0.0000  0.0000  0.0000  0.0000
  20.  H 3 (s)      0.0000  0.0000  0.0000  0.0000  0.0000  0.0000  0.0000  0.0000
  21.  H 4 (s)      0.0000  0.0000  0.0000  0.0000  0.0000  0.0000  0.0000  0.0000
  22.  H 4 (s)      0.0000  0.0000  0.0000  0.0000  0.0000  0.0000  0.0000  0.0000

           AO          9      10      11      12      13      14      15      16
      ------------ ------- ------- ------- ------- ------- ------- ------- -------
   1.  N 1 (s)      0.0000  0.0000  0.0000  0.0000  0.0000  0.0000  0.0000  0.0000
   2.  N 1 (s)      0.0000  0.0000  0.0000  0.0000  0.0000  0.0000  0.0000  0.0000
   3.  N 1 (px)     0.0000  0.0000  0.0000  0.0000  0.0000  0.0000  0.0000  0.0000
   4.  N 1 (py)     0.0000  0.0000  0.0000  0.0000  0.0000  0.0000  0.0000  0.0000
   5.  N 1 (pz)     1.0794  0.0000  0.0000  0.0000  0.0000  0.0000  0.0000  0.0000
   6.  N 1 (s)      0.0000  0.0000  0.0000  0.0000  0.0000  0.0000  0.0000  0.0000
   7.  N 1 (px)     0.0000  0.0000  0.0000  0.0000  0.0000  0.0000  0.0000  0.0000
   8.  N 1 (py)     0.0000  0.0000  0.0000  0.0000  0.0000  0.0000  0.0000  0.0000
   9.  N 1 (pz)    -0.9474  0.0000  0.0000  0.0000  0.0000  0.0000  0.0000  0.0000
  10. Li 2 (s)      0.0000  0.9986 -0.1032 -0.2067  0.0000  0.0000  0.0000  0.0000
  11. Li 2 (s)      0.0000  0.0319  1.5997 -1.8205  0.0000  0.0000  0.0000  0.0000
  12. Li 2 (px)     0.0000  0.0000  0.0000  0.0000  1.1750 -1.2386  0.0000  0.0000
  13. Li 2 (py)     0.0000  0.0000  0.0000  0.0000  0.0000  0.0000  1.1750 -1.2386
  14. Li 2 (pz)     0.0000  0.0000  0.0000  0.0000  0.0000  0.0000  0.0000  0.0000
  15. Li 2 (s)      0.0000 -0.0161 -0.7027  2.3449  0.0000  0.0000  0.0000  0.0000
  16. Li 2 (px)     0.0000  0.0000  0.0000  0.0000 -0.2269  1.6921  0.0000  0.0000
  17. Li 2 (py)     0.0000  0.0000  0.0000  0.0000  0.0000  0.0000 -0.2269  1.6921
  18. Li 2 (pz)     0.0000  0.0000  0.0000  0.0000  0.0000  0.0000  0.0000  0.0000
  19.  H 3 (s)      0.0000  0.0000  0.0000  0.0000  0.0000  0.0000  0.0000  0.0000
  20.  H 3 (s)      0.0000  0.0000  0.0000  0.0000  0.0000  0.0000  0.0000  0.0000
  21.  H 4 (s)      0.0000  0.0000  0.0000  0.0000  0.0000  0.0000  0.0000  0.0000
  22.  H 4 (s)      0.0000  0.0000  0.0000  0.0000  0.0000  0.0000  0.0000  0.0000

           AO         17      18      19      20      21      22
      ------------ ------- ------- ------- ------- ------- -------
   1.  N 1 (s)      0.0000  0.0000  0.0000  0.0000  0.0000  0.0000
   2.  N 1 (s)      0.0000  0.0000  0.0000  0.0000  0.0000  0.0000
   3.  N 1 (px)     0.0000  0.0000  0.0000  0.0000  0.0000  0.0000
   4.  N 1 (py)     0.0000  0.0000  0.0000  0.0000  0.0000  0.0000
   5.  N 1 (pz)     0.0000  0.0000  0.0000  0.0000  0.0000  0.0000
   6.  N 1 (s)      0.0000  0.0000  0.0000  0.0000  0.0000  0.0000
   7.  N 1 (px)     0.0000  0.0000  0.0000  0.0000  0.0000  0.0000
   8.  N 1 (py)     0.0000  0.0000  0.0000  0.0000  0.0000  0.0000
   9.  N 1 (pz)     0.0000  0.0000  0.0000  0.0000  0.0000  0.0000
  10. Li 2 (s)      0.0000  0.0000  0.0000  0.0000  0.0000  0.0000
  11. Li 2 (s)      0.0000  0.0000  0.0000  0.0000  0.0000  0.0000
  12. Li 2 (px)     0.0000  0.0000  0.0000  0.0000  0.0000  0.0000
  13. Li 2 (py)     0.0000  0.0000  0.0000  0.0000  0.0000  0.0000
  14. Li 2 (pz)     1.1750 -1.2386  0.0000  0.0000  0.0000  0.0000
  15. Li 2 (s)      0.0000  0.0000  0.0000  0.0000  0.0000  0.0000
  16. Li 2 (px)     0.0000  0.0000  0.0000  0.0000  0.0000  0.0000
  17. Li 2 (py)     0.0000  0.0000  0.0000  0.0000  0.0000  0.0000
  18. Li 2 (pz)    -0.2269  1.6921  0.0000  0.0000  0.0000  0.0000
  19.  H 3 (s)      0.0000  0.0000  0.5389  1.2142  0.0000  0.0000
  20.  H 3 (s)      0.0000  0.0000  0.5593 -1.2050  0.0000  0.0000
  21.  H 4 (s)      0.0000  0.0000  0.0000  0.0000  0.5389  1.2142
  22.  H 4 (s)      0.0000  0.0000  0.0000  0.0000  0.5593 -1.2050


 PNAO overlap matrix:

           NAO         1       2       3       4       5       6       7       8
      ------------ ------- ------- ------- ------- ------- ------- ------- -------
   1.  N 1( 1s )    1.0000  0.0000  0.0000  0.0000  0.0000  0.0000  0.0000  0.0000
   2.  N 1( 2s )    0.0000  1.0000  0.0000  0.0000  0.0000  0.0000  0.0000  0.0000
   3.  N 1( 3s )    0.0000  0.0000  1.0000  0.0000  0.0000  0.0000  0.0000  0.0000
   4.  N 1( 2px)    0.0000  0.0000  0.0000  1.0000  0.0000  0.0000  0.0000  0.0000
   5.  N 1( 3px)    0.0000  0.0000  0.0000  0.0000  1.0000  0.0000  0.0000  0.0000
   6.  N 1( 2py)    0.0000  0.0000  0.0000  0.0000  0.0000  1.0000  0.0000  0.0000
   7.  N 1( 3py)    0.0000  0.0000  0.0000  0.0000  0.0000  0.0000  1.0000  0.0000
   8.  N 1( 2pz)    0.0000  0.0000  0.0000  0.0000  0.0000  0.0000  0.0000  1.0000
   9.  N 1( 3pz)    0.0000  0.0000  0.0000  0.0000  0.0000  0.0000  0.0000  0.0000
  10. Li 2( 1s )   -0.0001  0.0830 -0.1179  0.0000  0.0000  0.0000  0.0000 -0.1752
  11. Li 2( 2s )    0.0449  0.3972 -0.2395  0.0000  0.0000  0.0000  0.0000 -0.3061
  12. Li 2( 3s )    0.0014  0.1197 -0.1545  0.0000  0.0000  0.0000  0.0000  0.1674
  13. Li 2( 2px)    0.0000  0.0000  0.0000  0.3316 -0.2826  0.0000  0.0000  0.0000
  14. Li 2( 3px)    0.0000  0.0000  0.0000  0.0075 -0.0325  0.0000  0.0000  0.0000
  15. Li 2( 2py)    0.0000  0.0000  0.0000  0.0000  0.0000  0.3316 -0.2826  0.0000
  16. Li 2( 3py)    0.0000  0.0000  0.0000  0.0000  0.0000  0.0075 -0.0325  0.0000
  17. Li 2( 2pz)    0.0717  0.5612 -0.2786  0.0000  0.0000  0.0000  0.0000 -0.1529
  18. Li 2( 3pz)   -0.0134  0.0095 -0.1087  0.0000  0.0000  0.0000  0.0000  0.2809
  19.  H 3( 1s )    0.0623  0.5510 -0.2866  0.0000  0.0000  0.4129 -0.2166  0.3323
  20.  H 3( 2s )   -0.0539 -0.3081  0.1819  0.0000  0.0000  0.0746  0.0919  0.0600
  21.  H 4( 1s )    0.0623  0.5510 -0.2866  0.0000  0.0000 -0.4129  0.2166  0.3323
  22.  H 4( 2s )   -0.0539 -0.3081  0.1819  0.0000  0.0000 -0.0746 -0.0919  0.0600

           NAO         9      10      11      12      13      14      15      16
      ------------ ------- ------- ------- ------- ------- ------- ------- -------
   1.  N 1( 1s )    0.0000 -0.0001  0.0449  0.0014  0.0000  0.0000  0.0000  0.0000
   2.  N 1( 2s )    0.0000  0.0830  0.3972  0.1197  0.0000  0.0000  0.0000  0.0000
   3.  N 1( 3s )    0.0000 -0.1179 -0.2395 -0.1545  0.0000  0.0000  0.0000  0.0000
   4.  N 1( 2px)    0.0000  0.0000  0.0000  0.0000  0.3316  0.0075  0.0000  0.0000
   5.  N 1( 3px)    0.0000  0.0000  0.0000  0.0000 -0.2826 -0.0325  0.0000  0.0000
   6.  N 1( 2py)    0.0000  0.0000  0.0000  0.0000  0.0000  0.0000  0.3316  0.0075
   7.  N 1( 3py)    0.0000  0.0000  0.0000  0.0000  0.0000  0.0000 -0.2826 -0.0325
   8.  N 1( 2pz)    0.0000 -0.1752 -0.3061  0.1674  0.0000  0.0000  0.0000  0.0000
   9.  N 1( 3pz)    1.0000  0.1959  0.2296 -0.1052  0.0000  0.0000  0.0000  0.0000
  10. Li 2( 1s )    0.1959  1.0000  0.0000  0.0000  0.0000  0.0000  0.0000  0.0000
  11. Li 2( 2s )    0.2296  0.0000  1.0000  0.0000  0.0000  0.0000  0.0000  0.0000
  12. Li 2( 3s )   -0.1052  0.0000  0.0000  1.0000  0.0000  0.0000  0.0000  0.0000
  13. Li 2( 2px)    0.0000  0.0000  0.0000  0.0000  1.0000  0.0000  0.0000  0.0000
  14. Li 2( 3px)    0.0000  0.0000  0.0000  0.0000  0.0000  1.0000  0.0000  0.0000
  15. Li 2( 2py)    0.0000  0.0000  0.0000  0.0000  0.0000  0.0000  1.0000  0.0000
  16. Li 2( 3py)    0.0000  0.0000  0.0000  0.0000  0.0000  0.0000  0.0000  1.0000
  17. Li 2( 2pz)    0.0683  0.0000  0.0000  0.0000  0.0000  0.0000  0.0000  0.0000
  18. Li 2( 3pz)   -0.1946  0.0000  0.0000  0.0000  0.0000  0.0000  0.0000  0.0000
  19.  H 3( 1s )   -0.1743  0.0175  0.1663  0.2318  0.0000  0.0000  0.1187  0.0785
  20.  H 3( 2s )    0.0739 -0.0343 -0.1850 -0.2122  0.0000  0.0000 -0.0980 -0.0739
  21.  H 4( 1s )   -0.1743  0.0175  0.1663  0.2318  0.0000  0.0000 -0.1187 -0.0785
  22.  H 4( 2s )    0.0739 -0.0343 -0.1850 -0.2122  0.0000  0.0000  0.0980  0.0739

           NAO        17      18      19      20      21      22
      ------------ ------- ------- ------- ------- ------- -------
   1.  N 1( 1s )    0.0717 -0.0134  0.0623 -0.0539  0.0623 -0.0539
   2.  N 1( 2s )    0.5612  0.0095  0.5510 -0.3081  0.5510 -0.3081
   3.  N 1( 3s )   -0.2786 -0.1087 -0.2866  0.1819 -0.2866  0.1819
   4.  N 1( 2px)    0.0000  0.0000  0.0000  0.0000  0.0000  0.0000
   5.  N 1( 3px)    0.0000  0.0000  0.0000  0.0000  0.0000  0.0000
   6.  N 1( 2py)    0.0000  0.0000  0.4129  0.0746 -0.4129 -0.0746
   7.  N 1( 3py)    0.0000  0.0000 -0.2166  0.0919  0.2166 -0.0919
   8.  N 1( 2pz)   -0.1529  0.2809  0.3323  0.0600  0.3323  0.0600
   9.  N 1( 3pz)    0.0683 -0.1946 -0.1743  0.0739 -0.1743  0.0739
  10. Li 2( 1s )    0.0000  0.0000  0.0175 -0.0343  0.0175 -0.0343
  11. Li 2( 2s )    0.0000  0.0000  0.1663 -0.1850  0.1663 -0.1850
  12. Li 2( 3s )    0.0000  0.0000  0.2318 -0.2122  0.2318 -0.2122
  13. Li 2( 2px)    0.0000  0.0000  0.0000  0.0000  0.0000  0.0000
  14. Li 2( 3px)    0.0000  0.0000  0.0000  0.0000  0.0000  0.0000
  15. Li 2( 2py)    0.0000  0.0000  0.1187 -0.0980 -0.1187  0.0980
  16. Li 2( 3py)    0.0000  0.0000  0.0785 -0.0739 -0.0785  0.0739
  17. Li 2( 2pz)    1.0000  0.0000  0.3382 -0.2794  0.3382 -0.2794
  18. Li 2( 3pz)    0.0000  1.0000  0.2238 -0.2105  0.2238 -0.2105
  19.  H 3( 1s )    0.3382  0.2238  1.0000  0.0000  0.2805 -0.2920
  20.  H 3( 2s )   -0.2794 -0.2105  0.0000  1.0000 -0.2920  0.1702
  21.  H 4( 1s )    0.3382  0.2238  0.2805 -0.2920  1.0000  0.0000
  22.  H 4( 2s )   -0.2794 -0.2105 -0.2920  0.1702  0.0000  1.0000


 PNAO density matrix:

           NAO         1       2       3       4       5       6       7       8
      ------------ ------- ------- ------- ------- ------- ------- ------- -------
   1.  N 1( 1s )    1.9999  0.0000  0.0000  0.0000  0.0000  0.0000  0.0000  0.0001
   2.  N 1( 2s )    0.0000  1.9716  0.0000  0.0000  0.0000  0.0000  0.0000 -0.0358
   3.  N 1( 3s )    0.0000  0.0000  0.0399  0.0000  0.0000  0.0000  0.0000 -0.1177
   4.  N 1( 2px)    0.0000  0.0000  0.0000  1.9303  0.0752  0.0000  0.0000  0.0000
   5.  N 1( 3px)    0.0000  0.0000  0.0000  0.0752  0.0029  0.0000  0.0000  0.0000
   6.  N 1( 2py)    0.0000  0.0000  0.0000  0.0000  0.0000  1.7957 -0.0611  0.0000
   7.  N 1( 3py)    0.0000  0.0000  0.0000  0.0000  0.0000 -0.0611  0.0021  0.0000
   8.  N 1( 2pz)    0.0001 -0.0358 -0.1177  0.0000  0.0000  0.0000  0.0000  1.9147
   9.  N 1( 3pz)    0.0017 -0.0168 -0.0488  0.0000  0.0000  0.0000  0.0000 -0.0141
  10. Li 2( 1s )   -0.0002  0.1661 -0.2293  0.0000  0.0000  0.0000  0.0000 -0.3510
  11. Li 2( 2s )    0.0926  0.8112  0.0578  0.0000  0.0000  0.0000  0.0000 -0.5882
  12. Li 2( 3s )    0.0050  0.2453 -0.0251  0.0000  0.0000  0.0000  0.0000  0.3217
  13. Li 2( 2px)    0.0000  0.0000  0.0000  0.9156  0.0357  0.0000  0.0000  0.0000
  14. Li 2( 3px)    0.0000  0.0000  0.0000  0.1497  0.0058  0.0000  0.0000  0.0000
  15. Li 2( 2py)    0.0000  0.0000  0.0000  0.0000  0.0000  0.5297 -0.0180  0.0000
  16. Li 2( 3py)    0.0000  0.0000  0.0000  0.0000  0.0000  0.1294 -0.0044  0.0000
  17. Li 2( 2pz)    0.1456  1.1239  0.0383  0.0000  0.0000  0.0000  0.0000 -0.3101
  18. Li 2( 3pz)   -0.0250 -0.0057 -0.0541  0.0000  0.0000  0.0000  0.0000  0.6225
  19.  H 3( 1s )    0.1255  1.1410 -0.0590  0.0000  0.0000  0.9802 -0.0333  0.7655
  20.  H 3( 2s )   -0.1120 -0.4948 -0.0153  0.0000  0.0000  0.3705 -0.0126  0.2295
  21.  H 4( 1s )    0.1255  1.1410 -0.0590  0.0000  0.0000 -0.9802  0.0333  0.7655
  22.  H 4( 2s )   -0.1120 -0.4948 -0.0153  0.0000  0.0000 -0.3705  0.0126  0.2295

           NAO         9      10      11      12      13      14      15      16
      ------------ ------- ------- ------- ------- ------- ------- ------- -------
   1.  N 1( 1s )    0.0017 -0.0002  0.0926  0.0050  0.0000  0.0000  0.0000  0.0000
   2.  N 1( 2s )   -0.0168  0.1661  0.8112  0.2453  0.0000  0.0000  0.0000  0.0000
   3.  N 1( 3s )   -0.0488 -0.2293  0.0578 -0.0251  0.0000  0.0000  0.0000  0.0000
   4.  N 1( 2px)    0.0000  0.0000  0.0000  0.0000  0.9156  0.1497  0.0000  0.0000
   5.  N 1( 3px)    0.0000  0.0000  0.0000  0.0000  0.0357  0.0058  0.0000  0.0000
   6.  N 1( 2py)    0.0000  0.0000  0.0000  0.0000  0.0000  0.0000  0.5297  0.1294
   7.  N 1( 3py)    0.0000  0.0000  0.0000  0.0000  0.0000  0.0000 -0.0180 -0.0044
   8.  N 1( 2pz)   -0.0141 -0.3510 -0.5882  0.3217  0.0000  0.0000  0.0000  0.0000
   9.  N 1( 3pz)    0.0758  0.3824 -0.0367  0.0031  0.0000  0.0000  0.0000  0.0000
  10. Li 2( 1s )    0.3824  1.9998  0.0000  0.0000  0.0000  0.0000  0.0000  0.0000
  11. Li 2( 2s )   -0.0367  0.0000  0.5253  0.0000  0.0000  0.0000  0.0000  0.0000
  12. Li 2( 3s )    0.0031  0.0000  0.0000  0.0869  0.0000  0.0000  0.0000  0.0000
  13. Li 2( 2px)    0.0000  0.0000  0.0000  0.0000  0.4343  0.0710  0.0000  0.0000
  14. Li 2( 3px)    0.0000  0.0000  0.0000  0.0000  0.0710  0.0116  0.0000  0.0000
  15. Li 2( 2py)    0.0000  0.0000  0.0000  0.0000  0.0000  0.0000  0.1562  0.0382
  16. Li 2( 3py)    0.0000  0.0000  0.0000  0.0000  0.0000  0.0000  0.0382  0.0093
  17. Li 2( 2pz)   -0.0385 -0.0101  0.5701  0.0877  0.0000  0.0000  0.0000  0.0000
  18. Li 2( 3pz)    0.0195  0.0080 -0.2009  0.1077  0.0000  0.0000  0.0000  0.0000
  19.  H 3( 1s )    0.0007  0.0352  0.2324  0.2779  0.0000  0.0000  0.2891  0.0706
  20.  H 3( 2s )    0.0051 -0.0687 -0.2760 -0.0240  0.0000  0.0000  0.1093  0.0267
  21.  H 4( 1s )    0.0007  0.0352  0.2324  0.2779  0.0000  0.0000 -0.2891 -0.0706
  22.  H 4( 2s )    0.0051 -0.0687 -0.2760 -0.0240  0.0000  0.0000 -0.1093 -0.0267

           NAO        17      18      19      20      21      22
      ------------ ------- ------- ------- ------- ------- -------
   1.  N 1( 1s )    0.1456 -0.0250  0.1255 -0.1120  0.1255 -0.1120
   2.  N 1( 2s )    1.1239 -0.0057  1.1410 -0.4948  1.1410 -0.4948
   3.  N 1( 3s )    0.0383 -0.0541 -0.0590 -0.0153 -0.0590 -0.0153
   4.  N 1( 2px)    0.0000  0.0000  0.0000  0.0000  0.0000  0.0000
   5.  N 1( 3px)    0.0000  0.0000  0.0000  0.0000  0.0000  0.0000
   6.  N 1( 2py)    0.0000  0.0000  0.9802  0.3705 -0.9802 -0.3705
   7.  N 1( 3py)    0.0000  0.0000 -0.0333 -0.0126  0.0333  0.0126
   8.  N 1( 2pz)   -0.3101  0.6225  0.7655  0.2295  0.7655  0.2295
   9.  N 1( 3pz)   -0.0385  0.0195  0.0007  0.0051  0.0007  0.0051
  10. Li 2( 1s )   -0.0101  0.0080  0.0352 -0.0687  0.0352 -0.0687
  11. Li 2( 2s )    0.5701 -0.2009  0.2324 -0.2760  0.2324 -0.2760
  12. Li 2( 3s )    0.0877  0.1077  0.2779 -0.0240  0.2779 -0.0240
  13. Li 2( 2px)    0.0000  0.0000  0.0000  0.0000  0.0000  0.0000
  14. Li 2( 3px)    0.0000  0.0000  0.0000  0.0000  0.0000  0.0000
  15. Li 2( 2py)    0.0000  0.0000  0.2891  0.1093 -0.2891 -0.1093
  16. Li 2( 3py)    0.0000  0.0000  0.0706  0.0267 -0.0706 -0.0267
  17. Li 2( 2pz)    0.7080 -0.1092  0.5339 -0.3246  0.5339 -0.3246
  18. Li 2( 3pz)   -0.1092  0.2104  0.2560  0.0754  0.2560  0.0754
  19.  H 3( 1s )    0.5339  0.2560  1.5297  0.0000  0.4596 -0.4045
  20.  H 3( 2s )   -0.3246  0.0754  0.0000  0.2324 -0.4045  0.0795
  21.  H 4( 1s )    0.5339  0.2560  0.4596 -0.4045  1.5297  0.0000
  22.  H 4( 2s )   -0.3246  0.0754 -0.4045  0.0795  0.0000  0.2324


 NAOs in the AO basis:

           AO          1       2       3       4       5       6       7       8
      ------------ ------- ------- ------- ------- ------- ------- ------- -------
   1.  N 1 (s)      0.9937 -0.2411  0.0038  0.0000  0.0000  0.0000  0.0000 -0.0104
   2.  N 1 (s)      0.0454  0.5250  1.8487  0.0000  0.0000  0.0000  0.0000  0.0636
   3.  N 1 (px)     0.0000  0.0000  0.0000  0.5556  1.0444  0.0000  0.0000  0.0000
   4.  N 1 (py)     0.0000  0.0000  0.0000  0.0000  0.0000  0.6608  1.0054  0.0000
   5.  N 1 (pz)     0.0000  0.0798 -0.0400  0.0000  0.0000  0.0000  0.0000  0.6388
   6.  N 1 (s)     -0.0186  0.8881 -3.2101  0.0000  0.0000  0.0000  0.0000  0.0892
   7.  N 1 (px)     0.0000  0.0000  0.0000  0.5854 -1.0859  0.0000  0.0000  0.0000
   8.  N 1 (py)     0.0000  0.0000  0.0000  0.0000  0.0000  0.6790 -1.8293  0.0000
   9.  N 1 (pz)     0.0000  0.1057 -0.4121  0.0000  0.0000  0.0000  0.0000  0.6385
  10. Li 2 (s)      0.0001 -0.0564  0.1159  0.0000  0.0000  0.0000  0.0000  0.1599
  11. Li 2 (s)      0.0000 -0.0943  0.6902  0.0000  0.0000  0.0000  0.0000  0.0719
  12. Li 2 (px)     0.0000  0.0000  0.0000  0.0130  0.1342  0.0000  0.0000  0.0000
  13. Li 2 (py)     0.0000  0.0000  0.0000  0.0000  0.0000  0.0152  0.1573  0.0000
  14. Li 2 (pz)     0.0000  0.0106  0.2413  0.0000  0.0000  0.0000  0.0000 -0.0260
  15. Li 2 (s)      0.0000  0.0410 -0.3172  0.0000  0.0000  0.0000  0.0000 -0.0372
  16. Li 2 (px)     0.0000  0.0000  0.0000  0.0061  0.0633  0.0000  0.0000  0.0000
  17. Li 2 (py)     0.0000  0.0000  0.0000  0.0000  0.0000  0.0037  0.0381  0.0000
  18. Li 2 (pz)     0.0000  0.0016  0.0369  0.0000  0.0000  0.0000  0.0000 -0.0098
  19.  H 3 (s)      0.0000 -0.1894  0.2897  0.0000  0.0000 -0.1668  0.2166 -0.1134
  20.  H 3 (s)      0.0000 -0.1778  0.7271  0.0000  0.0000 -0.1190  0.7840 -0.0780
  21.  H 4 (s)      0.0000 -0.1894  0.2897  0.0000  0.0000  0.1668 -0.2166 -0.1134
  22.  H 4 (s)      0.0000 -0.1778  0.7271  0.0000  0.0000  0.1190 -0.7840 -0.0780

           AO          9      10      11      12      13      14      15      16
      ------------ ------- ------- ------- ------- ------- ------- ------- -------
   1.  N 1 (s)      0.0296  0.0001  0.0194 -0.0069  0.0000  0.0000  0.0000  0.0000
   2.  N 1 (s)      0.0164  0.0000 -0.0779  0.0675  0.0000  0.0000  0.0000  0.0000
   3.  N 1 (px)     0.0000  0.0000  0.0000  0.0000 -0.0149 -0.0303  0.0000  0.0000
   4.  N 1 (py)     0.0000  0.0000  0.0000  0.0000  0.0000  0.0000 -0.0179 -0.1332
   5.  N 1 (pz)     1.0242  0.0000  0.1320 -0.1276  0.0000  0.0000  0.0000  0.0000
   6.  N 1 (s)     -0.5411  0.0000 -0.1228  0.3396  0.0000  0.0000  0.0000  0.0000
   7.  N 1 (px)     0.0000  0.0000  0.0000  0.0000 -0.3627  0.1461  0.0000  0.0000
   8.  N 1 (py)     0.0000  0.0000  0.0000  0.0000  0.0000  0.0000 -0.4031  0.7044
   9.  N 1 (pz)    -1.8741  0.0000  0.3356  0.2611  0.0000  0.0000  0.0000  0.0000
  10. Li 2 (s)     -0.3261  0.9986 -0.0805 -0.1655  0.0000  0.0000  0.0000  0.0000
  11. Li 2 (s)     -0.9937  0.0319  1.3115 -2.1369  0.0000  0.0000  0.0000  0.0000
  12. Li 2 (px)     0.0000  0.0000  0.0000  0.0000  0.8166 -1.5853  0.0000  0.0000
  13. Li 2 (py)     0.0000  0.0000  0.0000  0.0000  0.0000  0.0000  0.8348 -1.6904
  14. Li 2 (pz)    -0.2692  0.0000  0.0728  0.2453  0.0000  0.0000  0.0000  0.0000
  15. Li 2 (s)      0.3826 -0.0161 -0.0605  2.6759  0.0000  0.0000  0.0000  0.0000
  16. Li 2 (px)     0.0000  0.0000  0.0000  0.0000  0.3148  1.6782  0.0000  0.0000
  17. Li 2 (py)     0.0000  0.0000  0.0000  0.0000  0.0000  0.0000  0.3156  1.7804
  18. Li 2 (pz)    -0.1010  0.0000  0.0646  0.2177  0.0000  0.0000  0.0000  0.0000
  19.  H 3 (s)      0.2364  0.0000 -0.0238  0.1001  0.0000  0.0000  0.0949 -0.0332
  20.  H 3 (s)      0.6553  0.0000 -0.2502 -0.6558  0.0000  0.0000 -0.0627 -0.5692
  21.  H 4 (s)      0.2364  0.0000 -0.0238  0.1001  0.0000  0.0000 -0.0949  0.0332
  22.  H 4 (s)      0.6553  0.0000 -0.2502 -0.6558  0.0000  0.0000  0.0627  0.5692

           AO         17      18      19      20      21      22
      ------------ ------- ------- ------- ------- ------- -------
   1.  N 1 (s)      0.0403 -0.0428  0.0176 -0.0116  0.0176 -0.0116
   2.  N 1 (s)      0.1136 -0.4976 -0.1617 -0.0107 -0.1617 -0.0107
   3.  N 1 (px)     0.0000  0.0000  0.0000  0.0000  0.0000  0.0000
   4.  N 1 (py)     0.0000  0.0000 -0.1980 -0.0231  0.1980  0.0231
   5.  N 1 (pz)     0.0266  0.1317 -0.1487 -0.0525 -0.1487 -0.0525
   6.  N 1 (s)     -0.6694  1.8210 -0.2905  0.5184 -0.2905  0.5184
   7.  N 1 (px)     0.0000  0.0000  0.0000  0.0000  0.0000  0.0000
   8.  N 1 (py)     0.0000  0.0000 -0.2395  0.3991  0.2395 -0.3991
   9.  N 1 (pz)     0.7063 -0.6749 -0.1810  0.2384 -0.1810  0.2384
  10. Li 2 (s)      0.1751 -0.2594 -0.0313  0.0257 -0.0313  0.0257
  11. Li 2 (s)      1.1182 -1.3398 -0.0287  0.1795 -0.0287  0.1795
  12. Li 2 (px)     0.0000  0.0000  0.0000  0.0000  0.0000  0.0000
  13. Li 2 (py)     0.0000  0.0000  0.0061  0.0432 -0.0061 -0.0432
  14. Li 2 (pz)     1.2107 -2.4076  0.0169  0.1199  0.0169  0.1199
  15. Li 2 (s)     -0.4093  0.7784  0.0227 -0.0080  0.0227 -0.0080
  16. Li 2 (px)     0.0000  0.0000  0.0000  0.0000  0.0000  0.0000
  17. Li 2 (py)     0.0000  0.0000  0.0064  0.0456 -0.0064 -0.0456
  18. Li 2 (pz)     0.4477  2.1213  0.0130  0.0917  0.0130  0.0917
  19.  H 3 (s)     -0.0557  0.1081  0.9344  0.9979 -0.0421  0.0550
  20.  H 3 (s)     -0.4774 -0.5200  0.5403 -2.0044 -0.0145  0.2638
  21.  H 4 (s)     -0.0557  0.1081 -0.0421  0.0550  0.9344  0.9979
  22.  H 4 (s)     -0.4774 -0.5200 -0.0145  0.2638  0.5403 -2.0044


 NAO density matrix:

           NAO         1       2       3       4       5       6       7       8
      ------------ ------- ------- ------- ------- ------- ------- ------- -------
   1.  N 1( 1s )    1.9999 -0.0007  0.0052  0.0000  0.0000  0.0000  0.0000  0.0001
   2.  N 1( 2s )   -0.0007  1.6363  0.0000  0.0000  0.0000  0.0000  0.0000 -0.3037
   3.  N 1( 3s )    0.0052  0.0000  0.0032  0.0000  0.0000  0.0000  0.0000  0.0721
   4.  N 1( 2px)    0.0000  0.0000  0.0000  1.9385 -0.0507  0.0000  0.0000  0.0000
   5.  N 1( 3px)    0.0000  0.0000  0.0000 -0.0507  0.0013  0.0000  0.0000  0.0000
   6.  N 1( 2py)    0.0000  0.0000  0.0000  0.0000  0.0000  1.3571  0.0678  0.0000
   7.  N 1( 3py)    0.0000  0.0000  0.0000  0.0000  0.0000  0.0678  0.0034  0.0000
   8.  N 1( 2pz)    0.0001 -0.3037  0.0721  0.0000  0.0000  0.0000  0.0000  1.6758
   9.  N 1( 3pz)    0.0022  0.0425 -0.0004  0.0000  0.0000  0.0000  0.0000 -0.0170
  10. Li 2( 1s )    0.0000  0.0002  0.0066  0.0000  0.0000  0.0000  0.0000 -0.0016
  11. Li 2( 2s )    0.0031  0.1679 -0.0064  0.0000  0.0000  0.0000  0.0000 -0.1761
  12. Li 2( 3s )   -0.0003 -0.0163 -0.0008  0.0000  0.0000  0.0000  0.0000 -0.0157
  13. Li 2( 2px)    0.0000  0.0000  0.0000  0.3406 -0.0089  0.0000  0.0000  0.0000
[...]
   9.  N 1( 3pz)    0.0012 -0.0083  0.0052 -0.0003  0.0000  0.0000  0.0000  0.0000
  10. Li 2( 1s )   -0.0083  1.9998 -0.0008 -0.0015  0.0000  0.0000  0.0000  0.0000
  11. Li 2( 2s )    0.0052 -0.0008  0.0302  0.0000  0.0000  0.0000  0.0000  0.0000
  12. Li 2( 3s )   -0.0003 -0.0015  0.0000  0.0004  0.0000  0.0000  0.0000  0.0000
  13. Li 2( 2px)    0.0000  0.0000  0.0000  0.0000  0.0598  0.0043  0.0000  0.0000
  14. Li 2( 3px)    0.0000  0.0000  0.0000  0.0000  0.0043  0.0003  0.0000  0.0000
  15. Li 2( 2py)    0.0000  0.0000  0.0000  0.0000  0.0000  0.0000  0.0000  0.0000
  16. Li 2( 3py)    0.0000  0.0000  0.0000  0.0000  0.0000  0.0000  0.0000  0.0000
  17. Li 2( 2pz)    0.0008 -0.0088  0.0078  0.0007  0.0000  0.0000  0.0000  0.0000
  18. Li 2( 3pz)   -0.0016  0.0109 -0.0121 -0.0006  0.0000  0.0000  0.0000  0.0000
  19.  H 3( 1s )    0.0096  0.0003  0.0017 -0.0110  0.0000  0.0000  0.0019  0.0010
  20.  H 3( 2s )    0.0006 -0.0012  0.0017 -0.0003  0.0000  0.0000 -0.0001  0.0000
  21.  H 4( 1s )    0.0096  0.0003  0.0017 -0.0110  0.0000  0.0000 -0.0019 -0.0010
  22.  H 4( 2s )    0.0006 -0.0012  0.0017 -0.0003  0.0000  0.0000  0.0001  0.0000

           NAO        17      18      19      20      21      22
      ------------ ------- ------- ------- ------- ------- -------
   1.  N 1( 1s )    0.0038 -0.0037  0.0005 -0.0045  0.0005 -0.0045
   2.  N 1( 2s )    0.0118 -0.0406  0.4846  0.0239  0.4846  0.0239
   3.  N 1( 3s )   -0.0033  0.0039  0.0239  0.0003  0.0239  0.0003
   4.  N 1( 2px)    0.0000  0.0000  0.0000  0.0000  0.0000  0.0000
   5.  N 1( 3px)    0.0000  0.0000  0.0000  0.0000  0.0000  0.0000
   6.  N 1( 2py)    0.0000  0.0000  0.6584 -0.0202 -0.6584  0.0202
   7.  N 1( 3py)    0.0000  0.0000  0.0329 -0.0010 -0.0329  0.0010
   8.  N 1( 2pz)   -0.0754  0.0955  0.4469  0.0037  0.4469  0.0037
   9.  N 1( 3pz)    0.0008 -0.0016  0.0096  0.0006  0.0096  0.0006
  10. Li 2( 1s )   -0.0088  0.0109  0.0003 -0.0012  0.0003 -0.0012
  11. Li 2( 2s )    0.0078 -0.0121  0.0017  0.0017  0.0017  0.0017
  12. Li 2( 3s )    0.0007 -0.0006 -0.0110 -0.0003 -0.0110 -0.0003
  13. Li 2( 2px)    0.0000  0.0000  0.0000  0.0000  0.0000  0.0000
  14. Li 2( 3px)    0.0000  0.0000  0.0000  0.0000  0.0000  0.0000
  15. Li 2( 2py)    0.0000  0.0000  0.0019 -0.0001 -0.0019  0.0001
  16. Li 2( 3py)    0.0000  0.0000  0.0010  0.0000 -0.0010  0.0000
  17. Li 2( 2pz)    0.0034 -0.0043 -0.0208 -0.0002 -0.0208 -0.0002
  18. Li 2( 3pz)   -0.0043  0.0059  0.0172 -0.0001  0.0172 -0.0001
  19.  H 3( 1s )   -0.0208  0.0172  0.6409  0.0000  0.0020  0.0196
  20.  H 3( 2s )   -0.0002 -0.0001  0.0000  0.0007  0.0196  0.0001
  21.  H 4( 1s )   -0.0208  0.0172  0.0020  0.0196  0.6409  0.0000
  22.  H 4( 2s )   -0.0002 -0.0001  0.0196  0.0001  0.0000  0.0007


 NATURAL BOND ORBITAL ANALYSIS:

 Initiate 2-center NBO search using THRESH = 1.900 and PRJTHR = 0.300

 Search of NAO DM block for core orbitals on atom:   1
      Eigenvector ( 1) has occupancy 1.99994
            1.0000 0.0000 0.0000 0.0000 0.0000 0.0000 0.0000 0.0000
            0.0000
        1 eigenvector(s) stashed in permanent list

 Search of NAO DM block for core orbitals on atom:   2
      Eigenvector ( 1) has occupancy 1.99984
            1.0000 0.0000 0.0000 0.0000 0.0000 0.0000 0.0000 0.0000
            0.0000
        1 eigenvector(s) stashed in permanent list

 Core orbitals projected from the NAO density matrix
       8.000 electrons remain (>1.900); search continues

 Search of NAO DM block for the following atom(s):   1
      Select eigenvectors with eigenvalue > 1.900
       1.963 1.940 1.360 1.354 0.000 0.000 0.000 0.000 0.000
      Eigenvector ( 1) has occupancy 1.96270
            0.0000-0.6823 0.0269 0.0000 0.0000 0.0000 0.0000 0.7303
           -0.0211
      Eigenvector ( 2) has occupancy 1.93984
            0.0000 0.0000 0.0000 0.9997-0.0262 0.0000 0.0000 0.0000
            0.0000
      2 hybrids on atom 1 stashed in prospective list

 Stash prospective hybrids having projection expectation value > 0.300
       1.000 1.000
      0 hybrids eliminated in 1 pass
      2 hybrids moved from prospective to permanent list

 NHOs of 1-center eigenvectors projected from the NAO density matrix
       4.098 electrons remain (>1.900); search continues

 Search of NAO DM block for the following atom(s):   1   3
      Select eigenvectors with eigenvalue > 1.900
       1.998 1.358 0.000 0.000 0.000 0.000 0.000 0.000 0.000 0.000 0.000
      Eigenvector ( 1) has occupancy 1.99806
            0.0000 0.4237 0.0211 0.0000 0.0000 0.5849 0.0292 0.3953
            0.0083 0.5664-0.0001
      1 hybrid on atom 1 stashed in prospective list
      1 hybrid on atom 3 stashed in prospective list

 Search of NAO DM block for the following atom(s):   1   4
      Select eigenvectors with eigenvalue > 1.900
       1.998 1.358 0.000 0.000 0.000 0.000 0.000 0.000 0.000 0.000 0.000
      Eigenvector ( 1) has occupancy 1.99806
            0.0000-0.4237-0.0211 0.0000 0.0000 0.5849 0.0292-0.3953
           -0.0083-0.5664 0.0001
      1 hybrid on atom 1 stashed in prospective list
      1 hybrid on atom 4 stashed in prospective list

 Stash prospective hybrids having projection expectation value > 0.300
       1.000 1.000 1.000 1.000
      0 hybrids eliminated in 1 pass
      4 hybrids moved from prospective to permanent list

 NHOs of 2-center eigenvectors projected from the NAO density matrix
       0.102 electrons remain in the fully projected matrix

 Search of NHO DM block for the following atom(s):   1
      Select eigenvectors with eigenvalue > 1.900
       2.000 1.963 1.940 0.000 0.000 0.000 0.000 0.000 0.000
      Eigenvector ( 1) has occupancy 1.99994
            1.0000 0.0000 0.0000 0.0000 0.0000 0.0000 0.0000 0.0000
            0.0000
           NBO accepted:    1. Label:CR ( 1)   1
      Eigenvector ( 2) has occupancy 1.96270
            0.0000 1.0000 0.0000 0.0000 0.0000 0.0000 0.0000 0.0000
            0.0000
           NBO accepted:    2. Label:LP ( 1)   1
      Eigenvector ( 3) has occupancy 1.93984
            0.0000 0.0000 1.0000 0.0000 0.0000 0.0000 0.0000 0.0000
            0.0000
           NBO accepted:    3. Label:LP ( 2)   1
        3 eigenvector(s) stashed in permanent list

 Search of NHO DM block for the following atom(s):   2
      Select eigenvectors with eigenvalue > 1.900
       2.000 0.060 0.037 0.002 0.000 0.000 0.000 0.000 0.000
      Eigenvector ( 1) has occupancy 1.99984
            1.0000 0.0000 0.0000 0.0000 0.0000 0.0000 0.0000 0.0000
            0.0000
           NBO accepted:    4. Label:CR ( 1)   2
        1 eigenvector(s) stashed in permanent list

  1-center NBOs projected from the NHO density matrix
       4.098 electrons remain (>1.900); search continues

 Search of NHO DM block for the following atom(s):   1   3
      Select eigenvectors with eigenvalue > 1.900
       1.998 0.000 0.000 0.000 0.000 0.000 0.000 0.000 0.000 0.000 0.000
      Eigenvector ( 1) has occupancy 1.99805
            0.0000 0.0000 0.0000 0.8242 0.0000 0.0000 0.0000 0.0000
            0.0000 0.5664 0.0000
      Occupancy is 1.998 after deleting minor hybrid components
            0.0000 0.0000 0.0000 0.8242 0.0000 0.0000 0.0000 0.0000
            0.0000 0.5664 0.0000
           NBO accepted:    5. Label:BD ( 1)   1   3
      Occupancy is 0.000 for antibonding component
            0.0000 0.0000 0.0000-0.5664 0.0000 0.0000 0.0000 0.0000
            0.0000 0.8242 0.0000
           NBO accepted:    6. Label:BD*( 1)   1   3
        2 eigenvector(s) stashed in permanent list

 Search of NHO DM block for the following atom(s):   1   4
      Select eigenvectors with eigenvalue > 1.900
       1.998 0.000 0.000 0.000 0.000 0.000 0.000 0.000 0.000 0.000 0.000
      Eigenvector ( 1) has occupancy 1.99805
            0.0000 0.0000 0.0000 0.0000 0.8242 0.0000 0.0000 0.0000
            0.0000 0.5664 0.0000
      Occupancy is 1.998 after deleting minor hybrid components
            0.0000 0.0000 0.0000 0.0000 0.8242 0.0000 0.0000 0.0000
            0.0000 0.5664 0.0000
           NBO accepted:    7. Label:BD ( 1)   1   4
      Occupancy is 0.000 for antibonding component
            0.0000 0.0000 0.0000 0.0000-0.5664 0.0000 0.0000 0.0000
            0.0000 0.8242 0.0000
           NBO accepted:    8. Label:BD*( 1)   1   4
        2 eigenvector(s) stashed in permanent list

  2-center NBOs projected from the NHO density matrix
       0.102 electrons remain in the fully projected matrix

                            Occupancies       Lewis Structure    Low   High
         Max    Occ     -------------------  -----------------   occ   occ
  Cycle  Ctr   Thresh    Lewis   non-Lewis     CR  BD  nC  LP    (L)   (NL)
 ============================================================================
    1     2     1.90    11.89844   0.10156      2   2   0   2     0      0
 ----------------------------------------------------------------------------

 Structure accepted: No low occupancy Lewis orbitals

 -------------------------------------------------------
   Core                      3.99979 ( 99.995% of   4)
   Valence Lewis             7.89865 ( 98.733% of   8)
  ==================      =============================
   Total Lewis              11.89844 ( 99.154% of  12)
  -----------------------------------------------------
   Valence non-Lewis         0.03749 (  0.312% of  12)
   Rydberg non-Lewis         0.06407 (  0.534% of  12)
  ==================      =============================
   Total non-Lewis           0.10156 (  0.846% of  12)
 -------------------------------------------------------


     (Occupancy)   Bond orbital / Coefficients / Hybrids
 ------------------ Lewis ------------------------------------------------------
   1. (1.99994) CR ( 1) N  1            s(100.00%)
                                         1.0000  0.0000  0.0000  0.0000  0.0000
                                         0.0000  0.0000  0.0000  0.0000
   2. (1.99984) CR ( 1)Li  2            s(100.00%)
                                         1.0000  0.0000  0.0000  0.0000  0.0000
                                         0.0000  0.0000  0.0000  0.0000
   3. (1.96270) LP ( 1) N  1            s( 46.62%)p 1.14( 53.38%)
                                         0.0000  0.6823 -0.0269  0.0000  0.0000
                                         0.0000  0.0000 -0.7303  0.0211
   4. (1.93984) LP ( 2) N  1            s(  0.00%)p 1.00(100.00%)
                                         0.0000  0.0000  0.0000  0.9997 -0.0262
                                         0.0000  0.0000  0.0000  0.0000
   5. (1.99805) BD ( 1) N  1- H  3
               ( 67.92%)   0.8242* N  1 s( 26.76%)p 2.74( 73.24%)
                                         0.0000  0.5166  0.0257  0.0000  0.0000
                                         0.7062  0.0353  0.4820  0.0102
               ( 32.08%)   0.5664* H  3 s(100.00%)
                                         1.0000 -0.0002
   6. (1.99805) BD ( 1) N  1- H  4
               ( 67.92%)   0.8242* N  1 s( 26.76%)p 2.74( 73.24%)
                                         0.0000  0.5166  0.0257  0.0000  0.0000
                                        -0.7062 -0.0353  0.4820  0.0102
               ( 32.08%)   0.5664* H  4 s(100.00%)
                                         1.0000 -0.0002
 ---------------- non-Lewis ----------------------------------------------------
   7. (0.03747) LV ( 1)Li  2            s( 79.62%)p 0.26( 20.38%)
                                         0.0000  0.8922  0.0113  0.0000  0.0000
                                         0.0000  0.0000  0.2517 -0.3748
   8. (0.00001) BD*( 1) N  1- H  3
               ( 32.08%)   0.5664* N  1 s( 26.76%)p 2.74( 73.24%)
               ( 67.92%)  -0.8242* H  3 s(100.00%)
   9. (0.00001) BD*( 1) N  1- H  4
               ( 32.08%)   0.5664* N  1 s( 26.76%)p 2.74( 73.24%)
               ( 67.92%)  -0.8242* H  4 s(100.00%)
  10. (0.00006) RY ( 1) N  1            s( 48.75%)p 1.05( 51.25%)
  11. (0.00001) RY ( 2) N  1            s( 51.11%)p 0.96( 48.89%)
  12. (0.00000) RY ( 3) N  1            s(  0.00%)p 1.00(100.00%)
  13. (0.00000) RY ( 4) N  1            s(  0.00%)p 1.00(100.00%)
  14. (0.06016) RY ( 1)Li  2            s(  0.00%)p 1.00(100.00%)
                                         0.0000  0.0000  0.0000  0.9974  0.0720
                                         0.0000  0.0000  0.0000  0.0000
  15. (0.00241) RY ( 2)Li  2            s( 31.32%)p 2.19( 68.68%)
                                         0.0000  0.4001 -0.3913  0.0000  0.0000
                                         0.0000  0.0000 -0.6656  0.4937
  16. (0.00001) RY ( 3)Li  2            s(  0.00%)p 1.00(100.00%)
  17. (0.00001) RY ( 4)Li  2            s( 64.40%)p 0.55( 35.60%)
  18. (0.00000) RY ( 5)Li  2            s(  0.00%)p 1.00(100.00%)
  19. (0.00000) RY ( 6)Li  2            s( 24.66%)p 3.05( 75.34%)
  20. (0.00000) RY ( 7)Li  2            s(  0.00%)p 1.00(100.00%)
  21. (0.00070) RY ( 1) H  3            s(100.00%)
                                         0.0002  1.0000
  22. (0.00070) RY ( 1) H  4            s(100.00%)
                                         0.0002  1.0000


 NHO DIRECTIONALITY AND BOND BENDING (deviation from line of nuclear centers at
                                      the position of maximum hybrid amplitude)

         [Thresholds for printing:  angular deviation  >  1.0 degree]
                                    p- or d-character  > 25.0%
                                    orbital occupancy  >  0.10e

                        Line of Centers        Hybrid 1             Hybrid 2
                        ---------------  -------------------  ------------------
           NBO            Theta   Phi    Theta   Phi    Dev   Theta   Phi    Dev
 ===============================================================================
   4. LP ( 2) N  1          --     --     90.0    0.0   --      --     --    --
   5. BD ( 1) N  1- H  3   51.2   90.0    54.7   90.0   3.5     --     --    --
   6. BD ( 1) N  1- H  4   51.2  270.0    54.7  270.0   3.5     --     --    --


 SECOND ORDER PERTURBATION THEORY ANALYSIS OF FOCK MATRIX IN NBO BASIS

     Threshold for printing:   0.50 kcal/mol
    (Intermolecular threshold: 0.05 kcal/mol)
                                                          E(2) E(NL)-E(L) F(L,NL)
      Donor (L) NBO              Acceptor (NL) NBO      kcal/mol   a.u.    a.u.
 ===============================================================================

 within unit  1
    5. BD ( 1) N  1- H  3      22. RY ( 1) H  4            0.65    1.52   0.028
    6. BD ( 1) N  1- H  4      21. RY ( 1) H  3            0.65    1.52   0.028

 from unit  1 to unit  2
    1. CR ( 1) N  1             7. LV ( 1)Li  2            0.18   15.74   0.047
    3. LP ( 1) N  1             7. LV ( 1)Li  2           19.78    0.86   0.117
    3. LP ( 1) N  1            15. RY ( 2)Li  2            0.27    0.90   0.014
    3. LP ( 1) N  1            17. RY ( 4)Li  2            0.91    0.87   0.025
    3. LP ( 1) N  1            19. RY ( 6)Li  2            0.35    0.70   0.014
    4. LP ( 2) N  1            14. RY ( 1)Li  2           17.22    0.42   0.075
    4. LP ( 2) N  1            18. RY ( 5)Li  2            0.52    0.52   0.015
    5. BD ( 1) N  1- H  3       7. LV ( 1)Li  2            0.06    1.03   0.007
    5. BD ( 1) N  1- H  3      15. RY ( 2)Li  2            1.23    1.06   0.032
    6. BD ( 1) N  1- H  4       7. LV ( 1)Li  2            0.06    1.03   0.007
    6. BD ( 1) N  1- H  4      15. RY ( 2)Li  2            1.23    1.06   0.032

 from unit  2 to unit  1
    2. CR ( 1)Li  2            10. RY ( 1) N  1            0.10    3.91   0.018

 within unit  2
       None above threshold


 NATURAL BOND ORBITALS (Summary):

                                                     Principal Delocalizations
           NBO                 Occupancy    Energy   (geminal,vicinal,remote)
 ===============================================================================
 Molecular unit  1  (H2N)
 ------ Lewis --------------------------------------
    1. CR ( 1) N  1             1.99994   -15.40127  7(r)
    3. LP ( 1) N  1             1.96270    -0.52546  7(r),17(r),19(r),15(r)
    4. LP ( 2) N  1             1.93984    -0.27403  14(r),18(r)
    5. BD ( 1) N  1- H  3       1.99805    -0.68709  15(r),22(v),7(r)
    6. BD ( 1) N  1- H  4       1.99805    -0.68709  15(r),21(v),7(r)
 ------ non-Lewis ----------------------------------
    8. BD*( 1) N  1- H  3       0.00001     0.78338
    9. BD*( 1) N  1- H  4       0.00001     0.78338
   10. RY ( 1) N  1             0.00006     1.51458
   11. RY ( 2) N  1             0.00001     1.50089
   12. RY ( 3) N  1             0.00000     1.25037
   13. RY ( 4) N  1             0.00000     1.18528
   21. RY ( 1) H  3             0.00070     0.83062
   22. RY ( 1) H  4             0.00070     0.83062
          -------------------------------
                 Total Lewis    9.89860  ( 99.9849%)
           Valence non-Lewis    0.00002  (  0.0002%)
           Rydberg non-Lewis    0.00148  (  0.0149%)
          -------------------------------
               Total unit  1    9.90009  (100.0000%)
              Charge unit  1   -0.90009

 Molecular unit  2  (Li)
 ------ Lewis --------------------------------------
    2. CR ( 1)Li  2             1.99984    -2.39093  10(r)
 ------ non-Lewis ----------------------------------
    7. LV ( 1)Li  2             0.03747     0.33909
   14. RY ( 1)Li  2             0.06016     0.14140
   15. RY ( 2)Li  2             0.00241     0.37436
   16. RY ( 3)Li  2             0.00001     0.09611
   17. RY ( 4)Li  2             0.00001     0.34050
   18. RY ( 5)Li  2             0.00000     0.24787
   19. RY ( 6)Li  2             0.00000     0.16996
   20. RY ( 7)Li  2             0.00000     0.35435
          -------------------------------
                 Total Lewis    1.99984  ( 95.2347%)
           Valence non-Lewis    0.03747  (  1.7845%)
           Rydberg non-Lewis    0.06259  (  2.9808%)
          -------------------------------
               Total unit  2    2.09991  (100.0000%)
              Charge unit  2    0.90009

 $CHOOSE
   LONE 1 2 END
   BOND S 1 3 S 1 4 END
 $END

 NBO analysis completed in 0.20 CPU seconds (0 wall seconds)
 Maximum scratch memory used by NBO was 265480 words (2.03 MB)
 Maximum scratch memory used by G16NBO was 8959 words (0.07 MB)

 Opening RunExU unformatted file "/cluster/work/users/beto93/LiNH2/Gau-3395433.EUF"
 Read unf file /cluster/work/users/beto93/LiNH2/Gau-3395433.EUF:
 Label Gaussian matrix elements                                         IVers= 2 NLab= 2 Version=ES64L-G16RevC.01
 Title NBO-a                                                           
 NAtoms=     4 NBasis=    22 NBsUse=    22 ICharg=     0 Multip=     1 NE=    12 Len12L=8 Len4L=8 IOpCl= 0 ICGU=111
 GAUSSIAN SCALARS                    NI= 1 NR= 1 NTot=       1 LenBuf=    2 NRI=1 N=    1000
 NPA CHARGES                         NI= 0 NR= 1 NTot=       4 LenBuf= 4000 NRI=1 N=       4
 Recovered energy= -62.9662806302     dipole=     -0.000000000000      0.000000000000     -1.574371828544
 Unable to Open any file for archive entry.
 1\1\GINC-C2-4\SP\RHF\4-31G\H2Li1N1\BETO93\24-Jul-2024\0\\#RHF/4-31G Po
 p=NBO7Read\\NBO-a\\0,1\N,0,0.,0.,1.635004\Li,0,0.,0.,0.000247\H,0,0.79
 9559,0.,2.278467\H,0,-0.799559,0.,2.278467\\Version=ES64L-G16RevC.01\S
 tate=1-A1\HF=-62.9662806\RMSD=3.670e-09\Dipole=0.,0.,-1.5743718\Quadru
 pole=-0.9653219,-3.9213825,4.8867044,0.,0.,0.\PG=C02V [C2(Li1N1),SGV(H
 2)]\\@
 The archive entry for this job was punched.


 ONLY THE DAY DAWNS TO WHICH YOU ARE AWAKE.

                                 -- THOREAU
 Job cpu time:       0 days  0 hours  0 minutes  9.2 seconds.
 Elapsed time:       0 days  0 hours  0 minutes  3.1 seconds.
 File lengths (MBytes):  RWF=     10 Int=      0 D2E=      0 Chk=      1 Scr=      1
 Normal termination of Gaussian 16 at Wed Jul 24 13:57:01 2024.
