 Entering Gaussian System, Link 0=g16
 Initial command:
 /cluster/software/Gaussian/g16_C.01/l1.exe "/cluster/work/users/beto93/LiCH3/Gau-3300740.inp" -scrdir="/cluster/work/users/beto93/LiCH3/"
 Entering Link 1 = /cluster/software/Gaussian/g16_C.01/l1.exe PID=   3300744.
  
 Copyright (c) 1988-2019, Gaussian, Inc.  All Rights Reserved.
  
 This is part of the Gaussian(R) 16 program.  It is based on
 the Gaussian(R) 09 system (copyright 2009, Gaussian, Inc.),
 the Gaussian(R) 03 system (copyright 2003, Gaussian, Inc.),
 the Gaussian(R) 98 system (copyright 1998, Gaussian, Inc.),
 the Gaussian(R) 94 system (copyright 1995, Gaussian, Inc.),
 the Gaussian 92(TM) system (copyright 1992, Gaussian, Inc.),
 the Gaussian 90(TM) system (copyright 1990, Gaussian, Inc.),
 the Gaussian 88(TM) system (copyright 1988, Gaussian, Inc.),
 the Gaussian 86(TM) system (copyright 1986, Carnegie Mellon
 University), and the Gaussian 82(TM) system (copyright 1983,
 Carnegie Mellon University). Gaussian is a federally registered
 trademark of Gaussian, Inc.
  
 This software contains proprietary and confidential information,
 including trade secrets, belonging to Gaussian, Inc.
  
 This software is provided under written license and may be
 used, copied, transmitted, or stored only in accord with that
 written license.
  
 The following legend is applicable only to US Government
 contracts under FAR:
  
                    RESTRICTED RIGHTS LEGEND
  
 Use, reproduction and disclosure by the US Government is
 subject to restrictions as set forth in subparagraphs (a)
 and (c) of the Commercial Computer Software - Restricted
 Rights clause in FAR 52.227-19.
  
 Gaussian, Inc.
 340 Quinnipiac St., Bldg. 40, Wallingford CT 06492
  
  
 ---------------------------------------------------------------
 Warning -- This program may not be used in any manner that
 competes with the business of Gaussian, Inc. or will provide
 assistance to any competitor of Gaussian, Inc.  The licensee
 of this program is prohibited from giving any competitor of
 Gaussian, Inc. access to this program.  By using this program,
 the user acknowledges that Gaussian, Inc. is engaged in the
 business of creating and licensing software in the field of
 computational chemistry and represents and warrants to the
 licensee that it is not a competitor of Gaussian, Inc. and that
 it will not use this program in any manner prohibited above.
 ---------------------------------------------------------------
  

 Cite this work as:
 Gaussian 16, Revision C.01,
 M. J. Frisch, G. W. Trucks, H. B. Schlegel, G. E. Scuseria, 
 M. A. Robb, J. R. Cheeseman, G. Scalmani, V. Barone, 
 G. A. Petersson, H. Nakatsuji, X. Li, M. Caricato, A. V. Marenich, 
 J. Bloino, B. G. Janesko, R. Gomperts, B. Mennucci, H. P. Hratchian, 
 J. V. Ortiz, A. F. Izmaylov, J. L. Sonnenberg, D. Williams-Young, 
 F. Ding, F. Lipparini, F. Egidi, J. Goings, B. Peng, A. Petrone, 
 T. Henderson, D. Ranasinghe, V. G. Zakrzewski, J. Gao, N. Rega, 
 G. Zheng, W. Liang, M. Hada, M. Ehara, K. Toyota, R. Fukuda, 
 J. Hasegawa, M. Ishida, T. Nakajima, Y. Honda, O. Kitao, H. Nakai, 
 T. Vreven, K. Throssell, J. A. Montgomery, Jr., J. E. Peralta, 
 F. Ogliaro, M. J. Bearpark, J. J. Heyd, E. N. Brothers, K. N. Kudin, 
 V. N. Staroverov, T. A. Keith, R. Kobayashi, J. Normand, 
 K. Raghavachari, A. P. Rendell, J. C. Burant, S. S. Iyengar, 
 J. Tomasi, M. Cossi, J. M. Millam, M. Klene, C. Adamo, R. Cammi, 
 J. W. Ochterski, R. L. Martin, K. Morokuma, O. Farkas, 
 J. B. Foresman, and D. J. Fox, Gaussian, Inc., Wallingford CT, 2019.
 
 ******************************************
 Gaussian 16:  ES64L-G16RevC.01  3-Jul-2019
                24-Jul-2024 
 ******************************************
 %LindaWorkers=c1-36-ib
 %NProcShared=4
 Will use up to    4 processors via shared memory.
 %mem=25GB
 %chk=a.chk
 SetLPE:    new flags="-opt 'Tsnet.Node.lindarsharg: ssh'  -nodelist 'c1-36-ib.saga' -env GAUSS_MDEF=3355443200 -env GAUSS_EXEDIR="/cluster/software/Gaussian/g16_C.01/bsd:/cluster/software/Gaussian/g16_C.01""
 Will use up to    1 processors via Linda.
 ------------------------
 #RHF/6-31G* Pop=NBO7Read
 ------------------------
 1/38=1,163=2,172=1/1;
 2/12=2,17=6,18=5,40=1/2;
 3/5=1,6=6,7=1,11=1,25=1,30=1,116=1/1,2,3;
 4//1;
 5/5=2,38=5/2;
 6/7=2,8=2,9=2,10=2,28=1,40=2,113=1,114=1,124=2103/1,12;
 99/5=1,9=1/99;
 -----
 NBO-a
 -----
 Symbolic Z-matrix:
 Charge =  0 Multiplicity = 1
 C                     0.        0.       0. 
 Li                    0.        0.        2.00843 
 H                     0.9996    0.       -0.416 
 H                    -0.4998    0.86568  -0.416 
 H                    -0.4998   -0.86568  -0.416 
 
                          Input orientation:                          
 ---------------------------------------------------------------------
 Center     Atomic      Atomic             Coordinates (Angstroms)
 Number     Number       Type             X           Y           Z
 ---------------------------------------------------------------------
      1          6           0        0.000001    0.000000   -0.000004
      2          3           0        0.000000    0.000000    2.008430
      3          1           0        0.999597    0.000000   -0.416000
      4          1           0       -0.499797    0.865676   -0.416001
      5          1           0       -0.499797   -0.865676   -0.416001
 ---------------------------------------------------------------------
                    Distance matrix (angstroms):
                    1          2          3          4          5
     1  C    0.000000
     2  Li   2.008434   0.000000
     3  H    1.082703   2.622414   0.000000
     4  H    1.082703   2.622414   1.731351   0.000000
     5  H    1.082703   2.622414   1.731351   1.731352   0.000000
 This structure is nearly, but not quite of a higher symmetry.
 Consider Symm=Loose if the higher symmetry is desired.
 Stoichiometry    CH3Li
 Framework group  CS[SG(CHLi),X(H2)]
 Deg. of freedom     6
 Full point group                 CS      NOp   2
 Largest Abelian subgroup         CS      NOp   2
 Largest concise Abelian subgroup CS      NOp   2
                         Standard orientation:                         
 ---------------------------------------------------------------------
 Center     Atomic      Atomic             Coordinates (Angstroms)
 Number     Number       Type             X           Y           Z
 ---------------------------------------------------------------------
      1          6           0        0.000000    0.398109    0.000000
      2          3           0        0.000000   -1.610325   -0.000000
      3          1           0        0.999596    0.814106    0.000000
      4          1           0       -0.499798    0.814106    0.865676
      5          1           0       -0.499798    0.814106   -0.865676
 ---------------------------------------------------------------------
 Rotational constants (GHZ):         167.2867510          22.1055009          22.1054993
 Standard basis: 6-31G(d) (6D, 7F)
 There are    26 symmetry adapted cartesian basis functions of A'  symmetry.
 There are    10 symmetry adapted cartesian basis functions of A"  symmetry.
 There are    26 symmetry adapted basis functions of A'  symmetry.
 There are    10 symmetry adapted basis functions of A"  symmetry.
    36 basis functions,    68 primitive gaussians,    36 cartesian basis functions
     6 alpha electrons        6 beta electrons
       nuclear repulsion energy        16.2732393565 Hartrees.
 NAtoms=    5 NActive=    5 NUniq=    4 SFac= 1.56D+00 NAtFMM=   60 NAOKFM=F Big=F
 Integral buffers will be    131072 words long.
 Raffenetti 1 integral format.
 Two-electron integral symmetry is turned on.
 One-electron integrals computed using PRISM.
 NBasis=    36 RedAO= T EigKep=  6.15D-03  NBF=    26    10
 NBsUse=    36 1.00D-06 EigRej= -1.00D+00 NBFU=    26    10
 ExpMin= 3.60D-02 ExpMax= 3.05D+03 ExpMxC= 4.57D+02 IAcc=3 IRadAn=         5 AccDes= 0.00D+00
 Harris functional with IExCor=  205 and IRadAn=       5 diagonalized for initial guess.
 HarFok:  IExCor=  205 AccDes= 0.00D+00 IRadAn=         5 IDoV= 1 UseB2=F ITyADJ=14
 ICtDFT=  3500011 ScaDFX=  1.000000  1.000000  1.000000  1.000000
 FoFCou: FMM=F IPFlag=           0 FMFlag=      100000 FMFlg1=           0
         NFxFlg=           0 DoJE=T BraDBF=F KetDBF=T FulRan=T
         wScrn=  0.000000 ICntrl=       500 IOpCl=  0 I1Cent=   200000004 NGrid=           0
         NMat0=    1 NMatS0=      1 NMatT0=    0 NMatD0=    1 NMtDS0=    0 NMtDT0=    0
 Petite list used in FoFCou.
 Initial guess orbital symmetries:
       Occupied  (A') (A') (A') (A') (A") (A')
       Virtual   (A') (A") (A') (A') (A") (A') (A') (A') (A") (A')
                 (A') (A') (A") (A") (A') (A') (A') (A") (A') (A")
                 (A') (A') (A') (A') (A') (A") (A') (A") (A') (A')
 The electronic state of the initial guess is 1-A'.
 Keep R1 ints in memory in symmetry-blocked form, NReq=1057102.
 Requested convergence on RMS density matrix=1.00D-08 within 128 cycles.
 Requested convergence on MAX density matrix=1.00D-06.
 Requested convergence on             energy=1.00D-06.
 No special actions if energy rises.
 SCF Done:  E(RHF) =  -47.0153141573     A.U. after   11 cycles
            NFock= 11  Conv=0.45D-08     -V/T= 1.9988

 **********************************************************************

            Population analysis using the SCF Density.

 **********************************************************************

 Orbital symmetries:
       Occupied  (A') (A') (A') (A') (A") (A')
       Virtual   (A') (A') (A") (A') (A') (A") (A') (A') (A") (A')
                 (A') (A") (A') (A') (A") (A') (A') (A") (A') (A')
                 (A") (A') (A') (A') (A") (A') (A') (A") (A') (A')
 The electronic state is 1-A'.
 Alpha  occ. eigenvalues --  -11.10785  -2.42270  -0.82455  -0.45365  -0.45365
 Alpha  occ. eigenvalues --   -0.27708
 Alpha virt. eigenvalues --    0.01160   0.06864   0.06864   0.11456   0.20011
 Alpha virt. eigenvalues --    0.22522   0.22522   0.39619   0.40578   0.40578
 Alpha virt. eigenvalues --    0.43573   0.59330   0.59330   0.62096   0.62096
 Alpha virt. eigenvalues --    0.87934   0.95521   0.95521   1.03500   1.23229
 Alpha virt. eigenvalues --    1.27465   1.27465   1.41037   1.60426   2.13417
 Alpha virt. eigenvalues --    2.13417   2.34808   2.72273   2.72274   4.76297
          Condensed to atoms (all electrons):
               1          2          3          4          5
     1  C    5.302686   0.357585   0.374744   0.374744   0.374744
     2  Li   0.357585   2.291234  -0.025205  -0.025205  -0.025205
     3  H    0.374744  -0.025205   0.601756  -0.035266  -0.035266
     4  H    0.374744  -0.025205  -0.035266   0.601756  -0.035266
     5  H    0.374744  -0.025205  -0.035266  -0.035266   0.601756
 Mulliken charges:
               1
     1  C   -0.784503
     2  Li   0.426796
     3  H    0.119236
     4  H    0.119235
     5  H    0.119235
 Sum of Mulliken charges =  -0.00000
 Mulliken charges with hydrogens summed into heavy atoms:
               1
     1  C   -0.426796
     2  Li   0.426796
 Electronic spatial extent (au):  <R**2>=             66.6075
 Charge=             -0.0000 electrons
 Dipole moment (field-independent basis, Debye):
    X=              0.0000    Y=             -5.7049    Z=              0.0000  Tot=              5.7049
 Quadrupole moment (field-independent basis, Debye-Ang):
   XX=            -11.4797   YY=             -0.7478   ZZ=            -11.4797
   XY=              0.0000   XZ=              0.0000   YZ=              0.0000
 Traceless Quadrupole moment (field-independent basis, Debye-Ang):
   XX=             -3.5773   YY=              7.1546   ZZ=             -3.5773
   XY=              0.0000   XZ=              0.0000   YZ=              0.0000
 Octapole moment (field-independent basis, Debye-Ang**2):
  XXX=              0.2055  YYY=            -27.2298  ZZZ=             -0.0000  XYY=              0.0000
  XXY=             -1.5327  XXZ=              0.0000  XZZ=             -0.2055  YZZ=             -1.5327
  YYZ=              0.0000  XYZ=             -0.0000
 Hexadecapole moment (field-independent basis, Debye-Ang**3):
 XXXX=            -23.0772 YYYY=            -18.1089 ZZZZ=            -23.0772 XXXY=              0.2952
 XXXZ=              0.0000 YYYX=              0.0000 YYYZ=              0.0000 ZZZX=             -0.0000
 ZZZY=              0.0000 XXYY=            -12.1057 XXZZ=             -7.6924 YYZZ=            -12.1057
 XXYZ=             -0.0000 YYXZ=             -0.0000 ZZXY=             -0.2952
 N-N= 1.627323935650D+01 E-N=-1.425722338989D+02  KE= 4.707411230143D+01
 Symmetry A'   KE= 4.526266035971D+01
 Symmetry A"   KE= 1.811451941725D+00
 Running external command "gaunbo7 R"
         input file       "/cluster/work/users/beto93/LiCH3/Gau-3300744.EIn"
         output file      "/cluster/work/users/beto93/LiCH3/Gau-3300744.EOu"
         message file     "/cluster/work/users/beto93/LiCH3/Gau-3300744.EMs"
         fchk file        "/cluster/work/users/beto93/LiCH3/Gau-3300744.EFC"
         mat. el file     "/cluster/work/users/beto93/LiCH3/Gau-3300744.EUF"

 Writing WrtUnf unformatted file "/cluster/work/users/beto93/LiCH3/Gau-3300744.EUF"
 Gaussian matrix elements                                         Version   2 NLab=11 Len12L=8 Len4L=8
 Write SHELL TO ATOM MAP                   from file      0 offset           0 length                  14 to matrix element file.
 Write SHELL TYPES                         from file      0 offset           0 length                  14 to matrix element file.
 Write NUMBER OF PRIMITIVES PER SHELL      from file      0 offset           0 length                  14 to matrix element file.
 Write PRIMITIVE EXPONENTS                 from file      0 offset           0 length                  34 to matrix element file.
 Write CONTRACTION COEFFICIENTS            from file      0 offset           0 length                  34 to matrix element file.
 Write P(S=P) CONTRACTION COEFFICIENTS     from file      0 offset           0 length                  34 to matrix element file.
 Write COORDINATES OF EACH SHELL           from file      0 offset           0 length                  42 to matrix element file.
 Write BONDS PER ATOM                      from file      0 offset           0 length                   5 to matrix element file.
 Write BONDED ATOMS                        from file      0 offset           0 length                   8 to matrix element file.
 Write BOND TYPES                          from file      0 offset           0 length                   8 to matrix element file.
 Write ONIOM CHARGE/MULT                   from file      0 offset           0 length                  32 to matrix element file.
 Write ONIOM ATOM LAYERS                   from file      0 offset           0 length                   5 to matrix element file.
 Write ONIOM ATOM MODIFIERS                from file      0 offset           0 length                   5 to matrix element file.
 Write ONIOM ATOM TYPES                    from file      0 offset           0 length                   5 to matrix element file.
 Write ONIOM LINK ATOMS                    from file      0 offset           0 length                   5 to matrix element file.
 Write ONIOM LINK CHARGES                  from file      0 offset           0 length                   5 to matrix element file.
 Write ONIOM LINK DISTANCES                from file      0 offset           0 length                  20 to matrix element file.
 Write SYMINF INTS                         from file      0 offset           0 length                  26 to matrix element file.
 Write ROTTR TO SO                         from file      0 offset           0 length                  12 to matrix element file.
 Write GAUSSIAN SCALARS                    from file    501 offset           0 to matrix element file.
 Write OPTIMIZATION FLAGS                  from file      0 offset           0 length                   5 to matrix element file.
 Write INTEGER ISO                         from file      0 offset           0 length                   5 to matrix element file.
 Write INTEGER SPIN                        from file      0 offset           0 length                   5 to matrix element file.
 Write REAL ZEFFECTIVE                     from file      0 offset           0 length                   5 to matrix element file.
 Write REAL QUADRUPOLEMOMENT               from file      0 offset           0 length                   5 to matrix element file.
 Write REAL GFACTOR                        from file      0 offset           0 length                   5 to matrix element file.
 Write REAL ZNUCLEAR                       from file      0 offset           0 length                   5 to matrix element file.
 Write MULLIKEN CHARGES                    from file      0 offset           0 length                   5 to matrix element file.
 Write NUCLEAR GRADIENT                    from file  10584 offset           0 length                  15 to matrix element file.
 Array NUCLEAR FORCE CONSTANTS              on  file  10585 does not exist.
 Write ELECTRIC DIPOLE MOMENT              from file      0 offset           0 length                   3 to matrix element file.
 Write NON-ADIABATIC COUPLING              from file  10810 offset           0 length                  15 to matrix element file.
 Write FINITE EM FIELD                     from file  10521 offset           0 length                  35 to matrix element file.
 Write OVERLAP                             from file  10514 offset           0 length                 666 to matrix element file.
 Write CORE HAMILTONIAN ALPHA              from file  10515 offset           0 length                 666 to matrix element file.
 Write CORE HAMILTONIAN BETA               from file  10515 offset         666 length                 666 to matrix element file.
 Write KINETIC ENERGY                      from file  10516 offset           0 length                 666 to matrix element file.
 Write ORTHOGONAL BASIS                    from file  10685 offset           0 length                1296 to matrix element file.
 Write DIPOLE INTEGRALS                    from file  10518 offset           0 length                1998 to matrix element file.
 Array DIP VEL INTEGRALS                    on  file  10572 does not exist.
 Array R X DEL INTEGRALS                    on  file  10572 does not exist.
 Write ALPHA ORBITAL ENERGIES              from file      0 offset           0 length                  36 to matrix element file.
 Write ALPHA MO COEFFICIENTS               from file  10524 offset           0 length                1296 to matrix element file.
 Write ALPHA DENSITY MATRIX                from file      0 offset           0 length                 666 to matrix element file.
 Write ALPHA FOCK MATRIX                   from file  10536 offset           0 length                 666 to matrix element file.
 Write ENERGY-WEIGHTED DENSITY             from file  10571 offset           0 length                 666 to matrix element file.
 Write ALPHA SCF DENSITY MATRIX            from file      0 offset           0 length                 666 to matrix element file.
 No 2e integrals to process.
 Perform NBO analysis...executing G16NBO...

 *********************************** NBO 7.0 ***********************************
             N A T U R A L   A T O M I C   O R B I T A L   A N D
          N A T U R A L   B O N D   O R B I T A L   A N A L Y S I S
 **************************** Espen Tangen (S101595) ***************************
  (c) Copyright 1996-2021 Board of Regents of the University of Wisconsin System
      on behalf of the Theoretical Chemistry Institute.  All rights reserved.

          Cite this program [NBO 7.0.10 (8-Feb-2021)] as:

          NBO 7.0.  E. D. Glendening, J. K. Badenhoop, A. E. Reed,
          J. E. Carpenter, J. A. Bohmann, C. M. Morales, P. Karafiloglou,
          C. R. Landis, and F. Weinhold, Theoretical Chemistry Institute,
          University of Wisconsin, Madison, WI (2018)

       /NPA    / : Natural Population Analysis
       /AOPNAO / : Print the AO to PNAO transformation
       /AONAO  / : Print the AO to NAO transformation
       /AONO   / : Print the NOs in the AO basis
       /AOMO   / : Print the MOs in the AO basis
       /BOAO   / : Print the AO bond-order matrix
       /DMAO   / : Print the AO density matrix
       /DMPNAO / : Print the PNAO density matrix
       /DMNAO  / : Print the NAO density matrix
       /DMMO   / : Print the MO density matrix
       /SAO    / : Print the AO overlap matrix
       /SPNAO  / : Print the PNAO overlap matrix
       /DETAIL / : Write details of NBO search
       /ARCHIVE/ : Write the archive file to lfn47
       /AOINFO / : Write AO information to lfn31
       /FILE   / : Set to inpGenNbo

 Filename set to inpGenNbo

 Job title: NBO-a


 MOs in the AO basis:

           AO          1       2       3       4       5       6       7       8
      ------------ ------- ------- ------- ------- ------- ------- ------- -------
   1.  C 1 (s)      0.9958 -0.0015 -0.1896  0.0000  0.0000  0.0479  0.0216  0.0000
   2.  C 1 (s)      0.0280 -0.0011  0.3416  0.0000  0.0000 -0.0848 -0.0209  0.0000
   3.  C 1 (px)     0.0000  0.0000  0.0000  0.4108  0.0000  0.0000  0.0000 -0.0502
   4.  C 1 (py)     0.0008 -0.0022  0.0822  0.0000  0.0000  0.4438  0.0804  0.0000
   5.  C 1 (pz)     0.0000  0.0000  0.0000  0.0000  0.4108  0.0000  0.0000  0.0000
   6.  C 1 (s)     -0.0148  0.0158  0.3506  0.0000  0.0000 -0.1820 -0.1926  0.0000
   7.  C 1 (px)     0.0000  0.0000  0.0000  0.2132  0.0000  0.0000  0.0000 -0.0311
   8.  C 1 (py)    -0.0003 -0.0082  0.0314  0.0000  0.0000  0.3623  0.1088  0.0000
   9.  C 1 (pz)     0.0000  0.0000  0.0000  0.0000  0.2132  0.0000  0.0000  0.0000
  10.  C 1 (d1)    -0.0017 -0.0008  0.0120  0.0231  0.0000  0.0015  0.0030 -0.0044
  11.  C 1 (d4)    -0.0019  0.0014 -0.0010  0.0000  0.0000 -0.0010  0.0014  0.0000
  12.  C 1 (d6)    -0.0017 -0.0008  0.0120 -0.0231  0.0000  0.0015  0.0030  0.0044
  13.  C 1 (d2)     0.0000  0.0000  0.0000  0.0277  0.0000  0.0000  0.0000 -0.0098
  14.  C 1 (d3)     0.0000  0.0000  0.0000  0.0000 -0.0267  0.0000  0.0000  0.0000
  15.  C 1 (d5)     0.0000  0.0000  0.0000  0.0000  0.0277  0.0000  0.0000  0.0000
  16. Li 2 (s)      0.0004  0.9973 -0.0303  0.0000  0.0000  0.1290 -0.1318  0.0000
  17. Li 2 (s)      0.0038 -0.0133  0.0339  0.0000  0.0000 -0.3165 -0.4588  0.0000
  18. Li 2 (px)     0.0000  0.0000  0.0000  0.0228  0.0000  0.0000  0.0000 -0.0504
  19. Li 2 (py)     0.0028 -0.0209  0.0412  0.0000  0.0000 -0.2679 -0.1191  0.0000
  20. Li 2 (pz)     0.0000  0.0000  0.0000  0.0000  0.0228  0.0000  0.0000  0.0000
  21. Li 2 (s)     -0.0016  0.0007  0.0053  0.0000  0.0000 -0.0417  1.0272  0.0000
  22. Li 2 (px)     0.0000  0.0000  0.0000  0.0132  0.0000  0.0000  0.0000  1.0781
  23. Li 2 (py)    -0.0013  0.0102 -0.0077  0.0000  0.0000  0.1054 -0.5281  0.0000
  24. Li 2 (pz)     0.0000  0.0000  0.0000  0.0000  0.0132  0.0000  0.0000  0.0000
  25. Li 2 (d1)    -0.0006  0.0094 -0.0052  0.0028  0.0000  0.0244  0.0801  0.0000
  26. Li 2 (d4)     0.0004  0.0022  0.0098  0.0000  0.0000 -0.0007  0.1315  0.0000
  27. Li 2 (d6)    -0.0006  0.0094 -0.0052 -0.0028  0.0000  0.0244  0.0801  0.0000
  28. Li 2 (d2)     0.0000  0.0000  0.0000  0.0037  0.0000  0.0000  0.0000 -0.0316
  29. Li 2 (d3)     0.0000  0.0000  0.0000  0.0000 -0.0032  0.0000  0.0000  0.0000
  30. Li 2 (d5)     0.0000  0.0000  0.0000  0.0000  0.0037  0.0000  0.0000  0.0000
  31.  H 3 (s)     -0.0001 -0.0001  0.1512  0.2728  0.0000  0.0674  0.0057 -0.0306
  32.  H 3 (s)      0.0029 -0.0005  0.0528  0.2683  0.0000  0.0947  0.0841 -0.1874
  33.  H 4 (s)     -0.0001 -0.0001  0.1512 -0.1364  0.2363  0.0674  0.0057  0.0153
  34.  H 4 (s)      0.0029 -0.0005  0.0528 -0.1342  0.2324  0.0947  0.0841  0.0937
  35.  H 5 (s)     -0.0001 -0.0001  0.1512 -0.1364 -0.2363  0.0674  0.0057  0.0153
  36.  H 5 (s)      0.0029 -0.0005  0.0528 -0.1342 -0.2324  0.0947  0.0841  0.0937

           AO          9      10      11      12      13      14      15      16
      ------------ ------- ------- ------- ------- ------- ------- ------- -------
   1.  C 1 (s)      0.0000  0.0546 -0.0152  0.0000  0.0000 -0.0443  0.0000  0.0000
   2.  C 1 (s)      0.0000 -0.0975  0.0065  0.0000  0.0000 -0.0588  0.0000  0.0000
   3.  C 1 (px)     0.0000  0.0000  0.0000  0.0000  0.0242  0.0000  0.0000 -0.2949
   4.  C 1 (py)     0.0000  0.0229  0.0391  0.0000  0.0000  0.2943  0.0000  0.0000
   5.  C 1 (pz)    -0.0502  0.0000  0.0000  0.0242  0.0000  0.0000 -0.2949  0.0000
   6.  C 1 (s)      0.0000 -0.1576  0.2330  0.0000  0.0000  1.5227  0.0000  0.0000
   7.  C 1 (px)     0.0000  0.0000  0.0000  0.0000  0.1364  0.0000  0.0000 -1.5041
   8.  C 1 (py)     0.0000  0.1331 -0.0271  0.0000  0.0000  0.9738  0.0000  0.0000
   9.  C 1 (pz)    -0.0311  0.0000  0.0000  0.1364  0.0000  0.0000 -1.5041  0.0000
  10.  C 1 (d1)     0.0000  0.0006 -0.0036  0.0000 -0.0012 -0.0131  0.0000  0.0084
  11.  C 1 (d4)     0.0000 -0.0010 -0.0127  0.0000  0.0000  0.0266  0.0000  0.0000
  12.  C 1 (d6)     0.0000  0.0006 -0.0036  0.0000  0.0012 -0.0131  0.0000 -0.0084
  13.  C 1 (d2)     0.0000  0.0000  0.0000  0.0000 -0.0148  0.0000  0.0000 -0.0083
  14.  C 1 (d3)     0.0051  0.0000  0.0000  0.0014  0.0000  0.0000 -0.0097  0.0000
  15.  C 1 (d5)    -0.0098  0.0000  0.0000 -0.0148  0.0000  0.0000 -0.0083  0.0000
  16. Li 2 (s)      0.0000 -0.1123  0.0509  0.0000  0.0000  0.0150  0.0000  0.0000
  17. Li 2 (s)      0.0000 -0.5038  2.6313  0.0000  0.0000  1.2318  0.0000  0.0000
  18. Li 2 (px)     0.0000  0.0000  0.0000  0.0000  1.6193  0.0000  0.0000  0.5548
  19. Li 2 (py)     0.0000 -0.4502 -1.0414  0.0000  0.0000  1.0026  0.0000  0.0000
  20. Li 2 (pz)    -0.0504  0.0000  0.0000  1.6193  0.0000  0.0000  0.5548  0.0000
  21. Li 2 (s)      0.0000  1.1171 -2.0811  0.0000  0.0000 -0.1758  0.0000  0.0000
  22. Li 2 (px)     0.0000  0.0000  0.0000  0.0000 -1.2623  0.0000  0.0000 -0.4298
  23. Li 2 (py)     0.0000  1.4373  0.6367  0.0000  0.0000 -0.1906  0.0000  0.0000
  24. Li 2 (pz)     1.0781  0.0000  0.0000 -1.2623  0.0000  0.0000 -0.4298  0.0000
  25. Li 2 (d1)     0.0000  0.0692 -0.2653  0.0000 -0.0033  0.0088  0.0000  0.1067
  26. Li 2 (d4)     0.0000  0.0646 -0.2207  0.0000  0.0000 -0.4209  0.0000  0.0000
  27. Li 2 (d6)     0.0000  0.0692 -0.2653  0.0000  0.0033  0.0088  0.0000 -0.1067
  28. Li 2 (d2)     0.0000  0.0000  0.0000  0.0000 -0.0799  0.0000  0.0000 -0.0342
  29. Li 2 (d3)     0.0001  0.0000  0.0000  0.0038  0.0000  0.0000 -0.1232  0.0000
  30. Li 2 (d5)    -0.0316  0.0000  0.0000 -0.0799  0.0000  0.0000 -0.0342  0.0000
  31.  H 3 (s)      0.0000  0.0109 -0.0015  0.0000 -0.0386  0.0020  0.0000  0.0434
  32.  H 3 (s)      0.0000 -0.2567  0.0179  0.0000 -0.2297 -1.0448  0.0000  1.8979
  33.  H 4 (s)     -0.0265  0.0109 -0.0015 -0.0335  0.0193  0.0020  0.0376 -0.0217
  34.  H 4 (s)     -0.1623 -0.2567  0.0179 -0.1989  0.1149 -1.0449  1.6436 -0.9489
  35.  H 5 (s)      0.0265  0.0109 -0.0015  0.0335  0.0193  0.0020 -0.0376 -0.0217
  36.  H 5 (s)      0.1623 -0.2567  0.0179  0.1989  0.1149 -1.0449 -1.6436 -0.9489

           AO         17      18      19      20      21      22      23      24
      ------------ ------- ------- ------- ------- ------- ------- ------- -------
   1.  C 1 (s)     -0.1441  0.0000  0.0000  0.0000  0.0000  0.0287  0.0000  0.0000
   2.  C 1 (s)      0.1594  0.0000  0.0000  0.0000  0.0000 -0.2388  0.0000  0.0000
   3.  C 1 (px)     0.0000  0.0000  0.0647 -0.2354  0.0000  0.0000 -0.7318  0.0000
   4.  C 1 (py)    -0.0325  0.0000  0.0000  0.0000  0.0000 -0.1424  0.0000  0.0000
   5.  C 1 (pz)     0.0000 -0.0647  0.0000  0.0000 -0.2354  0.0000  0.0000 -0.7318
   6.  C 1 (s)      2.4834  0.0000  0.0000  0.0000  0.0000 -0.6273  0.0000  0.0000
   7.  C 1 (px)     0.0000  0.0000  0.1116 -0.4055  0.0000  0.0000  1.9685  0.0000
   8.  C 1 (py)     0.4515  0.0000  0.0000  0.0000  0.0000  2.0808  0.0000  0.0000
   9.  C 1 (pz)     0.0000 -0.1116  0.0000  0.0000 -0.4055  0.0000  0.0000  1.9685
  10.  C 1 (d1)     0.0020  0.0000  0.0082 -0.0160  0.0000 -0.0616 -0.1027  0.0000
  11.  C 1 (d4)    -0.0299  0.0000  0.0000  0.0000  0.0000  0.0453  0.0000  0.0000
  12.  C 1 (d6)     0.0020  0.0000 -0.0082  0.0160  0.0000 -0.0616  0.1027  0.0000
  13.  C 1 (d2)     0.0000  0.0000 -0.0137 -0.0481  0.0000  0.0000 -0.0169  0.0000
  14.  C 1 (d3)     0.0000  0.0095  0.0000  0.0000  0.0184  0.0000  0.0000  0.1186
  15.  C 1 (d5)     0.0000  0.0137  0.0000  0.0000 -0.0481  0.0000  0.0000 -0.0169
  16. Li 2 (s)     -0.0932  0.0000  0.0000  0.0000  0.0000  0.1919  0.0000  0.0000
  17. Li 2 (s)     -1.7964  0.0000  0.0000  0.0000  0.0000  0.8869  0.0000  0.0000
  18. Li 2 (px)     0.0000  0.0000 -0.0151  0.2428  0.0000  0.0000 -0.5091  0.0000
  19. Li 2 (py)    -0.9793  0.0000  0.0000  0.0000  0.0000  2.2756  0.0000  0.0000
  20. Li 2 (pz)     0.0000  0.0151  0.0000  0.0000  0.2428  0.0000  0.0000 -0.5091
  21. Li 2 (s)      1.6042  0.0000  0.0000  0.0000  0.0000 -0.1372  0.0000  0.0000
  22. Li 2 (px)     0.0000  0.0000  0.0540 -0.1384  0.0000  0.0000  0.0506  0.0000
  23. Li 2 (py)     1.1605  0.0000  0.0000  0.0000  0.0000 -0.7331  0.0000  0.0000
  24. Li 2 (pz)     0.0000 -0.0540  0.0000  0.0000 -0.1384  0.0000  0.0000  0.0506
  25. Li 2 (d1)    -0.0033  0.0000  0.8371 -0.1929  0.0000 -0.3126  0.0889  0.0000
  26. Li 2 (d4)     0.3915  0.0000  0.0000  0.0000  0.0000  1.6889  0.0000  0.0000
  27. Li 2 (d6)    -0.0033  0.0000 -0.8371  0.1929  0.0000 -0.3126 -0.0889  0.0000
  28. Li 2 (d2)     0.0000  0.0000  0.2462  0.9620  0.0000  0.0000 -0.6257  0.0000
  29. Li 2 (d3)     0.0000  0.9666  0.0000  0.0000  0.2227  0.0000  0.0000 -0.1026
  30. Li 2 (d5)     0.0000 -0.2462  0.0000  0.0000  0.9620  0.0000  0.0000 -0.6257
  31.  H 3 (s)     -0.0058  0.0000 -0.0330 -0.1936  0.0000 -0.1899 -0.5087  0.0000
  32.  H 3 (s)     -1.3069  0.0000 -0.2689  0.6102  0.0000 -0.4248 -0.4580  0.0000
  33.  H 4 (s)     -0.0058  0.0286  0.0165  0.0968 -0.1677 -0.1899  0.2544 -0.4406
  34.  H 4 (s)     -1.3069  0.2329  0.1344 -0.3051  0.5285 -0.4247  0.2290 -0.3966
  35.  H 5 (s)     -0.0058 -0.0286  0.0165  0.0968  0.1677 -0.1899  0.2544  0.4406
  36.  H 5 (s)     -1.3069 -0.2329  0.1344 -0.3051 -0.5285 -0.4247  0.2290  0.3966

           AO         25      26      27      28      29      30      31      32
      ------------ ------- ------- ------- ------- ------- ------- ------- -------
   1.  C 1 (s)      0.0587 -0.0007  0.0000  0.0000 -0.0713 -0.1342  0.0000  0.0000
   2.  C 1 (s)      0.0584 -0.4173  0.0000  0.0000  0.8630 -2.1514  0.0000  0.0000
   3.  C 1 (px)     0.0000  0.0000  0.0000  0.9344  0.0000  0.0000  0.0000  0.0663
   4.  C 1 (py)     0.9572 -0.5314  0.0000  0.0000  0.3651  0.3020  0.0000  0.0000
   5.  C 1 (pz)     0.0000  0.0000  0.9344  0.0000  0.0000  0.0000  0.0663  0.0000
   6.  C 1 (s)     -1.2527  1.2709  0.0000  0.0000 -1.4856  6.3003  0.0000  0.0000
   7.  C 1 (px)     0.0000  0.0000  0.0000 -1.2069  0.0000  0.0000  0.0000 -0.3794
   8.  C 1 (py)    -1.0731  0.6742  0.0000  0.0000 -0.7496 -0.8869  0.0000  0.0000
   9.  C 1 (pz)     0.0000  0.0000 -1.2069  0.0000  0.0000  0.0000 -0.3794  0.0000
  10.  C 1 (d1)     0.0251 -0.0308  0.0000 -0.1477 -0.0354 -0.1115  0.0000 -0.5333
  11.  C 1 (d4)    -0.0358  0.0219  0.0000  0.0000  0.1972 -0.1446  0.0000  0.0000
  12.  C 1 (d6)     0.0251 -0.0308  0.0000  0.1477 -0.0354 -0.1115  0.0000  0.5333
  13.  C 1 (d2)     0.0000  0.0000  0.0000 -0.1220  0.0000  0.0000  0.0000  0.8047
  14.  C 1 (d3)     0.0000  0.0000  0.1706  0.0000  0.0000  0.0000  0.6158  0.0000
  15.  C 1 (d5)     0.0000  0.0000 -0.1220  0.0000  0.0000  0.0000  0.8047  0.0000
  16. Li 2 (s)     -0.0785  0.1233  0.0000  0.0000  0.0332 -0.2940  0.0000  0.0000
  17. Li 2 (s)      2.1839  8.7591  0.0000  0.0000  2.5947 -2.9916  0.0000  0.0000
  18. Li 2 (px)     0.0000  0.0000  0.0000  0.1520  0.0000  0.0000  0.0000  0.2110
  19. Li 2 (py)     0.1967  0.0214  0.0000  0.0000 -0.3532 -2.3475  0.0000  0.0000
  20. Li 2 (pz)     0.0000  0.0000  0.1520  0.0000  0.0000  0.0000  0.2110  0.0000
  21. Li 2 (s)     -0.5835 -2.5005  0.0000  0.0000 -1.1891  0.9997  0.0000  0.0000
  22. Li 2 (px)     0.0000  0.0000  0.0000 -0.1423  0.0000  0.0000  0.0000 -0.0837
  23. Li 2 (py)     0.0200  0.1613  0.0000  0.0000 -0.1953  0.9053  0.0000  0.0000
  24. Li 2 (pz)     0.0000  0.0000 -0.1423  0.0000  0.0000  0.0000 -0.0837  0.0000
  25. Li 2 (d1)    -1.0699 -2.9176  0.0000 -0.0476 -0.7685  0.6366  0.0000  0.0248
  26. Li 2 (d4)    -0.1275 -2.9540  0.0000  0.0000 -1.2062 -0.5736  0.0000  0.0000
  27. Li 2 (d6)    -1.0699 -2.9176  0.0000  0.0476 -0.7685  0.6366  0.0000 -0.0248
  28. Li 2 (d2)     0.0000  0.0000  0.0000 -0.0417  0.0000  0.0000  0.0000  0.2631
  29. Li 2 (d3)     0.0000  0.0000  0.0549  0.0000  0.0000  0.0000 -0.0286  0.0000
  30. Li 2 (d5)     0.0000  0.0000 -0.0417  0.0000  0.0000  0.0000  0.2631  0.0000
  31.  H 3 (s)      0.1730  0.0556  0.0000 -0.8052 -0.7001 -0.3400  0.0000  0.0437
  32.  H 3 (s)      0.2750 -0.5471  0.0000  1.5163  1.0352 -0.8835  0.0000  0.1622
  33.  H 4 (s)      0.1730  0.0556 -0.6973  0.4026 -0.7001 -0.3400  0.0379 -0.0219
  34.  H 4 (s)      0.2750 -0.5471  1.3132 -0.7582  1.0352 -0.8835  0.1405 -0.0811
  35.  H 5 (s)      0.1730  0.0556  0.6973  0.4026 -0.7001 -0.3400 -0.0379 -0.0219
  36.  H 5 (s)      0.2750 -0.5471 -1.3132 -0.7582  1.0352 -0.8835 -0.1405 -0.0811

           AO         33      34      35      36
      ------------ ------- ------- ------- -------
   1.  C 1 (s)     -0.0155  0.0000  0.0000 -0.5019
   2.  C 1 (s)      0.2528  0.0000  0.0000  2.8515
   3.  C 1 (px)     0.0000  0.0000 -0.1483  0.0000
   4.  C 1 (py)    -0.0437  0.0000  0.0000 -0.0057
   5.  C 1 (pz)     0.0000 -0.1483  0.0000  0.0000
   6.  C 1 (s)     -0.5378  0.0000  0.0000  2.8825
   7.  C 1 (px)     0.0000  0.0000 -0.5033  0.0000
   8.  C 1 (py)     0.9281  0.0000  0.0000 -0.0560
   9.  C 1 (pz)     0.0000 -0.5033  0.0000  0.0000
  10.  C 1 (d1)     0.5016  0.0000 -0.7784 -1.9246
  11.  C 1 (d4)    -1.0771  0.0000  0.0000 -1.8418
  12.  C 1 (d6)     0.5016  0.0000  0.7784 -1.9246
  13.  C 1 (d2)     0.0000  0.0000 -0.7011  0.0000
  14.  C 1 (d3)     0.0000  0.8988  0.0000  0.0000
  15.  C 1 (d5)     0.0000 -0.7011  0.0000  0.0000
  16. Li 2 (s)      0.1217  0.0000  0.0000 -0.1110
  17. Li 2 (s)      1.3329  0.0000  0.0000 -0.9714
  18. Li 2 (px)     0.0000  0.0000  0.0786  0.0000
  19. Li 2 (py)     1.0456  0.0000  0.0000 -0.6093
  20. Li 2 (pz)     0.0000  0.0786  0.0000  0.0000
  21. Li 2 (s)     -0.4201  0.0000  0.0000  0.4044
  22. Li 2 (px)     0.0000  0.0000  0.0232  0.0000
  23. Li 2 (py)    -0.3916  0.0000  0.0000  0.3088
  24. Li 2 (pz)     0.0000  0.0232  0.0000  0.0000
  25. Li 2 (d1)    -0.3444  0.0000  0.0280  0.1654
  26. Li 2 (d4)     0.3370  0.0000  0.0000 -0.0245
  27. Li 2 (d6)    -0.3444  0.0000 -0.0280  0.1654
  28. Li 2 (d2)     0.0000  0.0000  0.0572  0.0000
  29. Li 2 (d3)     0.0000 -0.0324  0.0000  0.0000
  30. Li 2 (d5)     0.0000  0.0572  0.0000  0.0000
  31.  H 3 (s)     -0.2739  0.0000  0.8236  0.1455
  32.  H 3 (s)     -0.0817  0.0000 -0.0903 -0.6070
  33.  H 4 (s)     -0.2739  0.7133 -0.4118  0.1455
  34.  H 4 (s)     -0.0817 -0.0782  0.0452 -0.6070
  35.  H 5 (s)     -0.2739 -0.7133 -0.4118  0.1455
  36.  H 5 (s)     -0.0817  0.0782  0.0452 -0.6070


 NOs in the AO basis:

           AO          1       2       3       4       5       6       7       8
      ------------ ------- ------- ------- ------- ------- ------- ------- -------
   1.  C 1 (s)      0.9461  0.3598  0.0046 -0.0193  0.0094 -0.0690 -0.0223 -0.0024
   2.  C 1 (s)     -0.0331 -0.0174 -0.3495  0.0270 -0.0025  0.0184  0.0916 -0.0039
   3.  C 1 (px)    -0.0099  0.0062 -0.0305 -0.4094  0.0039  0.0097 -0.0923 -0.1673
   4.  C 1 (py)     0.0603 -0.0558  0.0480  0.0044 -0.0189  0.4407 -0.0640 -0.6964
   5.  C 1 (pz)     0.0012 -0.0105 -0.0013  0.0042  0.4103  0.0162  0.1101 -0.0809
   6.  C 1 (s)     -0.0946 -0.0075 -0.3774  0.0288  0.0012 -0.0651  0.1476  0.0996
   7.  C 1 (px)    -0.0051  0.0032 -0.0158 -0.2124  0.0020  0.0050  0.0368  0.0438
   8.  C 1 (py)     0.0553 -0.0482  0.0729  0.0006 -0.0149  0.3484  0.0326  0.3763
   9.  C 1 (pz)     0.0006 -0.0055 -0.0007  0.0022  0.2129  0.0084 -0.0119  0.1861
  10.  C 1 (d1)    -0.0032 -0.0023 -0.0122 -0.0221 -0.0001  0.0055  0.1152  0.1427
  11.  C 1 (d4)    -0.0023  0.0009  0.0010  0.0000  0.0001 -0.0009  0.0268 -0.0649
  12.  C 1 (d6)    -0.0021 -0.0030 -0.0088  0.0239 -0.0005  0.0044 -0.0368  0.2339
  13.  C 1 (d2)    -0.0007  0.0004 -0.0021 -0.0276  0.0003  0.0007  0.0237 -0.1045
  14.  C 1 (d3)    -0.0001  0.0007  0.0001 -0.0003 -0.0266 -0.0010  0.0879  0.1324
  15.  C 1 (d5)     0.0001 -0.0007 -0.0001  0.0003  0.0276  0.0011 -0.2834 -0.0669
  16. Li 2 (s)     -0.3159  0.9131  0.0646  0.0232  0.0136  0.2714  0.0405  0.1462
  17. Li 2 (s)     -0.0463  0.0181 -0.1219  0.0037  0.0116 -0.2899  0.1754  0.1372
  18. Li 2 (px)    -0.0005  0.0003 -0.0017 -0.0227  0.0002  0.0005 -0.3954  0.5344
  19. Li 2 (py)    -0.0379  0.0050 -0.1148  0.0039  0.0094 -0.2432  0.1259  0.0940
  20. Li 2 (pz)     0.0001 -0.0006 -0.0001  0.0002  0.0228  0.0009  0.4989 -0.0957
  21. Li 2 (s)     -0.0090  0.0039 -0.0165  0.0006  0.0015 -0.0374 -0.1462 -0.4030
  22. Li 2 (px)    -0.0003  0.0002 -0.0010 -0.0131  0.0001  0.0003 -0.3408 -0.2651
  23. Li 2 (py)     0.0129 -0.0011  0.0372 -0.0008 -0.0038  0.0985 -0.1977  0.0896
  24. Li 2 (pz)     0.0000 -0.0003  0.0000  0.0001  0.0132  0.0005 -0.5739  0.1608
  25. Li 2 (d1)     0.0007  0.0065  0.0117 -0.0031 -0.0007  0.0231 -0.2171 -0.1464
  26. Li 2 (d4)    -0.0018  0.0012 -0.0095  0.0008 -0.0001  0.0025 -0.1444 -0.4521
  27. Li 2 (d6)     0.0009  0.0064  0.0121  0.0025 -0.0007  0.0229 -0.0235  0.1926
  28. Li 2 (d2)    -0.0001  0.0001 -0.0003 -0.0037  0.0000  0.0001  0.1178  0.0382
  29. Li 2 (d3)     0.0000  0.0001  0.0000  0.0000 -0.0032 -0.0001 -0.3424 -0.1105
  30. Li 2 (d5)     0.0000 -0.0001  0.0000  0.0000  0.0037  0.0001 -0.1927  0.1045
  31.  H 3 (s)     -0.0163 -0.0183 -0.1430 -0.2603 -0.0027  0.1141  0.1860  0.0523
  32.  H 3 (s)      0.0042 -0.0105 -0.0433 -0.2637 -0.0021  0.1105 -0.0850 -0.0634
  33.  H 4 (s)     -0.0057 -0.0305 -0.1134  0.1499  0.2294  0.1137 -0.0637 -0.1356
  34.  H 4 (s)      0.0146 -0.0225 -0.0141  0.1398  0.2262  0.1101 -0.0793 -0.0252
  35.  H 5 (s)     -0.0071 -0.0184 -0.1119  0.1451 -0.2426  0.0951 -0.1091  0.0086
  36.  H 5 (s)      0.0132 -0.0106 -0.0126  0.1350 -0.2380  0.0919 -0.0902  0.0466

           AO          9      10      11      12      13      14      15      16
      ------------ ------- ------- ------- ------- ------- ------- ------- -------
   1.  C 1 (s)      0.0166  0.0020  0.0305  0.0381 -0.0434  0.0076  0.0118 -0.0156
   2.  C 1 (s)     -0.1062  0.0314 -0.1565  0.1291  0.1855 -0.0366 -0.1182  0.2249
   3.  C 1 (px)    -0.1596  0.1042  0.0007  0.1701  0.0599  0.0561  0.1693  0.3837
   4.  C 1 (py)    -0.4542 -0.0425  0.2300  0.1200  0.3335 -0.0507 -0.1998 -0.1758
   5.  C 1 (pz)     0.5228 -0.0445  0.0604 -0.1874 -0.1064  0.2072  0.0641 -0.4588
   6.  C 1 (s)      0.0062 -0.0514 -0.0662 -0.3012  0.4397  0.0144  0.1457 -0.1861
   7.  C 1 (px)     0.0431 -0.0247  0.0547  0.0736  0.0974  0.0576  0.2081  0.4469
   8.  C 1 (py)     0.4953 -0.0187 -0.2334 -0.3350  0.1344  0.0492  0.2081 -0.1011
   9.  C 1 (pz)    -0.3680 -0.0491 -0.0618  0.4275  0.0347 -0.1047 -0.2170  0.7425
  10.  C 1 (d1)    -0.1091  0.0602 -0.1603  0.1127  0.3905 -0.0620 -0.0043 -0.1451
  11.  C 1 (d4)     0.0245  0.0048 -0.0634 -0.0056 -0.0514 -0.0308 -0.0446  0.0900
  12.  C 1 (d6)     0.0503 -0.0227  0.0788 -0.5710  0.0952  0.1023  0.1705 -0.2363
  13.  C 1 (d2)    -0.0033 -0.2334 -0.3870  0.0351  0.0424 -0.0359 -0.0176  0.1252
  14.  C 1 (d3)    -0.0596 -0.1822  0.1750 -0.0429  0.0295 -0.1554 -0.1907  0.0180
  15.  C 1 (d5)     0.1464  0.2691  0.1673 -0.0410 -0.0392 -0.3419  0.2490  0.0776
  16. Li 2 (s)      0.0390  0.0086 -0.0699 -0.0709  0.0479 -0.0051  0.0241  0.0378
  17. Li 2 (s)      0.2920 -0.0819 -0.1837 -0.3247  0.4629 -0.0622 -0.0018 -0.3207
  18. Li 2 (px)     0.2882  0.1605  0.5510 -0.0861  0.1542  0.1835 -0.4893  0.3999
  19. Li 2 (py)    -0.2169 -0.0118  0.0173  0.2554  0.1126 -0.0825 -0.1445 -0.1332
  20. Li 2 (pz)     0.0507  0.1793 -0.2456  0.3342  0.0055  0.6945 -0.0780  0.1820
  21. Li 2 (s)     -0.2007  0.0282  0.3127  0.6700 -0.9198 -0.0377 -0.3014 -0.3538
  22. Li 2 (px)    -0.3521 -0.2229 -1.0401  0.2316 -0.1554 -0.2743  0.3303 -0.5212
  23. Li 2 (py)     0.3362  0.0717  0.1865  0.4657 -0.0539  0.0059 -0.0342 -0.2774
  24. Li 2 (pz)    -0.4857  0.3333  0.4294 -0.5458 -0.0337 -0.4812 -0.0130 -0.4479
  25. Li 2 (d1)     0.4381  0.0823 -0.0411 -0.0948  0.6258 -0.0106 -0.3503  0.2730
  26. Li 2 (d4)    -0.0922 -0.0241 -0.0210 -0.3381 -0.3686 -0.0107 -0.0433  0.3168
  27. Li 2 (d6)    -0.1084 -0.0724  0.1341  0.0974  0.3567  0.2780  0.9171  0.0116
  28. Li 2 (d2)     0.0039  0.4339 -0.4087 -0.1168 -0.0974  0.1511 -0.2060 -0.3861
  29. Li 2 (d3)     0.0103  0.0335 -0.0347 -0.0064 -0.0015  0.6749 -0.0439 -0.0136
  30. Li 2 (d5)    -0.2312 -0.5080  0.2023 -0.2558 -0.0122  0.1368 -0.0332 -0.2046
  31.  H 3 (s)     -0.0610 -0.0523  0.1424  0.1360 -0.4087 -0.0764 -0.1384 -0.2325
  32.  H 3 (s)      0.1740 -0.0904  0.2207 -0.2684 -0.1835  0.0136 -0.0489 -0.0837
  33.  H 4 (s)     -0.1984  0.0789 -0.1054  0.3544 -0.1056 -0.0250  0.1400  0.5405
  34.  H 4 (s)      0.2012  0.0185 -0.0294 -0.1632 -0.2124 -0.0221  0.0725 -0.1292
  35.  H 5 (s)     -0.0061  0.0449  0.0539  0.2905 -0.2877  0.1127 -0.0100  0.4139
  36.  H 5 (s)     -0.1593  0.0265 -0.0474  0.1763 -0.1409  0.0832  0.0227  0.4445

           AO         17      18      19      20      21      22      23      24
      ------------ ------- ------- ------- ------- ------- ------- ------- -------
   1.  C 1 (s)     -0.0172  0.0043 -0.0263  0.0237  0.0132  0.0365 -0.0068 -0.0174
   2.  C 1 (s)     -0.1058 -0.0550  0.2196  0.3696  0.0061 -0.8252  0.0066  0.0405
   3.  C 1 (px)    -0.0735  0.2060 -0.1608 -0.5599  0.1996 -0.1396  0.0035 -0.0839
   4.  C 1 (py)     0.6100 -0.1003  0.3064  0.0693  0.0377 -0.0477 -0.0537  0.0681
   5.  C 1 (pz)     0.3470  0.0902 -0.0380 -0.1094 -0.0136 -0.0920 -0.1957  0.3014
   6.  C 1 (s)      0.0875 -0.0775 -0.8658 -0.6705 -0.1230  0.5317  0.0537  0.0970
   7.  C 1 (px)    -0.0156  0.1417  0.9768  1.2388  0.0037  0.2631 -0.0263 -0.0584
   8.  C 1 (py)    -0.6379 -0.0170 -1.5713 -0.7863 -0.0541  0.4241  0.0222  0.0598
   9.  C 1 (pz)    -0.4046 -0.1186  0.3388 -1.1644 -0.0408 -1.3908  0.1602 -0.1844
  10.  C 1 (d1)    -0.2759 -0.2153 -0.0679 -0.0707 -0.0384  0.3180  0.0549  0.0068
  11.  C 1 (d4)     0.0753 -0.0193 -0.1631  0.3361 -0.0030 -0.2149  0.0380  0.0331
  12.  C 1 (d6)     0.3181  0.1741 -0.1639  0.1483 -0.0654  0.0178 -0.0851  0.0633
  13.  C 1 (d2)     0.1711  0.4864 -0.0352 -0.0396  0.2953  0.0302  0.2378 -0.2133
  14.  C 1 (d3)    -0.0618 -0.0618  0.0127  0.1725  0.0436  0.2444  0.5393  0.4331
  15.  C 1 (d5)     0.0478 -0.0211 -0.0164 -0.0826  0.3910 -0.1079  0.2289  0.4460
  16. Li 2 (s)     -0.0291  0.0284 -0.0906 -0.0920 -0.0245  0.0507  0.0299  0.0065
  17. Li 2 (s)     -0.5793 -0.2124 -3.0486 -0.8990 -0.1895  0.5760  0.0629  0.1377
  18. Li 2 (px)     0.5174 -0.5384 -0.1976 -0.2931  0.0709 -0.0421 -0.3137 -0.1746
  19. Li 2 (py)     0.0908 -0.1331 -0.8928 -1.1749 -0.0723  0.8290  0.0722  0.0024
  20. Li 2 (pz)     0.0454  0.2097 -0.0810  0.4827  0.3024  0.6559 -0.4973  1.0169
  21. Li 2 (s)      0.0452 -0.1751  0.1839  0.5115  0.0853 -0.3422 -0.1415 -0.0742
  22. Li 2 (px)    -0.3565  0.2722  0.2006  0.1254 -0.1231 -0.0703  0.0401  0.4028
  23. Li 2 (py)     0.1381  0.4177 -0.4071  0.9551  0.1739 -0.8222  0.0344 -0.0971
  24. Li 2 (pz)    -0.2295  0.2936  0.0684 -0.3283 -0.2586 -0.4430  0.2150 -0.6758
  25. Li 2 (d1)    -0.2835  0.3033  1.1068  0.2705  0.1593 -0.1351 -0.0798 -0.0943
  26. Li 2 (d4)     0.3303  0.0614  0.2982 -0.1832  0.0394  0.0335 -0.0429  0.0497
  27. Li 2 (d6)     0.0234 -0.0550  0.9712  0.1730  0.1271 -0.2015  0.0084 -0.0227
  28. Li 2 (d2)     0.0957 -0.3265 -0.1086 -0.2041  0.5870 -0.1106  0.2001 -0.2200
  29. Li 2 (d3)     0.0099 -0.0228 -0.0209  0.0439 -0.2719  0.0410  0.5213 -0.0284
  30. Li 2 (d5)    -0.0817 -0.0166 -0.0454  0.2562  0.6222  0.3137 -0.1191  0.0486
  31.  H 3 (s)     -0.1724 -0.3572  0.0949  0.3549 -0.2414 -0.5601 -0.0006  0.0736
  32.  H 3 (s)      0.1605  0.2499 -0.0863 -0.8039 -0.0491  0.4418 -0.0344 -0.0341
  33.  H 4 (s)     -0.0596 -0.0146 -0.3444  0.2721  0.0851  0.3151  0.0753 -0.2569
  34.  H 4 (s)      0.0933  0.0279  1.5640  1.4808 -0.0110  0.8563  0.0764 -0.0946
  35.  H 5 (s)     -0.0547  0.1066 -0.6042 -0.0838  0.2369 -0.3997 -0.1058 -0.0192
  36.  H 5 (s)     -0.2114  0.0849  2.4493 -0.3767  0.1860 -0.9192 -0.0956 -0.0184

           AO         25      26      27      28      29      30      31      32
      ------------ ------- ------- ------- ------- ------- ------- ------- -------
   1.  C 1 (s)      0.0064 -0.0019  0.0488 -0.0486  0.1089  0.1368 -0.0317  0.0106
   2.  C 1 (s)      0.0079  0.2723 -0.0966  0.4711 -0.7264 -0.9873  1.5447 -0.1523
   3.  C 1 (px)    -0.2937 -0.0639  0.1207 -0.6027 -0.0327 -0.4677  0.0099 -0.3170
   4.  C 1 (py)    -0.0237 -0.0652 -0.0013  0.0893  0.1544 -0.1486 -0.0635  0.1071
   5.  C 1 (pz)    -0.0065  0.4567  0.1416 -0.0348 -0.0741 -0.0597  0.0226 -0.5329
   6.  C 1 (s)      0.0390 -0.0265 -0.1627 -0.2320 -0.3333 -0.1020 -2.6677  0.1374
   7.  C 1 (px)    -0.0515 -0.0293  0.1432  1.3113 -0.5239  1.6525 -0.1012 -0.6061
   8.  C 1 (py)     0.0998 -0.5100 -0.3309 -0.3779 -0.4616  1.6157  1.1481 -0.3424
   9.  C 1 (pz)     0.0309 -0.8214  0.0064  0.9798  0.2645  0.5278 -0.2200  1.0330
  10.  C 1 (d1)     0.0150 -0.4981  0.2695  0.0735  0.7454  0.4645 -0.3173 -0.6226
  11.  C 1 (d4)     0.0169  0.0818 -0.3806 -0.0243 -0.1562  0.0892 -0.3945 -0.1425
  12.  C 1 (d6)    -0.2353 -0.3862  0.6790 -0.5217  0.2983  0.5280 -0.1840  0.4270
  13.  C 1 (d2)     0.6285 -0.0630  0.1595  0.0621  0.0111 -0.0151 -0.0118 -0.1470
  14.  C 1 (d3)     0.0855  0.1387  0.0950 -0.1225  0.0734 -0.0353  0.0144 -0.2146
  15.  C 1 (d5)    -0.0146 -0.0578  0.0159  0.0671 -0.0491  0.0100 -0.0041  0.1324
  16. Li 2 (s)     -0.0280  0.0051 -0.0766 -0.0386 -0.0506  0.1540  0.0764 -0.0214
  17. Li 2 (s)      0.1585 -0.4184 -0.3924 -0.5945 -2.8879  2.1956 -6.1833 -0.3814
  18. Li 2 (px)     0.8187 -0.1720 -0.0411 -0.5035  0.1182 -0.4337  0.0226 -0.0394
  19. Li 2 (py)     0.0372  0.1102 -0.0543 -0.1570 -0.6978  1.6636  2.0621 -0.0347
  20. Li 2 (pz)     0.1049 -0.0735 -0.0859 -0.3833 -0.0117 -0.1594  0.0506  0.0593
  21. Li 2 (s)      0.0215 -0.5345  0.9369  0.2644  0.5158 -0.5660  2.4040 -0.3343
  22. Li 2 (px)    -0.5984  0.1884  0.0338  0.1162 -0.1146  0.2894 -0.0190  0.0928
  23. Li 2 (py)    -0.2413 -0.5109 -0.2390 -0.1530  0.6790 -0.2906 -0.8405 -0.2276
  24. Li 2 (pz)     0.1419  0.3052 -0.0037  0.2768  0.0524  0.1262 -0.0390 -0.3251
  25. Li 2 (d1)    -0.1360  0.5214  0.0419  0.0982  0.9041 -0.4900  2.0387  0.3814
  26. Li 2 (d4)    -0.0388 -0.1634 -0.5814 -0.1237  1.3463  0.6091  3.1335 -0.0060
  27. Li 2 (d6)     0.2985  0.3116 -0.2216  0.1801  0.9645 -0.6917  2.0493  0.3084
  28. Li 2 (d2)     0.1296  0.0337 -0.0301 -0.2744  0.0776 -0.2214  0.0129  0.2204
  29. Li 2 (d3)    -0.0780  0.0143 -0.0058 -0.0332 -0.0245 -0.0237  0.0106 -0.0152
  30. Li 2 (d5)    -0.2125  0.2374 -0.1223 -0.1943  0.0116 -0.0821  0.0304 -0.2717
  31.  H 3 (s)      0.1943  0.5671 -0.0016 -0.7211  0.0378  0.4051  0.1431  0.4979
  32.  H 3 (s)     -0.0364  0.1410 -0.1419  0.3783  0.8017 -2.3707  0.1993  0.7379
  33.  H 4 (s)      0.0302  0.6604  0.1621  0.1220  0.5157  0.0174  0.0794 -0.3735
  34.  H 4 (s)     -0.0015  0.1759 -0.0247 -0.4680 -0.8129 -0.4160  0.2927 -0.1890
  35.  H 5 (s)      0.0335  0.3443  0.1898  0.4506  0.0030 -0.0427  0.1206  0.1203
  36.  H 5 (s)      0.0307 -0.0368  0.0512  0.8542  0.2195  0.5366 -0.1324  0.0874

           AO         33      34      35      36
      ------------ ------- ------- ------- -------
   1.  C 1 (s)      0.0158 -0.0679 -0.4450 -0.2400
   2.  C 1 (s)     -0.1443  0.5830  0.4004  2.8390
   3.  C 1 (px)     0.2227 -0.0550 -0.0625 -0.0427
   4.  C 1 (py)     0.1071 -0.1181  0.0041 -0.0299
   5.  C 1 (pz)     0.0039 -0.4214  0.0048  0.0504
   6.  C 1 (s)     -0.0198  0.0797  7.0946 -1.7598
   7.  C 1 (px)    -0.0104 -0.3554  0.2703  0.0986
   8.  C 1 (py)    -0.0263  0.3143 -0.0622  0.3692
   9.  C 1 (pz)     0.0560  0.6600 -0.0303 -0.1865
  10.  C 1 (d1)    -0.1952 -0.5319 -1.2709 -0.9343
  11.  C 1 (d4)     0.0145 -0.0840 -1.3352 -1.4998
  12.  C 1 (d6)     0.0859 -0.0130 -1.2807 -1.0181
  13.  C 1 (d2)    -0.0925 -0.0572 -0.0011  0.0018
  14.  C 1 (d3)     0.5697  0.2625 -0.0014  0.0044
  15.  C 1 (d5)    -0.5254 -0.1796  0.0027  0.0044
  16. Li 2 (s)     -0.0312  0.0114 -0.2916  0.1618
  17. Li 2 (s)     -0.1826  1.0212 -4.5795  5.2003
  18. Li 2 (px)    -0.0649  0.1435 -0.0601 -0.0127
  19. Li 2 (py)    -0.1840  0.1459 -2.0291  0.8742
  20. Li 2 (pz)    -0.2114 -0.0132  0.0033  0.0479
  21. Li 2 (s)     -0.0966  0.0463  2.0242 -2.1142
  22. Li 2 (px)     0.2244 -0.0992  0.0420  0.0058
  23. Li 2 (py)     0.1732  0.0820  1.2223 -0.2885
  24. Li 2 (pz)     0.1420  0.1397 -0.0022 -0.0440
  25. Li 2 (d1)     0.1129 -0.3747  1.0882 -1.5311
  26. Li 2 (d4)     0.2512 -0.4071  0.2056 -0.6396
  27. Li 2 (d6)     0.3131 -0.3981  1.0484 -1.5001
  28. Li 2 (d2)     0.1794  0.0777 -0.0374 -0.0068
  29. Li 2 (d3)    -0.2458 -0.0662  0.0017  0.0088
  30. Li 2 (d5)    -0.3423  0.0463  0.0056  0.0212
  31.  H 3 (s)     -0.2575  0.0852  0.0761  0.1021
  32.  H 3 (s)      0.1114  0.1552 -2.0135  0.2366
  33.  H 4 (s)      0.1681  0.7599 -0.0040  0.0517
  34.  H 4 (s)      0.1995 -1.6882 -1.5508  0.5419
  35.  H 5 (s)     -0.0058 -1.0065  0.0234  0.1268
  36.  H 5 (s)     -0.0355  1.0790 -1.6315  0.1836


 AO overlap matrix:

           AO          1       2       3       4       5       6       7       8
      ------------ ------- ------- ------- ------- ------- ------- ------- -------
   1.  C 1 (s)      1.0000  0.2191  0.0000  0.0000  0.0000  0.1843  0.0000  0.0000
   2.  C 1 (s)      0.2191  1.0000  0.0000  0.0000  0.0000  0.8123  0.0000  0.0000
   3.  C 1 (px)     0.0000  0.0000  1.0000  0.0000  0.0000  0.0000  0.5698  0.0000
   4.  C 1 (py)     0.0000  0.0000  0.0000  1.0000  0.0000  0.0000  0.0000  0.5698
   5.  C 1 (pz)     0.0000  0.0000  0.0000  0.0000  1.0000  0.0000  0.0000  0.0000
   6.  C 1 (s)      0.1843  0.8123  0.0000  0.0000  0.0000  1.0000  0.0000  0.0000
   7.  C 1 (px)     0.0000  0.0000  0.5698  0.0000  0.0000  0.0000  1.0000  0.0000
   8.  C 1 (py)     0.0000  0.0000  0.0000  0.5698  0.0000  0.0000  0.0000  1.0000
   9.  C 1 (pz)     0.0000  0.0000  0.0000  0.0000  0.5698  0.0000  0.0000  0.0000
  10.  C 1 (d1)     0.0791  0.7102  0.0000  0.0000  0.0000  0.6299  0.0000  0.0000
  11.  C 1 (d4)     0.0791  0.7102  0.0000  0.0000  0.0000  0.6299  0.0000  0.0000
  12.  C 1 (d6)     0.0791  0.7102  0.0000  0.0000  0.0000  0.6299  0.0000  0.0000
  13.  C 1 (d2)     0.0000  0.0000  0.0000  0.0000  0.0000  0.0000  0.0000  0.0000
  14.  C 1 (d3)     0.0000  0.0000  0.0000  0.0000  0.0000  0.0000  0.0000  0.0000
  15.  C 1 (d5)     0.0000  0.0000  0.0000  0.0000  0.0000  0.0000  0.0000  0.0000
  16. Li 2 (s)      0.0001  0.0067  0.0000 -0.0144  0.0000  0.0620  0.0000 -0.1637
  17. Li 2 (s)      0.0380  0.2276  0.0000 -0.1209  0.0000  0.4273  0.0000 -0.3923
  18. Li 2 (px)     0.0000  0.0000  0.1058  0.0000  0.0000  0.0000  0.3779  0.0000
  19. Li 2 (py)     0.0697  0.3786  0.0000 -0.1170  0.0000  0.5891  0.0000 -0.2371
  20. Li 2 (pz)     0.0000  0.0000  0.0000  0.0000  0.1058  0.0000  0.0000  0.0000
  21. Li 2 (s)      0.0361  0.2184  0.0000 -0.0587  0.0000  0.4333  0.0000 -0.2373
  22. Li 2 (px)     0.0000  0.0000  0.0815  0.0000  0.0000  0.0000  0.3298  0.0000
  23. Li 2 (py)     0.0515  0.2937  0.0000  0.0020  0.0000  0.5141  0.0000  0.0481
  24. Li 2 (pz)     0.0000  0.0000  0.0000  0.0000  0.0815  0.0000  0.0000  0.0000
  25. Li 2 (d1)     0.0007  0.0354  0.0000 -0.0365  0.0000  0.1667  0.0000 -0.2819
  26. Li 2 (d4)     0.0807  0.4113  0.0000 -0.2861  0.0000  0.5375  0.0000 -0.4333
  27. Li 2 (d6)     0.0007  0.0354  0.0000 -0.0365  0.0000  0.1667  0.0000 -0.2819
  28. Li 2 (d2)     0.0000  0.0000  0.1862  0.0000  0.0000  0.0000  0.4119  0.0000
  29. Li 2 (d3)     0.0000  0.0000  0.0000  0.0000  0.0000  0.0000  0.0000  0.0000
  30. Li 2 (d5)     0.0000  0.0000  0.0000  0.0000  0.1862  0.0000  0.0000  0.0000
  31.  H 3 (s)      0.0338  0.2783  0.3453  0.1437  0.0000  0.3800  0.4760  0.1981
  32.  H 3 (s)      0.0930  0.4794  0.2455  0.1022  0.0000  0.7078  0.5368  0.2234
  33.  H 4 (s)      0.0338  0.2783 -0.1726  0.1437  0.2990  0.3800 -0.2380  0.1981
  34.  H 4 (s)      0.0930  0.4794 -0.1227  0.1022  0.2126  0.7078 -0.2684  0.2234
  35.  H 5 (s)      0.0338  0.2783 -0.1726  0.1437 -0.2990  0.3800 -0.2380  0.1981
  36.  H 5 (s)      0.0930  0.4794 -0.1227  0.1022 -0.2126  0.7078 -0.2684  0.2234

           AO          9      10      11      12      13      14      15      16
      ------------ ------- ------- ------- ------- ------- ------- ------- -------
   1.  C 1 (s)      0.0000  0.0791  0.0791  0.0791  0.0000  0.0000  0.0000  0.0001
   2.  C 1 (s)      0.0000  0.7102  0.7102  0.7102  0.0000  0.0000  0.0000  0.0067
   3.  C 1 (px)     0.0000  0.0000  0.0000  0.0000  0.0000  0.0000  0.0000  0.0000
   4.  C 1 (py)     0.0000  0.0000  0.0000  0.0000  0.0000  0.0000  0.0000 -0.0144
   5.  C 1 (pz)     0.5698  0.0000  0.0000  0.0000  0.0000  0.0000  0.0000  0.0000
   6.  C 1 (s)      0.0000  0.6299  0.6299  0.6299  0.0000  0.0000  0.0000  0.0620
   7.  C 1 (px)     0.0000  0.0000  0.0000  0.0000  0.0000  0.0000  0.0000  0.0000
   8.  C 1 (py)     0.0000  0.0000  0.0000  0.0000  0.0000  0.0000  0.0000 -0.1637
   9.  C 1 (pz)     1.0000  0.0000  0.0000  0.0000  0.0000  0.0000  0.0000  0.0000
  10.  C 1 (d1)     0.0000  1.0000  0.3333  0.3333  0.0000  0.0000  0.0000  0.0014
  11.  C 1 (d4)     0.0000  0.3333  1.0000  0.3333  0.0000  0.0000  0.0000  0.0139
  12.  C 1 (d6)     0.0000  0.3333  0.3333  1.0000  0.0000  0.0000  0.0000  0.0014
  13.  C 1 (d2)     0.0000  0.0000  0.0000  0.0000  1.0000  0.0000  0.0000  0.0000
  14.  C 1 (d3)     0.0000  0.0000  0.0000  0.0000  0.0000  1.0000  0.0000  0.0000
  15.  C 1 (d5)     0.0000  0.0000  0.0000  0.0000  0.0000  0.0000  1.0000  0.0000
  16. Li 2 (s)      0.0000  0.0014  0.0139  0.0014  0.0000  0.0000  0.0000  1.0000
  17. Li 2 (s)      0.0000  0.1741  0.2038  0.1741  0.0000  0.0000  0.0000  0.1453
  18. Li 2 (px)     0.0000  0.0000  0.0000  0.0000 -0.0533  0.0000  0.0000  0.0000
  19. Li 2 (py)     0.0000  0.2981  0.3124  0.2981  0.0000  0.0000  0.0000  0.0000
  20. Li 2 (pz)     0.3779  0.0000  0.0000  0.0000  0.0000  0.0000 -0.0533  0.0000
  21. Li 2 (s)      0.0000  0.1740  0.1818  0.1740  0.0000  0.0000  0.0000  0.1857
  22. Li 2 (px)     0.0000  0.0000  0.0000  0.0000 -0.0187  0.0000  0.0000  0.0000
  23. Li 2 (py)     0.0000  0.2397  0.2288  0.2397  0.0000  0.0000  0.0000  0.0000
  24. Li 2 (pz)     0.3298  0.0000  0.0000  0.0000  0.0000  0.0000 -0.0187  0.0000
  25. Li 2 (d1)     0.0000  0.0457  0.0328  0.0152  0.0000  0.0000  0.0000  0.0996
  26. Li 2 (d4)     0.0000  0.2961  0.3869  0.2961  0.0000  0.0000  0.0000  0.0996
  27. Li 2 (d6)     0.0000  0.0152  0.0328  0.0457  0.0000  0.0000  0.0000  0.0996
  28. Li 2 (d2)     0.0000  0.0000  0.0000  0.0000 -0.1649  0.0000  0.0000  0.0000
  29. Li 2 (d3)     0.0000  0.0000  0.0000  0.0000  0.0000  0.0457  0.0000  0.0000
  30. Li 2 (d5)     0.4119  0.0000  0.0000  0.0000  0.0000  0.0000 -0.1649  0.0000
  31.  H 3 (s)      0.0000  0.4113  0.1705  0.1201  0.2099  0.0000  0.0000  0.0001
  32.  H 3 (s)      0.0000  0.4223  0.3658  0.3540  0.0493  0.0000  0.0000  0.0163
  33.  H 4 (s)      0.4122  0.1929  0.1705  0.3385 -0.1050 -0.2184  0.1818  0.0001
  34.  H 4 (s)      0.4649  0.3711  0.3658  0.4052 -0.0246 -0.0513  0.0427  0.0163
  35.  H 5 (s)     -0.4122  0.1929  0.1705  0.3385 -0.1050  0.2184 -0.1818  0.0001
  36.  H 5 (s)     -0.4649  0.3711  0.3658  0.4052 -0.0246  0.0513 -0.0427  0.0163

           AO         17      18      19      20      21      22      23      24
      ------------ ------- ------- ------- ------- ------- ------- ------- -------
   1.  C 1 (s)      0.0380  0.0000  0.0697  0.0000  0.0361  0.0000  0.0515  0.0000
   2.  C 1 (s)      0.2276  0.0000  0.3786  0.0000  0.2184  0.0000  0.2937  0.0000
   3.  C 1 (px)     0.0000  0.1058  0.0000  0.0000  0.0000  0.0815  0.0000  0.0000
   4.  C 1 (py)    -0.1209  0.0000 -0.1170  0.0000 -0.0587  0.0000  0.0020  0.0000
   5.  C 1 (pz)     0.0000  0.0000  0.0000  0.1058  0.0000  0.0000  0.0000  0.0815
   6.  C 1 (s)      0.4273  0.0000  0.5891  0.0000  0.4333  0.0000  0.5141  0.0000
   7.  C 1 (px)     0.0000  0.3779  0.0000  0.0000  0.0000  0.3298  0.0000  0.0000
   8.  C 1 (py)    -0.3923  0.0000 -0.2371  0.0000 -0.2373  0.0000  0.0481  0.0000
   9.  C 1 (pz)     0.0000  0.0000  0.0000  0.3779  0.0000  0.0000  0.0000  0.3298
  10.  C 1 (d1)     0.1741  0.0000  0.2981  0.0000  0.1740  0.0000  0.2397  0.0000
  11.  C 1 (d4)     0.2038  0.0000  0.3124  0.0000  0.1818  0.0000  0.2288  0.0000
  12.  C 1 (d6)     0.1741  0.0000  0.2981  0.0000  0.1740  0.0000  0.2397  0.0000
  13.  C 1 (d2)     0.0000 -0.0533  0.0000  0.0000  0.0000 -0.0187  0.0000  0.0000
  14.  C 1 (d3)     0.0000  0.0000  0.0000  0.0000  0.0000  0.0000  0.0000  0.0000
  15.  C 1 (d5)     0.0000  0.0000  0.0000 -0.0533  0.0000  0.0000  0.0000 -0.0187
  16. Li 2 (s)      0.1453  0.0000  0.0000  0.0000  0.1857  0.0000  0.0000  0.0000
  17. Li 2 (s)      1.0000  0.0000  0.0000  0.0000  0.9055  0.0000  0.0000  0.0000
  18. Li 2 (px)     0.0000  1.0000  0.0000  0.0000  0.0000  0.8021  0.0000  0.0000
  19. Li 2 (py)     0.0000  0.0000  1.0000  0.0000  0.0000  0.0000  0.8021  0.0000
  20. Li 2 (pz)     0.0000  0.0000  0.0000  1.0000  0.0000  0.0000  0.0000  0.8021
  21. Li 2 (s)      0.9055  0.0000  0.0000  0.0000  1.0000  0.0000  0.0000  0.0000
  22. Li 2 (px)     0.0000  0.8021  0.0000  0.0000  0.0000  1.0000  0.0000  0.0000
  23. Li 2 (py)     0.0000  0.0000  0.8021  0.0000  0.0000  0.0000  1.0000  0.0000
  24. Li 2 (pz)     0.0000  0.0000  0.0000  0.8021  0.0000  0.0000  0.0000  1.0000
  25. Li 2 (d1)     0.7243  0.0000  0.0000  0.0000  0.5965  0.0000  0.0000  0.0000
  26. Li 2 (d4)     0.7243  0.0000  0.0000  0.0000  0.5965  0.0000  0.0000  0.0000
  27. Li 2 (d6)     0.7243  0.0000  0.0000  0.0000  0.5965  0.0000  0.0000  0.0000
  28. Li 2 (d2)     0.0000  0.0000  0.0000  0.0000  0.0000  0.0000  0.0000  0.0000
  29. Li 2 (d3)     0.0000  0.0000  0.0000  0.0000  0.0000  0.0000  0.0000  0.0000
  30. Li 2 (d5)     0.0000  0.0000  0.0000  0.0000  0.0000  0.0000  0.0000  0.0000
  31.  H 3 (s)      0.0849  0.0707  0.1714  0.0000  0.1167  0.0795  0.1928  0.0000
  32.  H 3 (s)      0.2621  0.1695  0.4111  0.0000  0.3296  0.1931  0.4683  0.0000
  33.  H 4 (s)      0.0849 -0.0353  0.1714  0.0612  0.1167 -0.0397  0.1928  0.0688
  34.  H 4 (s)      0.2621 -0.0847  0.4111  0.1468  0.3296 -0.0965  0.4683  0.1672
  35.  H 5 (s)      0.0849 -0.0353  0.1714 -0.0612  0.1167 -0.0397  0.1928 -0.0688
  36.  H 5 (s)      0.2621 -0.0847  0.4111 -0.1468  0.3296 -0.0965  0.4683 -0.1672

           AO         25      26      27      28      29      30      31      32
      ------------ ------- ------- ------- ------- ------- ------- ------- -------
   1.  C 1 (s)      0.0007  0.0807  0.0007  0.0000  0.0000  0.0000  0.0338  0.0930
   2.  C 1 (s)      0.0354  0.4113  0.0354  0.0000  0.0000  0.0000  0.2783  0.4794
   3.  C 1 (px)     0.0000  0.0000  0.0000  0.1862  0.0000  0.0000  0.3453  0.2455
   4.  C 1 (py)    -0.0365 -0.2861 -0.0365  0.0000  0.0000  0.0000  0.1437  0.1022
   5.  C 1 (pz)     0.0000  0.0000  0.0000  0.0000  0.0000  0.1862  0.0000  0.0000
   6.  C 1 (s)      0.1667  0.5375  0.1667  0.0000  0.0000  0.0000  0.3800  0.7078
   7.  C 1 (px)     0.0000  0.0000  0.0000  0.4119  0.0000  0.0000  0.4760  0.5368
   8.  C 1 (py)    -0.2819 -0.4333 -0.2819  0.0000  0.0000  0.0000  0.1981  0.2234
   9.  C 1 (pz)     0.0000  0.0000  0.0000  0.0000  0.0000  0.4119  0.0000  0.0000
  10.  C 1 (d1)     0.0457  0.2961  0.0152  0.0000  0.0000  0.0000  0.4113  0.4223
  11.  C 1 (d4)     0.0328  0.3869  0.0328  0.0000  0.0000  0.0000  0.1705  0.3658
  12.  C 1 (d6)     0.0152  0.2961  0.0457  0.0000  0.0000  0.0000  0.1201  0.3540
  13.  C 1 (d2)     0.0000  0.0000  0.0000 -0.1649  0.0000  0.0000  0.2099  0.0493
  14.  C 1 (d3)     0.0000  0.0000  0.0000  0.0000  0.0457  0.0000  0.0000  0.0000
  15.  C 1 (d5)     0.0000  0.0000  0.0000  0.0000  0.0000 -0.1649  0.0000  0.0000
  16. Li 2 (s)      0.0996  0.0996  0.0996  0.0000  0.0000  0.0000  0.0001  0.0163
  17. Li 2 (s)      0.7243  0.7243  0.7243  0.0000  0.0000  0.0000  0.0849  0.2621
  18. Li 2 (px)     0.0000  0.0000  0.0000  0.0000  0.0000  0.0000  0.0707  0.1695
  19. Li 2 (py)     0.0000  0.0000  0.0000  0.0000  0.0000  0.0000  0.1714  0.4111
  20. Li 2 (pz)     0.0000  0.0000  0.0000  0.0000  0.0000  0.0000  0.0000  0.0000
  21. Li 2 (s)      0.5965  0.5965  0.5965  0.0000  0.0000  0.0000  0.1167  0.3296
  22. Li 2 (px)     0.0000  0.0000  0.0000  0.0000  0.0000  0.0000  0.0795  0.1931
  23. Li 2 (py)     0.0000  0.0000  0.0000  0.0000  0.0000  0.0000  0.1928  0.4683
  24. Li 2 (pz)     0.0000  0.0000  0.0000  0.0000  0.0000  0.0000  0.0000  0.0000
  25. Li 2 (d1)     1.0000  0.3333  0.3333  0.0000  0.0000  0.0000  0.0200  0.1071
  26. Li 2 (d4)     0.3333  1.0000  0.3333  0.0000  0.0000  0.0000  0.0969  0.2845
  27. Li 2 (d6)     0.3333  0.3333  1.0000  0.0000  0.0000  0.0000  0.0042  0.0707
  28. Li 2 (d2)     0.0000  0.0000  0.0000  1.0000  0.0000  0.0000  0.0662  0.1527
  29. Li 2 (d3)     0.0000  0.0000  0.0000  0.0000  1.0000  0.0000  0.0000  0.0000
  30. Li 2 (d5)     0.0000  0.0000  0.0000  0.0000  0.0000  1.0000  0.0000  0.0000
  31.  H 3 (s)      0.0200  0.0969  0.0042  0.0662  0.0000  0.0000  1.0000  0.6583
  32.  H 3 (s)      0.1071  0.2845  0.0707  0.1527  0.0000  0.0000  0.6583  1.0000
  33.  H 4 (s)      0.0082  0.0969  0.0160 -0.0331 -0.0118  0.0573  0.0225  0.1616
  34.  H 4 (s)      0.0798  0.2845  0.0980 -0.0763 -0.0273  0.1322  0.1616  0.4218
  35.  H 5 (s)      0.0082  0.0969  0.0160 -0.0331  0.0118 -0.0573  0.0225  0.1616
  36.  H 5 (s)      0.0798  0.2845  0.0980 -0.0763  0.0273 -0.1322  0.1616  0.4218

           AO         33      34      35      36
      ------------ ------- ------- ------- -------
   1.  C 1 (s)      0.0338  0.0930  0.0338  0.0930
   2.  C 1 (s)      0.2783  0.4794  0.2783  0.4794
   3.  C 1 (px)    -0.1726 -0.1227 -0.1726 -0.1227
   4.  C 1 (py)     0.1437  0.1022  0.1437  0.1022
   5.  C 1 (pz)     0.2990  0.2126 -0.2990 -0.2126
   6.  C 1 (s)      0.3800  0.7078  0.3800  0.7078
   7.  C 1 (px)    -0.2380 -0.2684 -0.2380 -0.2684
   8.  C 1 (py)     0.1981  0.2234  0.1981  0.2234
   9.  C 1 (pz)     0.4122  0.4649 -0.4122 -0.4649
  10.  C 1 (d1)     0.1929  0.3711  0.1929  0.3711
  11.  C 1 (d4)     0.1705  0.3658  0.1705  0.3658
  12.  C 1 (d6)     0.3385  0.4052  0.3385  0.4052
  13.  C 1 (d2)    -0.1050 -0.0246 -0.1050 -0.0246
  14.  C 1 (d3)    -0.2184 -0.0513  0.2184  0.0513
  15.  C 1 (d5)     0.1818  0.0427 -0.1818 -0.0427
  16. Li 2 (s)      0.0001  0.0163  0.0001  0.0163
  17. Li 2 (s)      0.0849  0.2621  0.0849  0.2621
  18. Li 2 (px)    -0.0353 -0.0847 -0.0353 -0.0847
  19. Li 2 (py)     0.1714  0.4111  0.1714  0.4111
  20. Li 2 (pz)     0.0612  0.1468 -0.0612 -0.1468
  21. Li 2 (s)      0.1167  0.3296  0.1167  0.3296
  22. Li 2 (px)    -0.0397 -0.0965 -0.0397 -0.0965
  23. Li 2 (py)     0.1928  0.4683  0.1928  0.4683
  24. Li 2 (pz)     0.0688  0.1672 -0.0688 -0.1672
  25. Li 2 (d1)     0.0082  0.0798  0.0082  0.0798
  26. Li 2 (d4)     0.0969  0.2845  0.0969  0.2845
  27. Li 2 (d6)     0.0160  0.0980  0.0160  0.0980
  28. Li 2 (d2)    -0.0331 -0.0763 -0.0331 -0.0763
  29. Li 2 (d3)    -0.0118 -0.0273  0.0118  0.0273
  30. Li 2 (d5)     0.0573  0.1322 -0.0573 -0.1322
  31.  H 3 (s)      0.0225  0.1616  0.0225  0.1616
  32.  H 3 (s)      0.1616  0.4218  0.1616  0.4218
  33.  H 4 (s)      1.0000  0.6583  0.0225  0.1616
  34.  H 4 (s)      0.6583  1.0000  0.1616  0.4218
  35.  H 5 (s)      0.0225  0.1616  1.0000  0.6583
  36.  H 5 (s)      0.1616  0.4218  0.6583  1.0000


 AO bond-order matrix:

           AO          1       2       3       4       5       6       7       8
      ------------ ------- ------- ------- ------- ------- ------- ------- -------
   1.  C 1 (s)      2.0597 -0.0819  0.0000  0.0130  0.0000 -0.1799  0.0000  0.0222
   2.  C 1 (s)     -0.0819  0.2493  0.0000 -0.0191  0.0000  0.2695  0.0000 -0.0400
   3.  C 1 (px)     0.0000  0.0000  0.3375  0.0000  0.0000  0.0000  0.1752  0.0000
   4.  C 1 (py)     0.0130 -0.0191  0.0000  0.4074  0.0000 -0.1040  0.0000  0.3267
   5.  C 1 (pz)     0.0000  0.0000  0.0000  0.0000  0.3375  0.0000  0.0000  0.0000
   6.  C 1 (s)     -0.1799  0.2695  0.0000 -0.1040  0.0000  0.3130  0.0000 -0.1101
   7.  C 1 (px)     0.0000  0.0000  0.1752  0.0000  0.0000  0.0000  0.0909  0.0000
   8.  C 1 (py)     0.0222 -0.0400  0.0000  0.3267  0.0000 -0.1101  0.0000  0.2646
   9.  C 1 (pz)     0.0000  0.0000  0.0000  0.0000  0.1752  0.0000  0.0000  0.0000
  10.  C 1 (d1)    -0.0078  0.0079  0.0190  0.0033  0.0000  0.0079  0.0098  0.0019
  11.  C 1 (d4)    -0.0035 -0.0006  0.0000 -0.0011  0.0000 -0.0002  0.0000 -0.0008
  12.  C 1 (d6)    -0.0078  0.0079 -0.0190  0.0033  0.0000  0.0079 -0.0098  0.0019
  13.  C 1 (d2)     0.0000  0.0000  0.0227  0.0000  0.0000  0.0000  0.0118  0.0000
  14.  C 1 (d3)     0.0000  0.0000  0.0000  0.0000 -0.0219  0.0000  0.0000  0.0000
  15.  C 1 (d5)     0.0000  0.0000  0.0000  0.0000  0.0227  0.0000  0.0000  0.0000
  16. Li 2 (s)      0.0218 -0.0448  0.0000  0.1051  0.0000 -0.0367  0.0000  0.0752
  17. Li 2 (s)     -0.0355  0.0771  0.0000 -0.2752  0.0000  0.1385  0.0000 -0.2270
  18. Li 2 (px)     0.0000  0.0000  0.0187  0.0000  0.0000  0.0000  0.0097  0.0000
  19. Li 2 (py)    -0.0356  0.0738  0.0000 -0.2309  0.0000  0.1257  0.0000 -0.1911
  20. Li 2 (pz)     0.0000  0.0000  0.0000  0.0000  0.0187  0.0000  0.0000  0.0000
  21. Li 2 (s)     -0.0091  0.0106  0.0000 -0.0361  0.0000  0.0190  0.0000 -0.0299
  22. Li 2 (px)     0.0000  0.0000  0.0108  0.0000  0.0000  0.0000  0.0056  0.0000
  23. Li 2 (py)     0.0103 -0.0232  0.0000  0.0922  0.0000 -0.0434  0.0000  0.0757
  24. Li 2 (pz)     0.0000  0.0000  0.0000  0.0000  0.0108  0.0000  0.0000  0.0000
  25. Li 2 (d1)     0.0031 -0.0077  0.0023  0.0208  0.0000 -0.0122  0.0012  0.0172
  26. Li 2 (d4)    -0.0030  0.0069  0.0000  0.0009  0.0000  0.0072  0.0000  0.0000
  27. Li 2 (d6)     0.0031 -0.0077 -0.0023  0.0208  0.0000 -0.0122 -0.0012  0.0172
  28. Li 2 (d2)     0.0000  0.0000  0.0030  0.0000  0.0000  0.0000  0.0016  0.0000
  29. Li 2 (d3)     0.0000  0.0000  0.0000  0.0000 -0.0027  0.0000  0.0000  0.0000
  30. Li 2 (d5)     0.0000  0.0000  0.0000  0.0000  0.0030  0.0000  0.0000  0.0000
  31.  H 3 (s)     -0.0510  0.0919  0.2241  0.0847  0.0000  0.0815  0.1163  0.0584
  32.  H 3 (s)     -0.0051  0.0202  0.2205  0.0927  0.0000  0.0024  0.1144  0.0719
  33.  H 4 (s)     -0.0510  0.0919 -0.1121  0.0847  0.1941  0.0815 -0.0582  0.0584
  34.  H 4 (s)     -0.0051  0.0202 -0.1102  0.0927  0.1909  0.0024 -0.0572  0.0719
  35.  H 5 (s)     -0.0510  0.0919 -0.1121  0.0847 -0.1941  0.0815 -0.0582  0.0584
  36.  H 5 (s)     -0.0051  0.0202 -0.1102  0.0927 -0.1909  0.0024 -0.0572  0.0719

           AO          9      10      11      12      13      14      15      16
      ------------ ------- ------- ------- ------- ------- ------- ------- -------
   1.  C 1 (s)      0.0000 -0.0078 -0.0035 -0.0078  0.0000  0.0000  0.0000  0.0218
   2.  C 1 (s)      0.0000  0.0079 -0.0006  0.0079  0.0000  0.0000  0.0000 -0.0448
   3.  C 1 (px)     0.0000  0.0190  0.0000 -0.0190  0.0227  0.0000  0.0000  0.0000
   4.  C 1 (py)     0.0000  0.0033 -0.0011  0.0033  0.0000  0.0000  0.0000  0.1051
   5.  C 1 (pz)     0.1752  0.0000  0.0000  0.0000  0.0000 -0.0219  0.0227  0.0000
   6.  C 1 (s)      0.0000  0.0079 -0.0002  0.0079  0.0000  0.0000  0.0000 -0.0367
   7.  C 1 (px)     0.0000  0.0098  0.0000 -0.0098  0.0118  0.0000  0.0000  0.0000
   8.  C 1 (py)     0.0000  0.0019 -0.0008  0.0019  0.0000  0.0000  0.0000  0.0752
   9.  C 1 (pz)     0.0909  0.0000  0.0000  0.0000  0.0000 -0.0114  0.0118  0.0000
  10.  C 1 (d1)     0.0000  0.0014  0.0000 -0.0008  0.0013  0.0000  0.0000 -0.0018
  11.  C 1 (d4)     0.0000  0.0000  0.0000  0.0000  0.0000  0.0000  0.0000  0.0027
  12.  C 1 (d6)     0.0000 -0.0008  0.0000  0.0014 -0.0013  0.0000  0.0000 -0.0018
  13.  C 1 (d2)     0.0000  0.0013  0.0000 -0.0013  0.0015  0.0000  0.0000  0.0000
  14.  C 1 (d3)    -0.0114  0.0000  0.0000  0.0000  0.0000  0.0014 -0.0015  0.0000
  15.  C 1 (d5)     0.0118  0.0000  0.0000  0.0000  0.0000 -0.0015  0.0015  0.0000
  16. Li 2 (s)      0.0000 -0.0018  0.0027 -0.0018  0.0000  0.0000  0.0000  2.0242
  17. Li 2 (s)      0.0000 -0.0002  0.0005 -0.0002  0.0000  0.0000  0.0000 -0.1102
  18. Li 2 (px)     0.0000  0.0011  0.0000 -0.0011  0.0013  0.0000  0.0000  0.0000
  19. Li 2 (py)     0.0000  0.0002  0.0004  0.0002  0.0000  0.0000  0.0000 -0.1134
  20. Li 2 (pz)     0.0097  0.0000  0.0000  0.0000  0.0000 -0.0012  0.0013  0.0000
  21. Li 2 (s)      0.0000  0.0000  0.0001  0.0000  0.0000  0.0000  0.0000 -0.0096
  22. Li 2 (px)     0.0000  0.0006  0.0000 -0.0006  0.0007  0.0000  0.0000  0.0000
  23. Li 2 (py)     0.0000  0.0001 -0.0002  0.0001  0.0000  0.0000  0.0000  0.0481
  24. Li 2 (pz)     0.0056  0.0000  0.0000  0.0000  0.0000 -0.0007  0.0007  0.0000
  25. Li 2 (d1)     0.0000  0.0001  0.0000 -0.0002  0.0002  0.0000  0.0000  0.0253
  26. Li 2 (d4)     0.0000  0.0002  0.0000  0.0002  0.0000  0.0000  0.0000  0.0036
  27. Li 2 (d6)     0.0000 -0.0002  0.0000  0.0001 -0.0002  0.0000  0.0000  0.0253
  28. Li 2 (d2)     0.0000  0.0002  0.0000 -0.0002  0.0002  0.0000  0.0000  0.0000
  29. Li 2 (d3)    -0.0014  0.0000  0.0000  0.0000  0.0000  0.0002 -0.0002  0.0000
  30. Li 2 (d5)     0.0016  0.0000  0.0000  0.0000  0.0000 -0.0002  0.0002  0.0000
  31.  H 3 (s)      0.0000  0.0164 -0.0004 -0.0088  0.0151  0.0000  0.0000  0.0081
  32.  H 3 (s)      0.0000  0.0139 -0.0003 -0.0108  0.0148  0.0000  0.0000  0.0203
  33.  H 4 (s)      0.1007 -0.0025 -0.0004  0.0101 -0.0075 -0.0126  0.0131  0.0081
  34.  H 4 (s)      0.0991 -0.0046 -0.0003  0.0077 -0.0074 -0.0124  0.0129  0.0203
  35.  H 5 (s)     -0.1007 -0.0025 -0.0004  0.0101 -0.0075  0.0126 -0.0131  0.0081
  36.  H 5 (s)     -0.0991 -0.0046 -0.0003  0.0077 -0.0074  0.0124 -0.0129  0.0203

           AO         17      18      19      20      21      22      23      24
      ------------ ------- ------- ------- ------- ------- ------- ------- -------
   1.  C 1 (s)     -0.0355  0.0000 -0.0356  0.0000 -0.0091  0.0000  0.0103  0.0000
   2.  C 1 (s)      0.0771  0.0000  0.0738  0.0000  0.0106  0.0000 -0.0232  0.0000
   3.  C 1 (px)     0.0000  0.0187  0.0000  0.0000  0.0000  0.0108  0.0000  0.0000
   4.  C 1 (py)    -0.2752  0.0000 -0.2309  0.0000 -0.0361  0.0000  0.0922  0.0000
   5.  C 1 (pz)     0.0000  0.0000  0.0000  0.0187  0.0000  0.0000  0.0000  0.0108
   6.  C 1 (s)      0.1385  0.0000  0.1257  0.0000  0.0190  0.0000 -0.0434  0.0000
   7.  C 1 (px)     0.0000  0.0097  0.0000  0.0000  0.0000  0.0056  0.0000  0.0000
   8.  C 1 (py)    -0.2270  0.0000 -0.1911  0.0000 -0.0299  0.0000  0.0757  0.0000
   9.  C 1 (pz)     0.0000  0.0000  0.0000  0.0097  0.0000  0.0000  0.0000  0.0056
  10.  C 1 (d1)    -0.0002  0.0011  0.0002  0.0000  0.0000  0.0006  0.0001  0.0000
  11.  C 1 (d4)     0.0005  0.0000  0.0004  0.0000  0.0001  0.0000 -0.0002  0.0000
  12.  C 1 (d6)    -0.0002 -0.0011  0.0002  0.0000  0.0000 -0.0006  0.0001  0.0000
  13.  C 1 (d2)     0.0000  0.0013  0.0000  0.0000  0.0000  0.0007  0.0000  0.0000
  14.  C 1 (d3)     0.0000  0.0000  0.0000 -0.0012  0.0000  0.0000  0.0000 -0.0007
  15.  C 1 (d5)     0.0000  0.0000  0.0000  0.0013  0.0000  0.0000  0.0000  0.0007
  16. Li 2 (s)     -0.1102  0.0000 -0.1134  0.0000 -0.0096  0.0000  0.0481  0.0000
  17. Li 2 (s)      0.2030  0.0000  0.1729  0.0000  0.0267  0.0000 -0.0675  0.0000
  18. Li 2 (px)     0.0000  0.0010  0.0000  0.0000  0.0000  0.0006  0.0000  0.0000
  19. Li 2 (py)     0.1729  0.0000  0.1478  0.0000  0.0227  0.0000 -0.0575  0.0000
  20. Li 2 (pz)     0.0000  0.0000  0.0000  0.0010  0.0000  0.0000  0.0000  0.0006
  21. Li 2 (s)      0.0267  0.0000  0.0227  0.0000  0.0035  0.0000 -0.0088  0.0000
  22. Li 2 (px)     0.0000  0.0006  0.0000  0.0000  0.0000  0.0003  0.0000  0.0000
  23. Li 2 (py)    -0.0675  0.0000 -0.0575  0.0000 -0.0088  0.0000  0.0225  0.0000
  24. Li 2 (pz)     0.0000  0.0000  0.0000  0.0006  0.0000  0.0000  0.0000  0.0003
  25. Li 2 (d1)    -0.0161  0.0001 -0.0139  0.0000 -0.0021  0.0001  0.0054  0.0000
  26. Li 2 (d4)     0.0011  0.0000  0.0011  0.0000  0.0002  0.0000 -0.0003  0.0000
  27. Li 2 (d6)    -0.0161 -0.0001 -0.0139  0.0000 -0.0021 -0.0001  0.0054  0.0000
  28. Li 2 (d2)     0.0000  0.0002  0.0000  0.0000  0.0000  0.0001  0.0000  0.0000
  29. Li 2 (d3)     0.0000  0.0000  0.0000 -0.0001  0.0000  0.0000  0.0000 -0.0001
  30. Li 2 (d5)     0.0000  0.0000  0.0000  0.0002  0.0000  0.0000  0.0000  0.0001
  31.  H 3 (s)     -0.0324  0.0125 -0.0237  0.0000 -0.0040  0.0072  0.0119  0.0000
  32.  H 3 (s)     -0.0563  0.0122 -0.0463  0.0000 -0.0073  0.0071  0.0191  0.0000
  33.  H 4 (s)     -0.0324 -0.0062 -0.0237  0.0108 -0.0040 -0.0036  0.0119  0.0062
  34.  H 4 (s)     -0.0563 -0.0061 -0.0463  0.0106 -0.0073 -0.0035  0.0191  0.0061
  35.  H 5 (s)     -0.0324 -0.0062 -0.0237 -0.0108 -0.0040 -0.0036  0.0119 -0.0062
  36.  H 5 (s)     -0.0563 -0.0061 -0.0463 -0.0106 -0.0073 -0.0035  0.0191 -0.0061

           AO         25      26      27      28      29      30      31      32
      ------------ ------- ------- ------- ------- ------- ------- ------- -------
   1.  C 1 (s)      0.0031 -0.0030  0.0031  0.0000  0.0000  0.0000 -0.0510 -0.0051
   2.  C 1 (s)     -0.0077  0.0069 -0.0077  0.0000  0.0000  0.0000  0.0919  0.0202
   3.  C 1 (px)     0.0023  0.0000 -0.0023  0.0030  0.0000  0.0000  0.2241  0.2205
   4.  C 1 (py)     0.0208  0.0009  0.0208  0.0000  0.0000  0.0000  0.0847  0.0927
   5.  C 1 (pz)     0.0000  0.0000  0.0000  0.0000 -0.0027  0.0030  0.0000  0.0000
   6.  C 1 (s)     -0.0122  0.0072 -0.0122  0.0000  0.0000  0.0000  0.0815  0.0024
   7.  C 1 (px)     0.0012  0.0000 -0.0012  0.0016  0.0000  0.0000  0.1163  0.1144
   8.  C 1 (py)     0.0172  0.0000  0.0172  0.0000  0.0000  0.0000  0.0584  0.0719
   9.  C 1 (pz)     0.0000  0.0000  0.0000  0.0000 -0.0014  0.0016  0.0000  0.0000
  10.  C 1 (d1)     0.0001  0.0002 -0.0002  0.0002  0.0000  0.0000  0.0164  0.0139
  11.  C 1 (d4)     0.0000  0.0000  0.0000  0.0000  0.0000  0.0000 -0.0004 -0.0003
  12.  C 1 (d6)    -0.0002  0.0002  0.0001 -0.0002  0.0000  0.0000 -0.0088 -0.0108
  13.  C 1 (d2)     0.0002  0.0000 -0.0002  0.0002  0.0000  0.0000  0.0151  0.0148
  14.  C 1 (d3)     0.0000  0.0000  0.0000  0.0000  0.0002 -0.0002  0.0000  0.0000
  15.  C 1 (d5)     0.0000  0.0000  0.0000  0.0000 -0.0002  0.0002  0.0000  0.0000
  16. Li 2 (s)      0.0253  0.0036  0.0253  0.0000  0.0000  0.0000  0.0081  0.0203
  17. Li 2 (s)     -0.0161  0.0011 -0.0161  0.0000  0.0000  0.0000 -0.0324 -0.0563
  18. Li 2 (px)     0.0001  0.0000 -0.0001  0.0002  0.0000  0.0000  0.0125  0.0122
  19. Li 2 (py)    -0.0139  0.0011 -0.0139  0.0000  0.0000  0.0000 -0.0237 -0.0463
  20. Li 2 (pz)     0.0000  0.0000  0.0000  0.0000 -0.0001  0.0002  0.0000  0.0000
  21. Li 2 (s)     -0.0021  0.0002 -0.0021  0.0000  0.0000  0.0000 -0.0040 -0.0073
  22. Li 2 (px)     0.0001  0.0000 -0.0001  0.0001  0.0000  0.0000  0.0072  0.0071
  23. Li 2 (py)     0.0054 -0.0003  0.0054  0.0000  0.0000  0.0000  0.0119  0.0191
  24. Li 2 (pz)     0.0000  0.0000  0.0000  0.0000 -0.0001  0.0001  0.0000  0.0000
  25. Li 2 (d1)     0.0014 -0.0001  0.0014  0.0000  0.0000  0.0000  0.0033  0.0056
  26. Li 2 (d4)    -0.0001  0.0002 -0.0001  0.0000  0.0000  0.0000  0.0029  0.0009
  27. Li 2 (d6)     0.0014 -0.0001  0.0014  0.0000  0.0000  0.0000  0.0002  0.0026
  28. Li 2 (d2)     0.0000  0.0000  0.0000  0.0000  0.0000  0.0000  0.0020  0.0020
  29. Li 2 (d3)     0.0000  0.0000  0.0000  0.0000  0.0000  0.0000  0.0000  0.0000
  30. Li 2 (d5)     0.0000  0.0000  0.0000  0.0000  0.0000  0.0000  0.0000  0.0000
  31.  H 3 (s)      0.0033  0.0029  0.0002  0.0020  0.0000  0.0000  0.2037  0.1751
  32.  H 3 (s)      0.0056  0.0009  0.0026  0.0020  0.0000  0.0000  0.1751  0.1675
  33.  H 4 (s)      0.0010  0.0029  0.0025 -0.0010 -0.0015  0.0017 -0.0196 -0.0445
  34.  H 4 (s)      0.0033  0.0009  0.0048 -0.0010 -0.0015  0.0017 -0.0445 -0.0485
  35.  H 5 (s)      0.0010  0.0029  0.0025 -0.0010  0.0015 -0.0017 -0.0196 -0.0445
  36.  H 5 (s)      0.0033  0.0009  0.0048 -0.0010  0.0015 -0.0017 -0.0445 -0.0485

           AO         33      34      35      36
      ------------ ------- ------- ------- -------
   1.  C 1 (s)     -0.0510 -0.0051 -0.0510 -0.0051
   2.  C 1 (s)      0.0919  0.0202  0.0919  0.0202
   3.  C 1 (px)    -0.1121 -0.1102 -0.1121 -0.1102
   4.  C 1 (py)     0.0847  0.0927  0.0847  0.0927
   5.  C 1 (pz)     0.1941  0.1909 -0.1941 -0.1909
   6.  C 1 (s)      0.0815  0.0024  0.0815  0.0024
   7.  C 1 (px)    -0.0582 -0.0572 -0.0582 -0.0572
   8.  C 1 (py)     0.0584  0.0719  0.0584  0.0719
   9.  C 1 (pz)     0.1007  0.0991 -0.1007 -0.0991
  10.  C 1 (d1)    -0.0025 -0.0046 -0.0025 -0.0046
  11.  C 1 (d4)    -0.0004 -0.0003 -0.0004 -0.0003
  12.  C 1 (d6)     0.0101  0.0077  0.0101  0.0077
  13.  C 1 (d2)    -0.0075 -0.0074 -0.0075 -0.0074
  14.  C 1 (d3)    -0.0126 -0.0124  0.0126  0.0124
  15.  C 1 (d5)     0.0131  0.0129 -0.0131 -0.0129
  16. Li 2 (s)      0.0081  0.0203  0.0081  0.0203
  17. Li 2 (s)     -0.0324 -0.0563 -0.0324 -0.0563
  18. Li 2 (px)    -0.0062 -0.0061 -0.0062 -0.0061
  19. Li 2 (py)    -0.0237 -0.0463 -0.0237 -0.0463
  20. Li 2 (pz)     0.0108  0.0106 -0.0108 -0.0106
  21. Li 2 (s)     -0.0040 -0.0073 -0.0040 -0.0073
  22. Li 2 (px)    -0.0036 -0.0035 -0.0036 -0.0035
  23. Li 2 (py)     0.0119  0.0191  0.0119  0.0191
  24. Li 2 (pz)     0.0062  0.0061 -0.0062 -0.0061
  25. Li 2 (d1)     0.0010  0.0033  0.0010  0.0033
  26. Li 2 (d4)     0.0029  0.0009  0.0029  0.0009
  27. Li 2 (d6)     0.0025  0.0048  0.0025  0.0048
  28. Li 2 (d2)    -0.0010 -0.0010 -0.0010 -0.0010
  29. Li 2 (d3)    -0.0015 -0.0015  0.0015  0.0015
  30. Li 2 (d5)     0.0017  0.0017 -0.0017 -0.0017
  31.  H 3 (s)     -0.0196 -0.0445 -0.0196 -0.0445
  32.  H 3 (s)     -0.0445 -0.0485 -0.0445 -0.0485
  33.  H 4 (s)      0.2037  0.1751 -0.0196 -0.0445
  34.  H 4 (s)      0.1751  0.1675 -0.0445 -0.0485
  35.  H 5 (s)     -0.0196 -0.0445  0.2037  0.1751
  36.  H 5 (s)     -0.0445 -0.0485  0.1751  0.1675


 AO density matrix:

           AO          1       2       3       4       5       6       7       8
      ------------ ------- ------- ------- ------- ------- ------- ------- -------
   1.  C 1 (s)      1.9998  0.4482  0.0000  0.0006  0.0000  0.3661  0.0000  0.0000
   2.  C 1 (s)      0.4482  1.5492  0.0000  0.0062  0.0000  1.7099  0.0000 -0.0161
   3.  C 1 (px)     0.0000  0.0000  1.2060  0.0000  0.0000  0.0000  1.3551  0.0000
   4.  C 1 (py)     0.0006  0.0062  0.0000  1.2663  0.0000 -0.0025  0.0000  1.4464
   5.  C 1 (pz)     0.0000  0.0000  0.0000  0.0000  1.2060  0.0000  0.0000  0.0000
   6.  C 1 (s)      0.3661  1.7099  0.0000 -0.0025  0.0000  1.9023  0.0000 -0.0449
[...]
       0.006 electrons remain in the fully projected matrix

 Search of NHO DM block for the following atom(s):   1
      Select eigenvectors with eigenvalue > 1.900
       2.000 0.000 0.000 0.000 0.000 0.000 0.000 0.000 0.000 0.000 0.000 0.000
       0.000 0.000 0.000
      Eigenvector ( 1) has occupancy 1.99999
            1.0000 0.0000 0.0000 0.0000 0.0000 0.0000 0.0000 0.0000
            0.0000 0.0000 0.0000 0.0000 0.0000 0.0000 0.0000
           NBO accepted:    1. Label:CR ( 1)   1
        1 eigenvector(s) stashed in permanent list

 Search of NHO DM block for the following atom(s):   2
      Select eigenvectors with eigenvalue > 1.900
       2.000 0.002 0.002 0.000 0.000 0.000 0.000 0.000 0.000 0.000 0.000 0.000
       0.000 0.000 0.000
      Eigenvector ( 1) has occupancy 1.99991
            1.0000 0.0000 0.0000 0.0000 0.0000 0.0000 0.0000 0.0000
            0.0000 0.0000 0.0000 0.0000 0.0000 0.0000 0.0000
           NBO accepted:    2. Label:CR ( 1)   2
        1 eigenvector(s) stashed in permanent list

  1-center NBOs projected from the NHO density matrix
       8.000 electrons remain (>1.900); search continues

 Search of NHO DM block for the following atom(s):   1   2
      Select eigenvectors with eigenvalue > 1.900
       1.999 0.000 0.000 0.000 0.000 0.000 0.000 0.000 0.000 0.000 0.000 0.000
       0.000 0.000 0.000 0.000 0.000 0.000 0.000 0.000 0.000 0.000 0.000 0.000
       0.000 0.000 0.000 0.000 0.000 0.000
      Eigenvector ( 1) has occupancy 1.99934
            0.0000 0.9538 0.0000 0.0000 0.0000 0.0000 0.0000 0.0000
            0.0000 0.0000 0.0000 0.0000 0.0000 0.0000 0.0000 0.0000
            0.3003 0.0000 0.0000 0.0000 0.0000 0.0000 0.0000 0.0000
            0.0000 0.0000 0.0000 0.0000 0.0000 0.0000
      Occupancy is 1.999 after deleting minor hybrid components
            0.0000 0.9538 0.0000 0.0000 0.0000 0.0000 0.0000 0.0000
            0.0000 0.0000 0.0000 0.0000 0.0000 0.0000 0.0000 0.0000
            0.3003 0.0000 0.0000 0.0000 0.0000 0.0000 0.0000 0.0000
            0.0000 0.0000 0.0000 0.0000 0.0000 0.0000
           NBO accepted:    3. Label:BD ( 1)   1   2
      Occupancy is 0.000 for antibonding component
            0.0000-0.3003 0.0000 0.0000 0.0000 0.0000 0.0000 0.0000
            0.0000 0.0000 0.0000 0.0000 0.0000 0.0000 0.0000 0.0000
            0.9538 0.0000 0.0000 0.0000 0.0000 0.0000 0.0000 0.0000
            0.0000 0.0000 0.0000 0.0000 0.0000 0.0000
           NBO accepted:    4. Label:BD*( 1)   1   2
        2 eigenvector(s) stashed in permanent list

 Search of NHO DM block for the following atom(s):   1   3
      Select eigenvectors with eigenvalue > 1.900
       1.998 0.000 0.000 0.000 0.000 0.000 0.000 0.000 0.000 0.000 0.000 0.000
       0.000 0.000 0.000 0.000 0.000
      Eigenvector ( 1) has occupancy 1.99805
            0.0000 0.0000 0.7718 0.0000 0.0000 0.0000 0.0000 0.0000
            0.0000 0.0000 0.0000 0.0000 0.0000 0.0000 0.0000 0.6358
            0.0000
      Occupancy is 1.998 after deleting minor hybrid components
            0.0000 0.0000 0.7718 0.0000 0.0000 0.0000 0.0000 0.0000
            0.0000 0.0000 0.0000 0.0000 0.0000 0.0000 0.0000 0.6358
            0.0000
           NBO accepted:    5. Label:BD ( 1)   1   3
      Occupancy is 0.000 for antibonding component
            0.0000 0.0000-0.6358 0.0000 0.0000 0.0000 0.0000 0.0000
            0.0000 0.0000 0.0000 0.0000 0.0000 0.0000 0.0000 0.7718
            0.0000
           NBO accepted:    6. Label:BD*( 1)   1   3
        2 eigenvector(s) stashed in permanent list

 Search of NHO DM block for the following atom(s):   1   4
      Select eigenvectors with eigenvalue > 1.900
       1.998 0.000 0.000 0.000 0.000 0.000 0.000 0.000 0.000 0.000 0.000 0.000
       0.000 0.000 0.000 0.000 0.000
      Eigenvector ( 1) has occupancy 1.99805
            0.0000 0.0000 0.0000 0.7718 0.0000 0.0000 0.0000 0.0000
            0.0000 0.0000 0.0000 0.0000 0.0000 0.0000 0.0000 0.6358
            0.0000
      Occupancy is 1.998 after deleting minor hybrid components
            0.0000 0.0000 0.0000 0.7718 0.0000 0.0000 0.0000 0.0000
            0.0000 0.0000 0.0000 0.0000 0.0000 0.0000 0.0000 0.6358
            0.0000
           NBO accepted:    7. Label:BD ( 1)   1   4
      Occupancy is 0.000 for antibonding component
            0.0000 0.0000 0.0000-0.6358 0.0000 0.0000 0.0000 0.0000
            0.0000 0.0000 0.0000 0.0000 0.0000 0.0000 0.0000 0.7718
            0.0000
           NBO accepted:    8. Label:BD*( 1)   1   4
        2 eigenvector(s) stashed in permanent list

 Search of NHO DM block for the following atom(s):   1   5
      Select eigenvectors with eigenvalue > 1.900
       1.998 0.000 0.000 0.000 0.000 0.000 0.000 0.000 0.000 0.000 0.000 0.000
       0.000 0.000 0.000 0.000 0.000
      Eigenvector ( 1) has occupancy 1.99805
            0.0000 0.0000 0.0000 0.0000 0.7718 0.0000 0.0000 0.0000
            0.0000 0.0000 0.0000 0.0000 0.0000 0.0000 0.0000 0.6358
            0.0000
      Occupancy is 1.998 after deleting minor hybrid components
            0.0000 0.0000 0.0000 0.0000 0.7718 0.0000 0.0000 0.0000
            0.0000 0.0000 0.0000 0.0000 0.0000 0.0000 0.0000 0.6358
            0.0000
           NBO accepted:    9. Label:BD ( 1)   1   5
      Occupancy is 0.000 for antibonding component
            0.0000 0.0000 0.0000 0.0000-0.6358 0.0000 0.0000 0.0000
            0.0000 0.0000 0.0000 0.0000 0.0000 0.0000 0.0000 0.7718
            0.0000
           NBO accepted:   10. Label:BD*( 1)   1   5
        2 eigenvector(s) stashed in permanent list

  2-center NBOs projected from the NHO density matrix
       0.006 electrons remain in the fully projected matrix

                            Occupancies       Lewis Structure    Low   High
         Max    Occ     -------------------  -----------------   occ   occ
  Cycle  Ctr   Thresh    Lewis   non-Lewis     CR  BD  nC  LP    (L)   (NL)
 ============================================================================
    3     2     1.90    11.99341   0.00659      2   4   0   0     0      0
 ----------------------------------------------------------------------------

 Structure accepted: No low occupancy Lewis orbitals

 -------------------------------------------------------
   Core                      3.99990 ( 99.998% of   4)
   Valence Lewis             7.99351 ( 99.919% of   8)
  ==================      =============================
   Total Lewis              11.99341 ( 99.945% of  12)
  -----------------------------------------------------
   Valence non-Lewis         0.00076 (  0.006% of  12)
   Rydberg non-Lewis         0.00583 (  0.049% of  12)
  ==================      =============================
   Total non-Lewis           0.00659 (  0.055% of  12)
 -------------------------------------------------------


     (Occupancy)   Bond orbital / Coefficients / Hybrids
 ------------------ Lewis ------------------------------------------------------
   1. (1.99999) CR ( 1) C  1            s(100.00%)
                                         1.0000  0.0000  0.0000  0.0000  0.0000
                                         0.0000  0.0000  0.0000  0.0000  0.0000
                                         0.0000  0.0000  0.0000  0.0000  0.0000
   2. (1.99991) CR ( 1)Li  2            s(100.00%)
                                         1.0000  0.0000  0.0000  0.0000  0.0000
                                         0.0000  0.0000  0.0000  0.0000  0.0000
                                         0.0000  0.0000  0.0000  0.0000  0.0000
   3. (1.99934) BD ( 1) C  1-Li  2
               ( 90.98%)   0.9538* C  1 s( 17.75%)p 4.63( 82.24%)d 0.00(  0.01%)
                                         0.0000  0.4174 -0.0572  0.0000  0.0000
                                         0.0000 -0.9030  0.0840  0.0000  0.0000
                                         0.0000  0.0000  0.0000 -0.0085 -0.0049
               (  9.02%)   0.3003*Li  2 s( 90.76%)p 0.08(  7.41%)d 0.02(  1.83%)
                                         0.0000  0.9527  0.0009  0.0000  0.0000
                                         0.0000  0.2707 -0.0286  0.0000  0.0000
                                         0.0000  0.0000  0.0000  0.1171  0.0676
   4. (1.99805) BD ( 1) C  1- H  3
               ( 59.57%)   0.7718* C  1 s( 27.49%)p 2.63( 72.34%)d 0.01(  0.17%)
                                         0.0000  0.5238  0.0240  0.0000  0.8143
                                         0.0441  0.2414  0.0095  0.0000  0.0000
                                         0.0281  0.0000  0.0000  0.0223 -0.0205
               ( 40.43%)   0.6358* H  3 s(100.00%)
                                         1.0000 -0.0008
   5. (1.99805) BD ( 1) C  1- H  4
               ( 59.57%)   0.7718* C  1 s( 27.49%)p 2.63( 72.34%)d 0.01(  0.17%)
                                         0.0000  0.5238  0.0240  0.0000 -0.4072
                                        -0.0220  0.2414  0.0095  0.7052  0.0382
                                        -0.0141 -0.0250  0.0243  0.0006  0.0170
               ( 40.43%)   0.6358* H  4 s(100.00%)
                                         1.0000 -0.0008
   6. (1.99805) BD ( 1) C  1- H  5
               ( 59.57%)   0.7718* C  1 s( 27.49%)p 2.63( 72.34%)d 0.01(  0.17%)
                                         0.0000  0.5238  0.0240  0.0000 -0.4072
                                        -0.0220  0.2414  0.0095 -0.7052 -0.0382
                                        -0.0141  0.0250 -0.0243  0.0006  0.0170
               ( 40.43%)   0.6358* H  5 s(100.00%)
                                         1.0000 -0.0008
 ---------------- non-Lewis ----------------------------------------------------
   7. (0.00006) BD*( 1) C  1-Li  2
               (  9.02%)   0.3003* C  1 s( 17.75%)p 4.63( 82.24%)d 0.00(  0.01%)
               ( 90.98%)  -0.9538*Li  2 s( 90.76%)p 0.08(  7.41%)d 0.02(  1.83%)
   8. (0.00023) BD*( 1) C  1- H  3
               ( 40.43%)   0.6358* C  1 s( 27.49%)p 2.63( 72.34%)d 0.01(  0.17%)
                                         0.0000 -0.5238 -0.0240  0.0000 -0.8143
                                        -0.0441 -0.2414 -0.0095  0.0000  0.0000
                                        -0.0281  0.0000  0.0000 -0.0223  0.0205
               ( 59.57%)  -0.7718* H  3 s(100.00%)
                                        -1.0000  0.0008
   9. (0.00023) BD*( 1) C  1- H  4
               ( 40.43%)   0.6358* C  1 s( 27.49%)p 2.63( 72.34%)d 0.01(  0.17%)
                                         0.0000 -0.5238 -0.0240  0.0000  0.4072
                                         0.0220 -0.2414 -0.0095 -0.7052 -0.0382
                                         0.0141  0.0250 -0.0243 -0.0006 -0.0170
               ( 59.57%)  -0.7718* H  4 s(100.00%)
                                        -1.0000  0.0008
  10. (0.00023) BD*( 1) C  1- H  5
               ( 40.43%)   0.6358* C  1 s( 27.49%)p 2.63( 72.34%)d 0.01(  0.17%)
                                         0.0000 -0.5238 -0.0240  0.0000  0.4072
                                         0.0220 -0.2414 -0.0095  0.7052  0.0382
                                         0.0141 -0.0250  0.0243 -0.0006 -0.0170
               ( 59.57%)  -0.7718* H  5 s(100.00%)
                                        -1.0000  0.0008
  11. (0.00003) RY ( 1) C  1            s( 38.98%)p 1.51( 58.85%)d 0.06(  2.17%)
  12. (0.00000) RY ( 2) C  1            s( 60.15%)p 0.66( 39.82%)d 0.00(  0.04%)
  13. (0.00000) RY ( 3) C  1            s(  5.41%)p15.71( 84.94%)d 1.78(  9.65%)
  14. (0.00000) RY ( 4) C  1            s(  1.30%)p 3.95(  5.11%)d72.27( 93.59%)
  15. (0.00000) RY ( 5) C  1            s(  0.02%)p99.99(  6.20%)d99.99( 93.78%)
  16. (0.00000) RY ( 6) C  1            s(  0.03%)p62.22(  1.92%)d99.99( 98.05%)
  17. (0.00000) RY ( 7) C  1            s(  0.02%)p62.87(  1.05%)d99.99( 98.93%)
  18. (0.00000) RY ( 8) C  1            s(  1.02%)p 7.64(  7.81%)d89.18( 91.17%)
  19. (0.00000) RY ( 9) C  1            s(  0.14%)p99.99( 88.34%)d79.58( 11.51%)
  20. (0.00000) RY (10) C  1            s( 92.72%)p 0.07(  6.70%)d 0.01(  0.58%)
  21. (0.00165) RY ( 1)Li  2            s(  0.00%)p 1.00( 95.42%)d 0.05(  4.58%)
                                         0.0000  0.0000  0.0000  0.0000  0.7955
                                         0.5669  0.0000  0.0000  0.0000  0.0000
                                        -0.1677  0.0000  0.0000  0.0665 -0.1151
  22. (0.00165) RY ( 2)Li  2            s(  0.00%)p 1.00( 95.42%)d 0.05(  4.58%)
                                         0.0000  0.0000  0.0000  0.0000  0.0000
                                         0.0000  0.0000  0.0000  0.7955  0.5669
                                         0.0000 -0.1329 -0.1677  0.0000  0.0000
  23. (0.00049) RY ( 3)Li  2            s( 68.97%)p 0.35( 23.87%)d 0.10(  7.15%)
                                         0.0000  0.1505  0.8167 -0.0020  0.0000
                                         0.0000 -0.3644  0.3255  0.0000  0.0000
                                         0.0000  0.0000  0.0000 -0.2316 -0.1337
  24. (0.00005) RY ( 4)Li  2            s( 23.54%)p 3.12( 73.35%)d 0.13(  3.11%)
  25. (0.00000) RY ( 5)Li  2            s(  0.14%)p99.99( 56.51%)d99.99( 43.34%)
  26. (0.00000) RY ( 6)Li  2            s(  0.26%)p13.16(  3.36%)d99.99( 96.39%)
  27. (0.00000) RY ( 7)Li  2            s(  0.05%)p99.99( 22.55%)d99.99( 77.40%)
  28. (0.00000) RY ( 8)Li  2            s(  6.82%)p12.78( 87.21%)d 0.87(  5.96%)
  29. (0.00000) RY ( 9)Li  2            s( 94.66%)p 0.04(  3.69%)d 0.02(  1.65%)
  30. (0.00000) RY (10)Li  2            s( 13.97%)p 0.41(  5.77%)d 5.75( 80.26%)
  31. (0.00000) RY (11)Li  2            s(  0.73%)p64.00( 46.78%)d71.81( 52.49%)
  32. (0.00000) RY (12)Li  2            s(  0.09%)p99.99( 76.50%)d99.99( 23.41%)
  33. (0.00000) RY (13)Li  2            s(  0.00%)p 1.00(  2.16%)d45.30( 97.84%)
  34. (0.00066) RY ( 1) H  3            s(100.00%)
                                         0.0008  1.0000
  35. (0.00066) RY ( 1) H  4            s(100.00%)
                                         0.0008  1.0000
  36. (0.00066) RY ( 1) H  5            s(100.00%)
                                         0.0008  1.0000


 NHO DIRECTIONALITY AND BOND BENDING (deviation from line of nuclear centers at
                                      the position of maximum hybrid amplitude)

         [Thresholds for printing:  angular deviation  >  1.0 degree]
                                    p- or d-character  > 25.0%
                                    orbital occupancy  >  0.10e

                        Line of Centers        Hybrid 1             Hybrid 2
                        ---------------  -------------------  ------------------
           NBO            Theta   Phi    Theta   Phi    Dev   Theta   Phi    Dev
 ===============================================================================
   4. BD ( 1) C  1- H  3   90.0   22.6    90.0   19.0   3.6     --     --    --
   5. BD ( 1) C  1- H  4   36.9  140.2    35.0  145.4   3.6     --     --    --
   6. BD ( 1) C  1- H  5  143.1  140.2   145.0  145.4   3.6     --     --    --


 SECOND ORDER PERTURBATION THEORY ANALYSIS OF FOCK MATRIX IN NBO BASIS

     Threshold for printing:   0.50 kcal/mol
                                                          E(2) E(NL)-E(L) F(L,NL)
      Donor (L) NBO              Acceptor (NL) NBO      kcal/mol   a.u.    a.u.
 ===============================================================================

 within unit  1
       None above threshold


 NATURAL BOND ORBITALS (Summary):

                                                     Principal Delocalizations
           NBO                 Occupancy    Energy   (geminal,vicinal,remote)
 ===============================================================================
 Molecular unit  1  (CH3Li)
 ------ Lewis --------------------------------------
    1. CR ( 1) C  1             1.99999   -11.10774
    2. CR ( 1)Li  2             1.99991    -2.42256
    3. BD ( 1) C  1-Li  2       1.99934    -0.30113
    4. BD ( 1) C  1- H  3       1.99805    -0.56810
    5. BD ( 1) C  1- H  4       1.99805    -0.56810
    6. BD ( 1) C  1- H  5       1.99805    -0.56810
 ------ non-Lewis ----------------------------------
    7. BD*( 1) C  1-Li  2       0.00006     0.20855
    8. BD*( 1) C  1- H  3       0.00023     0.80567
    9. BD*( 1) C  1- H  4       0.00023     0.80567
   10. BD*( 1) C  1- H  5       0.00023     0.80567
   11. RY ( 1) C  1             0.00003     1.23274
   12. RY ( 2) C  1             0.00000     1.71259
   13. RY ( 3) C  1             0.00000     1.22486
   14. RY ( 4) C  1             0.00000     2.23285
   15. RY ( 5) C  1             0.00000     2.29853
   16. RY ( 6) C  1             0.00000     2.29564
   17. RY ( 7) C  1             0.00000     2.08607
   18. RY ( 8) C  1             0.00000     2.35871
   19. RY ( 9) C  1             0.00000     1.09405
   20. RY (10) C  1             0.00000     3.75468
   21. RY ( 1)Li  2             0.00165     0.16707
   22. RY ( 2)Li  2             0.00165     0.16707
   23. RY ( 3)Li  2             0.00049     0.36335
   24. RY ( 4)Li  2             0.00005     0.95680
   25. RY ( 5)Li  2             0.00000     0.38698
   26. RY ( 6)Li  2             0.00000     0.65748
   27. RY ( 7)Li  2             0.00000     0.59213
   28. RY ( 8)Li  2             0.00000     0.30627
   29. RY ( 9)Li  2             0.00000     1.05752
   30. RY (10)Li  2             0.00000     0.69999
   31. RY (11)Li  2             0.00000     0.52184
   32. RY (12)Li  2             0.00000     0.41106
   33. RY (13)Li  2             0.00000     0.58427
   34. RY ( 1) H  3             0.00066     0.87999
   35. RY ( 1) H  4             0.00066     0.87999
   36. RY ( 1) H  5             0.00066     0.87999
          -------------------------------
                 Total Lewis   11.99341  ( 99.9451%)
           Valence non-Lewis    0.00076  (  0.0063%)
           Rydberg non-Lewis    0.00583  (  0.0486%)
          -------------------------------
               Total unit  1   12.00000  (100.0000%)
              Charge unit  1    0.00000

 $CHOOSE
   BOND S 1 2 S 1 3 S 1 4 S 1 5 END
 $END

 NBO analysis completed in 0.41 CPU seconds (1 wall second)
 Maximum scratch memory used by NBO was 333295 words (2.54 MB)
 Maximum scratch memory used by G16NBO was 10297 words (0.08 MB)

 Opening RunExU unformatted file "/cluster/work/users/beto93/LiCH3/Gau-3300744.EUF"
 Read unf file /cluster/work/users/beto93/LiCH3/Gau-3300744.EUF:
 Label Gaussian matrix elements                                         IVers= 2 NLab= 2 Version=ES64L-G16RevC.01
 Title NBO-a                                                           
 NAtoms=     5 NBasis=    36 NBsUse=    36 ICharg=     0 Multip=     1 NE=    12 Len12L=8 Len4L=8 IOpCl= 0 ICGU=111
 GAUSSIAN SCALARS                    NI= 1 NR= 1 NTot=       1 LenBuf=    2 NRI=1 N=    1000
 NPA CHARGES                         NI= 0 NR= 1 NTot=       5 LenBuf= 4000 NRI=1 N=       5
 Recovered energy= -47.0153141573     dipole=      0.000000384540     -2.244492461204      0.000000000000
 Unable to Open any file for archive entry.
 1\1\GINC-C1-36\SP\RHF\6-31G(d)\C1H3Li1\BETO93\24-Jul-2024\0\\#RHF/6-31
 G* Pop=NBO7Read\\NBO-a\\0,1\C,0,0.000001,0.,-0.000004\Li,0,0.,0.,2.008
 43\H,0,0.999597,0.,-0.416\H,0,-0.499797,0.865676,-0.416001\H,0,-0.4997
 97,-0.865676,-0.416001\\Version=ES64L-G16RevC.01\State=1-A'\HF=-47.015
 3142\RMSD=4.485e-09\Dipole=-0.0000007,0.,2.2444925\Quadrupole=-2.65963
 37,-2.6596338,5.3192675,0.,-0.0000045,0.\PG=CS [SG(C1H1Li1),X(H2)]\\@
 The archive entry for this job was punched.


 MOST BUREAUCRACIES FUNCTION LIKE A SEPTIC TANK.
 THE LARGE CHUNKS RISE TO THE TOP.
 Job cpu time:       0 days  0 hours  0 minutes 18.4 seconds.
 Elapsed time:       0 days  0 hours  0 minutes  6.1 seconds.
 File lengths (MBytes):  RWF=     10 Int=      0 D2E=      0 Chk=      1 Scr=      1
 Normal termination of Gaussian 16 at Wed Jul 24 12:08:05 2024.
