 Entering Gaussian System, Link 0=g16
 Initial command:
 /cluster/software/Gaussian/g16_C.01/l1.exe "/cluster/work/users/beto93/CH3BH2/Gau-1561321.inp" -scrdir="/cluster/work/users/beto93/CH3BH2/"
 Entering Link 1 = /cluster/software/Gaussian/g16_C.01/l1.exe PID=   1561324.
  
 Copyright (c) 1988-2019, Gaussian, Inc.  All Rights Reserved.
  
 This is part of the Gaussian(R) 16 program.  It is based on
 the Gaussian(R) 09 system (copyright 2009, Gaussian, Inc.),
 the Gaussian(R) 03 system (copyright 2003, Gaussian, Inc.),
 the Gaussian(R) 98 system (copyright 1998, Gaussian, Inc.),
 the Gaussian(R) 94 system (copyright 1995, Gaussian, Inc.),
 the Gaussian 92(TM) system (copyright 1992, Gaussian, Inc.),
 the Gaussian 90(TM) system (copyright 1990, Gaussian, Inc.),
 the Gaussian 88(TM) system (copyright 1988, Gaussian, Inc.),
 the Gaussian 86(TM) system (copyright 1986, Carnegie Mellon
 University), and the Gaussian 82(TM) system (copyright 1983,
 Carnegie Mellon University). Gaussian is a federally registered
 trademark of Gaussian, Inc.
  
 This software contains proprietary and confidential information,
 including trade secrets, belonging to Gaussian, Inc.
  
 This software is provided under written license and may be
 used, copied, transmitted, or stored only in accord with that
 written license.
  
 The following legend is applicable only to US Government
 contracts under FAR:
  
                    RESTRICTED RIGHTS LEGEND
  
 Use, reproduction and disclosure by the US Government is
 subject to restrictions as set forth in subparagraphs (a)
 and (c) of the Commercial Computer Software - Restricted
 Rights clause in FAR 52.227-19.
  
 Gaussian, Inc.
 340 Quinnipiac St., Bldg. 40, Wallingford CT 06492
  
  
 ---------------------------------------------------------------
 Warning -- This program may not be used in any manner that
 competes with the business of Gaussian, Inc. or will provide
 assistance to any competitor of Gaussian, Inc.  The licensee
 of this program is prohibited from giving any competitor of
 Gaussian, Inc. access to this program.  By using this program,
 the user acknowledges that Gaussian, Inc. is engaged in the
 business of creating and licensing software in the field of
 computational chemistry and represents and warrants to the
 licensee that it is not a competitor of Gaussian, Inc. and that
 it will not use this program in any manner prohibited above.
 ---------------------------------------------------------------
  

 Cite this work as:
 Gaussian 16, Revision C.01,
 M. J. Frisch, G. W. Trucks, H. B. Schlegel, G. E. Scuseria, 
 M. A. Robb, J. R. Cheeseman, G. Scalmani, V. Barone, 
 G. A. Petersson, H. Nakatsuji, X. Li, M. Caricato, A. V. Marenich, 
 J. Bloino, B. G. Janesko, R. Gomperts, B. Mennucci, H. P. Hratchian, 
 J. V. Ortiz, A. F. Izmaylov, J. L. Sonnenberg, D. Williams-Young, 
 F. Ding, F. Lipparini, F. Egidi, J. Goings, B. Peng, A. Petrone, 
 T. Henderson, D. Ranasinghe, V. G. Zakrzewski, J. Gao, N. Rega, 
 G. Zheng, W. Liang, M. Hada, M. Ehara, K. Toyota, R. Fukuda, 
 J. Hasegawa, M. Ishida, T. Nakajima, Y. Honda, O. Kitao, H. Nakai, 
 T. Vreven, K. Throssell, J. A. Montgomery, Jr., J. E. Peralta, 
 F. Ogliaro, M. J. Bearpark, J. J. Heyd, E. N. Brothers, K. N. Kudin, 
 V. N. Staroverov, T. A. Keith, R. Kobayashi, J. Normand, 
 K. Raghavachari, A. P. Rendell, J. C. Burant, S. S. Iyengar, 
 J. Tomasi, M. Cossi, J. M. Millam, M. Klene, C. Adamo, R. Cammi, 
 J. W. Ochterski, R. L. Martin, K. Morokuma, O. Farkas, 
 J. B. Foresman, and D. J. Fox, Gaussian, Inc., Wallingford CT, 2019.
 
 ******************************************
 Gaussian 16:  ES64L-G16RevC.01  3-Jul-2019
                24-Jul-2024 
 ******************************************
 %LindaWorkers=c1-1-ib
 %NProcShared=4
 Will use up to    4 processors via shared memory.
 %mem=25GB
 %chk=a.chk
 SetLPE:    new flags="-opt 'Tsnet.Node.lindarsharg: ssh'  -nodelist 'c1-1-ib.saga' -env GAUSS_MDEF=3355443200 -env GAUSS_EXEDIR="/cluster/software/Gaussian/g16_C.01/bsd:/cluster/software/Gaussian/g16_C.01""
 Will use up to    1 processors via Linda.
 ------------------------
 #RHF/6-31G* Pop=NBO7Read
 ------------------------
 1/38=1,163=2,172=1/1;
 2/12=2,17=6,18=5,40=1/2;
 3/5=1,6=6,7=1,11=1,25=1,30=1,116=1/1,2,3;
 4//1;
 5/5=2,38=5/2;
 6/7=2,8=2,9=2,10=2,28=1,40=2,113=1,114=1,124=2103/1,12;
 99/5=1,9=1/99;
 -----
 NBO-a
 -----
 Symbolic Z-matrix:
 Charge =  0 Multiplicity = 1
 C                     0.04175   0.07412   0.02952 
 H                     0.04582   0.0431    1.11275 
 H                     1.06438   0.0431   -0.32771 
 H                    -0.36794   1.04058  -0.26017 
 B                    -0.8682   -1.03155  -0.61392 
 H                    -1.80039  -1.43598  -0.04958 
 H                    -0.64686  -1.43598  -1.6809 
 
                          Input orientation:                          
 ---------------------------------------------------------------------
 Center     Atomic      Atomic             Coordinates (Angstroms)
 Number     Number       Type             X           Y           Z
 ---------------------------------------------------------------------
      1          6           0        0.041752    0.074124    0.029523
      2          1           0        0.045821    0.043096    1.112745
      3          1           0        1.064383    0.043097   -0.327710
      4          1           0       -0.367936    1.040584   -0.260172
      5          5           0       -0.868200   -1.031546   -0.613915
      6          1           0       -1.800388   -1.435979   -0.049580
      7          1           0       -0.646862   -1.435979   -1.680900
 ---------------------------------------------------------------------
                    Distance matrix (angstroms):
                    1          2          3          4          5
     1  C    0.000000
     2  H    1.083674   0.000000
     3  H    1.083675   1.764194   0.000000
     4  H    1.088950   1.746734   1.746734   0.000000
     5  B    1.569883   2.229718   2.229719   2.160815   0.000000
     6  H    2.383306   2.635745   3.236037   2.868734   1.162331
     7  H    2.383306   3.236035   2.635744   2.868734   1.162331
                    6          7
     6  H    0.000000
     7  H    1.997956   0.000000
 Stoichiometry    CH5B
 Framework group  C1[X(CH5B)]
 Deg. of freedom    15
 Full point group                 C1      NOp   1
 Largest Abelian subgroup         C1      NOp   1
 Largest concise Abelian subgroup C1      NOp   1
                         Standard orientation:                         
 ---------------------------------------------------------------------
 Center     Atomic      Atomic             Coordinates (Angstroms)
 Number     Number       Type             X           Y           Z
 ---------------------------------------------------------------------
      1          6           0        0.687742   -0.000000   -0.007229
      2          1           0        1.113617   -0.882096   -0.470788
      3          1           0        1.113618    0.882098   -0.470787
      4          1           0        1.009090   -0.000001    1.033227
      5          5           0       -0.882133    0.000000   -0.011952
      6          1           0       -1.476056   -0.998978    0.005741
      7          1           0       -1.476056    0.998978    0.005741
 ---------------------------------------------------------------------
 Rotational constants (GHZ):          99.0100654          21.3819024          19.6712063
 Standard basis: 6-31G(d) (6D, 7F)
 There are    40 symmetry adapted cartesian basis functions of A   symmetry.
 There are    40 symmetry adapted basis functions of A   symmetry.
    40 basis functions,    76 primitive gaussians,    40 cartesian basis functions
     8 alpha electrons        8 beta electrons
       nuclear repulsion energy        31.9710984572 Hartrees.
 NAtoms=    7 NActive=    7 NUniq=    7 SFac= 1.00D+00 NAtFMM=   60 NAOKFM=F Big=F
 Integral buffers will be    131072 words long.
 Raffenetti 1 integral format.
 Two-electron integral symmetry is turned on.
 One-electron integrals computed using PRISM.
 NBasis=    40 RedAO= T EigKep=  1.19D-02  NBF=    40
 NBsUse=    40 1.00D-06 EigRej= -1.00D+00 NBFU=    40
 ExpMin= 1.27D-01 ExpMax= 3.05D+03 ExpMxC= 4.57D+02 IAcc=3 IRadAn=         5 AccDes= 0.00D+00
 Harris functional with IExCor=  205 and IRadAn=       5 diagonalized for initial guess.
 HarFok:  IExCor=  205 AccDes= 0.00D+00 IRadAn=         5 IDoV= 1 UseB2=F ITyADJ=14
 ICtDFT=  3500011 ScaDFX=  1.000000  1.000000  1.000000  1.000000
 FoFCou: FMM=F IPFlag=           0 FMFlag=      100000 FMFlg1=           0
         NFxFlg=           0 DoJE=T BraDBF=F KetDBF=T FulRan=T
         wScrn=  0.000000 ICntrl=       500 IOpCl=  0 I1Cent=   200000004 NGrid=           0
         NMat0=    1 NMatS0=      1 NMatT0=    0 NMatD0=    1 NMtDS0=    0 NMtDT0=    0
 Petite list used in FoFCou.
 Keep R1 ints in memory in canonical form, NReq=1174503.
 Requested convergence on RMS density matrix=1.00D-08 within 128 cycles.
 Requested convergence on MAX density matrix=1.00D-06.
 Requested convergence on             energy=1.00D-06.
 No special actions if energy rises.
 SCF Done:  E(RHF) =  -65.4405162225     A.U. after   11 cycles
            NFock= 11  Conv=0.24D-08     -V/T= 1.9985

 **********************************************************************

            Population analysis using the SCF Density.

 **********************************************************************

 Orbital symmetries:
       Occupied  (A) (A) (A) (A) (A) (A) (A) (A)
       Virtual   (A) (A) (A) (A) (A) (A) (A) (A) (A) (A) (A) (A)
                 (A) (A) (A) (A) (A) (A) (A) (A) (A) (A) (A) (A)
                 (A) (A) (A) (A) (A) (A) (A) (A)
 The electronic state is 1-A.
 Alpha  occ. eigenvalues --  -11.19363  -7.58978  -0.94932  -0.67140  -0.57065
 Alpha  occ. eigenvalues --   -0.54890  -0.47094  -0.46567
 Alpha virt. eigenvalues --    0.11235   0.25610   0.30555   0.31089   0.35715
 Alpha virt. eigenvalues --    0.38965   0.39824   0.59343   0.62168   0.65640
 Alpha virt. eigenvalues --    0.68792   0.80274   0.91905   0.95744   1.13614
 Alpha virt. eigenvalues --    1.14973   1.20603   1.23938   1.24159   1.46570
 Alpha virt. eigenvalues --    1.50823   1.51823   1.88922   1.91663   1.99702
 Alpha virt. eigenvalues --    2.26967   2.35982   2.63587   2.69004   2.74562
 Alpha virt. eigenvalues --    3.83034   4.68991
          Condensed to atoms (all electrons):
               1          2          3          4          5          6
     1  C    5.204697   0.387437   0.387437   0.371531   0.401964  -0.033706
     2  H    0.387437   0.521735  -0.028324  -0.023362  -0.028634  -0.002510
     3  H    0.387437  -0.028324   0.521735  -0.023362  -0.028634   0.002155
     4  H    0.371531  -0.023362  -0.023362   0.519091  -0.019030   0.000688
     5  B    0.401964  -0.028634  -0.028634  -0.019030   3.558062   0.421888
     6  H   -0.033706  -0.002510   0.002155   0.000688   0.421888   0.690640
     7  H   -0.033706   0.002155  -0.002510   0.000688   0.421888  -0.027353
               7
     1  C   -0.033706
     2  H    0.002155
     3  H   -0.002510
     4  H    0.000688
     5  B    0.421888
     6  H   -0.027353
     7  H    0.690640
 Mulliken charges:
               1
     1  C   -0.685654
     2  H    0.171503
     3  H    0.171503
     4  H    0.173756
     5  B    0.272495
     6  H   -0.051801
     7  H   -0.051801
 Sum of Mulliken charges =  -0.00000
 Mulliken charges with hydrogens summed into heavy atoms:
               1
     1  C   -0.168892
     5  B    0.168892
 Electronic spatial extent (au):  <R**2>=            104.0043
 Charge=             -0.0000 electrons
 Dipole moment (field-independent basis, Debye):
    X=              0.3824    Y=             -0.0000    Z=              0.0607  Tot=              0.3872
 Quadrupole moment (field-independent basis, Debye-Ang):
   XX=            -16.4582   YY=            -15.6923   ZZ=            -13.3617
   XY=             -0.0000   XZ=              0.1265   YZ=              0.0000
 Traceless Quadrupole moment (field-independent basis, Debye-Ang):
   XX=             -1.2874   YY=             -0.5216   ZZ=              1.8091
   XY=             -0.0000   XZ=              0.1265   YZ=              0.0000
 Octapole moment (field-independent basis, Debye-Ang**2):
  XXX=              6.3724  YYY=             -0.0000  ZZZ=              0.5955  XYY=              3.1835
  XXY=              0.0000  XXZ=             -0.1233  XZZ=              0.6534  YZZ=             -0.0000
  YYZ=             -0.4775  XYZ=              0.0000
 Hexadecapole moment (field-independent basis, Debye-Ang**3):
 XXXX=           -106.7697 YYYY=            -35.9131 ZZZZ=            -19.7236 XXXY=             -0.0000
 XXXZ=              0.0342 YYYX=             -0.0000 YYYZ=              0.0000 ZZZX=              0.8584
 ZZZY=              0.0000 XXYY=            -23.7418 XXZZ=            -18.7244 YYZZ=             -9.4599
 XXYZ=              0.0000 YYXZ=             -0.6473 ZZXY=             -0.0000
 N-N= 3.197109845724D+01 E-N=-2.154416307224D+02  KE= 6.553897917656D+01
 Running external command "gaunbo7 R"
         input file       "/cluster/work/users/beto93/CH3BH2/Gau-1561324.EIn"
         output file      "/cluster/work/users/beto93/CH3BH2/Gau-1561324.EOu"
         message file     "/cluster/work/users/beto93/CH3BH2/Gau-1561324.EMs"
         fchk file        "/cluster/work/users/beto93/CH3BH2/Gau-1561324.EFC"
         mat. el file     "/cluster/work/users/beto93/CH3BH2/Gau-1561324.EUF"

 Writing WrtUnf unformatted file "/cluster/work/users/beto93/CH3BH2/Gau-1561324.EUF"
 Gaussian matrix elements                                         Version   2 NLab=11 Len12L=8 Len4L=8
 Write SHELL TO ATOM MAP                   from file      0 offset           0 length                  18 to matrix element file.
 Write SHELL TYPES                         from file      0 offset           0 length                  18 to matrix element file.
 Write NUMBER OF PRIMITIVES PER SHELL      from file      0 offset           0 length                  18 to matrix element file.
 Write PRIMITIVE EXPONENTS                 from file      0 offset           0 length                  42 to matrix element file.
 Write CONTRACTION COEFFICIENTS            from file      0 offset           0 length                  42 to matrix element file.
 Write P(S=P) CONTRACTION COEFFICIENTS     from file      0 offset           0 length                  42 to matrix element file.
 Write COORDINATES OF EACH SHELL           from file      0 offset           0 length                  54 to matrix element file.
 Write BONDS PER ATOM                      from file      0 offset           0 length                   7 to matrix element file.
 Write BONDED ATOMS                        from file      0 offset           0 length                  12 to matrix element file.
 Write BOND TYPES                          from file      0 offset           0 length                  12 to matrix element file.
 Write ONIOM CHARGE/MULT                   from file      0 offset           0 length                  32 to matrix element file.
 Write ONIOM ATOM LAYERS                   from file      0 offset           0 length                   7 to matrix element file.
 Write ONIOM ATOM MODIFIERS                from file      0 offset           0 length                   7 to matrix element file.
 Write ONIOM ATOM TYPES                    from file      0 offset           0 length                   7 to matrix element file.
 Write ONIOM LINK ATOMS                    from file      0 offset           0 length                   7 to matrix element file.
 Write ONIOM LINK CHARGES                  from file      0 offset           0 length                   7 to matrix element file.
 Write ONIOM LINK DISTANCES                from file      0 offset           0 length                  28 to matrix element file.
 Write SYMINF INTS                         from file      0 offset           0 length                  26 to matrix element file.
 Write ROTTR TO SO                         from file      0 offset           0 length                  12 to matrix element file.
 Write GAUSSIAN SCALARS                    from file    501 offset           0 to matrix element file.
 Write OPTIMIZATION FLAGS                  from file      0 offset           0 length                   7 to matrix element file.
 Write INTEGER ISO                         from file      0 offset           0 length                   7 to matrix element file.
 Write INTEGER SPIN                        from file      0 offset           0 length                   7 to matrix element file.
 Write REAL ZEFFECTIVE                     from file      0 offset           0 length                   7 to matrix element file.
 Write REAL QUADRUPOLEMOMENT               from file      0 offset           0 length                   7 to matrix element file.
 Write REAL GFACTOR                        from file      0 offset           0 length                   7 to matrix element file.
 Write REAL ZNUCLEAR                       from file      0 offset           0 length                   7 to matrix element file.
 Write MULLIKEN CHARGES                    from file      0 offset           0 length                   7 to matrix element file.
 Write NUCLEAR GRADIENT                    from file  10584 offset           0 length                  21 to matrix element file.
 Array NUCLEAR FORCE CONSTANTS              on  file  10585 does not exist.
 Write ELECTRIC DIPOLE MOMENT              from file      0 offset           0 length                   3 to matrix element file.
 Write NON-ADIABATIC COUPLING              from file  10810 offset           0 length                  21 to matrix element file.
 Write FINITE EM FIELD                     from file  10521 offset           0 length                  35 to matrix element file.
 Write OVERLAP                             from file  10514 offset           0 length                 820 to matrix element file.
 Write CORE HAMILTONIAN ALPHA              from file  10515 offset           0 length                 820 to matrix element file.
 Write CORE HAMILTONIAN BETA               from file  10515 offset         820 length                 820 to matrix element file.
 Write KINETIC ENERGY                      from file  10516 offset           0 length                 820 to matrix element file.
 Write ORTHOGONAL BASIS                    from file  10685 offset           0 length                1600 to matrix element file.
 Write DIPOLE INTEGRALS                    from file  10518 offset           0 length                2460 to matrix element file.
 Array DIP VEL INTEGRALS                    on  file  10572 does not exist.
 Array R X DEL INTEGRALS                    on  file  10572 does not exist.
 Write ALPHA ORBITAL ENERGIES              from file      0 offset           0 length                  40 to matrix element file.
 Write ALPHA MO COEFFICIENTS               from file  10524 offset           0 length                1600 to matrix element file.
 Write ALPHA DENSITY MATRIX                from file      0 offset           0 length                 820 to matrix element file.
 Write ALPHA FOCK MATRIX                   from file  10536 offset           0 length                 820 to matrix element file.
 Write ENERGY-WEIGHTED DENSITY             from file  10571 offset           0 length                 820 to matrix element file.
 Write ALPHA SCF DENSITY MATRIX            from file      0 offset           0 length                 820 to matrix element file.
 No 2e integrals to process.
 Perform NBO analysis...executing G16NBO...

 *********************************** NBO 7.0 ***********************************
             N A T U R A L   A T O M I C   O R B I T A L   A N D
          N A T U R A L   B O N D   O R B I T A L   A N A L Y S I S
 **************************** Espen Tangen (S101595) ***************************
  (c) Copyright 1996-2021 Board of Regents of the University of Wisconsin System
      on behalf of the Theoretical Chemistry Institute.  All rights reserved.

          Cite this program [NBO 7.0.10 (8-Feb-2021)] as:

          NBO 7.0.  E. D. Glendening, J. K. Badenhoop, A. E. Reed,
          J. E. Carpenter, J. A. Bohmann, C. M. Morales, P. Karafiloglou,
          C. R. Landis, and F. Weinhold, Theoretical Chemistry Institute,
          University of Wisconsin, Madison, WI (2018)

       /NPA    / : Natural Population Analysis
       /AOPNAO / : Print the AO to PNAO transformation
       /AONAO  / : Print the AO to NAO transformation
       /AONO   / : Print the NOs in the AO basis
       /AOMO   / : Print the MOs in the AO basis
       /BOAO   / : Print the AO bond-order matrix
       /DMAO   / : Print the AO density matrix
       /DMPNAO / : Print the PNAO density matrix
       /DMNAO  / : Print the NAO density matrix
       /DMMO   / : Print the MO density matrix
       /SAO    / : Print the AO overlap matrix
       /SPNAO  / : Print the PNAO overlap matrix
       /DETAIL / : Write details of NBO search
       /ARCHIVE/ : Write the archive file to lfn47
       /AOINFO / : Write AO information to lfn31
       /FILE   / : Set to inpGenNbo

 Filename set to inpGenNbo

 Job title: NBO-a


 MOs in the AO basis:

           AO          1       2       3       4       5       6       7       8
      ------------ ------- ------- ------- ------- ------- ------- ------- -------
   1.  C 1 (s)      0.9957 -0.0003 -0.1901  0.0345  0.0000  0.0028  0.0269  0.0000
   2.  C 1 (s)      0.0287  0.0003  0.3467 -0.0622  0.0000 -0.0070 -0.0515  0.0000
   3.  C 1 (px)     0.0001  0.0000  0.0109 -0.1870  0.0000 -0.0384  0.4054  0.0000
   4.  C 1 (py)     0.0000  0.0000  0.0000  0.0000  0.3741  0.0000  0.0000 -0.2153
   5.  C 1 (pz)     0.0001  0.0000  0.0093  0.0032  0.0000  0.4216  0.0424  0.0000
   6.  C 1 (s)     -0.0144 -0.0008  0.3506 -0.0790  0.0000 -0.0078 -0.0901  0.0000
   7.  C 1 (px)     0.0004 -0.0008  0.0043 -0.0929  0.0000 -0.0240  0.2435  0.0000
   8.  C 1 (py)     0.0000  0.0000  0.0000  0.0000  0.1979  0.0000  0.0000 -0.1430
   9.  C 1 (pz)    -0.0002 -0.0004  0.0025  0.0012  0.0000  0.2349  0.0316  0.0000
  10.  C 1 (d1)    -0.0019  0.0000  0.0032  0.0107  0.0000 -0.0023 -0.0163  0.0000
  11.  C 1 (d4)    -0.0019  0.0000  0.0110 -0.0091  0.0000 -0.0258  0.0102  0.0000
  12.  C 1 (d6)    -0.0020  0.0001  0.0121 -0.0068  0.0000  0.0281  0.0103  0.0000
  13.  C 1 (d2)     0.0000  0.0000  0.0000  0.0000  0.0174  0.0000  0.0000 -0.0210
  14.  C 1 (d3)     0.0000  0.0000 -0.0011  0.0008  0.0000  0.0166  0.0008  0.0000
  15.  C 1 (d5)     0.0000  0.0000  0.0000  0.0000 -0.0214  0.0000  0.0000  0.0144
  16.  H 2 (s)      0.0001  0.0001  0.1311 -0.0715 -0.1988 -0.1353  0.0701  0.1319
  17.  H 2 (s)      0.0023  0.0007  0.0372 -0.0387 -0.1560 -0.1106  0.0713  0.1234
  18.  H 3 (s)      0.0001  0.0001  0.1311 -0.0715  0.1988 -0.1353  0.0701 -0.1319
  19.  H 3 (s)      0.0023  0.0007  0.0372 -0.0387  0.1560 -0.1106  0.0713 -0.1234
  20.  H 4 (s)      0.0001  0.0001  0.1366 -0.0587  0.0000  0.2662  0.0881  0.0000
  21.  H 4 (s)      0.0024  0.0013  0.0421 -0.0319  0.0000  0.2231  0.0882  0.0000
  22.  B 5 (s)      0.0000  0.9961 -0.0709 -0.1778  0.0000  0.0039  0.0198  0.0000
  23.  B 5 (s)      0.0003  0.0242  0.1085  0.2875  0.0000 -0.0106 -0.0364  0.0000
  24.  B 5 (px)     0.0002  0.0001  0.0906 -0.0846  0.0000  0.0242 -0.3804  0.0000
  25.  B 5 (py)     0.0000  0.0000  0.0000  0.0000  0.2096  0.0000  0.0000  0.3508
  26.  B 5 (pz)     0.0000  0.0000  0.0008  0.0036  0.0000  0.0576  0.0127  0.0000
  27.  B 5 (s)      0.0032 -0.0109  0.0491  0.2145  0.0000 -0.0002 -0.0156  0.0000
  28.  B 5 (px)     0.0016  0.0001  0.0024 -0.0226  0.0000  0.0012 -0.1073  0.0000
  29.  B 5 (py)     0.0000  0.0000  0.0000  0.0000  0.0444  0.0000  0.0000  0.1329
  30.  B 5 (pz)     0.0000  0.0000  0.0003  0.0008  0.0000  0.0200  0.0052  0.0000
  31.  B 5 (d1)    -0.0004  0.0001  0.0228  0.0167  0.0000  0.0003 -0.0237  0.0000
  32.  B 5 (d4)     0.0000  0.0001  0.0005  0.0387  0.0000 -0.0053  0.0295  0.0000
  33.  B 5 (d6)    -0.0001 -0.0012 -0.0051 -0.0089  0.0000  0.0021  0.0001  0.0000
  34.  B 5 (d2)     0.0000  0.0000  0.0000  0.0000 -0.0095  0.0000  0.0000 -0.0431
  35.  B 5 (d3)     0.0000  0.0000  0.0002 -0.0005  0.0000  0.0124  0.0010  0.0000
  36.  B 5 (d5)     0.0000  0.0000  0.0000  0.0000 -0.0008  0.0000  0.0000  0.0024
  37.  H 6 (s)     -0.0001 -0.0002  0.0266  0.1778 -0.1045 -0.0121  0.1144 -0.2156
  38.  H 6 (s)     -0.0001  0.0021  0.0115  0.1438 -0.1056 -0.0188  0.1314 -0.2379
  39.  H 7 (s)     -0.0001 -0.0002  0.0266  0.1778  0.1045 -0.0121  0.1144  0.2156
  40.  H 7 (s)     -0.0001  0.0021  0.0115  0.1438  0.1056 -0.0188  0.1314  0.2379

           AO          9      10      11      12      13      14      15      16
      ------------ ------- ------- ------- ------- ------- ------- ------- -------
   1.  C 1 (s)      0.0000 -0.1531  0.0077  0.0000  0.0292  0.0285  0.0000  0.0000
   2.  C 1 (s)      0.0024  0.0598 -0.0074  0.0000 -0.0325  0.0279  0.0000  0.0000
   3.  C 1 (px)    -0.0074  0.0809  0.0047  0.0000 -0.0261  0.2572  0.0000  0.0000
   4.  C 1 (py)     0.0000  0.0000  0.0000  0.2584  0.0000  0.0000 -0.2074 -0.0612
   5.  C 1 (pz)    -0.0395  0.0232 -0.2463  0.0000  0.1942 -0.0006  0.0000  0.0000
   6.  C 1 (s)     -0.0121  2.9534 -0.0226  0.0000 -0.3158 -0.7894  0.0000  0.0000
   7.  C 1 (px)    -0.0128  0.1417  0.0205  0.0000 -0.0960  1.7869  0.0000  0.0000
   8.  C 1 (py)     0.0000  0.0000  0.0000  1.2361  0.0000  0.0000 -1.2850  0.0548
   9.  C 1 (pz)    -0.0555  0.1220 -1.2859  0.0000  0.8450 -0.0085  0.0000  0.0000
  10.  C 1 (d1)     0.0016 -0.0089  0.0015  0.0000  0.0050  0.0083  0.0000  0.0000
  11.  C 1 (d4)     0.0089 -0.0180 -0.0091  0.0000 -0.0019  0.0008  0.0000  0.0000
  12.  C 1 (d6)    -0.0103 -0.0164  0.0082  0.0000 -0.0008  0.0003  0.0000  0.0000
  13.  C 1 (d2)     0.0000  0.0000  0.0000 -0.0173  0.0000  0.0000 -0.0381 -0.0114
  14.  C 1 (d3)    -0.0266 -0.0005 -0.0007  0.0000 -0.0048  0.0010  0.0000  0.0000
  15.  C 1 (d5)     0.0000  0.0000  0.0000  0.0130  0.0000  0.0000  0.0058  0.0216
  16.  H 2 (s)      0.0466  0.0020 -0.0213  0.0697  0.0109 -0.0205  0.0731  0.1136
  17.  H 2 (s)      0.1199 -0.9990 -0.6609  1.4593  0.7657 -0.7784 -0.8994  0.1661
  18.  H 3 (s)      0.0466  0.0020 -0.0213 -0.0697  0.0109 -0.0205 -0.0731 -0.1136
  19.  H 3 (s)      0.1199 -0.9990 -0.6610 -1.4593  0.7657 -0.7784  0.8994 -0.1661
  20.  H 4 (s)     -0.0948 -0.0016  0.0407  0.0000 -0.0337 -0.0229  0.0000  0.0000
  21.  H 4 (s)     -0.2512 -1.1362  1.5921  0.0000 -0.8565 -0.6605  0.0000  0.0000
  22.  B 5 (s)      0.0015  0.0129 -0.0589  0.0000 -0.1056 -0.1008  0.0000  0.0000
  23.  B 5 (s)      0.0034  0.1280 -0.0185  0.0000  0.0847  0.1179  0.0000  0.0000
  24.  B 5 (px)     0.0115 -0.0489 -0.0818  0.0000 -0.1244 -0.0206  0.0000  0.0000
  25.  B 5 (py)     0.0000  0.0000  0.0000  0.1882  0.0000  0.0000  0.2334 -0.9477
  26.  B 5 (pz)     0.3496  0.0069 -0.0368  0.0000  0.0617 -0.0002  0.0000  0.0000
  27.  B 5 (s)     -0.0349 -0.5357  1.3832  0.0000  2.1214  2.0859  0.0000  0.0000
  28.  B 5 (px)     0.0315 -0.8330 -0.7472  0.0000 -1.0308  2.0259  0.0000  0.0000
  29.  B 5 (py)     0.0000  0.0000  0.0000  0.4872  0.0000  0.0000  2.6021  1.3965
  30.  B 5 (pz)     0.7863 -0.0033  0.3685  0.0000 -0.2071  0.0199  0.0000  0.0000
  31.  B 5 (d1)     0.0002  0.0067  0.0084  0.0000  0.0240  0.0187  0.0000  0.0000
  32.  B 5 (d4)     0.0011  0.0005 -0.0114  0.0000  0.0083  0.0481  0.0000  0.0000
  33.  B 5 (d6)    -0.0008  0.0000  0.0153  0.0000  0.0189  0.0203  0.0000  0.0000
  34.  B 5 (d2)     0.0000  0.0000  0.0000  0.0188  0.0000  0.0000  0.0131  0.0643
  35.  B 5 (d3)    -0.0024 -0.0005 -0.0067  0.0000  0.0099 -0.0003  0.0000  0.0000
  36.  B 5 (d5)     0.0000  0.0000  0.0000  0.0117  0.0000  0.0000 -0.0082  0.0035
  37.  H 6 (s)      0.0013  0.0165 -0.0303  0.0346 -0.0424  0.0508  0.0302  0.2486
  38.  H 6 (s)      0.0187 -0.1749 -0.9732  0.6528 -1.5343 -0.1038  2.0867  0.0717
  39.  H 7 (s)      0.0013  0.0165 -0.0303 -0.0346 -0.0424  0.0508 -0.0302 -0.2486
  40.  H 7 (s)      0.0187 -0.1749 -0.9732 -0.6527 -1.5343 -0.1038 -2.0867 -0.0717

           AO         17      18      19      20      21      22      23      24
      ------------ ------- ------- ------- ------- ------- ------- ------- -------
   1.  C 1 (s)      0.0308 -0.0164  0.0013  0.0018  0.0000 -0.0491  0.0000  0.0061
   2.  C 1 (s)     -0.1050  0.0074 -0.0010  0.0028  0.0000  0.3029  0.0000  0.1687
   3.  C 1 (px)    -0.0499  0.3874 -0.0939  0.1106  0.0000 -0.8521  0.0000 -0.0339
   4.  C 1 (py)     0.0000  0.0000  0.0000  0.0000 -0.8211  0.0000 -0.6360  0.0000
   5.  C 1 (pz)     0.0128  0.0885 -0.0903 -0.7155  0.0000 -0.0823  0.0000  0.8860
   6.  C 1 (s)     -0.0650 -0.0975  0.0273 -0.0023  0.0000 -0.5329  0.0000 -0.4640
   7.  C 1 (px)     1.1693 -0.4198  0.1024 -0.2964  0.0000  1.8779  0.0000  0.0596
   8.  C 1 (py)     0.0000  0.0000  0.0000  0.0000  2.4055  0.0000  0.8462  0.0000
   9.  C 1 (pz)     0.0418 -0.0427 -0.0861  1.5848  0.0000  0.2312  0.0000 -1.3303
  10.  C 1 (d1)     0.0846 -0.0511  0.0081  0.0047  0.0000 -0.0642  0.0000  0.0209
  11.  C 1 (d4)    -0.0400  0.0254 -0.0158  0.0992  0.0000  0.0379  0.0000  0.1283
  12.  C 1 (d6)    -0.0392  0.0409  0.0025 -0.0963  0.0000  0.0242  0.0000 -0.1141
  13.  C 1 (d2)     0.0000  0.0000  0.0000  0.0000 -0.0185  0.0000  0.1778  0.0000
  14.  C 1 (d3)    -0.0005 -0.0118 -0.0352 -0.0412  0.0000 -0.0011  0.0000 -0.1472
  15.  C 1 (d5)     0.0000  0.0000  0.0000  0.0000  0.1373  0.0000 -0.0895  0.0000
  16.  H 2 (s)     -0.1102  0.0752 -0.0203  0.2972  0.4259 -0.1686 -0.5043  0.3636
  17.  H 2 (s)     -0.1806 -0.2015 -0.1520  0.1139  0.4667 -0.4472  1.0938 -0.6425
  18.  H 3 (s)     -0.1102  0.0752 -0.0203  0.2972 -0.4259 -0.1686  0.5043  0.3636
  19.  H 3 (s)     -0.1806 -0.2015 -0.1519  0.1139 -0.4667 -0.4472 -1.0939 -0.6425
  20.  H 4 (s)     -0.1484  0.1067 -0.0281 -0.5190  0.0000 -0.2246  0.0000 -0.7042
  21.  H 4 (s)     -0.1557 -0.2950  0.4647 -0.1130  0.0000 -0.5646  0.0000  1.5713
  22.  B 5 (s)     -0.0330 -0.0499  0.0181 -0.0146  0.0000  0.0374  0.0000  0.0196
  23.  B 5 (s)     -0.4270 -1.3899  0.2851 -0.0363  0.0000 -0.9576  0.0000 -0.1533
  24.  B 5 (px)     0.9588 -0.2422  0.0379 -0.0229  0.0000 -0.5481  0.0000  0.1165
  25.  B 5 (py)     0.0000  0.0000  0.0000  0.0000  0.2023  0.0000 -0.5060  0.0000
  26.  B 5 (pz)     0.0202  0.2605  1.2060 -0.0491  0.0000 -0.0289  0.0000 -0.0124
  27.  B 5 (s)      1.7618  2.2735 -0.5680 -0.0089  0.0000  2.6112  0.0000  0.4211
  28.  B 5 (px)    -0.4956  0.1740  0.0107 -0.1185  0.0000  1.2829  0.0000 -0.0697
  29.  B 5 (py)     0.0000  0.0000  0.0000  0.0000 -2.2505  0.0000  1.2776  0.0000
  30.  B 5 (pz)    -0.0179 -0.1922 -1.0818 -0.4405  0.0000 -0.0084  0.0000  0.1023
  31.  B 5 (d1)    -0.0236 -0.1579  0.0339 -0.0261  0.0000  0.2153  0.0000 -0.0067
  32.  B 5 (d4)    -0.0688 -0.1076  0.0192  0.0147  0.0000 -0.1467  0.0000  0.0583
  33.  B 5 (d6)     0.0234  0.0052 -0.0037  0.0012  0.0000 -0.1129  0.0000 -0.0760
  34.  B 5 (d2)     0.0000  0.0000  0.0000  0.0000 -0.0230  0.0000 -0.3481  0.0000
  35.  B 5 (d3)     0.0033  0.0097  0.0112  0.0454  0.0000  0.0039  0.0000  0.2119
  36.  B 5 (d5)     0.0000  0.0000  0.0000  0.0000  0.0533  0.0000  0.0423  0.0000
  37.  H 6 (s)     -0.2021 -0.1712  0.0534 -0.0462 -0.0146  0.0033 -0.3844  0.1942
  38.  H 6 (s)     -0.1386 -0.3645  0.1274 -0.0463 -1.2209 -0.1971  1.1896 -0.2494
  39.  H 7 (s)     -0.2021 -0.1712  0.0534 -0.0462  0.0146  0.0033  0.3844  0.1942
  40.  H 7 (s)     -0.1386 -0.3645  0.1274 -0.0463  1.2209 -0.1971 -1.1896 -0.2494

           AO         25      26      27      28      29      30      31      32
      ------------ ------- ------- ------- ------- ------- ------- ------- -------
   1.  C 1 (s)      0.0120  0.0294  0.0000 -0.1480  0.0000 -0.0221  0.0613  0.0000
   2.  C 1 (s)     -0.0194 -1.4118 -0.0002 -1.7493  0.0000 -0.2443  0.0211  0.0000
   3.  C 1 (px)    -0.0478 -0.5450 -0.0001  0.2878  0.0000  0.0488  0.2715  0.0000
   4.  C 1 (py)     0.0000 -0.0001  0.6084  0.0000  0.0852  0.0000  0.0000 -0.1755
   5.  C 1 (pz)    -0.2452  0.0375  0.0000  0.0646  0.0000 -0.2058 -0.0058  0.0000
   6.  C 1 (s)     -0.1607  3.0359  0.0005  5.3232  0.0000  0.7664 -1.1733  0.0000
   7.  C 1 (px)     0.1163  0.7293  0.0001 -0.9317  0.0000 -0.1194  0.3529  0.0000
   8.  C 1 (py)     0.0000  0.0001 -0.6723  0.0000 -0.4250  0.0000  0.0000  0.3045
   9.  C 1 (pz)     0.4485 -0.0690  0.0000  0.0301  0.0000 -0.1963 -0.1746  0.0000
  10.  C 1 (d1)    -0.0108 -0.1798  0.0000 -0.0902  0.0000 -0.0088  0.1803  0.0000
  11.  C 1 (d4)    -0.0052 -0.0210  0.0000 -0.0613  0.0000 -0.2374 -0.0472  0.0000
  12.  C 1 (d6)     0.0376 -0.0443  0.0000 -0.1757  0.0000  0.2055 -0.1789  0.0000
  13.  C 1 (d2)     0.0000  0.0000 -0.0041  0.0000  0.0069  0.0000  0.0000 -0.5914
  14.  C 1 (d3)     0.0315 -0.0244  0.0000  0.0532  0.0000 -0.3357 -0.0104  0.0000
  15.  C 1 (d5)     0.0000  0.0000  0.1642  0.0000  0.0777  0.0000  0.0000 -0.4041
  16.  H 2 (s)      0.0056  0.5293  0.5009 -0.5322 -0.0530 -0.2303  0.1936 -0.0693
  17.  H 2 (s)      0.1844 -1.1542 -0.6935 -0.4846 -0.2162  0.0044 -0.1275  0.1290
  18.  H 3 (s)      0.0056  0.5295 -0.5007 -0.5322  0.0530 -0.2303  0.1936  0.0693
  19.  H 3 (s)      0.1844 -1.1544  0.6931 -0.4846  0.2162  0.0044 -0.1275 -0.1290
  20.  H 4 (s)      0.2577  0.4463  0.0001 -0.6503  0.0000  0.1875  0.3447  0.0000
  21.  H 4 (s)     -0.5291 -0.9561 -0.0002 -0.3714  0.0000 -0.1994 -0.0289  0.0000
  22.  B 5 (s)      0.0295 -0.0178  0.0000  0.0097  0.0000  0.0062 -0.0815  0.0000
  23.  B 5 (s)     -1.0051 -0.0510  0.0000  0.0028  0.0000  0.0274 -0.1171  0.0000
  24.  B 5 (px)     0.4837 -0.0683  0.0000 -0.3329  0.0000 -0.0299 -0.0363  0.0000
  25.  B 5 (py)     0.0000  0.0001 -0.5535  0.0000  0.0305  0.0000  0.0000 -0.3985
  26.  B 5 (pz)    -0.0246 -0.0026  0.0000 -0.0024  0.0000 -0.0891  0.0134  0.0000
  27.  B 5 (s)      2.7165 -0.1173  0.0000 -2.0254  0.0000 -0.3845  1.4071  0.0000
  28.  B 5 (px)    -0.8041  0.0958  0.0000 -1.1412  0.0000 -0.1395  0.6082  0.0000
  29.  B 5 (py)     0.0000 -0.0002  1.0604  0.0000  0.2391  0.0000  0.0000 -0.3383
  30.  B 5 (pz)    -0.0068  0.0197  0.0000 -0.0044  0.0000  0.1653  0.0487  0.0000
  31.  B 5 (d1)    -0.1320 -0.0914  0.0000 -0.0756  0.0000 -0.0222  0.6958  0.0000
  32.  B 5 (d4)     0.3241  0.0040  0.0000  0.1892  0.0000 -0.0152  0.1653  0.0000
  33.  B 5 (d6)    -0.2889  0.0862  0.0000 -0.1495  0.0000  0.0325 -1.0357  0.0000
  34.  B 5 (d2)     0.0000  0.0000 -0.2792  0.0000  0.0318  0.0000  0.0000  0.5846
  35.  B 5 (d3)    -0.0486  0.0177  0.0000 -0.0807  0.0000  0.8167  0.0731  0.0000
  36.  B 5 (d5)     0.0000  0.0000  0.0137  0.0000  0.9927  0.0000  0.0000  0.0529
  37.  H 6 (s)      0.7058 -0.0728 -0.5727  0.0037  0.0412  0.0367 -0.3677 -0.6219
  38.  H 6 (s)     -1.5737  0.1594  1.1195  0.0061  0.1057  0.0344 -0.0369  0.0831
  39.  H 7 (s)      0.7058 -0.0730  0.5727  0.0037 -0.0412  0.0367 -0.3677  0.6219
  40.  H 7 (s)     -1.5737  0.1598 -1.1195  0.0061 -0.1057  0.0344 -0.0369 -0.0831

           AO         33      34      35      36      37      38      39      40
      ------------ ------- ------- ------- ------- ------- ------- ------- -------
   1.  C 1 (s)     -0.0134  0.0067  0.0000 -0.0003  0.0000 -0.0530 -0.0372 -0.4920
   2.  C 1 (s)      0.5219 -0.0172  0.0000 -0.0103  0.0000 -0.0951  0.0169  2.9260
   3.  C 1 (px)    -0.3723  0.0316  0.0000  0.0445  0.0000 -0.3302 -0.1956  0.0857
   4.  C 1 (py)     0.0000  0.0000 -0.0636  0.0000  0.1008  0.0000  0.0000  0.0000
   5.  C 1 (pz)     0.0149 -0.0080  0.0000 -0.1476  0.0000 -0.0113 -0.0137 -0.0031
   6.  C 1 (s)     -0.4515 -0.0901  0.0000 -0.0055  0.0000  1.2616  0.3334  2.4830
   7.  C 1 (px)     0.2637  0.0254  0.0000  0.0854  0.0000 -1.0080 -0.0523 -0.0299
   8.  C 1 (py)     0.0000  0.0000 -0.7325  0.0000  0.4707  0.0000  0.0000  0.0000
   9.  C 1 (pz)    -0.2813 -0.5182  0.0000 -0.3908  0.0000 -0.0432  0.0599  0.0258
  10.  C 1 (d1)    -0.1923 -0.0007  0.0000 -0.0298  0.0000  1.1518  0.2257 -1.9715
  11.  C 1 (d4)     0.2648  0.4515  0.0000  0.8163  0.0000 -0.5679 -0.1284 -1.8879
  12.  C 1 (d6)    -0.0040 -0.4451  0.0000 -0.7909  0.0000 -0.6454 -0.1460 -1.8803
  13.  C 1 (d2)     0.0000  0.0000  0.3549  0.0000  0.8448  0.0000  0.0000  0.0000
  14.  C 1 (d3)     0.0317  0.7761  0.0000 -0.6496  0.0000 -0.0046  0.0019  0.0039
  15.  C 1 (d5)     0.0000  0.0000  0.6886  0.0000 -0.7249  0.0000  0.0000  0.0000
  16.  H 2 (s)     -0.1209 -0.0574 -0.3302 -0.4263  0.6576  0.1210  0.0017  0.1238
  17.  H 2 (s)      0.0336 -0.0761 -0.1526  0.0643 -0.0970  0.0473 -0.0593 -0.4671
  18.  H 3 (s)     -0.1209 -0.0574  0.3302 -0.4263 -0.6576  0.1210  0.0017  0.1238
  19.  H 3 (s)      0.0336 -0.0761  0.1526  0.0643  0.0970  0.0473 -0.0593 -0.4671
  20.  H 4 (s)      0.0357  0.2009  0.0000  0.7573  0.0000  0.2055  0.0126  0.1102
  21.  H 4 (s)      0.2631  0.1467  0.0000 -0.1460  0.0000  0.0247 -0.1519 -0.4660
  22.  B 5 (s)     -0.0191  0.0082  0.0000  0.0082  0.0000  0.0659 -0.4672  0.0026
  23.  B 5 (s)      0.3142 -0.0365  0.0000 -0.0206  0.0000 -0.5317  4.1927 -0.2370
  24.  B 5 (px)    -0.1209  0.0555  0.0000  0.0683  0.0000 -0.7063 -0.1266  0.1064
  25.  B 5 (py)     0.0000  0.0000 -0.2293  0.0000 -0.0143  0.0000  0.0000  0.0000
  26.  B 5 (pz)     0.0239  0.1021  0.0000 -0.0457  0.0000  0.0008 -0.0069 -0.0026
  27.  B 5 (s)     -0.0102  0.0270  0.0000  0.0428  0.0000 -1.1026  0.7269 -0.5159
  28.  B 5 (px)    -0.2625  0.0551  0.0000  0.0263  0.0000 -0.5836 -0.1437 -0.2181
  29.  B 5 (py)     0.0000  0.0000  0.6123  0.0000 -0.3744  0.0000  0.0000  0.0000
  30.  B 5 (pz)     0.0639  0.2137  0.0000  0.1004  0.0000  0.0079  0.0020  0.0054
  31.  B 5 (d1)    -0.6396  0.0731  0.0000  0.0662  0.0000 -0.6867 -2.2860  0.3290
  32.  B 5 (d4)     0.9855 -0.1821  0.0000 -0.1561  0.0000  0.4567 -2.1270  0.0216
  33.  B 5 (d6)    -0.3112  0.1347  0.0000  0.1372  0.0000  0.4217 -2.0027  0.0677
  34.  B 5 (d2)     0.0000  0.0000  0.8769  0.0000  0.4430  0.0000  0.0000  0.0000
  35.  B 5 (d3)     0.1141  0.6398  0.0000 -0.1176  0.0000  0.0043 -0.0033  0.0034
  36.  B 5 (d5)     0.0000  0.0000 -0.0887  0.0000  0.0656  0.0000  0.0000  0.0000
  37.  H 6 (s)     -0.5835  0.1184 -0.5305  0.0958 -0.2276 -0.0539  0.2184  0.0330
  38.  H 6 (s)      0.1517 -0.0293  0.5552 -0.0376 -0.1074  0.0521 -0.3333  0.0285
  39.  H 7 (s)     -0.5835  0.1184  0.5305  0.0958  0.2276 -0.0539  0.2184  0.0330
  40.  H 7 (s)      0.1517 -0.0293 -0.5552 -0.0376  0.1074  0.0521 -0.3333  0.0285


 NOs in the AO basis:

           AO          1       2       3       4       5       6       7       8
      ------------ ------- ------- ------- ------- ------- ------- ------- -------
   1.  C 1 (s)      0.9453  0.1840  0.3131 -0.0389  0.0213 -0.0301 -0.0330 -0.0011
   2.  C 1 (s)      0.0318 -0.0843 -0.1293  0.2886 -0.0868  0.0636 -0.0046  0.0888
   3.  C 1 (px)     0.0183 -0.0286 -0.0056 -0.0148 -0.2093  0.1504 -0.0042 -0.3648
   4.  C 1 (py)    -0.0119  0.0262 -0.0226  0.0765  0.1634 -0.0153 -0.3767 -0.1012
   5.  C 1 (pz)     0.0661  0.1758 -0.3185 -0.0466 -0.0138 -0.1831  0.0409 -0.0731
   6.  C 1 (s)     -0.0087 -0.0859 -0.1501  0.2870 -0.0674  0.0821 -0.0026  0.1179
   7.  C 1 (px)     0.0099 -0.0208  0.0048 -0.0098 -0.1248  0.0731 -0.0030 -0.2166
   8.  C 1 (py)    -0.0063  0.0125 -0.0117  0.0516  0.1094 -0.0091 -0.2001 -0.0674
   9.  C 1 (pz)     0.0369  0.0976 -0.1763 -0.0288 -0.0108 -0.1022  0.0227 -0.0481
  10.  C 1 (d1)    -0.0034 -0.0024  0.0026  0.0041  0.0072 -0.0073 -0.0002  0.0159
  11.  C 1 (d4)    -0.0048 -0.0141  0.0131  0.0111 -0.0093  0.0181 -0.0025 -0.0060
  12.  C 1 (d6)     0.0033  0.0086 -0.0273  0.0054 -0.0084 -0.0065  0.0027 -0.0106
  13.  C 1 (d2)    -0.0005  0.0007 -0.0009  0.0077  0.0162 -0.0011 -0.0178 -0.0099
  14.  C 1 (d3)     0.0025  0.0073 -0.0119 -0.0030  0.0004 -0.0077  0.0016 -0.0023
  15.  C 1 (d5)     0.0007 -0.0014  0.0013 -0.0052 -0.0110  0.0009  0.0217  0.0068
  16.  H 2 (s)     -0.0066 -0.1049  0.0519  0.0703 -0.1817  0.1240  0.1863  0.0248
  17.  H 2 (s)     -0.0052 -0.0680  0.0740 -0.0051 -0.1457  0.0827  0.1467  0.0083
  18.  H 3 (s)     -0.0192 -0.0787  0.0282  0.1650  0.0195  0.1066 -0.2150 -0.0994
  19.  H 3 (s)     -0.0151 -0.0492  0.0558  0.0844  0.0437  0.0677 -0.1694 -0.1082
  20.  H 4 (s)      0.0486  0.0771 -0.2607  0.0720 -0.0818 -0.0661  0.0247 -0.0871
  21.  H 4 (s)      0.0412  0.0827 -0.1861  0.0019 -0.0527 -0.0722  0.0212 -0.0935
  22.  B 5 (s)     -0.2346  0.8584  0.2987  0.3018 -0.1267  0.1833  0.0638 -0.0591
  23.  B 5 (s)     -0.0293 -0.0615  0.0798  0.1186 -0.0192 -0.2514 -0.0058  0.0883
  24.  B 5 (px)     0.0015  0.0364 -0.1118  0.0829  0.1628  0.0986  0.0062  0.3220
  25.  B 5 (py)    -0.0071  0.0360 -0.0175 -0.1374 -0.2801  0.0068 -0.1988  0.1685
  26.  B 5 (pz)     0.0089  0.0229 -0.0416 -0.0068 -0.0052 -0.0285  0.0055 -0.0155
  27.  B 5 (s)     -0.0106 -0.0575  0.0560  0.0503 -0.0058 -0.1925 -0.0051  0.0509
  28.  B 5 (px)     0.0007  0.0147 -0.0187  0.0053  0.0532  0.0290  0.0014  0.0881
  29.  B 5 (py)    -0.0016  0.0103 -0.0043 -0.0515 -0.1056  0.0034 -0.0406  0.0637
  30.  B 5 (pz)     0.0031  0.0079 -0.0145 -0.0024 -0.0022 -0.0095  0.0019 -0.0061
  31.  B 5 (d1)    -0.0020 -0.0069 -0.0039  0.0208  0.0047 -0.0132 -0.0003  0.0258
  32.  B 5 (d4)    -0.0030 -0.0118  0.0203  0.0022 -0.0151 -0.0352 -0.0015 -0.0191
  33.  B 5 (d6)     0.0012  0.0029 -0.0035 -0.0055  0.0018  0.0071  0.0004 -0.0023
  34.  B 5 (d2)     0.0003 -0.0029  0.0011  0.0166  0.0341 -0.0012  0.0083 -0.0206
  35.  B 5 (d3)     0.0020  0.0053 -0.0096 -0.0014 -0.0003 -0.0048  0.0012 -0.0020
  36.  B 5 (d5)     0.0000  0.0000  0.0000 -0.0009 -0.0019  0.0001  0.0008  0.0012
  37.  H 6 (s)     -0.0088 -0.0743  0.0828  0.1132  0.1059 -0.1699  0.0923 -0.1704
  38.  H 6 (s)     -0.0075 -0.0681  0.0834  0.1082  0.1192 -0.1385  0.0929 -0.2020
  39.  H 7 (s)     -0.0160 -0.0347  0.0645 -0.0549 -0.2376 -0.1604 -0.1038  0.0366
  40.  H 7 (s)     -0.0148 -0.0262  0.0645 -0.0770 -0.2595 -0.1276 -0.1042  0.0263

           AO          9      10      11      12      13      14      15      16
      ------------ ------- ------- ------- ------- ------- ------- ------- -------
   1.  C 1 (s)     -0.0036  0.0469 -0.0143  0.0624  0.0177  0.0102 -0.0960  0.0495
   2.  C 1 (s)      0.0086 -0.1430  0.1536  0.2744 -0.1329  0.0348  0.7698 -0.2144
   3.  C 1 (px)    -0.2424  0.0752  0.2129 -0.0862  0.1106 -0.0983  0.3504  0.1349
   4.  C 1 (py)     0.1976 -0.1344 -0.1247  0.2419 -0.0876 -0.0112  0.0181  0.0857
   5.  C 1 (pz)    -0.5393  0.1070 -0.0382  0.0174 -0.0231 -0.0168  0.2357 -0.7936
   6.  C 1 (s)     -0.1443 -0.7269  0.0737 -1.8130 -0.1434  0.0804  0.2117 -0.0855
   7.  C 1 (px)    -0.3019  1.1551  0.1022  1.5738 -0.0113  0.2778 -1.5665  0.1203
   8.  C 1 (py)    -0.0894  0.6841 -0.1830 -1.5917  0.3848  0.3976 -0.5080 -0.3555
   9.  C 1 (pz)     0.1254 -0.6514 -0.1271 -0.1232  0.0286  0.0553 -1.6820  0.5057
  10.  C 1 (d1)    -0.2763 -0.0236 -0.5169 -0.1073  0.1738  0.1637 -0.2914  0.3862
  11.  C 1 (d4)    -0.2369  0.0025 -0.1841  0.1376  0.2015  0.0528 -0.2242  0.2206
  12.  C 1 (d6)    -0.1226 -0.0354  0.0362  0.0708  0.0888 -0.0095 -0.6245  0.0058
  13.  C 1 (d2)    -0.1051 -0.0481  0.1538  0.0450 -0.2998 -0.0060  0.0202 -0.0292
  14.  C 1 (d3)     0.0233  0.0079  0.0543 -0.0047 -0.1690 -0.0018 -0.0377 -0.0596
  15.  C 1 (d5)     0.0797 -0.0259 -0.0269  0.1052 -0.1490 -0.0350  0.0464 -0.0775
  16.  H 2 (s)      0.0997  0.3349 -0.0287 -0.0154  0.0084  0.1036 -0.1258 -0.4048
  17.  H 2 (s)      0.1937 -0.8807 -0.0358 -0.9108  0.0837  0.0285 -0.2572  0.1498
  18.  H 3 (s)      0.1196  0.3228  0.0332  0.2423 -0.1982 -0.0096 -0.0532 -0.0065
  19.  H 3 (s)      0.1551 -1.1009  0.1133  0.0961 -0.2359 -0.2587  0.3005  0.1128
  20.  H 4 (s)      0.3563  0.0050  0.0545  0.1299 -0.0852  0.1349 -0.1215  0.3820
  21.  H 4 (s)      0.1260  0.3778 -0.1555 -0.2288  0.1352 -0.3171  2.3758 -0.3671
  22.  B 5 (s)      0.0043 -0.0070 -0.0482 -0.1072 -0.0243  0.0429  0.0807 -0.0077
  23.  B 5 (s)     -0.4225 -0.7962  0.2076 -0.4140  0.0470 -2.0250 -0.2114  0.3379
  24.  B 5 (px)    -0.0396  0.0095 -0.0874  0.2205 -0.1541  0.2786  0.2491  0.1242
  25.  B 5 (py)    -0.0879  0.5130 -0.1342 -0.3422  0.2679 -0.0164  0.0301  0.2298
  26.  B 5 (pz)    -0.1464  0.0448 -0.0225  0.0005 -0.8047 -0.0119  0.0332 -0.1240
  27.  B 5 (s)      0.3127  2.4565  0.3960  3.7882  0.0869  3.4406 -1.5482 -0.3376
  28.  B 5 (px)     0.1361  1.2389  0.0679  0.9507  0.1081 -1.3259 -1.5649 -0.1971
  29.  B 5 (py)    -0.2295 -1.9235  0.4191  3.0531 -0.1356 -0.8247  0.6933  0.1021
  30.  B 5 (pz)     0.4085  0.0310  0.3976  0.0441  0.2863  0.0558  0.2301  0.3561
  31.  B 5 (d1)    -0.1360  0.5460  0.2042  0.1721 -0.0135  0.1365  0.1288  0.0493
  32.  B 5 (d4)    -0.5474 -0.0914 -0.0128 -0.2837 -0.1908  0.7815  0.3638  0.4716
  33.  B 5 (d6)     0.0526 -0.0408  0.6060 -0.4906  0.1387  0.2526  0.2501 -0.1476
  34.  B 5 (d2)     0.0513  0.0177  0.2119 -0.0016  0.1308 -0.0445  0.0124 -0.1330
  35.  B 5 (d3)     0.0703  0.0283  0.2059  0.0104 -0.2385 -0.0079  0.1696 -0.0508
  36.  B 5 (d5)    -0.0093 -0.0059  0.0058  0.0160 -0.2851 -0.0016  0.0078  0.0064
  37.  H 6 (s)      0.0452  0.4312  0.1323 -0.3232 -0.0125  0.2160  0.0068 -0.1335
  38.  H 6 (s)     -0.0038 -1.6973 -0.5583  1.6068  0.1038 -2.4833  0.3510  0.1574
  39.  H 7 (s)      0.1751  0.3752 -0.0521  0.3398 -0.2457 -0.4248  0.2389 -0.2020
  40.  H 7 (s)      0.3886  0.4372 -0.6097 -3.0508  0.0512 -0.5213 -0.9322 -0.2128

           AO         17      18      19      20      21      22      23      24
      ------------ ------- ------- ------- ------- ------- ------- ------- -------
   1.  C 1 (s)      0.0266  0.0023 -0.0079  0.0256 -0.0566 -0.0090  0.0192  0.0091
   2.  C 1 (s)     -0.0776  0.0543  0.5314  0.0207  0.8920 -0.2344 -0.0918  0.0133
   3.  C 1 (px)    -0.4355 -0.1519 -0.1274  0.0131  0.0419  0.2529 -0.1262 -0.1498
   4.  C 1 (py)    -0.0593  0.3988  0.2029  0.5745  0.5457  0.0132 -0.2334  0.2613
   5.  C 1 (pz)    -0.0037 -0.2264  0.1909  0.0056 -0.0889  0.0439 -0.2228  0.1231
   6.  C 1 (s)     -0.5598  0.0417 -0.2235 -0.5883 -0.9782  0.3771 -0.2145 -0.2001
   7.  C 1 (px)     0.4599  0.1477  0.3953  0.2100  0.0752  0.7583  0.1990  0.2489
   8.  C 1 (py)    -0.3089 -0.2278 -0.7667 -0.0505 -1.3938  0.3934  0.6125 -0.0827
   9.  C 1 (pz)    -0.0259  0.1210 -0.7929 -0.0070  0.2020 -0.1894  0.1946 -0.0982
  10.  C 1 (d1)     0.1489 -0.1810  0.1017 -0.0714 -0.0804 -0.5405 -0.0483  0.1588
  11.  C 1 (d4)     0.0087  0.0709 -0.3176  0.7324 -0.2465 -0.1356  0.3345 -0.0270
  12.  C 1 (d6)    -0.4587  0.0904 -0.2805 -0.2275 -0.3748  0.2307 -0.1314 -0.0427
  13.  C 1 (d2)     0.0412  0.0750 -0.0462 -0.1322  0.1107  0.1450  0.4013 -0.0190
  14.  C 1 (d3)    -0.0987  0.6500  0.0461 -0.2300 -0.0580  0.0051 -0.0643 -0.1962
  15.  C 1 (d5)    -0.3120  0.0666  0.0586  0.0977 -0.1052 -0.0865  0.3322 -0.2451
  16.  H 2 (s)     -0.3106  0.0513  0.4684  0.0228  0.5331 -0.0572  0.2751 -0.1030
  17.  H 2 (s)      0.2734  0.0033 -1.2253  0.2342 -1.3666 -0.2146 -0.1368  0.0911
  18.  H 3 (s)      0.0392 -0.0719  0.7038 -0.1887 -0.8209 -0.4104 -0.2267 -0.0120
  19.  H 3 (s)      0.2776 -0.1415 -0.7059 -0.3168  2.1484 -0.3617 -0.1530 -0.0695
  20.  H 4 (s)      0.0977  0.1503  0.1743 -0.2189  0.2416 -0.4131 -0.0845 -0.1475
  21.  H 4 (s)      0.3122  0.0635  0.6005  0.2867 -0.2919  0.2219  0.2763  0.2228
  22.  B 5 (s)      0.0051 -0.0056 -0.0440 -0.0040 -0.0064 -0.1092 -0.0130 -0.0155
  23.  B 5 (s)      0.0313  0.2131  0.6903  0.0449 -0.0054  0.5578  0.1523  0.0536
  24.  B 5 (px)    -0.1418 -0.0724 -0.0115 -0.0906 -0.0232  0.6045 -0.1859 -0.0949
  25.  B 5 (py)    -0.3657  0.1193 -0.1651 -0.0385  0.2314  0.2461 -0.3400 -0.0172
  26.  B 5 (pz)    -0.1132  0.0807  0.0460  0.2921 -0.0370  0.0434 -0.2792 -0.1782
  27.  B 5 (s)      0.3943  0.0043 -1.0288  0.2134  0.3890  0.4804  0.1693  0.1731
  28.  B 5 (px)     0.3603 -0.1550  0.8622  0.2753  0.3326  0.4181  0.2975  0.0317
  29.  B 5 (py)     0.0541 -0.0070  0.5531 -0.1793 -0.4229 -0.6253  0.0729 -0.1344
  30.  B 5 (pz)    -0.1579 -0.5375  0.0311 -0.0882  0.0312 -0.0503  0.0333 -0.0412
  31.  B 5 (d1)    -0.1223 -0.0019 -0.4085 -0.0036 -0.0488 -0.4388 -0.0793 -0.1434
  32.  B 5 (d4)     0.1912  0.0628 -0.0464  0.1078 -0.0748 -0.0161  0.1165 -0.2174
  33.  B 5 (d6)    -0.0992  0.1011 -0.0273  0.0806  0.0243 -0.3849 -0.0859  0.4275
  34.  B 5 (d2)     0.4377  0.0355 -0.0143  0.1865  0.0834  0.0351 -0.2654 -0.7207
  35.  B 5 (d3)    -0.1008  0.1531  0.0124  0.0654  0.0012 -0.0398 -0.3078  0.0678
  36.  B 5 (d5)     0.0249  0.0156  0.0100 -0.0193  0.0425  0.0054 -0.0348  0.0517
  37.  H 6 (s)     -0.0885 -0.0506 -0.0314 -0.1900  0.1755 -0.1981 -0.0103 -0.0923
  38.  H 6 (s)     -0.3780 -0.1155  0.9012 -0.0929 -0.4413  0.1065 -0.1288  0.0276
  39.  H 7 (s)      0.1683 -0.0370 -0.6252  0.0067 -0.0183 -0.2521 -0.0390 -0.1236
  40.  H 7 (s)      0.1829 -0.2176  1.2008  0.1040  0.3523  0.6781  0.0315  0.0033

           AO         25      26      27      28      29      30      31      32
      ------------ ------- ------- ------- ------- ------- ------- ------- -------
   1.  C 1 (s)     -0.0449  0.0466  0.0159 -0.0173 -0.0233 -0.1068  0.1347 -0.0068
   2.  C 1 (s)      0.2404 -0.2745 -0.0692 -0.0572  0.1466  0.5072 -0.9801  0.0514
   3.  C 1 (px)    -0.4703 -0.0241 -0.2268 -0.0324 -0.5787  0.4125 -0.0093 -0.0192
   4.  C 1 (py)    -0.0063 -0.5277 -0.0551  0.0816 -0.0072  0.1403  0.1822  0.0414
   5.  C 1 (pz)     0.2434 -0.3197 -0.0147  0.2070  0.0723 -0.2364  0.1055  0.0159
   6.  C 1 (s)      0.1921 -0.2669  0.0721  0.0801  0.9072  0.8188  0.0885  0.0260
   7.  C 1 (px)     0.4951 -0.0453  0.2235 -0.5556  0.4352 -1.2738 -0.5691 -0.0035
   8.  C 1 (py)     0.0191  0.7666 -0.0114  0.3563  0.0342 -0.6514  0.7102 -0.1309
   9.  C 1 (pz)    -0.0210  0.2861 -0.0846 -0.5292  0.0816  1.6406  0.0026 -0.0024
  10.  C 1 (d1)     0.1454  0.2025  0.0340  0.1459 -0.6901 -0.3300  0.8198 -0.0564
  11.  C 1 (d4)    -0.3878  0.4244 -0.1932 -0.3462 -0.0655 -0.8883  0.1179 -0.0384
  12.  C 1 (d6)    -0.1060 -0.1976 -0.0891 -0.1338  0.0639 -0.2854  0.0154 -0.0202
  13.  C 1 (d2)    -0.0708 -0.1196 -0.3974  0.0253 -0.0866 -0.0084  0.1968  0.1362
  14.  C 1 (d3)     0.5552  0.1855 -0.2248  0.0084 -0.1932  0.0223  0.0351  0.1002
  15.  C 1 (d5)     0.1019 -0.4283  0.2995 -0.0851 -0.2246  0.0306 -0.1895 -0.0245
  16.  H 2 (s)      0.2284  0.2674 -0.1421  0.2069  0.5781  0.3353  0.5578  0.0166
  17.  H 2 (s)     -0.1689 -0.0550 -0.0190  0.2029 -0.5880  0.2373  0.8244 -0.0216
  18.  H 3 (s)      0.1487 -0.1640  0.0502 -0.0827  0.1842  0.5791 -0.2054  0.0568
  19.  H 3 (s)      0.0060 -0.0126  0.1415 -0.1454 -0.0290  0.7113 -0.1757  0.0507
  20.  H 4 (s)     -0.8043  0.0298  0.2615  0.1559  0.1670 -0.5568  0.3983 -0.0184
  21.  H 4 (s)      0.3741  0.1416  0.1109  0.2323 -0.2793 -0.3240 -0.2286 -0.0422
  22.  B 5 (s)     -0.0009 -0.0443 -0.0239 -0.1020 -0.0050 -0.0195  0.0838  0.0096
  23.  B 5 (s)      0.2809  0.1725  0.2936  0.2313  0.5947 -0.2982 -0.6010 -0.0463
  24.  B 5 (px)    -0.0586 -0.1020  0.0017 -0.9039  0.2448 -0.0505  0.1227  0.0481
  25.  B 5 (py)     0.1940  0.1711  0.0991  0.1756  0.1567  0.0483  0.0149 -0.0840
  26.  B 5 (pz)    -0.1101  0.4988  0.5816 -0.0004 -0.1910  0.0426 -0.0770  0.1636
  27.  B 5 (s)      0.0329  0.1545  0.0127  0.1825 -0.2227 -0.3379 -0.5883 -0.0140
  28.  B 5 (px)    -0.1834  0.1687 -0.2075  0.3398 -0.6449 -0.7234 -0.2735 -0.0086
  29.  B 5 (py)    -0.1426 -0.1687 -0.0823 -0.2529 -0.2381  0.4459  0.4961  0.0410
  30.  B 5 (pz)     0.5018 -0.4691 -0.4448  0.2255  0.0777 -0.6499  0.1462 -0.0399
  31.  B 5 (d1)    -0.1770 -0.2257 -0.0457 -0.1799 -0.1629  0.0257 -0.1589 -0.0027
  32.  B 5 (d4)    -0.0434 -0.2591 -0.0467  0.3059  0.2752  0.1586  0.3774  0.0617
  33.  B 5 (d6)    -0.0335 -0.0328  0.1578 -0.7089 -0.2195  0.0299  0.5675 -0.0447
  34.  B 5 (d2)    -0.0223 -0.2139 -0.1409 -0.1719 -0.0342  0.0560 -0.1254 -0.0467
  35.  B 5 (d3)     0.0489  0.2434 -0.5798  0.1238  0.0336 -0.3051  0.0099  0.1684
  36.  B 5 (d5)     0.0069  0.0365 -0.1456 -0.0006  0.0222  0.0071 -0.0024 -0.9445
  37.  H 6 (s)     -0.0051  0.0468 -0.0454 -0.4616 -0.1422 -0.0080  0.2582 -0.0003
  38.  H 6 (s)     -0.0277  0.1654 -0.1048 -0.0076 -0.1042 -0.0417  0.4759 -0.0208
  39.  H 7 (s)     -0.1179 -0.2894 -0.1459 -0.6540  0.1073  0.1116  0.3009  0.0910
  40.  H 7 (s)     -0.0250  0.1601 -0.1505  0.1405 -0.3587 -0.7425 -0.6770  0.0042

           AO         33      34      35      36      37      38      39      40
      ------------ ------- ------- ------- ------- ------- ------- ------- -------
   1.  C 1 (s)      0.0400  0.0095 -0.0030  0.0243 -0.0506  0.2180 -0.4228  0.1135
   2.  C 1 (s)     -0.0723 -0.1091 -0.0861 -0.4297  0.1693 -3.2088  0.4642  0.1841
   3.  C 1 (px)    -0.1479 -0.0810 -0.3137  0.4458 -0.0281 -0.0178 -0.0592  0.0740
   4.  C 1 (py)    -0.1647 -0.1156  0.1427  0.1534  0.1712  0.2361  0.0306  0.0138
   5.  C 1 (pz)     0.0873 -0.2238 -0.2151  0.0731  0.0272  0.0804 -0.0593  0.0330
   6.  C 1 (s)     -0.2757  0.0843  0.1115  0.6459  0.1906  2.6546  6.1356 -2.2143
   7.  C 1 (px)    -0.0584  0.2683  0.2724  0.0574 -0.0040 -0.6223  0.1019  0.4211
   8.  C 1 (py)    -0.4212  0.0615  0.2733  0.3195 -0.5331 -1.3415 -0.1325 -0.3091
   9.  C 1 (pz)     0.0763  0.2396  0.0510 -0.0335  0.0926 -0.2023 -0.0189  0.0263
  10.  C 1 (d1)     0.1592  0.1766  0.2537 -0.3813 -0.3815  1.1265 -1.1171 -0.2706
  11.  C 1 (d4)     0.2583 -0.2888 -0.2313  0.0168 -0.0059  1.0376 -1.0909  0.2909
  12.  C 1 (d6)    -0.3422 -0.0393  0.4239 -0.2169 -0.2193  1.0962 -1.4270  0.3947
  13.  C 1 (d2)     0.4279 -0.3260  0.5548  0.1217 -0.1091 -0.0507  0.0308 -0.0374
  14.  C 1 (d3)    -0.1201 -0.1752 -0.3222  0.0291 -0.0505  0.0230 -0.0473  0.0201
  15.  C 1 (d5)     0.3587  0.5090 -0.2435 -0.1519  0.0759  0.1155 -0.0021  0.0380
  16.  H 2 (s)     -0.2339 -0.1420  0.3058  0.3636 -0.3206 -0.1526 -0.1866 -0.0151
  17.  H 2 (s)      0.1103  0.0023 -0.0595 -0.0118  0.2412 -1.3457 -1.3270  0.2446
  18.  H 3 (s)      0.3141  0.0893 -0.3140 -0.1529  0.0656 -0.0604 -0.1995  0.1060
  19.  H 3 (s)      0.4308  0.0718 -0.4984 -0.1277  0.1246  0.4206 -1.3094  0.5243
  20.  H 4 (s)      0.3912  0.0095 -0.3315  0.1272 -0.0038 -0.3800  0.0799 -0.0754
  21.  H 4 (s)     -0.3245 -0.0297  0.5171 -0.1230 -0.1292  0.1077 -1.3800  0.4356
  22.  B 5 (s)     -0.0454 -0.0089  0.0367 -0.0700 -0.0854  0.0329  0.1375  0.4106
  23.  B 5 (s)      0.2374  0.1283  0.0228  0.4983  0.9278 -0.0900 -1.3270 -3.4734
  24.  B 5 (px)     0.0287  0.0764 -0.1951  0.5815  0.1162 -0.3212 -0.3196  0.1637
  25.  B 5 (py)     0.6684 -0.0954  0.1847 -0.1593  0.4278 -0.0005 -0.0095  0.1582
  26.  B 5 (pz)    -0.0818 -0.1103  0.2710 -0.0498 -0.0509  0.0099 -0.0024  0.0061
  27.  B 5 (s)      0.0801  0.0156 -0.1937 -0.2905  0.3050 -1.2522 -1.6610 -0.6831
  28.  B 5 (px)    -0.1542  0.0304 -0.0618 -0.3674 -0.0490 -0.7275 -0.4097  1.0122
  29.  B 5 (py)    -0.3029  0.0099  0.1561 -0.3915  0.7195  0.6293  0.4376  0.3098
  30.  B 5 (pz)     0.0089 -0.2292 -0.3812  0.0538  0.0204  0.0056  0.0457 -0.0509
  31.  B 5 (d1)    -0.2442  0.0095  0.0618  0.8816 -0.3297 -0.2053  0.5292  2.1319
  32.  B 5 (d4)    -0.2437  0.0988 -0.1143 -0.4700 -0.5724  0.1212  0.4950  1.7779
  33.  B 5 (d6)     0.0253 -0.0494  0.0422 -0.4104 -0.5832  0.1261  0.6404  1.5957
  34.  B 5 (d2)     0.2883 -0.0457  0.2064 -0.0021 -0.5756  0.0458 -0.0139 -0.1497
  35.  B 5 (d3)     0.0432  0.5914 -0.0374 -0.0039 -0.0171  0.0062  0.0169 -0.0121
  36.  B 5 (d5)    -0.0111 -0.0250 -0.0004  0.0007  0.0105  0.0194  0.0012  0.0076
  37.  H 6 (s)     -0.1548  0.0183  0.1398 -0.1013  1.2470  0.0382 -0.0436 -0.1345
  38.  H 6 (s)      0.1980 -0.0725  0.1384 -0.3444 -0.4044  0.3010  0.7142  1.0081
  39.  H 7 (s)     -0.2281 -0.0626 -0.1367 -0.1940 -0.4856 -0.0356  0.0284 -0.5351
  40.  H 7 (s)      0.0819  0.0575  0.0004  0.5344 -0.3118 -0.2471 -0.0218  0.7427


 AO overlap matrix:

           AO          1       2       3       4       5       6       7       8
      ------------ ------- ------- ------- ------- ------- ------- ------- -------
   1.  C 1 (s)      1.0000  0.2191  0.0000  0.0000  0.0000  0.1843  0.0000  0.0000
   2.  C 1 (s)      0.2191  1.0000  0.0000  0.0000  0.0000  0.8123  0.0000  0.0000
   3.  C 1 (px)     0.0000  0.0000  1.0000  0.0000  0.0000  0.0000  0.5698  0.0000
   4.  C 1 (py)     0.0000  0.0000  0.0000  1.0000  0.0000  0.0000  0.0000  0.5698
   5.  C 1 (pz)     0.0000  0.0000  0.0000  0.0000  1.0000  0.0000  0.0000  0.0000
   6.  C 1 (s)      0.1843  0.8123  0.0000  0.0000  0.0000  1.0000  0.0000  0.0000
   7.  C 1 (px)     0.0000  0.0000  0.5698  0.0000  0.0000  0.0000  1.0000  0.0000
   8.  C 1 (py)     0.0000  0.0000  0.0000  0.5698  0.0000  0.0000  0.0000  1.0000
   9.  C 1 (pz)     0.0000  0.0000  0.0000  0.0000  0.5698  0.0000  0.0000  0.0000
  10.  C 1 (d1)     0.0791  0.7102  0.0000  0.0000  0.0000  0.6299  0.0000  0.0000
  11.  C 1 (d4)     0.0791  0.7102  0.0000  0.0000  0.0000  0.6299  0.0000  0.0000
  12.  C 1 (d6)     0.0791  0.7102  0.0000  0.0000  0.0000  0.6299  0.0000  0.0000
  13.  C 1 (d2)     0.0000  0.0000  0.0000  0.0000  0.0000  0.0000  0.0000  0.0000
  14.  C 1 (d3)     0.0000  0.0000  0.0000  0.0000  0.0000  0.0000  0.0000  0.0000
  15.  C 1 (d5)     0.0000  0.0000  0.0000  0.0000  0.0000  0.0000  0.0000  0.0000
  16.  H 2 (s)      0.0337  0.2777  0.1467 -0.3039 -0.1597  0.3796  0.2026 -0.4196
  17.  H 2 (s)      0.0929  0.4790  0.1045 -0.2164 -0.1137  0.7074  0.2286 -0.4734
  18.  H 3 (s)      0.0337  0.2777  0.1467  0.3039 -0.1597  0.3796  0.2026  0.4196
  19.  H 3 (s)      0.0929  0.4790  0.1045  0.2164 -0.1137  0.7074  0.2286  0.4734
  20.  H 4 (s)      0.0329  0.2743  0.1092  0.0000  0.3535  0.3775  0.1520  0.0000
  21.  H 4 (s)      0.0923  0.4766  0.0784  0.0000  0.2539  0.7050  0.1719  0.0000
  22.  B 5 (s)      0.0000  0.0097 -0.0233  0.0000 -0.0001  0.0591 -0.1365  0.0000
  23.  B 5 (s)      0.0184  0.1707 -0.2201  0.0000 -0.0007  0.3448 -0.5581  0.0000
  24.  B 5 (px)     0.0402  0.2672 -0.2966  0.0000 -0.0012  0.3148 -0.2821  0.0000
  25.  B 5 (py)     0.0000  0.0000  0.0000  0.0934  0.0000  0.0000  0.0000  0.2583
  26.  B 5 (pz)     0.0001  0.0008 -0.0012  0.0000  0.0934  0.0009 -0.0016  0.0000
  27.  B 5 (s)      0.0509  0.2963 -0.1926  0.0000 -0.0006  0.5209 -0.5446  0.0000
  28.  B 5 (px)     0.1046  0.5008 -0.1531  0.0000 -0.0010  0.6283 -0.1412  0.0000
  29.  B 5 (py)     0.0000  0.0000  0.0000  0.1824  0.0000  0.0000  0.0000  0.5156
  30.  B 5 (pz)     0.0003  0.0015 -0.0010  0.0000  0.1824  0.0019 -0.0020  0.0000
  31.  B 5 (d1)     0.0379  0.2912 -0.3653  0.0000 -0.0016  0.3518 -0.4414  0.0000
  32.  B 5 (d4)     0.0006  0.0554 -0.0863  0.0000 -0.0003  0.2130 -0.4052  0.0000
  33.  B 5 (d6)     0.0006  0.0554 -0.0863  0.0000  0.0002  0.2130 -0.4052  0.0000
  34.  B 5 (d2)     0.0000  0.0000  0.0000  0.1457  0.0000  0.0000  0.0000  0.1973
  35.  B 5 (d3)     0.0002  0.0012 -0.0019  0.0000  0.1457  0.0007 -0.0008  0.0000
  36.  B 5 (d5)     0.0000  0.0000  0.0000  0.0004  0.0000  0.0000  0.0000  0.0006
  37.  H 6 (s)      0.0000  0.0024 -0.0051 -0.0024  0.0000  0.0427 -0.1151 -0.0532
  38.  H 6 (s)      0.0076  0.0667 -0.0690 -0.0319  0.0004  0.1877 -0.3081 -0.1423
  39.  H 7 (s)      0.0000  0.0024 -0.0051  0.0024  0.0000  0.0427 -0.1151  0.0532
  40.  H 7 (s)      0.0076  0.0667 -0.0690  0.0319  0.0004  0.1877 -0.3081  0.1423

           AO          9      10      11      12      13      14      15      16
      ------------ ------- ------- ------- ------- ------- ------- ------- -------
   1.  C 1 (s)      0.0000  0.0791  0.0791  0.0791  0.0000  0.0000  0.0000  0.0337
   2.  C 1 (s)      0.0000  0.7102  0.7102  0.7102  0.0000  0.0000  0.0000  0.2777
   3.  C 1 (px)     0.0000  0.0000  0.0000  0.0000  0.0000  0.0000  0.0000  0.1467
   4.  C 1 (py)     0.0000  0.0000  0.0000  0.0000  0.0000  0.0000  0.0000 -0.3039
   5.  C 1 (pz)     0.5698  0.0000  0.0000  0.0000  0.0000  0.0000  0.0000 -0.1597
   6.  C 1 (s)      0.0000  0.6299  0.6299  0.6299  0.0000  0.0000  0.0000  0.3796
   7.  C 1 (px)     0.0000  0.0000  0.0000  0.0000  0.0000  0.0000  0.0000  0.2026
   8.  C 1 (py)     0.0000  0.0000  0.0000  0.0000  0.0000  0.0000  0.0000 -0.4196
   9.  C 1 (pz)     1.0000  0.0000  0.0000  0.0000  0.0000  0.0000  0.0000 -0.2205
  10.  C 1 (d1)     0.0000  1.0000  0.3333  0.3333  0.0000  0.0000  0.0000  0.1724
  11.  C 1 (d4)     0.0000  0.3333  1.0000  0.3333  0.0000  0.0000  0.0000  0.3458
  12.  C 1 (d6)     0.0000  0.3333  0.3333  1.0000  0.0000  0.0000  0.0000  0.1822
  13.  C 1 (d2)     0.0000  0.0000  0.0000  0.0000  1.0000  0.0000  0.0000 -0.1891
  14.  C 1 (d3)     0.0000  0.0000  0.0000  0.0000  0.0000  1.0000  0.0000 -0.0994
  15.  C 1 (d5)     0.0000  0.0000  0.0000  0.0000  0.0000  0.0000  1.0000  0.2058
  16.  H 2 (s)     -0.2205  0.1724  0.3458  0.1822 -0.1891 -0.0994  0.2058  1.0000
  17.  H 2 (s)     -0.2488  0.3660  0.4068  0.3683 -0.0445 -0.0234  0.0484  0.6583
  18.  H 3 (s)     -0.2205  0.1724  0.3458  0.1822  0.1891 -0.0994 -0.2058  0.0197
  19.  H 3 (s)     -0.2488  0.3660  0.4068  0.3683  0.0445 -0.0234 -0.0484  0.1531
  20.  H 4 (s)      0.4922  0.1475  0.1180  0.4274  0.0000  0.1655  0.0000  0.0212
  21.  H 4 (s)      0.5565  0.3587  0.3517  0.4252  0.0000  0.0394  0.0000  0.1576
  22.  B 5 (s)     -0.0004  0.0233  0.0006  0.0006  0.0000  0.0001  0.0000  0.0000
  23.  B 5 (s)     -0.0017  0.2535  0.0895  0.0895  0.0000  0.0009  0.0000  0.0149
  24.  B 5 (px)    -0.0016  0.3593  0.1512  0.1512  0.0000  0.0015  0.0000  0.0293
  25.  B 5 (py)     0.0000  0.0000  0.0000  0.0000 -0.1276  0.0000 -0.0004 -0.0130
  26.  B 5 (pz)     0.2583  0.0015  0.0005  0.0000  0.0000 -0.1276  0.0000 -0.0067
  27.  B 5 (s)     -0.0016  0.2829  0.2168  0.2168  0.0000  0.0003  0.0000  0.0869
  28.  B 5 (px)    -0.0020  0.3906  0.3953  0.3953  0.0000  0.0003  0.0000  0.1972
  29.  B 5 (py)     0.0000  0.0000  0.0000  0.0000 -0.1085  0.0000 -0.0003 -0.0872
  30.  B 5 (pz)     0.5156  0.0016  0.0012  0.0008  0.0000 -0.1085  0.0000 -0.0453
  31.  B 5 (d1)    -0.0020  0.4381  0.1423  0.1423  0.0000  0.0024  0.0000  0.0197
  32.  B 5 (d4)    -0.0012  0.0869  0.0472  0.0157  0.0000  0.0004  0.0000  0.0053
  33.  B 5 (d6)    -0.0005  0.0869  0.0157  0.0472  0.0000 -0.0006  0.0000  0.0028
  34.  B 5 (d2)     0.0000  0.0000  0.0000  0.0000 -0.2376  0.0000 -0.0009 -0.0136
  35.  B 5 (d3)     0.1973  0.0027  0.0007 -0.0003  0.0000 -0.2376  0.0000 -0.0071
  36.  B 5 (d5)     0.0000  0.0000  0.0000  0.0000 -0.0009  0.0000  0.0472  0.0031
  37.  H 6 (s)      0.0007  0.0040  0.0012  0.0004  0.0029  0.0000  0.0000  0.0002
  38.  H 6 (s)      0.0018  0.0777  0.0487  0.0408  0.0295 -0.0004 -0.0002  0.0256
  39.  H 7 (s)      0.0007  0.0040  0.0012  0.0004 -0.0029  0.0000  0.0000  0.0000
  40.  H 7 (s)      0.0018  0.0777  0.0487  0.0408 -0.0295 -0.0004  0.0002  0.0050

           AO         17      18      19      20      21      22      23      24
      ------------ ------- ------- ------- ------- ------- ------- ------- -------
   1.  C 1 (s)      0.0929  0.0337  0.0929  0.0329  0.0923  0.0000  0.0184  0.0402
   2.  C 1 (s)      0.4790  0.2777  0.4790  0.2743  0.4766  0.0097  0.1707  0.2672
   3.  C 1 (px)     0.1045  0.1467  0.1045  0.1092  0.0784 -0.0233 -0.2201 -0.2966
   4.  C 1 (py)    -0.2164  0.3039  0.2164  0.0000  0.0000  0.0000  0.0000  0.0000
   5.  C 1 (pz)    -0.1137 -0.1597 -0.1137  0.3535  0.2539 -0.0001 -0.0007 -0.0012
   6.  C 1 (s)      0.7074  0.3796  0.7074  0.3775  0.7050  0.0591  0.3448  0.3148
   7.  C 1 (px)     0.2286  0.2026  0.2286  0.1520  0.1719 -0.1365 -0.5581 -0.2821
   8.  C 1 (py)    -0.4734  0.4196  0.4734  0.0000  0.0000  0.0000  0.0000  0.0000
   9.  C 1 (pz)    -0.2488 -0.2205 -0.2488  0.4922  0.5565 -0.0004 -0.0017 -0.0016
  10.  C 1 (d1)     0.3660  0.1724  0.3660  0.1475  0.3587  0.0233  0.2535  0.3593
  11.  C 1 (d4)     0.4068  0.3458  0.4068  0.1180  0.3517  0.0006  0.0895  0.1512
  12.  C 1 (d6)     0.3683  0.1822  0.3683  0.4274  0.4252  0.0006  0.0895  0.1512
  13.  C 1 (d2)    -0.0445  0.1891  0.0445  0.0000  0.0000  0.0000  0.0000  0.0000
  14.  C 1 (d3)    -0.0234 -0.0994 -0.0234  0.1655  0.0394  0.0001  0.0009  0.0015
  15.  C 1 (d5)     0.0484 -0.2058 -0.0484  0.0000  0.0000  0.0000  0.0000  0.0000
  16.  H 2 (s)      0.6583  0.0197  0.1531  0.0212  0.1576  0.0000  0.0149  0.0293
  17.  H 2 (s)      1.0000  0.1531  0.4081  0.1576  0.4154  0.0154  0.1321  0.1415
  18.  H 3 (s)      0.1531  1.0000  0.6583  0.0212  0.1576  0.0000  0.0149  0.0293
  19.  H 3 (s)      0.4081  0.6583  1.0000  0.1576  0.4154  0.0154  0.1321  0.1415
  20.  H 4 (s)      0.1576  0.0212  0.1576  1.0000  0.6583  0.0001  0.0192  0.0359
  21.  H 4 (s)      0.4154  0.1576  0.4154  0.6583  1.0000  0.0182  0.1487  0.1517
  22.  B 5 (s)      0.0154  0.0000  0.0154  0.0001  0.0182  1.0000  0.2228  0.0000
  23.  B 5 (s)      0.1321  0.0149  0.1321  0.0192  0.1487  0.2228  1.0000  0.0000
  24.  B 5 (px)     0.1415  0.0293  0.1415  0.0359  0.1517  0.0000  0.0000  1.0000
  25.  B 5 (py)    -0.0626  0.0130  0.0626  0.0000  0.0000  0.0000  0.0000  0.0000
  26.  B 5 (pz)    -0.0325 -0.0067 -0.0325  0.0199  0.0839  0.0000  0.0000  0.0000
  27.  B 5 (s)      0.2806  0.0869  0.2806  0.0976  0.3029  0.1987  0.8478  0.0000
  28.  B 5 (px)     0.4219  0.1972  0.4219  0.2098  0.4317  0.0000  0.0000  0.6236
  29.  B 5 (py)    -0.1865  0.0872  0.1865  0.0000  0.0000  0.0000  0.0000  0.0000
  30.  B 5 (pz)    -0.0970 -0.0453 -0.0970  0.1160  0.2386  0.0000  0.0000  0.0000
  31.  B 5 (d1)     0.1388  0.0197  0.1388  0.0250  0.1512  0.0911  0.7229  0.0000
  32.  B 5 (d4)     0.0838  0.0053  0.0838  0.0026  0.0808  0.0911  0.7229  0.0000
  33.  B 5 (d6)     0.0740  0.0028  0.0740  0.0095  0.1023  0.0911  0.7229  0.0000
  34.  B 5 (d2)    -0.0524  0.0136  0.0524  0.0000  0.0000  0.0000  0.0000  0.0000
  35.  B 5 (d3)    -0.0272 -0.0071 -0.0272  0.0215  0.0675  0.0000  0.0000  0.0000
  36.  B 5 (d5)     0.0120 -0.0031 -0.0120  0.0000  0.0000  0.0000  0.0000  0.0000
  37.  H 6 (s)      0.0256  0.0000  0.0050  0.0001  0.0141  0.0339  0.2973 -0.2148
  38.  H 6 (s)      0.1353  0.0050  0.0490  0.0141  0.0935  0.1118  0.5403 -0.1859
  39.  H 7 (s)      0.0050  0.0002  0.0256  0.0001  0.0141  0.0339  0.2973 -0.2148
  40.  H 7 (s)      0.0490  0.0256  0.1353  0.0141  0.0935  0.1118  0.5403 -0.1859

           AO         25      26      27      28      29      30      31      32
      ------------ ------- ------- ------- ------- ------- ------- ------- -------
   1.  C 1 (s)      0.0000  0.0001  0.0509  0.1046  0.0000  0.0003  0.0379  0.0006
   2.  C 1 (s)      0.0000  0.0008  0.2963  0.5008  0.0000  0.0015  0.2912  0.0554
   3.  C 1 (px)     0.0000 -0.0012 -0.1926 -0.1531  0.0000 -0.0010 -0.3653 -0.0863
   4.  C 1 (py)     0.0934  0.0000  0.0000  0.0000  0.1824  0.0000  0.0000  0.0000
   5.  C 1 (pz)     0.0000  0.0934 -0.0006 -0.0010  0.0000  0.1824 -0.0016 -0.0003
   6.  C 1 (s)      0.0000  0.0009  0.5209  0.6283  0.0000  0.0019  0.3518  0.2130
   7.  C 1 (px)     0.0000 -0.0016 -0.5446 -0.1412  0.0000 -0.0020 -0.4414 -0.4052
   8.  C 1 (py)     0.2583  0.0000  0.0000  0.0000  0.5156  0.0000  0.0000  0.0000
   9.  C 1 (pz)     0.0000  0.2583 -0.0016 -0.0020  0.0000  0.5156 -0.0020 -0.0012
  10.  C 1 (d1)     0.0000  0.0015  0.2829  0.3906  0.0000  0.0016  0.4381  0.0869
  11.  C 1 (d4)     0.0000  0.0005  0.2168  0.3953  0.0000  0.0012  0.1423  0.0472
  12.  C 1 (d6)     0.0000  0.0000  0.2168  0.3953  0.0000  0.0008  0.1423  0.0157
  13.  C 1 (d2)    -0.1276  0.0000  0.0000  0.0000 -0.1085  0.0000  0.0000  0.0000
  14.  C 1 (d3)     0.0000 -0.1276  0.0003  0.0003  0.0000 -0.1085  0.0024  0.0004
  15.  C 1 (d5)    -0.0004  0.0000  0.0000  0.0000 -0.0003  0.0000  0.0000  0.0000
  16.  H 2 (s)     -0.0130 -0.0067  0.0869  0.1972 -0.0872 -0.0453  0.0197  0.0053
  17.  H 2 (s)     -0.0626 -0.0325  0.2806  0.4219 -0.1865 -0.0970  0.1388  0.0838
  18.  H 3 (s)      0.0130 -0.0067  0.0869  0.1972  0.0872 -0.0453  0.0197  0.0053
  19.  H 3 (s)      0.0626 -0.0325  0.2806  0.4219  0.1865 -0.0970  0.1388  0.0838
  20.  H 4 (s)      0.0000  0.0199  0.0976  0.2098  0.0000  0.1160  0.0250  0.0026
  21.  H 4 (s)      0.0000  0.0839  0.3029  0.4317  0.0000  0.2386  0.1512  0.0808
  22.  B 5 (s)      0.0000  0.0000  0.1987  0.0000  0.0000  0.0000  0.0911  0.0911
  23.  B 5 (s)      0.0000  0.0000  0.8478  0.0000  0.0000  0.0000  0.7229  0.7229
  24.  B 5 (px)     0.0000  0.0000  0.0000  0.6236  0.0000  0.0000  0.0000  0.0000
  25.  B 5 (py)     1.0000  0.0000  0.0000  0.0000  0.6236  0.0000  0.0000  0.0000
  26.  B 5 (pz)     0.0000  1.0000  0.0000  0.0000  0.0000  0.6236  0.0000  0.0000
  27.  B 5 (s)      0.0000  0.0000  1.0000  0.0000  0.0000  0.0000  0.6303  0.6303
  28.  B 5 (px)     0.0000  0.0000  0.0000  1.0000  0.0000  0.0000  0.0000  0.0000
  29.  B 5 (py)     0.6236  0.0000  0.0000  0.0000  1.0000  0.0000  0.0000  0.0000
  30.  B 5 (pz)     0.0000  0.6236  0.0000  0.0000  0.0000  1.0000  0.0000  0.0000
  31.  B 5 (d1)     0.0000  0.0000  0.6303  0.0000  0.0000  0.0000  1.0000  0.3333
  32.  B 5 (d4)     0.0000  0.0000  0.6303  0.0000  0.0000  0.0000  0.3333  1.0000
  33.  B 5 (d6)     0.0000  0.0000  0.6303  0.0000  0.0000  0.0000  0.3333  0.3333
  34.  B 5 (d2)     0.0000  0.0000  0.0000  0.0000  0.0000  0.0000  0.0000  0.0000
  35.  B 5 (d3)     0.0000  0.0000  0.0000  0.0000  0.0000  0.0000  0.0000  0.0000
  36.  B 5 (d5)     0.0000  0.0000  0.0000  0.0000  0.0000  0.0000  0.0000  0.0000
  37.  H 6 (s)     -0.3614  0.0064  0.3477 -0.2354 -0.3959  0.0070  0.2074  0.3949
  38.  H 6 (s)     -0.3128  0.0055  0.7024 -0.3143 -0.5287  0.0094  0.3955  0.4528
  39.  H 7 (s)      0.3614  0.0064  0.3477 -0.2354  0.3959  0.0070  0.2074  0.3949
  40.  H 7 (s)      0.3128  0.0055  0.7024 -0.3143  0.5287  0.0094  0.3955  0.4528

           AO         33      34      35      36      37      38      39      40
      ------------ ------- ------- ------- ------- ------- ------- ------- -------
   1.  C 1 (s)      0.0006  0.0000  0.0002  0.0000  0.0000  0.0076  0.0000  0.0076
   2.  C 1 (s)      0.0554  0.0000  0.0012  0.0000  0.0024  0.0667  0.0024  0.0667
   3.  C 1 (px)    -0.0863  0.0000 -0.0019  0.0000 -0.0051 -0.0690 -0.0051 -0.0690
   4.  C 1 (py)     0.0000  0.1457  0.0000  0.0004 -0.0024 -0.0319  0.0024  0.0319
   5.  C 1 (pz)     0.0002  0.0000  0.1457  0.0000  0.0000  0.0004  0.0000  0.0004
   6.  C 1 (s)      0.2130  0.0000  0.0007  0.0000  0.0427  0.1877  0.0427  0.1877
   7.  C 1 (px)    -0.4052  0.0000 -0.0008  0.0000 -0.1151 -0.3081 -0.1151 -0.3081
   8.  C 1 (py)     0.0000  0.1973  0.0000  0.0006 -0.0532 -0.1423  0.0532  0.1423
   9.  C 1 (pz)    -0.0005  0.0000  0.1973  0.0000  0.0007  0.0018  0.0007  0.0018
  10.  C 1 (d1)     0.0869  0.0000  0.0027  0.0000  0.0040  0.0777  0.0040  0.0777
  11.  C 1 (d4)     0.0157  0.0000  0.0007  0.0000  0.0012  0.0487  0.0012  0.0487
  12.  C 1 (d6)     0.0472  0.0000 -0.0003  0.0000  0.0004  0.0408  0.0004  0.0408
  13.  C 1 (d2)     0.0000 -0.2376  0.0000 -0.0009  0.0029  0.0295 -0.0029 -0.0295
  14.  C 1 (d3)    -0.0006  0.0000 -0.2376  0.0000  0.0000 -0.0004  0.0000 -0.0004
  15.  C 1 (d5)     0.0000 -0.0009  0.0000  0.0472  0.0000 -0.0002  0.0000  0.0002
  16.  H 2 (s)      0.0028 -0.0136 -0.0071  0.0031  0.0002  0.0256  0.0000  0.0050
  17.  H 2 (s)      0.0740 -0.0524 -0.0272  0.0120  0.0256  0.1353  0.0050  0.0490
  18.  H 3 (s)      0.0028  0.0136 -0.0071 -0.0031  0.0000  0.0050  0.0002  0.0256
  19.  H 3 (s)      0.0740  0.0524 -0.0272 -0.0120  0.0050  0.0490  0.0256  0.1353
  20.  H 4 (s)      0.0095  0.0000  0.0215  0.0000  0.0001  0.0141  0.0001  0.0141
  21.  H 4 (s)      0.1023  0.0000  0.0675  0.0000  0.0141  0.0935  0.0141  0.0935
  22.  B 5 (s)      0.0911  0.0000  0.0000  0.0000  0.0339  0.1118  0.0339  0.1118
  23.  B 5 (s)      0.7229  0.0000  0.0000  0.0000  0.2973  0.5403  0.2973  0.5403
  24.  B 5 (px)     0.0000  0.0000  0.0000  0.0000 -0.2148 -0.1859 -0.2148 -0.1859
  25.  B 5 (py)     0.0000  0.0000  0.0000  0.0000 -0.3614 -0.3128  0.3614  0.3128
  26.  B 5 (pz)     0.0000  0.0000  0.0000  0.0000  0.0064  0.0055  0.0064  0.0055
  27.  B 5 (s)      0.6303  0.0000  0.0000  0.0000  0.3477  0.7024  0.3477  0.7024
  28.  B 5 (px)     0.0000  0.0000  0.0000  0.0000 -0.2354 -0.3143 -0.2354 -0.3143
  29.  B 5 (py)     0.0000  0.0000  0.0000  0.0000 -0.3959 -0.5287  0.3959  0.5287
  30.  B 5 (pz)     0.0000  0.0000  0.0000  0.0000  0.0070  0.0094  0.0070  0.0094
  31.  B 5 (d1)     0.3333  0.0000  0.0000  0.0000  0.2074  0.3955  0.2074  0.3955
  32.  B 5 (d4)     0.3333  0.0000  0.0000  0.0000  0.3949  0.4528  0.3949  0.4528
  33.  B 5 (d6)     1.0000  0.0000  0.0000  0.0000  0.1049  0.3642  0.1049  0.3642
  34.  B 5 (d2)     0.0000  1.0000  0.0000  0.0000  0.2987  0.0913 -0.2987 -0.0913
  35.  B 5 (d3)     0.0000  0.0000  1.0000  0.0000 -0.0053 -0.0016 -0.0053 -0.0016
  36.  B 5 (d5)     0.0000  0.0000  0.0000  1.0000 -0.0089 -0.0027  0.0089  0.0027
  37.  H 6 (s)      0.1049  0.2987 -0.0053 -0.0089  1.0000  0.6583  0.0071  0.1015
  38.  H 6 (s)      0.3642  0.0913 -0.0016 -0.0027  0.6583  1.0000  0.1015  0.3168
  39.  H 7 (s)      0.1049 -0.2987 -0.0053  0.0089  0.0071  0.1015  1.0000  0.6583
  40.  H 7 (s)      0.3642 -0.0913 -0.0016  0.0027  0.1015  0.3168  0.6583  1.0000


 AO bond-order matrix:

           AO          1       2       3       4       5       6       7       8
      ------------ ------- ------- ------- ------- ------- ------- ------- -------
   1.  C 1 (s)      2.0589 -0.0818  0.0049  0.0000  0.0016 -0.1723  0.0058  0.0000
   2.  C 1 (s)     -0.0818  0.2552 -0.0104  0.0000 -0.0042  0.2615 -0.0102  0.0000
   3.  C 1 (px)     0.0049 -0.0104  0.4018  0.0000  0.0010 -0.0353  0.2341  0.0000
   4.  C 1 (py)     0.0000  0.0000  0.0000  0.3726  0.0000  0.0000  0.0000  0.2097
   5.  C 1 (pz)     0.0016 -0.0042  0.0010  0.0000  0.3593 -0.0082 -0.0001  0.0000
   6.  C 1 (s)     -0.1723  0.2615 -0.0353  0.0000 -0.0082  0.2751 -0.0259  0.0000
   7.  C 1 (px)     0.0058 -0.0102  0.2341  0.0000 -0.0001 -0.0259  0.1370  0.0000
   8.  C 1 (py)     0.0000  0.0000  0.0000  0.2097  0.0000  0.0000  0.0000  0.1192
   9.  C 1 (pz)     0.0017 -0.0050  0.0072  0.0000  0.2008 -0.0078  0.0039  0.0000
  10.  C 1 (d1)    -0.0052  0.0025 -0.0169  0.0000 -0.0032  0.0036 -0.0098  0.0000
  11.  C 1 (d4)    -0.0082  0.0080  0.0139  0.0000 -0.0207  0.0078  0.0080  0.0000
  12.  C 1 (d6)    -0.0082  0.0077  0.0090  0.0000  0.0247  0.0073  0.0050  0.0000
  13.  C 1 (d2)     0.0000  0.0000  0.0000  0.0221  0.0000  0.0000  0.0000  0.0129
  14.  C 1 (d3)     0.0006 -0.0012 -0.0010  0.0000  0.0140 -0.0013 -0.0006  0.0000
  15.  C 1 (d5)     0.0000  0.0000  0.0000 -0.0222  0.0000  0.0000  0.0000 -0.0126
  16.  H 2 (s)     -0.0516  0.0945  0.0968 -0.2056 -0.1062  0.0927  0.0550 -0.1164
  17.  H 2 (s)     -0.0090  0.0250  0.0816 -0.1699 -0.0868  0.0210  0.0475 -0.0971
  18.  H 3 (s)     -0.0516  0.0945  0.0968  0.2056 -0.1062  0.0927  0.0550  0.1164
  19.  H 3 (s)     -0.0090  0.0250  0.0816  0.1699 -0.0868  0.0210  0.0475  0.0971
  20.  H 4 (s)     -0.0496  0.0892  0.0759  0.0000  0.2341  0.0850  0.0422  0.0000
  21.  H 4 (s)     -0.0074  0.0211  0.0672  0.0000  0.1962  0.0151  0.0385  0.0000
  22.  B 5 (s)      0.0153 -0.0285  0.0808  0.0000  0.0026 -0.0269  0.0403  0.0000
  23.  B 5 (s)     -0.0227  0.0434 -0.1339  0.0000 -0.0081  0.0373 -0.0698  0.0000
  24.  B 5 (px)    -0.0603  0.1122 -0.2767  0.0000 -0.0107  0.1450 -0.1699  0.0000
  25.  B 5 (py)     0.0000  0.0000  0.0000  0.0057  0.0000  0.0000  0.0000 -0.0173
  26.  B 5 (pz)     0.0010 -0.0020  0.0046  0.0000  0.0497 -0.0032  0.0028  0.0000
  27.  B 5 (s)      0.0016  0.0092 -0.0918  0.0000  0.0008  0.0033 -0.0470  0.0000
  28.  B 5 (px)    -0.0051  0.0156 -0.0786  0.0000 -0.0082  0.0245 -0.0481  0.0000
  29.  B 5 (py)     0.0000  0.0000  0.0000 -0.0240  0.0000  0.0000  0.0000 -0.0204
  30.  B 5 (pz)     0.0003 -0.0007  0.0024  0.0000  0.0173 -0.0012  0.0014  0.0000
  31.  B 5 (d1)    -0.0095  0.0161 -0.0250  0.0000 -0.0013  0.0176 -0.0145  0.0000
  32.  B 5 (d4)     0.0041 -0.0074  0.0099  0.0000 -0.0017 -0.0110  0.0075  0.0000
  33.  B 5 (d6)     0.0012 -0.0025  0.0032  0.0000  0.0016 -0.0022  0.0016  0.0000
  34.  B 5 (d2)     0.0000  0.0000  0.0000  0.0114  0.0000  0.0000  0.0000  0.0085
  35.  B 5 (d3)     0.0000  0.0000  0.0000  0.0000  0.0105 -0.0001  0.0000  0.0000
  36.  B 5 (d5)     0.0000  0.0000  0.0000 -0.0016  0.0000  0.0000  0.0000 -0.0010
  37.  H 6 (s)      0.0080 -0.0153  0.0277  0.0147  0.0012 -0.0298  0.0235  0.0203
  38.  H 6 (s)      0.0123 -0.0232  0.0544  0.0235 -0.0036 -0.0380  0.0383  0.0263
  39.  H 7 (s)      0.0080 -0.0153  0.0277 -0.0147  0.0012 -0.0298  0.0235 -0.0203
  40.  H 7 (s)      0.0123 -0.0232  0.0544 -0.0235 -0.0036 -0.0380  0.0383 -0.0263

           AO          9      10      11      12      13      14      15      16
      ------------ ------- ------- ------- ------- ------- ------- ------- -------
   1.  C 1 (s)      0.0017 -0.0052 -0.0082 -0.0082  0.0000  0.0006  0.0000 -0.0516
   2.  C 1 (s)     -0.0050  0.0025  0.0080  0.0077  0.0000 -0.0012  0.0000  0.0945
   3.  C 1 (px)     0.0072 -0.0169  0.0139  0.0090  0.0000 -0.0010  0.0000  0.0968
   4.  C 1 (py)     0.0000  0.0000  0.0000  0.0000  0.0221  0.0000 -0.0222 -0.2056
   5.  C 1 (pz)     0.2008 -0.0032 -0.0207  0.0247  0.0000  0.0140  0.0000 -0.1062
   6.  C 1 (s)     -0.0078  0.0036  0.0078  0.0073  0.0000 -0.0013  0.0000  0.0927
   7.  C 1 (px)     0.0039 -0.0098  0.0080  0.0050  0.0000 -0.0006  0.0000  0.0550
   8.  C 1 (py)     0.0000  0.0000  0.0000  0.0000  0.0129  0.0000 -0.0126 -0.1164
   9.  C 1 (pz)     0.1124 -0.0021 -0.0114  0.0139  0.0000  0.0078  0.0000 -0.0587
  10.  C 1 (d1)    -0.0021  0.0008 -0.0003 -0.0005  0.0000 -0.0001  0.0000 -0.0023
  11.  C 1 (d4)    -0.0114 -0.0003  0.0020 -0.0008  0.0000 -0.0009  0.0000  0.0126
  12.  C 1 (d6)     0.0139 -0.0005 -0.0008  0.0022  0.0000  0.0009  0.0000 -0.0020
  13.  C 1 (d2)     0.0000  0.0000  0.0000  0.0000  0.0015  0.0000 -0.0014 -0.0125
  14.  C 1 (d3)     0.0078 -0.0001 -0.0009  0.0009  0.0000  0.0006  0.0000 -0.0048
  15.  C 1 (d5)     0.0000  0.0000  0.0000  0.0000 -0.0014  0.0000  0.0013  0.0123
  16.  H 2 (s)     -0.0587 -0.0023  0.0126 -0.0020 -0.0125 -0.0048  0.0123  0.2049
  17.  H 2 (s)     -0.0474 -0.0024  0.0087 -0.0033 -0.0106 -0.0037  0.0102  0.1498
  18.  H 3 (s)     -0.0587 -0.0023  0.0126 -0.0020  0.0125 -0.0048 -0.0123 -0.0228
  19.  H 3 (s)     -0.0474 -0.0024  0.0087 -0.0033  0.0106 -0.0037 -0.0102 -0.0394
  20.  H 4 (s)      0.1312 -0.0045 -0.0078  0.0209  0.0000  0.0086  0.0000 -0.0155
  21.  H 4 (s)      0.1106 -0.0043 -0.0082  0.0158  0.0000  0.0074  0.0000 -0.0324
  22.  B 5 (s)      0.0015 -0.0049  0.0019  0.0014  0.0000  0.0000  0.0000  0.0087
  23.  B 5 (s)     -0.0061  0.0081 -0.0030 -0.0026  0.0000 -0.0002  0.0000 -0.0149
  24.  B 5 (px)    -0.0124  0.0111 -0.0055 -0.0031  0.0000 -0.0001  0.0000 -0.0240
  25.  B 5 (py)     0.0000  0.0000  0.0000  0.0000 -0.0074  0.0000  0.0011  0.0092
  26.  B 5 (pz)     0.0279 -0.0006 -0.0028  0.0035  0.0000  0.0019  0.0000 -0.0141
  27.  B 5 (s)     -0.0003  0.0054 -0.0031 -0.0021  0.0000  0.0002  0.0000 -0.0199
  28.  B 5 (px)    -0.0063  0.0030 -0.0018 -0.0018  0.0000 -0.0002  0.0000 -0.0115
  29.  B 5 (py)     0.0000  0.0000  0.0000  0.0000 -0.0040  0.0000  0.0019  0.0174
  30.  B 5 (pz)     0.0097 -0.0002 -0.0009  0.0012  0.0000  0.0007  0.0000 -0.0047
  31.  B 5 (d1)    -0.0012  0.0013 -0.0003 -0.0001  0.0000 -0.0001  0.0000  0.0002
[...]
            0.0000
           NBO accepted:   12. Label:BD*( 1)   5   6
        2 eigenvector(s) stashed in permanent list

 Search of NHO DM block for the following atom(s):   5   7
      Select eigenvectors with eigenvalue > 1.900
       1.994 0.003 0.000 0.000 0.000 0.000 0.000 0.000 0.000 0.000 0.000 0.000
       0.000 0.000 0.000 0.000 0.000
      Eigenvector ( 1) has occupancy 1.99368
            0.0000 0.0000 0.6609 0.0000 0.0000 0.0000 0.0000 0.0000
            0.0000 0.0000 0.0000 0.0000 0.0000 0.0000 0.0000 0.7505
            0.0000
      Occupancy is 1.994 after deleting minor hybrid components
            0.0000 0.0000 0.6609 0.0000 0.0000 0.0000 0.0000 0.0000
            0.0000 0.0000 0.0000 0.0000 0.0000 0.0000 0.0000 0.7505
            0.0000
           NBO accepted:   13. Label:BD ( 1)   5   7
      Occupancy is 0.003 for antibonding component
            0.0000 0.0000 0.7505 0.0000 0.0000 0.0000 0.0000 0.0000
            0.0000 0.0000 0.0000 0.0000 0.0000 0.0000 0.0000-0.6609
            0.0000
           NBO accepted:   14. Label:BD*( 1)   5   7
        2 eigenvector(s) stashed in permanent list

  2-center NBOs projected from the NHO density matrix
       0.040 electrons remain in the fully projected matrix

                            Occupancies       Lewis Structure    Low   High
         Max    Occ     -------------------  -----------------   occ   occ
  Cycle  Ctr   Thresh    Lewis   non-Lewis     CR  BD  nC  LP    (L)   (NL)
 ============================================================================
    1     2     1.90    15.94022   0.05978      2   6   0   0     0      0
 ----------------------------------------------------------------------------

 Structure accepted: No low occupancy Lewis orbitals

 -------------------------------------------------------
   Core                      3.99999 (100.000% of   4)
   Valence Lewis            11.94023 ( 99.502% of  12)
  ==================      =============================
   Total Lewis              15.94022 ( 99.626% of  16)
  -----------------------------------------------------
   Valence non-Lewis         0.05371 (  0.336% of  16)
   Rydberg non-Lewis         0.00606 (  0.038% of  16)
  ==================      =============================
   Total non-Lewis           0.05978 (  0.374% of  16)
 -------------------------------------------------------


     (Occupancy)   Bond orbital / Coefficients / Hybrids
 ------------------ Lewis ------------------------------------------------------
   1. (2.00000) CR ( 1) C  1            s(100.00%)
                                         1.0000  0.0000  0.0000  0.0000  0.0000
                                         0.0000  0.0000  0.0000  0.0000  0.0000
                                         0.0000  0.0000  0.0000  0.0000  0.0000
   2. (2.00000) CR ( 1) B  5            s(100.00%)
                                         1.0000  0.0000  0.0000  0.0000  0.0000
                                         0.0000  0.0000  0.0000  0.0000  0.0000
                                         0.0000  0.0000  0.0000  0.0000  0.0000
   3. (1.99108) BD ( 1) C  1- H  2
               ( 61.76%)   0.7859* C  1 s( 23.84%)p 3.19( 76.01%)d 0.01(  0.15%)
                                         0.0000  0.4883 -0.0035  0.0002  0.3392
                                         0.0124 -0.7064  0.0030 -0.3819 -0.0011
                                        -0.0208 -0.0087  0.0239 -0.0171 -0.0096
               ( 38.24%)   0.6184* H  2 s(100.00%)
                                         1.0000  0.0001
   4. (1.99108) BD ( 1) C  1- H  3
               ( 61.76%)   0.7859* C  1 s( 23.84%)p 3.19( 76.01%)d 0.01(  0.15%)
                                         0.0000  0.4883 -0.0035  0.0002  0.3392
                                         0.0124  0.7064 -0.0030 -0.3819 -0.0011
                                         0.0208 -0.0087 -0.0239 -0.0171 -0.0096
               ( 38.24%)   0.6184* H  3 s(100.00%)
                                         1.0000  0.0001
   5. (1.97364) BD ( 1) C  1- H  4
               ( 61.99%)   0.7873* C  1 s( 22.08%)p 3.52( 77.77%)d 0.01(  0.15%)
                                         0.0000  0.4699 -0.0008 -0.0007  0.2697
                                         0.0155  0.0000  0.0000  0.8395 -0.0004
                                         0.0000  0.0140  0.0000  0.0043  0.0357
               ( 38.01%)   0.6165* H  4 s(100.00%)
                                         1.0000 -0.0012
   6. (1.99706) BD ( 1) C  1- B  5
               ( 68.00%)   0.8247* C  1 s( 30.17%)p 2.31( 69.75%)d 0.00(  0.08%)
                                         0.0000  0.5492  0.0063  0.0001 -0.8342
                                         0.0119  0.0000  0.0000 -0.0392  0.0004
                                         0.0000 -0.0006  0.0000  0.0258 -0.0123
               ( 32.00%)   0.5656* B  5 s( 33.09%)p 2.01( 66.66%)d 0.01(  0.25%)
                                         0.0000  0.5749 -0.0189  0.0005  0.8157
                                         0.0240  0.0000  0.0000 -0.0264  0.0016
                                         0.0000 -0.0010  0.0000  0.0451 -0.0220
   7. (1.99368) BD ( 1) B  5- H  6
               ( 43.68%)   0.6609* B  5 s( 33.38%)p 1.99( 66.32%)d 0.01(  0.29%)
                                         0.0000  0.5777  0.0069 -0.0001 -0.4059
                                        -0.0076 -0.7057  0.0163  0.0109 -0.0003
                                         0.0412 -0.0006 -0.0021 -0.0237 -0.0260
               ( 56.32%)   0.7505* H  6 s(100.00%)
                                         1.0000  0.0001
   8. (1.99368) BD ( 1) B  5- H  7
               ( 43.68%)   0.6609* B  5 s( 33.38%)p 1.99( 66.32%)d 0.01(  0.29%)
                                         0.0000  0.5777  0.0069 -0.0001 -0.4059
                                        -0.0076  0.7057 -0.0163  0.0109 -0.0003
                                        -0.0412 -0.0006  0.0021 -0.0237 -0.0260
               ( 56.32%)   0.7505* H  7 s(100.00%)
                                         1.0000  0.0001
 ---------------- non-Lewis ----------------------------------------------------
   9. (0.03396) LV ( 1) B  5            s(  0.01%)p 1.00( 99.43%)d 0.01(  0.56%)
                                         0.0000  0.0036  0.0091  0.0019  0.0301
                                         0.0037  0.0000  0.0000  0.9962  0.0312
                                         0.0000  0.0713  0.0000  0.0065  0.0216
  10. (0.00547) BD*( 1) C  1- H  2
               ( 38.24%)   0.6184* C  1 s( 23.84%)p 3.19( 76.01%)d 0.01(  0.15%)
                                         0.0000 -0.4883  0.0035 -0.0002 -0.3392
                                        -0.0124  0.7064 -0.0030  0.3819  0.0011
                                         0.0208  0.0087 -0.0239  0.0171  0.0096
               ( 61.76%)  -0.7859* H  2 s(100.00%)
                                        -1.0000 -0.0001
  11. (0.00547) BD*( 1) C  1- H  3
               ( 38.24%)   0.6184* C  1 s( 23.84%)p 3.19( 76.01%)d 0.01(  0.15%)
                                         0.0000 -0.4883  0.0035 -0.0002 -0.3392
                                        -0.0124 -0.7064  0.0030  0.3819  0.0011
                                        -0.0208  0.0087  0.0239  0.0171  0.0096
               ( 61.76%)  -0.7859* H  3 s(100.00%)
                                        -1.0000 -0.0001
  12. (0.00166) BD*( 1) C  1- H  4
               ( 38.01%)   0.6165* C  1 s( 22.08%)p 3.52( 77.77%)d 0.01(  0.15%)
                                         0.0000 -0.4699  0.0008  0.0007 -0.2697
                                        -0.0155  0.0000  0.0000 -0.8395  0.0004
                                         0.0000 -0.0140  0.0000 -0.0043 -0.0357
               ( 61.99%)  -0.7873* H  4 s(100.00%)
                                        -1.0000  0.0012
  13. (0.00215) BD*( 1) C  1- B  5
               ( 32.00%)   0.5656* C  1 s( 30.17%)p 2.31( 69.75%)d 0.00(  0.08%)
                                         0.0000 -0.5492 -0.0063 -0.0001  0.8342
                                        -0.0119  0.0000  0.0000  0.0392 -0.0004
                                         0.0000  0.0006  0.0000 -0.0258  0.0123
               ( 68.00%)  -0.8247* B  5 s( 33.09%)p 2.01( 66.66%)d 0.01(  0.25%)
                                         0.0000 -0.5749  0.0189 -0.0005 -0.8157
                                        -0.0240  0.0000  0.0000  0.0264 -0.0016
                                         0.0000  0.0010  0.0000 -0.0451  0.0220
  14. (0.00250) BD*( 1) B  5- H  6
               ( 56.32%)   0.7505* B  5 s( 33.38%)p 1.99( 66.32%)d 0.01(  0.29%)
                                         0.0000 -0.5777 -0.0069  0.0001  0.4059
                                         0.0076  0.7057 -0.0163 -0.0109  0.0003
                                        -0.0412  0.0006  0.0021  0.0237  0.0260
               ( 43.68%)  -0.6609* H  6 s(100.00%)
                                        -1.0000 -0.0001
  15. (0.00250) BD*( 1) B  5- H  7
               ( 56.32%)   0.7505* B  5 s( 33.38%)p 1.99( 66.32%)d 0.01(  0.29%)
                                         0.0000 -0.5777 -0.0069  0.0001  0.4059
                                         0.0076 -0.7057  0.0163 -0.0109  0.0003
                                         0.0412  0.0006 -0.0021  0.0237  0.0260
               ( 43.68%)  -0.6609* H  7 s(100.00%)
                                        -1.0000 -0.0001
  16. (0.00189) RY ( 1) C  1            s(  0.00%)p 1.00( 95.21%)d 0.05(  4.79%)
                                         0.0000  0.0000  0.0000  0.0000  0.0000
                                         0.0000  0.0138  0.9757  0.0000  0.0000
                                        -0.1697  0.0000  0.1381  0.0000  0.0000
  17. (0.00014) RY ( 2) C  1            s(  1.84%)p43.55( 80.19%)d 9.76( 17.97%)
                                         0.0000  0.0234 -0.0344  0.1292  0.0165
                                        -0.8851  0.0000  0.0000 -0.0016  0.1351
                                         0.0000  0.0050  0.0000  0.4194 -0.0614
  18. (0.00000) RY ( 3) C  1            s( 99.43%)p 0.00(  0.43%)d 0.00(  0.14%)
  19. (0.00000) RY ( 4) C  1            s(  0.37%)p13.97(  5.16%)d99.99( 94.47%)
  20. (0.00000) RY ( 5) C  1            s(  0.07%)p13.87(  0.90%)d99.99( 99.03%)
  21. (0.00000) RY ( 6) C  1            s(  0.01%)p 1.00(  1.13%)d87.50( 98.86%)
  22. (0.00000) RY ( 7) C  1            s( 95.51%)p 0.04(  3.67%)d 0.01(  0.83%)
  23. (0.00000) RY ( 8) C  1            s(  0.41%)p89.70( 36.46%)d99.99( 63.13%)
  24. (0.00000) RY ( 9) C  1            s(  2.34%)p21.77( 50.86%)d20.03( 46.80%)
  25. (0.00000) RY (10) C  1            s(  0.10%)p99.99( 26.45%)d99.99( 73.45%)
  26. (0.00065) RY ( 1) H  2            s(100.00%)
                                        -0.0001  1.0000
  27. (0.00065) RY ( 1) H  3            s(100.00%)
                                        -0.0001  1.0000
  28. (0.00032) RY ( 1) H  4            s(100.00%)
                                         0.0012  1.0000
  29. (0.00189) RY ( 1) B  5            s(  0.00%)p 1.00( 88.55%)d 0.13( 11.45%)
                                         0.0000  0.0000  0.0000  0.0000  0.0000
                                         0.0000  0.0412  0.9401  0.0000  0.0000
                                         0.3289  0.0000 -0.0797  0.0000  0.0000
  30. (0.00041) RY ( 2) B  5            s(  4.95%)p15.02( 74.34%)d 4.19( 20.72%)
                                         0.0000 -0.0140 -0.0092  0.2218 -0.0438
                                         0.8590  0.0000  0.0000 -0.0021  0.0592
                                         0.0000  0.0091  0.0000  0.3878 -0.2382
  31. (0.00000) RY ( 3) B  5            s( 47.74%)p 0.01(  0.27%)d 1.09( 51.99%)
  32. (0.00000) RY ( 4) B  5            s(  0.28%)p99.99( 58.32%)d99.99( 41.40%)
  33. (0.00000) RY ( 5) B  5            s(  0.03%)p99.99(  6.40%)d99.99( 93.57%)
  34. (0.00000) RY ( 6) B  5            s( 20.02%)p 0.55( 11.03%)d 3.44( 68.95%)
  35. (0.00000) RY ( 7) B  5            s( 50.22%)p 0.11(  5.33%)d 0.89( 44.45%)
  36. (0.00000) RY ( 8) B  5            s( 75.54%)p 0.16( 12.13%)d 0.16( 12.33%)
  37. (0.00000) RY ( 9) B  5            s(  0.49%)p70.34( 34.26%)d99.99( 65.25%)
  38. (0.00000) RY (10) B  5            s(  0.86%)p12.41( 10.65%)d99.99( 88.49%)
  39. (0.00004) RY ( 1) H  6            s(100.00%)
  40. (0.00004) RY ( 1) H  7            s(100.00%)


 NHO DIRECTIONALITY AND BOND BENDING (deviation from line of nuclear centers at
                                      the position of maximum hybrid amplitude)

         [Thresholds for printing:  angular deviation  >  1.0 degree]
                                    p- or d-character  > 25.0%
                                    orbital occupancy  >  0.10e

                        Line of Centers        Hybrid 1             Hybrid 2
                        ---------------  -------------------  ------------------
           NBO            Theta   Phi    Theta   Phi    Dev   Theta   Phi    Dev
 ===============================================================================
   6. BD ( 1) C  1- B  5   90.2  180.0    92.0  180.0   1.8    91.6    0.0   1.8


 SECOND ORDER PERTURBATION THEORY ANALYSIS OF FOCK MATRIX IN NBO BASIS

     Threshold for printing:   0.50 kcal/mol
                                                          E(2) E(NL)-E(L) F(L,NL)
      Donor (L) NBO              Acceptor (NL) NBO      kcal/mol   a.u.    a.u.
 ===============================================================================

 within unit  1
    3. BD ( 1) C  1- H  2       9. LV ( 1) B  5            1.74    0.85   0.034
    3. BD ( 1) C  1- H  2      13. BD*( 1) C  1- B  5      0.54    1.32   0.024
    3. BD ( 1) C  1- H  2      15. BD*( 1) B  5- H  7      1.11    1.40   0.035
    3. BD ( 1) C  1- H  2      29. RY ( 1) B  5            0.84    1.44   0.031
    4. BD ( 1) C  1- H  3       9. LV ( 1) B  5            1.74    0.85   0.034
    4. BD ( 1) C  1- H  3      13. BD*( 1) C  1- B  5      0.54    1.32   0.024
    4. BD ( 1) C  1- H  3      14. BD*( 1) B  5- H  6      1.11    1.40   0.035
    4. BD ( 1) C  1- H  3      29. RY ( 1) B  5            0.84    1.44   0.031
    5. BD ( 1) C  1- H  4       9. LV ( 1) B  5           10.88    0.84   0.085
    5. BD ( 1) C  1- H  4      13. BD*( 1) C  1- B  5      0.62    1.31   0.025
    6. BD ( 1) C  1- B  5      10. BD*( 1) C  1- H  2      1.03    1.36   0.033
    6. BD ( 1) C  1- B  5      11. BD*( 1) C  1- H  3      1.03    1.36   0.033
    6. BD ( 1) C  1- B  5      12. BD*( 1) C  1- H  4      1.12    1.33   0.034
    6. BD ( 1) C  1- B  5      28. RY ( 1) H  4            0.53    1.48   0.025
    7. BD ( 1) B  5- H  6      11. BD*( 1) C  1- H  3      2.43    1.29   0.050
    7. BD ( 1) B  5- H  6      16. RY ( 1) C  1            0.98    1.62   0.036
    8. BD ( 1) B  5- H  7      10. BD*( 1) C  1- H  2      2.43    1.29   0.050
    8. BD ( 1) B  5- H  7      16. RY ( 1) C  1            0.98    1.62   0.036


 NATURAL BOND ORBITALS (Summary):

                                                     Principal Delocalizations
           NBO                 Occupancy    Energy   (geminal,vicinal,remote)
 ===============================================================================
 Molecular unit  1  (CH5B)
 ------ Lewis --------------------------------------
    1. CR ( 1) C  1             2.00000   -11.19357
    2. CR ( 1) B  5             2.00000    -7.58969
    3. BD ( 1) C  1- H  2       1.99108    -0.63742  9(v),15(v),29(v),13(g)
    4. BD ( 1) C  1- H  3       1.99108    -0.63742  9(v),14(v),29(v),13(g)
    5. BD ( 1) C  1- H  4       1.97364    -0.63292  9(v),13(g)
    6. BD ( 1) C  1- B  5       1.99706    -0.62471  12(g),10(g),11(g),28(v)
    7. BD ( 1) B  5- H  6       1.99368    -0.55699  11(v),16(v)
    8. BD ( 1) B  5- H  7       1.99368    -0.55700  10(v),16(v)
 ------ non-Lewis ----------------------------------
    9. LV ( 1) B  5             0.03396     0.20891
   10. BD*( 1) C  1- H  2       0.00547     0.73560
   11. BD*( 1) C  1- H  3       0.00547     0.73560
   12. BD*( 1) C  1- H  4       0.00166     0.70425
   13. BD*( 1) C  1- B  5       0.00215     0.67804
   14. BD*( 1) B  5- H  6       0.00250     0.75948
   15. BD*( 1) B  5- H  7       0.00250     0.75948
   16. RY ( 1) C  1             0.00189     1.05851
   17. RY ( 2) C  1             0.00014     1.11406
   18. RY ( 3) C  1             0.00000     2.08720
   19. RY ( 4) C  1             0.00000     2.35917
   20. RY ( 5) C  1             0.00000     2.06721
   21. RY ( 6) C  1             0.00000     2.11347
   22. RY ( 7) C  1             0.00000     3.88104
   23. RY ( 8) C  1             0.00000     1.97984
   24. RY ( 9) C  1             0.00000     1.79140
   25. RY (10) C  1             0.00000     1.97982
   26. RY ( 1) H  2             0.00065     0.83888
   27. RY ( 1) H  3             0.00065     0.83888
   28. RY ( 1) H  4             0.00032     0.85457
   29. RY ( 1) B  5             0.00189     0.80023
   30. RY ( 2) B  5             0.00041     0.99684
   31. RY ( 3) B  5             0.00000     1.73599
   32. RY ( 4) B  5             0.00000     1.01378
   33. RY ( 5) B  5             0.00000     1.49006
   34. RY ( 6) B  5             0.00000     2.07941
   35. RY ( 7) B  5             0.00000     1.41864
   36. RY ( 8) B  5             0.00000     2.62259
   37. RY ( 9) B  5             0.00000     1.38652
   38. RY (10) B  5             0.00000     1.84914
   39. RY ( 1) H  6             0.00004     0.94429
   40. RY ( 1) H  7             0.00004     0.94429
          -------------------------------
                 Total Lewis   15.94022  ( 99.6264%)
           Valence non-Lewis    0.05371  (  0.3357%)
           Rydberg non-Lewis    0.00606  (  0.0379%)
          -------------------------------
               Total unit  1   16.00000  (100.0000%)
              Charge unit  1    0.00000

 $CHOOSE
   BOND S 1 2 S 1 3 S 1 4 S 1 5 S 5 6 S 5 7 END
 $END

 NBO analysis completed in 0.54 CPU seconds (1 wall second)
 Maximum scratch memory used by NBO was 336065 words (2.56 MB)
 Maximum scratch memory used by G16NBO was 10817 words (0.08 MB)

 Opening RunExU unformatted file "/cluster/work/users/beto93/CH3BH2/Gau-1561324.EUF"
 Read unf file /cluster/work/users/beto93/CH3BH2/Gau-1561324.EUF:
 Label Gaussian matrix elements                                         IVers= 2 NLab= 2 Version=ES64L-G16RevC.01
 Title NBO-a                                                           
 NAtoms=     7 NBasis=    40 NBsUse=    40 ICharg=     0 Multip=     1 NE=    16 Len12L=8 Len4L=8 IOpCl= 0 ICGU=111
 GAUSSIAN SCALARS                    NI= 1 NR= 1 NTot=       1 LenBuf=    2 NRI=1 N=    1000
 NPA CHARGES                         NI= 0 NR= 1 NTot=       7 LenBuf= 4000 NRI=1 N=       7
 Recovered energy= -65.4405162225     dipole=      0.150454991873     -0.000000057279      0.023871272204
 Unable to Open any file for archive entry.
 1\1\GINC-C1-1\SP\RHF\6-31G(d)\C1H5B1\BETO93\24-Jul-2024\0\\#RHF/6-31G*
  Pop=NBO7Read\\NBO-a\\0,1\C,0,0.041752,0.074124,0.029523\H,0,0.045821,
 0.043096,1.112745\H,0,1.064383,0.043097,-0.32771\H,0,-0.367936,1.04058
 4,-0.260172\B,0,-0.8682,-1.031546,-0.613915\H,0,-1.800388,-1.435979,-0
 .04958\H,0,-0.646862,-1.435979,-1.6809\\Version=ES64L-G16RevC.01\State
 =1-A\HF=-65.4405162\RMSD=2.360e-09\Dipole=0.0737825,0.1226406,0.052172
 5\Quadrupole=-0.0734124,0.3040156,-0.2306033,-0.9386934,0.2223113,-0.6
 637609\PG=C01 [X(C1H5B1)]\\@
 The archive entry for this job was punched.


 ON A CLEAR DISK YOU CAN SEEK FOREVER.
 Job cpu time:       0 days  0 hours  0 minutes 15.1 seconds.
 Elapsed time:       0 days  0 hours  0 minutes  5.0 seconds.
 File lengths (MBytes):  RWF=     10 Int=      0 D2E=      0 Chk=      1 Scr=      1
 Normal termination of Gaussian 16 at Wed Jul 24 12:08:07 2024.
