 Entering Gaussian System, Link 0=g16
 Initial command:
 /cluster/software/Gaussian/g16_C.01/l1.exe "/cluster/work/users/beto93/mol134/Gau-1107914.inp" -scrdir="/cluster/work/users/beto93/mol134/"
 Entering Link 1 = /cluster/software/Gaussian/g16_C.01/l1.exe PID=   1107916.
  
 Copyright (c) 1988-2019, Gaussian, Inc.  All Rights Reserved.
  
 This is part of the Gaussian(R) 16 program.  It is based on
 the Gaussian(R) 09 system (copyright 2009, Gaussian, Inc.),
 the Gaussian(R) 03 system (copyright 2003, Gaussian, Inc.),
 the Gaussian(R) 98 system (copyright 1998, Gaussian, Inc.),
 the Gaussian(R) 94 system (copyright 1995, Gaussian, Inc.),
 the Gaussian 92(TM) system (copyright 1992, Gaussian, Inc.),
 the Gaussian 90(TM) system (copyright 1990, Gaussian, Inc.),
 the Gaussian 88(TM) system (copyright 1988, Gaussian, Inc.),
 the Gaussian 86(TM) system (copyright 1986, Carnegie Mellon
 University), and the Gaussian 82(TM) system (copyright 1983,
 Carnegie Mellon University). Gaussian is a federally registered
 trademark of Gaussian, Inc.
  
 This software contains proprietary and confidential information,
 including trade secrets, belonging to Gaussian, Inc.
  
 This software is provided under written license and may be
 used, copied, transmitted, or stored only in accord with that
 written license.
  
 The following legend is applicable only to US Government
 contracts under FAR:
  
                    RESTRICTED RIGHTS LEGEND
  
 Use, reproduction and disclosure by the US Government is
 subject to restrictions as set forth in subparagraphs (a)
 and (c) of the Commercial Computer Software - Restricted
 Rights clause in FAR 52.227-19.
  
 Gaussian, Inc.
 340 Quinnipiac St., Bldg. 40, Wallingford CT 06492
  
  
 ---------------------------------------------------------------
 Warning -- This program may not be used in any manner that
 competes with the business of Gaussian, Inc. or will provide
 assistance to any competitor of Gaussian, Inc.  The licensee
 of this program is prohibited from giving any competitor of
 Gaussian, Inc. access to this program.  By using this program,
 the user acknowledges that Gaussian, Inc. is engaged in the
 business of creating and licensing software in the field of
 computational chemistry and represents and warrants to the
 licensee that it is not a competitor of Gaussian, Inc. and that
 it will not use this program in any manner prohibited above.
 ---------------------------------------------------------------
  

 Cite this work as:
 Gaussian 16, Revision C.01,
 M. J. Frisch, G. W. Trucks, H. B. Schlegel, G. E. Scuseria, 
 M. A. Robb, J. R. Cheeseman, G. Scalmani, V. Barone, 
 G. A. Petersson, H. Nakatsuji, X. Li, M. Caricato, A. V. Marenich, 
 J. Bloino, B. G. Janesko, R. Gomperts, B. Mennucci, H. P. Hratchian, 
 J. V. Ortiz, A. F. Izmaylov, J. L. Sonnenberg, D. Williams-Young, 
 F. Ding, F. Lipparini, F. Egidi, J. Goings, B. Peng, A. Petrone, 
 T. Henderson, D. Ranasinghe, V. G. Zakrzewski, J. Gao, N. Rega, 
 G. Zheng, W. Liang, M. Hada, M. Ehara, K. Toyota, R. Fukuda, 
 J. Hasegawa, M. Ishida, T. Nakajima, Y. Honda, O. Kitao, H. Nakai, 
 T. Vreven, K. Throssell, J. A. Montgomery, Jr., J. E. Peralta, 
 F. Ogliaro, M. J. Bearpark, J. J. Heyd, E. N. Brothers, K. N. Kudin, 
 V. N. Staroverov, T. A. Keith, R. Kobayashi, J. Normand, 
 K. Raghavachari, A. P. Rendell, J. C. Burant, S. S. Iyengar, 
 J. Tomasi, M. Cossi, J. M. Millam, M. Klene, C. Adamo, R. Cammi, 
 J. W. Ochterski, R. L. Martin, K. Morokuma, O. Farkas, 
 J. B. Foresman, and D. J. Fox, Gaussian, Inc., Wallingford CT, 2019.
 
 ******************************************
 Gaussian 16:  ES64L-G16RevC.01  3-Jul-2019
                18-Nov-2024 
 ******************************************
 %LindaWorkers=c2-6-ib
 %NProcShared=4
 Will use up to    4 processors via shared memory.
 %mem=25GB
 %chk=mol134.chk
 SetLPE:    new flags="-opt 'Tsnet.Node.lindarsharg: ssh'  -nodelist 'c2-6-ib.saga' -env GAUSS_MDEF=3355443200 -env GAUSS_EXEDIR="/cluster/software/Gaussian/g16_C.01/bsd:/cluster/software/Gaussian/g16_C.01""
 Will use up to    1 processors via Linda.
 -----------------------------------------------------------------
 #RHF/STO-3G int=nobasistransform Symmetry=None 5D 7F Pop=NBO7Read
 -----------------------------------------------------------------
 1/38=1,163=2,172=1/1;
 2/12=2,15=3,17=6,18=5,40=1/2;
 3/6=3,8=11,11=1,25=1,30=1,60=-1,116=1/1,2,3;
 4//1;
 5/5=2,38=5/2;
 6/7=2,8=2,9=2,10=2,28=1,40=2,113=1,114=1,124=2103/1,12;
 99/5=1,9=1/99;
 ----------
 mol134-NBO
 ----------
 Symbolic Z-matrix:
 Charge =  0 Multiplicity = 1
 N                     0.        0.        1.42467 
 C                     0.        0.       -1.38618 
 C                     0.        1.14428   0.72031 
 C                     0.       -1.14428   0.72031 
 C                     0.       -1.1964   -0.67292 
 C                     0.        1.1964   -0.67292 
 H                     0.        0.       -2.47305 
 H                     0.        2.06072   1.30748 
 H                     0.       -2.06072   1.30748 
 H                     0.       -2.15529  -1.1831 
 H                     0.        2.15529  -1.1831 
 
                          Input orientation:                          
 ---------------------------------------------------------------------
 Center     Atomic      Atomic             Coordinates (Angstroms)
 Number     Number       Type             X           Y           Z
 ---------------------------------------------------------------------
      1          7           0        0.000000    0.000000    1.424672
      2          6           0        0.000000    0.000000   -1.386178
      3          6           0        0.000000    1.144277    0.720306
      4          6           0        0.000000   -1.144277    0.720306
      5          6           0        0.000000   -1.196404   -0.672917
      6          6           0        0.000000    1.196404   -0.672917
      7          1           0        0.000000    0.000000   -2.473052
      8          1           0        0.000000    2.060723    1.307477
      9          1           0        0.000000   -2.060723    1.307477
     10          1           0        0.000000   -2.155293   -1.183103
     11          1           0        0.000000    2.155293   -1.183103
 ---------------------------------------------------------------------
                    Distance matrix (angstroms):
                    1          2          3          4          5
     1  N    0.000000
     2  C    2.810850   0.000000
     3  C    1.343689   2.397216   0.000000
     4  C    1.343689   2.397216   2.288554   0.000000
     5  C    2.414801   1.392883   2.723942   1.394198   0.000000
     6  C    2.414801   1.392883   1.394198   2.723942   2.392808
     7  H    3.897724   1.086874   3.392183   3.392183   2.161451
     8  H    2.064053   3.391512   1.088413   3.258342   3.811933
     9  H    2.064053   3.391512   3.258342   1.088413   2.160789
    10  H    3.383161   2.164839   3.809216   2.155254   1.086167
    11  H    3.383161   2.164839   2.155254   3.809216   3.390304
                    6          7          8          9         10
     6  C    0.000000
     7  H    2.161451   0.000000
     8  H    2.160789   4.305691   0.000000
     9  H    3.811933   4.305691   4.121446   0.000000
    10  H    3.390304   2.511823   4.896711   2.492375   0.000000
    11  H    1.086167   2.511823   2.492375   4.896711   4.310586
                   11
    11  H    0.000000
 Symmetry turned off by external request.
 Stoichiometry    C5H5N
 Rotational constants (GHZ):           6.0379125           5.7977140           2.9576879
 Standard basis: STO-3G (5D, 7F)
    35 basis functions,   105 primitive gaussians,    35 cartesian basis functions
    21 alpha electrons       21 beta electrons
       nuclear repulsion energy       205.7907058986 Hartrees.
 NAtoms=   11 NActive=   11 NUniq=   11 SFac= 1.00D+00 NAtFMM=   60 NAOKFM=F Big=F
 Integral buffers will be    131072 words long.
 Raffenetti 1 integral format.
 Two-electron integral symmetry is turned off.
 One-electron integrals computed using PRISM.
 NBasis=    35 RedAO= T EigKep=  1.77D-01  NBF=    35
 NBsUse=    35 1.00D-06 EigRej= -1.00D+00 NBFU=    35
 ExpMin= 1.69D-01 ExpMax= 9.91D+01 ExpMxC= 9.91D+01 IAcc=3 IRadAn=         5 AccDes= 0.00D+00
 Harris functional with IExCor=  205 and IRadAn=       5 diagonalized for initial guess.
 HarFok:  IExCor=  205 AccDes= 0.00D+00 IRadAn=         5 IDoV= 1 UseB2=F ITyADJ=14
 ICtDFT=  3500011 ScaDFX=  1.000000  1.000000  1.000000  1.000000
 FoFCou: FMM=F IPFlag=           0 FMFlag=      100000 FMFlg1=           0
         NFxFlg=           0 DoJE=T BraDBF=F KetDBF=T FulRan=T
         wScrn=  0.000000 ICntrl=       500 IOpCl=  0 I1Cent=   200000004 NGrid=           0
         NMat0=    1 NMatS0=      1 NMatT0=    0 NMatD0=    1 NMtDS0=    0 NMtDT0=    0
 Symmetry not used in FoFCou.
 Keep R1 ints in memory in canonical form, NReq=1019524.
 Requested convergence on RMS density matrix=1.00D-08 within 128 cycles.
 Requested convergence on MAX density matrix=1.00D-06.
 Requested convergence on             energy=1.00D-06.
 No special actions if energy rises.
 SCF Done:  E(RHF) =  -243.638050540     A.U. after   12 cycles
            NFock= 12  Conv=0.26D-08     -V/T= 2.0091

 **********************************************************************

            Population analysis using the SCF Density.

 **********************************************************************

 Alpha  occ. eigenvalues --  -15.34062 -11.07349 -11.07328 -11.05718 -11.04690
 Alpha  occ. eigenvalues --  -11.04683  -1.20035  -1.03181  -0.97659  -0.80194
 Alpha  occ. eigenvalues --   -0.79460  -0.67397  -0.60609  -0.59063  -0.54830
 Alpha  occ. eigenvalues --   -0.51836  -0.49197  -0.45733  -0.33549  -0.32053
 Alpha  occ. eigenvalues --   -0.29894
 Alpha virt. eigenvalues --    0.24279   0.25033   0.48234   0.57700   0.62770
 Alpha virt. eigenvalues --    0.67077   0.70626   0.70877   0.76593   0.85728
 Alpha virt. eigenvalues --    0.87615   0.88397   1.07559   1.09059
          Condensed to atoms (all electrons):
               1          2          3          4          5          6
     1  N    6.489010  -0.006753   0.434392   0.434392  -0.024075  -0.024075
     2  C   -0.006753   4.758630  -0.031239  -0.031239   0.506042   0.506042
     3  C    0.434392  -0.031239   4.749126  -0.048956  -0.014816   0.501937
     4  C    0.434392  -0.031239  -0.048956   4.749126   0.501937  -0.014816
     5  C   -0.024075   0.506042  -0.014816   0.501937   4.790813  -0.031073
     6  C   -0.024075   0.506042   0.501937  -0.014816  -0.031073   4.790813
     7  H   -0.000005   0.393602   0.001374   0.001374  -0.024604  -0.024604
     8  H   -0.029874   0.001339   0.394173   0.002535  -0.000017  -0.028968
     9  H   -0.029874   0.001339   0.002535   0.394173  -0.028968  -0.000017
    10  H    0.000879  -0.024102   0.000047  -0.024143   0.393927   0.001369
    11  H    0.000879  -0.024102  -0.024143   0.000047   0.001369   0.393927
               7          8          9         10         11
     1  N   -0.000005  -0.029874  -0.029874   0.000879   0.000879
     2  C    0.393602   0.001339   0.001339  -0.024102  -0.024102
     3  C    0.001374   0.394173   0.002535   0.000047  -0.024143
     4  C    0.001374   0.002535   0.394173  -0.024143   0.000047
     5  C   -0.024604  -0.000017  -0.028968   0.393927   0.001369
     6  C   -0.024604  -0.028968  -0.000017   0.001369   0.393927
     7  H    0.586706  -0.000033  -0.000033  -0.003364  -0.003364
     8  H   -0.000033   0.590470  -0.000038   0.000003  -0.002931
     9  H   -0.000033  -0.000038   0.590470  -0.002931   0.000003
    10  H   -0.003364   0.000003  -0.002931   0.585967  -0.000030
    11  H   -0.003364  -0.002931   0.000003  -0.000030   0.585967
 Mulliken charges:
               1
     1  N   -0.244897
     2  C   -0.049559
     3  C    0.035569
     4  C    0.035569
     5  C   -0.070534
     6  C   -0.070534
     7  H    0.072950
     8  H    0.073340
     9  H    0.073340
    10  H    0.072377
    11  H    0.072377
 Sum of Mulliken charges =  -0.00000
 Mulliken charges with hydrogens summed into heavy atoms:
               1
     1  N   -0.244897
     2  C    0.023391
     3  C    0.108909
     4  C    0.108909
     5  C    0.001843
     6  C    0.001843
 Electronic spatial extent (au):  <R**2>=            431.2828
 Charge=             -0.0000 electrons
 Dipole moment (field-independent basis, Debye):
    X=             -0.0000    Y=              0.0000    Z=             -2.0480  Tot=              2.0480
 Quadrupole moment (field-independent basis, Debye-Ang):
   XX=            -33.6958   YY=            -29.0288   ZZ=            -35.1053
   XY=              0.0000   XZ=              0.0000   YZ=              0.0000
 Traceless Quadrupole moment (field-independent basis, Debye-Ang):
   XX=             -1.0858   YY=              3.5812   ZZ=             -2.4953
   XY=              0.0000   XZ=              0.0000   YZ=              0.0000
 Octapole moment (field-independent basis, Debye-Ang**2):
  XXX=             -0.0000  YYY=              0.0000  ZZZ=            -10.8755  XYY=              0.0000
  XXY=              0.0000  XXZ=              1.5676  XZZ=             -0.0000  YZZ=              0.0000
  YYZ=              1.8658  XYZ=              0.0000
 Hexadecapole moment (field-independent basis, Debye-Ang**3):
 XXXX=            -26.4097 YYYY=           -241.6385 ZZZZ=           -261.4030 XXXY=              0.0000
 XXXZ=              0.0000 YYYX=              0.0000 YYYZ=             -0.0000 ZZZX=              0.0000
 ZZZY=              0.0000 XXYY=            -50.5667 XXZZ=            -47.8684 YYZZ=            -77.4405
 XXYZ=              0.0000 YYXZ=             -0.0000 ZZXY=              0.0000
 N-N= 2.057907058986D+02 E-N=-9.797221957542D+02  KE= 2.414351248714D+02
 Running external command "gaunbo7 R"
         input file       "/cluster/work/users/beto93/mol134/Gau-1107916.EIn"
         output file      "/cluster/work/users/beto93/mol134/Gau-1107916.EOu"
         message file     "/cluster/work/users/beto93/mol134/Gau-1107916.EMs"
         fchk file        "/cluster/work/users/beto93/mol134/Gau-1107916.EFC"
         mat. el file     "/cluster/work/users/beto93/mol134/Gau-1107916.EUF"

 Writing WrtUnf unformatted file "/cluster/work/users/beto93/mol134/Gau-1107916.EUF"
 Gaussian matrix elements                                         Version   2 NLab=11 Len12L=8 Len4L=8
 Write SHELL TO ATOM MAP                   from file      0 offset           0 length                  17 to matrix element file.
 Write SHELL TYPES                         from file      0 offset           0 length                  17 to matrix element file.
 Write NUMBER OF PRIMITIVES PER SHELL      from file      0 offset           0 length                  17 to matrix element file.
 Write PRIMITIVE EXPONENTS                 from file      0 offset           0 length                  51 to matrix element file.
 Write CONTRACTION COEFFICIENTS            from file      0 offset           0 length                  51 to matrix element file.
 Write P(S=P) CONTRACTION COEFFICIENTS     from file      0 offset           0 length                  51 to matrix element file.
 Write COORDINATES OF EACH SHELL           from file      0 offset           0 length                  51 to matrix element file.
 Write BONDS PER ATOM                      from file      0 offset           0 length                  11 to matrix element file.
 Write BONDED ATOMS                        from file      0 offset           0 length                  22 to matrix element file.
 Write BOND TYPES                          from file      0 offset           0 length                  22 to matrix element file.
 Write ONIOM CHARGE/MULT                   from file      0 offset           0 length                  32 to matrix element file.
 Write ONIOM ATOM LAYERS                   from file      0 offset           0 length                  11 to matrix element file.
 Write ONIOM ATOM MODIFIERS                from file      0 offset           0 length                  11 to matrix element file.
 Write ONIOM ATOM TYPES                    from file      0 offset           0 length                  11 to matrix element file.
 Write ONIOM LINK ATOMS                    from file      0 offset           0 length                  11 to matrix element file.
 Write ONIOM LINK CHARGES                  from file      0 offset           0 length                  11 to matrix element file.
 Write ONIOM LINK DISTANCES                from file      0 offset           0 length                  44 to matrix element file.
 Write SYMINF INTS                         from file      0 offset           0 length                  26 to matrix element file.
 Write ROTTR TO SO                         from file      0 offset           0 length                  12 to matrix element file.
 Write GAUSSIAN SCALARS                    from file    501 offset           0 to matrix element file.
 Write OPTIMIZATION FLAGS                  from file      0 offset           0 length                  11 to matrix element file.
 Write INTEGER ISO                         from file      0 offset           0 length                  11 to matrix element file.
 Write INTEGER SPIN                        from file      0 offset           0 length                  11 to matrix element file.
 Write REAL ZEFFECTIVE                     from file      0 offset           0 length                  11 to matrix element file.
 Write REAL QUADRUPOLEMOMENT               from file      0 offset           0 length                  11 to matrix element file.
 Write REAL GFACTOR                        from file      0 offset           0 length                  11 to matrix element file.
 Write REAL ZNUCLEAR                       from file      0 offset           0 length                  11 to matrix element file.
 Write MULLIKEN CHARGES                    from file      0 offset           0 length                  11 to matrix element file.
 Write NUCLEAR GRADIENT                    from file  10584 offset           0 length                  33 to matrix element file.
 Array NUCLEAR FORCE CONSTANTS              on  file  10585 does not exist.
 Write ELECTRIC DIPOLE MOMENT              from file      0 offset           0 length                   3 to matrix element file.
 Write NON-ADIABATIC COUPLING              from file  10810 offset           0 length                  33 to matrix element file.
 Write FINITE EM FIELD                     from file  10521 offset           0 length                  35 to matrix element file.
 Write OVERLAP                             from file  10514 offset           0 length                 630 to matrix element file.
 Write CORE HAMILTONIAN ALPHA              from file  10515 offset           0 length                 630 to matrix element file.
 Write CORE HAMILTONIAN BETA               from file  10515 offset         630 length                 630 to matrix element file.
 Write KINETIC ENERGY                      from file  10516 offset           0 length                 630 to matrix element file.
 Write ORTHOGONAL BASIS                    from file  10685 offset           0 length                1225 to matrix element file.
 Write DIPOLE INTEGRALS                    from file  10518 offset           0 length                1890 to matrix element file.
 Array DIP VEL INTEGRALS                    on  file  10572 does not exist.
 Array R X DEL INTEGRALS                    on  file  10572 does not exist.
 Write ALPHA ORBITAL ENERGIES              from file      0 offset           0 length                  35 to matrix element file.
 Write ALPHA MO COEFFICIENTS               from file  10524 offset           0 length                1225 to matrix element file.
 Write ALPHA DENSITY MATRIX                from file      0 offset           0 length                 630 to matrix element file.
 Write ALPHA FOCK MATRIX                   from file  10536 offset           0 length                 630 to matrix element file.
 Write ENERGY-WEIGHTED DENSITY             from file  10571 offset           0 length                 630 to matrix element file.
 Write ALPHA SCF DENSITY MATRIX            from file      0 offset           0 length                 630 to matrix element file.
 No 2e integrals to process.
 Perform NBO analysis...executing G16NBO...

 *********************************** NBO 7.0 ***********************************
             N A T U R A L   A T O M I C   O R B I T A L   A N D
          N A T U R A L   B O N D   O R B I T A L   A N A L Y S I S
 **************************** Espen Tangen (S101595) ***************************
  (c) Copyright 1996-2021 Board of Regents of the University of Wisconsin System
      on behalf of the Theoretical Chemistry Institute.  All rights reserved.

          Cite this program [NBO 7.0.10 (8-Feb-2021)] as:

          NBO 7.0.  E. D. Glendening, J. K. Badenhoop, A. E. Reed,
          J. E. Carpenter, J. A. Bohmann, C. M. Morales, P. Karafiloglou,
          C. R. Landis, and F. Weinhold, Theoretical Chemistry Institute,
          University of Wisconsin, Madison, WI (2018)

       /NPA    / : Natural Population Analysis
       /AOPNAO / : Print the AO to PNAO transformation
       /AONAO  / : Print the AO to NAO transformation
       /AOMO   / : Print the MOs in the AO basis
       /BOAO   / : Print the AO bond-order matrix
       /DMAO   / : Print the AO density matrix
       /DMPNAO / : Print the PNAO density matrix
       /DMNAO  / : Print the NAO density matrix
       /DMMO   / : Print the MO density matrix
       /SAO    / : Print the AO overlap matrix
       /SPNAO  / : Print the PNAO overlap matrix
       /DETAIL / : Write details of NBO search
       /ARCHIVE/ : Write the archive file to lfn47
       /AOINFO / : Write AO information to lfn31
       /FILE   / : Set to mol134.gen*

 Filename set to mol134.gen1

 Job title: mol134-NBO


 MOs in the AO basis:

           AO          1       2       3       4       5       6       7       8
      ------------ ------- ------- ------- ------- ------- ------- ------- -------
   1.  N 1 (s)      0.9936  0.0000  0.0005  0.0000  0.0000  0.0000 -0.1723  0.1003
   2.  N 1 (s)      0.0308  0.0000 -0.0086  0.0000  0.0000  0.0006  0.5508 -0.3413
   3.  N 1 (px)     0.0000  0.0000  0.0000  0.0000  0.0000  0.0000  0.0000  0.0000
   4.  N 1 (py)     0.0000 -0.0043  0.0000  0.0000 -0.0001  0.0000  0.0000  0.0000
   5.  N 1 (pz)    -0.0061  0.0000  0.0024  0.0000  0.0000 -0.0003 -0.1444  0.0434
   6.  C 2 (s)      0.0000  0.0000 -0.0030  0.9920  0.0000 -0.0192 -0.0447 -0.1644
   7.  C 2 (s)     -0.0002  0.0000  0.0002  0.0362  0.0000 -0.0109  0.1082  0.4327
   8.  C 2 (px)     0.0000  0.0000  0.0000  0.0000  0.0000  0.0000  0.0000  0.0000
   9.  C 2 (py)     0.0000  0.0001  0.0000  0.0000  0.0054  0.0000  0.0000  0.0000
  10.  C 2 (pz)    -0.0001  0.0000 -0.0002  0.0013  0.0000 -0.0034  0.0346  0.0687
  11.  C 3 (s)      0.0005  0.7016  0.7018  0.0022  0.0047 -0.0021 -0.1091  0.0069
  12.  C 3 (s)     -0.0069  0.0251  0.0247  0.0001  0.0052 -0.0053  0.2571 -0.0145
  13.  C 3 (px)     0.0000  0.0000  0.0000  0.0000  0.0000  0.0000  0.0000  0.0000
  14.  C 3 (py)     0.0048 -0.0009 -0.0001  0.0002  0.0002  0.0002 -0.0924  0.0583
  15.  C 3 (pz)    -0.0024 -0.0006 -0.0002  0.0000 -0.0031  0.0033  0.0156 -0.1090
  16.  C 4 (s)      0.0005 -0.7016  0.7018  0.0022 -0.0047 -0.0021 -0.1091  0.0069
  17.  C 4 (s)     -0.0069 -0.0251  0.0247  0.0001 -0.0052 -0.0053  0.2571 -0.0145
  18.  C 4 (px)     0.0000  0.0000  0.0000  0.0000  0.0000  0.0000  0.0000  0.0000
  19.  C 4 (py)    -0.0048 -0.0009  0.0001 -0.0002  0.0002 -0.0002  0.0924 -0.0583
  20.  C 4 (pz)    -0.0024  0.0006 -0.0002  0.0000  0.0031  0.0033  0.0156 -0.1090
  21.  C 5 (s)      0.0000 -0.0052  0.0026  0.0144  0.7015  0.7014 -0.0556 -0.1174
  22.  C 5 (s)      0.0004  0.0048 -0.0048 -0.0067  0.0257  0.0261  0.1359  0.3060
  23.  C 5 (px)     0.0000  0.0000  0.0000  0.0000  0.0000  0.0000  0.0000  0.0000
  24.  C 5 (py)     0.0004  0.0001 -0.0004 -0.0039  0.0009  0.0009  0.0283  0.0798
  25.  C 5 (pz)     0.0002  0.0031 -0.0032  0.0022  0.0006  0.0004  0.0376 -0.0403
  26.  C 6 (s)      0.0000  0.0052  0.0026  0.0144 -0.7015  0.7014 -0.0556 -0.1174
  27.  C 6 (s)      0.0004 -0.0048 -0.0048 -0.0067 -0.0257  0.0261  0.1359  0.3060
  28.  C 6 (px)     0.0000  0.0000  0.0000  0.0000  0.0000  0.0000  0.0000  0.0000
  29.  C 6 (py)    -0.0004  0.0001  0.0004  0.0039  0.0009 -0.0009 -0.0283 -0.0798
  30.  C 6 (pz)     0.0002 -0.0031 -0.0032  0.0022 -0.0006  0.0004  0.0376 -0.0403
  31.  H 7 (s)      0.0000  0.0000 -0.0001 -0.0067  0.0000  0.0003  0.0147  0.0959
  32.  H 8 (s)      0.0001 -0.0047 -0.0049 -0.0001 -0.0001  0.0000  0.0380 -0.0068
  33.  H 9 (s)      0.0001  0.0047 -0.0049 -0.0001  0.0001  0.0000  0.0380 -0.0068
  34.  H10 (s)      0.0000 -0.0001  0.0000  0.0000 -0.0047 -0.0048  0.0183  0.0675
  35.  H11 (s)      0.0000  0.0001  0.0000  0.0000  0.0047 -0.0048  0.0183  0.0675

           AO          9      10      11      12      13      14      15      16
      ------------ ------- ------- ------- ------- ------- ------- ------- -------
   1.  N 1 (s)      0.0000 -0.0808  0.0000  0.0232 -0.0557  0.0000  0.0000 -0.0401
   2.  N 1 (s)      0.0000  0.3024  0.0000 -0.1020  0.2354  0.0000  0.0000  0.1853
   3.  N 1 (px)     0.0000  0.0000  0.0000  0.0000  0.0000  0.0000  0.0000  0.0000
   4.  N 1 (py)     0.1554  0.0000  0.2775  0.0000  0.0000  0.3552 -0.0951  0.0000
   5.  N 1 (pz)     0.0000  0.0026  0.0000 -0.1693 -0.0218  0.0000  0.0000  0.3052
   6.  C 2 (s)      0.0000 -0.1289  0.0000  0.0263  0.0650  0.0000  0.0000 -0.0126
   7.  C 2 (s)      0.0000  0.3788  0.0000 -0.0939 -0.2154  0.0000  0.0000  0.0327
   8.  C 2 (px)     0.0000  0.0000  0.0000  0.0000  0.0000  0.0000  0.0000  0.0000
   9.  C 2 (py)     0.1270  0.0000 -0.2245  0.0000  0.0000  0.3191 -0.1175  0.0000
  10.  C 2 (pz)     0.0000 -0.0844  0.0000  0.2912  0.0081  0.0000  0.0000  0.4560
  11.  C 3 (s)     -0.1305  0.0788 -0.0949  0.0221  0.0598  0.0097  0.0219  0.0316
  12.  C 3 (s)      0.3576 -0.2362  0.2858 -0.0790 -0.2030 -0.0259 -0.0727 -0.1065
  13.  C 3 (px)     0.0000  0.0000  0.0000  0.0000  0.0000  0.0000  0.0000  0.0000
  14.  C 3 (py)     0.0068 -0.1420 -0.0210 -0.1909 -0.1650 -0.1951  0.2421  0.1243
  15.  C 3 (pz)    -0.0635  0.1361  0.1552 -0.1721 -0.0456  0.2726  0.2118  0.2022
  16.  C 4 (s)      0.1305  0.0788  0.0949  0.0221  0.0598 -0.0097 -0.0219  0.0316
  17.  C 4 (s)     -0.3576 -0.2362 -0.2858 -0.0790 -0.2030  0.0259  0.0727 -0.1065
  18.  C 4 (px)     0.0000  0.0000  0.0000  0.0000  0.0000  0.0000  0.0000  0.0000
  19.  C 4 (py)     0.0068  0.1420 -0.0210  0.1909  0.1650 -0.1951  0.2421 -0.1243
  20.  C 4 (pz)     0.0635  0.1361 -0.1552 -0.1721 -0.0456 -0.2726 -0.2118  0.2022
  21.  C 5 (s)      0.1245  0.0525 -0.1021 -0.0068 -0.0586  0.0059 -0.0224 -0.0240
  22.  C 5 (s)     -0.3355 -0.1527  0.2990  0.0119  0.2011 -0.0214  0.0705  0.0868
  23.  C 5 (px)     0.0000  0.0000  0.0000  0.0000  0.0000  0.0000  0.0000  0.0000
  24.  C 5 (py)     0.0065  0.1306 -0.0093  0.1893 -0.2415 -0.1272  0.2715  0.1106
  25.  C 5 (pz)    -0.0718 -0.1784 -0.1181  0.1194 -0.1255  0.2939  0.1929 -0.1931
  26.  C 6 (s)     -0.1245  0.0525  0.1021 -0.0068 -0.0586 -0.0059  0.0224 -0.0240
  27.  C 6 (s)      0.3355 -0.1527 -0.2990  0.0119  0.2011  0.0214 -0.0705  0.0868
  28.  C 6 (px)     0.0000  0.0000  0.0000  0.0000  0.0000  0.0000  0.0000  0.0000
  29.  C 6 (py)     0.0065 -0.1306 -0.0093 -0.1893  0.2415 -0.1272  0.2715 -0.1106
  30.  C 6 (pz)     0.0718 -0.1784  0.1181  0.1194 -0.1255 -0.2939 -0.1929 -0.1931
  31.  H 7 (s)      0.0000  0.1875  0.0000 -0.2374 -0.1095  0.0000  0.0000 -0.4082
  32.  H 8 (s)      0.0914 -0.1116  0.1366 -0.1936 -0.2192 -0.0316  0.2343  0.1246
  33.  H 9 (s)     -0.0914 -0.1116 -0.1366 -0.1936 -0.2192  0.0316 -0.2343  0.1246
  34.  H10 (s)     -0.0894 -0.0746  0.1485 -0.1444  0.3052 -0.0303 -0.2527  0.0396
  35.  H11 (s)      0.0894 -0.0746 -0.1485 -0.1444  0.3052  0.0303  0.2527  0.0396

           AO         17      18      19      20      21      22      23      24
      ------------ ------- ------- ------- ------- ------- ------- ------- -------
   1.  N 1 (s)      0.0000  0.0000 -0.0898  0.0000  0.0000  0.0000  0.0000  0.0000
   2.  N 1 (s)      0.0000  0.0000  0.4747  0.0000  0.0000  0.0000  0.0000  0.0000
   3.  N 1 (px)     0.3959  0.0000  0.0000 -0.5171  0.0000  0.6360  0.0000  0.5067
   4.  N 1 (py)     0.0000 -0.3067  0.0000  0.0000  0.0000  0.0000  0.0000  0.0000
   5.  N 1 (pz)     0.0000  0.0000  0.7409  0.0000  0.0000  0.0000  0.0000  0.0000
   6.  C 2 (s)      0.0000  0.0000  0.0051  0.0000  0.0000  0.0000  0.0000  0.0000
   7.  C 2 (s)      0.0000  0.0000 -0.0138  0.0000  0.0000  0.0000  0.0000  0.0000
   8.  C 2 (px)     0.2899  0.0000  0.0000  0.5412  0.0000  0.6672  0.0000 -0.5279
   9.  C 2 (py)     0.0000  0.3512  0.0000  0.0000  0.0000  0.0000  0.0000  0.0000
  10.  C 2 (pz)     0.0000  0.0000 -0.0891  0.0000  0.0000  0.0000  0.0000  0.0000
  11.  C 3 (s)      0.0000  0.0023  0.0239  0.0000  0.0000  0.0000  0.0000  0.0000
  12.  C 3 (s)      0.0000 -0.0067 -0.0934  0.0000  0.0000  0.0000  0.0000  0.0000
  13.  C 3 (px)     0.3568  0.0000  0.0000 -0.2241  0.4630 -0.3387  0.5721 -0.5093
  14.  C 3 (py)     0.0000  0.2908  0.0930  0.0000  0.0000  0.0000  0.0000  0.0000
  15.  C 3 (pz)     0.0000  0.0259 -0.2034  0.0000  0.0000  0.0000  0.0000  0.0000
  16.  C 4 (s)      0.0000 -0.0023  0.0239  0.0000  0.0000  0.0000  0.0000  0.0000
  17.  C 4 (s)      0.0000  0.0067 -0.0934  0.0000  0.0000  0.0000  0.0000  0.0000
  18.  C 4 (px)     0.3568  0.0000  0.0000 -0.2241 -0.4630 -0.3387 -0.5721 -0.5093
  19.  C 4 (py)     0.0000  0.2908 -0.0930  0.0000  0.0000  0.0000  0.0000  0.0000
  20.  C 4 (pz)     0.0000 -0.0259 -0.2034  0.0000  0.0000  0.0000  0.0000  0.0000
  21.  C 5 (s)      0.0000  0.0019 -0.0233  0.0000  0.0000  0.0000  0.0000  0.0000
  22.  C 5 (s)      0.0000  0.0033  0.0916  0.0000  0.0000  0.0000  0.0000  0.0000
  23.  C 5 (px)     0.3025  0.0000  0.0000  0.3045 -0.4605 -0.3141  0.5705  0.5296
  24.  C 5 (py)     0.0000 -0.2978  0.0035  0.0000  0.0000  0.0000  0.0000  0.0000
  25.  C 5 (pz)     0.0000  0.0620  0.2398  0.0000  0.0000  0.0000  0.0000  0.0000
  26.  C 6 (s)      0.0000 -0.0019 -0.0233  0.0000  0.0000  0.0000  0.0000  0.0000
  27.  C 6 (s)      0.0000 -0.0033  0.0916  0.0000  0.0000  0.0000  0.0000  0.0000
  28.  C 6 (px)     0.3025  0.0000  0.0000  0.3045  0.4605 -0.3141 -0.5705  0.5296
  29.  C 6 (py)     0.0000 -0.2978 -0.0035  0.0000  0.0000  0.0000  0.0000  0.0000
  30.  C 6 (pz)     0.0000 -0.0620  0.2398  0.0000  0.0000  0.0000  0.0000  0.0000
  31.  H 7 (s)      0.0000  0.0000  0.1174  0.0000  0.0000  0.0000  0.0000  0.0000
  32.  H 8 (s)      0.0000  0.2683 -0.1592  0.0000  0.0000  0.0000  0.0000  0.0000
  33.  H 9 (s)      0.0000 -0.2683 -0.1592  0.0000  0.0000  0.0000  0.0000  0.0000
  34.  H10 (s)      0.0000  0.2475 -0.1038  0.0000  0.0000  0.0000  0.0000  0.0000
  35.  H11 (s)      0.0000 -0.2475 -0.1038  0.0000  0.0000  0.0000  0.0000  0.0000

           AO         25      26      27      28      29      30      31      32
      ------------ ------- ------- ------- ------- ------- ------- ------- -------
   1.  N 1 (s)      0.0183  0.0000  0.1118 -0.0405  0.0000 -0.0732  0.0000  0.0771
   2.  N 1 (s)     -0.1300  0.0000 -0.7517  0.2890  0.0000  0.5088  0.0000 -0.5837
   3.  N 1 (px)     0.0000  0.0000  0.0000  0.0000  0.0000  0.0000  0.0000  0.0000
   4.  N 1 (py)     0.0000  0.3419  0.0000  0.0000 -0.3858  0.0000 -0.5175  0.0000
   5.  N 1 (pz)     0.1451  0.0000  0.3601 -0.1300  0.0000 -0.5138  0.0000  0.2256
   6.  C 2 (s)      0.0665  0.0000  0.0013 -0.2002  0.0000 -0.0338  0.0000 -0.0812
   7.  C 2 (s)     -0.4241  0.0000 -0.0188  1.2790  0.0000  0.2357  0.0000  0.5864
   8.  C 2 (px)     0.0000  0.0000  0.0000  0.0000  0.0000  0.0000  0.0000  0.0000
   9.  C 2 (py)     0.0000  0.3090  0.0000  0.0000  0.4432  0.0000 -0.1973  0.0000
  10.  C 2 (pz)     0.4920  0.0000  0.1397 -0.0287  0.0000  0.7330  0.0000 -0.2862
  11.  C 3 (s)      0.0403 -0.0145 -0.1411 -0.0056 -0.1429  0.0554 -0.0583  0.0446
  12.  C 3 (s)     -0.2548  0.1089  0.8751  0.0296  0.9125 -0.3638  0.4035 -0.3324
  13.  C 3 (px)     0.0000  0.0000  0.0000  0.0000  0.0000  0.0000  0.0000  0.0000
  14.  C 3 (py)    -0.2504  0.5101  0.0323  0.1803  0.0962  0.4679 -0.5282 -0.4955
  15.  C 3 (pz)     0.0217  0.1250  0.4234 -0.2360 -0.2031  0.3157 -0.2189  0.5953
  16.  C 4 (s)      0.0403  0.0145 -0.1411 -0.0056  0.1429  0.0554  0.0583  0.0446
  17.  C 4 (s)     -0.2548 -0.1089  0.8751  0.0296 -0.9125 -0.3638 -0.4035 -0.3324
  18.  C 4 (px)     0.0000  0.0000  0.0000  0.0000  0.0000  0.0000  0.0000  0.0000
  19.  C 4 (py)     0.2504  0.5101 -0.0323 -0.1803  0.0962 -0.4679 -0.5282  0.4955
  20.  C 4 (pz)     0.0217 -0.1250  0.4234 -0.2360  0.2031  0.3157  0.2189  0.5953
  21.  C 5 (s)      0.0493  0.0320  0.0394  0.1373 -0.1399 -0.0204  0.0224 -0.0544
  22.  C 5 (s)     -0.3153 -0.2071 -0.2306 -0.8759  0.9027  0.1234 -0.1550  0.3940
  23.  C 5 (px)     0.0000  0.0000  0.0000  0.0000  0.0000  0.0000  0.0000  0.0000
  24.  C 5 (py)     0.3090  0.4880  0.0985 -0.0952 -0.0269 -0.3576  0.4485 -0.2542
  25.  C 5 (pz)     0.2969  0.0558 -0.0024  0.2750  0.2313  0.3597  0.5678  0.6094
  26.  C 6 (s)      0.0493 -0.0320  0.0394  0.1373  0.1399 -0.0204 -0.0224 -0.0544
  27.  C 6 (s)     -0.3153  0.2071 -0.2306 -0.8759 -0.9027  0.1234  0.1550  0.3940
  28.  C 6 (px)     0.0000  0.0000  0.0000  0.0000  0.0000  0.0000  0.0000  0.0000
  29.  C 6 (py)    -0.3090  0.4880 -0.0985  0.0952 -0.0269  0.3576  0.4485  0.2542
  30.  C 6 (pz)     0.2969 -0.0558 -0.0024  0.2750 -0.2313  0.3597 -0.5678  0.6094
  31.  H 7 (s)      0.7415  0.0000  0.1293 -0.6596  0.0000  0.5379  0.0000 -0.4338
  32.  H 8 (s)      0.3355 -0.5464 -0.7096 -0.0489 -0.4286 -0.3010  0.2818  0.1934
  33.  H 9 (s)      0.3355  0.5464 -0.7096 -0.0489  0.4286 -0.3010 -0.2818  0.1934
  34.  H10 (s)      0.5985  0.5669  0.2220  0.4804 -0.3624 -0.1845  0.5794 -0.0964
  35.  H11 (s)      0.5985 -0.5669  0.2220  0.4804  0.3624 -0.1845 -0.5794 -0.0964

           AO         33      34      35
      ------------ ------- ------- -------
   1.  N 1 (s)      0.0000  0.0000  0.0583
   2.  N 1 (s)      0.0000  0.0000 -0.4385
   3.  N 1 (px)     0.0000  0.0000  0.0000
   4.  N 1 (py)     0.5259  0.7658  0.0000
   5.  N 1 (pz)     0.0000  0.0000  0.3819
   6.  C 2 (s)      0.0000  0.0000 -0.0774
   7.  C 2 (s)      0.0000  0.0000  0.5895
   8.  C 2 (px)     0.0000  0.0000  0.0000
   9.  C 2 (py)     0.9033 -0.6733  0.0000
  10.  C 2 (pz)     0.0000  0.0000  0.8112
  11.  C 3 (s)      0.0609  0.0060 -0.0503
  12.  C 3 (s)     -0.4190 -0.0205  0.3721
  13.  C 3 (px)     0.0000  0.0000  0.0000
  14.  C 3 (py)    -0.1528  0.3771 -0.4590
  15.  C 3 (pz)    -0.5078 -0.6962 -0.2982
  16.  C 4 (s)     -0.0609 -0.0060 -0.0503
  17.  C 4 (s)      0.4190  0.0205  0.3721
  18.  C 4 (px)     0.0000  0.0000  0.0000
  19.  C 4 (py)    -0.1528  0.3771  0.4590
  20.  C 4 (pz)     0.5078  0.6962 -0.2982
  21.  C 5 (s)     -0.0833 -0.0076  0.0635
  22.  C 5 (s)      0.6015  0.0584 -0.4718
  23.  C 5 (px)     0.0000  0.0000  0.0000
  24.  C 5 (py)     0.4240 -0.3258 -0.7274
  25.  C 5 (pz)    -0.2063  0.6438 -0.2880
  26.  C 6 (s)      0.0833  0.0076  0.0635
  27.  C 6 (s)     -0.6015 -0.0584 -0.4718
  28.  C 6 (px)     0.0000  0.0000  0.0000
  29.  C 6 (py)     0.4240 -0.3258  0.7274
  30.  C 6 (pz)     0.2063 -0.6438 -0.2880
  31.  H 7 (s)      0.0000  0.0000  0.3332
  32.  H 8 (s)      0.4721  0.0577  0.2200
  33.  H 9 (s)     -0.4721 -0.0577  0.2200
  34.  H10 (s)     -0.0069 -0.0062 -0.3502
  35.  H11 (s)      0.0069  0.0062 -0.3502


 AO overlap matrix:

           AO          1       2       3       4       5       6       7       8
      ------------ ------- ------- ------- ------- ------- ------- ------- -------
   1.  N 1 (s)      1.0000  0.2350  0.0000  0.0000  0.0000  0.0000  0.0003  0.0000
   2.  N 1 (s)      0.2350  1.0000  0.0000  0.0000  0.0000  0.0001  0.0163  0.0000
   3.  N 1 (px)     0.0000  0.0000  1.0000  0.0000  0.0000  0.0000  0.0000  0.0060
   4.  N 1 (py)     0.0000  0.0000  0.0000  1.0000  0.0000  0.0000  0.0000  0.0000
   5.  N 1 (pz)     0.0000  0.0000  0.0000  0.0000  1.0000 -0.0003 -0.0258  0.0000
   6.  C 2 (s)      0.0000  0.0001  0.0000  0.0000 -0.0003  1.0000  0.2484  0.0000
   7.  C 2 (s)      0.0003  0.0163  0.0000  0.0000 -0.0258  0.2484  1.0000  0.0000
   8.  C 2 (px)     0.0000  0.0000  0.0060  0.0000  0.0000  0.0000  0.0000  1.0000
   9.  C 2 (py)     0.0000  0.0000  0.0000  0.0060  0.0000  0.0000  0.0000  0.0000
  10.  C 2 (pz)     0.0008  0.0286  0.0000  0.0000 -0.0423  0.0000  0.0000  0.0000
  11.  C 3 (s)      0.0000  0.0338  0.0000  0.0480 -0.0296  0.0000  0.0020  0.0000
  12.  C 3 (s)      0.0334  0.3480  0.0000  0.2955 -0.1819  0.0020  0.0638  0.0000
  13.  C 3 (px)     0.0000  0.0000  0.1999  0.0000  0.0000  0.0000  0.0000  0.0268
  14.  C 3 (py)    -0.0473 -0.3423  0.0000 -0.1794  0.2335 -0.0022 -0.0446  0.0000
  15.  C 3 (pz)     0.0291  0.2107  0.0000  0.2335  0.0562 -0.0040 -0.0821  0.0000
  16.  C 4 (s)      0.0000  0.0338  0.0000 -0.0480 -0.0296  0.0000  0.0020  0.0000
  17.  C 4 (s)      0.0334  0.3480  0.0000 -0.2955 -0.1819  0.0020  0.0638  0.0000
  18.  C 4 (px)     0.0000  0.0000  0.1999  0.0000  0.0000  0.0000  0.0000  0.0268
  19.  C 4 (py)     0.0473  0.3423  0.0000 -0.1794 -0.2335  0.0022  0.0446  0.0000
  20.  C 4 (pz)     0.0291  0.2107  0.0000 -0.2335  0.0562 -0.0040 -0.0821  0.0000
  21.  C 5 (s)      0.0000  0.0007  0.0000 -0.0009 -0.0015  0.0000  0.0382  0.0000
  22.  C 5 (s)      0.0014  0.0442  0.0000 -0.0314 -0.0551  0.0382  0.3682  0.0000
  23.  C 5 (px)     0.0000  0.0000  0.0177  0.0000  0.0000  0.0000  0.0000  0.2158
  24.  C 5 (py)     0.0016  0.0350  0.0000 -0.0095 -0.0477  0.0543  0.3354  0.0000
  25.  C 5 (pz)     0.0028  0.0613  0.0000 -0.0477 -0.0659 -0.0324 -0.1999  0.0000
  26.  C 6 (s)      0.0000  0.0007  0.0000  0.0009 -0.0015  0.0000  0.0382  0.0000
  27.  C 6 (s)      0.0014  0.0442  0.0000  0.0314 -0.0551  0.0382  0.3682  0.0000
  28.  C 6 (px)     0.0000  0.0000  0.0177  0.0000  0.0000  0.0000  0.0000  0.2158
  29.  C 6 (py)    -0.0016 -0.0350  0.0000 -0.0095  0.0477 -0.0543 -0.3354  0.0000
  30.  C 6 (pz)     0.0028  0.0613  0.0000  0.0477 -0.0659 -0.0324 -0.1999  0.0000
  31.  H 7 (s)      0.0000  0.0010  0.0000  0.0000 -0.0017  0.0627  0.4926  0.0000
  32.  H 8 (s)      0.0053  0.0894  0.0000  0.1078 -0.0061  0.0001  0.0068  0.0000
  33.  H 9 (s)      0.0053  0.0894  0.0000 -0.1078 -0.0061  0.0001  0.0068  0.0000
  34.  H10 (s)      0.0001  0.0043  0.0000 -0.0043 -0.0053  0.0053  0.0957  0.0000
  35.  H11 (s)      0.0001  0.0043  0.0000  0.0043 -0.0053  0.0053  0.0957  0.0000

           AO          9      10      11      12      13      14      15      16
      ------------ ------- ------- ------- ------- ------- ------- ------- -------
   1.  N 1 (s)      0.0000  0.0008  0.0000  0.0334  0.0000 -0.0473  0.0291  0.0000
   2.  N 1 (s)      0.0000  0.0286  0.0338  0.3480  0.0000 -0.3423  0.2107  0.0338
   3.  N 1 (px)     0.0000  0.0000  0.0000  0.0000  0.1999  0.0000  0.0000  0.0000
   4.  N 1 (py)     0.0060  0.0000  0.0480  0.2955  0.0000 -0.1794  0.2335 -0.0480
   5.  N 1 (pz)     0.0000 -0.0423 -0.0296 -0.1819  0.0000  0.2335  0.0562 -0.0296
   6.  C 2 (s)      0.0000  0.0000  0.0000  0.0020  0.0000 -0.0022 -0.0040  0.0000
   7.  C 2 (s)      0.0000  0.0000  0.0020  0.0638  0.0000 -0.0446 -0.0821  0.0020
   8.  C 2 (px)     0.0000  0.0000  0.0000  0.0000  0.0268  0.0000  0.0000  0.0000
   9.  C 2 (py)     1.0000  0.0000  0.0022  0.0446  0.0000 -0.0076 -0.0634 -0.0022
  10.  C 2 (pz)     0.0000  1.0000  0.0040  0.0821  0.0000 -0.0634 -0.0899  0.0040
  11.  C 3 (s)      0.0022  0.0040  1.0000  0.2484  0.0000  0.0000  0.0000  0.0000
  12.  C 3 (s)      0.0446  0.0821  0.2484  1.0000  0.0000  0.0000  0.0000  0.0029
  13.  C 3 (px)     0.0000  0.0000  0.0000  0.0000  1.0000  0.0000  0.0000  0.0000
  14.  C 3 (py)    -0.0076 -0.0634  0.0000  0.0000  0.0000  1.0000  0.0000 -0.0063
  15.  C 3 (pz)    -0.0634 -0.0899  0.0000  0.0000  0.0000  0.0000  1.0000  0.0000
  16.  C 4 (s)     -0.0022  0.0040  0.0000  0.0029  0.0000 -0.0063  0.0000  1.0000
  17.  C 4 (s)     -0.0446  0.0821  0.0029  0.0799  0.0000 -0.1137  0.0000  0.2484
  18.  C 4 (px)     0.0000  0.0000  0.0000  0.0000  0.0345  0.0000  0.0000  0.0000
  19.  C 4 (py)    -0.0076  0.0634  0.0063  0.1137  0.0000 -0.1462  0.0000  0.0000
  20.  C 4 (pz)     0.0634 -0.0899  0.0000  0.0000  0.0000  0.0000  0.0345  0.0000
  21.  C 5 (s)     -0.0543  0.0324  0.0000  0.0006  0.0000 -0.0012 -0.0007  0.0000
  22.  C 5 (s)     -0.3354  0.1999  0.0006  0.0308  0.0000 -0.0419 -0.0250  0.0380
  23.  C 5 (px)     0.0000  0.0000  0.0000  0.0000  0.0121  0.0000  0.0000  0.0000
  24.  C 5 (py)    -0.1855  0.2393  0.0012  0.0419  0.0000 -0.0497 -0.0367  0.0024
  25.  C 5 (pz)     0.2393  0.0732  0.0007  0.0250  0.0000 -0.0367 -0.0098  0.0630
  26.  C 6 (s)      0.0543  0.0324  0.0000  0.0380  0.0000  0.0024 -0.0630  0.0000
  27.  C 6 (s)      0.3354  0.1999  0.0380  0.3676  0.0000  0.0146 -0.3897  0.0006
  28.  C 6 (px)     0.0000  0.0000  0.0000  0.0000  0.2153  0.0000  0.0000  0.0000
  29.  C 6 (py)    -0.1855 -0.2393 -0.0024 -0.0146  0.0000  0.2145  0.0203 -0.0012
  30.  C 6 (pz)    -0.2393  0.0732  0.0630  0.3897  0.0000  0.0203 -0.3274  0.0007
  31.  H 7 (s)      0.0000 -0.4683  0.0001  0.0068  0.0000 -0.0038 -0.0106  0.0001
  32.  H 8 (s)      0.0068  0.0089  0.0625  0.4917  0.0000  0.3939  0.2524  0.0002
  33.  H 9 (s)     -0.0068  0.0089  0.0002  0.0094  0.0000 -0.0150  0.0027  0.0625
  34.  H10 (s)     -0.1232  0.0116  0.0000  0.0023  0.0000 -0.0035 -0.0020  0.0054
  35.  H11 (s)      0.1232  0.0116  0.0054  0.0974  0.0000  0.0589 -0.1109  0.0000

           AO         17      18      19      20      21      22      23      24
      ------------ ------- ------- ------- ------- ------- ------- ------- -------
   1.  N 1 (s)      0.0334  0.0000  0.0473  0.0291  0.0000  0.0014  0.0000  0.0016
   2.  N 1 (s)      0.3480  0.0000  0.3423  0.2107  0.0007  0.0442  0.0000  0.0350
   3.  N 1 (px)     0.0000  0.1999  0.0000  0.0000  0.0000  0.0000  0.0177  0.0000
   4.  N 1 (py)    -0.2955  0.0000 -0.1794 -0.2335 -0.0009 -0.0314  0.0000 -0.0095
   5.  N 1 (pz)    -0.1819  0.0000 -0.2335  0.0562 -0.0015 -0.0551  0.0000 -0.0477
   6.  C 2 (s)      0.0020  0.0000  0.0022 -0.0040  0.0000  0.0382  0.0000  0.0543
   7.  C 2 (s)      0.0638  0.0000  0.0446 -0.0821  0.0382  0.3682  0.0000  0.3354
   8.  C 2 (px)     0.0000  0.0268  0.0000  0.0000  0.0000  0.0000  0.2158  0.0000
   9.  C 2 (py)    -0.0446  0.0000 -0.0076  0.0634 -0.0543 -0.3354  0.0000 -0.1855
  10.  C 2 (pz)     0.0821  0.0000  0.0634 -0.0899  0.0324  0.1999  0.0000  0.2393
  11.  C 3 (s)      0.0029  0.0000  0.0063  0.0000  0.0000  0.0006  0.0000  0.0012
  12.  C 3 (s)      0.0799  0.0000  0.1137  0.0000  0.0006  0.0308  0.0000  0.0419
  13.  C 3 (px)     0.0000  0.0345  0.0000  0.0000  0.0000  0.0000  0.0121  0.0000
  14.  C 3 (py)    -0.1137  0.0000 -0.1462  0.0000 -0.0012 -0.0419  0.0000 -0.0497
  15.  C 3 (pz)     0.0000  0.0000  0.0000  0.0345 -0.0007 -0.0250  0.0000 -0.0367
  16.  C 4 (s)      0.2484  0.0000  0.0000  0.0000  0.0000  0.0380  0.0000  0.0024
  17.  C 4 (s)      1.0000  0.0000  0.0000  0.0000  0.0380  0.3676  0.0000  0.0146
  18.  C 4 (px)     0.0000  1.0000  0.0000  0.0000  0.0000  0.0000  0.2153  0.0000
  19.  C 4 (py)     0.0000  0.0000  1.0000  0.0000 -0.0024 -0.0146  0.0000  0.2145
  20.  C 4 (pz)     0.0000  0.0000  0.0000  1.0000 -0.0630 -0.3897  0.0000 -0.0203
  21.  C 5 (s)      0.0380  0.0000 -0.0024 -0.0630  1.0000  0.2484  0.0000  0.0000
  22.  C 5 (s)      0.3676  0.0000 -0.0146 -0.3897  0.2484  1.0000  0.0000  0.0000
  23.  C 5 (px)     0.0000  0.2153  0.0000  0.0000  0.0000  0.0000  1.0000  0.0000
  24.  C 5 (py)     0.0146  0.0000  0.2145 -0.0203  0.0000  0.0000  0.0000  1.0000
  25.  C 5 (pz)     0.3897  0.0000 -0.0203 -0.3274  0.0000  0.0000  0.0000  0.0000
  26.  C 6 (s)      0.0006  0.0000  0.0012 -0.0007  0.0000  0.0020  0.0000  0.0046
  27.  C 6 (s)      0.0308  0.0000  0.0419 -0.0250  0.0020  0.0644  0.0000  0.0942
  28.  C 6 (px)     0.0000  0.0121  0.0000  0.0000  0.0000  0.0000  0.0271  0.0000
  29.  C 6 (py)    -0.0419  0.0000 -0.0497  0.0367 -0.0046 -0.0942  0.0000 -0.1252
  30.  C 6 (pz)     0.0250  0.0000  0.0367 -0.0098  0.0000  0.0000  0.0000  0.0000
  31.  H 7 (s)      0.0068  0.0000  0.0038 -0.0106  0.0053  0.0963  0.0000  0.0688
  32.  H 8 (s)      0.0094  0.0000  0.0150  0.0027  0.0000  0.0023  0.0000  0.0035
  33.  H 9 (s)      0.4917  0.0000 -0.3939  0.2524  0.0054  0.0964  0.0000 -0.0498
  34.  H10 (s)      0.0974  0.0000 -0.0589 -0.1109  0.0628  0.4930  0.0000 -0.4137
  35.  H11 (s)      0.0023  0.0000  0.0035 -0.0020  0.0001  0.0068  0.0000  0.0111

           AO         25      26      27      28      29      30      31      32
      ------------ ------- ------- ------- ------- ------- ------- ------- -------
   1.  N 1 (s)      0.0028  0.0000  0.0014  0.0000 -0.0016  0.0028  0.0000  0.0053
   2.  N 1 (s)      0.0613  0.0007  0.0442  0.0000 -0.0350  0.0613  0.0010  0.0894
   3.  N 1 (px)     0.0000  0.0000  0.0000  0.0177  0.0000  0.0000  0.0000  0.0000
   4.  N 1 (py)    -0.0477  0.0009  0.0314  0.0000 -0.0095  0.0477  0.0000  0.1078
   5.  N 1 (pz)    -0.0659 -0.0015 -0.0551  0.0000  0.0477 -0.0659 -0.0017 -0.0061
   6.  C 2 (s)     -0.0324  0.0000  0.0382  0.0000 -0.0543 -0.0324  0.0627  0.0001
   7.  C 2 (s)     -0.1999  0.0382  0.3682  0.0000 -0.3354 -0.1999  0.4926  0.0068
   8.  C 2 (px)     0.0000  0.0000  0.0000  0.2158  0.0000  0.0000  0.0000  0.0000
   9.  C 2 (py)     0.2393  0.0543  0.3354  0.0000 -0.1855 -0.2393  0.0000  0.0068
  10.  C 2 (pz)     0.0732  0.0324  0.1999  0.0000 -0.2393  0.0732 -0.4683  0.0089
  11.  C 3 (s)      0.0007  0.0000  0.0380  0.0000 -0.0024  0.0630  0.0001  0.0625
  12.  C 3 (s)      0.0250  0.0380  0.3676  0.0000 -0.0146  0.3897  0.0068  0.4917
  13.  C 3 (px)     0.0000  0.0000  0.0000  0.2153  0.0000  0.0000  0.0000  0.0000
  14.  C 3 (py)    -0.0367  0.0024  0.0146  0.0000  0.2145  0.0203 -0.0038  0.3939
  15.  C 3 (pz)    -0.0098 -0.0630 -0.3897  0.0000  0.0203 -0.3274 -0.0106  0.2524
  16.  C 4 (s)      0.0630  0.0000  0.0006  0.0000 -0.0012  0.0007  0.0001  0.0002
  17.  C 4 (s)      0.3897  0.0006  0.0308  0.0000 -0.0419  0.0250  0.0068  0.0094
  18.  C 4 (px)     0.0000  0.0000  0.0000  0.0121  0.0000  0.0000  0.0000  0.0000
  19.  C 4 (py)    -0.0203  0.0012  0.0419  0.0000 -0.0497  0.0367  0.0038  0.0150
  20.  C 4 (pz)    -0.3274 -0.0007 -0.0250  0.0000  0.0367 -0.0098 -0.0106  0.0027
  21.  C 5 (s)      0.0000  0.0000  0.0020  0.0000 -0.0046  0.0000  0.0053  0.0000
  22.  C 5 (s)      0.0000  0.0020  0.0644  0.0000 -0.0942  0.0000  0.0963  0.0023
  23.  C 5 (px)     0.0000  0.0000  0.0000  0.0271  0.0000  0.0000  0.0000  0.0000
  24.  C 5 (py)     0.0000  0.0046  0.0942  0.0000 -0.1252  0.0000  0.0688  0.0035
  25.  C 5 (pz)     1.0000  0.0000  0.0000  0.0000  0.0000  0.0271 -0.1036  0.0021
  26.  C 6 (s)      0.0000  1.0000  0.2484  0.0000  0.0000  0.0000  0.0053  0.0054
  27.  C 6 (s)      0.0000  0.2484  1.0000  0.0000  0.0000  0.0000  0.0963  0.0964
  28.  C 6 (px)     0.0000  0.0000  0.0000  1.0000  0.0000  0.0000  0.0000  0.0000
  29.  C 6 (py)     0.0000  0.0000  0.0000  0.0000  1.0000  0.0000 -0.0688  0.0498
  30.  C 6 (pz)     0.0271  0.0000  0.0000  0.0000  0.0000  1.0000 -0.1036  0.1141
  31.  H 7 (s)     -0.1036  0.0053  0.0963  0.0000 -0.0688 -0.1036  1.0000  0.0008
  32.  H 8 (s)      0.0021  0.0054  0.0964  0.0000  0.0498  0.1141  0.0008  1.0000
  33.  H 9 (s)      0.1141  0.0000  0.0023  0.0000 -0.0035  0.0021  0.0008  0.0013
  34.  H10 (s)     -0.2201  0.0001  0.0068  0.0000 -0.0111 -0.0017  0.0484  0.0001
  35.  H11 (s)     -0.0017  0.0628  0.4930  0.0000  0.4137 -0.2201  0.0484  0.0502

           AO         33      34      35
      ------------ ------- ------- -------
   1.  N 1 (s)      0.0053  0.0001  0.0001
   2.  N 1 (s)      0.0894  0.0043  0.0043
   3.  N 1 (px)     0.0000  0.0000  0.0000
   4.  N 1 (py)    -0.1078 -0.0043  0.0043
   5.  N 1 (pz)    -0.0061 -0.0053 -0.0053
   6.  C 2 (s)      0.0001  0.0053  0.0053
   7.  C 2 (s)      0.0068  0.0957  0.0957
   8.  C 2 (px)     0.0000  0.0000  0.0000
   9.  C 2 (py)    -0.0068 -0.1232  0.1232
  10.  C 2 (pz)     0.0089  0.0116  0.0116
  11.  C 3 (s)      0.0002  0.0000  0.0054
  12.  C 3 (s)      0.0094  0.0023  0.0974
  13.  C 3 (px)     0.0000  0.0000  0.0000
  14.  C 3 (py)    -0.0150 -0.0035  0.0589
  15.  C 3 (pz)     0.0027 -0.0020 -0.1109
  16.  C 4 (s)      0.0625  0.0054  0.0000
  17.  C 4 (s)      0.4917  0.0974  0.0023
  18.  C 4 (px)     0.0000  0.0000  0.0000
  19.  C 4 (py)    -0.3939 -0.0589  0.0035
  20.  C 4 (pz)     0.2524 -0.1109 -0.0020
  21.  C 5 (s)      0.0054  0.0628  0.0001
  22.  C 5 (s)      0.0964  0.4930  0.0068
  23.  C 5 (px)     0.0000  0.0000  0.0000
  24.  C 5 (py)    -0.0498 -0.4137  0.0111
  25.  C 5 (pz)     0.1141 -0.2201 -0.0017
  26.  C 6 (s)      0.0000  0.0001  0.0628
  27.  C 6 (s)      0.0023  0.0068  0.4930
  28.  C 6 (px)     0.0000  0.0000  0.0000
  29.  C 6 (py)    -0.0035 -0.0111  0.4137
  30.  C 6 (pz)     0.0021 -0.0017 -0.2201
  31.  H 7 (s)      0.0008  0.0484  0.0484
  32.  H 8 (s)      0.0013  0.0001  0.0502
  33.  H 9 (s)      1.0000  0.0502  0.0001
  34.  H10 (s)      0.0502  1.0000  0.0008
  35.  H11 (s)      0.0001  0.0008  1.0000


 AO bond-order matrix:

           AO          1       2       3       4       5       6       7       8
      ------------ ------- ------- ------- ------- ------- ------- ------- -------
   1.  N 1 (s)      2.0935 -0.3771  0.0000  0.0000 -0.1172 -0.0027  0.0074  0.0000
   2.  N 1 (s)     -0.3771  1.6756  0.0000  0.0000  0.6532  0.0106 -0.0303  0.0000
   3.  N 1 (px)     0.0000  0.0000  0.8483  0.0000  0.0000  0.0000  0.0000 -0.3302
   4.  N 1 (py)     0.0000  0.0000  0.0000  0.6609  0.0000  0.0000  0.0000  0.0000
   5.  N 1 (pz)    -0.1172  0.6532  0.0000  0.0000  1.3879 -0.0138  0.0489  0.0000
   6.  C 2 (s)     -0.0027  0.0106  0.0000  0.0000 -0.0138  2.0704 -0.2113  0.0000
   7.  C 2 (s)      0.0074 -0.0303  0.0000  0.0000  0.0489 -0.2113  0.8006  0.0000
   8.  C 2 (px)     0.0000  0.0000 -0.3302  0.0000  0.0000  0.0000  0.0000  0.7539
   9.  C 2 (py)     0.0000  0.0000  0.0000 -0.0515  0.0000  0.0000  0.0000  0.0000
  10.  C 2 (pz)     0.0074 -0.0310  0.0000  0.0000  0.0429  0.0028 -0.0227  0.0000
  11.  C 3 (s)      0.0154 -0.0313  0.0000 -0.0979  0.0805 -0.0043  0.0140  0.0000
  12.  C 3 (s)     -0.0227 -0.0582  0.0000  0.2691 -0.2444  0.0142 -0.0378  0.0000
  13.  C 3 (px)     0.0000  0.0000  0.5143  0.0000  0.0000  0.0000  0.0000 -0.0357
  14.  C 3 (py)     0.0589 -0.1317  0.0000 -0.3726  0.3164 -0.0077  0.0354  0.0000
  15.  C 3 (pz)    -0.0367  0.0693  0.0000  0.2039 -0.1309 -0.0229  0.0829  0.0000
  16.  C 4 (s)      0.0154 -0.0313  0.0000  0.0979  0.0805 -0.0043  0.0140  0.0000
  17.  C 4 (s)     -0.0227 -0.0582  0.0000 -0.2691 -0.2444  0.0142 -0.0378  0.0000
  18.  C 4 (px)     0.0000  0.0000  0.5143  0.0000  0.0000  0.0000  0.0000 -0.0357
  19.  C 4 (py)    -0.0589  0.1317  0.0000 -0.3726 -0.3164  0.0077 -0.0354  0.0000
  20.  C 4 (pz)    -0.0367  0.0693  0.0000 -0.2039 -0.1309 -0.0229  0.0829  0.0000
  21.  C 5 (s)     -0.0006 -0.0058  0.0000 -0.0108 -0.0385  0.0240 -0.0625  0.0000
  22.  C 5 (s)     -0.0052  0.0600  0.0000  0.0310  0.1624 -0.0621  0.0919  0.0000
  23.  C 5 (px)     0.0000  0.0000 -0.0754  0.0000  0.0000  0.0000  0.0000  0.5050
  24.  C 5 (py)     0.0122 -0.0522  0.0000  0.0375  0.0186 -0.0944  0.2495  0.0000
  25.  C 5 (pz)     0.0001  0.0338  0.0000  0.0462  0.1872  0.0576 -0.1494  0.0000
  26.  C 6 (s)     -0.0006 -0.0058  0.0000  0.0108 -0.0385  0.0240 -0.0625  0.0000
  27.  C 6 (s)     -0.0052  0.0600  0.0000 -0.0310  0.1624 -0.0621  0.0919  0.0000
  28.  C 6 (px)     0.0000  0.0000 -0.0754  0.0000  0.0000  0.0000  0.0000  0.5050
  29.  C 6 (py)    -0.0122  0.0522  0.0000  0.0375 -0.0186  0.0944 -0.2495  0.0000
  30.  C 6 (pz)     0.0001  0.0338  0.0000 -0.0462  0.1872  0.0576 -0.1494  0.0000
  31.  H 7 (s)     -0.0033  0.0212  0.0000  0.0000  0.0149 -0.1098  0.2895  0.0000
  32.  H 8 (s)      0.0378 -0.1895  0.0000 -0.1273 -0.0968 -0.0160  0.0611  0.0000
  33.  H 9 (s)      0.0378 -0.1895  0.0000  0.1273 -0.0968 -0.0160  0.0611  0.0000
  34.  H10 (s)     -0.0059  0.0182  0.0000 -0.0707 -0.0939  0.0256 -0.0929  0.0000
  35.  H11 (s)     -0.0059  0.0182  0.0000  0.0707 -0.0939  0.0256 -0.0929  0.0000

           AO          9      10      11      12      13      14      15      16
      ------------ ------- ------- ------- ------- ------- ------- ------- -------
   1.  N 1 (s)      0.0000  0.0074  0.0154 -0.0227  0.0000  0.0589 -0.0367  0.0154
   2.  N 1 (s)      0.0000 -0.0310 -0.0313 -0.0582  0.0000 -0.1317  0.0693 -0.0313
   3.  N 1 (px)     0.0000  0.0000  0.0000  0.0000  0.5143  0.0000  0.0000  0.0000
   4.  N 1 (py)    -0.0515  0.0000 -0.0979  0.2691  0.0000 -0.3726  0.2039  0.0979
   5.  N 1 (pz)     0.0000  0.0429  0.0805 -0.2444  0.0000  0.3164 -0.1309  0.0805
   6.  C 2 (s)      0.0000  0.0028 -0.0043  0.0142  0.0000 -0.0077 -0.0229 -0.0043
   7.  C 2 (s)      0.0000 -0.0227  0.0140 -0.0378  0.0000  0.0354  0.0829  0.0140
   8.  C 2 (px)     0.0000  0.0000  0.0000  0.0000 -0.0357  0.0000  0.0000  0.0000
   9.  C 2 (py)     0.6111  0.0000  0.0123 -0.0416  0.0000  0.0340  0.0565 -0.0123
  10.  C 2 (pz)     0.0000  0.6276  0.0183 -0.0740  0.0000  0.0085  0.0828  0.0183
  11.  C 3 (s)      0.0123  0.0183  2.0702 -0.2139  0.0000 -0.0082  0.0073 -0.0052
  12.  C 3 (s)     -0.0416 -0.0740 -0.2139  0.8129  0.0000  0.0349 -0.0145  0.0182
  13.  C 3 (px)     0.0000  0.0000  0.0000  0.0000  0.7839  0.0000  0.0000  0.0000
  14.  C 3 (py)     0.0340  0.0085 -0.0082  0.0349  0.0000  0.6031  0.0427 -0.0265
  15.  C 3 (pz)     0.0565  0.0828  0.0073 -0.0145  0.0000  0.0427  0.5852  0.0053
  16.  C 4 (s)     -0.0123  0.0183 -0.0052  0.0182  0.0000 -0.0265  0.0053  2.0702
  17.  C 4 (s)      0.0416 -0.0740  0.0182 -0.0518  0.0000  0.1073 -0.0105 -0.2139
  18.  C 4 (px)     0.0000  0.0000  0.0000  0.0000 -0.0737  0.0000  0.0000  0.0000
  19.  C 4 (py)     0.0340 -0.0085  0.0265 -0.1073  0.0000  0.1236 -0.0350  0.0082
  20.  C 4 (pz)    -0.0565  0.0828  0.0053 -0.0105  0.0000  0.0350 -0.0067  0.0073
  21.  C 5 (s)      0.0955 -0.0563 -0.0049  0.0175  0.0000 -0.0122 -0.0079  0.0244
  22.  C 5 (s)     -0.2471  0.1501  0.0184 -0.0642  0.0000  0.0489  0.0252 -0.0624
  23.  C 5 (px)     0.0000  0.0000  0.0000  0.0000 -0.3471  0.0000  0.0000  0.0000
  24.  C 5 (py)    -0.3483  0.1975  0.0098 -0.0351  0.0000  0.0110  0.0457 -0.0066
  25.  C 5 (pz)     0.2206 -0.1242  0.0082 -0.0298  0.0000  0.0503 -0.0263 -0.1117
  26.  C 6 (s)     -0.0955 -0.0563  0.0244 -0.0636  0.0000 -0.0006  0.1083 -0.0049
  27.  C 6 (s)      0.2471  0.1501 -0.0624  0.0912  0.0000 -0.0057 -0.2820  0.0184
  28.  C 6 (px)     0.0000  0.0000  0.0000  0.0000  0.5059  0.0000  0.0000  0.0000
  29.  C 6 (py)    -0.3483 -0.1975  0.0066 -0.0240  0.0000  0.0059  0.0073 -0.0098
  30.  C 6 (pz)    -0.2206 -0.1242 -0.1117  0.2957  0.0000  0.0127 -0.4615  0.0082
  31.  H 7 (s)      0.0000 -0.5507 -0.0163  0.0632  0.0000  0.0024 -0.0905 -0.0163
  32.  H 8 (s)      0.0751  0.0462 -0.1128  0.3021  0.0000  0.4488  0.3007 -0.0220
  33.  H 9 (s)     -0.0751  0.0462 -0.0220  0.0878  0.0000 -0.1058  0.0473 -0.1128
  34.  H10 (s)      0.1244 -0.0014 -0.0027  0.0085  0.0000 -0.0034 -0.0076  0.0284
  35.  H11 (s)     -0.1244 -0.0014  0.0284 -0.1032  0.0000 -0.0554  0.0989 -0.0027

           AO         17      18      19      20      21      22      23      24
      ------------ ------- ------- ------- ------- ------- ------- ------- -------
   1.  N 1 (s)     -0.0227  0.0000 -0.0589 -0.0367 -0.0006 -0.0052  0.0000  0.0122
   2.  N 1 (s)     -0.0582  0.0000  0.1317  0.0693 -0.0058  0.0600  0.0000 -0.0522
   3.  N 1 (px)     0.0000  0.5143  0.0000  0.0000  0.0000  0.0000 -0.0754  0.0000
   4.  N 1 (py)    -0.2691  0.0000 -0.3726 -0.2039 -0.0108  0.0310  0.0000  0.0375
   5.  N 1 (pz)    -0.2444  0.0000 -0.3164 -0.1309 -0.0385  0.1624  0.0000  0.0186
   6.  C 2 (s)      0.0142  0.0000  0.0077 -0.0229  0.0240 -0.0621  0.0000 -0.0944
   7.  C 2 (s)     -0.0378  0.0000 -0.0354  0.0829 -0.0625  0.0919  0.0000  0.2495
   8.  C 2 (px)     0.0000 -0.0357  0.0000  0.0000  0.0000  0.0000  0.5050  0.0000
   9.  C 2 (py)     0.0416  0.0000  0.0340 -0.0565  0.0955 -0.2471  0.0000 -0.3483
  10.  C 2 (pz)    -0.0740  0.0000 -0.0085  0.0828 -0.0563  0.1501  0.0000  0.1975
  11.  C 3 (s)      0.0182  0.0000  0.0265  0.0053 -0.0049  0.0184  0.0000  0.0098
  12.  C 3 (s)     -0.0518  0.0000 -0.1073 -0.0105  0.0175 -0.0642  0.0000 -0.0351
  13.  C 3 (px)     0.0000 -0.0737  0.0000  0.0000  0.0000  0.0000 -0.3471  0.0000
  14.  C 3 (py)     0.1073  0.0000  0.1236  0.0350 -0.0122  0.0489  0.0000  0.0110
  15.  C 3 (pz)    -0.0105  0.0000 -0.0350 -0.0067 -0.0079  0.0252  0.0000  0.0457
  16.  C 4 (s)     -0.2139  0.0000  0.0082  0.0073  0.0244 -0.0624  0.0000 -0.0066
  17.  C 4 (s)      0.8129  0.0000 -0.0349 -0.0145 -0.0636  0.0912  0.0000  0.0240
  18.  C 4 (px)     0.0000  0.7839  0.0000  0.0000  0.0000  0.0000  0.5059  0.0000
  19.  C 4 (py)    -0.0349  0.0000  0.6031 -0.0427  0.0006  0.0057  0.0000  0.0059
  20.  C 4 (pz)    -0.0145  0.0000 -0.0427  0.5852  0.1083 -0.2820  0.0000 -0.0073
  21.  C 5 (s)     -0.0636  0.0000  0.0006  0.1083  2.0702 -0.2107  0.0000  0.0032
  22.  C 5 (s)      0.0912  0.0000  0.0057 -0.2820 -0.2107  0.8015  0.0000 -0.0242
  23.  C 5 (px)     0.0000  0.5059  0.0000  0.0000  0.0000  0.0000  0.7926  0.0000
  24.  C 5 (py)     0.0240  0.0000  0.0059 -0.0073  0.0032 -0.0242  0.0000  0.6188
  25.  C 5 (pz)     0.2957  0.0000 -0.0127 -0.4615  0.0004 -0.0046  0.0000  0.0081
  26.  C 6 (s)      0.0175  0.0000  0.0122 -0.0079 -0.0043  0.0133  0.0000  0.0234
  27.  C 6 (s)     -0.0642  0.0000 -0.0489  0.0252  0.0133 -0.0307  0.0000 -0.0879
  28.  C 6 (px)     0.0000 -0.3471  0.0000  0.0000  0.0000  0.0000 -0.0557  0.0000
  29.  C 6 (py)     0.0351  0.0000  0.0110 -0.0457 -0.0234  0.0879  0.0000  0.0960
  30.  C 6 (pz)    -0.0298  0.0000 -0.0503 -0.0263 -0.0038  0.0102  0.0000  0.0195
  31.  H 7 (s)      0.0632  0.0000 -0.0024 -0.0905  0.0259 -0.0935  0.0000 -0.0613
  32.  H 8 (s)      0.0878  0.0000  0.1058  0.0473  0.0003 -0.0036  0.0000  0.0051
  33.  H 9 (s)      0.3021  0.0000 -0.4488  0.3007  0.0306 -0.1164  0.0000  0.0568
  34.  H10 (s)     -0.1032  0.0000  0.0554  0.0989 -0.1107  0.2919  0.0000 -0.4827
  35.  H11 (s)      0.0085  0.0000  0.0034 -0.0076 -0.0161  0.0602  0.0000  0.0791

           AO         25      26      27      28      29      30      31      32
      ------------ ------- ------- ------- ------- ------- ------- ------- -------
   1.  N 1 (s)      0.0001 -0.0006 -0.0052  0.0000 -0.0122  0.0001 -0.0033  0.0378
   2.  N 1 (s)      0.0338 -0.0058  0.0600  0.0000  0.0522  0.0338  0.0212 -0.1895
   3.  N 1 (px)     0.0000  0.0000  0.0000 -0.0754  0.0000  0.0000  0.0000  0.0000
   4.  N 1 (py)     0.0462  0.0108 -0.0310  0.0000  0.0375 -0.0462  0.0000 -0.1273
   5.  N 1 (pz)     0.1872 -0.0385  0.1624  0.0000 -0.0186  0.1872  0.0149 -0.0968
   6.  C 2 (s)      0.0576  0.0240 -0.0621  0.0000  0.0944  0.0576 -0.1098 -0.0160
   7.  C 2 (s)     -0.1494 -0.0625  0.0919  0.0000 -0.2495 -0.1494  0.2895  0.0611
   8.  C 2 (px)     0.0000  0.0000  0.0000  0.5050  0.0000  0.0000  0.0000  0.0000
   9.  C 2 (py)     0.2206 -0.0955  0.2471  0.0000 -0.3483 -0.2206  0.0000  0.0751
  10.  C 2 (pz)    -0.1242 -0.0563  0.1501  0.0000 -0.1975 -0.1242 -0.5507  0.0462
  11.  C 3 (s)      0.0082  0.0244 -0.0624  0.0000  0.0066 -0.1117 -0.0163 -0.1128
  12.  C 3 (s)     -0.0298 -0.0636  0.0912  0.0000 -0.0240  0.2957  0.0632  0.3021
  13.  C 3 (px)     0.0000  0.0000  0.0000  0.5059  0.0000  0.0000  0.0000  0.0000
  14.  C 3 (py)     0.0503 -0.0006 -0.0057  0.0000  0.0059  0.0127  0.0024  0.4488
  15.  C 3 (pz)    -0.0263  0.1083 -0.2820  0.0000  0.0073 -0.4615 -0.0905  0.3007
  16.  C 4 (s)     -0.1117 -0.0049  0.0184  0.0000 -0.0098  0.0082 -0.0163 -0.0220
  17.  C 4 (s)      0.2957  0.0175 -0.0642  0.0000  0.0351 -0.0298  0.0632  0.0878
  18.  C 4 (px)     0.0000  0.0000  0.0000 -0.3471  0.0000  0.0000  0.0000  0.0000
  19.  C 4 (py)    -0.0127  0.0122 -0.0489  0.0000  0.0110 -0.0503 -0.0024  0.1058
  20.  C 4 (pz)    -0.4615 -0.0079  0.0252  0.0000 -0.0457 -0.0263 -0.0905  0.0473
  21.  C 5 (s)      0.0004 -0.0043  0.0133  0.0000 -0.0234 -0.0038  0.0259  0.0003
  22.  C 5 (s)     -0.0046  0.0133 -0.0307  0.0000  0.0879  0.0102 -0.0935 -0.0036
  23.  C 5 (px)     0.0000  0.0000  0.0000 -0.0557  0.0000  0.0000  0.0000  0.0000
  24.  C 5 (py)     0.0081  0.0234 -0.0879  0.0000  0.0960  0.0195 -0.0613  0.0051
  25.  C 5 (pz)     0.6124 -0.0038  0.0102  0.0000 -0.0195  0.0263  0.1112 -0.0127
  26.  C 6 (s)     -0.0038  2.0702 -0.2107  0.0000 -0.0032  0.0004  0.0259  0.0306
  27.  C 6 (s)      0.0102 -0.2107  0.8015  0.0000  0.0242 -0.0046 -0.0935 -0.1164
  28.  C 6 (px)     0.0000  0.0000  0.0000  0.7926  0.0000  0.0000  0.0000  0.0000
  29.  C 6 (py)    -0.0195 -0.0032  0.0242  0.0000  0.6188 -0.0081  0.0613 -0.0568
  30.  C 6 (pz)     0.0263  0.0004 -0.0046  0.0000 -0.0081  0.6124  0.1112 -0.1321
  31.  H 7 (s)      0.1112  0.0259 -0.0935  0.0000  0.0613  0.1112  0.5867 -0.0412
  32.  H 8 (s)     -0.0127  0.0306 -0.1164  0.0000 -0.0568 -0.1321 -0.0412  0.5905
  33.  H 9 (s)     -0.1321  0.0003 -0.0036  0.0000 -0.0051 -0.0127 -0.0412 -0.0291
  34.  H10 (s)     -0.2605 -0.0161  0.0602  0.0000 -0.0791 -0.0467 -0.0695  0.0227
  35.  H11 (s)     -0.0467 -0.1107  0.2919  0.0000  0.4827 -0.2605 -0.0695 -0.0584

           AO         33      34      35
      ------------ ------- ------- -------
   1.  N 1 (s)      0.0378 -0.0059 -0.0059
   2.  N 1 (s)     -0.1895  0.0182  0.0182
   3.  N 1 (px)     0.0000  0.0000  0.0000
   4.  N 1 (py)     0.1273 -0.0707  0.0707
   5.  N 1 (pz)    -0.0968 -0.0939 -0.0939
   6.  C 2 (s)     -0.0160  0.0256  0.0256
   7.  C 2 (s)      0.0611 -0.0929 -0.0929
   8.  C 2 (px)     0.0000  0.0000  0.0000
   9.  C 2 (py)    -0.0751  0.1244 -0.1244
  10.  C 2 (pz)     0.0462 -0.0014 -0.0014
  11.  C 3 (s)     -0.0220 -0.0027  0.0284
  12.  C 3 (s)      0.0878  0.0085 -0.1032
  13.  C 3 (px)     0.0000  0.0000  0.0000
  14.  C 3 (py)    -0.1058 -0.0034 -0.0554
  15.  C 3 (pz)     0.0473 -0.0076  0.0989
  16.  C 4 (s)     -0.1128  0.0284 -0.0027
  17.  C 4 (s)      0.3021 -0.1032  0.0085
  18.  C 4 (px)     0.0000  0.0000  0.0000
  19.  C 4 (py)    -0.4488  0.0554  0.0034
  20.  C 4 (pz)     0.3007  0.0989 -0.0076
  21.  C 5 (s)      0.0306 -0.1107 -0.0161
  22.  C 5 (s)     -0.1164  0.2919  0.0602
  23.  C 5 (px)     0.0000  0.0000  0.0000
  24.  C 5 (py)     0.0568 -0.4827  0.0791
  25.  C 5 (pz)    -0.1321 -0.2605 -0.0467
  26.  C 6 (s)      0.0003 -0.0161 -0.1107
  27.  C 6 (s)     -0.0036  0.0602  0.2919
  28.  C 6 (px)     0.0000  0.0000  0.0000
  29.  C 6 (py)    -0.0051 -0.0791  0.4827
  30.  C 6 (pz)    -0.0127 -0.0467 -0.2605
  31.  H 7 (s)     -0.0412 -0.0695 -0.0695
  32.  H 8 (s)     -0.0291  0.0227 -0.0584
  33.  H 9 (s)      0.5905 -0.0584  0.0227
  34.  H10 (s)     -0.0584  0.5860 -0.0385
  35.  H11 (s)      0.0227 -0.0385  0.5860


 AO density matrix:

           AO          1       2       3       4       5       6       7       8
      ------------ ------- ------- ------- ------- ------- ------- ------- -------
   1.  N 1 (s)      1.9997  0.4735  0.0000  0.0000 -0.0059  0.0000  0.0009  0.0000
   2.  N 1 (s)      0.4735  1.9532  0.0000  0.0000  0.0746  0.0005  0.0271  0.0000
   3.  N 1 (px)     0.0000  0.0000  1.3097  0.0000  0.0000  0.0000  0.0000 -0.2923
   4.  N 1 (py)     0.0000  0.0000  0.0000  1.6405  0.0000  0.0000  0.0000  0.0000
   5.  N 1 (pz)    -0.0059  0.0746  0.0000  0.0000  1.8442 -0.0014 -0.0344  0.0000
   6.  C 2 (s)      0.0000  0.0005  0.0000  0.0000 -0.0014  1.9996  0.5048  0.0000
   7.  C 2 (s)      0.0009  0.0271  0.0000  0.0000 -0.0344  0.5048  1.8544  0.0000
   8.  C 2 (px)     0.0000  0.0000 -0.2923  0.0000  0.0000  0.0000  0.0000  1.2553
   9.  C 2 (py)     0.0000  0.0000  0.0000 -0.0165  0.0000  0.0000  0.0000  0.0000
  10.  C 2 (pz)     0.0019  0.0524  0.0000  0.0000 -0.0645  0.0000  0.0055  0.0000
  11.  C 3 (s)      0.0002  0.0656  0.0000  0.0907 -0.0556  0.0000  0.0041  0.0000
  12.  C 3 (s)      0.0635  0.7378  0.0000  0.7004 -0.4393  0.0040  0.1295  0.0000
  13.  C 3 (px)     0.0000  0.0000  0.8765  0.0000  0.0000  0.0000  0.0000  0.1333
  14.  C 3 (py)    -0.0890 -0.7550  0.0000 -0.5318  0.6206 -0.0035 -0.1028  0.0000
  15.  C 3 (pz)     0.0549  0.4785  0.0000  0.5675  0.0839 -0.0086 -0.1580  0.0000
  16.  C 4 (s)      0.0002  0.0656  0.0000 -0.0907 -0.0556  0.0000  0.0041  0.0000
  17.  C 4 (s)      0.0635  0.7378  0.0000 -0.7004 -0.4393  0.0040  0.1295  0.0000
  18.  C 4 (px)     0.0000  0.0000  0.8765  0.0000  0.0000  0.0000  0.0000  0.1333
  19.  C 4 (py)     0.0890  0.7550  0.0000 -0.5318 -0.6206  0.0035  0.1028  0.0000
  20.  C 4 (pz)     0.0549  0.4785  0.0000 -0.5675  0.0839 -0.0086 -0.1580  0.0000
  21.  C 5 (s)      0.0000  0.0012  0.0000 -0.0025 -0.0040  0.0002  0.0732  0.0000
  22.  C 5 (s)      0.0027  0.0945  0.0000 -0.0522 -0.0972  0.0732  0.7884  0.0000
  23.  C 5 (px)     0.0000  0.0000  0.0706  0.0000  0.0000  0.0000  0.0000  0.8936
  24.  C 5 (py)     0.0030  0.0728  0.0000 -0.0351 -0.1212  0.1037  0.7617  0.0000
  25.  C 5 (pz)     0.0057  0.1309  0.0000 -0.0705 -0.1047 -0.0615 -0.4621  0.0000
  26.  C 6 (s)      0.0000  0.0012  0.0000  0.0025 -0.0040  0.0002  0.0732  0.0000
  27.  C 6 (s)      0.0027  0.0945  0.0000  0.0522 -0.0972  0.0732  0.7884  0.0000
  28.  C 6 (px)     0.0000  0.0000  0.0706  0.0000  0.0000  0.0000  0.0000  0.8936
  29.  C 6 (py)    -0.0030 -0.0728  0.0000 -0.0351  0.1212 -0.1037 -0.7617  0.0000
  30.  C 6 (pz)     0.0057  0.1309  0.0000  0.0705 -0.1047 -0.0615 -0.4621  0.0000
  31.  H 7 (s)     -0.0002  0.0071  0.0000  0.0000 -0.0071  0.1180  1.1247  0.0000
  32.  H 8 (s)      0.0117  0.1586  0.0000  0.2164 -0.0296 -0.0006  0.0285  0.0000
  33.  H 9 (s)      0.0117  0.1586  0.0000 -0.2164 -0.0296 -0.0006  0.0285  0.0000
  34.  H10 (s)     -0.0004  0.0143  0.0000 -0.0422 -0.0428  0.0113  0.1840  0.0000
  35.  H11 (s)     -0.0004  0.0143  0.0000  0.0422 -0.0428  0.0113  0.1840  0.0000

           AO          9      10      11      12      13      14      15      16
      ------------ ------- ------- ------- ------- ------- ------- ------- -------
   1.  N 1 (s)      0.0000  0.0019  0.0002  0.0635  0.0000 -0.0890  0.0549  0.0002
   2.  N 1 (s)      0.0000  0.0524  0.0656  0.7378  0.0000 -0.7550  0.4785  0.0656
   3.  N 1 (px)     0.0000  0.0000  0.0000  0.0000  0.8765  0.0000  0.0000  0.0000
   4.  N 1 (py)    -0.0165  0.0000  0.0907  0.7004  0.0000 -0.5318  0.5675 -0.0907
   5.  N 1 (pz)     0.0000 -0.0645 -0.0556 -0.4393  0.0000  0.6206  0.0839 -0.0556
   6.  C 2 (s)      0.0000  0.0000  0.0000  0.0040  0.0000 -0.0035 -0.0086  0.0000
   7.  C 2 (s)      0.0000  0.0055  0.0041  0.1295  0.0000 -0.1028 -0.1580  0.0041
   8.  C 2 (px)     0.0000  0.0000  0.0000  0.0000  0.1333  0.0000  0.0000  0.0000
   9.  C 2 (py)     1.6585  0.0000  0.0050  0.0816  0.0000 -0.0352 -0.1080 -0.0050
  10.  C 2 (pz)     0.0000  1.6573  0.0078  0.1720  0.0000 -0.1435 -0.1953  0.0078
  11.  C 3 (s)      0.0050  0.0078  1.9996  0.5051  0.0000 -0.0009  0.0005  0.0000
  12.  C 3 (s)      0.0816  0.1720  0.5051  1.8357  0.0000  0.0323 -0.0184  0.0062
  13.  C 3 (px)     0.0000  0.0000  0.0000  0.0000  1.2620  0.0000  0.0000  0.0000
  14.  C 3 (py)    -0.0352 -0.1435 -0.0009  0.0323  0.0000  1.6034  0.0256 -0.0132
  15.  C 3 (pz)    -0.1080 -0.1953  0.0005 -0.0184  0.0000  0.0256  1.6495  0.0010
  16.  C 4 (s)     -0.0050  0.0078  0.0000  0.0062  0.0000 -0.0132  0.0010  1.9996
  17.  C 4 (s)     -0.0816  0.1720  0.0062  0.1505  0.0000 -0.2110 -0.0182  0.5051
  18.  C 4 (px)     0.0000  0.0000  0.0000  0.0000  0.0928  0.0000  0.0000  0.0000
  19.  C 4 (py)    -0.0352  0.1435  0.0132  0.2110  0.0000 -0.2763 -0.0316  0.0009
  20.  C 4 (pz)     0.1080 -0.1953  0.0010 -0.0182  0.0000  0.0316  0.0425  0.0005
  21.  C 5 (s)     -0.1035  0.0620  0.0000  0.0016  0.0000 -0.0028 -0.0018  0.0002
  22.  C 5 (s)     -0.7687  0.4508  0.0017  0.0506  0.0000 -0.0734 -0.0437  0.0730
  23.  C 5 (px)     0.0000  0.0000  0.0000  0.0000 -0.2876  0.0000  0.0000  0.0000
  24.  C 5 (py)    -0.5225  0.5603  0.0029  0.0723  0.0000 -0.0943 -0.0581  0.0047
  25.  C 5 (pz)     0.5809  0.0941  0.0018  0.0449  0.0000 -0.0542 -0.0365  0.1201
  26.  C 6 (s)      0.1035  0.0620  0.0002  0.0728  0.0000  0.0047 -0.1204  0.0000
  27.  C 6 (s)      0.7687  0.4508  0.0730  0.7887  0.0000  0.0352 -0.8856  0.0017
  28.  C 6 (px)     0.0000  0.0000  0.0000  0.0000  0.8847  0.0000  0.0000  0.0000
  29.  C 6 (py)    -0.5225 -0.5603 -0.0047 -0.0247  0.0000  0.4243  0.0443 -0.0029
  30.  C 6 (pz)    -0.5809  0.0941  0.1201  0.8950  0.0000  0.0487 -0.8540  0.0018
  31.  H 7 (s)      0.0000 -1.2206 -0.0006  0.0275  0.0000  0.0048 -0.0557 -0.0006
  32.  H 8 (s)      0.0474  0.0271  0.1175  1.1220  0.0000  1.0276  0.6519 -0.0007
  33.  H 9 (s)     -0.0474  0.0271 -0.0007  0.0375  0.0000 -0.0631  0.0299  0.1175
  34.  H10 (s)     -0.2437 -0.0087 -0.0002  0.0070  0.0000 -0.0074 -0.0101  0.0116
  35.  H11 (s)      0.2437 -0.0087  0.0116  0.1812  0.0000  0.1540 -0.2096 -0.0002

           AO         17      18      19      20      21      22      23      24
      ------------ ------- ------- ------- ------- ------- ------- ------- -------
   1.  N 1 (s)      0.0635  0.0000  0.0890  0.0549  0.0000  0.0027  0.0000  0.0030
   2.  N 1 (s)      0.7378  0.0000  0.7550  0.4785  0.0012  0.0945  0.0000  0.0728
   3.  N 1 (px)     0.0000  0.8765  0.0000  0.0000  0.0000  0.0000  0.0706  0.0000
   4.  N 1 (py)    -0.7004  0.0000 -0.5318 -0.5675 -0.0025 -0.0522  0.0000 -0.0351
   5.  N 1 (pz)    -0.4393  0.0000 -0.6206  0.0839 -0.0040 -0.0972  0.0000 -0.1212
   6.  C 2 (s)      0.0040  0.0000  0.0035 -0.0086  0.0002  0.0732  0.0000  0.1037
   7.  C 2 (s)      0.1295  0.0000  0.1028 -0.1580  0.0732  0.7884  0.0000  0.7617
   8.  C 2 (px)     0.0000  0.1333  0.0000  0.0000  0.0000  0.0000  0.8936  0.0000
   9.  C 2 (py)    -0.0816  0.0000 -0.0352  0.1080 -0.1035 -0.7687  0.0000 -0.5225
  10.  C 2 (pz)     0.1720  0.0000  0.1435 -0.1953  0.0620  0.4508  0.0000  0.5603
  11.  C 3 (s)      0.0062  0.0000  0.0132  0.0010  0.0000  0.0017  0.0000  0.0029
  12.  C 3 (s)      0.1505  0.0000  0.2110 -0.0182  0.0016  0.0506  0.0000  0.0723
  13.  C 3 (px)     0.0000  0.0928  0.0000  0.0000  0.0000  0.0000 -0.2876  0.0000
  14.  C 3 (py)    -0.2110  0.0000 -0.2763  0.0316 -0.0028 -0.0734  0.0000 -0.0943
  15.  C 3 (pz)    -0.0182  0.0000 -0.0316  0.0425 -0.0018 -0.0437  0.0000 -0.0581
  16.  C 4 (s)      0.5051  0.0000  0.0009  0.0005  0.0002  0.0730  0.0000  0.0047
  17.  C 4 (s)      1.8357  0.0000 -0.0323 -0.0184  0.0728  0.7887  0.0000  0.0247
  18.  C 4 (px)     0.0000  1.2620  0.0000  0.0000  0.0000  0.0000  0.8847  0.0000
  19.  C 4 (py)    -0.0323  0.0000  1.6034 -0.0256 -0.0047 -0.0352  0.0000  0.4243
  20.  C 4 (pz)    -0.0184  0.0000 -0.0256  1.6495 -0.1204 -0.8856  0.0000 -0.0443
  21.  C 5 (s)      0.0728  0.0000 -0.0047 -0.1204  1.9996  0.5048  0.0000  0.0000
  22.  C 5 (s)      0.7887  0.0000 -0.0352 -0.8856  0.5048  1.8530  0.0000  0.0035
  23.  C 5 (px)     0.0000  0.8847  0.0000  0.0000  0.0000  0.0000  1.2865  0.0000
  24.  C 5 (py)     0.0247  0.0000  0.4243 -0.0443  0.0000  0.0035  0.0000  1.6555
  25.  C 5 (pz)     0.8950  0.0000 -0.0487 -0.8540  0.0000  0.0035  0.0000  0.0005
  26.  C 6 (s)      0.0016  0.0000  0.0028 -0.0018  0.0000  0.0042  0.0000  0.0093
  27.  C 6 (s)      0.0506  0.0000  0.0734 -0.0437  0.0042  0.1298  0.0000  0.1899
  28.  C 6 (px)     0.0000 -0.2876  0.0000  0.0000  0.0000  0.0000  0.1109  0.0000
  29.  C 6 (py)    -0.0723  0.0000 -0.0943  0.0581 -0.0093 -0.1899  0.0000 -0.2673
  30.  C 6 (pz)     0.0449  0.0000  0.0542 -0.0365 -0.0008  0.0129  0.0000  0.0158
  31.  H 7 (s)      0.0275  0.0000 -0.0048 -0.0557  0.0114  0.1849  0.0000  0.1082
  32.  H 8 (s)      0.0375  0.0000  0.0631  0.0299 -0.0001  0.0072  0.0000  0.0134
  33.  H 9 (s)      1.1220  0.0000 -1.0276  0.6519  0.0116  0.1813  0.0000 -0.1259
  34.  H10 (s)      0.1812  0.0000 -0.1540 -0.2096  0.1181  1.1256  0.0000 -1.0771
  35.  H11 (s)      0.0070  0.0000  0.0074 -0.0101 -0.0007  0.0284  0.0000  0.0466

           AO         25      26      27      28      29      30      31      32
      ------------ ------- ------- ------- ------- ------- ------- ------- -------
   1.  N 1 (s)      0.0057  0.0000  0.0027  0.0000 -0.0030  0.0057 -0.0002  0.0117
   2.  N 1 (s)      0.1309  0.0012  0.0945  0.0000 -0.0728  0.1309  0.0071  0.1586
   3.  N 1 (px)     0.0000  0.0000  0.0000  0.0706  0.0000  0.0000  0.0000  0.0000
   4.  N 1 (py)    -0.0705  0.0025  0.0522  0.0000 -0.0351  0.0705  0.0000  0.2164
   5.  N 1 (pz)    -0.1047 -0.0040 -0.0972  0.0000  0.1212 -0.1047 -0.0071 -0.0296
   6.  C 2 (s)     -0.0615  0.0002  0.0732  0.0000 -0.1037 -0.0615  0.1180 -0.0006
   7.  C 2 (s)     -0.4621  0.0732  0.7884  0.0000 -0.7617 -0.4621  1.1247  0.0285
   8.  C 2 (px)     0.0000  0.0000  0.0000  0.8936  0.0000  0.0000  0.0000  0.0000
   9.  C 2 (py)     0.5809  0.1035  0.7687  0.0000 -0.5225 -0.5809  0.0000  0.0474
  10.  C 2 (pz)     0.0941  0.0620  0.4508  0.0000 -0.5603  0.0941 -1.2206  0.0271
  11.  C 3 (s)      0.0018  0.0002  0.0730  0.0000 -0.0047  0.1201 -0.0006  0.1175
  12.  C 3 (s)      0.0449  0.0728  0.7887  0.0000 -0.0247  0.8950  0.0275  1.1220
  13.  C 3 (px)     0.0000  0.0000  0.0000  0.8847  0.0000  0.0000  0.0000  0.0000
  14.  C 3 (py)    -0.0542  0.0047  0.0352  0.0000  0.4243  0.0487  0.0048  1.0276
  15.  C 3 (pz)    -0.0365 -0.1204 -0.8856  0.0000  0.0443 -0.8540 -0.0557  0.6519
  16.  C 4 (s)      0.1201  0.0000  0.0017  0.0000 -0.0029  0.0018 -0.0006 -0.0007
  17.  C 4 (s)      0.8950  0.0016  0.0506  0.0000 -0.0723  0.0449  0.0275  0.0375
  18.  C 4 (px)     0.0000  0.0000  0.0000 -0.2876  0.0000  0.0000  0.0000  0.0000
  19.  C 4 (py)    -0.0487  0.0028  0.0734  0.0000 -0.0943  0.0542 -0.0048  0.0631
  20.  C 4 (pz)    -0.8540 -0.0018 -0.0437  0.0000  0.0581 -0.0365 -0.0557  0.0299
  21.  C 5 (s)      0.0000  0.0000  0.0042  0.0000 -0.0093 -0.0008  0.0114 -0.0001
  22.  C 5 (s)      0.0035  0.0042  0.1298  0.0000 -0.1899  0.0129  0.1849  0.0072
  23.  C 5 (px)     0.0000  0.0000  0.0000  0.1109  0.0000  0.0000  0.0000  0.0000
  24.  C 5 (py)     0.0005  0.0093  0.1899  0.0000 -0.2673  0.0158  0.1082  0.0134
  25.  C 5 (pz)     1.6541 -0.0008  0.0129  0.0000 -0.0158  0.0384 -0.2195  0.0015
  26.  C 6 (s)     -0.0008  1.9996  0.5048  0.0000  0.0000  0.0000  0.0114  0.0116
  27.  C 6 (s)      0.0129  0.5048  1.8530  0.0000 -0.0035  0.0035  0.1849  0.1813
  28.  C 6 (px)     0.0000  0.0000  0.0000  1.2865  0.0000  0.0000  0.0000  0.0000
  29.  C 6 (py)    -0.0158  0.0000 -0.0035  0.0000  1.6555 -0.0005 -0.1082  0.1259
  30.  C 6 (pz)     0.0384  0.0000  0.0035  0.0000 -0.0005  1.6541 -0.2195  0.2037
  31.  H 7 (s)     -0.2195  0.0114  0.1849  0.0000 -0.1082 -0.2195  1.6336 -0.0163
  32.  H 8 (s)      0.0015  0.0116  0.1813  0.0000  0.1259  0.2037 -0.0163  1.6329
  33.  H 9 (s)      0.2037 -0.0001  0.0072  0.0000 -0.0134  0.0015 -0.0163 -0.0103
  34.  H10 (s)     -0.5753 -0.0007  0.0284  0.0000 -0.0466 -0.0294  0.0577  0.0049
  35.  H11 (s)     -0.0294  0.1181  1.1256  0.0000  1.0771 -0.5753  0.0577  0.0643

           AO         33      34      35
      ------------ ------- ------- -------
   1.  N 1 (s)      0.0117 -0.0004 -0.0004
   2.  N 1 (s)      0.1586  0.0143  0.0143
   3.  N 1 (px)     0.0000  0.0000  0.0000
   4.  N 1 (py)    -0.2164 -0.0422  0.0422
   5.  N 1 (pz)    -0.0296 -0.0428 -0.0428
   6.  C 2 (s)     -0.0006  0.0113  0.0113
   7.  C 2 (s)      0.0285  0.1840  0.1840
   8.  C 2 (px)     0.0000  0.0000  0.0000
   9.  C 2 (py)    -0.0474 -0.2437  0.2437
  10.  C 2 (pz)     0.0271 -0.0087 -0.0087
  11.  C 3 (s)     -0.0007 -0.0002  0.0116
  12.  C 3 (s)      0.0375  0.0070  0.1812
  13.  C 3 (px)     0.0000  0.0000  0.0000
  14.  C 3 (py)    -0.0631 -0.0074  0.1540
  15.  C 3 (pz)     0.0299 -0.0101 -0.2096
  16.  C 4 (s)      0.1175  0.0116 -0.0002
  17.  C 4 (s)      1.1220  0.1812  0.0070
  18.  C 4 (px)     0.0000  0.0000  0.0000
  19.  C 4 (py)    -1.0276 -0.1540  0.0074
  20.  C 4 (pz)     0.6519 -0.2096 -0.0101
  21.  C 5 (s)      0.0116  0.1181 -0.0007
  22.  C 5 (s)      0.1813  1.1256  0.0284
  23.  C 5 (px)     0.0000  0.0000  0.0000
  24.  C 5 (py)    -0.1259 -1.0771  0.0466
  25.  C 5 (pz)     0.2037 -0.5753 -0.0294
  26.  C 6 (s)     -0.0001 -0.0007  0.1181
  27.  C 6 (s)      0.0072  0.0284  1.1256
  28.  C 6 (px)     0.0000  0.0000  0.0000
  29.  C 6 (py)    -0.0134 -0.0466  1.0771
  30.  C 6 (pz)     0.0015 -0.0294 -0.5753
  31.  H 7 (s)     -0.0163  0.0577  0.0577
  32.  H 8 (s)     -0.0103  0.0049  0.0643
  33.  H 9 (s)      1.6329  0.0643  0.0049
  34.  H10 (s)      0.0643  1.6344 -0.0160
  35.  H11 (s)      0.0049 -0.0160  1.6344


 MO density matrix:

      MO     1       2       3       4       5       6       7       8       9
     ---- ------  ------  ------  ------  ------  ------  ------  ------  ------
   1.     2.0000  0.0000  0.0000  0.0000  0.0000  0.0000  0.0000  0.0000  0.0000
   2.     0.0000  2.0000  0.0000  0.0000  0.0000  0.0000  0.0000  0.0000  0.0000
   3.     0.0000  0.0000  2.0000  0.0000  0.0000  0.0000  0.0000  0.0000  0.0000
   4.     0.0000  0.0000  0.0000  2.0000  0.0000  0.0000  0.0000  0.0000  0.0000
   5.     0.0000  0.0000  0.0000  0.0000  2.0000  0.0000  0.0000  0.0000  0.0000
   6.     0.0000  0.0000  0.0000  0.0000  0.0000  2.0000  0.0000  0.0000  0.0000
   7.     0.0000  0.0000  0.0000  0.0000  0.0000  0.0000  2.0000  0.0000  0.0000
   8.     0.0000  0.0000  0.0000  0.0000  0.0000  0.0000  0.0000  2.0000  0.0000
   9.     0.0000  0.0000  0.0000  0.0000  0.0000  0.0000  0.0000  0.0000  2.0000
  10.     0.0000  0.0000  0.0000  0.0000  0.0000  0.0000  0.0000  0.0000  0.0000
  11.     0.0000  0.0000  0.0000  0.0000  0.0000  0.0000  0.0000  0.0000  0.0000
  12.     0.0000  0.0000  0.0000  0.0000  0.0000  0.0000  0.0000  0.0000  0.0000
  13.     0.0000  0.0000  0.0000  0.0000  0.0000  0.0000  0.0000  0.0000  0.0000
  14.     0.0000  0.0000  0.0000  0.0000  0.0000  0.0000  0.0000  0.0000  0.0000
  15.     0.0000  0.0000  0.0000  0.0000  0.0000  0.0000  0.0000  0.0000  0.0000
  16.     0.0000  0.0000  0.0000  0.0000  0.0000  0.0000  0.0000  0.0000  0.0000
  17.     0.0000  0.0000  0.0000  0.0000  0.0000  0.0000  0.0000  0.0000  0.0000
  18.     0.0000  0.0000  0.0000  0.0000  0.0000  0.0000  0.0000  0.0000  0.0000
  19.     0.0000  0.0000  0.0000  0.0000  0.0000  0.0000  0.0000  0.0000  0.0000
  20.     0.0000  0.0000  0.0000  0.0000  0.0000  0.0000  0.0000  0.0000  0.0000
  21.     0.0000  0.0000  0.0000  0.0000  0.0000  0.0000  0.0000  0.0000  0.0000
  22.     0.0000  0.0000  0.0000  0.0000  0.0000  0.0000  0.0000  0.0000  0.0000
  23.     0.0000  0.0000  0.0000  0.0000  0.0000  0.0000  0.0000  0.0000  0.0000
  24.     0.0000  0.0000  0.0000  0.0000  0.0000  0.0000  0.0000  0.0000  0.0000
  25.     0.0000  0.0000  0.0000  0.0000  0.0000  0.0000  0.0000  0.0000  0.0000
  26.     0.0000  0.0000  0.0000  0.0000  0.0000  0.0000  0.0000  0.0000  0.0000
[...]
                                         1.0000
  15. (1.99089) BD ( 1) C  3- C  6
               ( 49.85%)   0.7060* C  3 s( 35.52%)p 1.82( 64.48%)
                                         0.0000  0.5960  0.0000  0.0276 -0.8025
               ( 50.15%)   0.7082* C  6 s( 33.91%)p 1.95( 66.09%)
                                         0.0000  0.5823  0.0000 -0.0197  0.8127
  16. (1.65910) BD ( 2) C  3- C  6
               ( 49.18%)   0.7013* C  3 s(  0.00%)p 1.00(100.00%)
                                         0.0000  0.0000  1.0000  0.0000  0.0000
               ( 50.82%)   0.7129* C  6 s(  0.00%)p 1.00(100.00%)
                                         0.0000  0.0000  1.0000  0.0000  0.0000
  17. (1.99050) BD ( 1) C  3- H  8
               ( 52.22%)   0.7226* C  3 s( 32.62%)p 2.07( 67.38%)
                                         0.0000  0.5711  0.0000  0.6880  0.4478
               ( 47.78%)   0.6913* H  8 s(100.00%)
                                         1.0000
  18. (1.99089) BD ( 1) C  4- C  5
               ( 49.85%)   0.7060* C  4 s( 35.52%)p 1.82( 64.48%)
                                         0.0000  0.5960  0.0000 -0.0276 -0.8025
               ( 50.15%)   0.7082* C  5 s( 33.91%)p 1.95( 66.09%)
                                         0.0000  0.5823  0.0000  0.0197  0.8127
  19. (1.99050) BD ( 1) C  4- H  9
               ( 52.22%)   0.7226* C  4 s( 32.62%)p 2.07( 67.38%)
                                         0.0000  0.5711  0.0000 -0.6880  0.4478
               ( 47.78%)   0.6913* H  9 s(100.00%)
                                         1.0000
  20. (1.98908) BD ( 1) C  5- H 10
               ( 52.38%)   0.7238* C  5 s( 32.05%)p 2.12( 67.95%)
                                         0.0000  0.5662  0.0000 -0.7273 -0.3880
               ( 47.62%)   0.6900* H 10 s(100.00%)
                                         1.0000
  21. (1.98908) BD ( 1) C  6- H 11
               ( 52.38%)   0.7238* C  6 s( 32.05%)p 2.12( 67.95%)
                                         0.0000  0.5662  0.0000  0.7273 -0.3880
               ( 47.62%)   0.6900* H 11 s(100.00%)
                                         1.0000
 ---------------- non-Lewis ----------------------------------------------------
  22. (0.01462) BD*( 1) N  1- C  3
               ( 44.72%)   0.6687* N  1 s( 25.71%)p 2.89( 74.29%)
                                         0.0000 -0.5071  0.0000 -0.7071  0.4928
               ( 55.28%)  -0.7435* C  3 s( 31.87%)p 2.14( 68.13%)
                                         0.0000 -0.5645  0.0000  0.7252 -0.3942
  23. (0.01462) BD*( 1) N  1- C  4
               ( 44.72%)   0.6687* N  1 s( 25.71%)p 2.89( 74.29%)
                                         0.0000 -0.5071  0.0000  0.7071  0.4928
               ( 55.28%)  -0.7435* C  4 s( 31.87%)p 2.14( 68.13%)
                                         0.0000 -0.5645  0.0000 -0.7252 -0.3942
  24. (0.35178) BD*( 2) N  1- C  4
               ( 47.29%)   0.6877* N  1 s(  0.00%)p 1.00(100.00%)
                                         0.0000  0.0000 -1.0000  0.0000  0.0000
               ( 52.71%)  -0.7260* C  4 s(  0.00%)p 1.00(100.00%)
                                         0.0000  0.0000 -1.0000  0.0000  0.0000
  25. (0.01061) BD*( 1) C  2- C  5
               ( 49.92%)   0.7066* C  2 s( 34.12%)p 1.93( 65.88%)
                                         0.0000 -0.5841  0.0000  0.7071 -0.3985
               ( 50.08%)  -0.7077* C  5 s( 34.04%)p 1.94( 65.96%)
                                         0.0000 -0.5834  0.0000 -0.6861  0.4347
  26. (0.31869) BD*( 2) C  2- C  5
               ( 51.42%)   0.7171* C  2 s(  0.00%)p 1.00(100.00%)
                                         0.0000  0.0000  1.0000  0.0000  0.0000
               ( 48.58%)  -0.6970* C  5 s(  0.00%)p 1.00(100.00%)
                                         0.0000  0.0000  1.0000  0.0000  0.0000
  27. (0.01061) BD*( 1) C  2- C  6
               ( 49.92%)   0.7066* C  2 s( 34.12%)p 1.93( 65.88%)
                                         0.0000 -0.5841  0.0000 -0.7071 -0.3985
               ( 50.08%)  -0.7077* C  6 s( 34.04%)p 1.94( 65.96%)
                                         0.0000 -0.5834  0.0000  0.6861  0.4347
  28. (0.01103) BD*( 1) C  2- H  7
               ( 47.65%)   0.6903* C  2 s( 31.76%)p 2.15( 68.24%)
                                         0.0000 -0.5635  0.0000  0.0000  0.8261
               ( 52.35%)  -0.7235* H  7 s(100.00%)
                                        -1.0000
  29. (0.02100) BD*( 1) C  3- C  6
               ( 50.15%)   0.7082* C  3 s( 35.52%)p 1.82( 64.48%)
                                         0.0000  0.5960  0.0000  0.0276 -0.8025
               ( 49.85%)  -0.7060* C  6 s( 33.91%)p 1.95( 66.09%)
                                         0.0000  0.5823  0.0000 -0.0197  0.8127
  30. (0.32947) BD*( 2) C  3- C  6
               ( 50.82%)   0.7129* C  3 s(  0.00%)p 1.00(100.00%)
                                         0.0000  0.0000  1.0000  0.0000  0.0000
               ( 49.18%)  -0.7013* C  6 s(  0.00%)p 1.00(100.00%)
                                         0.0000  0.0000  1.0000  0.0000  0.0000
  31. (0.01892) BD*( 1) C  3- H  8
               ( 47.78%)   0.6913* C  3 s( 32.62%)p 2.07( 67.38%)
                                         0.0000 -0.5711  0.0000 -0.6880 -0.4478
               ( 52.22%)  -0.7226* H  8 s(100.00%)
                                        -1.0000
  32. (0.02100) BD*( 1) C  4- C  5
               ( 50.15%)   0.7082* C  4 s( 35.52%)p 1.82( 64.48%)
                                         0.0000  0.5960  0.0000 -0.0276 -0.8025
               ( 49.85%)  -0.7060* C  5 s( 33.91%)p 1.95( 66.09%)
                                         0.0000  0.5823  0.0000  0.0197  0.8127
  33. (0.01892) BD*( 1) C  4- H  9
               ( 47.78%)   0.6913* C  4 s( 32.62%)p 2.07( 67.38%)
                                         0.0000 -0.5711  0.0000  0.6880 -0.4478
               ( 52.22%)  -0.7226* H  9 s(100.00%)
                                        -1.0000
  34. (0.01053) BD*( 1) C  5- H 10
               ( 47.62%)   0.6900* C  5 s( 32.05%)p 2.12( 67.95%)
                                         0.0000 -0.5662  0.0000  0.7273  0.3880
               ( 52.38%)  -0.7238* H 10 s(100.00%)
                                        -1.0000
  35. (0.01053) BD*( 1) C  6- H 11
               ( 47.62%)   0.6900* C  6 s( 32.05%)p 2.12( 67.95%)
                                         0.0000 -0.5662  0.0000 -0.7273  0.3880
               ( 52.38%)  -0.7238* H 11 s(100.00%)
                                        -1.0000


 NHO DIRECTIONALITY AND BOND BENDING (deviation from line of nuclear centers at
                                      the position of maximum hybrid amplitude)

         [Thresholds for printing:  angular deviation  >  1.0 degree]
                                    p- or d-character  > 25.0%
                                    orbital occupancy  >  0.10e

                        Line of Centers        Hybrid 1             Hybrid 2
                        ---------------  -------------------  ------------------
           NBO            Theta   Phi    Theta   Phi    Dev   Theta   Phi    Dev
 ===============================================================================
   7. LP ( 1) N  1          --     --      0.0    0.0   --      --     --    --
   8. BD ( 1) N  1- C  3  121.6   90.0   125.5   90.0   3.9    62.0  270.0   3.6
   9. BD ( 1) N  1- C  4  121.6  270.0   125.5  270.0   3.9    62.0   90.0   3.6
  10. BD ( 2) N  1- C  4  121.6  270.0    89.9  180.0  90.1    89.9  180.1  90.1
  12. BD ( 2) C  2- C  5   59.2  270.0    90.1  180.0  90.1    90.1  180.1  90.1
  16. BD ( 2) C  3- C  6  177.9   90.0    89.9    0.1  90.1    90.1    0.1  90.1


 SECOND ORDER PERTURBATION THEORY ANALYSIS OF FOCK MATRIX IN NBO BASIS

     Threshold for printing:   0.50 kcal/mol
                                                          E(2) E(NL)-E(L) F(L,NL)
      Donor (L) NBO              Acceptor (NL) NBO      kcal/mol   a.u.    a.u.
 ===============================================================================

 within unit  1
    7. LP ( 1) N  1            29. BD*( 1) C  3- C  6      6.84    1.37   0.086
    7. LP ( 1) N  1            31. BD*( 1) C  3- H  8      4.20    1.23   0.064
    7. LP ( 1) N  1            32. BD*( 1) C  4- C  5      6.84    1.37   0.086
    7. LP ( 1) N  1            33. BD*( 1) C  4- H  9      4.20    1.23   0.064
    8. BD ( 1) N  1- C  3      23. BD*( 1) N  1- C  4      1.79    1.68   0.049
    8. BD ( 1) N  1- C  3      27. BD*( 1) C  2- C  6      0.99    1.71   0.037
    8. BD ( 1) N  1- C  3      29. BD*( 1) C  3- C  6      0.86    1.70   0.034
    8. BD ( 1) N  1- C  3      31. BD*( 1) C  3- H  8      1.10    1.56   0.037
    8. BD ( 1) N  1- C  3      32. BD*( 1) C  4- C  5      2.12    1.70   0.054
    8. BD ( 1) N  1- C  3      33. BD*( 1) C  4- H  9      3.78    1.56   0.068
    8. BD ( 1) N  1- C  3      35. BD*( 1) C  6- H 11      1.90    1.56   0.049
    9. BD ( 1) N  1- C  4      22. BD*( 1) N  1- C  3      1.79    1.68   0.049
    9. BD ( 1) N  1- C  4      25. BD*( 1) C  2- C  5      0.99    1.71   0.037
    9. BD ( 1) N  1- C  4      29. BD*( 1) C  3- C  6      2.12    1.70   0.054
    9. BD ( 1) N  1- C  4      31. BD*( 1) C  3- H  8      3.78    1.56   0.068
    9. BD ( 1) N  1- C  4      32. BD*( 1) C  4- C  5      0.86    1.70   0.034
    9. BD ( 1) N  1- C  4      33. BD*( 1) C  4- H  9      1.10    1.56   0.037
    9. BD ( 1) N  1- C  4      34. BD*( 1) C  5- H 10      1.90    1.56   0.049
   10. BD ( 2) N  1- C  4      26. BD*( 2) C  2- C  5     38.45    0.54   0.128
   10. BD ( 2) N  1- C  4      30. BD*( 2) C  3- C  6     54.45    0.53   0.152
   11. BD ( 1) C  2- C  5      23. BD*( 1) N  1- C  4      1.91    1.60   0.049
   11. BD ( 1) C  2- C  5      28. BD*( 1) C  2- H  7      0.80    1.48   0.031
   11. BD ( 1) C  2- C  5      29. BD*( 1) C  3- C  6      1.30    1.62   0.041
   11. BD ( 1) C  2- C  5      33. BD*( 1) C  4- H  9      2.36    1.48   0.053
   11. BD ( 1) C  2- C  5      34. BD*( 1) C  5- H 10      0.76    1.48   0.030
   11. BD ( 1) C  2- C  5      35. BD*( 1) C  6- H 11      2.51    1.48   0.054
   12. BD ( 2) C  2- C  5      24. BD*( 2) N  1- C  4     55.18    0.49   0.147
   12. BD ( 2) C  2- C  5      30. BD*( 2) C  3- C  6     45.02    0.50   0.134
   13. BD ( 1) C  2- C  6      22. BD*( 1) N  1- C  3      1.91    1.60   0.049
   13. BD ( 1) C  2- C  6      28. BD*( 1) C  2- H  7      0.80    1.48   0.031
   13. BD ( 1) C  2- C  6      31. BD*( 1) C  3- H  8      2.36    1.48   0.053
   13. BD ( 1) C  2- C  6      32. BD*( 1) C  4- C  5      1.30    1.62   0.041
   13. BD ( 1) C  2- C  6      34. BD*( 1) C  5- H 10      2.51    1.48   0.054
   13. BD ( 1) C  2- C  6      35. BD*( 1) C  6- H 11      0.76    1.48   0.030
   14. BD ( 1) C  2- H  7      25. BD*( 1) C  2- C  5      0.84    1.53   0.032
   14. BD ( 1) C  2- H  7      27. BD*( 1) C  2- C  6      0.84    1.53   0.032
   14. BD ( 1) C  2- H  7      29. BD*( 1) C  3- C  6      2.40    1.52   0.054
   14. BD ( 1) C  2- H  7      32. BD*( 1) C  4- C  5      2.40    1.52   0.054
   14. BD ( 1) C  2- H  7      34. BD*( 1) C  5- H 10      1.06    1.38   0.034
   14. BD ( 1) C  2- H  7      35. BD*( 1) C  6- H 11      1.06    1.38   0.034
   15. BD ( 1) C  3- C  6      22. BD*( 1) N  1- C  3      1.61    1.60   0.045
   15. BD ( 1) C  3- C  6      23. BD*( 1) N  1- C  4      0.58    1.60   0.027
   15. BD ( 1) C  3- C  6      25. BD*( 1) C  2- C  5      1.28    1.63   0.041
   15. BD ( 1) C  3- C  6      28. BD*( 1) C  2- H  7      2.55    1.48   0.055
   15. BD ( 1) C  3- C  6      31. BD*( 1) C  3- H  8      0.86    1.48   0.032
   15. BD ( 1) C  3- C  6      35. BD*( 1) C  6- H 11      0.76    1.49   0.030
   16. BD ( 2) C  3- C  6      24. BD*( 2) N  1- C  4     44.69    0.49   0.133
   16. BD ( 2) C  3- C  6      26. BD*( 2) C  2- C  5     49.25    0.51   0.141
   17. BD ( 1) C  3- H  8      22. BD*( 1) N  1- C  3      0.59    1.49   0.027
   17. BD ( 1) C  3- H  8      23. BD*( 1) N  1- C  4      2.76    1.49   0.057
   17. BD ( 1) C  3- H  8      27. BD*( 1) C  2- C  6      2.40    1.52   0.054
   17. BD ( 1) C  3- H  8      29. BD*( 1) C  3- C  6      1.03    1.51   0.035
   17. BD ( 1) C  3- H  8      35. BD*( 1) C  6- H 11      1.00    1.37   0.033
   18. BD ( 1) C  4- C  5      22. BD*( 1) N  1- C  3      0.58    1.60   0.027
   18. BD ( 1) C  4- C  5      23. BD*( 1) N  1- C  4      1.61    1.60   0.045
   18. BD ( 1) C  4- C  5      27. BD*( 1) C  2- C  6      1.28    1.63   0.041
   18. BD ( 1) C  4- C  5      28. BD*( 1) C  2- H  7      2.55    1.48   0.055
   18. BD ( 1) C  4- C  5      33. BD*( 1) C  4- H  9      0.86    1.48   0.032
   18. BD ( 1) C  4- C  5      34. BD*( 1) C  5- H 10      0.76    1.49   0.030
   19. BD ( 1) C  4- H  9      22. BD*( 1) N  1- C  3      2.76    1.49   0.057
   19. BD ( 1) C  4- H  9      23. BD*( 1) N  1- C  4      0.59    1.49   0.027
   19. BD ( 1) C  4- H  9      25. BD*( 1) C  2- C  5      2.40    1.52   0.054
   19. BD ( 1) C  4- H  9      32. BD*( 1) C  4- C  5      1.03    1.51   0.035
   19. BD ( 1) C  4- H  9      34. BD*( 1) C  5- H 10      1.00    1.37   0.033
   20. BD ( 1) C  5- H 10      23. BD*( 1) N  1- C  4      3.21    1.49   0.062
   20. BD ( 1) C  5- H 10      25. BD*( 1) C  2- C  5      0.84    1.52   0.032
   20. BD ( 1) C  5- H 10      27. BD*( 1) C  2- C  6      2.35    1.52   0.053
   20. BD ( 1) C  5- H 10      28. BD*( 1) C  2- H  7      1.04    1.37   0.034
   20. BD ( 1) C  5- H 10      32. BD*( 1) C  4- C  5      0.76    1.51   0.030
   20. BD ( 1) C  5- H 10      33. BD*( 1) C  4- H  9      1.01    1.37   0.033
   21. BD ( 1) C  6- H 11      22. BD*( 1) N  1- C  3      3.21    1.49   0.062
   21. BD ( 1) C  6- H 11      25. BD*( 1) C  2- C  5      2.35    1.52   0.053
   21. BD ( 1) C  6- H 11      27. BD*( 1) C  2- C  6      0.84    1.52   0.032
   21. BD ( 1) C  6- H 11      28. BD*( 1) C  2- H  7      1.04    1.37   0.034
   21. BD ( 1) C  6- H 11      29. BD*( 1) C  3- C  6      0.76    1.51   0.030
   21. BD ( 1) C  6- H 11      31. BD*( 1) C  3- H  8      1.01    1.37   0.033


 NATURAL BOND ORBITALS (Summary):

                                                     Principal Delocalizations
           NBO                 Occupancy    Energy   (geminal,vicinal,remote)
 ===============================================================================
 Molecular unit  1  (C5H5N)
 ------ Lewis --------------------------------------
    1. CR ( 1) N  1             1.99999   -15.30510
    2. CR ( 1) C  2             2.00000   -11.04769
    3. CR ( 1) C  3             2.00000   -11.06605
    4. CR ( 1) C  4             2.00000   -11.06605
    5. CR ( 1) C  5             2.00000   -11.03744
    6. CR ( 1) C  6             2.00000   -11.03744
    7. LP ( 1) N  1             1.96313    -0.51092  29(v),32(v),31(v),33(v)
    8. BD ( 1) N  1- C  3       1.98386    -0.83842  33(v),32(v),35(v),23(g)
                                                     31(g),27(v),29(g)
    9. BD ( 1) N  1- C  4       1.98386    -0.83842  31(v),29(v),34(v),22(g)
                                                     33(g),25(v),32(g)
   10. BD ( 2) N  1- C  4       1.68717    -0.29844  30(v),26(v)
   11. BD ( 1) C  2- C  5       1.98815    -0.75884  35(v),33(v),23(v),29(v)
                                                     28(g),34(g)
   12. BD ( 2) C  2- C  5       1.65378    -0.26524  24(v),30(v)
   13. BD ( 1) C  2- C  6       1.98815    -0.75884  34(v),31(v),22(v),32(v)
                                                     28(g),35(g)
   14. BD ( 1) C  2- H  7       1.98952    -0.65715  29(v),32(v),34(v),35(v)
                                                     25(g),27(g)
   15. BD ( 1) C  3- C  6       1.99089    -0.76613  28(v),22(g),25(v),31(g)
                                                     35(g),23(v)
   16. BD ( 2) C  3- C  6       1.65910    -0.26928  26(v),24(v)
   17. BD ( 1) C  3- H  8       1.99050    -0.65068  23(v),27(v),29(g),35(v)
                                                     22(g)
   18. BD ( 1) C  4- C  5       1.99089    -0.76613  28(v),23(g),27(v),33(g)
                                                     34(g),22(v)
   19. BD ( 1) C  4- H  9       1.99050    -0.65068  22(v),25(v),32(g),34(v)
                                                     23(g)
   20. BD ( 1) C  5- H 10       1.98908    -0.65350  23(v),27(v),28(v),33(v)
                                                     25(g),32(g)
   21. BD ( 1) C  6- H 11       1.98908    -0.65350  22(v),25(v),28(v),31(v)
                                                     27(g),29(g)
 ------ non-Lewis ----------------------------------
   22. BD*( 1) N  1- C  3       0.01462     0.83819
   23. BD*( 1) N  1- C  4       0.01462     0.83819
   24. BD*( 2) N  1- C  4       0.35178     0.22491
   25. BD*( 1) C  2- C  5       0.01061     0.86876
   26. BD*( 2) C  2- C  5       0.31869     0.23849
   27. BD*( 1) C  2- C  6       0.01061     0.86876
   28. BD*( 1) C  2- H  7       0.01103     0.71670
   29. BD*( 1) C  3- C  6       0.02100     0.85991
   30. BD*( 2) C  3- C  6       0.32947     0.23359
   31. BD*( 1) C  3- H  8       0.01892     0.71727
   32. BD*( 1) C  4- C  5       0.02100     0.85991
   33. BD*( 1) C  4- H  9       0.01892     0.71727
   34. BD*( 1) C  5- H 10       0.01053     0.72214
   35. BD*( 1) C  6- H 11       0.01053     0.72214
          -------------------------------
                 Total Lewis   40.83766  ( 97.2325%)
           Valence non-Lewis    1.16234  (  2.7675%)
           Rydberg non-Lewis    0.00000  (  0.0000%)
          -------------------------------
               Total unit  1   42.00000  (100.0000%)
              Charge unit  1    0.00000

 $CHOOSE
   LONE 1 1 END
   BOND S 1 3 D 1 4 D 2 5 S 2 6 S 2 7 D 3 6 S 3 8 S 4 5 S 4 9 S 5 10 S 6 11 END
 $END

 NBO analysis completed in 13.52 CPU seconds (10 wall seconds)
 Maximum scratch memory used by NBO was 232248 words (1.77 MB)
 Maximum scratch memory used by G16NBO was 10272 words (0.08 MB)

 Opening RunExU unformatted file "/cluster/work/users/beto93/mol134/Gau-1107916.EUF"
 Read unf file /cluster/work/users/beto93/mol134/Gau-1107916.EUF:
 Label Gaussian matrix elements                                         IVers= 2 NLab= 2 Version=ES64L-G16RevC.01
 Title mol134-NBO                                                      
 NAtoms=    11 NBasis=    35 NBsUse=    35 ICharg=     0 Multip=     1 NE=    42 Len12L=8 Len4L=8 IOpCl= 0 ICGU=111
 GAUSSIAN SCALARS                    NI= 1 NR= 1 NTot=       1 LenBuf=    2 NRI=1 N=    1000
 NPA CHARGES                         NI= 0 NR= 1 NTot=      11 LenBuf= 4000 NRI=1 N=      11
 Recovered energy= -243.638050540     dipole=     -0.000000000000      0.000000000000     -0.805752833605
 Unable to Open any file for archive entry.
 1\1\GINC-C2-6\SP\RHF\STO-3G\C5H5N1\BETO93\18-Nov-2024\0\\#RHF/STO-3G i
 nt=nobasistransform Symmetry=None 5D 7F Pop=NBO7Read\\mol134-NBO\\0,1\
 N,0,0.,0.,1.424672\C,0,0.,0.,-1.386178\C,0,0.,1.144277,0.720306\C,0,0.
 ,-1.144277,0.720306\C,0,0.,-1.196404,-0.672917\C,0,0.,1.196404,-0.6729
 17\H,0,0.,0.,-2.473052\H,0,0.,2.060723,1.307477\H,0,0.,-2.060723,1.307
 477\H,0,0.,-2.155293,-1.183103\H,0,0.,2.155293,-1.183103\\Version=ES64
 L-G16RevC.01\HF=-243.6380505\RMSD=2.633e-09\Dipole=0.,0.,-0.8057528\Qu
 adrupole=-0.8072986,2.6625077,-1.8552091,0.,0.,0.\PG=Unknown\\@
 The archive entry for this job was punched.


 TO SEE A WORLD IN A GRAIN OF SAND
 AND A HEAVEN IN A WILD FLOWER
 HOLD INFINITY IN THE PALM OF YOUR HAND
 AND ETERNITY IN AN HOUR

                       -- WILLIAM BLAKE
 Job cpu time:       0 days  0 hours  0 minutes 37.5 seconds.
 Elapsed time:       0 days  0 hours  0 minutes 12.6 seconds.
 File lengths (MBytes):  RWF=     10 Int=      0 D2E=      0 Chk=      1 Scr=      1
 Normal termination of Gaussian 16 at Mon Nov 18 15:41:57 2024.
