 Entering Gaussian System, Link 0=g16
 Initial command:
 /cluster/software/Gaussian/g16_C.01/l1.exe "/cluster/work/users/beto93/mol131/Gau-1782376.inp" -scrdir="/cluster/work/users/beto93/mol131/"
 Entering Link 1 = /cluster/software/Gaussian/g16_C.01/l1.exe PID=   1782377.
  
 Copyright (c) 1988-2019, Gaussian, Inc.  All Rights Reserved.
  
 This is part of the Gaussian(R) 16 program.  It is based on
 the Gaussian(R) 09 system (copyright 2009, Gaussian, Inc.),
 the Gaussian(R) 03 system (copyright 2003, Gaussian, Inc.),
 the Gaussian(R) 98 system (copyright 1998, Gaussian, Inc.),
 the Gaussian(R) 94 system (copyright 1995, Gaussian, Inc.),
 the Gaussian 92(TM) system (copyright 1992, Gaussian, Inc.),
 the Gaussian 90(TM) system (copyright 1990, Gaussian, Inc.),
 the Gaussian 88(TM) system (copyright 1988, Gaussian, Inc.),
 the Gaussian 86(TM) system (copyright 1986, Carnegie Mellon
 University), and the Gaussian 82(TM) system (copyright 1983,
 Carnegie Mellon University). Gaussian is a federally registered
 trademark of Gaussian, Inc.
  
 This software contains proprietary and confidential information,
 including trade secrets, belonging to Gaussian, Inc.
  
 This software is provided under written license and may be
 used, copied, transmitted, or stored only in accord with that
 written license.
  
 The following legend is applicable only to US Government
 contracts under FAR:
  
                    RESTRICTED RIGHTS LEGEND
  
 Use, reproduction and disclosure by the US Government is
 subject to restrictions as set forth in subparagraphs (a)
 and (c) of the Commercial Computer Software - Restricted
 Rights clause in FAR 52.227-19.
  
 Gaussian, Inc.
 340 Quinnipiac St., Bldg. 40, Wallingford CT 06492
  
  
 ---------------------------------------------------------------
 Warning -- This program may not be used in any manner that
 competes with the business of Gaussian, Inc. or will provide
 assistance to any competitor of Gaussian, Inc.  The licensee
 of this program is prohibited from giving any competitor of
 Gaussian, Inc. access to this program.  By using this program,
 the user acknowledges that Gaussian, Inc. is engaged in the
 business of creating and licensing software in the field of
 computational chemistry and represents and warrants to the
 licensee that it is not a competitor of Gaussian, Inc. and that
 it will not use this program in any manner prohibited above.
 ---------------------------------------------------------------
  

 Cite this work as:
 Gaussian 16, Revision C.01,
 M. J. Frisch, G. W. Trucks, H. B. Schlegel, G. E. Scuseria, 
 M. A. Robb, J. R. Cheeseman, G. Scalmani, V. Barone, 
 G. A. Petersson, H. Nakatsuji, X. Li, M. Caricato, A. V. Marenich, 
 J. Bloino, B. G. Janesko, R. Gomperts, B. Mennucci, H. P. Hratchian, 
 J. V. Ortiz, A. F. Izmaylov, J. L. Sonnenberg, D. Williams-Young, 
 F. Ding, F. Lipparini, F. Egidi, J. Goings, B. Peng, A. Petrone, 
 T. Henderson, D. Ranasinghe, V. G. Zakrzewski, J. Gao, N. Rega, 
 G. Zheng, W. Liang, M. Hada, M. Ehara, K. Toyota, R. Fukuda, 
 J. Hasegawa, M. Ishida, T. Nakajima, Y. Honda, O. Kitao, H. Nakai, 
 T. Vreven, K. Throssell, J. A. Montgomery, Jr., J. E. Peralta, 
 F. Ogliaro, M. J. Bearpark, J. J. Heyd, E. N. Brothers, K. N. Kudin, 
 V. N. Staroverov, T. A. Keith, R. Kobayashi, J. Normand, 
 K. Raghavachari, A. P. Rendell, J. C. Burant, S. S. Iyengar, 
 J. Tomasi, M. Cossi, J. M. Millam, M. Klene, C. Adamo, R. Cammi, 
 J. W. Ochterski, R. L. Martin, K. Morokuma, O. Farkas, 
 J. B. Foresman, and D. J. Fox, Gaussian, Inc., Wallingford CT, 2019.
 
 ******************************************
 Gaussian 16:  ES64L-G16RevC.01  3-Jul-2019
                18-Nov-2024 
 ******************************************
 %LindaWorkers=c1-37-ib
 %NProcShared=4
 Will use up to    4 processors via shared memory.
 %mem=25GB
 %chk=mol131.chk
 SetLPE:    new flags="-opt 'Tsnet.Node.lindarsharg: ssh'  -nodelist 'c1-37-ib.saga' -env GAUSS_MDEF=3355443200 -env GAUSS_EXEDIR="/cluster/software/Gaussian/g16_C.01/bsd:/cluster/software/Gaussian/g16_C.01""
 Will use up to    1 processors via Linda.
 -----------------------------------------------------------------
 #RHF/6-31G* int=nobasistransform Symmetry=None 5D 7F Pop=NBO7Read
 -----------------------------------------------------------------
 1/38=1,163=2,172=1/1;
 2/12=2,15=3,17=6,18=5,40=1/2;
 3/5=1,6=6,7=1,8=11,11=1,25=1,30=1,60=-1,116=1/1,2,3;
 4//1;
 5/5=2,38=5/2;
 6/7=2,8=2,9=2,10=2,28=1,40=2,113=1,114=1,124=2103/1,12;
 99/5=1,9=1/99;
 ----------
 mol131-NBO
 ----------
 Symbolic Z-matrix:
 Charge =  0 Multiplicity = 1
 O                     0.        0.        1.16334 
 C                     0.        1.0947    0.34804 
 C                     0.       -1.0947    0.34804 
 C                     0.        0.7132   -0.96216 
 C                     0.       -0.7132   -0.96216 
 H                     0.        2.04936   0.85111 
 H                     0.       -2.04936   0.85111 
 H                     0.        1.37083  -1.81974 
 H                     0.       -1.37083  -1.81974 
 
                          Input orientation:                          
 ---------------------------------------------------------------------
 Center     Atomic      Atomic             Coordinates (Angstroms)
 Number     Number       Type             X           Y           Z
 ---------------------------------------------------------------------
      1          8           0        0.000000    0.000000    1.163339
      2          6           0        0.000000    1.094700    0.348039
      3          6           0        0.000000   -1.094700    0.348039
      4          6           0        0.000000    0.713200   -0.962161
      5          6           0        0.000000   -0.713200   -0.962161
      6          1           0        0.000000    2.049359    0.851113
      7          1           0        0.000000   -2.049359    0.851113
      8          1           0        0.000000    1.370828   -1.819738
      9          1           0        0.000000   -1.370828   -1.819738
 ---------------------------------------------------------------------
                    Distance matrix (angstroms):
                    1          2          3          4          5
     1  O    0.000000
     2  C    1.364948   0.000000
     3  C    1.364948   2.189400   0.000000
     4  C    2.241964   1.364612   2.232740   0.000000
     5  C    2.241964   2.232740   1.364612   1.426400   0.000000
     6  H    2.073007   1.079100   3.184053   2.252395   3.304496
     7  H    2.073007   3.184053   1.079100   3.304496   2.252395
     8  H    3.282974   2.185293   3.282999   1.080700   2.253577
     9  H    3.282974   3.282999   2.185293   2.253577   1.080700
                    6          7          8          9
     6  H    0.000000
     7  H    4.098718   0.000000
     8  H    2.755694   4.339484   0.000000
     9  H    4.339484   2.755694   2.741656   0.000000
 Symmetry turned off by external request.
 Stoichiometry    C4H4O
 Rotational constants (GHZ):           9.4957220           9.2133434           4.6762009
 Standard basis: 6-31G(d) (5D, 7F)
    78 basis functions,   156 primitive gaussians,    83 cartesian basis functions
    18 alpha electrons       18 beta electrons
       nuclear repulsion energy       160.6865288239 Hartrees.
 NAtoms=    9 NActive=    9 NUniq=    9 SFac= 1.00D+00 NAtFMM=   60 NAOKFM=F Big=F
 Integral buffers will be    131072 words long.
 Raffenetti 1 integral format.
 Two-electron integral symmetry is turned off.
 One-electron integrals computed using PRISM.
 NBasis=    78 RedAO= T EigKep=  1.17D-03  NBF=    78
 NBsUse=    78 1.00D-06 EigRej= -1.00D+00 NBFU=    78
 ExpMin= 1.61D-01 ExpMax= 5.48D+03 ExpMxC= 8.25D+02 IAcc=3 IRadAn=         5 AccDes= 0.00D+00
 Harris functional with IExCor=  205 and IRadAn=       5 diagonalized for initial guess.
 HarFok:  IExCor=  205 AccDes= 0.00D+00 IRadAn=         5 IDoV= 1 UseB2=F ITyADJ=14
 ICtDFT=  3500011 ScaDFX=  1.000000  1.000000  1.000000  1.000000
 FoFCou: FMM=F IPFlag=           0 FMFlag=      100000 FMFlg1=           0
         NFxFlg=           0 DoJE=T BraDBF=F KetDBF=T FulRan=T
         wScrn=  0.000000 ICntrl=       500 IOpCl=  0 I1Cent=   200000004 NGrid=           0
         NMat0=    1 NMatS0=      1 NMatT0=    0 NMatD0=    1 NMtDS0=    0 NMtDT0=    0
 Symmetry not used in FoFCou.
 Keep R1 ints in memory in canonical form, NReq=5606275.
 Requested convergence on RMS density matrix=1.00D-08 within 128 cycles.
 Requested convergence on MAX density matrix=1.00D-06.
 Requested convergence on             energy=1.00D-06.
 No special actions if energy rises.
 SCF Done:  E(RHF) =  -228.621507860     A.U. after   12 cycles
            NFock= 12  Conv=0.92D-08     -V/T= 2.0013

 **********************************************************************

            Population analysis using the SCF Density.

 **********************************************************************

 Alpha  occ. eigenvalues --  -20.62340 -11.28466 -11.28461 -11.22751 -11.22655
 Alpha  occ. eigenvalues --   -1.45054  -1.07817  -0.99711  -0.79957  -0.77653
 Alpha  occ. eigenvalues --   -0.73263  -0.62378  -0.60353  -0.56990  -0.56067
 Alpha  occ. eigenvalues --   -0.53410  -0.39102  -0.31211
 Alpha virt. eigenvalues --    0.16837   0.24656   0.26373   0.29757   0.30010
 Alpha virt. eigenvalues --    0.31216   0.36203   0.38629   0.47841   0.54992
 Alpha virt. eigenvalues --    0.66117   0.71302   0.75890   0.80729   0.82032
 Alpha virt. eigenvalues --    0.82067   0.84593   0.85115   0.86808   0.89091
 Alpha virt. eigenvalues --    0.92682   1.05051   1.09097   1.11508   1.15679
 Alpha virt. eigenvalues --    1.15719   1.21785   1.27537   1.30251   1.31547
 Alpha virt. eigenvalues --    1.39229   1.39268   1.61419   1.64160   1.65102
 Alpha virt. eigenvalues --    1.65680   1.79693   1.83758   1.84999   1.91863
 Alpha virt. eigenvalues --    2.03120   2.16202   2.25462   2.34477   2.38232
 Alpha virt. eigenvalues --    2.42327   2.52483   2.55293   2.57622   2.57799
 Alpha virt. eigenvalues --    2.64543   2.72823   2.91372   2.97079   2.97989
 Alpha virt. eigenvalues --    3.06159   3.14784   3.29371   3.32556   3.47133
          Condensed to atoms (all electrons):
               1          2          3          4          5          6
     1  O    8.191121   0.293237   0.293237  -0.070560  -0.070560  -0.029751
     2  C    0.293237   4.746903  -0.119400   0.663243  -0.083519   0.388953
     3  C    0.293237  -0.119400   4.746903  -0.083519   0.663243   0.003896
     4  C   -0.070560   0.663243  -0.083519   4.956522   0.483483  -0.028481
     5  C   -0.070560  -0.083519   0.663243   0.483483   4.956522   0.002086
     6  H   -0.029751   0.388953   0.003896  -0.028481   0.002086   0.438690
     7  H   -0.029751   0.003896   0.388953   0.002086  -0.028481  -0.000058
     8  H    0.002447  -0.022299   0.002857   0.373242  -0.021410   0.000743
     9  H    0.002447   0.002857  -0.022299  -0.021410   0.373242  -0.000062
               7          8          9
     1  O   -0.029751   0.002447   0.002447
     2  C    0.003896  -0.022299   0.002857
     3  C    0.388953   0.002857  -0.022299
     4  C    0.002086   0.373242  -0.021410
     5  C   -0.028481  -0.021410   0.373242
     6  H   -0.000058   0.000743  -0.000062
     7  H    0.438690  -0.000062   0.000743
     8  H   -0.000062   0.449091  -0.000041
     9  H    0.000743  -0.000041   0.449091
 Mulliken charges:
               1
     1  O   -0.581867
     2  C    0.126127
     3  C    0.126127
     4  C   -0.274608
     5  C   -0.274608
     6  H    0.223983
     7  H    0.223983
     8  H    0.215432
     9  H    0.215432
 Sum of Mulliken charges =  -0.00000
 Mulliken charges with hydrogens summed into heavy atoms:
               1
     1  O   -0.581867
     2  C    0.350109
     3  C    0.350109
     4  C   -0.059176
     5  C   -0.059176
 Electronic spatial extent (au):  <R**2>=            290.8645
 Charge=             -0.0000 electrons
 Dipole moment (field-independent basis, Debye):
    X=             -0.0000    Y=              0.0000    Z=             -0.8545  Tot=              0.8545
 Quadrupole moment (field-independent basis, Debye-Ang):
   XX=            -31.9255   YY=            -23.3178   ZZ=            -28.0771
   XY=             -0.0000   XZ=              0.0000   YZ=              0.0000
 Traceless Quadrupole moment (field-independent basis, Debye-Ang):
   XX=             -4.1521   YY=              4.4557   ZZ=             -0.3036
   XY=             -0.0000   XZ=              0.0000   YZ=              0.0000
 Octapole moment (field-independent basis, Debye-Ang**2):
  XXX=             -0.0000  YYY=             -0.0000  ZZZ=             -2.8552  XYY=             -0.0000
  XXY=              0.0000  XXZ=              3.1911  XZZ=             -0.0000  YZZ=             -0.0000
  YYZ=              4.7159  XYZ=              0.0000
 Hexadecapole moment (field-independent basis, Debye-Ang**3):
 XXXX=            -32.3349 YYYY=           -157.2948 ZZZZ=           -162.8698 XXXY=             -0.0000
 XXXZ=              0.0000 YYYX=             -0.0000 YYYZ=              0.0000 ZZZX=              0.0000
 ZZZY=              0.0000 XXYY=            -39.7987 XXZZ=            -35.5955 YYZZ=            -46.2139
 XXYZ=              0.0000 YYXZ=              0.0000 ZZXY=             -0.0000
 N-N= 1.606865288239D+02 E-N=-8.567941249816D+02  KE= 2.283308770291D+02
 Running external command "gaunbo7 R"
         input file       "/cluster/work/users/beto93/mol131/Gau-1782377.EIn"
         output file      "/cluster/work/users/beto93/mol131/Gau-1782377.EOu"
         message file     "/cluster/work/users/beto93/mol131/Gau-1782377.EMs"
         fchk file        "/cluster/work/users/beto93/mol131/Gau-1782377.EFC"
         mat. el file     "/cluster/work/users/beto93/mol131/Gau-1782377.EUF"

 Writing WrtUnf unformatted file "/cluster/work/users/beto93/mol131/Gau-1782377.EUF"
 Gaussian matrix elements                                         Version   2 NLab=11 Len12L=8 Len4L=8
 Write SHELL TO ATOM MAP                   from file      0 offset           0 length                  28 to matrix element file.
 Write SHELL TYPES                         from file      0 offset           0 length                  28 to matrix element file.
 Write NUMBER OF PRIMITIVES PER SHELL      from file      0 offset           0 length                  28 to matrix element file.
 Write PRIMITIVE EXPONENTS                 from file      0 offset           0 length                  71 to matrix element file.
 Write CONTRACTION COEFFICIENTS            from file      0 offset           0 length                  71 to matrix element file.
 Write P(S=P) CONTRACTION COEFFICIENTS     from file      0 offset           0 length                  71 to matrix element file.
 Write COORDINATES OF EACH SHELL           from file      0 offset           0 length                  84 to matrix element file.
 Write BONDS PER ATOM                      from file      0 offset           0 length                   9 to matrix element file.
 Write BONDED ATOMS                        from file      0 offset           0 length                  18 to matrix element file.
 Write BOND TYPES                          from file      0 offset           0 length                  18 to matrix element file.
 Write ONIOM CHARGE/MULT                   from file      0 offset           0 length                  32 to matrix element file.
 Write ONIOM ATOM LAYERS                   from file      0 offset           0 length                   9 to matrix element file.
 Write ONIOM ATOM MODIFIERS                from file      0 offset           0 length                   9 to matrix element file.
 Write ONIOM ATOM TYPES                    from file      0 offset           0 length                   9 to matrix element file.
 Write ONIOM LINK ATOMS                    from file      0 offset           0 length                   9 to matrix element file.
 Write ONIOM LINK CHARGES                  from file      0 offset           0 length                   9 to matrix element file.
 Write ONIOM LINK DISTANCES                from file      0 offset           0 length                  36 to matrix element file.
 Write SYMINF INTS                         from file      0 offset           0 length                  26 to matrix element file.
 Write ROTTR TO SO                         from file      0 offset           0 length                  12 to matrix element file.
 Write GAUSSIAN SCALARS                    from file    501 offset           0 to matrix element file.
 Write OPTIMIZATION FLAGS                  from file      0 offset           0 length                   9 to matrix element file.
 Write INTEGER ISO                         from file      0 offset           0 length                   9 to matrix element file.
 Write INTEGER SPIN                        from file      0 offset           0 length                   9 to matrix element file.
 Write REAL ZEFFECTIVE                     from file      0 offset           0 length                   9 to matrix element file.
 Write REAL GFACTOR                        from file      0 offset           0 length                   9 to matrix element file.
 Write REAL ZNUCLEAR                       from file      0 offset           0 length                   9 to matrix element file.
 Write MULLIKEN CHARGES                    from file      0 offset           0 length                   9 to matrix element file.
 Write NUCLEAR GRADIENT                    from file  10584 offset           0 length                  27 to matrix element file.
 Array NUCLEAR FORCE CONSTANTS              on  file  10585 does not exist.
 Write ELECTRIC DIPOLE MOMENT              from file      0 offset           0 length                   3 to matrix element file.
 Write NON-ADIABATIC COUPLING              from file  10810 offset           0 length                  27 to matrix element file.
 Write FINITE EM FIELD                     from file  10521 offset           0 length                  35 to matrix element file.
 Write OVERLAP                             from file  10514 offset           0 length                3081 to matrix element file.
 Write CORE HAMILTONIAN ALPHA              from file  10515 offset           0 length                3081 to matrix element file.
 Write CORE HAMILTONIAN BETA               from file  10515 offset        3081 length                3081 to matrix element file.
 Write KINETIC ENERGY                      from file  10516 offset           0 length                3081 to matrix element file.
 Write ORTHOGONAL BASIS                    from file  10685 offset           0 length                6084 to matrix element file.
 Write DIPOLE INTEGRALS                    from file  10518 offset           0 length                9243 to matrix element file.
 Array DIP VEL INTEGRALS                    on  file  10572 does not exist.
 Array R X DEL INTEGRALS                    on  file  10572 does not exist.
 Write ALPHA ORBITAL ENERGIES              from file      0 offset           0 length                  78 to matrix element file.
 Write ALPHA MO COEFFICIENTS               from file  10524 offset           0 length                6084 to matrix element file.
 Write ALPHA DENSITY MATRIX                from file      0 offset           0 length                3081 to matrix element file.
 Write ALPHA FOCK MATRIX                   from file  10536 offset           0 length                3081 to matrix element file.
 Write ENERGY-WEIGHTED DENSITY             from file  10571 offset           0 length                3081 to matrix element file.
 Write ALPHA SCF DENSITY MATRIX            from file      0 offset           0 length                3081 to matrix element file.
 No 2e integrals to process.
 Perform NBO analysis...executing G16NBO...

 *********************************** NBO 7.0 ***********************************
             N A T U R A L   A T O M I C   O R B I T A L   A N D
          N A T U R A L   B O N D   O R B I T A L   A N A L Y S I S
 **************************** Espen Tangen (S101595) ***************************
  (c) Copyright 1996-2021 Board of Regents of the University of Wisconsin System
      on behalf of the Theoretical Chemistry Institute.  All rights reserved.

          Cite this program [NBO 7.0.10 (8-Feb-2021)] as:

          NBO 7.0.  E. D. Glendening, J. K. Badenhoop, A. E. Reed,
          J. E. Carpenter, J. A. Bohmann, C. M. Morales, P. Karafiloglou,
          C. R. Landis, and F. Weinhold, Theoretical Chemistry Institute,
          University of Wisconsin, Madison, WI (2018)

       /NPA    / : Natural Population Analysis
       /AOPNAO / : Print the AO to PNAO transformation
       /AONAO  / : Print the AO to NAO transformation
       /AOMO   / : Print the MOs in the AO basis
       /BOAO   / : Print the AO bond-order matrix
       /DMAO   / : Print the AO density matrix
       /DMPNAO / : Print the PNAO density matrix
       /DMNAO  / : Print the NAO density matrix
       /DMMO   / : Print the MO density matrix
       /SAO    / : Print the AO overlap matrix
       /SPNAO  / : Print the PNAO overlap matrix
       /DETAIL / : Write details of NBO search
       /ARCHIVE/ : Write the archive file to lfn47
       /AOINFO / : Write AO information to lfn31
       /FILE   / : Set to mol131.gen*

 Filename set to mol131.gen1

 Job title: mol131-NBO


 MOs in the AO basis:

           AO          1       2       3       4       5       6       7       8
      ------------ ------- ------- ------- ------- ------- ------- ------- -------
   1.  O 1 (s)      0.9959  0.0000 -0.0001  0.0000  0.0000 -0.1965  0.0765  0.0000
   2.  O 1 (s)      0.0234  0.0000  0.0014  0.0002  0.0000  0.4290 -0.1789  0.0000
   3.  O 1 (px)     0.0000  0.0000  0.0000  0.0000  0.0000  0.0000  0.0000  0.0000
   4.  O 1 (py)     0.0000  0.0002  0.0000  0.0000  0.0000  0.0000  0.0000  0.2333
   5.  O 1 (pz)    -0.0018  0.0000 -0.0002  0.0000  0.0000 -0.0965 -0.0576  0.0000
   6.  O 1 (s)     -0.0137  0.0000 -0.0041 -0.0014  0.0000  0.4552 -0.2074  0.0000
   7.  O 1 (px)     0.0000  0.0000  0.0000  0.0000  0.0000  0.0000  0.0000  0.0000
   8.  O 1 (py)     0.0000 -0.0019  0.0000  0.0000 -0.0005  0.0000  0.0000  0.1259
   9.  O 1 (pz)     0.0041  0.0000  0.0029  0.0006  0.0000 -0.0684 -0.0289  0.0000
  10.  O 1 (d5)    -0.0002  0.0000 -0.0004  0.0001  0.0000  0.0065  0.0075  0.0000
  11.  O 1 (d2)     0.0000  0.0000  0.0000  0.0000  0.0000  0.0000  0.0000  0.0000
  12.  O 1 (d3)     0.0000  0.0009  0.0000  0.0000  0.0000  0.0000  0.0000 -0.0240
  13.  O 1 (d4)     0.0003  0.0000  0.0010  0.0000  0.0000 -0.0107  0.0011  0.0000
  14.  O 1 (d1)     0.0000  0.0000  0.0000  0.0000  0.0000  0.0000  0.0000  0.0000
  15.  C 2 (s)      0.0000  0.7044  0.7043 -0.0087 -0.0087 -0.0705 -0.0542 -0.1338
  16.  C 2 (s)      0.0002  0.0176  0.0170 -0.0008 -0.0008  0.1316  0.1080  0.2673
  17.  C 2 (px)     0.0000  0.0000  0.0000  0.0000  0.0000  0.0000  0.0000  0.0000
  18.  C 2 (py)    -0.0005 -0.0010 -0.0011  0.0001  0.0001 -0.0889 -0.0080 -0.0135
  19.  C 2 (pz)     0.0003  0.0006  0.0007  0.0004  0.0002  0.0429 -0.1319 -0.0101
  20.  C 2 (s)      0.0050 -0.0103 -0.0047  0.0041  0.0054  0.0142  0.0668  0.1932
  21.  C 2 (px)     0.0000  0.0000  0.0000  0.0000  0.0000  0.0000  0.0000  0.0000
  22.  C 2 (py)    -0.0036  0.0021 -0.0024 -0.0012 -0.0017  0.0281 -0.0001  0.0186
  23.  C 2 (pz)    -0.0003  0.0032 -0.0005 -0.0016 -0.0018  0.0037 -0.0146 -0.0172
  24.  C 2 (d5)     0.0000  0.0002  0.0002 -0.0002 -0.0002 -0.0002  0.0072  0.0107
  25.  C 2 (d2)     0.0000  0.0000  0.0000  0.0000  0.0000  0.0000  0.0000  0.0000
  26.  C 2 (d3)     0.0003 -0.0001 -0.0001 -0.0001 -0.0002 -0.0151  0.0163  0.0006
  27.  C 2 (d4)    -0.0001 -0.0003 -0.0007  0.0000  0.0001 -0.0149 -0.0004 -0.0095
  28.  C 2 (d1)     0.0000  0.0000  0.0000  0.0000  0.0000  0.0000  0.0000  0.0000
  29.  C 3 (s)      0.0000 -0.7044  0.7043 -0.0087  0.0087 -0.0705 -0.0542  0.1338
  30.  C 3 (s)      0.0002 -0.0176  0.0170 -0.0008  0.0008  0.1316  0.1080 -0.2673
  31.  C 3 (px)     0.0000  0.0000  0.0000  0.0000  0.0000  0.0000  0.0000  0.0000
  32.  C 3 (py)     0.0005 -0.0010  0.0011 -0.0001  0.0001  0.0889  0.0080 -0.0135
  33.  C 3 (pz)     0.0003 -0.0006  0.0007  0.0004 -0.0002  0.0429 -0.1319  0.0101
  34.  C 3 (s)      0.0050  0.0103 -0.0047  0.0041 -0.0054  0.0142  0.0668 -0.1932
  35.  C 3 (px)     0.0000  0.0000  0.0000  0.0000  0.0000  0.0000  0.0000  0.0000
  36.  C 3 (py)     0.0036  0.0021  0.0024  0.0012 -0.0017 -0.0281  0.0001  0.0186
  37.  C 3 (pz)    -0.0003 -0.0032 -0.0005 -0.0016  0.0018  0.0037 -0.0146  0.0172
  38.  C 3 (d5)     0.0000 -0.0002  0.0002 -0.0002  0.0002 -0.0002  0.0072 -0.0107
  39.  C 3 (d2)     0.0000  0.0000  0.0000  0.0000  0.0000  0.0000  0.0000  0.0000
  40.  C 3 (d3)    -0.0003 -0.0001  0.0001  0.0001 -0.0002  0.0151 -0.0163  0.0006
  41.  C 3 (d4)    -0.0001  0.0003 -0.0007  0.0000 -0.0001 -0.0149 -0.0004  0.0095
  42.  C 3 (d1)     0.0000  0.0000  0.0000  0.0000  0.0000  0.0000  0.0000  0.0000
  43.  C 4 (s)      0.0000  0.0084  0.0084  0.7042  0.7044 -0.0244 -0.1375 -0.0696
  44.  C 4 (s)      0.0000 -0.0004 -0.0002  0.0172  0.0183  0.0458  0.2626  0.1346
  45.  C 4 (px)     0.0000  0.0000  0.0000  0.0000  0.0000  0.0000  0.0000  0.0000
  46.  C 4 (py)    -0.0002 -0.0001 -0.0002  0.0000 -0.0004 -0.0097 -0.0671  0.0715
  47.  C 4 (pz)    -0.0002 -0.0002 -0.0003  0.0003  0.0004  0.0325  0.0534  0.0752
  48.  C 4 (s)     -0.0018  0.0058  0.0008 -0.0083 -0.0164  0.0334  0.1889  0.1129
  49.  C 4 (px)     0.0000  0.0000  0.0000  0.0000  0.0000  0.0000  0.0000  0.0000
  50.  C 4 (py)     0.0009  0.0004  0.0009 -0.0002  0.0033 -0.0081 -0.0080 -0.0032
  51.  C 4 (pz)    -0.0015  0.0030 -0.0003 -0.0016 -0.0027  0.0143  0.0069  0.0014
  52.  C 4 (d5)    -0.0001 -0.0002 -0.0003  0.0004  0.0001  0.0043  0.0042  0.0124
  53.  C 4 (d2)     0.0000  0.0000  0.0000  0.0000  0.0000  0.0000  0.0000  0.0000
  54.  C 4 (d3)     0.0000  0.0001 -0.0001  0.0000 -0.0001  0.0001 -0.0033  0.0030
  55.  C 4 (d4)    -0.0001  0.0001  0.0000  0.0000 -0.0006 -0.0016 -0.0147  0.0009
  56.  C 4 (d1)     0.0000  0.0000  0.0000  0.0000  0.0000  0.0000  0.0000  0.0000
  57.  C 5 (s)      0.0000 -0.0084  0.0084  0.7042 -0.7044 -0.0244 -0.1375  0.0696
  58.  C 5 (s)      0.0000  0.0004 -0.0002  0.0172 -0.0183  0.0458  0.2626 -0.1346
  59.  C 5 (px)     0.0000  0.0000  0.0000  0.0000  0.0000  0.0000  0.0000  0.0000
  60.  C 5 (py)     0.0002 -0.0001  0.0002  0.0000 -0.0004  0.0097  0.0671  0.0715
  61.  C 5 (pz)    -0.0002  0.0002 -0.0003  0.0003 -0.0004  0.0325  0.0534 -0.0752
  62.  C 5 (s)     -0.0018 -0.0058  0.0008 -0.0083  0.0164  0.0334  0.1889 -0.1129
  63.  C 5 (px)     0.0000  0.0000  0.0000  0.0000  0.0000  0.0000  0.0000  0.0000
  64.  C 5 (py)    -0.0009  0.0004 -0.0009  0.0002  0.0033  0.0081  0.0080 -0.0032
  65.  C 5 (pz)    -0.0015 -0.0030 -0.0003 -0.0016  0.0027  0.0143  0.0069 -0.0014
  66.  C 5 (d5)    -0.0001  0.0002 -0.0003  0.0004 -0.0001  0.0043  0.0042 -0.0124
  67.  C 5 (d2)     0.0000  0.0000  0.0000  0.0000  0.0000  0.0000  0.0000  0.0000
  68.  C 5 (d3)     0.0000  0.0001  0.0001  0.0000 -0.0001 -0.0001  0.0033  0.0030
  69.  C 5 (d4)    -0.0001 -0.0001  0.0000  0.0000  0.0006 -0.0016 -0.0147 -0.0009
  70.  C 5 (d1)     0.0000  0.0000  0.0000  0.0000  0.0000  0.0000  0.0000  0.0000
  71.  H 6 (s)     -0.0001 -0.0005 -0.0002  0.0000  0.0000  0.0171  0.0143  0.0893
  72.  H 6 (s)      0.0009  0.0004  0.0025  0.0003  0.0003 -0.0105  0.0000  0.0198
  73.  H 7 (s)     -0.0001  0.0005 -0.0002  0.0000  0.0000  0.0171  0.0143 -0.0893
  74.  H 7 (s)      0.0009 -0.0004  0.0025  0.0003 -0.0003 -0.0105  0.0000 -0.0198
  75.  H 8 (s)     -0.0001 -0.0001 -0.0001 -0.0004 -0.0003  0.0045  0.0595  0.0423
  76.  H 8 (s)     -0.0005  0.0002 -0.0004  0.0013  0.0009  0.0026  0.0085  0.0095
  77.  H 9 (s)     -0.0001  0.0001 -0.0001 -0.0004  0.0003  0.0045  0.0595 -0.0423
  78.  H 9 (s)     -0.0005 -0.0002 -0.0004  0.0013 -0.0009  0.0026  0.0085 -0.0095

           AO          9      10      11      12      13      14      15      16
      ------------ ------- ------- ------- ------- ------- ------- ------- -------
   1.  O 1 (s)      0.0000  0.0576 -0.0293  0.0000  0.0000  0.0000 -0.0191 -0.0381
   2.  O 1 (s)      0.0000 -0.1401  0.0759  0.0000  0.0000  0.0000  0.0483  0.0922
   3.  O 1 (px)     0.0000  0.0000  0.0000  0.5007  0.0000  0.0000  0.0000  0.0000
   4.  O 1 (py)     0.3015  0.0000  0.0000  0.0000  0.3438 -0.0269  0.0000  0.0000
   5.  O 1 (pz)     0.0000 -0.1037  0.2847  0.0000  0.0000  0.0000  0.3910  0.3116
   6.  O 1 (s)      0.0000 -0.1732  0.0847  0.0000  0.0000  0.0000  0.0559  0.1446
   7.  O 1 (px)     0.0000  0.0000  0.0000  0.3436  0.0000  0.0000  0.0000  0.0000
   8.  O 1 (py)     0.1768  0.0000  0.0000  0.0000  0.2235 -0.0081  0.0000  0.0000
   9.  O 1 (pz)     0.0000 -0.0756  0.1797  0.0000  0.0000  0.0000  0.2805  0.2340
  10.  O 1 (d5)     0.0000  0.0035 -0.0221  0.0000  0.0000  0.0000 -0.0175 -0.0072
  11.  O 1 (d2)     0.0000  0.0000  0.0000 -0.0302  0.0000  0.0000  0.0000  0.0000
  12.  O 1 (d3)    -0.0188  0.0000  0.0000  0.0000 -0.0215 -0.0071  0.0000  0.0000
  13.  O 1 (d4)     0.0000 -0.0040 -0.0030  0.0000  0.0000  0.0000  0.0008  0.0073
  14.  O 1 (d1)     0.0000  0.0000  0.0000  0.0000  0.0000  0.0000  0.0000  0.0000
  15.  C 2 (s)     -0.0222 -0.1002 -0.0120  0.0000  0.0264 -0.0335  0.0076  0.0067
  16.  C 2 (s)      0.0460  0.2071  0.0242  0.0000 -0.0566  0.0703 -0.0200 -0.0148
  17.  C 2 (px)     0.0000  0.0000  0.0000  0.1904  0.0000  0.0000  0.0000  0.0000
  18.  C 2 (py)    -0.0267  0.1162  0.2081  0.0000 -0.2775 -0.1416  0.0922 -0.0384
  19.  C 2 (pz)     0.2283 -0.0147  0.0855  0.0000  0.0356 -0.2207 -0.0379 -0.2515
  20.  C 2 (s)     -0.0023  0.1832  0.0716  0.0000 -0.0753  0.0573  0.0021 -0.0134
  21.  C 2 (px)     0.0000  0.0000  0.0000  0.1013  0.0000  0.0000  0.0000  0.0000
  22.  C 2 (py)     0.0298  0.0687  0.0551  0.0000 -0.1317 -0.0537  0.0244 -0.0438
  23.  C 2 (pz)     0.0529  0.0072  0.0381  0.0000 -0.0185 -0.0821  0.0185 -0.0712
  24.  C 2 (d5)    -0.0047 -0.0009  0.0054  0.0000  0.0097  0.0073  0.0072  0.0180
  25.  C 2 (d2)     0.0000  0.0000  0.0000  0.0058  0.0000  0.0000  0.0000  0.0000
  26.  C 2 (d3)    -0.0129  0.0157  0.0071  0.0000 -0.0327  0.0019  0.0201 -0.0047
  27.  C 2 (d4)    -0.0109 -0.0090  0.0039  0.0000  0.0048  0.0071  0.0073  0.0172
  28.  C 2 (d1)     0.0000  0.0000  0.0000 -0.0195  0.0000  0.0000  0.0000  0.0000
  29.  C 3 (s)      0.0222 -0.1002 -0.0120  0.0000 -0.0264  0.0335  0.0076  0.0067
  30.  C 3 (s)     -0.0460  0.2071  0.0242  0.0000  0.0566 -0.0703 -0.0200 -0.0148
  31.  C 3 (px)     0.0000  0.0000  0.0000  0.1904  0.0000  0.0000  0.0000  0.0000
  32.  C 3 (py)    -0.0267 -0.1162 -0.2081  0.0000 -0.2775 -0.1416 -0.0922  0.0384
  33.  C 3 (pz)    -0.2283 -0.0147  0.0855  0.0000 -0.0356  0.2207 -0.0379 -0.2515
  34.  C 3 (s)      0.0023  0.1832  0.0716  0.0000  0.0753 -0.0573  0.0021 -0.0134
  35.  C 3 (px)     0.0000  0.0000  0.0000  0.1013  0.0000  0.0000  0.0000  0.0000
  36.  C 3 (py)     0.0298 -0.0687 -0.0551  0.0000 -0.1317 -0.0537 -0.0244  0.0438
  37.  C 3 (pz)    -0.0529  0.0072  0.0381  0.0000  0.0185  0.0821  0.0185 -0.0712
  38.  C 3 (d5)     0.0047 -0.0009  0.0054  0.0000 -0.0097 -0.0073  0.0072  0.0180
  39.  C 3 (d2)     0.0000  0.0000  0.0000  0.0058  0.0000  0.0000  0.0000  0.0000
  40.  C 3 (d3)    -0.0129 -0.0157 -0.0071  0.0000 -0.0327  0.0019 -0.0201  0.0047
  41.  C 3 (d4)     0.0109 -0.0090  0.0039  0.0000 -0.0048 -0.0071  0.0073  0.0172
  42.  C 3 (d1)     0.0000  0.0000  0.0000  0.0195  0.0000  0.0000  0.0000  0.0000
  43.  C 4 (s)      0.0969  0.0542 -0.0260  0.0000 -0.0335  0.0039 -0.0195 -0.0052
  44.  C 4 (s)     -0.1922 -0.1111  0.0539  0.0000  0.0680 -0.0066  0.0409  0.0074
  45.  C 4 (px)     0.0000  0.0000  0.0000  0.1072  0.0000  0.0000  0.0000  0.0000
  46.  C 4 (py)    -0.1196  0.1234  0.0903  0.0000  0.0304 -0.0472 -0.2747  0.2601
  47.  C 4 (pz)     0.0007  0.1631 -0.1671  0.0000 -0.0701  0.2902  0.1352  0.1639
  48.  C 4 (s)     -0.1408 -0.1052  0.0740  0.0000  0.0456 -0.0158  0.0438  0.0261
  49.  C 4 (px)     0.0000  0.0000  0.0000  0.0563  0.0000  0.0000  0.0000  0.0000
  50.  C 4 (py)    -0.0757  0.0166  0.0384  0.0000  0.0381 -0.0405 -0.1109  0.1308
  51.  C 4 (pz)     0.0449  0.0666 -0.0634  0.0000 -0.0587  0.1359  0.0646  0.0605
  52.  C 4 (d5)    -0.0119  0.0063 -0.0010  0.0000  0.0078  0.0053 -0.0139  0.0138
  53.  C 4 (d2)     0.0000  0.0000  0.0000  0.0101  0.0000  0.0000  0.0000  0.0000
  54.  C 4 (d3)     0.0057  0.0081 -0.0014  0.0000 -0.0134  0.0246  0.0095 -0.0008
  55.  C 4 (d4)     0.0018  0.0107 -0.0032  0.0000  0.0006  0.0074 -0.0068  0.0076
  56.  C 4 (d1)     0.0000  0.0000  0.0000 -0.0030  0.0000  0.0000  0.0000  0.0000
  57.  C 5 (s)     -0.0969  0.0542 -0.0260  0.0000  0.0335 -0.0039 -0.0195 -0.0052
  58.  C 5 (s)      0.1922 -0.1111  0.0539  0.0000 -0.0680  0.0066  0.0409  0.0074
  59.  C 5 (px)     0.0000  0.0000  0.0000  0.1072  0.0000  0.0000  0.0000  0.0000
  60.  C 5 (py)    -0.1196 -0.1234 -0.0903  0.0000  0.0304 -0.0472  0.2747 -0.2601
  61.  C 5 (pz)    -0.0007  0.1631 -0.1671  0.0000  0.0701 -0.2902  0.1352  0.1639
  62.  C 5 (s)      0.1408 -0.1052  0.0740  0.0000 -0.0456  0.0158  0.0438  0.0261
  63.  C 5 (px)     0.0000  0.0000  0.0000  0.0563  0.0000  0.0000  0.0000  0.0000
  64.  C 5 (py)    -0.0757 -0.0166 -0.0384  0.0000  0.0381 -0.0405  0.1109 -0.1308
  65.  C 5 (pz)    -0.0449  0.0666 -0.0634  0.0000  0.0587 -0.1359  0.0646  0.0605
  66.  C 5 (d5)     0.0119  0.0063 -0.0010  0.0000 -0.0078 -0.0053 -0.0139  0.0138
  67.  C 5 (d2)     0.0000  0.0000  0.0000  0.0101  0.0000  0.0000  0.0000  0.0000
  68.  C 5 (d3)     0.0057 -0.0081  0.0014  0.0000 -0.0134  0.0246 -0.0095  0.0008
  69.  C 5 (d4)    -0.0018  0.0107 -0.0032  0.0000 -0.0006 -0.0074 -0.0068  0.0076
  70.  C 5 (d1)     0.0000  0.0000  0.0000  0.0030  0.0000  0.0000  0.0000  0.0000
  71.  H 6 (s)      0.0555  0.1411  0.1243  0.0000 -0.1788 -0.1029  0.0358 -0.1154
  72.  H 6 (s)      0.0199  0.0549  0.0698  0.0000 -0.1131 -0.0822  0.0310 -0.0894
  73.  H 7 (s)     -0.0555  0.1411  0.1243  0.0000  0.1788  0.1029  0.0358 -0.1154
  74.  H 7 (s)     -0.0199  0.0549  0.0698  0.0000  0.1131  0.0822  0.0310 -0.0894
  75.  H 8 (s)     -0.1175 -0.0757  0.1202  0.0000  0.0857 -0.1758 -0.1572  0.0240
  76.  H 8 (s)     -0.0338 -0.0267  0.0623  0.0000  0.0477 -0.1298 -0.1258  0.0099
  77.  H 9 (s)      0.1175 -0.0757  0.1202  0.0000 -0.0857  0.1758 -0.1572  0.0240
  78.  H 9 (s)      0.0338 -0.0267  0.0623  0.0000 -0.0477  0.1298 -0.1258  0.0099

           AO         17      18      19      20      21      22      23      24
      ------------ ------- ------- ------- ------- ------- ------- ------- -------
   1.  O 1 (s)      0.0000  0.0000  0.0000  0.0000  0.0040 -0.0521  0.0000  0.0000
   2.  O 1 (s)      0.0000  0.0000  0.0000  0.0000 -0.0198  0.1153  0.0000  0.0000
   3.  O 1 (px)     0.3379  0.0000 -0.2833  0.0000  0.0000  0.0000  0.0000  0.0000
   4.  O 1 (py)     0.0000  0.0000  0.0000  0.0000  0.0000  0.0000  0.0331  0.0061
   5.  O 1 (pz)     0.0000  0.0000  0.0000  0.0000  0.0488 -0.1295  0.0000  0.0000
   6.  O 1 (s)      0.0000  0.0000  0.0000  0.0000 -0.0044  0.4883  0.0000  0.0000
   7.  O 1 (px)     0.2958  0.0000 -0.4036  0.0000  0.0000  0.0000  0.0000  0.0000
   8.  O 1 (py)     0.0000  0.0000  0.0000  0.0000  0.0000  0.0000 -0.0148  0.1982
   9.  O 1 (pz)     0.0000  0.0000  0.0000  0.0000  0.1257 -0.1410  0.0000  0.0000
  10.  O 1 (d5)     0.0000  0.0000  0.0000  0.0000  0.0091  0.0075  0.0000  0.0000
  11.  O 1 (d2)    -0.0103  0.0000 -0.0001  0.0000  0.0000  0.0000  0.0000  0.0000
  12.  O 1 (d3)     0.0000  0.0000  0.0000  0.0000  0.0000  0.0000  0.0132 -0.0176
  13.  O 1 (d4)     0.0000  0.0000  0.0000  0.0000  0.0031  0.0026  0.0000  0.0000
  14.  O 1 (d1)     0.0000  0.0206  0.0000 -0.0263  0.0000  0.0000  0.0000  0.0000
  15.  C 2 (s)      0.0000  0.0000  0.0000  0.0000  0.0478  0.0727  0.0537  0.0085
  16.  C 2 (s)      0.0000  0.0000  0.0000  0.0000 -0.0583 -0.0897 -0.1095  0.0148
  17.  C 2 (px)    -0.1086  0.3442  0.3175 -0.2171  0.0000  0.0000  0.0000  0.0000
  18.  C 2 (py)     0.0000  0.0000  0.0000  0.0000 -0.1349 -0.0279 -0.1642 -0.1145
  19.  C 2 (pz)     0.0000  0.0000  0.0000  0.0000 -0.0493 -0.0980 -0.0656 -0.0689
  20.  C 2 (s)      0.0000  0.0000  0.0000  0.0000 -0.7862 -0.9692 -0.4600 -0.8955
  21.  C 2 (px)    -0.0729  0.2932  0.5527 -0.4957  0.0000  0.0000  0.0000  0.0000
  22.  C 2 (py)     0.0000  0.0000  0.0000  0.0000 -0.3749 -0.4582 -1.2878 -0.0172
  23.  C 2 (pz)     0.0000  0.0000  0.0000  0.0000 -0.1926 -0.4938 -0.5038 -0.1893
  24.  C 2 (d5)     0.0000  0.0000  0.0000  0.0000 -0.0038 -0.0028  0.0112 -0.0069
  25.  C 2 (d2)     0.0268 -0.0130 -0.0005 -0.0281  0.0000  0.0000  0.0000  0.0000
  26.  C 2 (d3)     0.0000  0.0000  0.0000  0.0000  0.0140 -0.0143  0.0022  0.0016
  27.  C 2 (d4)     0.0000  0.0000  0.0000  0.0000 -0.0062 -0.0090 -0.0040  0.0038
  28.  C 2 (d1)    -0.0047 -0.0037  0.0153 -0.0032  0.0000  0.0000  0.0000  0.0000
  29.  C 3 (s)      0.0000  0.0000  0.0000  0.0000  0.0478  0.0727 -0.0537 -0.0085
  30.  C 3 (s)      0.0000  0.0000  0.0000  0.0000 -0.0583 -0.0897  0.1095 -0.0148
  31.  C 3 (px)    -0.1086 -0.3442  0.3175  0.2171  0.0000  0.0000  0.0000  0.0000
  32.  C 3 (py)     0.0000  0.0000  0.0000  0.0000  0.1349  0.0279 -0.1642 -0.1145
  33.  C 3 (pz)     0.0000  0.0000  0.0000  0.0000 -0.0493 -0.0980  0.0656  0.0689
  34.  C 3 (s)      0.0000  0.0000  0.0000  0.0000 -0.7862 -0.9692  0.4600  0.8955
  35.  C 3 (px)    -0.0729 -0.2932  0.5527  0.4957  0.0000  0.0000  0.0000  0.0000
  36.  C 3 (py)     0.0000  0.0000  0.0000  0.0000  0.3749  0.4582 -1.2878 -0.0172
  37.  C 3 (pz)     0.0000  0.0000  0.0000  0.0000 -0.1926 -0.4938  0.5038  0.1893
  38.  C 3 (d5)     0.0000  0.0000  0.0000  0.0000 -0.0038 -0.0028 -0.0112  0.0069
  39.  C 3 (d2)     0.0268  0.0130 -0.0005  0.0281  0.0000  0.0000  0.0000  0.0000
  40.  C 3 (d3)     0.0000  0.0000  0.0000  0.0000 -0.0140  0.0143  0.0022  0.0016
  41.  C 3 (d4)     0.0000  0.0000  0.0000  0.0000 -0.0062 -0.0090  0.0040 -0.0038
  42.  C 3 (d1)     0.0047 -0.0037 -0.0153 -0.0032  0.0000  0.0000  0.0000  0.0000
  43.  C 4 (s)      0.0000  0.0000  0.0000  0.0000  0.0336 -0.0410 -0.0481  0.0647
  44.  C 4 (s)      0.0000  0.0000  0.0000  0.0000 -0.0253  0.0695  0.1264 -0.1034
  45.  C 4 (px)    -0.3134  0.2193 -0.1744  0.3180  0.0000  0.0000  0.0000  0.0000
  46.  C 4 (py)     0.0000  0.0000  0.0000  0.0000 -0.0796  0.0694 -0.0097 -0.0668
  47.  C 4 (pz)     0.0000  0.0000  0.0000  0.0000  0.1504 -0.0797  0.0059  0.1462
  48.  C 4 (s)      0.0000  0.0000  0.0000  0.0000 -0.7345  0.6189 -0.3596 -0.7683
  49.  C 4 (px)    -0.2433  0.2040 -0.3324  0.7681  0.0000  0.0000  0.0000  0.0000
  50.  C 4 (py)     0.0000  0.0000  0.0000  0.0000 -0.2440  0.4850  0.6389 -0.5805
  51.  C 4 (pz)     0.0000  0.0000  0.0000  0.0000  0.3961 -0.4280 -0.7503  1.1884
  52.  C 4 (d5)     0.0000  0.0000  0.0000  0.0000  0.0042 -0.0062  0.0053  0.0044
  53.  C 4 (d2)    -0.0110  0.0191  0.0230 -0.0089  0.0000  0.0000  0.0000  0.0000
  54.  C 4 (d3)     0.0000  0.0000  0.0000  0.0000 -0.0210  0.0040 -0.0035  0.0056
  55.  C 4 (d4)     0.0000  0.0000  0.0000  0.0000 -0.0012 -0.0054  0.0137 -0.0037
  56.  C 4 (d1)     0.0120  0.0148  0.0197  0.0162  0.0000  0.0000  0.0000  0.0000
  57.  C 5 (s)      0.0000  0.0000  0.0000  0.0000  0.0336 -0.0410  0.0481 -0.0647
  58.  C 5 (s)      0.0000  0.0000  0.0000  0.0000 -0.0253  0.0695 -0.1264  0.1034
  59.  C 5 (px)    -0.3134 -0.2193 -0.1744 -0.3180  0.0000  0.0000  0.0000  0.0000
  60.  C 5 (py)     0.0000  0.0000  0.0000  0.0000  0.0796 -0.0694 -0.0097 -0.0668
  61.  C 5 (pz)     0.0000  0.0000  0.0000  0.0000  0.1504 -0.0797 -0.0059 -0.1462
  62.  C 5 (s)      0.0000  0.0000  0.0000  0.0000 -0.7345  0.6189  0.3596  0.7683
  63.  C 5 (px)    -0.2433 -0.2040 -0.3324 -0.7681  0.0000  0.0000  0.0000  0.0000
  64.  C 5 (py)     0.0000  0.0000  0.0000  0.0000  0.2440 -0.4850  0.6389 -0.5805
  65.  C 5 (pz)     0.0000  0.0000  0.0000  0.0000  0.3961 -0.4280  0.7503 -1.1884
  66.  C 5 (d5)     0.0000  0.0000  0.0000  0.0000  0.0042 -0.0062 -0.0053 -0.0044
  67.  C 5 (d2)    -0.0110 -0.0191  0.0230  0.0089  0.0000  0.0000  0.0000  0.0000
  68.  C 5 (d3)     0.0000  0.0000  0.0000  0.0000  0.0210 -0.0040 -0.0035  0.0056
  69.  C 5 (d4)     0.0000  0.0000  0.0000  0.0000 -0.0012 -0.0054 -0.0137  0.0037
  70.  C 5 (d1)    -0.0120  0.0148 -0.0197  0.0162  0.0000  0.0000  0.0000  0.0000
  71.  H 6 (s)      0.0000  0.0000  0.0000  0.0000  0.0290  0.0218  0.0170 -0.0188
  72.  H 6 (s)      0.0000  0.0000  0.0000  0.0000  1.0210  1.2309  1.7746  0.5975
  73.  H 7 (s)      0.0000  0.0000  0.0000  0.0000  0.0290  0.0218 -0.0170  0.0188
  74.  H 7 (s)      0.0000  0.0000  0.0000  0.0000  1.0210  1.2309 -1.7746 -0.5975
  75.  H 8 (s)      0.0000  0.0000  0.0000  0.0000  0.0405 -0.0181 -0.0123  0.0015
  76.  H 8 (s)      0.0000  0.0000  0.0000  0.0000  1.0668 -1.0818 -0.8506  1.7717
  77.  H 9 (s)      0.0000  0.0000  0.0000  0.0000  0.0405 -0.0181  0.0123 -0.0015
  78.  H 9 (s)      0.0000  0.0000  0.0000  0.0000  1.0668 -1.0818  0.8506 -1.7717

           AO         25      26      27      28      29      30      31      32
      ------------ ------- ------- ------- ------- ------- ------- ------- -------
   1.  O 1 (s)     -0.0967  0.0000  0.0362  0.0000  0.0000  0.0358  0.0000  0.0000
   2.  O 1 (s)      0.1176  0.0000  0.0052  0.0000  0.0000 -0.0771  0.0000  0.0000
   3.  O 1 (px)     0.0000  0.0000  0.0000  0.0000  0.0000  0.0000  0.0508  0.0000
   4.  O 1 (py)     0.0000 -0.2981  0.0000 -0.0924  0.3554  0.0000  0.0000  0.0000
   5.  O 1 (pz)    -0.0753  0.0000  0.0750  0.0000  0.0000 -0.0432  0.0000  0.0000
   6.  O 1 (s)      1.7234  0.0000 -1.0446  0.0000  0.0000 -0.6562  0.0000  0.0000
   7.  O 1 (px)     0.0000  0.0000  0.0000  0.0000  0.0000  0.0000  0.1577  0.0000
   8.  O 1 (py)     0.0000 -0.7187  0.0000 -0.6272  1.0302  0.0000  0.0000  0.0000
   9.  O 1 (pz)    -0.4527  0.0000  0.6399  0.0000  0.0000  0.4260  0.0000  0.0000
  10.  O 1 (d5)     0.0103  0.0000 -0.0097  0.0000  0.0000 -0.0383  0.0000  0.0000
  11.  O 1 (d2)     0.0000  0.0000  0.0000  0.0000  0.0000  0.0000 -0.0415  0.0000
  12.  O 1 (d3)     0.0000 -0.0012  0.0000  0.0664  0.0330  0.0000  0.0000  0.0000
  13.  O 1 (d4)    -0.0086  0.0000  0.0319  0.0000  0.0000  0.0421  0.0000  0.0000
  14.  O 1 (d1)     0.0000  0.0000  0.0000  0.0000  0.0000  0.0000  0.0000 -0.0496
  15.  C 2 (s)      0.0085 -0.0560 -0.0608  0.0508  0.0839 -0.0255  0.0000  0.0000
  16.  C 2 (s)      0.0056  0.1092 -0.0251 -0.0676  0.0247 -0.5496  0.0000  0.0000
  17.  C 2 (px)     0.0000  0.0000  0.0000  0.0000  0.0000  0.0000  0.5976 -0.6469
  18.  C 2 (py)     0.1691 -0.1198 -0.0749  0.0772  0.2501 -0.0319  0.0000  0.0000
  19.  C 2 (pz)    -0.1361  0.0445 -0.2115 -0.0201 -0.2205  0.1679  0.0000  0.0000
  20.  C 2 (s)      0.1206  0.6891  2.1694 -2.0960 -2.2103  1.0647  0.0000  0.0000
  21.  C 2 (px)     0.0000  0.0000  0.0000  0.0000  0.0000  0.0000 -0.5790  0.7459
  22.  C 2 (py)     0.9048 -0.2070 -1.2085  0.3279  1.9384 -0.4195  0.0000  0.0000
  23.  C 2 (pz)    -0.9135  0.5485 -1.2293  2.6557  0.4113 -0.3892  0.0000  0.0000
  24.  C 2 (d5)    -0.0081 -0.0088  0.0005  0.0158  0.0258 -0.0507  0.0000  0.0000
  25.  C 2 (d2)     0.0000  0.0000  0.0000  0.0000  0.0000  0.0000 -0.0283  0.0320
  26.  C 2 (d3)    -0.0011  0.0284 -0.0159 -0.0142 -0.0027 -0.0538  0.0000  0.0000
  27.  C 2 (d4)    -0.0080  0.0024 -0.0011  0.0053 -0.0219  0.0413  0.0000  0.0000
  28.  C 2 (d1)     0.0000  0.0000  0.0000  0.0000  0.0000  0.0000 -0.0164  0.0476
  29.  C 3 (s)      0.0085  0.0560 -0.0608 -0.0508 -0.0839 -0.0255  0.0000  0.0000
  30.  C 3 (s)      0.0056 -0.1092 -0.0251  0.0676 -0.0247 -0.5496  0.0000  0.0000
  31.  C 3 (px)     0.0000  0.0000  0.0000  0.0000  0.0000  0.0000  0.5976  0.6469
  32.  C 3 (py)    -0.1691 -0.1198  0.0749  0.0772  0.2501  0.0319  0.0000  0.0000
  33.  C 3 (pz)    -0.1361 -0.0445 -0.2115  0.0201  0.2205  0.1679  0.0000  0.0000
  34.  C 3 (s)      0.1206 -0.6891  2.1694  2.0960  2.2103  1.0647  0.0000  0.0000
  35.  C 3 (px)     0.0000  0.0000  0.0000  0.0000  0.0000  0.0000 -0.5790 -0.7459
  36.  C 3 (py)    -0.9048 -0.2070  1.2085  0.3279  1.9384  0.4195  0.0000  0.0000
  37.  C 3 (pz)    -0.9135 -0.5485 -1.2293 -2.6557 -0.4113 -0.3892  0.0000  0.0000
  38.  C 3 (d5)    -0.0081  0.0088  0.0005 -0.0158 -0.0258 -0.0507  0.0000  0.0000
  39.  C 3 (d2)     0.0000  0.0000  0.0000  0.0000  0.0000  0.0000 -0.0283 -0.0320
  40.  C 3 (d3)     0.0011  0.0284  0.0159 -0.0142 -0.0027  0.0538  0.0000  0.0000
  41.  C 3 (d4)    -0.0080 -0.0024 -0.0011 -0.0053  0.0219  0.0413  0.0000  0.0000
  42.  C 3 (d1)     0.0000  0.0000  0.0000  0.0000  0.0000  0.0000  0.0164  0.0476
  43.  C 4 (s)      0.0303 -0.0469  0.0615 -0.0343 -0.0920  0.0132  0.0000  0.0000
  44.  C 4 (s)      0.0001  0.0123 -0.0735 -0.0405  0.0833 -0.4428  0.0000  0.0000
  45.  C 4 (px)     0.0000  0.0000  0.0000  0.0000  0.0000  0.0000  0.4349 -0.3557
  46.  C 4 (py)    -0.1313 -0.1693  0.1053  0.1449 -0.0567 -0.2338  0.0000  0.0000
  47.  C 4 (pz)     0.0001 -0.0040 -0.0376  0.1627  0.1042 -0.2431  0.0000  0.0000
  48.  C 4 (s)     -1.1045  1.6251 -1.8083  2.2140  3.8302  0.0947  0.0000  0.0000
  49.  C 4 (px)     0.0000  0.0000  0.0000  0.0000  0.0000  0.0000 -0.2665  0.3537
  50.  C 4 (py)    -0.6265 -1.5202 -0.2892  0.8481 -2.8051  0.4572  0.0000  0.0000
  51.  C 4 (pz)    -0.0051  0.1422 -1.6926  2.4875  1.4485 -0.1124  0.0000  0.0000
  52.  C 4 (d5)    -0.0074  0.0229  0.0179  0.0025  0.0070 -0.0562  0.0000  0.0000
  53.  C 4 (d2)     0.0000  0.0000  0.0000  0.0000  0.0000  0.0000  0.0432 -0.0517
  54.  C 4 (d3)     0.0196 -0.0079  0.0230  0.0143  0.0189  0.0312  0.0000  0.0000
  55.  C 4 (d4)    -0.0090  0.0071  0.0270 -0.0147 -0.0111  0.0221  0.0000  0.0000
  56.  C 4 (d1)     0.0000  0.0000  0.0000  0.0000  0.0000  0.0000 -0.0147 -0.0073
  57.  C 5 (s)      0.0303  0.0469  0.0615  0.0343  0.0920  0.0132  0.0000  0.0000
  58.  C 5 (s)      0.0001 -0.0123 -0.0735  0.0405 -0.0833 -0.4428  0.0000  0.0000
  59.  C 5 (px)     0.0000  0.0000  0.0000  0.0000  0.0000  0.0000  0.4349  0.3557
  60.  C 5 (py)     0.1313 -0.1693 -0.1053  0.1449 -0.0567  0.2338  0.0000  0.0000
  61.  C 5 (pz)     0.0001  0.0040 -0.0376 -0.1627 -0.1042 -0.2431  0.0000  0.0000
  62.  C 5 (s)     -1.1045 -1.6251 -1.8083 -2.2140 -3.8302  0.0947  0.0000  0.0000
  63.  C 5 (px)     0.0000  0.0000  0.0000  0.0000  0.0000  0.0000 -0.2665 -0.3537
  64.  C 5 (py)     0.6265 -1.5202  0.2892  0.8481 -2.8051 -0.4572  0.0000  0.0000
  65.  C 5 (pz)    -0.0051 -0.1422 -1.6926 -2.4875 -1.4485 -0.1124  0.0000  0.0000
  66.  C 5 (d5)    -0.0074 -0.0229  0.0179 -0.0025 -0.0070 -0.0562  0.0000  0.0000
  67.  C 5 (d2)     0.0000  0.0000  0.0000  0.0000  0.0000  0.0000  0.0432  0.0517
  68.  C 5 (d3)    -0.0196 -0.0079 -0.0230  0.0143  0.0189 -0.0312  0.0000  0.0000
  69.  C 5 (d4)    -0.0090 -0.0071  0.0270  0.0147  0.0111  0.0221  0.0000  0.0000
  70.  C 5 (d1)     0.0000  0.0000  0.0000  0.0000  0.0000  0.0000  0.0147 -0.0073
  71.  H 6 (s)      0.0293  0.0674 -0.0515 -0.0285  0.1390 -0.2979  0.0000  0.0000
  72.  H 6 (s)     -0.3676 -0.2509  0.7800 -0.6400 -0.7618  0.2559  0.0000  0.0000
  73.  H 7 (s)      0.0293 -0.0674 -0.0515  0.0285 -0.1390 -0.2979  0.0000  0.0000
  74.  H 7 (s)     -0.3676  0.2509  0.7800  0.6400  0.7618  0.2559  0.0000  0.0000
  75.  H 8 (s)     -0.0845  0.0490 -0.0573 -0.0277 -0.0766 -0.1826  0.0000  0.0000
  76.  H 8 (s)      0.6719  0.5215 -0.4979  0.5761  1.1578 -0.1301  0.0000  0.0000
  77.  H 9 (s)     -0.0845 -0.0490 -0.0573  0.0277  0.0766 -0.1826  0.0000  0.0000
  78.  H 9 (s)      0.6719 -0.5215 -0.4979 -0.5761 -1.1578 -0.1301  0.0000  0.0000

           AO         33      34      35      36      37      38      39      40
      ------------ ------- ------- ------- ------- ------- ------- ------- -------
   1.  O 1 (s)      0.0000 -0.0147  0.0237  0.0000  0.0000  0.0209  0.0000  0.0000
   2.  O 1 (s)      0.0000  0.0976 -0.2438  0.0000  0.0000 -0.1090  0.0000  0.0000
   3.  O 1 (px)     0.0000  0.0000  0.0000  0.0394  0.0000  0.0000  0.0000  0.0000
   4.  O 1 (py)    -0.1000  0.0000  0.0000  0.0000  0.0865  0.0000  0.0000 -0.0273
   5.  O 1 (pz)     0.0000 -0.2260  0.4515  0.0000  0.0000 -0.1587  0.0000  0.0000
   6.  O 1 (s)      0.0000  0.0892  1.1378  0.0000  0.0000  0.0616  0.0000  0.0000
   7.  O 1 (px)     0.0000  0.0000  0.0000  0.1365  0.0000  0.0000  0.0000  0.0000
   8.  O 1 (py)     0.1464  0.0000  0.0000  0.0000 -0.3444  0.0000  0.0000  0.0677
   9.  O 1 (pz)     0.0000 -0.1633 -0.2213  0.0000  0.0000 -0.1067  0.0000  0.0000
  10.  O 1 (d5)     0.0000 -0.0267 -0.0074  0.0000  0.0000 -0.0212  0.0000  0.0000
  11.  O 1 (d2)     0.0000  0.0000  0.0000 -0.0588  0.0000  0.0000  0.0000  0.0000
  12.  O 1 (d3)    -0.0270  0.0000  0.0000  0.0000  0.1283  0.0000  0.0000 -0.0279
  13.  O 1 (d4)     0.0000 -0.0165 -0.1695  0.0000  0.0000 -0.0508  0.0000  0.0000
  14.  O 1 (d1)     0.0000  0.0000  0.0000  0.0000  0.0000  0.0000  0.0276  0.0000
  15.  C 2 (s)      0.0157  0.0504 -0.0335  0.0000 -0.0534 -0.0288  0.0000  0.0363
  16.  C 2 (s)     -0.4161 -0.1146  0.4096  0.0000 -0.5055  0.3544  0.0000 -0.0785
  17.  C 2 (px)     0.0000  0.0000  0.0000  0.4689  0.0000  0.0000  0.3992  0.0000
  18.  C 2 (py)    -0.1205  0.0029 -0.4334  0.0000  0.2431 -0.2320  0.0000 -0.5385
  19.  C 2 (pz)     0.3041  0.0793  0.4556  0.0000 -0.4532 -0.2619  0.0000 -0.4143
  20.  C 2 (s)     -0.9057 -0.6140 -0.4662  0.0000  2.1045 -0.3432  0.0000 -0.0031
  21.  C 2 (px)     0.0000  0.0000  0.0000 -0.7051  0.0000  0.0000 -0.7582  0.0000
  22.  C 2 (py)     1.0115  0.5367  0.5127  0.0000 -0.8802  0.4462  0.0000  1.8979
  23.  C 2 (pz)     0.4659  0.7682 -0.8339  0.0000 -0.0396  0.7250  0.0000  1.2456
  24.  C 2 (d5)    -0.0345  0.0701  0.0459  0.0000 -0.0295  0.0407  0.0000 -0.0564
  25.  C 2 (d2)     0.0000  0.0000  0.0000  0.0270  0.0000  0.0000  0.0294  0.0000
  26.  C 2 (d3)     0.0138 -0.0284  0.0733  0.0000 -0.0887 -0.0596  0.0000  0.0606
  27.  C 2 (d4)     0.0426  0.0052  0.0639  0.0000  0.0469  0.0390  0.0000 -0.0525
  28.  C 2 (d1)     0.0000  0.0000  0.0000 -0.0042  0.0000  0.0000  0.0037  0.0000
  29.  C 3 (s)     -0.0157  0.0504 -0.0335  0.0000  0.0534 -0.0288  0.0000 -0.0363
  30.  C 3 (s)      0.4161 -0.1146  0.4096  0.0000  0.5055  0.3544  0.0000  0.0785
  31.  C 3 (px)     0.0000  0.0000  0.0000  0.4689  0.0000  0.0000 -0.3992  0.0000
  32.  C 3 (py)    -0.1205 -0.0029  0.4334  0.0000  0.2431  0.2320  0.0000 -0.5385
  33.  C 3 (pz)    -0.3041  0.0793  0.4556  0.0000  0.4532 -0.2619  0.0000  0.4143
  34.  C 3 (s)      0.9057 -0.6140 -0.4662  0.0000 -2.1045 -0.3432  0.0000  0.0031
  35.  C 3 (px)     0.0000  0.0000  0.0000 -0.7051  0.0000  0.0000  0.7582  0.0000
  36.  C 3 (py)     1.0115 -0.5367 -0.5127  0.0000 -0.8802 -0.4462  0.0000  1.8979
  37.  C 3 (pz)    -0.4659  0.7682 -0.8339  0.0000  0.0396  0.7250  0.0000 -1.2456
  38.  C 3 (d5)     0.0345  0.0701  0.0459  0.0000  0.0295  0.0407  0.0000  0.0564
  39.  C 3 (d2)     0.0000  0.0000  0.0000  0.0270  0.0000  0.0000 -0.0294  0.0000
  40.  C 3 (d3)     0.0138  0.0284 -0.0733  0.0000 -0.0887  0.0596  0.0000  0.0606
  41.  C 3 (d4)    -0.0426  0.0052  0.0639  0.0000 -0.0469  0.0390  0.0000  0.0525
  42.  C 3 (d1)     0.0000  0.0000  0.0000  0.0042  0.0000  0.0000  0.0037  0.0000
  43.  C 4 (s)     -0.0983 -0.0519 -0.0066  0.0000  0.0381  0.0139  0.0000  0.0344
  44.  C 4 (s)     -0.1473 -0.3651 -0.0906  0.0000 -0.2729  0.4318  0.0000  0.0779
  45.  C 4 (px)     0.0000  0.0000  0.0000 -0.6226  0.0000  0.0000 -0.7116  0.0000
  46.  C 4 (py)    -0.4219  0.2986  0.0753  0.0000 -0.1114 -0.2552  0.0000 -0.3699
  47.  C 4 (pz)    -0.1766  0.3745  0.0294  0.0000 -0.1948  0.0175  0.0000  0.1008
  48.  C 4 (s)      2.2855  1.2817 -0.1915  0.0000 -0.6269  0.1913  0.0000  0.2301
  49.  C 4 (px)     0.0000  0.0000  0.0000  0.7328  0.0000  0.0000  1.2630  0.0000
  50.  C 4 (py)    -0.6252 -0.1664 -0.2454  0.0000  0.0312  0.3447  0.0000  1.0562
  51.  C 4 (pz)     1.5506  0.1987 -0.1454  0.0000 -0.9906  0.0578  0.0000 -0.2298
  52.  C 4 (d5)    -0.0185 -0.0560  0.0070  0.0000  0.0195  0.0342  0.0000  0.1119
  53.  C 4 (d2)     0.0000  0.0000  0.0000 -0.0056  0.0000  0.0000  0.0044  0.0000
  54.  C 4 (d3)    -0.0013  0.0530 -0.0454  0.0000  0.0384  0.1015  0.0000 -0.0350
  55.  C 4 (d4)     0.0843  0.0692  0.0211  0.0000  0.0001 -0.0716  0.0000  0.0179
  56.  C 4 (d1)     0.0000  0.0000  0.0000  0.0536  0.0000  0.0000 -0.0112  0.0000
  57.  C 5 (s)      0.0983 -0.0519 -0.0066  0.0000 -0.0381  0.0139  0.0000 -0.0344
  58.  C 5 (s)      0.1473 -0.3651 -0.0906  0.0000  0.2729  0.4318  0.0000 -0.0779
  59.  C 5 (px)     0.0000  0.0000  0.0000 -0.6226  0.0000  0.0000  0.7116  0.0000
  60.  C 5 (py)    -0.4219 -0.2986 -0.0753  0.0000 -0.1114  0.2552  0.0000 -0.3699
  61.  C 5 (pz)     0.1766  0.3745  0.0294  0.0000  0.1948  0.0175  0.0000 -0.1008
  62.  C 5 (s)     -2.2855  1.2817 -0.1915  0.0000  0.6269  0.1913  0.0000 -0.2301
  63.  C 5 (px)     0.0000  0.0000  0.0000  0.7328  0.0000  0.0000 -1.2630  0.0000
  64.  C 5 (py)    -0.6252  0.1664  0.2454  0.0000  0.0312 -0.3447  0.0000  1.0562
  65.  C 5 (pz)    -1.5506  0.1987 -0.1454  0.0000  0.9906  0.0578  0.0000  0.2298
  66.  C 5 (d5)     0.0185 -0.0560  0.0070  0.0000 -0.0195  0.0342  0.0000 -0.1119
  67.  C 5 (d2)     0.0000  0.0000  0.0000 -0.0056  0.0000  0.0000 -0.0044  0.0000
  68.  C 5 (d3)    -0.0013 -0.0530  0.0454  0.0000  0.0384 -0.1015  0.0000 -0.0350
  69.  C 5 (d4)    -0.0843  0.0692  0.0211  0.0000 -0.0001 -0.0716  0.0000 -0.0179
  70.  C 5 (d1)     0.0000  0.0000  0.0000 -0.0536  0.0000  0.0000 -0.0112  0.0000
  71.  H 6 (s)     -0.1383 -0.0296 -0.0778  0.0000 -0.4196 -0.4045  0.0000  0.1884
  72.  H 6 (s)     -0.4935 -0.3439  0.2253  0.0000  0.3592 -0.0153  0.0000 -1.6409
  73.  H 7 (s)      0.1383 -0.0296 -0.0778  0.0000  0.4196 -0.4045  0.0000 -0.1884
  74.  H 7 (s)      0.4935 -0.3439  0.2253  0.0000 -0.3592 -0.0153  0.0000  1.6409
  75.  H 8 (s)     -0.3511 -0.4608 -0.0425  0.0000  0.0084 -0.1353  0.0000  0.2239
  76.  H 8 (s)      0.7148  0.2557 -0.0927  0.0000 -0.3197  0.1090  0.0000 -0.7832
  77.  H 9 (s)      0.3511 -0.4608 -0.0425  0.0000 -0.0084 -0.1353  0.0000 -0.2239
  78.  H 9 (s)     -0.7148  0.2557 -0.0927  0.0000  0.3197  0.1090  0.0000  0.7832

           AO         41      42      43      44      45      46      47      48
      ------------ ------- ------- ------- ------- ------- ------- ------- -------
   1.  O 1 (s)      0.0023  0.0000 -0.0043  0.0000  0.0062  0.0000  0.0000 -0.0599
   2.  O 1 (s)     -0.1005  0.0000 -0.0655  0.0000 -0.0312  0.0000  0.0000  0.4562
   3.  O 1 (px)     0.0000  0.0000  0.0000  0.0000  0.0000 -0.9571  0.0000  0.0000
   4.  O 1 (py)     0.0000  0.0485  0.0000  0.0438  0.0000  0.0000 -0.5300  0.0000
   5.  O 1 (pz)     0.0786  0.0000  0.0402  0.0000 -0.0670  0.0000  0.0000  0.6741
   6.  O 1 (s)      0.8379  0.0000  0.1707  0.0000  0.1128  0.0000  0.0000 -0.1139
   7.  O 1 (px)     0.0000  0.0000  0.0000  0.0000  0.0000  1.2881  0.0000  0.0000
   8.  O 1 (py)     0.0000 -0.1479  0.0000 -0.1979  0.0000  0.0000  1.4104  0.0000
   9.  O 1 (pz)    -0.3648  0.0000 -0.3535  0.0000  0.0425  0.0000  0.0000 -1.5547
  10.  O 1 (d5)     0.1259  0.0000  0.0732  0.0000  0.1066  0.0000  0.0000 -0.1316
  11.  O 1 (d2)     0.0000  0.0000  0.0000  0.0000  0.0000  0.0244  0.0000  0.0000
  12.  O 1 (d3)     0.0000  0.0627  0.0000  0.0188  0.0000  0.0000 -0.0171  0.0000
  13.  O 1 (d4)     0.0129  0.0000  0.0178  0.0000 -0.0406  0.0000  0.0000  0.0126
  14.  O 1 (d1)     0.0000  0.0000  0.0000  0.0000  0.0000  0.0000  0.0000  0.0000
  15.  C 2 (s)      0.0088 -0.0038  0.0080  0.0064  0.0042  0.0000  0.0019 -0.0058
  16.  C 2 (s)     -0.0536  0.2272 -0.5732 -0.7867  0.9767  0.0000  0.2429 -0.0583
  17.  C 2 (px)     0.0000  0.0000  0.0000  0.0000  0.0000  0.0487  0.0000  0.0000
  18.  C 2 (py)    -0.4408  0.4282 -0.4424 -0.2016  0.1292  0.0000 -0.0374  0.1873
  19.  C 2 (pz)    -0.3368  0.0945 -0.2231  0.1608 -0.1600  0.0000  0.1500 -0.2849
  20.  C 2 (s)     -1.0549  1.2020  1.2377  2.8676 -2.8986  0.0000 -0.3830 -1.2807
  21.  C 2 (px)     0.0000  0.0000  0.0000  0.0000  0.0000 -0.4242  0.0000  0.0000
  22.  C 2 (py)     1.8533 -2.3579  0.9035  0.3341 -0.4400  0.0000  1.7163  0.6663
  23.  C 2 (pz)     1.3391 -0.9253  0.6029 -0.7911  0.8995  0.0000 -0.6646  1.3952
  24.  C 2 (d5)    -0.0787  0.0352 -0.0267  0.0607 -0.0743  0.0000  0.1001  0.0239
  25.  C 2 (d2)     0.0000  0.0000  0.0000  0.0000  0.0000  0.0306  0.0000  0.0000
  26.  C 2 (d3)     0.0094  0.0515  0.0840  0.0116 -0.0024  0.0000  0.0819 -0.0015
  27.  C 2 (d4)    -0.0111 -0.0313 -0.0647  0.0226 -0.0555  0.0000  0.0721  0.1429
  28.  C 2 (d1)     0.0000  0.0000  0.0000  0.0000  0.0000 -0.0416  0.0000  0.0000
  29.  C 3 (s)      0.0088  0.0038  0.0080 -0.0064  0.0042  0.0000 -0.0019 -0.0058
  30.  C 3 (s)     -0.0536 -0.2272 -0.5732  0.7867  0.9767  0.0000 -0.2429 -0.0583
  31.  C 3 (px)     0.0000  0.0000  0.0000  0.0000  0.0000  0.0487  0.0000  0.0000
  32.  C 3 (py)     0.4408  0.4282  0.4424 -0.2016 -0.1292  0.0000 -0.0374 -0.1873
  33.  C 3 (pz)    -0.3368 -0.0945 -0.2231 -0.1608 -0.1600  0.0000 -0.1500 -0.2849
  34.  C 3 (s)     -1.0549 -1.2020  1.2377 -2.8676 -2.8986  0.0000  0.3830 -1.2807
  35.  C 3 (px)     0.0000  0.0000  0.0000  0.0000  0.0000 -0.4242  0.0000  0.0000
  36.  C 3 (py)    -1.8533 -2.3579 -0.9035  0.3341  0.4400  0.0000  1.7163 -0.6663
  37.  C 3 (pz)     1.3391  0.9253  0.6029  0.7911  0.8995  0.0000  0.6646  1.3952
  38.  C 3 (d5)    -0.0787 -0.0352 -0.0267 -0.0607 -0.0743  0.0000 -0.1001  0.0239
  39.  C 3 (d2)     0.0000  0.0000  0.0000  0.0000  0.0000  0.0306  0.0000  0.0000
  40.  C 3 (d3)    -0.0094  0.0515 -0.0840  0.0116  0.0024  0.0000  0.0819  0.0015
  41.  C 3 (d4)    -0.0111  0.0313 -0.0647 -0.0226 -0.0555  0.0000 -0.0721  0.1429
  42.  C 3 (d1)     0.0000  0.0000  0.0000  0.0000  0.0000  0.0416  0.0000  0.0000
  43.  C 4 (s)     -0.0290  0.0161  0.0201  0.0001 -0.0026  0.0000  0.0047 -0.0040
  44.  C 4 (s)     -0.1747 -0.1370 -0.3645 -0.5779 -1.0151  0.0000  0.6492 -0.3335
  45.  C 4 (px)     0.0000  0.0000  0.0000  0.0000  0.0000 -0.0213  0.0000  0.0000
  46.  C 4 (py)     0.2999 -0.5755 -0.2875  0.3287 -0.2889  0.0000  0.0360 -0.0120
  47.  C 4 (pz)    -0.5350  0.5042  0.3771  0.5622 -0.0412  0.0000  0.2634 -0.0042
  48.  C 4 (s)      0.9164 -2.8229  1.1709  1.1538  2.9839  0.0000 -0.6431  1.7019
  49.  C 4 (px)     0.0000  0.0000  0.0000  0.0000  0.0000  0.1134  0.0000  0.0000
  50.  C 4 (py)    -0.9280  2.9896  0.5108 -1.4484  1.0558  0.0000 -0.8857  0.1351
  51.  C 4 (pz)     1.9179 -2.8554 -0.6556 -2.3659  0.5285  0.0000 -0.7570  0.7362
  52.  C 4 (d5)     0.0692  0.0056  0.0627 -0.1062  0.0520  0.0000  0.0369  0.0288
  53.  C 4 (d2)     0.0000  0.0000  0.0000  0.0000  0.0000 -0.0130  0.0000  0.0000
  54.  C 4 (d3)     0.0850  0.0055 -0.1147 -0.0088  0.0557  0.0000 -0.0071  0.0265
  55.  C 4 (d4)     0.0567  0.0743 -0.0398 -0.0305  0.0382  0.0000 -0.0223  0.0397
  56.  C 4 (d1)     0.0000  0.0000  0.0000  0.0000  0.0000 -0.0797  0.0000  0.0000
  57.  C 5 (s)     -0.0290 -0.0161  0.0201 -0.0001 -0.0026  0.0000 -0.0047 -0.0040
  58.  C 5 (s)     -0.1747  0.1370 -0.3645  0.5779 -1.0151  0.0000 -0.6492 -0.3335
  59.  C 5 (px)     0.0000  0.0000  0.0000  0.0000  0.0000 -0.0213  0.0000  0.0000
  60.  C 5 (py)    -0.2999 -0.5755  0.2875  0.3287  0.2889  0.0000  0.0360  0.0120
  61.  C 5 (pz)    -0.5350 -0.5042  0.3771 -0.5622 -0.0412  0.0000 -0.2634 -0.0042
  62.  C 5 (s)      0.9164  2.8229  1.1709 -1.1538  2.9839  0.0000  0.6431  1.7019
  63.  C 5 (px)     0.0000  0.0000  0.0000  0.0000  0.0000  0.1134  0.0000  0.0000
  64.  C 5 (py)     0.9280  2.9896 -0.5108 -1.4484 -1.0558  0.0000 -0.8857 -0.1351
  65.  C 5 (pz)     1.9179  2.8554 -0.6556  2.3659  0.5285  0.0000  0.7570  0.7362
  66.  C 5 (d5)     0.0692 -0.0056  0.0627  0.1062  0.0520  0.0000 -0.0369  0.0288
  67.  C 5 (d2)     0.0000  0.0000  0.0000  0.0000  0.0000 -0.0130  0.0000  0.0000
  68.  C 5 (d3)    -0.0850  0.0055  0.1147 -0.0088 -0.0557  0.0000 -0.0071 -0.0265
  69.  C 5 (d4)     0.0567 -0.0743 -0.0398  0.0305  0.0382  0.0000  0.0223  0.0397
  70.  C 5 (d1)     0.0000  0.0000  0.0000  0.0000  0.0000  0.0797  0.0000  0.0000
  71.  H 6 (s)      0.2081  0.0216  0.2281  0.0220  0.1218  0.0000 -0.5900 -0.2188
  72.  H 6 (s)     -1.3397  1.2211 -1.2279 -0.5148  0.5187  0.0000 -0.2272 -0.2713
  73.  H 7 (s)      0.2081 -0.0216  0.2281 -0.0220  0.1218  0.0000  0.5900 -0.2188
  74.  H 7 (s)     -1.3397 -1.2211 -1.2279  0.5148  0.5187  0.0000  0.2272 -0.2713
  75.  H 8 (s)     -0.1951  0.0614  0.2440 -0.0421 -0.0308  0.0000  0.0931  0.0345
  76.  H 8 (s)      1.3013 -1.9503 -1.0847 -0.7830 -0.6603  0.0000  0.0321  0.0216
  77.  H 9 (s)     -0.1951 -0.0614  0.2440  0.0421 -0.0308  0.0000 -0.0931  0.0345
  78.  H 9 (s)      1.3013  1.9503 -1.0847  0.7830 -0.6603  0.0000 -0.0321  0.0216

           AO         49      50      51      52      53      54      55      56
      ------------ ------- ------- ------- ------- ------- ------- ------- -------
   1.  O 1 (s)      0.0000 -0.0190  0.0000  0.0000  0.0000  0.0000  0.0000  0.0000
   2.  O 1 (s)      0.0000  0.1129  0.0000  0.0000  0.0000  0.0000  0.0000  0.0000
   3.  O 1 (px)     0.0000  0.0000 -0.0284  0.0000  0.0000 -0.1347  0.0000  0.0000
   4.  O 1 (py)    -0.2671  0.0000  0.0000  0.0000 -0.5421  0.0000  0.3840  0.0000
   5.  O 1 (pz)     0.0000 -0.3006  0.0000  0.0000  0.0000  0.0000  0.0000  0.0000
   6.  O 1 (s)      0.0000  0.9146  0.0000  0.0000  0.0000  0.0000  0.0000  0.0000
   7.  O 1 (px)     0.0000  0.0000  0.1465  0.0000  0.0000  0.3874  0.0000  0.0000
   8.  O 1 (py)     0.5480  0.0000  0.0000  0.0000  2.3947  0.0000 -0.8426  0.0000
   9.  O 1 (pz)     0.0000  0.0104  0.0000  0.0000  0.0000  0.0000  0.0000  0.0000
  10.  O 1 (d5)     0.0000  0.0451  0.0000  0.0000  0.0000  0.0000  0.0000  0.0000
  11.  O 1 (d2)     0.0000  0.0000  0.3251  0.0000  0.0000  0.1575  0.0000  0.0000
  12.  O 1 (d3)    -0.0707  0.0000  0.0000  0.0000  0.0664  0.0000 -0.2087  0.0000
  13.  O 1 (d4)     0.0000 -0.1169  0.0000  0.0000  0.0000  0.0000  0.0000  0.0000
  14.  O 1 (d1)     0.0000  0.0000  0.0000  0.4919  0.0000  0.0000  0.0000 -0.2473
  15.  C 2 (s)      0.0149  0.0034  0.0000  0.0000  0.0086  0.0000  0.0529  0.0000
  16.  C 2 (s)      0.8593  0.0769  0.0000  0.0000  0.1771  0.0000  0.7955  0.0000
  17.  C 2 (px)     0.0000  0.0000  0.1068 -0.0244  0.0000 -0.0573  0.0000  0.1786
  18.  C 2 (py)    -0.1751  0.0115  0.0000  0.0000  0.0815  0.0000 -0.1481  0.0000
  19.  C 2 (pz)    -0.2619 -0.0249  0.0000  0.0000  0.0326  0.0000  0.1605  0.0000
  20.  C 2 (s)     -2.0352 -0.7766  0.0000  0.0000 -4.6714  0.0000 -5.1112  0.0000
  21.  C 2 (px)     0.0000  0.0000 -0.0413 -0.0908  0.0000 -0.1664  0.0000 -0.0900
  22.  C 2 (py)     0.9907  1.6991  0.0000  0.0000  1.8134  0.0000  3.4898  0.0000
  23.  C 2 (pz)     0.7942  0.5810  0.0000  0.0000 -0.0106  0.0000  3.1375  0.0000
  24.  C 2 (d5)     0.0041 -0.0072  0.0000  0.0000 -0.0957  0.0000 -0.0214  0.0000
  25.  C 2 (d2)     0.0000  0.0000  0.1810  0.3966  0.0000 -0.3103  0.0000  0.1944
  26.  C 2 (d3)    -0.0170 -0.0703  0.0000  0.0000  0.1097  0.0000 -0.1873  0.0000
  27.  C 2 (d4)    -0.0259  0.0169  0.0000  0.0000  0.0875  0.0000 -0.0732  0.0000
  28.  C 2 (d1)     0.0000  0.0000  0.3755 -0.1837  0.0000  0.0117  0.0000  0.4888
  29.  C 3 (s)     -0.0149  0.0034  0.0000  0.0000 -0.0086  0.0000 -0.0529  0.0000
  30.  C 3 (s)     -0.8593  0.0769  0.0000  0.0000 -0.1771  0.0000 -0.7955  0.0000
  31.  C 3 (px)     0.0000  0.0000  0.1068  0.0244  0.0000 -0.0573  0.0000 -0.1786
  32.  C 3 (py)    -0.1751 -0.0115  0.0000  0.0000  0.0815  0.0000 -0.1481  0.0000
  33.  C 3 (pz)     0.2619 -0.0249  0.0000  0.0000 -0.0326  0.0000 -0.1605  0.0000
  34.  C 3 (s)      2.0352 -0.7766  0.0000  0.0000  4.6714  0.0000  5.1112  0.0000
  35.  C 3 (px)     0.0000  0.0000 -0.0413  0.0908  0.0000 -0.1664  0.0000  0.0900
  36.  C 3 (py)     0.9907 -1.6991  0.0000  0.0000  1.8134  0.0000  3.4898  0.0000
  37.  C 3 (pz)    -0.7942  0.5810  0.0000  0.0000  0.0106  0.0000 -3.1375  0.0000
  38.  C 3 (d5)    -0.0041 -0.0072  0.0000  0.0000  0.0957  0.0000  0.0214  0.0000
  39.  C 3 (d2)     0.0000  0.0000  0.1810 -0.3966  0.0000 -0.3103  0.0000 -0.1944
  40.  C 3 (d3)    -0.0170  0.0703  0.0000  0.0000  0.1097  0.0000 -0.1873  0.0000
  41.  C 3 (d4)     0.0259  0.0169  0.0000  0.0000 -0.0875  0.0000  0.0732  0.0000
  42.  C 3 (d1)     0.0000  0.0000 -0.3755 -0.1837  0.0000 -0.0117  0.0000  0.4888
  43.  C 4 (s)     -0.0053 -0.0141  0.0000  0.0000 -0.0500  0.0000 -0.0730  0.0000
  44.  C 4 (s)     -0.7016 -0.4812  0.0000  0.0000 -1.1475  0.0000 -0.8884  0.0000
  45.  C 4 (px)     0.0000  0.0000  0.1084  0.0822  0.0000  0.0097  0.0000  0.1066
  46.  C 4 (py)     0.1363  0.2678  0.0000  0.0000  0.0480  0.0000 -0.0772  0.0000
  47.  C 4 (pz)    -0.0502  0.0373  0.0000  0.0000 -0.1931  0.0000  0.0739  0.0000
  48.  C 4 (s)      3.0214  0.6303  0.0000  0.0000  6.3280  0.0000  8.9063  0.0000
  49.  C 4 (px)     0.0000  0.0000  0.0049  0.1328  0.0000  0.0733  0.0000 -0.0698
  50.  C 4 (py)    -0.0951 -1.3527  0.0000  0.0000 -3.1122  0.0000 -2.9739  0.0000
  51.  C 4 (pz)    -0.5561  1.2668  0.0000  0.0000  3.4822  0.0000  4.4320  0.0000
  52.  C 4 (d5)     0.0097  0.0491  0.0000  0.0000 -0.0166  0.0000 -0.0074  0.0000
  53.  C 4 (d2)     0.0000  0.0000 -0.3435 -0.2316  0.0000  0.2086  0.0000 -0.3319
  54.  C 4 (d3)     0.0963 -0.0936  0.0000  0.0000 -0.0920  0.0000 -0.0360  0.0000
  55.  C 4 (d4)    -0.0194  0.0910  0.0000  0.0000  0.0073  0.0000 -0.0083  0.0000
  56.  C 4 (d1)     0.0000  0.0000  0.2125 -0.0480  0.0000  0.4692  0.0000  0.0588
  57.  C 5 (s)      0.0053 -0.0141  0.0000  0.0000  0.0500  0.0000  0.0730  0.0000
  58.  C 5 (s)      0.7016 -0.4812  0.0000  0.0000  1.1475  0.0000  0.8884  0.0000
  59.  C 5 (px)     0.0000  0.0000  0.1084 -0.0822  0.0000  0.0097  0.0000 -0.1066
  60.  C 5 (py)     0.1363 -0.2678  0.0000  0.0000  0.0480  0.0000 -0.0772  0.0000
  61.  C 5 (pz)     0.0502  0.0373  0.0000  0.0000  0.1931  0.0000 -0.0739  0.0000
  62.  C 5 (s)     -3.0214  0.6303  0.0000  0.0000 -6.3280  0.0000 -8.9063  0.0000
  63.  C 5 (px)     0.0000  0.0000  0.0049 -0.1328  0.0000  0.0733  0.0000  0.0698
  64.  C 5 (py)    -0.0951  1.3527  0.0000  0.0000 -3.1122  0.0000 -2.9739  0.0000
  65.  C 5 (pz)     0.5561  1.2668  0.0000  0.0000 -3.4822  0.0000 -4.4320  0.0000
  66.  C 5 (d5)    -0.0097  0.0491  0.0000  0.0000  0.0166  0.0000  0.0074  0.0000
  67.  C 5 (d2)     0.0000  0.0000 -0.3435  0.2316  0.0000  0.2086  0.0000  0.3319
  68.  C 5 (d3)     0.0963  0.0936  0.0000  0.0000 -0.0920  0.0000 -0.0360  0.0000
  69.  C 5 (d4)     0.0194  0.0910  0.0000  0.0000 -0.0073  0.0000  0.0083  0.0000
  70.  C 5 (d1)     0.0000  0.0000 -0.2125 -0.0480  0.0000 -0.4692  0.0000  0.0588
  71.  H 6 (s)     -0.0119 -0.5194  0.0000  0.0000  0.1738  0.0000 -0.5637  0.0000
  72.  H 6 (s)     -0.2475 -0.5457  0.0000  0.0000 -0.0977  0.0000 -1.2606  0.0000
  73.  H 7 (s)      0.0119 -0.5194  0.0000  0.0000 -0.1738  0.0000  0.5637  0.0000
  74.  H 7 (s)      0.2475 -0.5457  0.0000  0.0000  0.0977  0.0000  1.2606  0.0000
  75.  H 8 (s)     -0.6404  0.5702  0.0000  0.0000  0.4773  0.0000  0.4421  0.0000
  76.  H 8 (s)     -0.4203  0.5250  0.0000  0.0000  1.0842  0.0000  1.1353  0.0000
  77.  H 9 (s)      0.6404  0.5702  0.0000  0.0000 -0.4773  0.0000 -0.4421  0.0000
  78.  H 9 (s)      0.4203  0.5250  0.0000  0.0000 -1.0842  0.0000 -1.1353  0.0000

           AO         57      58      59      60      61      62      63      64
      ------------ ------- ------- ------- ------- ------- ------- ------- -------
   1.  O 1 (s)      0.0000 -0.0040  0.0046  0.0316 -0.0190  0.0000 -0.0196  0.0000
   2.  O 1 (s)      0.0000 -0.5648 -1.3626 -0.6642  0.3133  0.0000  0.0081  0.0000
   3.  O 1 (px)     0.0658  0.0000  0.0000  0.0000  0.0000  0.0000  0.0000  0.0000
   4.  O 1 (py)     0.0000  0.0000  0.0000  0.0000  0.0000 -0.1710  0.0000  0.5384
   5.  O 1 (pz)     0.0000  0.2069 -0.0232  0.2223 -0.2134  0.0000 -0.0049  0.0000
   6.  O 1 (s)      0.0000  1.5316  3.6831  1.0370 -0.7111  0.0000  0.4383  0.0000
   7.  O 1 (px)     0.1269  0.0000  0.0000  0.0000  0.0000  0.0000  0.0000  0.0000
   8.  O 1 (py)     0.0000  0.0000  0.0000  0.0000  0.0000 -0.1723  0.0000 -0.5948
   9.  O 1 (pz)     0.0000 -0.9449 -0.9241 -0.4067  0.4284  0.0000 -0.2952  0.0000
  10.  O 1 (d5)     0.0000  0.3449 -0.4562 -0.1512 -0.2838  0.0000  0.3968  0.0000
  11.  O 1 (d2)     0.5479  0.0000  0.0000  0.0000  0.0000  0.0000  0.0000  0.0000
  12.  O 1 (d3)     0.0000  0.0000  0.0000  0.0000  0.0000 -0.0087  0.0000  0.2707
  13.  O 1 (d4)     0.0000  0.1508  0.3789 -0.1655 -0.3144  0.0000  0.2578  0.0000
  14.  O 1 (d1)     0.0000  0.0000  0.0000  0.0000  0.0000  0.0000  0.0000  0.0000
  15.  C 2 (s)      0.0000 -0.0027  0.0241 -0.0012 -0.0028 -0.0083  0.0095  0.0192
  16.  C 2 (s)      0.0000  0.1061  0.2350 -0.2661 -0.2564 -0.1861 -0.2628  0.4059
  17.  C 2 (px)     0.0690  0.0000  0.0000  0.0000  0.0000  0.0000  0.0000  0.0000
  18.  C 2 (py)     0.0000  0.2480  0.0347  0.1366  0.1503 -0.1272  0.1216 -0.1708
  19.  C 2 (pz)     0.0000 -0.0591 -0.1119 -0.0112  0.0072  0.0754  0.3821  0.1434
  20.  C 2 (s)      0.0000 -0.9865 -1.9726 -0.5531  0.7454  0.0666 -0.3509 -1.3076
  21.  C 2 (px)    -0.1023  0.0000  0.0000  0.0000  0.0000  0.0000  0.0000  0.0000
  22.  C 2 (py)     0.0000  0.9332  1.3606  0.4046 -0.7231 -0.2384  0.3682  0.9513
  23.  C 2 (pz)     0.0000  0.7849  0.0783  0.1212 -0.5423 -0.1329  0.1207  0.6141
  24.  C 2 (d5)     0.0000 -0.1721  0.0262  0.2752  0.2262  0.4780  0.0604  0.2283
  25.  C 2 (d2)    -0.1607  0.0000  0.0000  0.0000  0.0000  0.0000  0.0000  0.0000
  26.  C 2 (d3)     0.0000  0.2101  0.0818 -0.1310  0.1953 -0.3335  0.2712  0.3880
  27.  C 2 (d4)     0.0000 -0.2274  0.1762 -0.2981 -0.0848  0.1763 -0.0007  0.3316
  28.  C 2 (d1)     0.2630  0.0000  0.0000  0.0000  0.0000  0.0000  0.0000  0.0000
  29.  C 3 (s)      0.0000 -0.0027  0.0241 -0.0012 -0.0028  0.0083  0.0095 -0.0192
  30.  C 3 (s)      0.0000  0.1061  0.2350 -0.2661 -0.2564  0.1861 -0.2628 -0.4059
  31.  C 3 (px)     0.0690  0.0000  0.0000  0.0000  0.0000  0.0000  0.0000  0.0000
  32.  C 3 (py)     0.0000 -0.2480 -0.0347 -0.1366 -0.1503 -0.1272 -0.1216 -0.1708
  33.  C 3 (pz)     0.0000 -0.0591 -0.1119 -0.0112  0.0072 -0.0754  0.3821 -0.1434
  34.  C 3 (s)      0.0000 -0.9865 -1.9726 -0.5531  0.7454 -0.0666 -0.3509  1.3076
  35.  C 3 (px)    -0.1023  0.0000  0.0000  0.0000  0.0000  0.0000  0.0000  0.0000
  36.  C 3 (py)     0.0000 -0.9332 -1.3606 -0.4046  0.7231 -0.2384 -0.3682  0.9513
  37.  C 3 (pz)     0.0000  0.7849  0.0783  0.1212 -0.5423  0.1329  0.1207 -0.6141
  38.  C 3 (d5)     0.0000 -0.1721  0.0262  0.2752  0.2262 -0.4780  0.0604 -0.2283
  39.  C 3 (d2)    -0.1607  0.0000  0.0000  0.0000  0.0000  0.0000  0.0000  0.0000
  40.  C 3 (d3)     0.0000 -0.2101 -0.0818  0.1310 -0.1953 -0.3335 -0.2712  0.3880
  41.  C 3 (d4)     0.0000 -0.2274  0.1762 -0.2981 -0.0848 -0.1763 -0.0007 -0.3316
  42.  C 3 (d1)    -0.2630  0.0000  0.0000  0.0000  0.0000  0.0000  0.0000  0.0000
  43.  C 4 (s)      0.0000 -0.0205 -0.0119 -0.0087 -0.0006 -0.0086 -0.0117  0.0014
  44.  C 4 (s)      0.0000  0.0971 -0.1445 -0.5432  0.1348 -0.2008 -0.0181 -0.4566
  45.  C 4 (px)    -0.1348  0.0000  0.0000  0.0000  0.0000  0.0000  0.0000  0.0000
  46.  C 4 (py)     0.0000  0.1430  0.0268  0.2058 -0.2493 -0.2867 -0.0347  0.1022
  47.  C 4 (pz)     0.0000  0.0453  0.0139 -0.1406 -0.2703 -0.1670  0.1504 -0.2104
  48.  C 4 (s)      0.0000  0.9910  0.7356  0.4972 -0.5268  0.4446  0.3269  1.8284
  49.  C 4 (px)     0.0849  0.0000  0.0000  0.0000  0.0000  0.0000  0.0000  0.0000
  50.  C 4 (py)     0.0000  0.0127 -0.4605 -0.4684  0.4847 -0.3352 -0.0296 -0.3443
  51.  C 4 (pz)     0.0000  0.2881  0.7894  0.6120 -0.3822  0.5269  0.4254  1.0491
  52.  C 4 (d5)     0.0000  0.1150  0.0401  0.0917  0.4154 -0.0130  0.2394  0.2614
  53.  C 4 (d2)     0.2612  0.0000  0.0000  0.0000  0.0000  0.0000  0.0000  0.0000
  54.  C 4 (d3)     0.0000 -0.3009 -0.0140  0.1218 -0.2009  0.3490  0.5168 -0.0378
  55.  C 4 (d4)     0.0000 -0.0854  0.1762 -0.3697  0.1940 -0.1111  0.0691  0.0401
  56.  C 4 (d1)    -0.3290  0.0000  0.0000  0.0000  0.0000  0.0000  0.0000  0.0000
  57.  C 5 (s)      0.0000 -0.0205 -0.0119 -0.0087 -0.0006  0.0086 -0.0117 -0.0014
  58.  C 5 (s)      0.0000  0.0971 -0.1445 -0.5432  0.1348  0.2008 -0.0181  0.4566
  59.  C 5 (px)    -0.1348  0.0000  0.0000  0.0000  0.0000  0.0000  0.0000  0.0000
  60.  C 5 (py)     0.0000 -0.1430 -0.0268 -0.2058  0.2493 -0.2867  0.0347  0.1022
  61.  C 5 (pz)     0.0000  0.0453  0.0139 -0.1406 -0.2703  0.1670  0.1504  0.2104
  62.  C 5 (s)      0.0000  0.9910  0.7356  0.4972 -0.5268 -0.4446  0.3269 -1.8284
  63.  C 5 (px)     0.0849  0.0000  0.0000  0.0000  0.0000  0.0000  0.0000  0.0000
  64.  C 5 (py)     0.0000 -0.0127  0.4605  0.4684 -0.4847 -0.3352  0.0296 -0.3443
  65.  C 5 (pz)     0.0000  0.2881  0.7894  0.6120 -0.3822 -0.5269  0.4254 -1.0491
  66.  C 5 (d5)     0.0000  0.1150  0.0401  0.0917  0.4154  0.0130  0.2394 -0.2614
  67.  C 5 (d2)     0.2612  0.0000  0.0000  0.0000  0.0000  0.0000  0.0000  0.0000
  68.  C 5 (d3)     0.0000  0.3009  0.0140 -0.1218  0.2009  0.3490 -0.5168 -0.0378
  69.  C 5 (d4)     0.0000 -0.0854  0.1762 -0.3697  0.1940  0.1111  0.0691 -0.0401
  70.  C 5 (d1)     0.3290  0.0000  0.0000  0.0000  0.0000  0.0000  0.0000  0.0000
  71.  H 6 (s)      0.0000 -0.5654  0.0291 -0.0392 -0.0056  0.3996 -0.2471 -0.1245
  72.  H 6 (s)      0.0000 -0.2504 -0.2917 -0.1207  0.3127 -0.0223 -0.0630 -0.3166
  73.  H 7 (s)      0.0000 -0.5654  0.0291 -0.0392 -0.0056 -0.3996 -0.2471  0.1245
  74.  H 7 (s)      0.0000 -0.2504 -0.2917 -0.1207  0.3127  0.0223 -0.0630  0.3166
  75.  H 8 (s)      0.0000 -0.3968  0.1498  0.0775 -0.3221  0.3115  0.3263 -0.0817
  76.  H 8 (s)      0.0000  0.0919  0.2769  0.2701 -0.1094  0.1212  0.0190  0.2355
  77.  H 9 (s)      0.0000 -0.3968  0.1498  0.0775 -0.3221 -0.3115  0.3263  0.0817
  78.  H 9 (s)      0.0000  0.0919  0.2769  0.2701 -0.1094 -0.1212  0.0190 -0.2355

           AO         65      66      67      68      69      70      71      72
      ------------ ------- ------- ------- ------- ------- ------- ------- -------
   1.  O 1 (s)      0.0000  0.0395  0.0000  0.0000  0.0000  0.0000  0.0000  0.0000
   2.  O 1 (s)      0.0000 -0.3678  0.0000  0.0000  0.0000  0.0000  0.0000  0.0000
   3.  O 1 (px)     0.0000  0.0000 -0.0022  0.0000  0.0000  0.1248  0.0000  0.0000
   4.  O 1 (py)     0.0000  0.0000  0.0000 -0.1192  0.0000  0.0000  0.0000  0.0342
   5.  O 1 (pz)     0.0000  0.3246  0.0000  0.0000  0.0000  0.0000  0.0000  0.0000
   6.  O 1 (s)      0.0000 -0.3834  0.0000  0.0000  0.0000  0.0000  0.0000  0.0000
   7.  O 1 (px)     0.0000  0.0000 -0.1088  0.0000  0.0000 -0.6094  0.0000  0.0000
   8.  O 1 (py)     0.0000  0.0000  0.0000 -0.3061  0.0000  0.0000  0.0000  0.3121
   9.  O 1 (pz)     0.0000 -0.1439  0.0000  0.0000  0.0000  0.0000  0.0000  0.0000
  10.  O 1 (d5)     0.0000  0.1140  0.0000  0.0000  0.0000  0.0000  0.0000  0.0000
  11.  O 1 (d2)     0.0000  0.0000  0.1188  0.0000  0.0000  0.8357  0.0000  0.0000
  12.  O 1 (d3)     0.0000  0.0000  0.0000  0.0460  0.0000  0.0000  0.0000  0.0684
  13.  O 1 (d4)     0.0000 -0.1981  0.0000  0.0000  0.0000  0.0000  0.0000  0.0000
  14.  O 1 (d1)     0.6401  0.0000  0.0000  0.0000  0.2758  0.0000  0.6563  0.0000
  15.  C 2 (s)      0.0000 -0.0272  0.0000 -0.0514  0.0000  0.0000  0.0000  0.0521
  16.  C 2 (s)      0.0000 -0.2663  0.0000 -0.6321  0.0000  0.0000  0.0000  0.2339
  17.  C 2 (px)    -0.0953  0.0000 -0.0581  0.0000 -0.0660  0.1037 -0.0050  0.0000
  18.  C 2 (py)     0.0000  0.0642  0.0000  0.1914  0.0000  0.0000  0.0000 -0.0107
  19.  C 2 (pz)     0.0000 -0.0996  0.0000  0.2284  0.0000  0.0000  0.0000  0.2756
  20.  C 2 (s)      0.0000  1.2870  0.0000  1.0436  0.0000  0.0000  0.0000 -3.2727
  21.  C 2 (px)    -0.1203  0.0000 -0.1141  0.0000 -0.2667  0.2912  0.0002  0.0000
  22.  C 2 (py)     0.0000 -0.6262  0.0000 -1.0070  0.0000  0.0000  0.0000  1.6398
  23.  C 2 (pz)     0.0000 -0.3566  0.0000 -0.3983  0.0000  0.0000  0.0000  1.2175
  24.  C 2 (d5)     0.0000  0.0619  0.0000  0.2461  0.0000  0.0000  0.0000 -0.3813
  25.  C 2 (d2)    -0.0755  0.0000  0.6579  0.0000  0.2787  0.1137 -0.5877  0.0000
  26.  C 2 (d3)     0.0000 -0.2081  0.0000  0.0945  0.0000  0.0000  0.0000 -0.1970
  27.  C 2 (d4)     0.0000 -0.3925  0.0000 -0.5869  0.0000  0.0000  0.0000  0.2563
  28.  C 2 (d1)     0.3034  0.0000  0.0362  0.0000  0.3906 -0.6254  0.2060  0.0000
  29.  C 3 (s)      0.0000 -0.0272  0.0000  0.0514  0.0000  0.0000  0.0000 -0.0521
  30.  C 3 (s)      0.0000 -0.2663  0.0000  0.6321  0.0000  0.0000  0.0000 -0.2339
  31.  C 3 (px)     0.0953  0.0000 -0.0581  0.0000  0.0660  0.1037  0.0050  0.0000
  32.  C 3 (py)     0.0000 -0.0642  0.0000  0.1914  0.0000  0.0000  0.0000 -0.0107
  33.  C 3 (pz)     0.0000 -0.0996  0.0000 -0.2284  0.0000  0.0000  0.0000 -0.2756
  34.  C 3 (s)      0.0000  1.2870  0.0000 -1.0436  0.0000  0.0000  0.0000  3.2727
  35.  C 3 (px)     0.1203  0.0000 -0.1141  0.0000  0.2667  0.2912 -0.0002  0.0000
  36.  C 3 (py)     0.0000  0.6262  0.0000 -1.0070  0.0000  0.0000  0.0000  1.6398
  37.  C 3 (pz)     0.0000 -0.3566  0.0000  0.3983  0.0000  0.0000  0.0000 -1.2175
  38.  C 3 (d5)     0.0000  0.0619  0.0000 -0.2461  0.0000  0.0000  0.0000  0.3813
  39.  C 3 (d2)     0.0755  0.0000  0.6579  0.0000 -0.2787  0.1137  0.5877  0.0000
  40.  C 3 (d3)     0.0000  0.2081  0.0000  0.0945  0.0000  0.0000  0.0000 -0.1970
  41.  C 3 (d4)     0.0000 -0.3925  0.0000  0.5869  0.0000  0.0000  0.0000 -0.2563
  42.  C 3 (d1)     0.3034  0.0000 -0.0362  0.0000  0.3906  0.6254  0.2060  0.0000
  43.  C 4 (s)      0.0000  0.0336  0.0000 -0.0321  0.0000  0.0000  0.0000 -0.1193
  44.  C 4 (s)      0.0000  0.5597  0.0000 -0.4728  0.0000  0.0000  0.0000 -0.2471
  45.  C 4 (px)    -0.0430  0.0000  0.0849  0.0000  0.0715 -0.0048 -0.0280  0.0000
  46.  C 4 (py)     0.0000 -0.2710  0.0000  0.0076  0.0000  0.0000  0.0000 -0.2989
  47.  C 4 (pz)     0.0000  0.0978  0.0000 -0.2491  0.0000  0.0000  0.0000  0.2153
  48.  C 4 (s)      0.0000 -1.1373  0.0000  0.6778  0.0000  0.0000  0.0000  5.7990
  49.  C 4 (px)    -0.0971  0.0000  0.1420  0.0000  0.3976 -0.1051 -0.0244  0.0000
  50.  C 4 (py)     0.0000  0.3658  0.0000 -0.6364  0.0000  0.0000  0.0000 -2.1133
  51.  C 4 (pz)     0.0000 -0.8215  0.0000  0.4855  0.0000  0.0000  0.0000  2.2499
  52.  C 4 (d5)     0.0000 -0.2144  0.0000  0.3062  0.0000  0.0000  0.0000  0.1782
  53.  C 4 (d2)     0.1846  0.0000  0.5400  0.0000  0.5355 -0.1829 -0.3627  0.0000
  54.  C 4 (d3)     0.0000  0.0959  0.0000 -0.0635  0.0000  0.0000  0.0000 -0.0287
  55.  C 4 (d4)     0.0000  0.4966  0.0000 -0.2693  0.0000  0.0000  0.0000 -0.8615
  56.  C 4 (d1)     0.6126  0.0000  0.1682  0.0000 -0.4481  0.0275 -0.3945  0.0000
  57.  C 5 (s)      0.0000  0.0336  0.0000  0.0321  0.0000  0.0000  0.0000  0.1193
  58.  C 5 (s)      0.0000  0.5597  0.0000  0.4728  0.0000  0.0000  0.0000  0.2471
  59.  C 5 (px)     0.0430  0.0000  0.0849  0.0000 -0.0715 -0.0048  0.0280  0.0000
  60.  C 5 (py)     0.0000  0.2710  0.0000  0.0076  0.0000  0.0000  0.0000 -0.2989
  61.  C 5 (pz)     0.0000  0.0978  0.0000  0.2491  0.0000  0.0000  0.0000 -0.2153
  62.  C 5 (s)      0.0000 -1.1373  0.0000 -0.6778  0.0000  0.0000  0.0000 -5.7990
[...]
                                         0.0000 -0.0055  0.5048  0.0000  0.0000
                                        -0.0313 -0.3171 -0.0223 -0.1122  0.0000
                                         0.0000  0.4315 -0.4711 -0.4715
  53. (0.00037) RY ( 6) C  3            s( 48.94%)p 0.01(  0.43%)d 1.03( 50.63%)
                                         0.0000 -0.0040  0.6996  0.0000  0.0000
                                        -0.0318  0.0563  0.0109 -0.0025  0.0000
                                         0.0000  0.2218  0.3223  0.5943
  54. (0.00001) RY ( 7) C  3            s( 14.94%)p 1.15( 17.24%)d 4.54( 67.82%)
  55. (0.00001) RY ( 8) C  3            s(  0.89%)p 0.42(  0.38%)d99.99( 98.73%)
  56. (0.00000) RY ( 9) C  3            s(  0.00%)p 1.00(  7.83%)d11.77( 92.17%)
  57. (0.00404) RY ( 1) C  4            s(  4.60%)p19.75( 90.81%)d 1.00(  4.59%)
                                         0.0000  0.0103  0.2142  0.0000  0.0000
                                        -0.0354 -0.2977  0.0035  0.9046  0.0000
                                         0.0000 -0.2094 -0.0210  0.0401
  58. (0.00133) RY ( 2) C  4            s(  0.03%)p99.99( 99.21%)d24.56(  0.76%)
                                         0.0000 -0.0077  0.0158  0.0000  0.0000
                                        -0.0332  0.9437 -0.0425  0.3141  0.0000
                                         0.0000  0.0273 -0.0453 -0.0693
  59. (0.00120) RY ( 3) C  4            s(  0.00%)p 1.00( 42.23%)d 1.37( 57.77%)
                                         0.0000  0.0000  0.0000 -0.0359 -0.6489
                                         0.0000  0.0000  0.0000  0.0000  0.7044
                                         0.2856  0.0000  0.0000  0.0000
  60. (0.00025) RY ( 4) C  4            s(  0.00%)p 1.00( 48.12%)d 1.08( 51.88%)
                                         0.0000  0.0000  0.0000  0.0022  0.6937
                                         0.0000  0.0000  0.0000  0.0000  0.3949
                                         0.6024  0.0000  0.0000  0.0000
  61. (0.00007) RY ( 5) C  4            s( 47.10%)p 0.17(  8.23%)d 0.95( 44.67%)
  62. (0.00006) RY ( 6) C  4            s( 14.59%)p 0.04(  0.65%)d 5.81( 84.76%)
  63. (0.00003) RY ( 7) C  4            s( 28.56%)p 0.05(  1.33%)d 2.45( 70.10%)
  64. (0.00001) RY ( 8) C  4            s(  5.27%)p 0.01(  0.06%)d17.98( 94.67%)
  65. (0.00000) RY ( 9) C  4            s(  0.00%)p 1.00(  9.80%)d 9.20( 90.20%)
  66. (0.00404) RY ( 1) C  5            s(  4.60%)p19.75( 90.81%)d 1.00(  4.59%)
                                         0.0000  0.0103  0.2142  0.0000  0.0000
                                         0.0354  0.2977  0.0035  0.9046  0.0000
                                         0.0000  0.2094 -0.0210  0.0401
  67. (0.00133) RY ( 2) C  5            s(  0.03%)p99.99( 99.21%)d24.56(  0.76%)
                                         0.0000 -0.0077  0.0158  0.0000  0.0000
                                         0.0332 -0.9437 -0.0425  0.3141  0.0000
                                         0.0000 -0.0273 -0.0453 -0.0693
  68. (0.00120) RY ( 3) C  5            s(  0.00%)p 1.00( 42.23%)d 1.37( 57.77%)
                                         0.0000  0.0000  0.0000  0.0359  0.6489
                                         0.0000  0.0000  0.0000  0.0000  0.7044
                                        -0.2856  0.0000  0.0000  0.0000
  69. (0.00025) RY ( 4) C  5            s(  0.00%)p 1.00( 48.12%)d 1.08( 51.88%)
                                         0.0000  0.0000  0.0000  0.0022  0.6937
                                         0.0000  0.0000  0.0000  0.0000 -0.3949
                                         0.6024  0.0000  0.0000  0.0000
  70. (0.00007) RY ( 5) C  5            s( 47.10%)p 0.17(  8.23%)d 0.95( 44.67%)
  71. (0.00006) RY ( 6) C  5            s( 14.59%)p 0.04(  0.65%)d 5.81( 84.76%)
  72. (0.00003) RY ( 7) C  5            s( 28.56%)p 0.05(  1.33%)d 2.45( 70.10%)
  73. (0.00001) RY ( 8) C  5            s(  5.27%)p 0.01(  0.06%)d17.98( 94.67%)
  74. (0.00000) RY ( 9) C  5            s(  0.00%)p 1.00(  9.80%)d 9.20( 90.20%)
  75. (0.00027) RY ( 1) H  6            s(100.00%)
                                        -0.0014  1.0000
  76. (0.00027) RY ( 1) H  7            s(100.00%)
                                        -0.0014  1.0000
  77. (0.00019) RY ( 1) H  8            s(100.00%)
                                        -0.0006  1.0000
  78. (0.00019) RY ( 1) H  9            s(100.00%)
                                        -0.0006  1.0000


 NHO DIRECTIONALITY AND BOND BENDING (deviation from line of nuclear centers at
                                      the position of maximum hybrid amplitude)

         [Thresholds for printing:  angular deviation  >  1.0 degree]
                                    p- or d-character  > 25.0%
                                    orbital occupancy  >  0.10e

                        Line of Centers        Hybrid 1             Hybrid 2
                        ---------------  -------------------  ------------------
           NBO            Theta   Phi    Theta   Phi    Dev   Theta   Phi    Dev
 ===============================================================================
   6. LP ( 1) O  1          --     --      0.0    0.0   --      --     --    --
   7. LP ( 2) O  1          --     --     90.5    0.0   --      --     --    --
   8. BD ( 1) O  1- C  2  126.7   90.0   121.4   90.0   5.3    51.7  270.0   1.7
   9. BD ( 1) O  1- C  3  126.7  270.0   121.4  270.0   5.3    51.7   90.0   1.7
  10. BD ( 1) C  2- C  4  163.8  270.0   168.4  270.0   4.6    21.1   90.0   4.8
  11. BD ( 2) C  2- C  4  163.8  270.0    91.5  359.5  88.5    88.4    0.2  88.4
  13. BD ( 1) C  3- C  5  163.8   90.0   168.4   90.0   4.6    21.1  270.0   4.8
  14. BD ( 2) C  3- C  5  163.8   90.0    91.5  179.5  88.5    88.4  180.2  88.4
  16. BD ( 1) C  4- C  5   90.0  270.0    95.9  270.0   5.9    95.9   90.0   5.9


 SECOND ORDER PERTURBATION THEORY ANALYSIS OF FOCK MATRIX IN NBO BASIS

     Threshold for printing:   0.50 kcal/mol
                                                          E(2) E(NL)-E(L) F(L,NL)
      Donor (L) NBO              Acceptor (NL) NBO      kcal/mol   a.u.    a.u.
 ===============================================================================

 within unit  1
    6. LP ( 1) O  1            21. BD*( 1) C  2- C  4      3.93    1.64   0.072
    6. LP ( 1) O  1            23. BD*( 1) C  2- H  6      1.38    1.51   0.041
    6. LP ( 1) O  1            24. BD*( 1) C  3- C  5      3.93    1.64   0.072
    6. LP ( 1) O  1            26. BD*( 1) C  3- H  7      1.38    1.51   0.041
    6. LP ( 1) O  1            39. RY ( 1) C  2            2.30    2.12   0.062
    6. LP ( 1) O  1            48. RY ( 1) C  3            2.30    2.12   0.062
    7. LP ( 2) O  1            22. BD*( 2) C  2- C  4     43.68    0.66   0.152
    7. LP ( 2) O  1            25. BD*( 2) C  3- C  5     43.68    0.66   0.152
    7. LP ( 2) O  1            31. RY ( 2) O  1            0.54    1.77   0.028
    7. LP ( 2) O  1            41. RY ( 3) C  2            4.68    1.94   0.085
    7. LP ( 2) O  1            50. RY ( 3) C  3            4.68    1.94   0.085
    8. BD ( 1) O  1- C  2      26. BD*( 1) C  3- H  7      2.49    1.81   0.060
    8. BD ( 1) O  1- C  2      28. BD*( 1) C  4- H  8      2.42    1.81   0.059
    8. BD ( 1) O  1- C  2      49. RY ( 2) C  3            3.01    1.96   0.069
    8. BD ( 1) O  1- C  2      58. RY ( 2) C  4            0.79    1.93   0.035
    9. BD ( 1) O  1- C  3      23. BD*( 1) C  2- H  6      2.49    1.81   0.060
    9. BD ( 1) O  1- C  3      29. BD*( 1) C  5- H  9      2.42    1.81   0.059
    9. BD ( 1) O  1- C  3      40. RY ( 2) C  2            3.01    1.96   0.069
    9. BD ( 1) O  1- C  3      67. RY ( 2) C  5            0.79    1.93   0.035
   10. BD ( 1) C  2- C  4      23. BD*( 1) C  2- H  6      2.25    1.61   0.054
   10. BD ( 1) C  2- C  4      27. BD*( 1) C  4- C  5      1.66    1.66   0.047
   10. BD ( 1) C  2- C  4      28. BD*( 1) C  4- H  8      2.38    1.61   0.055
   10. BD ( 1) C  2- C  4      29. BD*( 1) C  5- H  9      3.66    1.61   0.069
   10. BD ( 1) C  2- C  4      30. RY ( 1) O  1            0.61    2.17   0.033
   10. BD ( 1) C  2- C  4      48. RY ( 1) C  3            0.80    2.23   0.038
   10. BD ( 1) C  2- C  4      66. RY ( 1) C  5            2.07    2.19   0.060
   11. BD ( 2) C  2- C  4      25. BD*( 2) C  3- C  5     30.09    0.56   0.115
   11. BD ( 2) C  2- C  4      31. RY ( 2) O  1            1.73    1.66   0.048
   11. BD ( 2) C  2- C  4      68. RY ( 3) C  5            2.13    1.98   0.058
   12. BD ( 1) C  2- H  6      20. BD*( 1) O  1- C  3      2.94    1.37   0.057
   12. BD ( 1) C  2- H  6      21. BD*( 1) C  2- C  4      1.24    1.63   0.040
   12. BD ( 1) C  2- H  6      27. BD*( 1) C  4- C  5      1.77    1.54   0.046
   12. BD ( 1) C  2- H  6      30. RY ( 1) O  1            0.90    2.05   0.038
   12. BD ( 1) C  2- H  6      57. RY ( 1) C  4            0.89    2.06   0.038
   12. BD ( 1) C  2- H  6      58. RY ( 2) C  4            0.68    1.61   0.029
   13. BD ( 1) C  3- C  5      26. BD*( 1) C  3- H  7      2.25    1.61   0.054
   13. BD ( 1) C  3- C  5      27. BD*( 1) C  4- C  5      1.66    1.66   0.047
   13. BD ( 1) C  3- C  5      28. BD*( 1) C  4- H  8      3.66    1.61   0.069
   13. BD ( 1) C  3- C  5      29. BD*( 1) C  5- H  9      2.38    1.61   0.055
   13. BD ( 1) C  3- C  5      30. RY ( 1) O  1            0.61    2.17   0.033
   13. BD ( 1) C  3- C  5      39. RY ( 1) C  2            0.80    2.23   0.038
   13. BD ( 1) C  3- C  5      57. RY ( 1) C  4            2.07    2.19   0.060
   14. BD ( 2) C  3- C  5      22. BD*( 2) C  2- C  4     30.09    0.56   0.115
   14. BD ( 2) C  3- C  5      31. RY ( 2) O  1            1.73    1.66   0.048
   14. BD ( 2) C  3- C  5      59. RY ( 3) C  4            2.13    1.98   0.058
   15. BD ( 1) C  3- H  7      19. BD*( 1) O  1- C  2      2.94    1.37   0.057
   15. BD ( 1) C  3- H  7      24. BD*( 1) C  3- C  5      1.24    1.63   0.040
   15. BD ( 1) C  3- H  7      27. BD*( 1) C  4- C  5      1.77    1.54   0.046
   15. BD ( 1) C  3- H  7      30. RY ( 1) O  1            0.90    2.05   0.038
   15. BD ( 1) C  3- H  7      66. RY ( 1) C  5            0.89    2.06   0.038
   15. BD ( 1) C  3- H  7      67. RY ( 2) C  5            0.68    1.61   0.029
   16. BD ( 1) C  4- C  5      19. BD*( 1) O  1- C  2      2.43    1.42   0.053
   16. BD ( 1) C  4- C  5      20. BD*( 1) O  1- C  3      2.43    1.42   0.053
   16. BD ( 1) C  4- C  5      21. BD*( 1) C  2- C  4      1.76    1.68   0.049
   16. BD ( 1) C  4- C  5      23. BD*( 1) C  2- H  6      4.86    1.55   0.077
   16. BD ( 1) C  4- C  5      24. BD*( 1) C  3- C  5      1.76    1.68   0.049
   16. BD ( 1) C  4- C  5      26. BD*( 1) C  3- H  7      4.86    1.55   0.077
   16. BD ( 1) C  4- C  5      28. BD*( 1) C  4- H  8      1.60    1.54   0.044
   16. BD ( 1) C  4- C  5      29. BD*( 1) C  5- H  9      1.60    1.54   0.044
   16. BD ( 1) C  4- C  5      39. RY ( 1) C  2            1.58    2.16   0.052
   16. BD ( 1) C  4- C  5      48. RY ( 1) C  3            1.58    2.16   0.052
   17. BD ( 1) C  4- H  8      19. BD*( 1) O  1- C  2      3.22    1.34   0.059
   17. BD ( 1) C  4- H  8      21. BD*( 1) C  2- C  4      1.52    1.60   0.044
   17. BD ( 1) C  4- H  8      24. BD*( 1) C  3- C  5      1.54    1.60   0.044
   17. BD ( 1) C  4- H  8      27. BD*( 1) C  4- C  5      1.03    1.50   0.035
   17. BD ( 1) C  4- H  8      39. RY ( 1) C  2            0.82    2.08   0.037
   17. BD ( 1) C  4- H  8      66. RY ( 1) C  5            1.12    2.03   0.042
   18. BD ( 1) C  5- H  9      20. BD*( 1) O  1- C  3      3.22    1.34   0.059
   18. BD ( 1) C  5- H  9      21. BD*( 1) C  2- C  4      1.54    1.60   0.044
   18. BD ( 1) C  5- H  9      24. BD*( 1) C  3- C  5      1.52    1.60   0.044
   18. BD ( 1) C  5- H  9      27. BD*( 1) C  4- C  5      1.03    1.50   0.035
   18. BD ( 1) C  5- H  9      48. RY ( 1) C  3            0.82    2.08   0.037
   18. BD ( 1) C  5- H  9      57. RY ( 1) C  4            1.12    2.03   0.042


 NATURAL BOND ORBITALS (Summary):

                                                     Principal Delocalizations
           NBO                 Occupancy    Energy   (geminal,vicinal,remote)
 ===============================================================================
 Molecular unit  1  (C4H4O)
 ------ Lewis --------------------------------------
    1. CR ( 1) O  1             1.99999   -20.62312
    2. CR ( 1) C  2             1.99999   -11.28457
    3. CR ( 1) C  3             1.99999   -11.28457
    4. CR ( 1) C  4             1.99999   -11.22698
    5. CR ( 1) C  5             1.99999   -11.22698
    6. LP ( 1) O  1             1.97981    -0.72640  21(v),24(v),39(v),48(v)
                                                     23(v),26(v)
    7. LP ( 2) O  1             1.76147    -0.46441  22(v),25(v),41(v),50(v)
                                                     31(g)
    8. BD ( 1) O  1- C  2       1.99118    -1.03000  49(v),26(v),28(v),58(v)
    9. BD ( 1) O  1- C  3       1.99118    -1.03000  40(v),23(v),29(v),67(v)
   10. BD ( 1) C  2- C  4       1.98779    -0.83352  29(v),28(g),23(g),66(v)
                                                     27(g),48(r),30(v)
   11. BD ( 2) C  2- C  4       1.89827    -0.35829  25(v),68(v),31(v)
   12. BD ( 1) C  2- H  6       1.98876    -0.70914  20(v),27(v),21(g),30(v)
                                                     57(v),58(v)
   13. BD ( 1) C  3- C  5       1.98779    -0.83352  28(v),29(g),26(g),57(v)
                                                     27(g),39(r),30(v)
   14. BD ( 2) C  3- C  5       1.89827    -0.35829  22(v),59(v),31(v)
   15. BD ( 1) C  3- H  7       1.98876    -0.70914  19(v),27(v),24(g),30(v)
                                                     66(v),67(v)
   16. BD ( 1) C  4- C  5       1.97619    -0.76556  23(v),26(v),19(v),20(v)
                                                     21(g),24(g),28(g),29(g)
                                                     39(v),48(v)
   17. BD ( 1) C  4- H  8       1.98667    -0.67893  19(v),24(v),21(g),66(v)
                                                     27(g),39(v)
   18. BD ( 1) C  5- H  9       1.98667    -0.67893  20(v),21(v),24(g),57(v)
                                                     27(g),48(v)
 ------ non-Lewis ----------------------------------
   19. BD*( 1) O  1- C  2       0.01297     0.65713
   20. BD*( 1) O  1- C  3       0.01297     0.65713
   21. BD*( 1) C  2- C  4       0.01158     0.91795
   22. BD*( 2) C  2- C  4       0.21491     0.19684
   23. BD*( 1) C  2- H  6       0.01152     0.78089
   24. BD*( 1) C  3- C  5       0.01158     0.91795
   25. BD*( 2) C  3- C  5       0.21491     0.19684
   26. BD*( 1) C  3- H  7       0.01152     0.78089
   27. BD*( 1) C  4- C  5       0.00955     0.82592
   28. BD*( 1) C  4- H  8       0.01014     0.77777
   29. BD*( 1) C  5- H  9       0.01014     0.77777
   30. RY ( 1) O  1             0.00246     1.33851
   31. RY ( 2) O  1             0.00155     1.30337
   32. RY ( 3) O  1             0.00062     2.23672
   33. RY ( 4) O  1             0.00060     1.80380
   34. RY ( 5) O  1             0.00010     2.02986
   35. RY ( 6) O  1             0.00003     2.37914
   36. RY ( 7) O  1             0.00002     2.80698
   37. RY ( 8) O  1             0.00000     2.64198
   38. RY ( 9) O  1             0.00000     2.16386
   39. RY ( 1) C  2             0.00465     1.39623
   40. RY ( 2) C  2             0.00347     0.92524
   41. RY ( 3) C  2             0.00231     1.47069
   42. RY ( 4) C  2             0.00124     1.67992
   43. RY ( 5) C  2             0.00052     2.03063
   44. RY ( 6) C  2             0.00037     1.83964
   45. RY ( 7) C  2             0.00001     2.14425
   46. RY ( 8) C  2             0.00001     2.57427
   47. RY ( 9) C  2             0.00000     2.05378
   48. RY ( 1) C  3             0.00465     1.39623
   49. RY ( 2) C  3             0.00347     0.92524
   50. RY ( 3) C  3             0.00231     1.47069
   51. RY ( 4) C  3             0.00124     1.67992
   52. RY ( 5) C  3             0.00052     2.03063
   53. RY ( 6) C  3             0.00037     1.83964
   54. RY ( 7) C  3             0.00001     2.14425
   55. RY ( 8) C  3             0.00001     2.57427
   56. RY ( 9) C  3             0.00000     2.05378
   57. RY ( 1) C  4             0.00404     1.35151
   58. RY ( 2) C  4             0.00133     0.90170
   59. RY ( 3) C  4             0.00120     1.61742
   60. RY ( 4) C  4             0.00025     1.53161
   61. RY ( 5) C  4             0.00007     1.75364
   62. RY ( 6) C  4             0.00006     2.41051
   63. RY ( 7) C  4             0.00003     2.16704
   64. RY ( 8) C  4             0.00001     2.60063
   65. RY ( 9) C  4             0.00000     2.03633
   66. RY ( 1) C  5             0.00404     1.35151
   67. RY ( 2) C  5             0.00133     0.90170
   68. RY ( 3) C  5             0.00120     1.61742
   69. RY ( 4) C  5             0.00025     1.53161
   70. RY ( 5) C  5             0.00007     1.75364
   71. RY ( 6) C  5             0.00006     2.41051
   72. RY ( 7) C  5             0.00003     2.16704
   73. RY ( 8) C  5             0.00001     2.60063
   74. RY ( 9) C  5             0.00000     2.03633
   75. RY ( 1) H  6             0.00027     0.66620
   76. RY ( 1) H  7             0.00027     0.66620
   77. RY ( 1) H  8             0.00019     0.69164
   78. RY ( 1) H  9             0.00019     0.69164
          -------------------------------
                 Total Lewis   35.42278  ( 98.3966%)
           Valence non-Lewis    0.53178  (  1.4772%)
           Rydberg non-Lewis    0.04544  (  0.1262%)
          -------------------------------
               Total unit  1   36.00000  (100.0000%)
              Charge unit  1    0.00000

 $CHOOSE
   LONE 1 2 END
   BOND S 1 2 S 1 3 D 2 4 S 2 6 D 3 5 S 3 7 S 4 5 S 4 8 S 5 9 END
 $END

 NBO analysis completed in 1.47 CPU seconds (2 wall seconds)
 Maximum scratch memory used by NBO was 364032 words (2.78 MB)
 Maximum scratch memory used by G16NBO was 17869 words (0.14 MB)

 Opening RunExU unformatted file "/cluster/work/users/beto93/mol131/Gau-1782377.EUF"
 Read unf file /cluster/work/users/beto93/mol131/Gau-1782377.EUF:
 Label Gaussian matrix elements                                         IVers= 2 NLab= 2 Version=ES64L-G16RevC.01
 Title mol131-NBO                                                      
 NAtoms=     9 NBasis=    78 NBsUse=    78 ICharg=     0 Multip=     1 NE=    36 Len12L=8 Len4L=8 IOpCl= 0 ICGU=111
 GAUSSIAN SCALARS                    NI= 1 NR= 1 NTot=       1 LenBuf=    2 NRI=1 N=    1000
 NPA CHARGES                         NI= 0 NR= 1 NTot=       9 LenBuf= 4000 NRI=1 N=       9
 Recovered energy= -228.621507860     dipole=     -0.000000000000      0.000000000000     -0.336191852004
 Unable to Open any file for archive entry.
 1\1\GINC-C1-37\SP\RHF\6-31G(d)\C4H4O1\BETO93\18-Nov-2024\0\\#RHF/6-31G
 * int=nobasistransform Symmetry=None 5D 7F Pop=NBO7Read\\mol131-NBO\\0
 ,1\O,0,0.,0.,1.163339\C,0,0.,1.0947,0.348039\C,0,0.,-1.0947,0.348039\C
 ,0,0.,0.7132,-0.962161\C,0,0.,-0.7132,-0.962161\H,0,0.,2.049359,0.8511
 13\H,0,0.,-2.049359,0.851113\H,0,0.,1.370828,-1.819738\H,0,0.,-1.37082
 8,-1.819738\\Version=ES64L-G16RevC.01\HF=-228.6215079\RMSD=9.231e-09\D
 ipole=0.,0.,-0.3361919\Quadrupole=-3.0869482,3.3126684,-0.2257201,0.,0
 .,0.\PG=Unknown\\@
 The archive entry for this job was punched.


 Mondays are the potholes in the road of life.
                                -- Tom Wilson
 Job cpu time:       0 days  0 hours  0 minutes 12.4 seconds.
 Elapsed time:       0 days  0 hours  0 minutes  4.1 seconds.
 File lengths (MBytes):  RWF=     15 Int=      0 D2E=      0 Chk=      2 Scr=      1
 Normal termination of Gaussian 16 at Mon Nov 18 16:41:12 2024.
