 Entering Gaussian System, Link 0=g16
 Initial command:
 /cluster/software/Gaussian/g16_C.01/l1.exe "/cluster/work/users/beto93/CH3CH3/Gau-3325869.inp" -scrdir="/cluster/work/users/beto93/CH3CH3/"
 Entering Link 1 = /cluster/software/Gaussian/g16_C.01/l1.exe PID=   3325870.
  
 Copyright (c) 1988-2019, Gaussian, Inc.  All Rights Reserved.
  
 This is part of the Gaussian(R) 16 program.  It is based on
 the Gaussian(R) 09 system (copyright 2009, Gaussian, Inc.),
 the Gaussian(R) 03 system (copyright 2003, Gaussian, Inc.),
 the Gaussian(R) 98 system (copyright 1998, Gaussian, Inc.),
 the Gaussian(R) 94 system (copyright 1995, Gaussian, Inc.),
 the Gaussian 92(TM) system (copyright 1992, Gaussian, Inc.),
 the Gaussian 90(TM) system (copyright 1990, Gaussian, Inc.),
 the Gaussian 88(TM) system (copyright 1988, Gaussian, Inc.),
 the Gaussian 86(TM) system (copyright 1986, Carnegie Mellon
 University), and the Gaussian 82(TM) system (copyright 1983,
 Carnegie Mellon University). Gaussian is a federally registered
 trademark of Gaussian, Inc.
  
 This software contains proprietary and confidential information,
 including trade secrets, belonging to Gaussian, Inc.
  
 This software is provided under written license and may be
 used, copied, transmitted, or stored only in accord with that
 written license.
  
 The following legend is applicable only to US Government
 contracts under FAR:
  
                    RESTRICTED RIGHTS LEGEND
  
 Use, reproduction and disclosure by the US Government is
 subject to restrictions as set forth in subparagraphs (a)
 and (c) of the Commercial Computer Software - Restricted
 Rights clause in FAR 52.227-19.
  
 Gaussian, Inc.
 340 Quinnipiac St., Bldg. 40, Wallingford CT 06492
  
  
 ---------------------------------------------------------------
 Warning -- This program may not be used in any manner that
 competes with the business of Gaussian, Inc. or will provide
 assistance to any competitor of Gaussian, Inc.  The licensee
 of this program is prohibited from giving any competitor of
 Gaussian, Inc. access to this program.  By using this program,
 the user acknowledges that Gaussian, Inc. is engaged in the
 business of creating and licensing software in the field of
 computational chemistry and represents and warrants to the
 licensee that it is not a competitor of Gaussian, Inc. and that
 it will not use this program in any manner prohibited above.
 ---------------------------------------------------------------
  

 Cite this work as:
 Gaussian 16, Revision C.01,
 M. J. Frisch, G. W. Trucks, H. B. Schlegel, G. E. Scuseria, 
 M. A. Robb, J. R. Cheeseman, G. Scalmani, V. Barone, 
 G. A. Petersson, H. Nakatsuji, X. Li, M. Caricato, A. V. Marenich, 
 J. Bloino, B. G. Janesko, R. Gomperts, B. Mennucci, H. P. Hratchian, 
 J. V. Ortiz, A. F. Izmaylov, J. L. Sonnenberg, D. Williams-Young, 
 F. Ding, F. Lipparini, F. Egidi, J. Goings, B. Peng, A. Petrone, 
 T. Henderson, D. Ranasinghe, V. G. Zakrzewski, J. Gao, N. Rega, 
 G. Zheng, W. Liang, M. Hada, M. Ehara, K. Toyota, R. Fukuda, 
 J. Hasegawa, M. Ishida, T. Nakajima, Y. Honda, O. Kitao, H. Nakai, 
 T. Vreven, K. Throssell, J. A. Montgomery, Jr., J. E. Peralta, 
 F. Ogliaro, M. J. Bearpark, J. J. Heyd, E. N. Brothers, K. N. Kudin, 
 V. N. Staroverov, T. A. Keith, R. Kobayashi, J. Normand, 
 K. Raghavachari, A. P. Rendell, J. C. Burant, S. S. Iyengar, 
 J. Tomasi, M. Cossi, J. M. Millam, M. Klene, C. Adamo, R. Cammi, 
 J. W. Ochterski, R. L. Martin, K. Morokuma, O. Farkas, 
 J. B. Foresman, and D. J. Fox, Gaussian, Inc., Wallingford CT, 2019.
 
 ******************************************
 Gaussian 16:  ES64L-G16RevC.01  3-Jul-2019
                24-Jul-2024 
 ******************************************
 %LindaWorkers=c1-3-ib
 %NProcShared=4
 Will use up to    4 processors via shared memory.
 %mem=25GB
 %chk=a.chk
 SetLPE:    new flags="-opt 'Tsnet.Node.lindarsharg: ssh'  -nodelist 'c1-3-ib.saga' -env GAUSS_MDEF=3355443200 -env GAUSS_EXEDIR="/cluster/software/Gaussian/g16_C.01/bsd:/cluster/software/Gaussian/g16_C.01""
 Will use up to    1 processors via Linda.
 -----------------------
 #RHF/4-31G Pop=NBO7Read
 -----------------------
 1/38=1,163=2,172=1/1;
 2/12=2,17=6,18=5,40=1/2;
 3/5=1,11=1,25=1,30=1,116=1/1,2,3;
 4//1;
 5/5=2,38=5/2;
 6/7=2,8=2,9=2,10=2,28=1,40=2,113=1,114=1,124=2103/1,12;
 99/5=1,9=1/99;
 -----
 NBO-a
 -----
 Symbolic Z-matrix:
 Charge =  0 Multiplicity = 1
 C                     0.00888   0.01538   0.00628 
 H                     0.02082   0.03606   1.09206 
 H                     1.03655   0.03606  -0.34439 
 H                    -0.48704   0.91571  -0.34439 
 C                    -0.71598  -1.24012  -0.50628 
 H                    -1.74365  -1.26081  -0.15562 
 H                    -0.72792  -1.26081  -1.59206 
 H                    -0.22007  -2.14045  -0.15561 
 
                          Input orientation:                          
 ---------------------------------------------------------------------
 Center     Atomic      Atomic             Coordinates (Angstroms)
 Number     Number       Type             X           Y           Z
 ---------------------------------------------------------------------
      1          6           0        0.008877    0.015375    0.006277
      2          1           0        0.020819    0.036063    1.092059
      3          1           0        1.036545    0.036063   -0.344387
      4          1           0       -0.487038    0.915705   -0.344391
      5          6           0       -0.715982   -1.240120   -0.506280
      6          1           0       -1.743649   -1.260807   -0.155616
      7          1           0       -0.727923   -1.260807   -1.592062
      8          1           0       -0.220066   -2.140449   -0.155612
 ---------------------------------------------------------------------
                    Distance matrix (angstroms):
                    1          2          3          4          5
     1  C    0.000000
     2  H    1.086045   0.000000
     3  H    1.086045   1.759283   0.000000
     4  H    1.086045   1.759283   1.759283   0.000000
     5  C    1.537662   2.173984   2.173983   2.173984   0.000000
     6  H    2.173982   2.520300   3.073595   2.520300   1.086044
     7  H    2.173983   3.073596   2.520300   2.520300   1.086045
     8  H    2.173983   2.520300   2.520300   3.073595   1.086045
                    6          7          8
     6  H    0.000000
     7  H    1.759283   0.000000
     8  H    1.759283   1.759283   0.000000
 This structure is nearly, but not quite of a higher symmetry.
 Consider Symm=Loose if the higher symmetry is desired.
 Stoichiometry    C2H6
 Framework group  CI[X(C2H6)]
 Deg. of freedom     9
 Full point group                 CI      NOp   2
 Largest Abelian subgroup         CI      NOp   2
 Largest concise Abelian subgroup CI      NOp   2
                         Standard orientation:                         
 ---------------------------------------------------------------------
 Center     Atomic      Atomic             Coordinates (Angstroms)
 Number     Number       Type             X           Y           Z
 ---------------------------------------------------------------------
      1          6           0        0.362429    0.627747    0.256279
      2          1           0        0.374371    0.648435    1.342061
      3          1           0        1.390097    0.648435   -0.094385
      4          1           0       -0.133486    1.528077   -0.094389
      5          6           0       -0.362429   -0.627747   -0.256279
      6          1           0       -1.390097   -0.648435    0.094385
      7          1           0       -0.374371   -0.648435   -1.342061
      8          1           0        0.133486   -1.528077    0.094389
 ---------------------------------------------------------------------
 Rotational constants (GHZ):          81.0085197          19.9372460          19.9372440
 Standard basis: 4-31G (6D, 7F)
 There are    15 symmetry adapted cartesian basis functions of AG  symmetry.
 There are    15 symmetry adapted cartesian basis functions of AU  symmetry.
 There are    15 symmetry adapted basis functions of AG  symmetry.
 There are    15 symmetry adapted basis functions of AU  symmetry.
    30 basis functions,    64 primitive gaussians,    30 cartesian basis functions
     9 alpha electrons        9 beta electrons
       nuclear repulsion energy        42.2741924002 Hartrees.
 NAtoms=    8 NActive=    8 NUniq=    4 SFac= 4.00D+00 NAtFMM=   60 NAOKFM=F Big=F
 Integral buffers will be    131072 words long.
 Raffenetti 1 integral format.
 Two-electron integral symmetry is turned on.
 One-electron integrals computed using PRISM.
 NBasis=    30 RedAO= T EigKep=  1.30D-02  NBF=    15    15
 NBsUse=    30 1.00D-06 EigRej= -1.00D+00 NBFU=    15    15
 ExpMin= 1.61D-01 ExpMax= 4.87D+02 ExpMxC= 4.87D+02 IAcc=3 IRadAn=         5 AccDes= 0.00D+00
 Harris functional with IExCor=  205 and IRadAn=       5 diagonalized for initial guess.
 HarFok:  IExCor=  205 AccDes= 0.00D+00 IRadAn=         5 IDoV= 1 UseB2=F ITyADJ=14
 ICtDFT=  3500011 ScaDFX=  1.000000  1.000000  1.000000  1.000000
 FoFCou: FMM=F IPFlag=           0 FMFlag=      100000 FMFlg1=           0
         NFxFlg=           0 DoJE=T BraDBF=F KetDBF=T FulRan=T
         wScrn=  0.000000 ICntrl=       500 IOpCl=  0 I1Cent=   200000004 NGrid=           0
         NMat0=    1 NMatS0=      1 NMatT0=    0 NMatD0=    1 NMtDS0=    0 NMtDT0=    0
 Petite list used in FoFCou.
 Initial guess orbital symmetries:
       Occupied  (AU) (AG) (AG) (AU) (AU) (AU) (AG) (AG) (AG)
       Virtual   (AG) (AU) (AU) (AU) (AU) (AG) (AG) (AG) (AU) (AU)
                 (AU) (AG) (AG) (AG) (AU) (AU) (AG) (AG) (AU) (AG)
                 (AU)
 The electronic state of the initial guess is 1-AG.
 Keep R1 ints in memory in symmetry-blocked form, NReq=924447.
 Requested convergence on RMS density matrix=1.00D-08 within 128 cycles.
 Requested convergence on MAX density matrix=1.00D-06.
 Requested convergence on             energy=1.00D-06.
 No special actions if energy rises.
 SCF Done:  E(RHF) =  -79.1158222598     A.U. after    9 cycles
            NFock=  9  Conv=0.11D-08     -V/T= 1.9988

 **********************************************************************

            Population analysis using the SCF Density.

 **********************************************************************

 Orbital symmetries:
       Occupied  (AG) (AU) (AG) (AU) (AU) (AU) (AG) (AG) (AG)
       Virtual   (AG) (AU) (AU) (AU) (AG) (AG) (AU) (AU) (AU) (AG)
                 (AG) (AG) (AU) (AG) (AU) (AU) (AG) (AG) (AU) (AG)
                 (AU)
 The electronic state is 1-AG.
 Alpha  occ. eigenvalues --  -11.19090 -11.19066  -1.01971  -0.84541  -0.59838
 Alpha  occ. eigenvalues --   -0.59838  -0.50273  -0.48606  -0.48606
 Alpha virt. eigenvalues --    0.24468   0.30618   0.31535   0.31535   0.34506
 Alpha virt. eigenvalues --    0.34506   0.41959   0.81901   0.81901   0.84245
 Alpha virt. eigenvalues --    0.97585   0.97586   1.00827   1.21912   1.23515
 Alpha virt. eigenvalues --    1.23515   1.26037   1.26037   1.30729   1.48037
 Alpha virt. eigenvalues --    1.87017
          Condensed to atoms (all electrons):
               1          2          3          4          5          6
     1  C    5.114519   0.389811   0.389811   0.389811   0.286743  -0.039930
     2  H    0.389811   0.564053  -0.031209  -0.031209  -0.039930  -0.002901
     3  H    0.389811  -0.031209   0.564054  -0.031209  -0.039930   0.003985
     4  H    0.389811  -0.031209  -0.031209   0.564053  -0.039930  -0.002901
     5  C    0.286743  -0.039930  -0.039930  -0.039930   5.114519   0.389811
     6  H   -0.039930  -0.002901   0.003985  -0.002901   0.389811   0.564054
     7  H   -0.039930   0.003985  -0.002901  -0.002901   0.389811  -0.031209
     8  H   -0.039930  -0.002901  -0.002901   0.003985   0.389811  -0.031209
               7          8
     1  C   -0.039930  -0.039930
     2  H    0.003985  -0.002901
     3  H   -0.002901  -0.002901
     4  H   -0.002901   0.003985
     5  C    0.389811   0.389811
     6  H   -0.031209  -0.031209
     7  H    0.564053  -0.031209
     8  H   -0.031209   0.564053
 Mulliken charges:
               1
     1  C   -0.450905
     2  H    0.150302
     3  H    0.150301
     4  H    0.150302
     5  C   -0.450905
     6  H    0.150301
     7  H    0.150302
     8  H    0.150302
 Sum of Mulliken charges =  -0.00000
 Mulliken charges with hydrogens summed into heavy atoms:
               1
     1  C   -0.000000
     5  C   -0.000000
 Electronic spatial extent (au):  <R**2>=            109.7719
 Charge=             -0.0000 electrons
 Dipole moment (field-independent basis, Debye):
    X=              0.0000    Y=              0.0000    Z=             -0.0000  Tot=              0.0000
 Quadrupole moment (field-independent basis, Debye-Ang):
   XX=            -15.1111   YY=            -15.3509   ZZ=            -15.0511
   XY=             -0.2076   XZ=             -0.0848   YZ=             -0.1468
 Traceless Quadrupole moment (field-independent basis, Debye-Ang):
   XX=              0.0599   YY=             -0.1798   ZZ=              0.1199
   XY=             -0.2076   XZ=             -0.0848   YZ=             -0.1468
 Octapole moment (field-independent basis, Debye-Ang**2):
  XXX=             -0.0000  YYY=              0.0000  ZZZ=             -0.0000  XYY=             -0.0000
  XXY=              0.0000  XXZ=             -0.0000  XZZ=              0.0000  YZZ=              0.0000
  YYZ=              0.0000  XYZ=              0.0000
 Hexadecapole moment (field-independent basis, Debye-Ang**3):
 XXXX=            -41.0804 YYYY=            -69.5471 ZZZZ=            -33.8423 XXXY=            -11.3392
 XXXZ=             -5.8087 YYYX=            -13.3136 YYYZ=             -9.4142 ZZZX=             -4.4277
 ZZZY=             -7.6691 XXYY=            -19.1979 XXZZ=            -13.6263 YYZZ=            -18.1808
 XXYZ=             -3.1381 YYXZ=             -1.4384 ZZXY=             -3.9443
 N-N= 4.227419240023D+01 E-N=-2.681566091245D+02  KE= 7.921317176545D+01
 Symmetry AG   KE= 4.110919541752D+01
 Symmetry AU   KE= 3.810397634793D+01
 Running external command "gaunbo7 R"
         input file       "/cluster/work/users/beto93/CH3CH3/Gau-3325870.EIn"
         output file      "/cluster/work/users/beto93/CH3CH3/Gau-3325870.EOu"
         message file     "/cluster/work/users/beto93/CH3CH3/Gau-3325870.EMs"
         fchk file        "/cluster/work/users/beto93/CH3CH3/Gau-3325870.EFC"
         mat. el file     "/cluster/work/users/beto93/CH3CH3/Gau-3325870.EUF"

 Writing WrtUnf unformatted file "/cluster/work/users/beto93/CH3CH3/Gau-3325870.EUF"
 Gaussian matrix elements                                         Version   2 NLab=11 Len12L=8 Len4L=8
 Write SHELL TO ATOM MAP                   from file      0 offset           0 length                  18 to matrix element file.
 Write SHELL TYPES                         from file      0 offset           0 length                  18 to matrix element file.
 Write NUMBER OF PRIMITIVES PER SHELL      from file      0 offset           0 length                  18 to matrix element file.
 Write PRIMITIVE EXPONENTS                 from file      0 offset           0 length                  40 to matrix element file.
 Write CONTRACTION COEFFICIENTS            from file      0 offset           0 length                  40 to matrix element file.
 Write P(S=P) CONTRACTION COEFFICIENTS     from file      0 offset           0 length                  40 to matrix element file.
 Write COORDINATES OF EACH SHELL           from file      0 offset           0 length                  54 to matrix element file.
 Write BONDS PER ATOM                      from file      0 offset           0 length                   8 to matrix element file.
 Write BONDED ATOMS                        from file      0 offset           0 length                  14 to matrix element file.
 Write BOND TYPES                          from file      0 offset           0 length                  14 to matrix element file.
 Write ONIOM CHARGE/MULT                   from file      0 offset           0 length                  32 to matrix element file.
 Write ONIOM ATOM LAYERS                   from file      0 offset           0 length                   8 to matrix element file.
 Write ONIOM ATOM MODIFIERS                from file      0 offset           0 length                   8 to matrix element file.
 Write ONIOM ATOM TYPES                    from file      0 offset           0 length                   8 to matrix element file.
 Write ONIOM LINK ATOMS                    from file      0 offset           0 length                   8 to matrix element file.
 Write ONIOM LINK CHARGES                  from file      0 offset           0 length                   8 to matrix element file.
 Write ONIOM LINK DISTANCES                from file      0 offset           0 length                  32 to matrix element file.
 Write SYMINF INTS                         from file      0 offset           0 length                  26 to matrix element file.
 Write ROTTR TO SO                         from file      0 offset           0 length                  12 to matrix element file.
 Write GAUSSIAN SCALARS                    from file    501 offset           0 to matrix element file.
 Write OPTIMIZATION FLAGS                  from file      0 offset           0 length                   8 to matrix element file.
 Write INTEGER ISO                         from file      0 offset           0 length                   8 to matrix element file.
 Write INTEGER SPIN                        from file      0 offset           0 length                   8 to matrix element file.
 Write REAL ZEFFECTIVE                     from file      0 offset           0 length                   8 to matrix element file.
 Write REAL GFACTOR                        from file      0 offset           0 length                   8 to matrix element file.
 Write REAL ZNUCLEAR                       from file      0 offset           0 length                   8 to matrix element file.
 Write MULLIKEN CHARGES                    from file      0 offset           0 length                   8 to matrix element file.
 Write NUCLEAR GRADIENT                    from file  10584 offset           0 length                  24 to matrix element file.
 Array NUCLEAR FORCE CONSTANTS              on  file  10585 does not exist.
 Write ELECTRIC DIPOLE MOMENT              from file      0 offset           0 length                   3 to matrix element file.
 Write NON-ADIABATIC COUPLING              from file  10810 offset           0 length                  24 to matrix element file.
 Write FINITE EM FIELD                     from file  10521 offset           0 length                  35 to matrix element file.
 Write OVERLAP                             from file  10514 offset           0 length                 465 to matrix element file.
 Write CORE HAMILTONIAN ALPHA              from file  10515 offset           0 length                 465 to matrix element file.
 Write CORE HAMILTONIAN BETA               from file  10515 offset         465 length                 465 to matrix element file.
 Write KINETIC ENERGY                      from file  10516 offset           0 length                 465 to matrix element file.
 Write ORTHOGONAL BASIS                    from file  10685 offset           0 length                 900 to matrix element file.
 Write DIPOLE INTEGRALS                    from file  10518 offset           0 length                1395 to matrix element file.
 Array DIP VEL INTEGRALS                    on  file  10572 does not exist.
 Array R X DEL INTEGRALS                    on  file  10572 does not exist.
 Write ALPHA ORBITAL ENERGIES              from file      0 offset           0 length                  30 to matrix element file.
 Write ALPHA MO COEFFICIENTS               from file  10524 offset           0 length                 900 to matrix element file.
 Write ALPHA DENSITY MATRIX                from file      0 offset           0 length                 465 to matrix element file.
 Write ALPHA FOCK MATRIX                   from file  10536 offset           0 length                 465 to matrix element file.
 Write ENERGY-WEIGHTED DENSITY             from file  10571 offset           0 length                 465 to matrix element file.
 Write ALPHA SCF DENSITY MATRIX            from file      0 offset           0 length                 465 to matrix element file.
 No 2e integrals to process.
 Perform NBO analysis...executing G16NBO...

 *********************************** NBO 7.0 ***********************************
             N A T U R A L   A T O M I C   O R B I T A L   A N D
          N A T U R A L   B O N D   O R B I T A L   A N A L Y S I S
 **************************** Espen Tangen (S101595) ***************************
  (c) Copyright 1996-2021 Board of Regents of the University of Wisconsin System
      on behalf of the Theoretical Chemistry Institute.  All rights reserved.

          Cite this program [NBO 7.0.10 (8-Feb-2021)] as:

          NBO 7.0.  E. D. Glendening, J. K. Badenhoop, A. E. Reed,
          J. E. Carpenter, J. A. Bohmann, C. M. Morales, P. Karafiloglou,
          C. R. Landis, and F. Weinhold, Theoretical Chemistry Institute,
          University of Wisconsin, Madison, WI (2018)

       /NPA    / : Natural Population Analysis
       /AOPNAO / : Print the AO to PNAO transformation
       /AONAO  / : Print the AO to NAO transformation
       /AONO   / : Print the NOs in the AO basis
       /AOMO   / : Print the MOs in the AO basis
       /BOAO   / : Print the AO bond-order matrix
       /DMAO   / : Print the AO density matrix
       /DMPNAO / : Print the PNAO density matrix
       /DMNAO  / : Print the NAO density matrix
       /DMMO   / : Print the MO density matrix
       /SAO    / : Print the AO overlap matrix
       /SPNAO  / : Print the PNAO overlap matrix
       /DETAIL / : Write details of NBO search
       /ARCHIVE/ : Write the archive file to lfn47
       /AOINFO / : Write AO information to lfn31
       /FILE   / : Set to inpGenNbo

 Filename set to inpGenNbo

 Job title: NBO-a


 MOs in the AO basis:

           AO          1       2       3       4       5       6       7       8
      ------------ ------- ------- ------- ------- ------- ------- ------- -------
   1.  C 1 (s)      0.7026  0.7027 -0.1465 -0.1292  0.0000  0.0000  0.0170  0.0000
   2.  C 1 (s)      0.0412  0.0432  0.2350  0.2014  0.0000  0.0000 -0.0279  0.0000
   3.  C 1 (px)     0.0002 -0.0001 -0.0248  0.0555  0.0225  0.2579  0.1810  0.0230
   4.  C 1 (py)     0.0004 -0.0002 -0.0430  0.0962 -0.1217 -0.1180  0.3136 -0.1212
   5.  C 1 (pz)     0.0002 -0.0001 -0.0175  0.0393  0.2662 -0.0757  0.1280  0.2644
   6.  C 1 (s)     -0.0266 -0.0412  0.2947  0.3498  0.0000  0.0000 -0.0513  0.0000
   7.  C 1 (px)    -0.0013  0.0027 -0.0039  0.0133  0.0128  0.1461  0.1097  0.0156
   8.  C 1 (py)    -0.0023  0.0046 -0.0067  0.0231 -0.0689 -0.0668  0.1901 -0.0823
   9.  C 1 (pz)    -0.0009  0.0019 -0.0027  0.0094  0.1508 -0.0429  0.0776  0.1794
  10.  H 2 (s)     -0.0006  0.0001  0.0861  0.1176  0.1785 -0.0508  0.0832  0.2108
  11.  H 2 (s)      0.0059  0.0054  0.0138  0.0414  0.1297 -0.0369  0.0757  0.1901
  12.  H 3 (s)     -0.0006  0.0001  0.0861  0.1176 -0.0453  0.1800  0.0831 -0.0530
  13.  H 3 (s)      0.0059  0.0054  0.0138  0.0414 -0.0329  0.1308  0.0757 -0.0478
  14.  H 4 (s)     -0.0006  0.0001  0.0861  0.1176 -0.1332 -0.1292  0.0831 -0.1579
  15.  H 4 (s)      0.0059  0.0054  0.0138  0.0414 -0.0968 -0.0939  0.0757 -0.1423
  16.  C 5 (s)      0.7026 -0.7027 -0.1465  0.1292  0.0000  0.0000  0.0170  0.0000
  17.  C 5 (s)      0.0412 -0.0432  0.2350 -0.2014  0.0000  0.0000 -0.0279  0.0000
  18.  C 5 (px)    -0.0002 -0.0001  0.0248  0.0555  0.0225  0.2579 -0.1810 -0.0230
  19.  C 5 (py)    -0.0004 -0.0002  0.0430  0.0962 -0.1217 -0.1180 -0.3136  0.1212
  20.  C 5 (pz)    -0.0002 -0.0001  0.0175  0.0393  0.2662 -0.0757 -0.1280 -0.2644
  21.  C 5 (s)     -0.0266  0.0412  0.2947 -0.3498  0.0000  0.0000 -0.0513  0.0000
  22.  C 5 (px)     0.0013  0.0027  0.0039  0.0133  0.0128  0.1461 -0.1097 -0.0156
  23.  C 5 (py)     0.0023  0.0046  0.0067  0.0231 -0.0689 -0.0668 -0.1901  0.0823
  24.  C 5 (pz)     0.0009  0.0019  0.0027  0.0094  0.1508 -0.0429 -0.0776 -0.1794
  25.  H 6 (s)     -0.0006 -0.0001  0.0861 -0.1176  0.0453 -0.1800  0.0831 -0.0530
  26.  H 6 (s)      0.0059 -0.0054  0.0138 -0.0414  0.0329 -0.1308  0.0757 -0.0478
  27.  H 7 (s)     -0.0006 -0.0001  0.0861 -0.1176 -0.1785  0.0508  0.0832  0.2108
  28.  H 7 (s)      0.0059 -0.0054  0.0138 -0.0414 -0.1297  0.0369  0.0757  0.1901
  29.  H 8 (s)     -0.0006 -0.0001  0.0861 -0.1176  0.1332  0.1292  0.0831 -0.1579
  30.  H 8 (s)      0.0059 -0.0054  0.0138 -0.0414  0.0968  0.0939  0.0757 -0.1423

           AO          9      10      11      12      13      14      15      16
      ------------ ------- ------- ------- ------- ------- ------- ------- -------
   1.  C 1 (s)      0.0000 -0.0990 -0.1273  0.0000  0.0000  0.0000  0.0000  0.0580
   2.  C 1 (s)      0.0000  0.0328  0.0252  0.0000  0.0000  0.0000  0.0000 -0.0072
   3.  C 1 (px)     0.2563  0.0441  0.0163 -0.1940 -0.0374 -0.1811 -0.0171  0.1295
   4.  C 1 (py)    -0.1170  0.0764  0.0283  0.0799  0.1016  0.0823  0.0861  0.2244
   5.  C 1 (pz)    -0.0760  0.0312  0.0115  0.0785 -0.1961  0.0546 -0.1866  0.0916
   6.  C 1 (s)      0.0000  1.5538  2.0735  0.0000  0.0000  0.0000  0.0000 -1.0344
   7.  C 1 (px)     0.1739  0.2174 -0.0359 -0.7188 -0.1387 -1.0854 -0.1027  0.8397
   8.  C 1 (py)    -0.0794  0.3765 -0.0621  0.2963  0.3767  0.4931  0.5160  1.4544
   9.  C 1 (pz)    -0.0515  0.1537 -0.0254  0.2908 -0.7266  0.3271 -1.1187  0.5938
  10.  H 2 (s)     -0.0606 -0.0004  0.0012 -0.0209  0.0523 -0.0076  0.0261 -0.0534
  11.  H 2 (s)     -0.0546 -0.7398 -0.7913 -0.4605  1.1506 -0.3787  1.2948 -0.3517
  12.  H 3 (s)      0.2129 -0.0004  0.0012  0.0558 -0.0080  0.0264 -0.0064 -0.0534
  13.  H 3 (s)      0.1919 -0.7398 -0.7913  1.2267 -0.1765  1.3107 -0.3195 -0.3517
  14.  H 4 (s)     -0.1523 -0.0004  0.0012 -0.0348 -0.0443 -0.0188 -0.0197 -0.0534
  15.  H 4 (s)     -0.1373 -0.7398 -0.7913 -0.7662 -0.9741 -0.9320 -0.9753 -0.3517
  16.  C 5 (s)      0.0000 -0.0990  0.1273  0.0000  0.0000  0.0000  0.0000 -0.0580
  17.  C 5 (s)      0.0000  0.0328 -0.0252  0.0000  0.0000  0.0000  0.0000  0.0072
  18.  C 5 (px)    -0.2563 -0.0441  0.0163 -0.1940 -0.0374  0.1811  0.0171  0.1295
  19.  C 5 (py)     0.1170 -0.0764  0.0283  0.0799  0.1016 -0.0823 -0.0861  0.2244
  20.  C 5 (pz)     0.0760 -0.0312  0.0115  0.0785 -0.1961 -0.0546  0.1866  0.0916
  21.  C 5 (s)      0.0000  1.5538 -2.0735  0.0000  0.0000  0.0000  0.0000  1.0344
  22.  C 5 (px)    -0.1739 -0.2174 -0.0359 -0.7188 -0.1387  1.0854  0.1027  0.8397
  23.  C 5 (py)     0.0794 -0.3765 -0.0621  0.2963  0.3767 -0.4931 -0.5160  1.4544
  24.  C 5 (pz)     0.0515 -0.1537 -0.0254  0.2908 -0.7266 -0.3271  1.1187  0.5938
  25.  H 6 (s)      0.2129 -0.0004 -0.0012 -0.0558  0.0080  0.0264 -0.0064  0.0534
  26.  H 6 (s)      0.1919 -0.7398  0.7913 -1.2267  0.1765  1.3107 -0.3195  0.3517
  27.  H 7 (s)     -0.0606 -0.0004 -0.0012  0.0209 -0.0523 -0.0076  0.0261  0.0534
  28.  H 7 (s)     -0.0546 -0.7398  0.7913  0.4605 -1.1506 -0.3787  1.2948  0.3517
  29.  H 8 (s)     -0.1523 -0.0004 -0.0012  0.0348  0.0443 -0.0188 -0.0197  0.0534
  30.  H 8 (s)     -0.1373 -0.7398  0.7913  0.7662  0.9741 -0.9320 -0.9753  0.3517

           AO         17      18      19      20      21      22      23      24
      ------------ ------- ------- ------- ------- ------- ------- ------- -------
   1.  C 1 (s)      0.0000  0.0000 -0.0026  0.0000  0.0000 -0.0533  0.0647  0.0000
   2.  C 1 (s)      0.0000  0.0000  0.0330  0.0000  0.0000  0.2873 -0.2064  0.0000
   3.  C 1 (px)    -0.0560 -0.3453 -0.3199 -0.6077 -0.0514 -0.3719 -0.1679  0.6590
   4.  C 1 (py)     0.1757  0.1469 -0.5542  0.2787  0.2859 -0.6441 -0.2909 -0.2970
   5.  C 1 (pz)    -0.3512  0.1285 -0.2262  0.1767 -0.6276 -0.2630 -0.1188 -0.2044
   6.  C 1 (s)      0.0000  0.0000  0.5000  0.0000  0.0000 -0.5662  0.0584  0.0000
   7.  C 1 (px)     0.1053  0.6495  0.4526  1.5351  0.1298  0.6565  0.0435 -0.8090
   8.  C 1 (py)    -0.3305 -0.2763  0.7839 -0.7040 -0.7222  1.1371  0.0754  0.3646
   9.  C 1 (pz)     0.6605 -0.2418  0.3200 -0.4464  1.5853  0.4642  0.0308  0.2509
  10.  H 2 (s)     -0.4983  0.1824 -0.1699  0.0885 -0.3144 -0.1685  0.5335  0.1567
  11.  H 2 (s)      0.0253 -0.0093 -0.0496  0.1198 -0.4254 -0.1720 -0.2544 -0.3114
  12.  H 3 (s)      0.0912 -0.5227 -0.1699 -0.3165  0.0805 -0.1685  0.5335 -0.5286
  13.  H 3 (s)     -0.0046  0.0265 -0.0496 -0.4283  0.1089 -0.1720 -0.2544  1.0504
  14.  H 4 (s)      0.4071  0.3403 -0.1699  0.2280  0.2338 -0.1685  0.5335  0.3719
  15.  H 4 (s)     -0.0206 -0.0173 -0.0496  0.3085  0.3164 -0.1720 -0.2544 -0.7390
  16.  C 5 (s)      0.0000  0.0000 -0.0026  0.0000  0.0000  0.0533  0.0647  0.0000
  17.  C 5 (s)      0.0000  0.0000  0.0330  0.0000  0.0000 -0.2873 -0.2064  0.0000
  18.  C 5 (px)    -0.0560 -0.3453  0.3199  0.6077  0.0514 -0.3719  0.1679  0.6590
  19.  C 5 (py)     0.1757  0.1469  0.5542 -0.2787 -0.2859 -0.6441  0.2909 -0.2970
  20.  C 5 (pz)    -0.3512  0.1285  0.2262 -0.1767  0.6276 -0.2630  0.1188 -0.2044
  21.  C 5 (s)      0.0000  0.0000  0.5000  0.0000  0.0000  0.5662  0.0584  0.0000
  22.  C 5 (px)     0.1053  0.6495 -0.4526 -1.5351 -0.1298  0.6565 -0.0435 -0.8090
  23.  C 5 (py)    -0.3305 -0.2763 -0.7839  0.7040  0.7222  1.1371 -0.0754  0.3646
  24.  C 5 (pz)     0.6605 -0.2418 -0.3200  0.4464 -1.5853  0.4642 -0.0308  0.2509
  25.  H 6 (s)     -0.0912  0.5227 -0.1699 -0.3165  0.0805  0.1685  0.5335  0.5286
  26.  H 6 (s)      0.0046 -0.0265 -0.0496 -0.4283  0.1089  0.1720 -0.2544 -1.0504
  27.  H 7 (s)      0.4983 -0.1824 -0.1699  0.0885 -0.3144  0.1685  0.5335 -0.1567
  28.  H 7 (s)     -0.0253  0.0093 -0.0496  0.1198 -0.4254  0.1720 -0.2544  0.3114
  29.  H 8 (s)     -0.4071 -0.3403 -0.1699  0.2280  0.2338  0.1685  0.5335 -0.3719
  30.  H 8 (s)      0.0206  0.0173 -0.0496  0.3085  0.3164  0.1720 -0.2544  0.7390

           AO         25      26      27      28      29      30
      ------------ ------- ------- ------- ------- ------- -------
   1.  C 1 (s)      0.0000  0.0000  0.0000  0.0422 -0.0543 -0.1456
   2.  C 1 (s)      0.0000  0.0000  0.0000 -0.8200 -1.6242 -1.6793
   3.  C 1 (px)     0.0678  0.4393  0.0393 -0.1919  0.0210  0.0204
   4.  C 1 (py)    -0.3160 -0.2005 -0.2077 -0.3325  0.0364  0.0353
   5.  C 1 (pz)     0.6781 -0.1300  0.4532 -0.1357  0.0149  0.0144
   6.  C 1 (s)      0.0000  0.0000  0.0000  1.1740  2.7608  4.9687
   7.  C 1 (px)    -0.0833 -0.2053 -0.0184  0.3253  0.1723 -0.5640
   8.  C 1 (py)     0.3879  0.0937  0.0971  0.5634  0.2985 -0.9769
   9.  C 1 (pz)    -0.8324  0.0608 -0.2118  0.2300  0.1219 -0.3988
  10.  H 2 (s)     -0.5199  0.2080 -0.7249  0.4227 -0.1094 -0.4541
  11.  H 2 (s)      1.0331 -0.2245  0.7827 -0.6602 -0.6433 -0.3836
  12.  H 3 (s)      0.1243 -0.7317  0.1823  0.4227 -0.1094 -0.4541
  13.  H 3 (s)     -0.2469  0.7901 -0.1969 -0.6602 -0.6433 -0.3836
  14.  H 4 (s)      0.3957  0.5238  0.5425  0.4227 -0.1094 -0.4541
  15.  H 4 (s)     -0.7862 -0.5656 -0.5858 -0.6602 -0.6433 -0.3836
  16.  C 5 (s)      0.0000  0.0000  0.0000 -0.0422 -0.0543  0.1456
  17.  C 5 (s)      0.0000  0.0000  0.0000  0.8200 -1.6242  1.6793
  18.  C 5 (px)     0.0678 -0.4393 -0.0393 -0.1919 -0.0210  0.0204
  19.  C 5 (py)    -0.3160  0.2005  0.2077 -0.3325 -0.0364  0.0353
  20.  C 5 (pz)     0.6781  0.1300 -0.4532 -0.1357 -0.0149  0.0144
  21.  C 5 (s)      0.0000  0.0000  0.0000 -1.1740  2.7608 -4.9687
  22.  C 5 (px)    -0.0833  0.2053  0.0184  0.3253 -0.1723 -0.5640
  23.  C 5 (py)     0.3879 -0.0937 -0.0971  0.5634 -0.2985 -0.9769
  24.  C 5 (pz)    -0.8324 -0.0608  0.2118  0.2300 -0.1219 -0.3988
  25.  H 6 (s)     -0.1243 -0.7317  0.1823 -0.4227 -0.1094  0.4541
  26.  H 6 (s)      0.2469  0.7901 -0.1969  0.6602 -0.6433  0.3836
  27.  H 7 (s)      0.5199  0.2080 -0.7249 -0.4227 -0.1094  0.4541
  28.  H 7 (s)     -1.0331 -0.2245  0.7827  0.6602 -0.6433  0.3836
  29.  H 8 (s)     -0.3957  0.5238  0.5425 -0.4227 -0.1094  0.4541
  30.  H 8 (s)      0.7862 -0.5656 -0.5858  0.6602 -0.6433  0.3836


 NOs in the AO basis:

           AO          1       2       3       4       5       6       7       8
      ------------ ------- ------- ------- ------- ------- ------- ------- -------
   1.  C 1 (s)      0.6319 -0.3112  0.6381 -0.1879 -0.1593 -0.2213  0.1128 -0.0070
   2.  C 1 (s)      0.0872 -0.0161 -0.0212 -0.1054  0.0151  0.1880 -0.2117  0.0173
   3.  C 1 (px)    -0.0232  0.1780  0.1547  0.0400 -0.0736  0.1991  0.1004 -0.1335
   4.  C 1 (py)    -0.0195  0.0325 -0.0104 -0.2569  0.1537  0.0888  0.2019 -0.0517
   5.  C 1 (pz)     0.0346  0.0265 -0.1250 -0.1418 -0.2020  0.0131  0.1119  0.2519
   6.  C 1 (s)      0.0535 -0.0196 -0.1315 -0.0962  0.0466  0.3292 -0.2707  0.0238
   7.  C 1 (px)    -0.0203  0.1171  0.1060  0.0223 -0.0337  0.1046  0.0510 -0.0752
   8.  C 1 (py)    -0.0211  0.0383  0.0072 -0.1606  0.0845  0.0273  0.1058 -0.0299
   9.  C 1 (pz)     0.0201  0.0173 -0.0823 -0.0965 -0.1312 -0.0096  0.0610  0.1425
  10.  H 2 (s)      0.0486  0.0142 -0.1277 -0.1505 -0.1419  0.0890 -0.0066  0.1755
  11.  H 2 (s)      0.0339  0.0041 -0.0943 -0.1116 -0.1287  0.0142  0.0451  0.1233
  12.  H 3 (s)     -0.0054  0.1170  0.1188  0.0254  0.0261  0.2202 -0.0457 -0.1332
  13.  H 3 (s)     -0.0145  0.0941  0.1256  0.0426  0.0306  0.1282  0.0139 -0.1000
  14.  H 4 (s)      0.0081 -0.0417 -0.0509 -0.1664  0.1648  0.0718 -0.0289 -0.0363
  15.  H 4 (s)     -0.0024 -0.0297 -0.0167 -0.1114  0.1147  0.0115  0.0277 -0.0311
  16.  C 5 (s)     -0.5768 -0.6964  0.2425 -0.0892 -0.1959  0.2910  0.1296  0.0141
  17.  C 5 (s)     -0.1212  0.0604  0.0895 -0.0845 -0.0418 -0.1350 -0.2155  0.0121
  18.  C 5 (px)     0.0579 -0.0445 -0.0997  0.1178 -0.2573  0.0402 -0.1181 -0.1238
  19.  C 5 (py)     0.0802 -0.2035 -0.1176  0.1335  0.1293 -0.0293 -0.2044 -0.0084
  20.  C 5 (pz)    -0.0071  0.0341  0.1324  0.1959  0.0692  0.1017 -0.0725  0.2700
  21.  C 5 (s)     -0.0949  0.1668  0.1126 -0.0777 -0.0407 -0.2804 -0.2798  0.0120
  22.  C 5 (px)     0.0334 -0.0316 -0.0619  0.0680 -0.1583 -0.0009 -0.0615 -0.0713
  23.  C 5 (py)     0.0441 -0.1179 -0.0573  0.0921  0.0681 -0.0489 -0.1080 -0.0052
  24.  C 5 (pz)    -0.0092  0.0241  0.0957  0.1277  0.0528  0.0521 -0.0389  0.1528
  25.  H 6 (s)     -0.0799  0.0898  0.1446 -0.0557  0.1818 -0.0600 -0.0279  0.1433
  26.  H 6 (s)     -0.0503  0.0508  0.1134 -0.0187  0.1547  0.0016  0.0280  0.1024
  27.  H 7 (s)     -0.0286  0.0172 -0.0739 -0.1803 -0.0767 -0.1425 -0.0352 -0.1773
  28.  H 7 (s)     -0.0038 -0.0173 -0.0859 -0.1355 -0.0704 -0.0771  0.0255 -0.1316
  29.  H 8 (s)     -0.0668  0.1512  0.0971 -0.0303 -0.1483 -0.0140 -0.0265  0.0291
  30.  H 8 (s)     -0.0384  0.0869  0.0600 -0.0148 -0.1018  0.0260  0.0306  0.0180

           AO          9      10      11      12      13      14      15      16
      ------------ ------- ------- ------- ------- ------- ------- ------- -------
   1.  C 1 (s)     -0.0073  0.0392 -0.0417  0.0670  0.0386 -0.0091  0.0116  0.1003
   2.  C 1 (s)     -0.0004  0.1924  0.2555 -0.5056  0.0267  0.3853 -0.0827 -0.7584
   3.  C 1 (px)     0.1975  0.1459  0.5767  0.7129 -0.1966 -0.1650 -0.1249  0.0377
   4.  C 1 (py)    -0.1551  0.1356  0.1259  0.0672  0.0443  0.0228  0.5917  0.0643
   5.  C 1 (pz)     0.1260  0.1351  0.2924 -0.3415  0.1441 -0.0125  0.3047 -0.0121
   6.  C 1 (s)     -0.0001 -0.5769 -0.0065 -0.2752 -0.4333 -0.7101 -0.1586  0.0680
   7.  C 1 (px)     0.1344  0.1583  0.4002 -0.7254  0.1895  0.1240  0.3593 -0.2745
   8.  C 1 (py)    -0.1063 -1.4196  0.3267 -0.0971  0.7598  0.2493 -0.1381  0.4886
   9.  C 1 (pz)     0.0862  0.8257 -0.0853  0.1256  0.2689  0.0456 -0.1760  0.5129
  10.  H 2 (s)      0.1013  0.1942 -0.2713 -0.2663 -0.1505 -0.4491 -0.1625  0.5907
  11.  H 2 (s)      0.0921 -0.9417 -0.2343  0.9051  0.0724  0.5852  0.0717 -1.0990
  12.  H 3 (s)      0.1151  0.1910 -0.3075  0.1536  0.0380  0.0466 -0.2005  0.3137
  13.  H 3 (s)      0.1039 -0.0623 -0.6337  0.0305  0.1104 -0.2072  0.0821  0.5141
  14.  H 4 (s)     -0.2101  0.4681 -0.2283  0.1560  0.0009 -0.0147 -0.0708  0.0644
  15.  H 4 (s)     -0.1908  1.4337  0.3741 -0.0156 -0.3455 -0.1041 -0.0247 -0.0998
  16.  C 5 (s)      0.0365  0.0117 -0.0737 -0.0060 -0.0778  0.0793  0.0171 -0.0375
  17.  C 5 (s)      0.0048  0.2434  0.0475  0.0059  1.0700  0.2891 -0.1225  0.1251
  18.  C 5 (px)    -0.2084 -0.1695 -0.1124  0.0864 -0.3591 -0.5105  0.6527  0.0400
  19.  C 5 (py)     0.1662 -0.0328  0.1581  0.1492  0.1986  0.0535  0.0562  0.1897
  20.  C 5 (pz)    -0.1417  0.0363  0.0663 -0.0838 -0.0218  0.0268  0.0894 -0.0524
  21.  C 5 (s)      0.0014 -0.8684  0.7799 -0.1564 -0.3629 -1.7717 -0.1471 -0.0986
  22.  C 5 (px)    -0.1405  0.4658 -0.0575  0.2371  0.9987  1.3535  0.1423  0.1422
  23.  C 5 (py)     0.1126  0.0562 -0.0221  0.1575  0.4104  0.2010  0.2682  0.3375
  24.  C 5 (pz)    -0.0951 -0.8714  0.8871 -0.2443 -0.5175  0.2761  0.2148  0.9576
  25.  H 6 (s)      0.1196 -0.0587 -0.3524  0.1845  0.0284 -0.1657  0.2916 -0.0646
  26.  H 6 (s)      0.1070  0.9838 -0.4643  0.0859  0.6636  1.5567  0.5326 -0.3425
  27.  H 7 (s)      0.1129 -0.0500  0.1136  0.0665 -0.0889 -0.3747  0.4747 -0.2948
  28.  H 7 (s)      0.1003 -0.5362  0.5174 -0.3536 -0.7415  1.3771 -0.1967  1.3396
  29.  H 8 (s)     -0.2221  0.0434 -0.2578  0.0978 -0.1519 -0.0103 -0.1225 -0.1107
  30.  H 8 (s)     -0.1996  0.0441 -0.2463  0.1630  0.4027  0.1002 -0.0149  0.1045

           AO         17      18      19      20      21      22      23      24
      ------------ ------- ------- ------- ------- ------- ------- ------- -------
   1.  C 1 (s)     -0.0118  0.0019  0.0704  0.0122 -0.0709  0.0106  0.0407  0.0067
   2.  C 1 (s)     -0.4135 -0.0099  0.2513  0.3053 -0.4861  0.0999 -0.2276 -0.4004
   3.  C 1 (px)    -0.1183  0.0420 -0.3057  0.2965  0.3694 -0.2025 -0.2130  0.1576
   4.  C 1 (py)     0.4281 -0.0814  0.0137  0.0555  0.0135 -0.2969 -0.0302 -0.5617
   5.  C 1 (pz)     0.4457  0.2357  0.3393 -0.2488  0.0507 -0.1520 -0.3518  0.4229
   6.  C 1 (s)      0.1723 -0.0220 -1.1126 -0.4584  2.0775 -0.4590 -0.3053  0.1531
   7.  C 1 (px)     0.1716 -0.3737  0.8730  0.2074 -1.8782  0.2006  0.7630  0.2542
   8.  C 1 (py)    -1.0262  0.2696 -0.1216  0.2544 -0.7071  0.1495 -0.2087  0.6255
   9.  C 1 (pz)    -0.9106 -0.2572 -1.1769 -0.5151 -0.3368 -0.1224 -0.0709 -0.1514
  10.  H 2 (s)     -0.1945 -0.0114  0.1598  0.8905 -0.1976  0.1430  0.1691 -0.3286
  11.  H 2 (s)      0.6701 -0.0099  1.1536 -0.1453 -0.1564 -0.0304  0.2656  0.2321
  12.  H 3 (s)     -0.3742  0.1427  0.4087 -0.7082 -0.4537  0.0258 -0.3659 -0.5606
  13.  H 3 (s)      0.1917  0.3136 -1.0077  0.1933  1.3970 -0.1392  0.0501  0.3427
  14.  H 4 (s)     -0.0902 -0.3121  0.0781  0.0305 -0.1297 -0.5676  0.4550  0.2201
  15.  H 4 (s)      0.4225 -0.1166  0.5866 -0.2176 -0.5235  1.0635  0.0007 -0.2994
  16.  C 5 (s)      0.0025  0.0098 -0.0281  0.0125  0.0578  0.0166 -0.0387 -0.0288
  17.  C 5 (s)     -0.4217 -0.0486  0.0704 -0.0435  0.7313  0.1217  0.3436 -0.1545
  18.  C 5 (px)    -0.4055 -0.0319  0.0119 -0.0678 -0.1258  0.1546 -0.1188  0.3111
  19.  C 5 (py)     0.0241  0.1659  0.3799  0.3215  0.3638  0.0016 -0.4068 -0.2824
  20.  C 5 (pz)    -0.2791 -0.1467 -0.3353 -0.0559 -0.0613 -0.5673  0.1152 -0.0250
  21.  C 5 (s)      0.1399 -0.2688  0.5827 -0.1245 -2.2286 -0.3112 -0.0953  0.6413
  22.  C 5 (px)    -0.5518 -0.1816  0.1865  0.2516  0.2915  0.1876 -0.1574 -0.2328
  23.  C 5 (py)    -0.0284  0.1007 -0.6374  0.0175 -2.1947 -0.4852  0.2651  0.4819
  24.  C 5 (pz)     0.2598 -0.1080  0.9974  0.0448 -0.0275  0.8022  0.5544 -0.2918
  25.  H 6 (s)      0.0481 -0.9510 -0.0518 -0.0444  0.1723  0.2069 -0.7076 -0.0176
  26.  H 6 (s)     -0.9227  1.0633  0.0631  0.5093  0.4326  0.0375  0.4079  0.0156
  27.  H 7 (s)      0.0491  0.2548 -0.1328 -0.1197  0.1897  0.0405  0.3790 -0.5808
  28.  H 7 (s)     -0.1923 -0.6494  0.6170 -0.0339  0.2927  0.2579  0.0921  0.0622
  29.  H 8 (s)      0.0679  0.2922  0.5911  0.0974  0.1644 -0.7305 -0.2733  0.0727
  30.  H 8 (s)      0.3286  0.2535 -1.6100  0.1740 -1.3201  0.3136 -0.2017 -0.0487

           AO         25      26      27      28      29      30
      ------------ ------- ------- ------- ------- ------- -------
   1.  C 1 (s)      0.0188  0.0306 -0.0189  0.0510  0.0231  0.1610
   2.  C 1 (s)     -0.0862  0.2322  0.2792 -0.0064  0.6705  1.9479
   3.  C 1 (px)    -0.1225  0.0799  0.2840  0.0706 -0.0085  0.1690
   4.  C 1 (py)    -0.6088 -0.0656 -0.3181 -0.1191  0.0838  0.0158
   5.  C 1 (pz)     0.0573  0.2264  0.3374  0.5198 -0.0079 -0.0401
   6.  C 1 (s)      0.0119 -0.9406 -0.2711 -0.0769 -0.6800 -5.7765
   7.  C 1 (px)     0.3838 -0.4680 -0.5878 -0.2990 -0.0402 -0.3479
   8.  C 1 (py)     0.5590 -0.1392  0.6950  0.1761 -1.1014  0.7269
   9.  C 1 (pz)     0.1712 -0.8085 -0.7599 -1.2222 -0.2319  0.5674
  10.  H 2 (s)     -0.1022  0.2654  0.1611  0.0421 -0.1575  0.1712
  11.  H 2 (s)     -0.1308  0.6915  0.1958  1.0714  0.5921  0.6822
  12.  H 3 (s)     -0.1270  0.1100  0.1346  0.3695 -0.1496  0.1078
  13.  H 3 (s)      0.0332  0.1900  0.1164 -0.3527  0.5297  1.8174
  14.  H 4 (s)      0.3540 -0.5603  0.4518  0.4812  0.1445  0.2991
  15.  H 4 (s)     -0.0894  0.6910 -1.2359 -0.7935  0.5944  0.5995
  16.  C 5 (s)      0.0919  0.0489  0.0476 -0.0491  0.0835 -0.1149
  17.  C 5 (s)     -0.1680  0.6010  0.4688 -0.3031  1.4805 -1.0798
  18.  C 5 (px)    -0.1770 -0.1504 -0.0691  0.1335  0.5118 -0.0065
  19.  C 5 (py)     0.4450 -0.3691 -0.5162  0.2601  0.1847  0.0725
  20.  C 5 (pz)     0.2149  0.6723 -0.5531  0.3875 -0.0175 -0.0167
  21.  C 5 (s)     -0.2012 -1.4844 -1.3400  0.6753 -3.4198  3.9034
  22.  C 5 (px)     0.1708  0.4052  0.3508 -0.1677 -1.5897  0.6535
  23.  C 5 (py)     0.0070  0.2429  0.7394 -0.7363  0.0855  0.6542
  24.  C 5 (pz)     0.1562 -0.5203  1.1032 -0.4246  0.0094  0.4324
  25.  H 6 (s)      0.2520  0.1732  0.2491 -0.1955  0.1192 -0.1593
  26.  H 6 (s)      0.0190  0.4453  0.1457 -0.0692 -0.4998 -0.4889
  27.  H 7 (s)      0.7749  0.4486  0.2397 -0.0418 -0.0417 -0.1906
  28.  H 7 (s)     -0.1561 -0.2300  0.6933 -0.5542  0.9180 -0.3117
  29.  H 8 (s)      0.3099  0.0173 -0.0379 -0.7771  0.1842 -0.2093
  30.  H 8 (s)      0.2392  0.3302  0.5322  0.3804  1.3495 -0.6351


 AO overlap matrix:

           AO          1       2       3       4       5       6       7       8
      ------------ ------- ------- ------- ------- ------- ------- ------- -------
   1.  C 1 (s)      1.0000  0.1903  0.0000  0.0000  0.0000  0.1846  0.0000  0.0000
   2.  C 1 (s)      0.1903  1.0000  0.0000  0.0000  0.0000  0.8114  0.0000  0.0000
   3.  C 1 (px)     0.0000  0.0000  1.0000  0.0000  0.0000  0.0000  0.5686  0.0000
   4.  C 1 (py)     0.0000  0.0000  0.0000  1.0000  0.0000  0.0000  0.0000  0.5686
   5.  C 1 (pz)     0.0000  0.0000  0.0000  0.0000  1.0000  0.0000  0.0000  0.0000
   6.  C 1 (s)      0.1846  0.8114  0.0000  0.0000  0.0000  1.0000  0.0000  0.0000
   7.  C 1 (px)     0.0000  0.0000  0.5686  0.0000  0.0000  0.0000  1.0000  0.0000
   8.  C 1 (py)     0.0000  0.0000  0.0000  0.5686  0.0000  0.0000  0.0000  1.0000
   9.  C 1 (pz)     0.0000  0.0000  0.0000  0.0000  0.5686  0.0000  0.0000  0.0000
  10.  H 2 (s)      0.0307  0.2621  0.0039  0.0067  0.3503  0.3778  0.0058  0.0100
  11.  H 2 (s)      0.0872  0.4571  0.0027  0.0047  0.2464  0.6944  0.0063  0.0109
  12.  H 3 (s)      0.0307  0.2621  0.3316  0.0067 -0.1131  0.3778  0.4992  0.0100
  13.  H 3 (s)      0.0872  0.4571  0.2333  0.0047 -0.0796  0.6944  0.5404  0.0109
  14.  H 4 (s)      0.0307  0.2621 -0.1600  0.2905 -0.1131  0.3778 -0.2409  0.4373
  15.  H 4 (s)      0.0872  0.4571 -0.1126  0.2044 -0.0796  0.6944 -0.2608  0.4735
  16.  C 5 (s)      0.0000  0.0049 -0.0060 -0.0104 -0.0043  0.0413 -0.0468 -0.0811
  17.  C 5 (s)      0.0049  0.1007 -0.0749 -0.1297 -0.0529  0.2545 -0.2243 -0.3884
  18.  C 5 (px)     0.0060  0.0749 -0.0105 -0.1062 -0.0434  0.0990  0.0779 -0.1575
  19.  C 5 (py)     0.0104  0.1297 -0.1062 -0.1331 -0.0751  0.1715 -0.1575 -0.1040
  20.  C 5 (pz)     0.0043  0.0529 -0.0434 -0.0751  0.0202  0.0700 -0.0643 -0.1113
  21.  C 5 (s)      0.0413  0.2545 -0.0990 -0.1715 -0.0700  0.4607 -0.2704 -0.4683
  22.  C 5 (px)     0.0468  0.2243  0.0779 -0.1575 -0.0643  0.2704  0.3021 -0.2748
  23.  C 5 (py)     0.0811  0.3884 -0.1575 -0.1040 -0.1113  0.4683 -0.2748 -0.0153
  24.  C 5 (pz)     0.0331  0.1586 -0.0643 -0.1113  0.1233  0.1912 -0.1122 -0.1943
  25.  H 6 (s)      0.0000  0.0051 -0.0089 -0.0064 -0.0008  0.0600 -0.1344 -0.0978
  26.  H 6 (s)      0.0120  0.0939 -0.0772 -0.0562 -0.0071  0.2341 -0.3107 -0.2262
  27.  H 7 (s)      0.0000  0.0051 -0.0037 -0.0064 -0.0081  0.0600 -0.0565 -0.0978
  28.  H 7 (s)      0.0120  0.0939 -0.0325 -0.0562 -0.0704  0.2341 -0.1306 -0.2262
  29.  H 8 (s)      0.0000  0.0051 -0.0012 -0.0109 -0.0008  0.0600 -0.0176 -0.1653
  30.  H 8 (s)      0.0120  0.0939 -0.0101 -0.0950 -0.0071  0.2341 -0.0406 -0.3822

           AO          9      10      11      12      13      14      15      16
      ------------ ------- ------- ------- ------- ------- ------- ------- -------
   1.  C 1 (s)      0.0000  0.0307  0.0872  0.0307  0.0872  0.0307  0.0872  0.0000
   2.  C 1 (s)      0.0000  0.2621  0.4571  0.2621  0.4571  0.2621  0.4571  0.0049
   3.  C 1 (px)     0.0000  0.0039  0.0027  0.3316  0.2333 -0.1600 -0.1126 -0.0060
   4.  C 1 (py)     0.0000  0.0067  0.0047  0.0067  0.0047  0.2905  0.2044 -0.0104
   5.  C 1 (pz)     0.5686  0.3503  0.2464 -0.1131 -0.0796 -0.1131 -0.0796 -0.0043
   6.  C 1 (s)      0.0000  0.3778  0.6944  0.3778  0.6944  0.3778  0.6944  0.0413
   7.  C 1 (px)     0.0000  0.0058  0.0063  0.4992  0.5404 -0.2409 -0.2608 -0.0468
   8.  C 1 (py)     0.0000  0.0100  0.0109  0.0100  0.0109  0.4373  0.4735 -0.0811
   9.  C 1 (pz)     1.0000  0.5274  0.5710 -0.1703 -0.1844 -0.1703 -0.1844 -0.0331
  10.  H 2 (s)      0.5274  1.0000  0.6583  0.0201  0.1544  0.0201  0.1544  0.0000
  11.  H 2 (s)      0.5710  0.6583  1.0000  0.1544  0.4101  0.1544  0.4101  0.0120
  12.  H 3 (s)     -0.1703  0.0201  0.1544  1.0000  0.6583  0.0201  0.1544  0.0000
  13.  H 3 (s)     -0.1844  0.1544  0.4101  0.6583  1.0000  0.1544  0.4101  0.0120
  14.  H 4 (s)     -0.1703  0.0201  0.1544  0.0201  0.1544  1.0000  0.6583  0.0000
  15.  H 4 (s)     -0.1844  0.1544  0.4101  0.1544  0.4101  0.6583  1.0000  0.0120
  16.  C 5 (s)     -0.0331  0.0000  0.0120  0.0000  0.0120  0.0000  0.0120  1.0000
  17.  C 5 (s)     -0.1586  0.0051  0.0939  0.0051  0.0939  0.0051  0.0939  0.1903
  18.  C 5 (px)    -0.0643  0.0037  0.0325  0.0089  0.0772  0.0012  0.0101  0.0000
  19.  C 5 (py)    -0.1113  0.0064  0.0562  0.0064  0.0562  0.0109  0.0950  0.0000
  20.  C 5 (pz)     0.1233  0.0081  0.0704  0.0008  0.0071  0.0008  0.0071  0.0000
  21.  C 5 (s)     -0.1912  0.0600  0.2341  0.0600  0.2341  0.0600  0.2341  0.1846
  22.  C 5 (px)    -0.1122  0.0565  0.1306  0.1344  0.3107  0.0176  0.0406  0.0000
  23.  C 5 (py)    -0.1943  0.0978  0.2262  0.0978  0.2262  0.1653  0.3822  0.0000
  24.  C 5 (pz)     0.3814  0.1225  0.2834  0.0124  0.0287  0.0124  0.0287  0.0000
  25.  H 6 (s)     -0.0124  0.0005  0.0338  0.0000  0.0080  0.0005  0.0338  0.0307
  26.  H 6 (s)     -0.0287  0.0338  0.1606  0.0080  0.0658  0.0338  0.1606  0.0872
  27.  H 7 (s)     -0.1225  0.0000  0.0080  0.0005  0.0338  0.0005  0.0338  0.0307
  28.  H 7 (s)     -0.2834  0.0080  0.0658  0.0338  0.1606  0.0338  0.1606  0.0872
  29.  H 8 (s)     -0.0124  0.0005  0.0338  0.0005  0.0338  0.0000  0.0080  0.0307
  30.  H 8 (s)     -0.0287  0.0338  0.1606  0.0338  0.1606  0.0080  0.0658  0.0872

           AO         17      18      19      20      21      22      23      24
      ------------ ------- ------- ------- ------- ------- ------- ------- -------
   1.  C 1 (s)      0.0049  0.0060  0.0104  0.0043  0.0413  0.0468  0.0811  0.0331
   2.  C 1 (s)      0.1007  0.0749  0.1297  0.0529  0.2545  0.2243  0.3884  0.1586
   3.  C 1 (px)    -0.0749 -0.0105 -0.1062 -0.0434 -0.0990  0.0779 -0.1575 -0.0643
   4.  C 1 (py)    -0.1297 -0.1062 -0.1331 -0.0751 -0.1715 -0.1575 -0.1040 -0.1113
   5.  C 1 (pz)    -0.0529 -0.0434 -0.0751  0.0202 -0.0700 -0.0643 -0.1113  0.1233
   6.  C 1 (s)      0.2545  0.0990  0.1715  0.0700  0.4607  0.2704  0.4683  0.1912
   7.  C 1 (px)    -0.2243  0.0779 -0.1575 -0.0643 -0.2704  0.3021 -0.2748 -0.1122
   8.  C 1 (py)    -0.3884 -0.1575 -0.1040 -0.1113 -0.4683 -0.2748 -0.0153 -0.1943
   9.  C 1 (pz)    -0.1586 -0.0643 -0.1113  0.1233 -0.1912 -0.1122 -0.1943  0.3814
  10.  H 2 (s)      0.0051  0.0037  0.0064  0.0081  0.0600  0.0565  0.0978  0.1225
  11.  H 2 (s)      0.0939  0.0325  0.0562  0.0704  0.2341  0.1306  0.2262  0.2834
  12.  H 3 (s)      0.0051  0.0089  0.0064  0.0008  0.0600  0.1344  0.0978  0.0124
  13.  H 3 (s)      0.0939  0.0772  0.0562  0.0071  0.2341  0.3107  0.2262  0.0287
  14.  H 4 (s)      0.0051  0.0012  0.0109  0.0008  0.0600  0.0176  0.1653  0.0124
  15.  H 4 (s)      0.0939  0.0101  0.0950  0.0071  0.2341  0.0406  0.3822  0.0287
  16.  C 5 (s)      0.1903  0.0000  0.0000  0.0000  0.1846  0.0000  0.0000  0.0000
  17.  C 5 (s)      1.0000  0.0000  0.0000  0.0000  0.8114  0.0000  0.0000  0.0000
  18.  C 5 (px)     0.0000  1.0000  0.0000  0.0000  0.0000  0.5686  0.0000  0.0000
  19.  C 5 (py)     0.0000  0.0000  1.0000  0.0000  0.0000  0.0000  0.5686  0.0000
  20.  C 5 (pz)     0.0000  0.0000  0.0000  1.0000  0.0000  0.0000  0.0000  0.5686
  21.  C 5 (s)      0.8114  0.0000  0.0000  0.0000  1.0000  0.0000  0.0000  0.0000
  22.  C 5 (px)     0.0000  0.5686  0.0000  0.0000  0.0000  1.0000  0.0000  0.0000
  23.  C 5 (py)     0.0000  0.0000  0.5686  0.0000  0.0000  0.0000  1.0000  0.0000
  24.  C 5 (pz)     0.0000  0.0000  0.0000  0.5686  0.0000  0.0000  0.0000  1.0000
  25.  H 6 (s)      0.2621 -0.3316 -0.0067  0.1131  0.3778 -0.4992 -0.0100  0.1703
  26.  H 6 (s)      0.4571 -0.2333 -0.0047  0.0796  0.6944 -0.5404 -0.0109  0.1844
  27.  H 7 (s)      0.2621 -0.0039 -0.0067 -0.3503  0.3778 -0.0058 -0.0100 -0.5274
  28.  H 7 (s)      0.4571 -0.0027 -0.0047 -0.2464  0.6944 -0.0063 -0.0109 -0.5710
  29.  H 8 (s)      0.2621  0.1600 -0.2905  0.1131  0.3778  0.2409 -0.4373  0.1703
  30.  H 8 (s)      0.4571  0.1126 -0.2044  0.0796  0.6944  0.2608 -0.4735  0.1844

           AO         25      26      27      28      29      30
      ------------ ------- ------- ------- ------- ------- -------
   1.  C 1 (s)      0.0000  0.0120  0.0000  0.0120  0.0000  0.0120
   2.  C 1 (s)      0.0051  0.0939  0.0051  0.0939  0.0051  0.0939
   3.  C 1 (px)    -0.0089 -0.0772 -0.0037 -0.0325 -0.0012 -0.0101
   4.  C 1 (py)    -0.0064 -0.0562 -0.0064 -0.0562 -0.0109 -0.0950
   5.  C 1 (pz)    -0.0008 -0.0071 -0.0081 -0.0704 -0.0008 -0.0071
   6.  C 1 (s)      0.0600  0.2341  0.0600  0.2341  0.0600  0.2341
   7.  C 1 (px)    -0.1344 -0.3107 -0.0565 -0.1306 -0.0176 -0.0406
   8.  C 1 (py)    -0.0978 -0.2262 -0.0978 -0.2262 -0.1653 -0.3822
   9.  C 1 (pz)    -0.0124 -0.0287 -0.1225 -0.2834 -0.0124 -0.0287
  10.  H 2 (s)      0.0005  0.0338  0.0000  0.0080  0.0005  0.0338
  11.  H 2 (s)      0.0338  0.1606  0.0080  0.0658  0.0338  0.1606
  12.  H 3 (s)      0.0000  0.0080  0.0005  0.0338  0.0005  0.0338
  13.  H 3 (s)      0.0080  0.0658  0.0338  0.1606  0.0338  0.1606
  14.  H 4 (s)      0.0005  0.0338  0.0005  0.0338  0.0000  0.0080
  15.  H 4 (s)      0.0338  0.1606  0.0338  0.1606  0.0080  0.0658
  16.  C 5 (s)      0.0307  0.0872  0.0307  0.0872  0.0307  0.0872
  17.  C 5 (s)      0.2621  0.4571  0.2621  0.4571  0.2621  0.4571
  18.  C 5 (px)    -0.3316 -0.2333 -0.0039 -0.0027  0.1600  0.1126
  19.  C 5 (py)    -0.0067 -0.0047 -0.0067 -0.0047 -0.2905 -0.2044
  20.  C 5 (pz)     0.1131  0.0796 -0.3503 -0.2464  0.1131  0.0796
  21.  C 5 (s)      0.3778  0.6944  0.3778  0.6944  0.3778  0.6944
  22.  C 5 (px)    -0.4992 -0.5404 -0.0058 -0.0063  0.2409  0.2608
  23.  C 5 (py)    -0.0100 -0.0109 -0.0100 -0.0109 -0.4373 -0.4735
  24.  C 5 (pz)     0.1703  0.1844 -0.5274 -0.5710  0.1703  0.1844
  25.  H 6 (s)      1.0000  0.6583  0.0201  0.1544  0.0201  0.1544
  26.  H 6 (s)      0.6583  1.0000  0.1544  0.4101  0.1544  0.4101
  27.  H 7 (s)      0.0201  0.1544  1.0000  0.6583  0.0201  0.1544
  28.  H 7 (s)      0.1544  0.4101  0.6583  1.0000  0.1544  0.4101
  29.  H 8 (s)      0.0201  0.1544  0.0201  0.1544  1.0000  0.6583
  30.  H 8 (s)      0.1544  0.4101  0.1544  0.4101  0.6583  1.0000


 AO bond-order matrix:

           AO          1       2       3       4       5       6       7       8
      ------------ ------- ------- ------- ------- ------- ------- ------- -------
   1.  C 1 (s)      2.0517 -0.0032 -0.0007 -0.0013 -0.0005 -0.2738  0.0034  0.0058
   2.  C 1 (s)     -0.0032  0.2002  0.0006  0.0011  0.0004  0.2765 -0.0025 -0.0043
   3.  C 1 (px)    -0.0007  0.0006  0.3394 -0.0055 -0.0023  0.0057  0.2072 -0.0103
   4.  C 1 (py)    -0.0013  0.0011 -0.0055  0.3330 -0.0039  0.0098 -0.0103  0.1953
   5.  C 1 (pz)    -0.0005  0.0004 -0.0023 -0.0039  0.3410  0.0040 -0.0042 -0.0073
   6.  C 1 (s)     -0.2738  0.2765  0.0057  0.0098  0.0040  0.4284 -0.0044 -0.0076
   7.  C 1 (px)     0.0034 -0.0025  0.2072 -0.0103 -0.0042 -0.0044  0.1285 -0.0091
   8.  C 1 (py)     0.0058 -0.0043 -0.0103  0.1953 -0.0073 -0.0076 -0.0091  0.1180
   9.  C 1 (pz)     0.0024 -0.0017 -0.0042 -0.0073  0.2102 -0.0031 -0.0037 -0.0064
  10.  H 2 (s)     -0.0534  0.0831 -0.0006 -0.0010  0.2509  0.1245 -0.0040 -0.0070
  11.  H 2 (s)      0.0038  0.0199 -0.0011 -0.0019  0.2056  0.0285 -0.0029 -0.0050
  12.  H 3 (s)     -0.0534  0.0831  0.2364 -0.0010 -0.0842  0.1245  0.1445 -0.0070
  13.  H 3 (s)      0.0038  0.0199  0.1935 -0.0019 -0.0696  0.0285  0.1203 -0.0050
  14.  H 4 (s)     -0.0534  0.0831 -0.1191  0.2042 -0.0842  0.1245 -0.0783  0.1217
  15.  H 4 (s)      0.0038  0.0199 -0.0984  0.1666 -0.0696  0.0285 -0.0645  0.1016
  16.  C 5 (s)      0.0097 -0.0207  0.0282  0.0489  0.0200  0.0229  0.0027  0.0047
  17.  C 5 (s)     -0.0207  0.0305 -0.0441 -0.0764 -0.0312  0.0019 -0.0137 -0.0236
  18.  C 5 (px)    -0.0282  0.0441 -0.0590 -0.1058 -0.0432  0.0721 -0.0524 -0.0597
  19.  C 5 (py)    -0.0489  0.0764 -0.1058 -0.1811 -0.0748  0.1248 -0.0597 -0.1213
  20.  C 5 (pz)    -0.0200  0.0312 -0.0432 -0.0748 -0.0285  0.0510 -0.0244 -0.0422
  21.  C 5 (s)      0.0229  0.0019 -0.0721 -0.1248 -0.0510 -0.0677 -0.0226 -0.0391
  22.  C 5 (px)    -0.0027  0.0137 -0.0524 -0.0597 -0.0244  0.0226 -0.0417 -0.0323
  23.  C 5 (py)    -0.0047  0.0236 -0.0597 -0.1213 -0.0422  0.0391 -0.0323 -0.0790
  24.  C 5 (pz)    -0.0019  0.0097 -0.0244 -0.0422 -0.0351  0.0160 -0.0132 -0.0228
  25.  H 6 (s)      0.0071 -0.0116  0.0287  0.0166  0.0000 -0.0400  0.0354  0.0178
  26.  H 6 (s)      0.0100 -0.0144  0.0524  0.0279 -0.0014 -0.0285  0.0433  0.0170
  27.  H 7 (s)      0.0071 -0.0116  0.0096  0.0166  0.0270 -0.0400  0.0103  0.0178
  28.  H 7 (s)      0.0100 -0.0144  0.0161  0.0279  0.0499 -0.0285  0.0098  0.0170
  29.  H 8 (s)      0.0071 -0.0116  0.0000  0.0331  0.0000 -0.0400 -0.0023  0.0395
  30.  H 8 (s)      0.0100 -0.0144 -0.0020  0.0593 -0.0014 -0.0285 -0.0069  0.0459

           AO          9      10      11      12      13      14      15      16
      ------------ ------- ------- ------- ------- ------- ------- ------- -------
   1.  C 1 (s)      0.0024 -0.0534  0.0038 -0.0534  0.0038 -0.0534  0.0038  0.0097
   2.  C 1 (s)     -0.0017  0.0831  0.0199  0.0831  0.0199  0.0831  0.0199 -0.0207
   3.  C 1 (px)    -0.0042 -0.0006 -0.0011  0.2364  0.1935 -0.1191 -0.0984  0.0282
   4.  C 1 (py)    -0.0073 -0.0010 -0.0019 -0.0010 -0.0019  0.2042  0.1666  0.0489
   5.  C 1 (pz)     0.2102  0.2509  0.2056 -0.0842 -0.0696 -0.0842 -0.0696  0.0200
   6.  C 1 (s)     -0.0031  0.1245  0.0285  0.1245  0.0285  0.1245  0.0285  0.0229
   7.  C 1 (px)    -0.0037 -0.0040 -0.0029  0.1445  0.1203 -0.0783 -0.0645  0.0027
   8.  C 1 (py)    -0.0064 -0.0070 -0.0050 -0.0070 -0.0050  0.1217  0.1016  0.0047
   9.  C 1 (pz)     0.1311  0.1547  0.1286 -0.0554 -0.0456 -0.0554 -0.0456  0.0019
  10.  H 2 (s)      0.1547  0.2214  0.1615 -0.0262 -0.0437 -0.0262 -0.0437  0.0071
  11.  H 2 (s)      0.1286  0.1615  0.1300 -0.0437 -0.0419 -0.0437 -0.0419  0.0100
  12.  H 3 (s)     -0.0554 -0.0262 -0.0437  0.2214  0.1615 -0.0262 -0.0437  0.0071
  13.  H 3 (s)     -0.0456 -0.0437 -0.0419  0.1615  0.1300 -0.0437 -0.0419  0.0100
  14.  H 4 (s)     -0.0554 -0.0262 -0.0437 -0.0262 -0.0437  0.2214  0.1615  0.0071
  15.  H 4 (s)     -0.0456 -0.0437 -0.0419 -0.0437 -0.0419  0.1615  0.1300  0.0100
  16.  C 5 (s)      0.0019  0.0071  0.0100  0.0071  0.0100  0.0071  0.0100  2.0517
  17.  C 5 (s)     -0.0097 -0.0116 -0.0144 -0.0116 -0.0144 -0.0116 -0.0144 -0.0032
  18.  C 5 (px)    -0.0244 -0.0096 -0.0161 -0.0287 -0.0524  0.0000  0.0020  0.0007
  19.  C 5 (py)    -0.0422 -0.0166 -0.0279 -0.0166 -0.0279 -0.0331 -0.0593  0.0013
  20.  C 5 (pz)    -0.0351 -0.0270 -0.0499  0.0000  0.0014  0.0000  0.0014  0.0005
  21.  C 5 (s)     -0.0160 -0.0400 -0.0285 -0.0400 -0.0285 -0.0400 -0.0285 -0.2738
  22.  C 5 (px)    -0.0132 -0.0103 -0.0098 -0.0354 -0.0433  0.0023  0.0069 -0.0034
  23.  C 5 (py)    -0.0228 -0.0178 -0.0170 -0.0178 -0.0170 -0.0395 -0.0459 -0.0058
  24.  C 5 (pz)    -0.0324 -0.0339 -0.0424  0.0016  0.0049  0.0016  0.0049 -0.0024
  25.  H 6 (s)     -0.0016 -0.0127 -0.0131  0.0284  0.0420 -0.0127 -0.0131 -0.0534
  26.  H 6 (s)     -0.0049 -0.0131 -0.0125  0.0420  0.0503 -0.0131 -0.0125  0.0038
  27.  H 7 (s)      0.0339  0.0284  0.0420 -0.0127 -0.0131 -0.0127 -0.0131 -0.0534
  28.  H 7 (s)      0.0424  0.0420  0.0503 -0.0131 -0.0125 -0.0131 -0.0125  0.0038
  29.  H 8 (s)     -0.0016 -0.0127 -0.0131 -0.0127 -0.0131  0.0284  0.0420 -0.0534
  30.  H 8 (s)     -0.0049 -0.0131 -0.0125 -0.0131 -0.0125  0.0420  0.0503  0.0038

           AO         17      18      19      20      21      22      23      24
      ------------ ------- ------- ------- ------- ------- ------- ------- -------
   1.  C 1 (s)     -0.0207 -0.0282 -0.0489 -0.0200  0.0229 -0.0027 -0.0047 -0.0019
   2.  C 1 (s)      0.0305  0.0441  0.0764  0.0312  0.0019  0.0137  0.0236  0.0097
   3.  C 1 (px)    -0.0441 -0.0590 -0.1058 -0.0432 -0.0721 -0.0524 -0.0597 -0.0244
   4.  C 1 (py)    -0.0764 -0.1058 -0.1811 -0.0748 -0.1248 -0.0597 -0.1213 -0.0422
   5.  C 1 (pz)    -0.0312 -0.0432 -0.0748 -0.0285 -0.0510 -0.0244 -0.0422 -0.0351
   6.  C 1 (s)      0.0019  0.0721  0.1248  0.0510 -0.0677  0.0226  0.0391  0.0160
   7.  C 1 (px)    -0.0137 -0.0524 -0.0597 -0.0244 -0.0226 -0.0417 -0.0323 -0.0132
   8.  C 1 (py)    -0.0236 -0.0597 -0.1213 -0.0422 -0.0391 -0.0323 -0.0790 -0.0228
   9.  C 1 (pz)    -0.0097 -0.0244 -0.0422 -0.0351 -0.0160 -0.0132 -0.0228 -0.0324
  10.  H 2 (s)     -0.0116 -0.0096 -0.0166 -0.0270 -0.0400 -0.0103 -0.0178 -0.0339
  11.  H 2 (s)     -0.0144 -0.0161 -0.0279 -0.0499 -0.0285 -0.0098 -0.0170 -0.0424
  12.  H 3 (s)     -0.0116 -0.0287 -0.0166  0.0000 -0.0400 -0.0354 -0.0178  0.0016
  13.  H 3 (s)     -0.0144 -0.0524 -0.0279  0.0014 -0.0285 -0.0433 -0.0170  0.0049
  14.  H 4 (s)     -0.0116  0.0000 -0.0331  0.0000 -0.0400  0.0023 -0.0395  0.0016
  15.  H 4 (s)     -0.0144  0.0020 -0.0593  0.0014 -0.0285  0.0069 -0.0459  0.0049
  16.  C 5 (s)     -0.0032  0.0007  0.0013  0.0005 -0.2738 -0.0034 -0.0058 -0.0024
  17.  C 5 (s)      0.2002 -0.0006 -0.0011 -0.0004  0.2765  0.0025  0.0043  0.0017
  18.  C 5 (px)    -0.0006  0.3394 -0.0055 -0.0023 -0.0057  0.2072 -0.0103 -0.0042
  19.  C 5 (py)    -0.0011 -0.0055  0.3330 -0.0039 -0.0098 -0.0103  0.1953 -0.0073
  20.  C 5 (pz)    -0.0004 -0.0023 -0.0039  0.3410 -0.0040 -0.0042 -0.0073  0.2102
  21.  C 5 (s)      0.2765 -0.0057 -0.0098 -0.0040  0.4284  0.0044  0.0076  0.0031
  22.  C 5 (px)     0.0025  0.2072 -0.0103 -0.0042  0.0044  0.1285 -0.0091 -0.0037
  23.  C 5 (py)     0.0043 -0.0103  0.1953 -0.0073  0.0076 -0.0091  0.1180 -0.0064
  24.  C 5 (pz)     0.0017 -0.0042 -0.0073  0.2102  0.0031 -0.0037 -0.0064  0.1311
  25.  H 6 (s)      0.0831 -0.2364  0.0010  0.0842  0.1245 -0.1445  0.0070  0.0554
  26.  H 6 (s)      0.0199 -0.1935  0.0019  0.0696  0.0285 -0.1203  0.0050  0.0456
  27.  H 7 (s)      0.0831  0.0006  0.0010 -0.2509  0.1245  0.0040  0.0070 -0.1547
  28.  H 7 (s)      0.0199  0.0011  0.0019 -0.2056  0.0285  0.0029  0.0050 -0.1286
  29.  H 8 (s)      0.0831  0.1191 -0.2042  0.0842  0.1245  0.0783 -0.1217  0.0554
  30.  H 8 (s)      0.0199  0.0984 -0.1666  0.0696  0.0285  0.0645 -0.1016  0.0456

           AO         25      26      27      28      29      30
      ------------ ------- ------- ------- ------- ------- -------
   1.  C 1 (s)      0.0071  0.0100  0.0071  0.0100  0.0071  0.0100
   2.  C 1 (s)     -0.0116 -0.0144 -0.0116 -0.0144 -0.0116 -0.0144
   3.  C 1 (px)     0.0287  0.0524  0.0096  0.0161  0.0000 -0.0020
   4.  C 1 (py)     0.0166  0.0279  0.0166  0.0279  0.0331  0.0593
   5.  C 1 (pz)     0.0000 -0.0014  0.0270  0.0499  0.0000 -0.0014
   6.  C 1 (s)     -0.0400 -0.0285 -0.0400 -0.0285 -0.0400 -0.0285
   7.  C 1 (px)     0.0354  0.0433  0.0103  0.0098 -0.0023 -0.0069
   8.  C 1 (py)     0.0178  0.0170  0.0178  0.0170  0.0395  0.0459
   9.  C 1 (pz)    -0.0016 -0.0049  0.0339  0.0424 -0.0016 -0.0049
  10.  H 2 (s)     -0.0127 -0.0131  0.0284  0.0420 -0.0127 -0.0131
  11.  H 2 (s)     -0.0131 -0.0125  0.0420  0.0503 -0.0131 -0.0125
  12.  H 3 (s)      0.0284  0.0420 -0.0127 -0.0131 -0.0127 -0.0131
  13.  H 3 (s)      0.0420  0.0503 -0.0131 -0.0125 -0.0131 -0.0125
  14.  H 4 (s)     -0.0127 -0.0131 -0.0127 -0.0131  0.0284  0.0420
  15.  H 4 (s)     -0.0131 -0.0125 -0.0131 -0.0125  0.0420  0.0503
  16.  C 5 (s)     -0.0534  0.0038 -0.0534  0.0038 -0.0534  0.0038
  17.  C 5 (s)      0.0831  0.0199  0.0831  0.0199  0.0831  0.0199
  18.  C 5 (px)    -0.2364 -0.1935  0.0006  0.0011  0.1191  0.0984
  19.  C 5 (py)     0.0010  0.0019  0.0010  0.0019 -0.2042 -0.1666
  20.  C 5 (pz)     0.0842  0.0696 -0.2509 -0.2056  0.0842  0.0696
  21.  C 5 (s)      0.1245  0.0285  0.1245  0.0285  0.1245  0.0285
  22.  C 5 (px)    -0.1445 -0.1203  0.0040  0.0029  0.0783  0.0645
  23.  C 5 (py)     0.0070  0.0050  0.0070  0.0050 -0.1217 -0.1016
  24.  C 5 (pz)     0.0554  0.0456 -0.1547 -0.1286  0.0554  0.0456
  25.  H 6 (s)      0.2214  0.1615 -0.0262 -0.0437 -0.0262 -0.0437
  26.  H 6 (s)      0.1615  0.1300 -0.0437 -0.0419 -0.0437 -0.0419
  27.  H 7 (s)     -0.0262 -0.0437  0.2214  0.1615 -0.0262 -0.0437
  28.  H 7 (s)     -0.0437 -0.0419  0.1615  0.1300 -0.0437 -0.0419
  29.  H 8 (s)     -0.0262 -0.0437 -0.0262 -0.0437  0.2214  0.1615
  30.  H 8 (s)     -0.0437 -0.0419 -0.0437 -0.0419  0.1615  0.1300


 AO density matrix:

           AO          1       2       3       4       5       6       7       8
      ------------ ------- ------- ------- ------- ------- ------- ------- -------
   1.  C 1 (s)      1.9986  0.4068 -0.0003 -0.0006 -0.0002  0.3656 -0.0012 -0.0020
   2.  C 1 (s)      0.4068  1.4907  0.0077  0.0133  0.0054  1.6627  0.0297  0.0514
   3.  C 1 (px)    -0.0003  0.0077  1.2000 -0.0118 -0.0048  0.0226  1.3406 -0.0429
   4.  C 1 (py)    -0.0006  0.0133 -0.0118  1.1864 -0.0083  0.0392 -0.0429  1.2910
   5.  C 1 (pz)    -0.0002  0.0054 -0.0048 -0.0083  1.2034  0.0160 -0.0175 -0.0304
   6.  C 1 (s)      0.3656  1.6627  0.0226  0.0392  0.0160  1.9048  0.0015  0.0026
   7.  C 1 (px)    -0.0012  0.0297  1.3406 -0.0429 -0.0175  0.0015  1.5875 -0.0158
   8.  C 1 (py)    -0.0020  0.0514 -0.0429  1.2910 -0.0304  0.0026 -0.0158  1.5693
   9.  C 1 (pz)    -0.0008  0.0210 -0.0175 -0.0304  1.3530  0.0011 -0.0064 -0.0112
  10.  H 2 (s)      0.0520  0.7196  0.0065  0.0112  1.0860  0.8200  0.0087  0.0150
  11.  H 2 (s)      0.1644  1.1270  0.0172  0.0299  0.8508  1.2931  0.0032  0.0056
  12.  H 3 (s)      0.0520  0.7196  1.0261  0.0112 -0.3559  0.8200  1.1412  0.0150
  13.  H 3 (s)      0.1644  1.1270  0.8079  0.0299 -0.2673  1.2931  0.9029  0.0056
  14.  H 4 (s)      0.0520  0.7196 -0.5033  0.8942 -0.3559  0.8200 -0.5576  0.9958
  15.  H 4 (s)      0.1644  1.1270 -0.3781  0.7146 -0.2673  1.2931 -0.4466  0.7847
  16.  C 5 (s)      0.0002  0.0050 -0.0070 -0.0122 -0.0050  0.0792 -0.0903 -0.1564
  17.  C 5 (s)      0.0050  0.3139 -0.2633 -0.4560 -0.1862  0.5685 -0.5118 -0.8865
  18.  C 5 (px)     0.0070  0.2633 -0.0892 -0.3902 -0.1593  0.2333  0.1636 -0.4140
  19.  C 5 (py)     0.0122  0.4560 -0.3902 -0.5398 -0.2759  0.4041 -0.4140 -0.3144
  20.  C 5 (pz)     0.0050  0.1862 -0.1593 -0.2759  0.0234  0.1650 -0.1690 -0.2927
  21.  C 5 (s)      0.0792  0.5685 -0.2333 -0.4041 -0.1650  0.8833 -0.5064 -0.8772
  22.  C 5 (px)     0.0903  0.5118  0.1636 -0.4140 -0.1690  0.5064  0.4769 -0.4401
  23.  C 5 (py)     0.1564  0.8865 -0.4140 -0.3144 -0.2927  0.8772 -0.4401 -0.0313
  24.  C 5 (pz)     0.0639  0.3619 -0.1690 -0.2927  0.2831  0.3581 -0.1797 -0.3112
  25.  H 6 (s)      0.0011 -0.0104 -0.0126  0.0026  0.0061  0.1319 -0.3391 -0.1916
  26.  H 6 (s)      0.0228  0.2076 -0.1653 -0.0895  0.0036  0.4301 -0.5211 -0.3988
  27.  H 7 (s)      0.0011 -0.0104  0.0015  0.0026 -0.0139  0.1319 -0.1106 -0.1916
  28.  H 7 (s)      0.0228  0.2076 -0.0517 -0.0895 -0.1570  0.4301 -0.2302 -0.3988
  29.  H 8 (s)      0.0011 -0.0104  0.0086 -0.0096  0.0061  0.1319  0.0036 -0.3894
  30.  H 8 (s)      0.0228  0.2076  0.0052 -0.1879  0.0036  0.4301 -0.0848 -0.6507

           AO          9      10      11      12      13      14      15      16
      ------------ ------- ------- ------- ------- ------- ------- ------- -------
   1.  C 1 (s)     -0.0008  0.0520  0.1644  0.0520  0.1644  0.0520  0.1644  0.0002
   2.  C 1 (s)      0.0210  0.7196  1.1270  0.7196  1.1270  0.7196  1.1270  0.0050
   3.  C 1 (px)    -0.0175  0.0065  0.0172  1.0261  0.8079 -0.5033 -0.3781 -0.0070
   4.  C 1 (py)    -0.0304  0.0112  0.0299  0.0112  0.0299  0.8942  0.7146 -0.0122
   5.  C 1 (pz)     1.3530  1.0860  0.8508 -0.3559 -0.2673 -0.3559 -0.2673 -0.0050
   6.  C 1 (s)      0.0011  0.8200  1.2931  0.8200  1.2931  0.8200  1.2931  0.0792
   7.  C 1 (px)    -0.0064  0.0087  0.0032  1.1412  0.9029 -0.5576 -0.4466 -0.0903
   8.  C 1 (py)    -0.0112  0.0150  0.0056  0.0150  0.0056  0.9958  0.7847 -0.1564
   9.  C 1 (pz)     1.5921  1.2074  0.9565 -0.3943 -0.3158 -0.3943 -0.3158 -0.0639
  10.  H 2 (s)      1.2074  1.3423  1.3160  0.0374  0.3171  0.0374  0.3171  0.0011
  11.  H 2 (s)      0.9565  1.3160  1.4702  0.3171  0.6924  0.3171  0.6924  0.0228
  12.  H 3 (s)     -0.3943  0.0374  0.3171  1.3423  1.3160  0.0374  0.3171  0.0011
  13.  H 3 (s)     -0.3158  0.3171  0.6924  1.3160  1.4702  0.3171  0.6924  0.0228
  14.  H 4 (s)     -0.3943  0.0374  0.3171  0.0374  0.3171  1.3423  1.3160  0.0011
  15.  H 4 (s)     -0.3158  0.3171  0.6924  0.3171  0.6924  1.3160  1.4702  0.0228
  16.  C 5 (s)     -0.0639  0.0011  0.0228  0.0011  0.0228  0.0011  0.0228  1.9986
  17.  C 5 (s)     -0.3619 -0.0104  0.2076 -0.0104  0.2076 -0.0104  0.2076  0.4068
  18.  C 5 (px)    -0.1690 -0.0015  0.0517  0.0126  0.1653 -0.0086 -0.0052  0.0003
  19.  C 5 (py)    -0.2927 -0.0026  0.0895 -0.0026  0.0895  0.0096  0.1879  0.0006
  20.  C 5 (pz)     0.2831  0.0139  0.1570 -0.0061 -0.0036 -0.0061 -0.0036  0.0002
  21.  C 5 (s)     -0.3581  0.1319  0.4301  0.1319  0.4301  0.1319  0.4301  0.3656
  22.  C 5 (px)    -0.1797  0.1106  0.2302  0.3391  0.5211 -0.0036  0.0848  0.0012
  23.  C 5 (py)    -0.3112  0.1916  0.3988  0.1916  0.3988  0.3894  0.6507  0.0020
  24.  C 5 (pz)     0.6039  0.3205  0.4713 -0.0026  0.0600 -0.0026  0.0600  0.0008
  25.  H 6 (s)      0.0026 -0.0388  0.0764  0.0725  0.0311 -0.0388  0.0764  0.0520
  26.  H 6 (s)     -0.0600  0.0764  0.2626  0.0311  0.1269  0.0764  0.2626  0.1644
  27.  H 7 (s)     -0.3205  0.0725  0.0311 -0.0388  0.0764 -0.0388  0.0764  0.0520
  28.  H 7 (s)     -0.4713  0.0311  0.1269  0.0764  0.2626  0.0764  0.2626  0.1644
  29.  H 8 (s)      0.0026 -0.0388  0.0764 -0.0388  0.0764  0.0725  0.0311  0.0520
  30.  H 8 (s)     -0.0600  0.0764  0.2626  0.0764  0.2626  0.0311  0.1269  0.1644

           AO         17      18      19      20      21      22      23      24
      ------------ ------- ------- ------- ------- ------- ------- ------- -------
   1.  C 1 (s)      0.0050  0.0070  0.0122  0.0050  0.0792  0.0903  0.1564  0.0639
   2.  C 1 (s)      0.3139  0.2633  0.4560  0.1862  0.5685  0.5118  0.8865  0.3619
   3.  C 1 (px)    -0.2633 -0.0892 -0.3902 -0.1593 -0.2333  0.1636 -0.4140 -0.1690
   4.  C 1 (py)    -0.4560 -0.3902 -0.5398 -0.2759 -0.4041 -0.4140 -0.3144 -0.2927
   5.  C 1 (pz)    -0.1862 -0.1593 -0.2759  0.0234 -0.1650 -0.1690 -0.2927  0.2831
   6.  C 1 (s)      0.5685  0.2333  0.4041  0.1650  0.8833  0.5064  0.8772  0.3581
   7.  C 1 (px)    -0.5118  0.1636 -0.4140 -0.1690 -0.5064  0.4769 -0.4401 -0.1797
   8.  C 1 (py)    -0.8865 -0.4140 -0.3144 -0.2927 -0.8772 -0.4401 -0.0313 -0.3112
   9.  C 1 (pz)    -0.3619 -0.1690 -0.2927  0.2831 -0.3581 -0.1797 -0.3112  0.6039
  10.  H 2 (s)     -0.0104 -0.0015 -0.0026  0.0139  0.1319  0.1106  0.1916  0.3205
  11.  H 2 (s)      0.2076  0.0517  0.0895  0.1570  0.4301  0.2302  0.3988  0.4713
  12.  H 3 (s)     -0.0104  0.0126 -0.0026 -0.0061  0.1319  0.3391  0.1916 -0.0026
  13.  H 3 (s)      0.2076  0.1653  0.0895 -0.0036  0.4301  0.5211  0.3988  0.0600
  14.  H 4 (s)     -0.0104 -0.0086  0.0096 -0.0061  0.1319 -0.0036  0.3894 -0.0026
  15.  H 4 (s)      0.2076 -0.0052  0.1879 -0.0036  0.4301  0.0848  0.6507  0.0600
  16.  C 5 (s)      0.4068  0.0003  0.0006  0.0002  0.3656  0.0012  0.0020  0.0008
  17.  C 5 (s)      1.4907 -0.0077 -0.0133 -0.0054  1.6627 -0.0297 -0.0514 -0.0210
  18.  C 5 (px)    -0.0077  1.2000 -0.0118 -0.0048 -0.0226  1.3406 -0.0429 -0.0175
  19.  C 5 (py)    -0.0133 -0.0118  1.1864 -0.0083 -0.0392 -0.0429  1.2910 -0.0304
  20.  C 5 (pz)    -0.0054 -0.0048 -0.0083  1.2034 -0.0160 -0.0175 -0.0304  1.3530
  21.  C 5 (s)      1.6627 -0.0226 -0.0392 -0.0160  1.9048 -0.0015 -0.0026 -0.0011
  22.  C 5 (px)    -0.0297  1.3406 -0.0429 -0.0175 -0.0015  1.5875 -0.0158 -0.0064
  23.  C 5 (py)    -0.0514 -0.0429  1.2910 -0.0304 -0.0026 -0.0158  1.5693 -0.0112
  24.  C 5 (pz)    -0.0210 -0.0175 -0.0304  1.3530 -0.0011 -0.0064 -0.0112  1.5921
  25.  H 6 (s)      0.7196 -1.0261 -0.0112  0.3559  0.8200 -1.1412 -0.0150  0.3943
  26.  H 6 (s)      1.1270 -0.8079 -0.0299  0.2673  1.2931 -0.9029 -0.0056  0.3158
  27.  H 7 (s)      0.7196 -0.0065 -0.0112 -1.0860  0.8200 -0.0087 -0.0150 -1.2074
  28.  H 7 (s)      1.1270 -0.0172 -0.0299 -0.8508  1.2931 -0.0032 -0.0056 -0.9565
  29.  H 8 (s)      0.7196  0.5033 -0.8942  0.3559  0.8200  0.5576 -0.9958  0.3943
  30.  H 8 (s)      1.1270  0.3781 -0.7146  0.2673  1.2931  0.4466 -0.7847  0.3158

           AO         25      26      27      28      29      30
      ------------ ------- ------- ------- ------- ------- -------
   1.  C 1 (s)      0.0011  0.0228  0.0011  0.0228  0.0011  0.0228
   2.  C 1 (s)     -0.0104  0.2076 -0.0104  0.2076 -0.0104  0.2076
   3.  C 1 (px)    -0.0126 -0.1653  0.0015 -0.0517  0.0086  0.0052
   4.  C 1 (py)     0.0026 -0.0895  0.0026 -0.0895 -0.0096 -0.1879
   5.  C 1 (pz)     0.0061  0.0036 -0.0139 -0.1570  0.0061  0.0036
   6.  C 1 (s)      0.1319  0.4301  0.1319  0.4301  0.1319  0.4301
   7.  C 1 (px)    -0.3391 -0.5211 -0.1106 -0.2302  0.0036 -0.0848
   8.  C 1 (py)    -0.1916 -0.3988 -0.1916 -0.3988 -0.3894 -0.6507
   9.  C 1 (pz)     0.0026 -0.0600 -0.3205 -0.4713  0.0026 -0.0600
  10.  H 2 (s)     -0.0388  0.0764  0.0725  0.0311 -0.0388  0.0764
  11.  H 2 (s)      0.0764  0.2626  0.0311  0.1269  0.0764  0.2626
  12.  H 3 (s)      0.0725  0.0311 -0.0388  0.0764 -0.0388  0.0764
  13.  H 3 (s)      0.0311  0.1269  0.0764  0.2626  0.0764  0.2626
  14.  H 4 (s)     -0.0388  0.0764 -0.0388  0.0764  0.0725  0.0311
  15.  H 4 (s)      0.0764  0.2626  0.0764  0.2626  0.0311  0.1269
  16.  C 5 (s)      0.0520  0.1644  0.0520  0.1644  0.0520  0.1644
  17.  C 5 (s)      0.7196  1.1270  0.7196  1.1270  0.7196  1.1270
  18.  C 5 (px)    -1.0261 -0.8079 -0.0065 -0.0172  0.5033  0.3781
  19.  C 5 (py)    -0.0112 -0.0299 -0.0112 -0.0299 -0.8942 -0.7146
  20.  C 5 (pz)     0.3559  0.2673 -1.0860 -0.8508  0.3559  0.2673
  21.  C 5 (s)      0.8200  1.2931  0.8200  1.2931  0.8200  1.2931
  22.  C 5 (px)    -1.1412 -0.9029 -0.0087 -0.0032  0.5576  0.4466
  23.  C 5 (py)    -0.0150 -0.0056 -0.0150 -0.0056 -0.9958 -0.7847
  24.  C 5 (pz)     0.3943  0.3158 -1.2074 -0.9565  0.3943  0.3158
  25.  H 6 (s)      1.3423  1.3160  0.0374  0.3171  0.0374  0.3171
  26.  H 6 (s)      1.3160  1.4702  0.3171  0.6924  0.3171  0.6924
  27.  H 7 (s)      0.0374  0.3171  1.3423  1.3160  0.0374  0.3171
  28.  H 7 (s)      0.3171  0.6924  1.3160  1.4702  0.3171  0.6924
  29.  H 8 (s)      0.0374  0.3171  0.0374  0.3171  1.3423  1.3160
  30.  H 8 (s)      0.3171  0.6924  0.3171  0.6924  1.3160  1.4702


 MO density matrix:

      MO     1       2       3       4       5       6       7       8       9
     ---- ------  ------  ------  ------  ------  ------  ------  ------  ------
   1.     2.0000  0.0000  0.0000  0.0000  0.0000  0.0000  0.0000  0.0000  0.0000
   2.     0.0000  2.0000  0.0000  0.0000  0.0000  0.0000  0.0000  0.0000  0.0000
   3.     0.0000  0.0000  2.0000  0.0000  0.0000  0.0000  0.0000  0.0000  0.0000
   4.     0.0000  0.0000  0.0000  2.0000  0.0000  0.0000  0.0000  0.0000  0.0000
   5.     0.0000  0.0000  0.0000  0.0000  2.0000  0.0000  0.0000  0.0000  0.0000
   6.     0.0000  0.0000  0.0000  0.0000  0.0000  2.0000  0.0000  0.0000  0.0000
   7.     0.0000  0.0000  0.0000  0.0000  0.0000  0.0000  2.0000  0.0000  0.0000
   8.     0.0000  0.0000  0.0000  0.0000  0.0000  0.0000  0.0000  2.0000  0.0000
   9.     0.0000  0.0000  0.0000  0.0000  0.0000  0.0000  0.0000  0.0000  2.0000
  10.     0.0000  0.0000  0.0000  0.0000  0.0000  0.0000  0.0000  0.0000  0.0000
  11.     0.0000  0.0000  0.0000  0.0000  0.0000  0.0000  0.0000  0.0000  0.0000
  12.     0.0000  0.0000  0.0000  0.0000  0.0000  0.0000  0.0000  0.0000  0.0000
  13.     0.0000  0.0000  0.0000  0.0000  0.0000  0.0000  0.0000  0.0000  0.0000
  14.     0.0000  0.0000  0.0000  0.0000  0.0000  0.0000  0.0000  0.0000  0.0000
  15.     0.0000  0.0000  0.0000  0.0000  0.0000  0.0000  0.0000  0.0000  0.0000
  16.     0.0000  0.0000  0.0000  0.0000  0.0000  0.0000  0.0000  0.0000  0.0000
  17.     0.0000  0.0000  0.0000  0.0000  0.0000  0.0000  0.0000  0.0000  0.0000
  18.     0.0000  0.0000  0.0000  0.0000  0.0000  0.0000  0.0000  0.0000  0.0000
  19.     0.0000  0.0000  0.0000  0.0000  0.0000  0.0000  0.0000  0.0000  0.0000
  20.     0.0000  0.0000  0.0000  0.0000  0.0000  0.0000  0.0000  0.0000  0.0000
  21.     0.0000  0.0000  0.0000  0.0000  0.0000  0.0000  0.0000  0.0000  0.0000
  22.     0.0000  0.0000  0.0000  0.0000  0.0000  0.0000  0.0000  0.0000  0.0000
  23.     0.0000  0.0000  0.0000  0.0000  0.0000  0.0000  0.0000  0.0000  0.0000
  24.     0.0000  0.0000  0.0000  0.0000  0.0000  0.0000  0.0000  0.0000  0.0000
  25.     0.0000  0.0000  0.0000  0.0000  0.0000  0.0000  0.0000  0.0000  0.0000
  26.     0.0000  0.0000  0.0000  0.0000  0.0000  0.0000  0.0000  0.0000  0.0000
  27.     0.0000  0.0000  0.0000  0.0000  0.0000  0.0000  0.0000  0.0000  0.0000
  28.     0.0000  0.0000  0.0000  0.0000  0.0000  0.0000  0.0000  0.0000  0.0000
  29.     0.0000  0.0000  0.0000  0.0000  0.0000  0.0000  0.0000  0.0000  0.0000
  30.     0.0000  0.0000  0.0000  0.0000  0.0000  0.0000  0.0000  0.0000  0.0000

      MO    10      11      12      13      14      15      16      17      18
     ---- ------  ------  ------  ------  ------  ------  ------  ------  ------
   1.     0.0000  0.0000  0.0000  0.0000  0.0000  0.0000  0.0000  0.0000  0.0000
   2.     0.0000  0.0000  0.0000  0.0000  0.0000  0.0000  0.0000  0.0000  0.0000
   3.     0.0000  0.0000  0.0000  0.0000  0.0000  0.0000  0.0000  0.0000  0.0000
   4.     0.0000  0.0000  0.0000  0.0000  0.0000  0.0000  0.0000  0.0000  0.0000
   5.     0.0000  0.0000  0.0000  0.0000  0.0000  0.0000  0.0000  0.0000  0.0000
   6.     0.0000  0.0000  0.0000  0.0000  0.0000  0.0000  0.0000  0.0000  0.0000
   7.     0.0000  0.0000  0.0000  0.0000  0.0000  0.0000  0.0000  0.0000  0.0000
   8.     0.0000  0.0000  0.0000  0.0000  0.0000  0.0000  0.0000  0.0000  0.0000
   9.     0.0000  0.0000  0.0000  0.0000  0.0000  0.0000  0.0000  0.0000  0.0000
  10.     0.0000  0.0000  0.0000  0.0000  0.0000  0.0000  0.0000  0.0000  0.0000
  11.     0.0000  0.0000  0.0000  0.0000  0.0000  0.0000  0.0000  0.0000  0.0000
  12.     0.0000  0.0000  0.0000  0.0000  0.0000  0.0000  0.0000  0.0000  0.0000
  13.     0.0000  0.0000  0.0000  0.0000  0.0000  0.0000  0.0000  0.0000  0.0000
  14.     0.0000  0.0000  0.0000  0.0000  0.0000  0.0000  0.0000  0.0000  0.0000
  15.     0.0000  0.0000  0.0000  0.0000  0.0000  0.0000  0.0000  0.0000  0.0000
  16.     0.0000  0.0000  0.0000  0.0000  0.0000  0.0000  0.0000  0.0000  0.0000
  17.     0.0000  0.0000  0.0000  0.0000  0.0000  0.0000  0.0000  0.0000  0.0000
  18.     0.0000  0.0000  0.0000  0.0000  0.0000  0.0000  0.0000  0.0000  0.0000
  19.     0.0000  0.0000  0.0000  0.0000  0.0000  0.0000  0.0000  0.0000  0.0000
  20.     0.0000  0.0000  0.0000  0.0000  0.0000  0.0000  0.0000  0.0000  0.0000
  21.     0.0000  0.0000  0.0000  0.0000  0.0000  0.0000  0.0000  0.0000  0.0000
  22.     0.0000  0.0000  0.0000  0.0000  0.0000  0.0000  0.0000  0.0000  0.0000
  23.     0.0000  0.0000  0.0000  0.0000  0.0000  0.0000  0.0000  0.0000  0.0000
  24.     0.0000  0.0000  0.0000  0.0000  0.0000  0.0000  0.0000  0.0000  0.0000
  25.     0.0000  0.0000  0.0000  0.0000  0.0000  0.0000  0.0000  0.0000  0.0000
  26.     0.0000  0.0000  0.0000  0.0000  0.0000  0.0000  0.0000  0.0000  0.0000
  27.     0.0000  0.0000  0.0000  0.0000  0.0000  0.0000  0.0000  0.0000  0.0000
  28.     0.0000  0.0000  0.0000  0.0000  0.0000  0.0000  0.0000  0.0000  0.0000
  29.     0.0000  0.0000  0.0000  0.0000  0.0000  0.0000  0.0000  0.0000  0.0000
  30.     0.0000  0.0000  0.0000  0.0000  0.0000  0.0000  0.0000  0.0000  0.0000

      MO    19      20      21      22      23      24      25      26      27
     ---- ------  ------  ------  ------  ------  ------  ------  ------  ------
   1.     0.0000  0.0000  0.0000  0.0000  0.0000  0.0000  0.0000  0.0000  0.0000
   2.     0.0000  0.0000  0.0000  0.0000  0.0000  0.0000  0.0000  0.0000  0.0000
   3.     0.0000  0.0000  0.0000  0.0000  0.0000  0.0000  0.0000  0.0000  0.0000
   4.     0.0000  0.0000  0.0000  0.0000  0.0000  0.0000  0.0000  0.0000  0.0000
   5.     0.0000  0.0000  0.0000  0.0000  0.0000  0.0000  0.0000  0.0000  0.0000
   6.     0.0000  0.0000  0.0000  0.0000  0.0000  0.0000  0.0000  0.0000  0.0000
   7.     0.0000  0.0000  0.0000  0.0000  0.0000  0.0000  0.0000  0.0000  0.0000
   8.     0.0000  0.0000  0.0000  0.0000  0.0000  0.0000  0.0000  0.0000  0.0000
   9.     0.0000  0.0000  0.0000  0.0000  0.0000  0.0000  0.0000  0.0000  0.0000
  10.     0.0000  0.0000  0.0000  0.0000  0.0000  0.0000  0.0000  0.0000  0.0000
  11.     0.0000  0.0000  0.0000  0.0000  0.0000  0.0000  0.0000  0.0000  0.0000
  12.     0.0000  0.0000  0.0000  0.0000  0.0000  0.0000  0.0000  0.0000  0.0000
  13.     0.0000  0.0000  0.0000  0.0000  0.0000  0.0000  0.0000  0.0000  0.0000
  14.     0.0000  0.0000  0.0000  0.0000  0.0000  0.0000  0.0000  0.0000  0.0000
  15.     0.0000  0.0000  0.0000  0.0000  0.0000  0.0000  0.0000  0.0000  0.0000
  16.     0.0000  0.0000  0.0000  0.0000  0.0000  0.0000  0.0000  0.0000  0.0000
  17.     0.0000  0.0000  0.0000  0.0000  0.0000  0.0000  0.0000  0.0000  0.0000
  18.     0.0000  0.0000  0.0000  0.0000  0.0000  0.0000  0.0000  0.0000  0.0000
  19.     0.0000  0.0000  0.0000  0.0000  0.0000  0.0000  0.0000  0.0000  0.0000
  20.     0.0000  0.0000  0.0000  0.0000  0.0000  0.0000  0.0000  0.0000  0.0000
[...]
      Select eigenvectors with eigenvalue > 1.900
       1.996 0.001 0.000 0.000 0.000 0.000 0.000 0.000 0.000 0.000 0.000 0.000
       0.000 0.000 0.000 0.000 0.000 0.000
      Eigenvector ( 1) has occupancy 1.99650
            0.0000 0.0000 0.0000 0.0000 0.7071 0.0000 0.0000 0.0000
            0.0000 0.0000 0.0000 0.0000 0.0000 0.7071 0.0000 0.0000
            0.0000 0.0000
      Occupancy is 1.996 after deleting minor hybrid components
            0.0000 0.0000 0.0000 0.0000 0.7071 0.0000 0.0000 0.0000
            0.0000 0.0000 0.0000 0.0000 0.0000 0.7071 0.0000 0.0000
            0.0000 0.0000
           NBO accepted:    9. Label:BD ( 1)   1   5
      Occupancy is 0.001 for antibonding component
            0.0000 0.0000 0.0000 0.0000-0.7071 0.0000 0.0000 0.0000
            0.0000 0.0000 0.0000 0.0000 0.0000 0.7071 0.0000 0.0000
            0.0000 0.0000
           NBO accepted:   10. Label:BD*( 1)   1   5
        2 eigenvector(s) stashed in permanent list

 Search of NHO DM block for the following atom(s):   5   6
      Select eigenvectors with eigenvalue > 1.900
       1.993 0.005 0.000 0.000 0.000 0.000 0.000 0.000 0.000 0.000 0.000
      Eigenvector ( 1) has occupancy 1.99303
            0.0000 0.7849 0.0000 0.0000 0.0000 0.0000 0.0000 0.0000
            0.0000 0.6197 0.0000
      Occupancy is 1.993 after deleting minor hybrid components
            0.0000 0.7849 0.0000 0.0000 0.0000 0.0000 0.0000 0.0000
            0.0000 0.6197 0.0000
           NBO accepted:   11. Label:BD ( 1)   5   6
      Occupancy is 0.005 for antibonding component
            0.0000-0.6197 0.0000 0.0000 0.0000 0.0000 0.0000 0.0000
            0.0000 0.7849 0.0000
           NBO accepted:   12. Label:BD*( 1)   5   6
        2 eigenvector(s) stashed in permanent list

 Search of NHO DM block for the following atom(s):   5   7
      Select eigenvectors with eigenvalue > 1.900
       1.993 0.005 0.000 0.000 0.000 0.000 0.000 0.000 0.000 0.000 0.000
      Eigenvector ( 1) has occupancy 1.99303
            0.0000 0.0000 0.7849 0.0000 0.0000 0.0000 0.0000 0.0000
            0.0000 0.6197 0.0000
      Occupancy is 1.993 after deleting minor hybrid components
            0.0000 0.0000 0.7849 0.0000 0.0000 0.0000 0.0000 0.0000
            0.0000 0.6197 0.0000
           NBO accepted:   13. Label:BD ( 1)   5   7
      Occupancy is 0.005 for antibonding component
            0.0000 0.0000-0.6197 0.0000 0.0000 0.0000 0.0000 0.0000
            0.0000 0.7849 0.0000
           NBO accepted:   14. Label:BD*( 1)   5   7
        2 eigenvector(s) stashed in permanent list

 Search of NHO DM block for the following atom(s):   5   8
      Select eigenvectors with eigenvalue > 1.900
       1.993 0.005 0.000 0.000 0.000 0.000 0.000 0.000 0.000 0.000 0.000
      Eigenvector ( 1) has occupancy 1.99303
            0.0000 0.0000 0.0000 0.7849 0.0000 0.0000 0.0000 0.0000
            0.0000 0.6197 0.0000
      Occupancy is 1.993 after deleting minor hybrid components
            0.0000 0.0000 0.0000 0.7849 0.0000 0.0000 0.0000 0.0000
            0.0000 0.6197 0.0000
           NBO accepted:   15. Label:BD ( 1)   5   8
      Occupancy is 0.005 for antibonding component
            0.0000 0.0000 0.0000-0.6197 0.0000 0.0000 0.0000 0.0000
            0.0000 0.7849 0.0000
           NBO accepted:   16. Label:BD*( 1)   5   8
        2 eigenvector(s) stashed in permanent list

  2-center NBOs projected from the NHO density matrix
       0.012 electrons remain in the fully projected matrix

                            Occupancies       Lewis Structure    Low   High
         Max    Occ     -------------------  -----------------   occ   occ
  Cycle  Ctr   Thresh    Lewis   non-Lewis     CR  BD  nC  LP    (L)   (NL)
 ============================================================================
    1     2     1.90    17.95454   0.04546      2   7   0   0     0      0
 ----------------------------------------------------------------------------

 Structure accepted: No low occupancy Lewis orbitals

 -------------------------------------------------------
   Core                      3.99986 ( 99.997% of   4)
   Valence Lewis            13.95468 ( 99.676% of  14)
  ==================      =============================
   Total Lewis              17.95454 ( 99.747% of  18)
  -----------------------------------------------------
   Valence non-Lewis         0.03386 (  0.188% of  18)
   Rydberg non-Lewis         0.01160 (  0.064% of  18)
  ==================      =============================
   Total non-Lewis           0.04546 (  0.253% of  18)
 -------------------------------------------------------


     (Occupancy)   Bond orbital / Coefficients / Hybrids
 ------------------ Lewis ------------------------------------------------------
   1. (1.99993) CR ( 1) C  1            s(100.00%)
                                         1.0000  0.0000  0.0000  0.0000  0.0000
                                         0.0000  0.0000  0.0000  0.0000
   2. (1.99993) CR ( 1) C  5            s(100.00%)
                                         1.0000  0.0000  0.0000  0.0000  0.0000
                                         0.0000  0.0000  0.0000  0.0000
   3. (1.99303) BD ( 1) C  1- H  2
               ( 61.60%)   0.7849* C  1 s( 24.31%)p 3.11( 75.69%)
                                         0.0000  0.4930 -0.0034  0.0055  0.0061
                                         0.0095  0.0106  0.8698 -0.0041
               ( 38.40%)   0.6197* H  2 s(100.00%)
                                         1.0000  0.0002
   4. (1.99303) BD ( 1) C  1- H  3
               ( 61.60%)   0.7849* C  1 s( 24.31%)p 3.11( 75.69%)
                                         0.0000  0.4930 -0.0034  0.8219 -0.0018
                                         0.0095  0.0106 -0.2848  0.0071
               ( 38.40%)   0.6197* H  3 s(100.00%)
                                         1.0000  0.0002
   5. (1.99303) BD ( 1) C  1- H  4
               ( 61.60%)   0.7849* C  1 s( 24.31%)p 3.11( 75.69%)
                                         0.0000  0.4930 -0.0034 -0.4028  0.0101
                                         0.7165  0.0037 -0.2848  0.0071
               ( 38.40%)   0.6197* H  4 s(100.00%)
                                         1.0000  0.0002
   6. (1.99650) BD ( 1) C  1- C  5
               ( 50.00%)   0.7071* C  1 s( 27.08%)p 2.69( 72.92%)
                                         0.0000  0.5203  0.0120 -0.4025 -0.0051
                                        -0.6972 -0.0088 -0.2846 -0.0036
               ( 50.00%)   0.7071* C  5 s( 27.08%)p 2.69( 72.92%)
                                         0.0000  0.5203  0.0120  0.4025  0.0051
                                         0.6972  0.0088  0.2846  0.0036
   7. (1.99303) BD ( 1) C  5- H  6
               ( 61.60%)   0.7849* C  5 s( 24.31%)p 3.11( 75.69%)
                                         0.0000  0.4930 -0.0034 -0.8219  0.0018
                                        -0.0095 -0.0106  0.2848 -0.0071
               ( 38.40%)   0.6197* H  6 s(100.00%)
                                         1.0000  0.0002
   8. (1.99303) BD ( 1) C  5- H  7
               ( 61.60%)   0.7849* C  5 s( 24.31%)p 3.11( 75.69%)
                                         0.0000  0.4930 -0.0034 -0.0055 -0.0061
                                        -0.0095 -0.0106 -0.8698  0.0041
               ( 38.40%)   0.6197* H  7 s(100.00%)
                                         1.0000  0.0002
   9. (1.99303) BD ( 1) C  5- H  8
               ( 61.60%)   0.7849* C  5 s( 24.31%)p 3.11( 75.69%)
                                         0.0000  0.4930 -0.0034  0.4028 -0.0101
                                        -0.7165 -0.0037  0.2848 -0.0071
               ( 38.40%)   0.6197* H  8 s(100.00%)
                                         1.0000  0.0002
 ---------------- non-Lewis ----------------------------------------------------
  10. (0.00540) BD*( 1) C  1- H  2
               ( 38.40%)   0.6197* C  1 s( 24.31%)p 3.11( 75.69%)
                                         0.0000 -0.4930  0.0034 -0.0055 -0.0061
                                        -0.0095 -0.0106 -0.8698  0.0041
               ( 61.60%)  -0.7849* H  2 s(100.00%)
                                        -1.0000 -0.0002
  11. (0.00540) BD*( 1) C  1- H  3
               ( 38.40%)   0.6197* C  1 s( 24.31%)p 3.11( 75.69%)
                                         0.0000 -0.4930  0.0034 -0.8219  0.0018
                                        -0.0095 -0.0106  0.2848 -0.0071
               ( 61.60%)  -0.7849* H  3 s(100.00%)
                                        -1.0000 -0.0002
  12. (0.00540) BD*( 1) C  1- H  4
               ( 38.40%)   0.6197* C  1 s( 24.31%)p 3.11( 75.69%)
                                         0.0000 -0.4930  0.0034  0.4028 -0.0101
                                        -0.7165 -0.0037  0.2848 -0.0071
               ( 61.60%)  -0.7849* H  4 s(100.00%)
                                        -1.0000 -0.0002
  13. (0.00143) BD*( 1) C  1- C  5
               ( 50.00%)   0.7071* C  1 s( 27.08%)p 2.69( 72.92%)
                                         0.0000  0.5203  0.0120 -0.4025 -0.0051
                                        -0.6972 -0.0088 -0.2846 -0.0036
               ( 50.00%)  -0.7071* C  5 s( 27.08%)p 2.69( 72.92%)
                                         0.0000  0.5203  0.0120  0.4025  0.0051
                                         0.6972  0.0088  0.2846  0.0036
  14. (0.00540) BD*( 1) C  5- H  6
               ( 38.40%)   0.6197* C  5 s( 24.31%)p 3.11( 75.69%)
                                         0.0000 -0.4930  0.0034  0.8219 -0.0018
                                         0.0095  0.0106 -0.2848  0.0071
               ( 61.60%)  -0.7849* H  6 s(100.00%)
                                        -1.0000 -0.0002
  15. (0.00540) BD*( 1) C  5- H  7
               ( 38.40%)   0.6197* C  5 s( 24.31%)p 3.11( 75.69%)
                                         0.0000 -0.4930  0.0034  0.0055  0.0061
                                         0.0095  0.0106  0.8698 -0.0041
               ( 61.60%)  -0.7849* H  7 s(100.00%)
                                        -1.0000 -0.0002
  16. (0.00540) BD*( 1) C  5- H  8
               ( 38.40%)   0.6197* C  5 s( 24.31%)p 3.11( 75.69%)
                                         0.0000 -0.4930  0.0034 -0.4028  0.0101
                                         0.7165  0.0037 -0.2848  0.0071
               ( 61.60%)  -0.7849* H  8 s(100.00%)
                                        -1.0000 -0.0002
  17. (0.00104) RY ( 1) C  1            s(  0.00%)p 1.00(100.00%)
                                         0.0000  0.0000  0.0000  0.0085  0.8785
                                        -0.0039 -0.4015 -0.0025 -0.2589
  18. (0.00104) RY ( 2) C  1            s(  0.00%)p 1.00(100.00%)
                                         0.0000  0.0000  0.0000  0.0008  0.0776
                                        -0.0040 -0.4149  0.0088  0.9065
  19. (0.00015) RY ( 3) C  1            s( 99.91%)p 0.00(  0.09%)
                                         0.0000 -0.0015  0.9995  0.0060  0.0128
                                         0.0104  0.0222  0.0043  0.0091
  20. (0.00000) RY ( 4) C  1            s(  0.08%)p99.99( 99.92%)
  21. (0.00118) RY ( 1) H  2            s(100.00%)
                                        -0.0002  1.0000
  22. (0.00118) RY ( 1) H  3            s(100.00%)
                                        -0.0002  1.0000
  23. (0.00118) RY ( 1) H  4            s(100.00%)
                                        -0.0002  1.0000
  24. (0.00104) RY ( 1) C  5            s(  0.00%)p 1.00(100.00%)
                                         0.0000  0.0000  0.0000  0.0085  0.8785
                                        -0.0039 -0.4015 -0.0025 -0.2589
  25. (0.00104) RY ( 2) C  5            s(  0.00%)p 1.00(100.00%)
                                         0.0000  0.0000  0.0000  0.0008  0.0776
                                        -0.0040 -0.4149  0.0088  0.9065
  26. (0.00015) RY ( 3) C  5            s( 99.91%)p 0.00(  0.09%)
                                         0.0000 -0.0015  0.9995 -0.0060 -0.0128
                                        -0.0104 -0.0222 -0.0043 -0.0091
  27. (0.00000) RY ( 4) C  5            s(  0.08%)p99.99( 99.92%)
  28. (0.00118) RY ( 1) H  6            s(100.00%)
                                        -0.0002  1.0000
  29. (0.00118) RY ( 1) H  7            s(100.00%)
                                        -0.0002  1.0000
  30. (0.00118) RY ( 1) H  8            s(100.00%)
                                        -0.0002  1.0000


 NHO DIRECTIONALITY AND BOND BENDING (deviation from line of nuclear centers at
                                      the position of maximum hybrid amplitude)

         [Thresholds for printing:  angular deviation  >  1.0 degree]
                                    p- or d-character  > 25.0%
                                    orbital occupancy  >  0.10e

                        Line of Centers        Hybrid 1             Hybrid 2
                        ---------------  -------------------  ------------------
           NBO            Theta   Phi    Theta   Phi    Dev   Theta   Phi    Dev
 ===============================================================================
    None exceeding thresholds


 SECOND ORDER PERTURBATION THEORY ANALYSIS OF FOCK MATRIX IN NBO BASIS

     Threshold for printing:   0.50 kcal/mol
                                                          E(2) E(NL)-E(L) F(L,NL)
      Donor (L) NBO              Acceptor (NL) NBO      kcal/mol   a.u.    a.u.
 ===============================================================================

 within unit  1
    3. BD ( 1) C  1- H  2      15. BD*( 1) C  5- H  7      3.02    1.34   0.057
    3. BD ( 1) C  1- H  2      25. RY ( 2) C  5            0.84    1.58   0.033
    4. BD ( 1) C  1- H  3      14. BD*( 1) C  5- H  6      3.02    1.34   0.057
    4. BD ( 1) C  1- H  3      24. RY ( 1) C  5            0.85    1.58   0.033
    5. BD ( 1) C  1- H  4      16. BD*( 1) C  5- H  8      3.02    1.34   0.057
    6. BD ( 1) C  1- C  5      10. BD*( 1) C  1- H  2      0.60    1.39   0.026
    6. BD ( 1) C  1- C  5      11. BD*( 1) C  1- H  3      0.60    1.39   0.026
    6. BD ( 1) C  1- C  5      12. BD*( 1) C  1- H  4      0.60    1.39   0.026
    6. BD ( 1) C  1- C  5      14. BD*( 1) C  5- H  6      0.60    1.39   0.026
    6. BD ( 1) C  1- C  5      15. BD*( 1) C  5- H  7      0.60    1.39   0.026
    6. BD ( 1) C  1- C  5      16. BD*( 1) C  5- H  8      0.60    1.39   0.026
    6. BD ( 1) C  1- C  5      21. RY ( 1) H  2            0.57    1.51   0.026
    6. BD ( 1) C  1- C  5      22. RY ( 1) H  3            0.57    1.51   0.026
    6. BD ( 1) C  1- C  5      23. RY ( 1) H  4            0.57    1.51   0.026
    6. BD ( 1) C  1- C  5      28. RY ( 1) H  6            0.57    1.51   0.026
    6. BD ( 1) C  1- C  5      29. RY ( 1) H  7            0.57    1.51   0.026
    6. BD ( 1) C  1- C  5      30. RY ( 1) H  8            0.57    1.51   0.026
    7. BD ( 1) C  5- H  6      11. BD*( 1) C  1- H  3      3.02    1.34   0.057
    7. BD ( 1) C  5- H  6      17. RY ( 1) C  1            0.85    1.58   0.033
    8. BD ( 1) C  5- H  7      10. BD*( 1) C  1- H  2      3.02    1.34   0.057
    8. BD ( 1) C  5- H  7      18. RY ( 2) C  1            0.84    1.58   0.033
    9. BD ( 1) C  5- H  8      12. BD*( 1) C  1- H  4      3.02    1.34   0.057


 NATURAL BOND ORBITALS (Summary):

                                                     Principal Delocalizations
           NBO                 Occupancy    Energy   (geminal,vicinal,remote)
 ===============================================================================
 Molecular unit  1  (C2H6)
 ------ Lewis --------------------------------------
    1. CR ( 1) C  1             1.99993   -11.19033
    2. CR ( 1) C  5             1.99993   -11.19033
    3. BD ( 1) C  1- H  2       1.99303    -0.63657  15(v),25(v)
    4. BD ( 1) C  1- H  3       1.99303    -0.63657  14(v),24(v)
    5. BD ( 1) C  1- H  4       1.99303    -0.63657  16(v)
    6. BD ( 1) C  1- C  5       1.99650    -0.68644  10(g),11(g),12(g),14(g)
                                                     15(g),16(g),21(v),22(v)
                                                     23(v),28(v),29(v),30(v)
    7. BD ( 1) C  5- H  6       1.99303    -0.63657  11(v),17(v)
    8. BD ( 1) C  5- H  7       1.99303    -0.63657  10(v),18(v)
    9. BD ( 1) C  5- H  8       1.99303    -0.63657  12(v)
 ------ non-Lewis ----------------------------------
   10. BD*( 1) C  1- H  2       0.00540     0.70815
   11. BD*( 1) C  1- H  3       0.00540     0.70815
   12. BD*( 1) C  1- H  4       0.00540     0.70815
   13. BD*( 1) C  1- C  5       0.00143     0.61001
   14. BD*( 1) C  5- H  6       0.00540     0.70815
   15. BD*( 1) C  5- H  7       0.00540     0.70815
   16. BD*( 1) C  5- H  8       0.00540     0.70815
   17. RY ( 1) C  1             0.00104     0.94816
   18. RY ( 2) C  1             0.00104     0.94817
   19. RY ( 3) C  1             0.00015     1.63084
   20. RY ( 4) C  1             0.00000     0.85113
   21. RY ( 1) H  2             0.00118     0.82540
   22. RY ( 1) H  3             0.00118     0.82541
   23. RY ( 1) H  4             0.00118     0.82540
   24. RY ( 1) C  5             0.00104     0.94816
   25. RY ( 2) C  5             0.00104     0.94817
   26. RY ( 3) C  5             0.00015     1.63084
   27. RY ( 4) C  5             0.00000     0.85113
   28. RY ( 1) H  6             0.00118     0.82541
   29. RY ( 1) H  7             0.00118     0.82540
   30. RY ( 1) H  8             0.00118     0.82540
          -------------------------------
                 Total Lewis   17.95454  ( 99.7475%)
           Valence non-Lewis    0.03386  (  0.1881%)
           Rydberg non-Lewis    0.01160  (  0.0644%)
          -------------------------------
               Total unit  1   18.00000  (100.0000%)
              Charge unit  1    0.00000

 $CHOOSE
   BOND S 1 2 S 1 3 S 1 4 S 1 5 S 5 6 S 5 7 S 5 8 END
 $END

 NBO analysis completed in 0.29 CPU seconds (0 wall seconds)
 Maximum scratch memory used by NBO was 269440 words (2.06 MB)
 Maximum scratch memory used by G16NBO was 9711 words (0.07 MB)

 Opening RunExU unformatted file "/cluster/work/users/beto93/CH3CH3/Gau-3325870.EUF"
 Read unf file /cluster/work/users/beto93/CH3CH3/Gau-3325870.EUF:
 Label Gaussian matrix elements                                         IVers= 2 NLab= 2 Version=ES64L-G16RevC.01
 Title NBO-a                                                           
 NAtoms=     8 NBasis=    30 NBsUse=    30 ICharg=     0 Multip=     1 NE=    18 Len12L=8 Len4L=8 IOpCl= 0 ICGU=111
 GAUSSIAN SCALARS                    NI= 1 NR= 1 NTot=       1 LenBuf=    2 NRI=1 N=    1000
 NPA CHARGES                         NI= 0 NR= 1 NTot=       8 LenBuf= 4000 NRI=1 N=       8
 Recovered energy= -79.1158222598     dipole=      0.000000000000      0.000000000000     -0.000000000000
 Unable to Open any file for archive entry.
 1\1\GINC-C1-3\SP\RHF\4-31G\C2H6\BETO93\24-Jul-2024\0\\#RHF/4-31G Pop=N
 BO7Read\\NBO-a\\0,1\C,0,0.008877,0.015375,0.006277\H,0,0.020819,0.0360
 63,1.092059\H,0,1.036545,0.036063,-0.344387\H,0,-0.487038,0.915705,-0.
 344391\C,0,-0.715982,-1.24012,-0.50628\H,0,-1.743649,-1.260807,-0.1556
 16\H,0,-0.727923,-1.260807,-1.592062\H,0,-0.220066,-2.140449,-0.155612
 \\Version=ES64L-G16RevC.01\State=1-AG\HF=-79.1158223\RMSD=1.088e-09\Di
 pole=0.,0.,0.\Quadrupole=0.0445622,-0.1336964,0.0891342,-0.1543796,-0.
 0630243,-0.1091635\PG=CI [X(C2H6)]\\@
 The archive entry for this job was punched.


 LOGIC IS A SYSTEMATIC METHOD OF COMING TO THE
 WRONG CONCLUSION WITH CONFIDENCE.
 Job cpu time:       0 days  0 hours  0 minutes  8.8 seconds.
 Elapsed time:       0 days  0 hours  0 minutes  2.9 seconds.
 File lengths (MBytes):  RWF=     10 Int=      0 D2E=      0 Chk=      1 Scr=      1
 Normal termination of Gaussian 16 at Wed Jul 24 13:56:58 2024.
