 Entering Gaussian System, Link 0=g16
 Initial command:
 /cluster/software/Gaussian/g16_C.01/l1.exe "/cluster/work/users/beto93/mol82/Gau-1782241.inp" -scrdir="/cluster/work/users/beto93/mol82/"
 Entering Link 1 = /cluster/software/Gaussian/g16_C.01/l1.exe PID=   1782242.
  
 Copyright (c) 1988-2019, Gaussian, Inc.  All Rights Reserved.
  
 This is part of the Gaussian(R) 16 program.  It is based on
 the Gaussian(R) 09 system (copyright 2009, Gaussian, Inc.),
 the Gaussian(R) 03 system (copyright 2003, Gaussian, Inc.),
 the Gaussian(R) 98 system (copyright 1998, Gaussian, Inc.),
 the Gaussian(R) 94 system (copyright 1995, Gaussian, Inc.),
 the Gaussian 92(TM) system (copyright 1992, Gaussian, Inc.),
 the Gaussian 90(TM) system (copyright 1990, Gaussian, Inc.),
 the Gaussian 88(TM) system (copyright 1988, Gaussian, Inc.),
 the Gaussian 86(TM) system (copyright 1986, Carnegie Mellon
 University), and the Gaussian 82(TM) system (copyright 1983,
 Carnegie Mellon University). Gaussian is a federally registered
 trademark of Gaussian, Inc.
  
 This software contains proprietary and confidential information,
 including trade secrets, belonging to Gaussian, Inc.
  
 This software is provided under written license and may be
 used, copied, transmitted, or stored only in accord with that
 written license.
  
 The following legend is applicable only to US Government
 contracts under FAR:
  
                    RESTRICTED RIGHTS LEGEND
  
 Use, reproduction and disclosure by the US Government is
 subject to restrictions as set forth in subparagraphs (a)
 and (c) of the Commercial Computer Software - Restricted
 Rights clause in FAR 52.227-19.
  
 Gaussian, Inc.
 340 Quinnipiac St., Bldg. 40, Wallingford CT 06492
  
  
 ---------------------------------------------------------------
 Warning -- This program may not be used in any manner that
 competes with the business of Gaussian, Inc. or will provide
 assistance to any competitor of Gaussian, Inc.  The licensee
 of this program is prohibited from giving any competitor of
 Gaussian, Inc. access to this program.  By using this program,
 the user acknowledges that Gaussian, Inc. is engaged in the
 business of creating and licensing software in the field of
 computational chemistry and represents and warrants to the
 licensee that it is not a competitor of Gaussian, Inc. and that
 it will not use this program in any manner prohibited above.
 ---------------------------------------------------------------
  

 Cite this work as:
 Gaussian 16, Revision C.01,
 M. J. Frisch, G. W. Trucks, H. B. Schlegel, G. E. Scuseria, 
 M. A. Robb, J. R. Cheeseman, G. Scalmani, V. Barone, 
 G. A. Petersson, H. Nakatsuji, X. Li, M. Caricato, A. V. Marenich, 
 J. Bloino, B. G. Janesko, R. Gomperts, B. Mennucci, H. P. Hratchian, 
 J. V. Ortiz, A. F. Izmaylov, J. L. Sonnenberg, D. Williams-Young, 
 F. Ding, F. Lipparini, F. Egidi, J. Goings, B. Peng, A. Petrone, 
 T. Henderson, D. Ranasinghe, V. G. Zakrzewski, J. Gao, N. Rega, 
 G. Zheng, W. Liang, M. Hada, M. Ehara, K. Toyota, R. Fukuda, 
 J. Hasegawa, M. Ishida, T. Nakajima, Y. Honda, O. Kitao, H. Nakai, 
 T. Vreven, K. Throssell, J. A. Montgomery, Jr., J. E. Peralta, 
 F. Ogliaro, M. J. Bearpark, J. J. Heyd, E. N. Brothers, K. N. Kudin, 
 V. N. Staroverov, T. A. Keith, R. Kobayashi, J. Normand, 
 K. Raghavachari, A. P. Rendell, J. C. Burant, S. S. Iyengar, 
 J. Tomasi, M. Cossi, J. M. Millam, M. Klene, C. Adamo, R. Cammi, 
 J. W. Ochterski, R. L. Martin, K. Morokuma, O. Farkas, 
 J. B. Foresman, and D. J. Fox, Gaussian, Inc., Wallingford CT, 2019.
 
 ******************************************
 Gaussian 16:  ES64L-G16RevC.01  3-Jul-2019
                18-Nov-2024 
 ******************************************
 %LindaWorkers=c1-37-ib
 %NProcShared=4
 Will use up to    4 processors via shared memory.
 %mem=25GB
 %chk=mol82.chk
 SetLPE:    new flags="-opt 'Tsnet.Node.lindarsharg: ssh'  -nodelist 'c1-37-ib.saga' -env GAUSS_MDEF=3355443200 -env GAUSS_EXEDIR="/cluster/software/Gaussian/g16_C.01/bsd:/cluster/software/Gaussian/g16_C.01""
 Will use up to    1 processors via Linda.
 -----------------------------------------------------------------
 #RHF/6-31G* int=nobasistransform Symmetry=None 5D 7F Pop=NBO7Read
 -----------------------------------------------------------------
 1/38=1,163=2,172=1/1;
 2/12=2,15=3,17=6,18=5,40=1/2;
 3/5=1,6=6,7=1,8=11,11=1,25=1,30=1,60=-1,116=1/1,2,3;
 4//1;
 5/5=2,38=5/2;
 6/7=2,8=2,9=2,10=2,28=1,40=2,113=1,114=1,124=2103/1,12;
 99/5=1,9=1/99;
 ---------
 mol82-NBO
 ---------
 Symbolic Z-matrix:
 Charge =  0 Multiplicity = 1
 C                     0.60571   1.74655   0. 
 C                     0.60571   0.40408   0. 
 C                    -0.60571  -0.40408   0. 
 C                    -0.60571  -1.74655   0. 
 H                     1.52762   2.31744   0. 
 H                    -0.32113   2.31312   0. 
 H                     1.5535   -0.13364   0. 
 H                    -1.5535    0.13364   0. 
 H                     0.32113  -2.31312   0. 
 H                    -1.52762  -2.31744   0. 
 
                          Input orientation:                          
 ---------------------------------------------------------------------
 Center     Atomic      Atomic             Coordinates (Angstroms)
 Number     Number       Type             X           Y           Z
 ---------------------------------------------------------------------
      1          6           0        0.605711    1.746550    0.000000
      2          6           0        0.605711    0.404083    0.000000
      3          6           0       -0.605711   -0.404083    0.000000
      4          6           0       -0.605711   -1.746550    0.000000
      5          1           0        1.527617    2.317443    0.000000
      6          1           0       -0.321132    2.313116    0.000000
      7          1           0        1.553503   -0.133640    0.000000
      8          1           0       -1.553503    0.133640    0.000000
      9          1           0        0.321132   -2.313116    0.000000
     10          1           0       -1.527617   -2.317443    0.000000
 ---------------------------------------------------------------------
                    Distance matrix (angstroms):
                    1          2          3          4          5
     1  C    0.000000
     2  C    1.342467   0.000000
     3  C    2.468353   1.456254   0.000000
     4  C    3.697200   2.468353   1.342467   0.000000
     5  H    1.084357   2.123878   3.458004   4.589894   0.000000
     6  H    1.086294   2.122132   2.732061   4.069628   1.848754
     7  H    2.105570   1.089704   2.176085   2.695122   2.451220
     8  H    2.695122   2.176085   1.089704   2.105570   3.776546
     9  H    4.069628   2.732061   2.122132   1.086294   4.785152
    10  H    4.589894   3.458004   2.123878   1.084357   5.551272
                    6          7          8          9         10
     6  H    0.000000
     7  H    3.082348   0.000000
     8  H    2.503768   3.118481   0.000000
     9  H    4.670602   2.503768   3.082348   0.000000
    10  H    4.785152   3.776546   2.451220   1.848754   0.000000
 Symmetry turned off by external request.
 Stoichiometry    C4H6
 Rotational constants (GHZ):          41.9743547           4.4284248           4.0058004
 Standard basis: 6-31G(d) (5D, 7F)
    68 basis functions,   136 primitive gaussians,    72 cartesian basis functions
    15 alpha electrons       15 beta electrons
       nuclear repulsion energy       103.6073980066 Hartrees.
 NAtoms=   10 NActive=   10 NUniq=   10 SFac= 1.00D+00 NAtFMM=   60 NAOKFM=F Big=F
 Integral buffers will be    131072 words long.
 Raffenetti 1 integral format.
 Two-electron integral symmetry is turned off.
 One-electron integrals computed using PRISM.
 NBasis=    68 RedAO= T EigKep=  3.74D-03  NBF=    68
 NBsUse=    68 1.00D-06 EigRej= -1.00D+00 NBFU=    68
 ExpMin= 1.61D-01 ExpMax= 3.05D+03 ExpMxC= 4.57D+02 IAcc=3 IRadAn=         5 AccDes= 0.00D+00
 Harris functional with IExCor=  205 and IRadAn=       5 diagonalized for initial guess.
 HarFok:  IExCor=  205 AccDes= 0.00D+00 IRadAn=         5 IDoV= 1 UseB2=F ITyADJ=14
 ICtDFT=  3500011 ScaDFX=  1.000000  1.000000  1.000000  1.000000
 FoFCou: FMM=F IPFlag=           0 FMFlag=      100000 FMFlg1=           0
         NFxFlg=           0 DoJE=T BraDBF=F KetDBF=T FulRan=T
         wScrn=  0.000000 ICntrl=       500 IOpCl=  0 I1Cent=   200000004 NGrid=           0
         NMat0=    1 NMatS0=      1 NMatT0=    0 NMatD0=    1 NMtDS0=    0 NMtDT0=    0
 Symmetry not used in FoFCou.
 Keep R1 ints in memory in canonical form, NReq=3608901.
 Requested convergence on RMS density matrix=1.00D-08 within 128 cycles.
 Requested convergence on MAX density matrix=1.00D-06.
 Requested convergence on             energy=1.00D-06.
 No special actions if energy rises.
 SCF Done:  E(RHF) =  -154.917566180     A.U. after   11 cycles
            NFock= 11  Conv=0.38D-08     -V/T= 2.0007

 **********************************************************************

            Population analysis using the SCF Density.

 **********************************************************************

 Alpha  occ. eigenvalues --  -11.23616 -11.23537 -11.22595 -11.22594  -1.08543
 Alpha  occ. eigenvalues --   -0.99318  -0.82214  -0.74972  -0.63861  -0.62916
 Alpha  occ. eigenvalues --   -0.55125  -0.54010  -0.49097  -0.43774  -0.31577
 Alpha virt. eigenvalues --    0.12695   0.25802   0.26061   0.26922   0.27553
 Alpha virt. eigenvalues --    0.32988   0.34826   0.35972   0.49081   0.49512
 Alpha virt. eigenvalues --    0.57678   0.67936   0.70822   0.75698   0.81308
 Alpha virt. eigenvalues --    0.81757   0.85084   0.90761   0.91075   0.91953
 Alpha virt. eigenvalues --    0.95060   1.11669   1.12446   1.13149   1.17057
 Alpha virt. eigenvalues --    1.20565   1.22097   1.22349   1.30884   1.35488
 Alpha virt. eigenvalues --    1.37133   1.58104   1.59991   1.61145   1.70292
 Alpha virt. eigenvalues --    1.82064   1.94457   2.06165   2.12807   2.19370
 Alpha virt. eigenvalues --    2.26386   2.37784   2.41660   2.44529   2.48942
 Alpha virt. eigenvalues --    2.65146   2.73658   2.74275   2.80813   2.95306
 Alpha virt. eigenvalues --    3.08771   3.28843   3.35915
          Condensed to atoms (all electrons):
               1          2          3          4          5          6
     1  C    5.077464   0.632992  -0.051481   0.000943   0.392766   0.395797
     2  C    0.632992   4.875540   0.414228  -0.051481  -0.034348  -0.045093
     3  C   -0.051481   0.414228   4.875540   0.632992   0.002368  -0.002419
     4  C    0.000943  -0.051481   0.632992   5.077464  -0.000095   0.000144
     5  H    0.392766  -0.034348   0.002368  -0.000095   0.483826  -0.026947
     6  H    0.395797  -0.045093  -0.002419   0.000144  -0.026947   0.492455
     7  H   -0.034553   0.391624  -0.041234  -0.000068  -0.002874   0.002950
     8  H   -0.000068  -0.041234   0.391624  -0.034553  -0.000011   0.002876
     9  H    0.000144  -0.002419  -0.045093   0.395797  -0.000004   0.000009
    10  H   -0.000095   0.002368  -0.034348   0.392766   0.000002  -0.000004
               7          8          9         10
     1  C   -0.034553  -0.000068   0.000144  -0.000095
     2  C    0.391624  -0.041234  -0.002419   0.002368
     3  C   -0.041234   0.391624  -0.045093  -0.034348
     4  C   -0.000068  -0.034553   0.395797   0.392766
     5  H   -0.002874  -0.000011  -0.000004   0.000002
     6  H    0.002950   0.002876   0.000009  -0.000004
     7  H    0.488090   0.002666   0.002876  -0.000011
     8  H    0.002666   0.488090   0.002950  -0.002874
     9  H    0.002876   0.002950   0.492455  -0.026947
    10  H   -0.000011  -0.002874  -0.026947   0.483826
 Mulliken charges:
               1
     1  C   -0.413909
     2  C   -0.142176
     3  C   -0.142176
     4  C   -0.413909
     5  H    0.185319
     6  H    0.180232
     7  H    0.190535
     8  H    0.190535
     9  H    0.180232
    10  H    0.185319
 Sum of Mulliken charges =  -0.00000
 Mulliken charges with hydrogens summed into heavy atoms:
               1
     1  C   -0.048359
     2  C    0.048359
     3  C    0.048359
     4  C   -0.048359
 Electronic spatial extent (au):  <R**2>=            335.8480
 Charge=             -0.0000 electrons
 Dipole moment (field-independent basis, Debye):
    X=              0.0000    Y=              0.0000    Z=              0.0000  Tot=              0.0000
 Quadrupole moment (field-independent basis, Debye-Ang):
   XX=            -22.8397   YY=            -22.7492   ZZ=            -28.8563
   XY=             -0.2147   XZ=              0.0000   YZ=             -0.0000
 Traceless Quadrupole moment (field-independent basis, Debye-Ang):
   XX=              1.9753   YY=              2.0658   ZZ=             -4.0412
   XY=             -0.2147   XZ=              0.0000   YZ=             -0.0000
 Octapole moment (field-independent basis, Debye-Ang**2):
  XXX=             -0.0000  YYY=              0.0000  ZZZ=              0.0000  XYY=              0.0000
  XXY=              0.0000  XXZ=             -0.0000  XZZ=             -0.0000  YZZ=             -0.0000
  YYZ=             -0.0000  XYZ=              0.0000
 Hexadecapole moment (field-independent basis, Debye-Ang**3):
 XXXX=           -103.4062 YYYY=           -301.4170 ZZZZ=            -31.1644 XXXY=            -47.3676
 XXXZ=              0.0000 YYYX=            -46.8701 YYYZ=             -0.0000 ZZZX=              0.0000
 ZZZY=             -0.0000 XXYY=            -62.5428 XXZZ=            -26.1937 YYZZ=            -65.9119
 XXYZ=             -0.0000 YYXZ=             -0.0000 ZZXY=            -20.3634
 N-N= 1.036073980066D+02 E-N=-5.675029439351D+02  KE= 1.548079947296D+02
 Running external command "gaunbo7 R"
         input file       "/cluster/work/users/beto93/mol82/Gau-1782242.EIn"
         output file      "/cluster/work/users/beto93/mol82/Gau-1782242.EOu"
         message file     "/cluster/work/users/beto93/mol82/Gau-1782242.EMs"
         fchk file        "/cluster/work/users/beto93/mol82/Gau-1782242.EFC"
         mat. el file     "/cluster/work/users/beto93/mol82/Gau-1782242.EUF"

 Writing WrtUnf unformatted file "/cluster/work/users/beto93/mol82/Gau-1782242.EUF"
 Gaussian matrix elements                                         Version   2 NLab=11 Len12L=8 Len4L=8
 Write SHELL TO ATOM MAP                   from file      0 offset           0 length                  28 to matrix element file.
 Write SHELL TYPES                         from file      0 offset           0 length                  28 to matrix element file.
 Write NUMBER OF PRIMITIVES PER SHELL      from file      0 offset           0 length                  28 to matrix element file.
 Write PRIMITIVE EXPONENTS                 from file      0 offset           0 length                  68 to matrix element file.
 Write CONTRACTION COEFFICIENTS            from file      0 offset           0 length                  68 to matrix element file.
 Write P(S=P) CONTRACTION COEFFICIENTS     from file      0 offset           0 length                  68 to matrix element file.
 Write COORDINATES OF EACH SHELL           from file      0 offset           0 length                  84 to matrix element file.
 Write BONDS PER ATOM                      from file      0 offset           0 length                  10 to matrix element file.
 Write BONDED ATOMS                        from file      0 offset           0 length                  18 to matrix element file.
 Write BOND TYPES                          from file      0 offset           0 length                  18 to matrix element file.
 Write ONIOM CHARGE/MULT                   from file      0 offset           0 length                  32 to matrix element file.
 Write ONIOM ATOM LAYERS                   from file      0 offset           0 length                  10 to matrix element file.
 Write ONIOM ATOM MODIFIERS                from file      0 offset           0 length                  10 to matrix element file.
 Write ONIOM ATOM TYPES                    from file      0 offset           0 length                  10 to matrix element file.
 Write ONIOM LINK ATOMS                    from file      0 offset           0 length                  10 to matrix element file.
 Write ONIOM LINK CHARGES                  from file      0 offset           0 length                  10 to matrix element file.
 Write ONIOM LINK DISTANCES                from file      0 offset           0 length                  40 to matrix element file.
 Write SYMINF INTS                         from file      0 offset           0 length                  26 to matrix element file.
 Write ROTTR TO SO                         from file      0 offset           0 length                  12 to matrix element file.
 Write GAUSSIAN SCALARS                    from file    501 offset           0 to matrix element file.
 Write OPTIMIZATION FLAGS                  from file      0 offset           0 length                  10 to matrix element file.
 Write INTEGER ISO                         from file      0 offset           0 length                  10 to matrix element file.
 Write INTEGER SPIN                        from file      0 offset           0 length                  10 to matrix element file.
 Write REAL ZEFFECTIVE                     from file      0 offset           0 length                  10 to matrix element file.
 Write REAL GFACTOR                        from file      0 offset           0 length                  10 to matrix element file.
 Write REAL ZNUCLEAR                       from file      0 offset           0 length                  10 to matrix element file.
 Write MULLIKEN CHARGES                    from file      0 offset           0 length                  10 to matrix element file.
 Write NUCLEAR GRADIENT                    from file  10584 offset           0 length                  30 to matrix element file.
 Array NUCLEAR FORCE CONSTANTS              on  file  10585 does not exist.
 Write ELECTRIC DIPOLE MOMENT              from file      0 offset           0 length                   3 to matrix element file.
 Write NON-ADIABATIC COUPLING              from file  10810 offset           0 length                  30 to matrix element file.
 Write FINITE EM FIELD                     from file  10521 offset           0 length                  35 to matrix element file.
 Write OVERLAP                             from file  10514 offset           0 length                2346 to matrix element file.
 Write CORE HAMILTONIAN ALPHA              from file  10515 offset           0 length                2346 to matrix element file.
 Write CORE HAMILTONIAN BETA               from file  10515 offset        2346 length                2346 to matrix element file.
 Write KINETIC ENERGY                      from file  10516 offset           0 length                2346 to matrix element file.
 Write ORTHOGONAL BASIS                    from file  10685 offset           0 length                4624 to matrix element file.
 Write DIPOLE INTEGRALS                    from file  10518 offset           0 length                7038 to matrix element file.
 Array DIP VEL INTEGRALS                    on  file  10572 does not exist.
 Array R X DEL INTEGRALS                    on  file  10572 does not exist.
 Write ALPHA ORBITAL ENERGIES              from file      0 offset           0 length                  68 to matrix element file.
 Write ALPHA MO COEFFICIENTS               from file  10524 offset           0 length                4624 to matrix element file.
 Write ALPHA DENSITY MATRIX                from file      0 offset           0 length                2346 to matrix element file.
 Write ALPHA FOCK MATRIX                   from file  10536 offset           0 length                2346 to matrix element file.
 Write ENERGY-WEIGHTED DENSITY             from file  10571 offset           0 length                2346 to matrix element file.
 Write ALPHA SCF DENSITY MATRIX            from file      0 offset           0 length                2346 to matrix element file.
 No 2e integrals to process.
 Perform NBO analysis...executing G16NBO...

 *********************************** NBO 7.0 ***********************************
             N A T U R A L   A T O M I C   O R B I T A L   A N D
          N A T U R A L   B O N D   O R B I T A L   A N A L Y S I S
 **************************** Espen Tangen (S101595) ***************************
  (c) Copyright 1996-2021 Board of Regents of the University of Wisconsin System
      on behalf of the Theoretical Chemistry Institute.  All rights reserved.

          Cite this program [NBO 7.0.10 (8-Feb-2021)] as:

          NBO 7.0.  E. D. Glendening, J. K. Badenhoop, A. E. Reed,
          J. E. Carpenter, J. A. Bohmann, C. M. Morales, P. Karafiloglou,
          C. R. Landis, and F. Weinhold, Theoretical Chemistry Institute,
          University of Wisconsin, Madison, WI (2018)

       /NPA    / : Natural Population Analysis
       /AOPNAO / : Print the AO to PNAO transformation
       /AONAO  / : Print the AO to NAO transformation
       /AOMO   / : Print the MOs in the AO basis
       /BOAO   / : Print the AO bond-order matrix
       /DMAO   / : Print the AO density matrix
       /DMPNAO / : Print the PNAO density matrix
       /DMNAO  / : Print the NAO density matrix
       /DMMO   / : Print the MO density matrix
       /SAO    / : Print the AO overlap matrix
       /SPNAO  / : Print the PNAO overlap matrix
       /DETAIL / : Write details of NBO search
       /ARCHIVE/ : Write the archive file to lfn47
       /AOINFO / : Write AO information to lfn31
       /FILE   / : Set to mol82.gen*

 Filename set to mol82.gen1

 Job title: mol82-NBO


 MOs in the AO basis:

           AO          1       2       3       4       5       6       7       8
      ------------ ------- ------- ------- ------- ------- ------- ------- -------
   1.  C 1 (s)      0.0534  0.0589  0.7023  0.7019 -0.0891 -0.1284 -0.1095  0.0487
   2.  C 1 (s)      0.0005  0.0010  0.0172  0.0172  0.1700  0.2457  0.2143 -0.0968
   3.  C 1 (px)     0.0001  0.0000  0.0000  0.0000 -0.0079  0.0050  0.0242  0.0793
   4.  C 1 (py)     0.0004  0.0003 -0.0002 -0.0001 -0.0761 -0.0680  0.0880 -0.1272
   5.  C 1 (pz)     0.0000  0.0000  0.0000  0.0000  0.0000  0.0000  0.0000  0.0000
   6.  C 1 (s)      0.0033  0.0023 -0.0094 -0.0106  0.1358  0.2020  0.2103 -0.1027
   7.  C 1 (px)    -0.0006 -0.0003  0.0000  0.0002 -0.0013 -0.0068  0.0107  0.0230
   8.  C 1 (py)    -0.0016 -0.0011  0.0003  0.0010 -0.0107 -0.0033  0.0382 -0.0461
   9.  C 1 (pz)     0.0000  0.0000  0.0000  0.0000  0.0000  0.0000  0.0000  0.0000
  10.  C 1 (d5)     0.0001  0.0002 -0.0004 -0.0004 -0.0091 -0.0134 -0.0126  0.0069
  11.  C 1 (d2)     0.0000  0.0000  0.0000  0.0000  0.0000  0.0000  0.0000  0.0000
  12.  C 1 (d3)     0.0000  0.0000  0.0000  0.0000  0.0000  0.0000  0.0000  0.0000
  13.  C 1 (d4)     0.0002  0.0002 -0.0002 -0.0002 -0.0060 -0.0040  0.0084 -0.0102
  14.  C 1 (d1)     0.0000  0.0001  0.0000  0.0000  0.0008 -0.0002 -0.0004  0.0002
  15.  C 2 (s)      0.7023  0.7019 -0.0538 -0.0593 -0.1341 -0.0851  0.0716 -0.0848
  16.  C 2 (s)      0.0170  0.0178 -0.0020 -0.0021  0.2608  0.1648 -0.1450  0.1678
  17.  C 2 (px)     0.0000 -0.0004  0.0000  0.0000 -0.0494  0.0358  0.0785  0.1675
  18.  C 2 (py)     0.0001 -0.0001 -0.0003 -0.0004  0.0142  0.1331  0.1583 -0.0623
  19.  C 2 (pz)     0.0000  0.0000  0.0000  0.0000  0.0000  0.0000  0.0000  0.0000
  20.  C 2 (s)     -0.0079 -0.0132  0.0034  0.0045  0.1707  0.1184 -0.1323  0.1786
  21.  C 2 (px)     0.0003  0.0019  0.0003 -0.0001  0.0010  0.0192  0.0088  0.0620
  22.  C 2 (py)    -0.0017  0.0008  0.0008  0.0018 -0.0164  0.0236  0.0516 -0.0350
  23.  C 2 (pz)     0.0000  0.0000  0.0000  0.0000  0.0000  0.0000  0.0000  0.0000
  24.  C 2 (d5)    -0.0002 -0.0006  0.0002  0.0003 -0.0144 -0.0058  0.0082 -0.0081
  25.  C 2 (d2)     0.0000  0.0000  0.0000  0.0000  0.0000  0.0000  0.0000  0.0000
  26.  C 2 (d3)     0.0000  0.0000  0.0000  0.0000  0.0000  0.0000  0.0000  0.0000
  27.  C 2 (d4)    -0.0004  0.0000  0.0002  0.0002 -0.0017 -0.0084 -0.0130  0.0022
  28.  C 2 (d1)    -0.0001  0.0004  0.0000 -0.0001  0.0045 -0.0069 -0.0040 -0.0114
  29.  C 3 (s)      0.7023 -0.7019 -0.0538  0.0593 -0.1341  0.0851  0.0716  0.0848
  30.  C 3 (s)      0.0170 -0.0178 -0.0020  0.0021  0.2608 -0.1648 -0.1450 -0.1678
  31.  C 3 (px)     0.0000 -0.0004  0.0000  0.0000  0.0494  0.0358 -0.0785  0.1675
  32.  C 3 (py)    -0.0001 -0.0001  0.0003 -0.0004 -0.0142  0.1331 -0.1583 -0.0623
  33.  C 3 (pz)     0.0000  0.0000  0.0000  0.0000  0.0000  0.0000  0.0000  0.0000
  34.  C 3 (s)     -0.0079  0.0132  0.0034 -0.0045  0.1707 -0.1184 -0.1323 -0.1786
  35.  C 3 (px)    -0.0003  0.0019 -0.0003 -0.0001 -0.0010  0.0192 -0.0088  0.0620
  36.  C 3 (py)     0.0017  0.0008 -0.0008  0.0018  0.0164  0.0236 -0.0516 -0.0350
  37.  C 3 (pz)     0.0000  0.0000  0.0000  0.0000  0.0000  0.0000  0.0000  0.0000
  38.  C 3 (d5)    -0.0002  0.0006  0.0002 -0.0003 -0.0144  0.0058  0.0082  0.0081
  39.  C 3 (d2)     0.0000  0.0000  0.0000  0.0000  0.0000  0.0000  0.0000  0.0000
  40.  C 3 (d3)     0.0000  0.0000  0.0000  0.0000  0.0000  0.0000  0.0000  0.0000
  41.  C 3 (d4)    -0.0004  0.0000  0.0002 -0.0002 -0.0017  0.0084 -0.0130 -0.0022
  42.  C 3 (d1)    -0.0001 -0.0004  0.0000  0.0001  0.0045  0.0069 -0.0040  0.0114
  43.  C 4 (s)      0.0534 -0.0589  0.7023 -0.7019 -0.0891  0.1284 -0.1095 -0.0487
  44.  C 4 (s)      0.0005 -0.0010  0.0172 -0.0172  0.1700 -0.2457  0.2143  0.0968
  45.  C 4 (px)    -0.0001  0.0000  0.0000  0.0000  0.0079  0.0050 -0.0242  0.0793
  46.  C 4 (py)    -0.0004  0.0003  0.0002 -0.0001  0.0761 -0.0680 -0.0880 -0.1272
  47.  C 4 (pz)     0.0000  0.0000  0.0000  0.0000  0.0000  0.0000  0.0000  0.0000
  48.  C 4 (s)      0.0033 -0.0023 -0.0094  0.0106  0.1358 -0.2020  0.2103  0.1027
  49.  C 4 (px)     0.0006 -0.0003  0.0000  0.0002  0.0013 -0.0068 -0.0107  0.0230
  50.  C 4 (py)     0.0016 -0.0011 -0.0003  0.0010  0.0107 -0.0033 -0.0382 -0.0461
  51.  C 4 (pz)     0.0000  0.0000  0.0000  0.0000  0.0000  0.0000  0.0000  0.0000
  52.  C 4 (d5)     0.0001 -0.0002 -0.0004  0.0004 -0.0091  0.0134 -0.0126 -0.0069
  53.  C 4 (d2)     0.0000  0.0000  0.0000  0.0000  0.0000  0.0000  0.0000  0.0000
  54.  C 4 (d3)     0.0000  0.0000  0.0000  0.0000  0.0000  0.0000  0.0000  0.0000
  55.  C 4 (d4)     0.0002 -0.0002 -0.0002  0.0002 -0.0060  0.0040  0.0084  0.0102
  56.  C 4 (d1)     0.0000 -0.0001  0.0000  0.0000  0.0008  0.0002 -0.0004 -0.0002
  57.  H 5 (s)     -0.0001 -0.0001 -0.0002 -0.0002  0.0391  0.0755  0.1208 -0.0448
  58.  H 5 (s)      0.0004  0.0001  0.0019  0.0018  0.0042  0.0194  0.0487 -0.0203
  59.  H 6 (s)     -0.0002 -0.0001 -0.0002 -0.0002  0.0439  0.0714  0.1017 -0.1140
  60.  H 6 (s)     -0.0002  0.0000  0.0019  0.0019  0.0063  0.0115  0.0419 -0.0641
  61.  H 7 (s)     -0.0004 -0.0001 -0.0001  0.0000  0.0655  0.0435 -0.0625  0.1665
  62.  H 7 (s)      0.0013  0.0017 -0.0004  0.0000  0.0053  0.0056 -0.0180  0.0847
  63.  H 8 (s)     -0.0004  0.0001 -0.0001  0.0000  0.0655 -0.0435 -0.0625 -0.1665
  64.  H 8 (s)      0.0013 -0.0017 -0.0004  0.0000  0.0053 -0.0056 -0.0180 -0.0847
  65.  H 9 (s)     -0.0002  0.0001 -0.0002  0.0002  0.0439 -0.0714  0.1017  0.1140
  66.  H 9 (s)     -0.0002  0.0000  0.0019 -0.0019  0.0063 -0.0115  0.0419  0.0641
  67.  H10 (s)     -0.0001  0.0001 -0.0002  0.0002  0.0391 -0.0755  0.1208  0.0448
  68.  H10 (s)      0.0004 -0.0001  0.0019 -0.0018  0.0042 -0.0194  0.0487  0.0203

           AO          9      10      11      12      13      14      15      16
      ------------ ------- ------- ------- ------- ------- ------- ------- -------
   1.  C 1 (s)     -0.0178  0.0066 -0.0202 -0.0047  0.0033  0.0000  0.0000  0.0000
   2.  C 1 (s)      0.0366 -0.0126  0.0417  0.0106 -0.0071  0.0000  0.0000  0.0000
   3.  C 1 (px)     0.1364  0.2348 -0.0794  0.2700 -0.1854  0.0000  0.0000  0.0000
   4.  C 1 (py)     0.2562 -0.1028 -0.2882 -0.0963 -0.0064  0.0000  0.0000  0.0000
   5.  C 1 (pz)     0.0000  0.0000  0.0000  0.0000  0.0000  0.2212  0.3053  0.2927
   6.  C 1 (s)      0.0628 -0.0169  0.0193 -0.0035  0.0071  0.0000  0.0000  0.0000
   7.  C 1 (px)     0.0661  0.1054 -0.0335  0.1593 -0.1225  0.0000  0.0000  0.0000
   8.  C 1 (py)     0.0994 -0.0426 -0.1103 -0.0392 -0.0188  0.0000  0.0000  0.0000
   9.  C 1 (pz)     0.0000  0.0000  0.0000  0.0000  0.0000  0.1664  0.2797  0.5075
  10.  C 1 (d5)    -0.0054  0.0023  0.0035  0.0012  0.0000  0.0000  0.0000  0.0000
  11.  C 1 (d2)     0.0000  0.0000  0.0000  0.0000  0.0000 -0.0009  0.0006  0.0026
  12.  C 1 (d3)     0.0000  0.0000  0.0000  0.0000  0.0000 -0.0178 -0.0170  0.0138
  13.  C 1 (d4)     0.0154 -0.0063 -0.0149 -0.0048  0.0003  0.0000  0.0000  0.0000
  14.  C 1 (d1)     0.0065  0.0104 -0.0055  0.0246 -0.0255  0.0000  0.0000  0.0000
  15.  C 2 (s)      0.0318 -0.0085 -0.0011  0.0176  0.0149  0.0000  0.0000  0.0000
  16.  C 2 (s)     -0.0652  0.0143  0.0013 -0.0361 -0.0333  0.0000  0.0000  0.0000
  17.  C 2 (px)     0.0988  0.2319 -0.0237 -0.0779  0.2914  0.0000  0.0000  0.0000
  18.  C 2 (py)    -0.2029  0.0911  0.3012  0.1353  0.0323  0.0000  0.0000  0.0000
  19.  C 2 (pz)     0.0000  0.0000  0.0000  0.0000  0.0000  0.2954  0.2321 -0.2227
  20.  C 2 (s)     -0.0360  0.0170 -0.0208 -0.0413 -0.0386  0.0000  0.0000  0.0000
  21.  C 2 (px)     0.0292  0.0901 -0.0212 -0.0792  0.1689  0.0000  0.0000  0.0000
  22.  C 2 (py)    -0.0690  0.0128  0.1239  0.0518 -0.0214  0.0000  0.0000  0.0000
  23.  C 2 (pz)     0.0000  0.0000  0.0000  0.0000  0.0000  0.2078  0.2036 -0.3589
  24.  C 2 (d5)    -0.0015 -0.0013  0.0036  0.0027 -0.0016  0.0000  0.0000  0.0000
  25.  C 2 (d2)     0.0000  0.0000  0.0000  0.0000  0.0000 -0.0092  0.0056  0.0124
  26.  C 2 (d3)     0.0000  0.0000  0.0000  0.0000  0.0000  0.0082  0.0262  0.0244
  27.  C 2 (d4)     0.0045  0.0002 -0.0225 -0.0039  0.0050  0.0000  0.0000  0.0000
  28.  C 2 (d1)     0.0027 -0.0077  0.0030  0.0164 -0.0285  0.0000  0.0000  0.0000
  29.  C 3 (s)     -0.0318 -0.0085 -0.0011 -0.0176  0.0149  0.0000  0.0000  0.0000
  30.  C 3 (s)      0.0652  0.0143  0.0013  0.0361 -0.0333  0.0000  0.0000  0.0000
  31.  C 3 (px)     0.0988 -0.2319  0.0237 -0.0779 -0.2914  0.0000  0.0000  0.0000
  32.  C 3 (py)    -0.2029 -0.0911 -0.3012  0.1353 -0.0323  0.0000  0.0000  0.0000
  33.  C 3 (pz)     0.0000  0.0000  0.0000  0.0000  0.0000  0.2954 -0.2321 -0.2227
  34.  C 3 (s)      0.0360  0.0170 -0.0208  0.0413 -0.0386  0.0000  0.0000  0.0000
  35.  C 3 (px)     0.0292 -0.0901  0.0212 -0.0792 -0.1689  0.0000  0.0000  0.0000
  36.  C 3 (py)    -0.0690 -0.0128 -0.1239  0.0518  0.0214  0.0000  0.0000  0.0000
  37.  C 3 (pz)     0.0000  0.0000  0.0000  0.0000  0.0000  0.2078 -0.2036 -0.3589
  38.  C 3 (d5)     0.0015 -0.0013  0.0036 -0.0027 -0.0016  0.0000  0.0000  0.0000
  39.  C 3 (d2)     0.0000  0.0000  0.0000  0.0000  0.0000  0.0092  0.0056 -0.0124
  40.  C 3 (d3)     0.0000  0.0000  0.0000  0.0000  0.0000 -0.0082  0.0262 -0.0244
  41.  C 3 (d4)    -0.0045  0.0002 -0.0225  0.0039  0.0050  0.0000  0.0000  0.0000
  42.  C 3 (d1)    -0.0027 -0.0077  0.0030 -0.0164 -0.0285  0.0000  0.0000  0.0000
  43.  C 4 (s)      0.0178  0.0066 -0.0202  0.0047  0.0033  0.0000  0.0000  0.0000
  44.  C 4 (s)     -0.0366 -0.0126  0.0417 -0.0106 -0.0071  0.0000  0.0000  0.0000
  45.  C 4 (px)     0.1364 -0.2348  0.0794  0.2700  0.1854  0.0000  0.0000  0.0000
  46.  C 4 (py)     0.2562  0.1028  0.2882 -0.0963  0.0064  0.0000  0.0000  0.0000
  47.  C 4 (pz)     0.0000  0.0000  0.0000  0.0000  0.0000  0.2212 -0.3053  0.2927
  48.  C 4 (s)     -0.0628 -0.0169  0.0193  0.0035  0.0071  0.0000  0.0000  0.0000
  49.  C 4 (px)     0.0661 -0.1054  0.0335  0.1593  0.1225  0.0000  0.0000  0.0000
  50.  C 4 (py)     0.0994  0.0426  0.1103 -0.0392  0.0188  0.0000  0.0000  0.0000
  51.  C 4 (pz)     0.0000  0.0000  0.0000  0.0000  0.0000  0.1664 -0.2797  0.5075
  52.  C 4 (d5)     0.0054  0.0023  0.0035 -0.0012  0.0000  0.0000  0.0000  0.0000
  53.  C 4 (d2)     0.0000  0.0000  0.0000  0.0000  0.0000  0.0009  0.0006 -0.0026
  54.  C 4 (d3)     0.0000  0.0000  0.0000  0.0000  0.0000  0.0178 -0.0170 -0.0138
  55.  C 4 (d4)    -0.0154 -0.0063 -0.0149  0.0048  0.0003  0.0000  0.0000  0.0000
  56.  C 4 (d1)    -0.0065  0.0104 -0.0055 -0.0246 -0.0255  0.0000  0.0000  0.0000
  57.  H 5 (s)      0.1654  0.0772 -0.1231  0.1266 -0.1250  0.0000  0.0000  0.0000
  58.  H 5 (s)      0.1087  0.0509 -0.1061  0.0940 -0.1028  0.0000  0.0000  0.0000
  59.  H 6 (s)      0.0291 -0.1546 -0.0368 -0.1827  0.1188  0.0000  0.0000  0.0000
  60.  H 6 (s)      0.0216 -0.1034 -0.0381 -0.1394  0.1125  0.0000  0.0000  0.0000
  61.  H 7 (s)      0.0757  0.0968 -0.1138 -0.1089  0.1639  0.0000  0.0000  0.0000
  62.  H 7 (s)      0.0564  0.0606 -0.0944 -0.0721  0.1450  0.0000  0.0000  0.0000
  63.  H 8 (s)     -0.0757  0.0968 -0.1138  0.1089  0.1639  0.0000  0.0000  0.0000
  64.  H 8 (s)     -0.0564  0.0606 -0.0944  0.0721  0.1450  0.0000  0.0000  0.0000
  65.  H 9 (s)     -0.0291 -0.1546 -0.0368  0.1827  0.1188  0.0000  0.0000  0.0000
  66.  H 9 (s)     -0.0216 -0.1034 -0.0381  0.1394  0.1125  0.0000  0.0000  0.0000
  67.  H10 (s)     -0.1654  0.0772 -0.1231 -0.1266 -0.1250  0.0000  0.0000  0.0000
  68.  H10 (s)     -0.1087  0.0509 -0.1061 -0.0940 -0.1028  0.0000  0.0000  0.0000

           AO         17      18      19      20      21      22      23      24
      ------------ ------- ------- ------- ------- ------- ------- ------- -------
   1.  C 1 (s)      0.0000 -0.0274 -0.0517 -0.0869  0.0601  0.0123  0.0467  0.0400
   2.  C 1 (s)      0.0000  0.0251  0.0399  0.1001 -0.0525 -0.0161 -0.0382  0.0710
   3.  C 1 (px)     0.0000 -0.1501  0.0363  0.0484  0.1705 -0.1639 -0.1842 -0.0657
   4.  C 1 (py)     0.0000  0.0480  0.1431  0.0899 -0.0632 -0.0013 -0.0523 -0.0013
   5.  C 1 (pz)    -0.1636  0.0000  0.0000  0.0000  0.0000  0.0000  0.0000  0.0000
   6.  C 1 (s)      0.0000  0.4495  1.0332  1.4746 -1.1398 -0.0648 -0.8307 -2.8481
   7.  C 1 (px)     0.0000 -0.4349 -0.0092  0.2985  0.7710 -0.9991 -1.1140  0.1149
   8.  C 1 (py)     0.0000  0.1957  0.5433  0.4280 -0.0160  0.0306  0.0323  2.3229
   9.  C 1 (pz)    -0.5539  0.0000  0.0000  0.0000  0.0000  0.0000  0.0000  0.0000
  10.  C 1 (d5)     0.0000 -0.0026 -0.0021  0.0000  0.0025  0.0020  0.0019  0.0177
  11.  C 1 (d2)     0.0067  0.0000  0.0000  0.0000  0.0000  0.0000  0.0000  0.0000
  12.  C 1 (d3)    -0.0233  0.0000  0.0000  0.0000  0.0000  0.0000  0.0000  0.0000
  13.  C 1 (d4)     0.0000 -0.0006 -0.0062 -0.0030 -0.0034 -0.0065 -0.0037 -0.0138
  14.  C 1 (d1)     0.0000  0.0096 -0.0087 -0.0048 -0.0125  0.0103 -0.0104 -0.0151
  15.  C 2 (s)      0.0000  0.0380 -0.0388 -0.0128 -0.0442 -0.0794 -0.0404 -0.0446
  16.  C 2 (s)      0.0000 -0.0338  0.0359 -0.0158  0.0575  0.1106  0.0218  0.0274
  17.  C 2 (px)     0.0000 -0.1566  0.1198  0.0379  0.0686 -0.0162  0.1290 -0.0917
  18.  C 2 (py)     0.0000  0.0604 -0.0737 -0.0537 -0.0055 -0.1192  0.0111  0.1182
  19.  C 2 (pz)     0.3103  0.0000  0.0000  0.0000  0.0000  0.0000  0.0000  0.0000
  20.  C 2 (s)      0.0000 -0.5790  0.8628  0.6494  0.7387  1.1223  1.1857  2.3453
  21.  C 2 (px)     0.0000 -0.4349  0.5731 -0.2850  0.1075  0.3380  0.9179 -0.8261
  22.  C 2 (py)     0.0000  0.1805 -0.3314 -0.4362  0.1277 -0.4369 -0.1683  2.8954
  23.  C 2 (pz)     0.7953  0.0000  0.0000  0.0000  0.0000  0.0000  0.0000  0.0000
  24.  C 2 (d5)     0.0000  0.0029  0.0002 -0.0028  0.0002  0.0038 -0.0047 -0.0104
  25.  C 2 (d2)     0.0207  0.0000  0.0000  0.0000  0.0000  0.0000  0.0000  0.0000
  26.  C 2 (d3)    -0.0053  0.0000  0.0000  0.0000  0.0000  0.0000  0.0000  0.0000
  27.  C 2 (d4)     0.0000  0.0070  0.0077 -0.0169  0.0045 -0.0072  0.0008 -0.0134
  28.  C 2 (d1)     0.0000 -0.0143  0.0017  0.0101  0.0163 -0.0224 -0.0104  0.0118
  29.  C 3 (s)      0.0000 -0.0380 -0.0388  0.0128 -0.0442  0.0794 -0.0404 -0.0446
  30.  C 3 (s)      0.0000  0.0338  0.0359  0.0158  0.0575 -0.1106  0.0218  0.0274
  31.  C 3 (px)     0.0000 -0.1566 -0.1198  0.0379 -0.0686 -0.0162 -0.1290  0.0917
  32.  C 3 (py)     0.0000  0.0604  0.0737 -0.0537  0.0055 -0.1192 -0.0111 -0.1182
  33.  C 3 (pz)    -0.3103  0.0000  0.0000  0.0000  0.0000  0.0000  0.0000  0.0000
  34.  C 3 (s)      0.0000  0.5790  0.8628 -0.6494  0.7387 -1.1223  1.1857  2.3453
  35.  C 3 (px)     0.0000 -0.4349 -0.5731 -0.2850 -0.1075  0.3380 -0.9179  0.8261
  36.  C 3 (py)     0.0000  0.1805  0.3314 -0.4362 -0.1277 -0.4369  0.1683 -2.8954
  37.  C 3 (pz)    -0.7953  0.0000  0.0000  0.0000  0.0000  0.0000  0.0000  0.0000
  38.  C 3 (d5)     0.0000 -0.0029  0.0002  0.0028  0.0002 -0.0038 -0.0047 -0.0104
  39.  C 3 (d2)     0.0207  0.0000  0.0000  0.0000  0.0000  0.0000  0.0000  0.0000
  40.  C 3 (d3)    -0.0053  0.0000  0.0000  0.0000  0.0000  0.0000  0.0000  0.0000
  41.  C 3 (d4)     0.0000 -0.0070  0.0077  0.0169  0.0045  0.0072  0.0008 -0.0134
  42.  C 3 (d1)     0.0000  0.0143  0.0017 -0.0101  0.0163  0.0224 -0.0104  0.0118
  43.  C 4 (s)      0.0000  0.0274 -0.0517  0.0869  0.0601 -0.0123  0.0467  0.0400
  44.  C 4 (s)      0.0000 -0.0251  0.0399 -0.1001 -0.0525  0.0161 -0.0382  0.0710
  45.  C 4 (px)     0.0000 -0.1501 -0.0363  0.0484 -0.1705 -0.1639  0.1842  0.0657
  46.  C 4 (py)     0.0000  0.0480 -0.1431  0.0899  0.0632 -0.0013  0.0523  0.0013
  47.  C 4 (pz)     0.1636  0.0000  0.0000  0.0000  0.0000  0.0000  0.0000  0.0000
  48.  C 4 (s)      0.0000 -0.4495  1.0332 -1.4746 -1.1398  0.0648 -0.8307 -2.8481
  49.  C 4 (px)     0.0000 -0.4349  0.0092  0.2985 -0.7710 -0.9991  1.1140 -0.1149
  50.  C 4 (py)     0.0000  0.1957 -0.5433  0.4280  0.0160  0.0306 -0.0323 -2.3229
  51.  C 4 (pz)     0.5539  0.0000  0.0000  0.0000  0.0000  0.0000  0.0000  0.0000
  52.  C 4 (d5)     0.0000  0.0026 -0.0021  0.0000  0.0025 -0.0020  0.0019  0.0177
  53.  C 4 (d2)     0.0067  0.0000  0.0000  0.0000  0.0000  0.0000  0.0000  0.0000
  54.  C 4 (d3)    -0.0233  0.0000  0.0000  0.0000  0.0000  0.0000  0.0000  0.0000
  55.  C 4 (d4)     0.0000  0.0006 -0.0062  0.0030 -0.0034  0.0065 -0.0037 -0.0138
  56.  C 4 (d1)     0.0000 -0.0096 -0.0087  0.0048 -0.0125 -0.0103 -0.0104 -0.0151
  57.  H 5 (s)      0.0000  0.0079 -0.0324 -0.0221 -0.0175  0.0296 -0.0265 -0.1070
  58.  H 5 (s)      0.0000  0.2339 -0.9162 -1.2136 -0.2886  1.0769  1.4489 -0.2740
  59.  H 6 (s)      0.0000 -0.0168  0.0109 -0.0159  0.0402 -0.0307  0.0370 -0.0281
  60.  H 6 (s)      0.0000 -0.9309 -0.6504 -0.6745  1.4619 -0.9308 -0.5615 -0.2998
  61.  H 7 (s)      0.0000  0.0414  0.0215 -0.0344 -0.0501  0.0021  0.0197 -0.0094
  62.  H 7 (s)      0.0000  1.0897 -0.9900 -0.3371 -0.6028 -1.0588 -1.2223  1.2948
  63.  H 8 (s)      0.0000 -0.0414  0.0215  0.0344 -0.0501 -0.0021  0.0197 -0.0094
  64.  H 8 (s)      0.0000 -1.0897 -0.9900  0.3371 -0.6028  1.0588 -1.2223  1.2948
  65.  H 9 (s)      0.0000  0.0168  0.0109  0.0159  0.0402  0.0307  0.0370 -0.0281
  66.  H 9 (s)      0.0000  0.9309 -0.6504  0.6745  1.4619  0.9308 -0.5615 -0.2998
  67.  H10 (s)      0.0000 -0.0079 -0.0324  0.0221 -0.0175 -0.0296 -0.0265 -0.1070
  68.  H10 (s)      0.0000 -0.2339 -0.9162  1.2136 -0.2886 -1.0769  1.4489 -0.2740

           AO         25      26      27      28      29      30      31      32
      ------------ ------- ------- ------- ------- ------- ------- ------- -------
   1.  C 1 (s)      0.0587  0.0348 -0.0032 -0.0097  0.0000 -0.0001  0.0000 -0.0040
   2.  C 1 (s)      0.0115 -0.0975  0.2284 -0.0597  0.0000 -0.5536  0.0000 -0.4277
   3.  C 1 (px)     0.0720  0.0091 -0.1499 -0.2289  0.0000  0.0370  0.0000 -0.2107
   4.  C 1 (py)    -0.0573  0.1947 -0.3733  0.2440  0.0000  0.1613  0.0000  0.1271
   5.  C 1 (pz)     0.0000  0.0000  0.0000  0.0000  0.5153  0.0000  0.7541  0.0000
   6.  C 1 (s)     -1.4199 -1.3917 -0.2960 -0.4503  0.0000  0.2327  0.0000  0.3957
   7.  C 1 (px)     1.0180 -0.9092 -0.0678  0.3722  0.0000 -0.0798  0.0000  0.6473
   8.  C 1 (py)     1.4673  1.6985  0.6894 -0.4562  0.0000  0.3593  0.0000  0.1106
   9.  C 1 (pz)     0.0000  0.0000  0.0000  0.0000 -0.4341  0.0000 -0.7217  0.0000
  10.  C 1 (d5)     0.0082 -0.0009  0.0014  0.0082  0.0000  0.0608  0.0000  0.0576
  11.  C 1 (d2)     0.0000  0.0000  0.0000  0.0000  0.0039  0.0000 -0.0033  0.0000
  12.  C 1 (d3)     0.0000  0.0000  0.0000  0.0000 -0.0437  0.0000 -0.0231  0.0000
  13.  C 1 (d4)    -0.0243 -0.0093 -0.0203  0.0376  0.0000 -0.0097  0.0000 -0.0097
  14.  C 1 (d1)     0.0228 -0.0085 -0.0650 -0.0544  0.0000  0.0021  0.0000 -0.0238
  15.  C 2 (s)     -0.0961  0.0008  0.0489 -0.0043  0.0000 -0.0204  0.0000 -0.0564
  16.  C 2 (s)      0.0281 -0.0004 -0.0406 -0.0257  0.0000 -0.8225  0.0000 -0.2131
  17.  C 2 (px)    -0.1577  0.1639  0.1549 -0.2367  0.0000  0.1624  0.0000 -0.3503
  18.  C 2 (py)     0.1352  0.1203  0.3186 -0.2995  0.0000  0.0440  0.0000 -0.2109
  19.  C 2 (pz)     0.0000  0.0000  0.0000  0.0000  0.5306  0.0000  0.1483  0.0000
  20.  C 2 (s)      3.5066 -0.0520  0.0531  0.1422  0.0000  1.2886  0.0000  0.8072
  21.  C 2 (px)    -1.8657  2.1145  0.4236  0.2080  0.0000 -0.0977  0.0000  0.0948
  22.  C 2 (py)     0.0783  2.3100 -0.0697  0.7620  0.0000  0.4106  0.0000  0.1032
  23.  C 2 (pz)     0.0000  0.0000  0.0000  0.0000 -0.3862  0.0000 -0.1334  0.0000
  24.  C 2 (d5)    -0.0143  0.0010 -0.0353  0.0040  0.0000  0.1005  0.0000  0.0862
  25.  C 2 (d2)     0.0000  0.0000  0.0000  0.0000 -0.0233  0.0000 -0.0067  0.0000
  26.  C 2 (d3)     0.0000  0.0000  0.0000  0.0000  0.0352  0.0000  0.0481  0.0000
  27.  C 2 (d4)    -0.0066  0.0379 -0.0570  0.0341  0.0000 -0.0080  0.0000 -0.0370
  28.  C 2 (d1)    -0.0023 -0.0032  0.0608  0.0548  0.0000 -0.0072  0.0000  0.0040
  29.  C 3 (s)      0.0961 -0.0008 -0.0489 -0.0043  0.0000 -0.0204  0.0000  0.0564
  30.  C 3 (s)     -0.0281  0.0004  0.0406 -0.0257  0.0000 -0.8225  0.0000  0.2131
  31.  C 3 (px)    -0.1577  0.1639  0.1549  0.2367  0.0000 -0.1624  0.0000 -0.3503
  32.  C 3 (py)     0.1352  0.1203  0.3186  0.2995  0.0000 -0.0440  0.0000 -0.2109
  33.  C 3 (pz)     0.0000  0.0000  0.0000  0.0000  0.5306  0.0000 -0.1483  0.0000
  34.  C 3 (s)     -3.5066  0.0520 -0.0531  0.1422  0.0000  1.2886  0.0000 -0.8072
  35.  C 3 (px)    -1.8657  2.1145  0.4236 -0.2080  0.0000  0.0977  0.0000  0.0948
  36.  C 3 (py)     0.0783  2.3100 -0.0697 -0.7620  0.0000 -0.4106  0.0000  0.1032
  37.  C 3 (pz)     0.0000  0.0000  0.0000  0.0000 -0.3862  0.0000  0.1334  0.0000
  38.  C 3 (d5)     0.0143 -0.0010  0.0353  0.0040  0.0000  0.1005  0.0000 -0.0862
  39.  C 3 (d2)     0.0000  0.0000  0.0000  0.0000  0.0233  0.0000 -0.0067  0.0000
  40.  C 3 (d3)     0.0000  0.0000  0.0000  0.0000 -0.0352  0.0000  0.0481  0.0000
  41.  C 3 (d4)     0.0066 -0.0379  0.0570  0.0341  0.0000 -0.0080  0.0000  0.0370
  42.  C 3 (d1)     0.0023  0.0032 -0.0608  0.0548  0.0000 -0.0072  0.0000 -0.0040
  43.  C 4 (s)     -0.0587 -0.0348  0.0032 -0.0097  0.0000 -0.0001  0.0000  0.0040
  44.  C 4 (s)     -0.0115  0.0975 -0.2284 -0.0597  0.0000 -0.5536  0.0000  0.4277
  45.  C 4 (px)     0.0720  0.0091 -0.1499  0.2289  0.0000 -0.0370  0.0000 -0.2107
  46.  C 4 (py)    -0.0573  0.1947 -0.3733 -0.2440  0.0000 -0.1613  0.0000  0.1271
  47.  C 4 (pz)     0.0000  0.0000  0.0000  0.0000  0.5153  0.0000 -0.7541  0.0000
  48.  C 4 (s)      1.4199  1.3917  0.2960 -0.4503  0.0000  0.2327  0.0000 -0.3957
  49.  C 4 (px)     1.0180 -0.9092 -0.0678 -0.3722  0.0000  0.0798  0.0000  0.6473
  50.  C 4 (py)     1.4673  1.6985  0.6894  0.4562  0.0000 -0.3593  0.0000  0.1106
  51.  C 4 (pz)     0.0000  0.0000  0.0000  0.0000 -0.4341  0.0000  0.7217  0.0000
  52.  C 4 (d5)    -0.0082  0.0009 -0.0014  0.0082  0.0000  0.0608  0.0000 -0.0576
  53.  C 4 (d2)     0.0000  0.0000  0.0000  0.0000 -0.0039  0.0000 -0.0033  0.0000
  54.  C 4 (d3)     0.0000  0.0000  0.0000  0.0000  0.0437  0.0000 -0.0231  0.0000
  55.  C 4 (d4)     0.0243  0.0093  0.0203  0.0376  0.0000 -0.0097  0.0000  0.0097
  56.  C 4 (d1)    -0.0228  0.0085  0.0650 -0.0544  0.0000  0.0021  0.0000  0.0238
  57.  H 5 (s)      0.0152 -0.0784 -0.2349 -0.1566  0.0000 -0.1669  0.0000 -0.3023
  58.  H 5 (s)     -0.7636 -0.0105  0.2671  0.1135  0.0000 -0.1158  0.0000 -0.3180
  59.  H 6 (s)     -0.1104 -0.0435  0.1174  0.2822  0.0000 -0.2152  0.0000 -0.0166
  60.  H 6 (s)      0.6483 -1.1234 -0.2879  0.0980  0.0000 -0.1715  0.0000  0.1748
  61.  H 7 (s)      0.0066  0.0534 -0.1866 -0.1453  0.0000 -0.2614  0.0000 -0.4198
  62.  H 7 (s)      0.5897 -0.6422 -0.1147  0.1705  0.0000 -0.0249  0.0000  0.0246
  63.  H 8 (s)     -0.0066 -0.0534  0.1866 -0.1453  0.0000 -0.2614  0.0000  0.4198
  64.  H 8 (s)     -0.5897  0.6422  0.1147  0.1705  0.0000 -0.0249  0.0000 -0.0246
  65.  H 9 (s)      0.1104  0.0435 -0.1174  0.2822  0.0000 -0.2152  0.0000  0.0166
  66.  H 9 (s)     -0.6483  1.1234  0.2879  0.0980  0.0000 -0.1715  0.0000 -0.1748
  67.  H10 (s)     -0.0152  0.0784  0.2349 -0.1566  0.0000 -0.1669  0.0000  0.3023
  68.  H10 (s)      0.7636  0.0105 -0.2671  0.1135  0.0000 -0.1158  0.0000  0.3180

           AO         33      34      35      36      37      38      39      40
      ------------ ------- ------- ------- ------- ------- ------- ------- -------
   1.  C 1 (s)      0.0000 -0.0549  0.0000 -0.0643 -0.0051 -0.0135 -0.0173 -0.0185
   2.  C 1 (s)      0.0000 -0.3474  0.0000 -0.2521  0.0159  0.2121  0.3705  0.2981
   3.  C 1 (px)     0.0000  0.0980  0.0000  0.0062 -0.7338 -0.6510  0.1761  0.5148
   4.  C 1 (py)     0.0000 -0.3605  0.0000 -0.4385  0.0335  0.0566  0.0846  0.0716
   5.  C 1 (pz)     0.2209  0.0000 -0.5787  0.0000  0.0000  0.0000  0.0000  0.0000
   6.  C 1 (s)      0.0000  0.9765  0.0000  1.3657 -0.4255 -0.3448 -1.5217 -0.2478
   7.  C 1 (px)     0.0000 -0.2655  0.0000 -0.0300  1.8869  1.3697 -0.0504 -1.7528
   8.  C 1 (py)     0.0000  0.3928  0.0000  0.1380  0.0438 -0.0213  0.2548 -0.2115
   9.  C 1 (pz)    -0.4912  0.0000  0.8096  0.0000  0.0000  0.0000  0.0000  0.0000
  10.  C 1 (d5)     0.0000  0.1115  0.0000  0.1054  0.0209  0.0086  0.0389  0.0184
  11.  C 1 (d2)     0.0259  0.0000  0.0094  0.0000  0.0000  0.0000  0.0000  0.0000
  12.  C 1 (d3)     0.0454  0.0000 -0.0033  0.0000  0.0000  0.0000  0.0000  0.0000
  13.  C 1 (d4)     0.0000  0.0253  0.0000  0.0264  0.0047 -0.0111  0.0026 -0.0383
  14.  C 1 (d1)     0.0000  0.0245  0.0000 -0.0078  0.0896  0.0795 -0.0857 -0.0035
  15.  C 2 (s)      0.0000  0.0511  0.0000  0.0522 -0.0120  0.0297 -0.0178  0.0192
  16.  C 2 (s)      0.0000 -0.2948  0.0000  0.0544  0.0630 -0.2680  0.4716 -0.2210
  17.  C 2 (px)     0.0000  0.1570  0.0000 -0.1487  0.2945 -0.2048  0.6160 -0.6393
  18.  C 2 (py)     0.0000 -0.2960  0.0000 -0.3964 -0.1309  0.1582 -0.3837  0.1947
  19.  C 2 (pz)    -0.7802  0.0000  0.5603  0.0000  0.0000  0.0000  0.0000  0.0000
  20.  C 2 (s)      0.0000  0.0621  0.0000 -0.5171 -0.4417  0.5740 -0.6991 -0.7068
  21.  C 2 (px)     0.0000 -0.2454  0.0000  0.3216 -1.3494  0.0746 -1.6160  2.3390
  22.  C 2 (py)     0.0000  0.0541  0.0000 -0.3648  0.7074 -0.1105  1.6778 -0.0248
  23.  C 2 (pz)     1.3059  0.0000 -0.6886  0.0000  0.0000  0.0000  0.0000  0.0000
  24.  C 2 (d5)     0.0000 -0.0372  0.0000 -0.0835  0.0110 -0.0599  0.0232 -0.0003
  25.  C 2 (d2)     0.0117  0.0000 -0.0318  0.0000  0.0000  0.0000  0.0000  0.0000
  26.  C 2 (d3)    -0.0267  0.0000 -0.0539  0.0000  0.0000  0.0000  0.0000  0.0000
  27.  C 2 (d4)     0.0000 -0.0533  0.0000 -0.0336  0.0086  0.0539 -0.0291  0.0326
  28.  C 2 (d1)     0.0000  0.0039  0.0000 -0.0038 -0.0971 -0.1029  0.0534 -0.0527
  29.  C 3 (s)      0.0000 -0.0511  0.0000  0.0522 -0.0120 -0.0297 -0.0178 -0.0192
  30.  C 3 (s)      0.0000  0.2948  0.0000  0.0544  0.0630  0.2680  0.4716  0.2210
  31.  C 3 (px)     0.0000  0.1570  0.0000  0.1487 -0.2945 -0.2048 -0.6160 -0.6393
  32.  C 3 (py)     0.0000 -0.2960  0.0000  0.3964  0.1309  0.1582  0.3837  0.1947
  33.  C 3 (pz)     0.7802  0.0000  0.5603  0.0000  0.0000  0.0000  0.0000  0.0000
  34.  C 3 (s)      0.0000 -0.0621  0.0000 -0.5171 -0.4417 -0.5740 -0.6991  0.7068
  35.  C 3 (px)     0.0000 -0.2454  0.0000 -0.3216  1.3494  0.0746  1.6160  2.3390
  36.  C 3 (py)     0.0000  0.0541  0.0000  0.3648 -0.7074 -0.1105 -1.6778 -0.0248
  37.  C 3 (pz)    -1.3059  0.0000 -0.6886  0.0000  0.0000  0.0000  0.0000  0.0000
  38.  C 3 (d5)     0.0000  0.0372  0.0000 -0.0835  0.0110  0.0599  0.0232  0.0003
  39.  C 3 (d2)     0.0117  0.0000  0.0318  0.0000  0.0000  0.0000  0.0000  0.0000
  40.  C 3 (d3)    -0.0267  0.0000  0.0539  0.0000  0.0000  0.0000  0.0000  0.0000
  41.  C 3 (d4)     0.0000  0.0533  0.0000 -0.0336  0.0086 -0.0539 -0.0291 -0.0326
  42.  C 3 (d1)     0.0000 -0.0039  0.0000 -0.0038 -0.0971  0.1029  0.0534  0.0527
  43.  C 4 (s)      0.0000  0.0549  0.0000 -0.0643 -0.0051  0.0135 -0.0173  0.0185
  44.  C 4 (s)      0.0000  0.3474  0.0000 -0.2521  0.0159 -0.2121  0.3705 -0.2981
  45.  C 4 (px)     0.0000  0.0980  0.0000 -0.0062  0.7338 -0.6510 -0.1761  0.5148
  46.  C 4 (py)     0.0000 -0.3605  0.0000  0.4385 -0.0335  0.0566 -0.0846  0.0716
  47.  C 4 (pz)    -0.2209  0.0000 -0.5787  0.0000  0.0000  0.0000  0.0000  0.0000
  48.  C 4 (s)      0.0000 -0.9765  0.0000  1.3657 -0.4255  0.3448 -1.5217  0.2478
  49.  C 4 (px)     0.0000 -0.2655  0.0000  0.0300 -1.8869  1.3697  0.0504 -1.7528
  50.  C 4 (py)     0.0000  0.3928  0.0000 -0.1380 -0.0438 -0.0213 -0.2548 -0.2115
  51.  C 4 (pz)     0.4912  0.0000  0.8096  0.0000  0.0000  0.0000  0.0000  0.0000
  52.  C 4 (d5)     0.0000 -0.1115  0.0000  0.1054  0.0209 -0.0086  0.0389 -0.0184
  53.  C 4 (d2)     0.0259  0.0000 -0.0094  0.0000  0.0000  0.0000  0.0000  0.0000
  54.  C 4 (d3)     0.0454  0.0000  0.0033  0.0000  0.0000  0.0000  0.0000  0.0000
  55.  C 4 (d4)     0.0000 -0.0253  0.0000  0.0264  0.0047  0.0111  0.0026  0.0383
  56.  C 4 (d1)     0.0000 -0.0245  0.0000 -0.0078  0.0896 -0.0795 -0.0857  0.0035
  57.  H 5 (s)      0.0000 -0.2434  0.0000 -0.3853  0.2640  0.0918 -0.2075 -0.2851
  58.  H 5 (s)      0.0000 -0.0483  0.0000 -0.0428 -1.1355 -0.7511  0.4765  1.1728
  59.  H 6 (s)      0.0000 -0.4505  0.0000 -0.3007 -0.3134 -0.2875 -0.0072 -0.0174
  60.  H 6 (s)      0.0000 -0.1812  0.0000 -0.0842  1.2726  1.0260 -0.0272 -0.6950
  61.  H 7 (s)      0.0000  0.1678  0.0000  0.1739  0.1092  0.4026 -0.3289  0.2615
  62.  H 7 (s)      0.0000  0.0986  0.0000 -0.3046  0.6757 -0.7272  1.6904 -1.3724
  63.  H 8 (s)      0.0000 -0.1678  0.0000  0.1739  0.1092 -0.4026 -0.3289 -0.2615
  64.  H 8 (s)      0.0000 -0.0986  0.0000 -0.3046  0.6757  0.7272  1.6904  1.3724
  65.  H 9 (s)      0.0000  0.4505  0.0000 -0.3007 -0.3134  0.2875 -0.0072  0.0174
  66.  H 9 (s)      0.0000  0.1812  0.0000 -0.0842  1.2726 -1.0260 -0.0272  0.6950
  67.  H10 (s)      0.0000  0.2434  0.0000 -0.3853  0.2640 -0.0918 -0.2075  0.2851
  68.  H10 (s)      0.0000  0.0483  0.0000 -0.0428 -1.1355  0.7511  0.4765 -1.1728

           AO         41      42      43      44      45      46      47      48
      ------------ ------- ------- ------- ------- ------- ------- ------- -------
   1.  C 1 (s)      0.0027  0.0237  0.0266  0.0042 -0.0088  0.0170 -0.0059  0.0229
   2.  C 1 (s)      0.7945 -0.5405 -0.6947 -1.1771 -0.3641  0.5159  0.1623  0.8048
   3.  C 1 (px)    -0.0493 -0.0152  0.0175  0.1041 -0.3358  0.0304 -0.1125 -0.0395
   4.  C 1 (py)    -0.2300 -0.5536 -0.4968  0.2249 -0.1405 -0.0169 -0.1798 -0.0712
   5.  C 1 (pz)     0.0000  0.0000  0.0000  0.0000  0.0000  0.0000  0.0000  0.0000
   6.  C 1 (s)     -2.2684  0.4679  0.9838  2.7398  4.0643 -2.1807  1.2699 -3.5037
   7.  C 1 (px)    -0.4123  0.2219 -0.4223 -0.5774  1.5960 -1.3273 -1.3939  1.9401
   8.  C 1 (py)     1.2057  1.0795  0.9859 -0.7834 -1.1372  0.8005 -0.2803  1.3596
   9.  C 1 (pz)     0.0000  0.0000  0.0000  0.0000  0.0000  0.0000  0.0000  0.0000
  10.  C 1 (d5)    -0.0420 -0.0488 -0.0638  0.0020 -0.0493 -0.0034 -0.0507  0.0099
  11.  C 1 (d2)     0.0000  0.0000  0.0000  0.0000  0.0000  0.0000  0.0000  0.0000
  12.  C 1 (d3)     0.0000  0.0000  0.0000  0.0000  0.0000  0.0000  0.0000  0.0000
  13.  C 1 (d4)     0.0558  0.1261  0.1092 -0.0558 -0.1116  0.0461 -0.0148  0.1352
  14.  C 1 (d1)     0.0506 -0.0291  0.0229  0.0326 -0.1140  0.1007  0.0656 -0.1102
  15.  C 2 (s)      0.0157 -0.0018  0.0145 -0.0007  0.0159 -0.0179  0.0021 -0.0579
  16.  C 2 (s)      0.7552 -0.2165 -0.2159  0.9224  0.4277 -0.9320  0.2320 -1.1519
  17.  C 2 (px)    -0.2715  0.1874 -0.3070  0.0000  0.0886  0.0087 -0.2579  0.1705
  18.  C 2 (py)    -0.5219 -0.2487 -0.0887  0.0612  0.4400  0.0525 -0.0517 -0.3271
  19.  C 2 (pz)     0.0000  0.0000  0.0000  0.0000  0.0000  0.0000  0.0000  0.0000
  20.  C 2 (s)     -2.2103  0.5315 -0.0733 -2.2757 -3.0930  2.4064  0.1916  6.6685
  21.  C 2 (px)     2.1581 -0.6372  1.3718  0.0313  0.0109  1.2777  2.5059 -3.2904
  22.  C 2 (py)     2.4708  0.8887  0.6964 -0.3945 -3.6249  0.7707 -1.9622  0.4978
  23.  C 2 (pz)     0.0000  0.0000  0.0000  0.0000  0.0000  0.0000  0.0000  0.0000
  24.  C 2 (d5)    -0.0311  0.0105 -0.0202 -0.0320  0.0210  0.0506 -0.0304 -0.0157
  25.  C 2 (d2)     0.0000  0.0000  0.0000  0.0000  0.0000  0.0000  0.0000  0.0000
  26.  C 2 (d3)     0.0000  0.0000  0.0000  0.0000  0.0000  0.0000  0.0000  0.0000
  27.  C 2 (d4)    -0.1540 -0.0426 -0.0071  0.1073 -0.0275 -0.0854 -0.0232  0.0174
  28.  C 2 (d1)    -0.0623  0.0072 -0.0482  0.0457  0.0160  0.0766  0.1142  0.0230
  29.  C 3 (s)     -0.0157 -0.0018 -0.0145 -0.0007  0.0159  0.0179  0.0021  0.0579
  30.  C 3 (s)     -0.7552 -0.2165  0.2159  0.9224  0.4277  0.9320  0.2320  1.1519
  31.  C 3 (px)    -0.2715 -0.1874 -0.3070  0.0000 -0.0886  0.0087  0.2579  0.1705
  32.  C 3 (py)    -0.5219  0.2487 -0.0887 -0.0612 -0.4400  0.0525  0.0517 -0.3271
  33.  C 3 (pz)     0.0000  0.0000  0.0000  0.0000  0.0000  0.0000  0.0000  0.0000
  34.  C 3 (s)      2.2103  0.5315  0.0733 -2.2757 -3.0930 -2.4064  0.1916 -6.6685
  35.  C 3 (px)     2.1581  0.6372  1.3718 -0.0313 -0.0109  1.2777 -2.5059 -3.2904
  36.  C 3 (py)     2.4708 -0.8887  0.6964  0.3945  3.6249  0.7707  1.9622  0.4978
  37.  C 3 (pz)     0.0000  0.0000  0.0000  0.0000  0.0000  0.0000  0.0000  0.0000
  38.  C 3 (d5)     0.0311  0.0105  0.0202 -0.0320  0.0210 -0.0506 -0.0304  0.0157
  39.  C 3 (d2)     0.0000  0.0000  0.0000  0.0000  0.0000  0.0000  0.0000  0.0000
  40.  C 3 (d3)     0.0000  0.0000  0.0000  0.0000  0.0000  0.0000  0.0000  0.0000
  41.  C 3 (d4)     0.1540 -0.0426  0.0071  0.1073 -0.0275  0.0854 -0.0232 -0.0174
  42.  C 3 (d1)     0.0623  0.0072  0.0482  0.0457  0.0160 -0.0766  0.1142 -0.0230
  43.  C 4 (s)     -0.0027  0.0237 -0.0266  0.0042 -0.0088 -0.0170 -0.0059 -0.0229
  44.  C 4 (s)     -0.7945 -0.5405  0.6947 -1.1771 -0.3641 -0.5159  0.1623 -0.8048
  45.  C 4 (px)    -0.0493  0.0152  0.0175 -0.1041  0.3358  0.0304  0.1125 -0.0395
  46.  C 4 (py)    -0.2300  0.5536 -0.4968 -0.2249  0.1405 -0.0169  0.1798 -0.0712
  47.  C 4 (pz)     0.0000  0.0000  0.0000  0.0000  0.0000  0.0000  0.0000  0.0000
  48.  C 4 (s)      2.2684  0.4679 -0.9838  2.7398  4.0643  2.1807  1.2699  3.5037
  49.  C 4 (px)    -0.4123 -0.2219 -0.4223  0.5774 -1.5960 -1.3273  1.3939  1.9401
  50.  C 4 (py)     1.2057 -1.0795  0.9859  0.7834  1.1372  0.8005  0.2803  1.3596
  51.  C 4 (pz)     0.0000  0.0000  0.0000  0.0000  0.0000  0.0000  0.0000  0.0000
  52.  C 4 (d5)     0.0420 -0.0488  0.0638  0.0020 -0.0493  0.0034 -0.0507 -0.0099
  53.  C 4 (d2)     0.0000  0.0000  0.0000  0.0000  0.0000  0.0000  0.0000  0.0000
  54.  C 4 (d3)     0.0000  0.0000  0.0000  0.0000  0.0000  0.0000  0.0000  0.0000
  55.  C 4 (d4)    -0.0558  0.1261 -0.1092 -0.0558 -0.1116 -0.0461 -0.0148 -0.1352
  56.  C 4 (d1)    -0.0506 -0.0291 -0.0229  0.0326 -0.1140 -0.1007  0.0656  0.1102
  57.  H 5 (s)      0.0486  0.3972  0.4170  0.1258 -0.4048  0.4859  0.3431 -0.2934
  58.  H 5 (s)     -0.0104 -0.9030 -0.7724 -0.1389 -0.7574  0.4120  0.2699 -0.3712
  59.  H 6 (s)     -0.0570  0.4839  0.4051 -0.1198  0.2045 -0.3106 -0.4360  0.4746
  60.  H 6 (s)     -0.1724 -0.8340 -1.1189 -0.5683  0.2171 -0.2474 -0.4052  0.7136
  61.  H 7 (s)     -0.0856 -0.1327  0.1558  0.0608 -0.2524 -0.4247 -0.8020  0.1787
  62.  H 7 (s)      0.1153  0.7058 -0.7444  0.2849 -0.2989 -0.5118 -1.1611  0.5096
  63.  H 8 (s)      0.0856 -0.1327 -0.1558  0.0608 -0.2524  0.4247 -0.8020 -0.1787
  64.  H 8 (s)     -0.1153  0.7058  0.7444  0.2849 -0.2989  0.5118 -1.1611 -0.5096
  65.  H 9 (s)      0.0570  0.4839 -0.4051 -0.1198  0.2045  0.3106 -0.4360 -0.4746
  66.  H 9 (s)      0.1724 -0.8340  1.1189 -0.5683  0.2171  0.2474 -0.4052 -0.7136
  67.  H10 (s)     -0.0486  0.3972 -0.4170  0.1258 -0.4048 -0.4859  0.3431  0.2934
  68.  H10 (s)      0.0104 -0.9030  0.7724 -0.1389 -0.7574 -0.4120  0.2699  0.3712

           AO         49      50      51      52      53      54      55      56
      ------------ ------- ------- ------- ------- ------- ------- ------- -------
   1.  C 1 (s)      0.0000  0.0000  0.0000  0.0000  0.0000 -0.0085  0.0052 -0.0171
   2.  C 1 (s)      0.0000  0.0000  0.0000  0.0000  0.0000 -0.0533  0.1659  0.1371
   3.  C 1 (px)     0.0000  0.0000  0.0000  0.0000  0.0000 -0.0907 -0.1738  0.1054
   4.  C 1 (py)     0.0000  0.0000  0.0000  0.0000  0.0000  0.1037 -0.1194 -0.1641
   5.  C 1 (pz)    -0.1295 -0.1056  0.0981 -0.0349 -0.0131  0.0000  0.0000  0.0000
   6.  C 1 (s)      0.0000  0.0000  0.0000  0.0000  0.0000 -0.6078  0.0217  0.5831
   7.  C 1 (px)     0.0000  0.0000  0.0000  0.0000  0.0000  0.2557 -0.0776 -0.3469
   8.  C 1 (py)     0.0000  0.0000  0.0000  0.0000  0.0000  0.4587 -0.1145 -0.0432
   9.  C 1 (pz)     0.0238 -0.0233 -0.0727  0.0800  0.0234  0.0000  0.0000  0.0000
  10.  C 1 (d5)     0.0000  0.0000  0.0000  0.0000  0.0000 -0.3532  0.2531 -0.0827
  11.  C 1 (d2)     0.1496 -0.1249  0.3539  0.6594  0.5946  0.0000  0.0000  0.0000
  12.  C 1 (d3)    -0.2806 -0.3733  0.3230 -0.1448 -0.1572  0.0000  0.0000  0.0000
  13.  C 1 (d4)     0.0000  0.0000  0.0000  0.0000  0.0000  0.1534  0.0083  0.3260
  14.  C 1 (d1)     0.0000  0.0000  0.0000  0.0000  0.0000 -0.1521 -0.3365  0.1680
  15.  C 2 (s)      0.0000  0.0000  0.0000  0.0000  0.0000 -0.0084  0.0214 -0.0041
  16.  C 2 (s)      0.0000  0.0000  0.0000  0.0000  0.0000 -0.5179 -0.0463  0.2117
  17.  C 2 (px)     0.0000  0.0000  0.0000  0.0000  0.0000  0.2430  0.0102  0.0852
  18.  C 2 (py)     0.0000  0.0000  0.0000  0.0000  0.0000  0.0774  0.1692  0.0557
  19.  C 2 (pz)     0.0192 -0.1531  0.0906 -0.0041 -0.0906  0.0000  0.0000  0.0000
  20.  C 2 (s)      0.0000  0.0000  0.0000  0.0000  0.0000  0.8068 -0.3312 -0.4467
  21.  C 2 (px)     0.0000  0.0000  0.0000  0.0000  0.0000 -0.6918 -0.1794  0.4171
  22.  C 2 (py)     0.0000  0.0000  0.0000  0.0000  0.0000  0.7527 -0.3077 -0.5444
  23.  C 2 (pz)     0.0194  0.0996  0.0315 -0.1988  0.0010  0.0000  0.0000  0.0000
  24.  C 2 (d5)     0.0000  0.0000  0.0000  0.0000  0.0000 -0.4601  0.2478 -0.1700
  25.  C 2 (d2)     0.3936 -0.2457  0.3722  0.1439 -0.3689  0.0000  0.0000  0.0000
  26.  C 2 (d3)     0.3358  0.4164 -0.2585  0.1210  0.0387  0.0000  0.0000  0.0000
  27.  C 2 (d4)     0.0000  0.0000  0.0000  0.0000  0.0000  0.1731  0.0923  0.4898
  28.  C 2 (d1)     0.0000  0.0000  0.0000  0.0000  0.0000  0.1829  0.4550 -0.2483
  29.  C 3 (s)      0.0000  0.0000  0.0000  0.0000  0.0000 -0.0084  0.0214  0.0041
  30.  C 3 (s)      0.0000  0.0000  0.0000  0.0000  0.0000 -0.5179 -0.0463 -0.2117
  31.  C 3 (px)     0.0000  0.0000  0.0000  0.0000  0.0000 -0.2430 -0.0102  0.0852
  32.  C 3 (py)     0.0000  0.0000  0.0000  0.0000  0.0000 -0.0774 -0.1692  0.0557
  33.  C 3 (pz)     0.0192  0.1531  0.0906  0.0041 -0.0906  0.0000  0.0000  0.0000
  34.  C 3 (s)      0.0000  0.0000  0.0000  0.0000  0.0000  0.8068 -0.3312  0.4467
  35.  C 3 (px)     0.0000  0.0000  0.0000  0.0000  0.0000  0.6918  0.1794  0.4171
  36.  C 3 (py)     0.0000  0.0000  0.0000  0.0000  0.0000 -0.7527  0.3077 -0.5444
  37.  C 3 (pz)     0.0194 -0.0996  0.0315  0.1988  0.0010  0.0000  0.0000  0.0000
  38.  C 3 (d5)     0.0000  0.0000  0.0000  0.0000  0.0000 -0.4601  0.2478  0.1700
  39.  C 3 (d2)    -0.3936 -0.2457 -0.3722  0.1439  0.3689  0.0000  0.0000  0.0000
  40.  C 3 (d3)    -0.3358  0.4164  0.2585  0.1210 -0.0387  0.0000  0.0000  0.0000
  41.  C 3 (d4)     0.0000  0.0000  0.0000  0.0000  0.0000  0.1731  0.0923 -0.4898
  42.  C 3 (d1)     0.0000  0.0000  0.0000  0.0000  0.0000  0.1829  0.4550  0.2483
  43.  C 4 (s)      0.0000  0.0000  0.0000  0.0000  0.0000 -0.0085  0.0052  0.0171
  44.  C 4 (s)      0.0000  0.0000  0.0000  0.0000  0.0000 -0.0533  0.1659 -0.1371
  45.  C 4 (px)     0.0000  0.0000  0.0000  0.0000  0.0000  0.0907  0.1738  0.1054
  46.  C 4 (py)     0.0000  0.0000  0.0000  0.0000  0.0000 -0.1037  0.1194 -0.1641
  47.  C 4 (pz)    -0.1295  0.1056  0.0981  0.0349 -0.0131  0.0000  0.0000  0.0000
  48.  C 4 (s)      0.0000  0.0000  0.0000  0.0000  0.0000 -0.6078  0.0217 -0.5831
  49.  C 4 (px)     0.0000  0.0000  0.0000  0.0000  0.0000 -0.2557  0.0776 -0.3469
  50.  C 4 (py)     0.0000  0.0000  0.0000  0.0000  0.0000 -0.4587  0.1145 -0.0432
  51.  C 4 (pz)     0.0238  0.0233 -0.0727 -0.0800  0.0234  0.0000  0.0000  0.0000
  52.  C 4 (d5)     0.0000  0.0000  0.0000  0.0000  0.0000 -0.3532  0.2531  0.0827
  53.  C 4 (d2)    -0.1496 -0.1249 -0.3539  0.6594 -0.5946  0.0000  0.0000  0.0000
  54.  C 4 (d3)     0.2806 -0.3733 -0.3230 -0.1448  0.1572  0.0000  0.0000  0.0000
  55.  C 4 (d4)     0.0000  0.0000  0.0000  0.0000  0.0000  0.1534  0.0083 -0.3260
  56.  C 4 (d1)     0.0000  0.0000  0.0000  0.0000  0.0000 -0.1521 -0.3365 -0.1680
  57.  H 5 (s)      0.0000  0.0000  0.0000  0.0000  0.0000 -0.0852  0.3703 -0.2372
  58.  H 5 (s)      0.0000  0.0000  0.0000  0.0000  0.0000 -0.1674 -0.0033  0.1749
  59.  H 6 (s)      0.0000  0.0000  0.0000  0.0000  0.0000 -0.2685 -0.1933 -0.1216
  60.  H 6 (s)      0.0000  0.0000  0.0000  0.0000  0.0000  0.1019  0.1128 -0.1117
  61.  H 7 (s)      0.0000  0.0000  0.0000  0.0000  0.0000  0.0382  0.3851 -0.5302
  62.  H 7 (s)      0.0000  0.0000  0.0000  0.0000  0.0000  0.2651 -0.0849 -0.0716
  63.  H 8 (s)      0.0000  0.0000  0.0000  0.0000  0.0000  0.0382  0.3851  0.5302
  64.  H 8 (s)      0.0000  0.0000  0.0000  0.0000  0.0000  0.2651 -0.0849  0.0716
  65.  H 9 (s)      0.0000  0.0000  0.0000  0.0000  0.0000 -0.2685 -0.1933  0.1216
  66.  H 9 (s)      0.0000  0.0000  0.0000  0.0000  0.0000  0.1019  0.1128  0.1117
  67.  H10 (s)      0.0000  0.0000  0.0000  0.0000  0.0000 -0.0852  0.3703  0.2372
  68.  H10 (s)      0.0000  0.0000  0.0000  0.0000  0.0000 -0.1674 -0.0033 -0.1749

           AO         57      58      59      60      61      62      63      64
      ------------ ------- ------- ------- ------- ------- ------- ------- -------
   1.  C 1 (s)     -0.0201  0.0000 -0.0221 -0.0141 -0.0354  0.0000 -0.0017  0.0000
   2.  C 1 (s)     -0.4043  0.0000 -0.1443  0.1017 -0.2762  0.0000  0.0370  0.0000
   3.  C 1 (px)     0.0823  0.0000 -0.1055  0.0123 -0.0027  0.0000 -0.0024  0.0000
   4.  C 1 (py)     0.2452  0.0000  0.0693 -0.1081  0.0272  0.0000 -0.0749  0.0000
   5.  C 1 (pz)     0.0000  0.0090  0.0000  0.0000  0.0000 -0.0920  0.0000 -0.0880
   6.  C 1 (s)      0.6201  0.0000  0.7627  1.0189  0.6874  0.0000 -0.1548  0.0000
   7.  C 1 (px)     0.4229  0.0000 -0.0528  0.0995 -0.3209  0.0000 -0.0175  0.0000
   8.  C 1 (py)    -0.2698  0.0000 -0.1577  0.0480 -0.3863  0.0000 -0.2867  0.0000
   9.  C 1 (pz)     0.0000  0.2029  0.0000  0.0000  0.0000 -0.1755  0.0000 -0.1036
  10.  C 1 (d5)    -0.5150  0.0000 -0.4057 -0.2226 -0.5512  0.0000  0.0503  0.0000
  11.  C 1 (d2)     0.0000 -0.2063  0.0000  0.0000  0.0000  0.0378  0.0000 -0.1000
  12.  C 1 (d3)     0.0000 -0.4512  0.0000  0.0000  0.0000  0.6254  0.0000  0.4876
  13.  C 1 (d4)    -0.0646  0.0000  0.3209  0.5811 -0.1818  0.0000 -0.4670  0.0000
  14.  C 1 (d1)     0.2502  0.0000 -0.4493  0.1252 -0.2743  0.0000 -0.3848  0.0000
  15.  C 2 (s)     -0.0184  0.0000 -0.0220  0.0120  0.0210  0.0000 -0.0479  0.0000
  16.  C 2 (s)     -0.4750  0.0000  0.0904  0.4819  0.0606  0.0000 -0.4462  0.0000
  17.  C 2 (px)     0.1477  0.0000 -0.2308 -0.0549 -0.1673  0.0000 -0.1384  0.0000
  18.  C 2 (py)    -0.0451  0.0000  0.0037  0.2412 -0.3820  0.0000 -0.3956  0.0000
  19.  C 2 (pz)     0.0000 -0.0760  0.0000  0.0000  0.0000  0.1022  0.0000  0.0153
  20.  C 2 (s)      1.1474  0.0000  0.4452 -0.8032 -0.6248  0.0000  1.6556  0.0000
  21.  C 2 (px)    -0.8350  0.0000 -0.6316  0.2255  0.0429  0.0000 -0.7350  0.0000
  22.  C 2 (py)    -0.4259  0.0000 -0.6669 -0.9532  0.2671  0.0000 -0.4908  0.0000
  23.  C 2 (pz)     0.0000 -0.3993  0.0000  0.0000  0.0000  0.1561  0.0000  0.0297
  24.  C 2 (d5)    -0.2730  0.0000 -0.0429  0.3125  0.3460  0.0000 -0.5152  0.0000
  25.  C 2 (d2)     0.0000  0.6212  0.0000  0.0000  0.0000 -0.1248  0.0000  0.4240
  26.  C 2 (d3)     0.0000 -0.1478  0.0000  0.0000  0.0000  0.6367  0.0000  0.6496
  27.  C 2 (d4)    -0.2439  0.0000  0.0629  0.2098 -0.2925  0.0000  0.3095  0.0000
  28.  C 2 (d1)    -0.1491  0.0000  0.3272 -0.0151  0.0132  0.0000 -0.0261  0.0000
  29.  C 3 (s)      0.0184  0.0000  0.0220  0.0120  0.0210  0.0000  0.0479  0.0000
  30.  C 3 (s)      0.4750  0.0000 -0.0904  0.4819  0.0606  0.0000  0.4462  0.0000
  31.  C 3 (px)     0.1477  0.0000 -0.2308  0.0549  0.1673  0.0000 -0.1384  0.0000
  32.  C 3 (py)    -0.0451  0.0000  0.0037 -0.2412  0.3820  0.0000 -0.3956  0.0000
  33.  C 3 (pz)     0.0000  0.0760  0.0000  0.0000  0.0000  0.1022  0.0000 -0.0153
  34.  C 3 (s)     -1.1474  0.0000 -0.4452 -0.8032 -0.6248  0.0000 -1.6556  0.0000
  35.  C 3 (px)    -0.8350  0.0000 -0.6316 -0.2255 -0.0429  0.0000 -0.7350  0.0000
  36.  C 3 (py)    -0.4259  0.0000 -0.6669  0.9532 -0.2671  0.0000 -0.4908  0.0000
  37.  C 3 (pz)     0.0000  0.3993  0.0000  0.0000  0.0000  0.1561  0.0000 -0.0297
  38.  C 3 (d5)     0.2730  0.0000  0.0429  0.3125  0.3460  0.0000  0.5152  0.0000
  39.  C 3 (d2)     0.0000  0.6212  0.0000  0.0000  0.0000  0.1248  0.0000  0.4240
  40.  C 3 (d3)     0.0000 -0.1478  0.0000  0.0000  0.0000 -0.6367  0.0000  0.6496
  41.  C 3 (d4)     0.2439  0.0000 -0.0629  0.2098 -0.2925  0.0000 -0.3095  0.0000
  42.  C 3 (d1)     0.1491  0.0000 -0.3272 -0.0151  0.0132  0.0000  0.0261  0.0000
  43.  C 4 (s)      0.0201  0.0000  0.0221 -0.0141 -0.0354  0.0000  0.0017  0.0000
  44.  C 4 (s)      0.4043  0.0000  0.1443  0.1017 -0.2762  0.0000 -0.0370  0.0000
  45.  C 4 (px)     0.0823  0.0000 -0.1055 -0.0123  0.0027  0.0000 -0.0024  0.0000
  46.  C 4 (py)     0.2452  0.0000  0.0693  0.1081 -0.0272  0.0000 -0.0749  0.0000
  47.  C 4 (pz)     0.0000 -0.0090  0.0000  0.0000  0.0000 -0.0920  0.0000  0.0880
  48.  C 4 (s)     -0.6201  0.0000 -0.7627  1.0189  0.6874  0.0000  0.1548  0.0000
  49.  C 4 (px)     0.4229  0.0000 -0.0528 -0.0995  0.3209  0.0000 -0.0175  0.0000
  50.  C 4 (py)    -0.2698  0.0000 -0.1577 -0.0480  0.3863  0.0000 -0.2867  0.0000
  51.  C 4 (pz)     0.0000 -0.2029  0.0000  0.0000  0.0000 -0.1755  0.0000  0.1036
  52.  C 4 (d5)     0.5150  0.0000  0.4057 -0.2226 -0.5512  0.0000 -0.0503  0.0000
  53.  C 4 (d2)     0.0000 -0.2063  0.0000  0.0000  0.0000 -0.0378  0.0000 -0.1000
  54.  C 4 (d3)     0.0000 -0.4512  0.0000  0.0000  0.0000 -0.6254  0.0000  0.4876
  55.  C 4 (d4)     0.0646  0.0000 -0.3209  0.5811 -0.1818  0.0000  0.4670  0.0000
  56.  C 4 (d1)    -0.2502  0.0000  0.4493  0.1252 -0.2743  0.0000  0.3848  0.0000
  57.  H 5 (s)     -0.4181  0.0000  0.0005 -0.4081  0.0163  0.0000  0.3689  0.0000
  58.  H 5 (s)     -0.0651  0.0000 -0.0261 -0.0440  0.0911  0.0000  0.0327  0.0000
  59.  H 6 (s)      0.0285  0.0000 -0.5922 -0.2103 -0.3790  0.0000 -0.0391  0.0000
  60.  H 6 (s)      0.0963  0.0000  0.1334 -0.0569 -0.0205  0.0000  0.1532  0.0000
  61.  H 7 (s)     -0.1028  0.0000  0.1636 -0.0193  0.3193  0.0000 -0.3576  0.0000
  62.  H 7 (s)      0.0838  0.0000  0.0521 -0.1387 -0.0215  0.0000  0.1184  0.0000
  63.  H 8 (s)      0.1028  0.0000 -0.1636 -0.0193  0.3193  0.0000  0.3576  0.0000
  64.  H 8 (s)     -0.0838  0.0000 -0.0521 -0.1387 -0.0215  0.0000 -0.1184  0.0000
  65.  H 9 (s)     -0.0285  0.0000  0.5922 -0.2103 -0.3790  0.0000  0.0391  0.0000
  66.  H 9 (s)     -0.0963  0.0000 -0.1334 -0.0569 -0.0205  0.0000 -0.1532  0.0000
  67.  H10 (s)      0.4181  0.0000 -0.0005 -0.4081  0.0163  0.0000 -0.3689  0.0000
  68.  H10 (s)      0.0651  0.0000  0.0261 -0.0440  0.0911  0.0000 -0.0327  0.0000

           AO         65      66      67      68
      ------------ ------- ------- ------- -------
   1.  C 1 (s)     -0.0306  0.0595  0.0109  0.0231
   2.  C 1 (s)      0.0972 -0.0782 -0.0702 -0.3048
   3.  C 1 (px)    -0.0337 -0.0186  0.0687 -0.0384
   4.  C 1 (py)    -0.3398  0.5338  0.1359  0.4778
   5.  C 1 (pz)     0.0000  0.0000  0.0000  0.0000
   6.  C 1 (s)      1.3143 -2.1411 -0.3529 -0.7901
   7.  C 1 (px)     0.3745  0.4328 -0.4415 -0.0022
   8.  C 1 (py)    -0.6541  1.0828  0.3116  0.4018
   9.  C 1 (pz)     0.0000  0.0000  0.0000  0.0000
  10.  C 1 (d5)    -0.2573  0.4708  0.0716  0.1633
  11.  C 1 (d2)     0.0000  0.0000  0.0000  0.0000
  12.  C 1 (d3)     0.0000  0.0000  0.0000  0.0000
  13.  C 1 (d4)    -0.4446  0.5737  0.1946  0.4557
  14.  C 1 (d1)     0.5886  0.0329 -0.5188  0.3695
  15.  C 2 (s)      0.0363 -0.0895  0.0390 -0.0259
  16.  C 2 (s)     -0.2528 -0.0044 -0.0027  0.1032
  17.  C 2 (px)     0.1634 -0.1052  0.2625  0.0785
  18.  C 2 (py)    -0.2507  0.3697  0.3368  0.3251
  19.  C 2 (pz)     0.0000  0.0000  0.0000  0.0000
  20.  C 2 (s)     -1.1733  3.3298 -1.0476  0.8454
  21.  C 2 (px)    -0.1008 -0.8770  1.0492 -0.0642
  22.  C 2 (py)    -0.9897  0.7257  0.7532  0.6413
  23.  C 2 (pz)     0.0000  0.0000  0.0000  0.0000
  24.  C 2 (d5)     0.2565 -0.6584  0.1817 -0.1829
  25.  C 2 (d2)     0.0000  0.0000  0.0000  0.0000
  26.  C 2 (d3)     0.0000  0.0000  0.0000  0.0000
  27.  C 2 (d4)     0.3297 -0.4591 -0.3865 -0.8329
  28.  C 2 (d1)     0.4328  0.2012 -0.8838  0.4248
  29.  C 3 (s)      0.0363  0.0895 -0.0390 -0.0259
  30.  C 3 (s)     -0.2528  0.0044  0.0027  0.1032
  31.  C 3 (px)    -0.1634 -0.1052  0.2625 -0.0785
  32.  C 3 (py)     0.2507  0.3697  0.3368 -0.3251
  33.  C 3 (pz)     0.0000  0.0000  0.0000  0.0000
  34.  C 3 (s)     -1.1733 -3.3298  1.0476  0.8454
  35.  C 3 (px)     0.1008 -0.8770  1.0492  0.0642
  36.  C 3 (py)     0.9897  0.7257  0.7532 -0.6413
  37.  C 3 (pz)     0.0000  0.0000  0.0000  0.0000
  38.  C 3 (d5)     0.2565  0.6584 -0.1817 -0.1829
  39.  C 3 (d2)     0.0000  0.0000  0.0000  0.0000
  40.  C 3 (d3)     0.0000  0.0000  0.0000  0.0000
  41.  C 3 (d4)     0.3297  0.4591  0.3865 -0.8329
  42.  C 3 (d1)     0.4328 -0.2012  0.8838  0.4248
  43.  C 4 (s)     -0.0306 -0.0595 -0.0109  0.0231
  44.  C 4 (s)      0.0972  0.0782  0.0702 -0.3048
  45.  C 4 (px)     0.0337 -0.0186  0.0687  0.0384
  46.  C 4 (py)     0.3398  0.5338  0.1359 -0.4778
  47.  C 4 (pz)     0.0000  0.0000  0.0000  0.0000
  48.  C 4 (s)      1.3143  2.1411  0.3529 -0.7901
  49.  C 4 (px)    -0.3745  0.4328 -0.4415  0.0022
  50.  C 4 (py)     0.6541  1.0828  0.3116 -0.4018
  51.  C 4 (pz)     0.0000  0.0000  0.0000  0.0000
  52.  C 4 (d5)    -0.2573 -0.4708 -0.0716  0.1633
  53.  C 4 (d2)     0.0000  0.0000  0.0000  0.0000
  54.  C 4 (d3)     0.0000  0.0000  0.0000  0.0000
  55.  C 4 (d4)    -0.4446 -0.5737 -0.1946  0.4557
  56.  C 4 (d1)     0.5886 -0.0329  0.5188  0.3695
  57.  H 5 (s)     -0.3140  0.0085  0.2260 -0.1730
  58.  H 5 (s)     -0.0299 -0.1480 -0.0068  0.0525
  59.  H 6 (s)      0.3059  0.1440 -0.2513  0.0759
  60.  H 6 (s)      0.0258  0.1055 -0.1590 -0.0158
  61.  H 7 (s)      0.1661 -0.0300 -0.2007  0.2786
  62.  H 7 (s)     -0.1451  0.1171 -0.0370 -0.0515
  63.  H 8 (s)      0.1661  0.0300  0.2007  0.2786
  64.  H 8 (s)     -0.1451 -0.1171  0.0370 -0.0515
  65.  H 9 (s)      0.3059 -0.1440  0.2513  0.0759
  66.  H 9 (s)      0.0258 -0.1055  0.1590 -0.0158
  67.  H10 (s)     -0.3140 -0.0085 -0.2260 -0.1730
  68.  H10 (s)     -0.0299  0.1480  0.0068  0.0525


 AO overlap matrix:

           AO          1       2       3       4       5       6       7       8
      ------------ ------- ------- ------- ------- ------- ------- ------- -------
   1.  C 1 (s)      1.0000  0.2191  0.0000  0.0000  0.0000  0.1843  0.0000  0.0000
   2.  C 1 (s)      0.2191  1.0000  0.0000  0.0000  0.0000  0.8123  0.0000  0.0000
   3.  C 1 (px)     0.0000  0.0000  1.0000  0.0000  0.0000  0.0000  0.5698  0.0000
   4.  C 1 (py)     0.0000  0.0000  0.0000  1.0000  0.0000  0.0000  0.0000  0.5698
   5.  C 1 (pz)     0.0000  0.0000  0.0000  0.0000  1.0000  0.0000  0.0000  0.0000
   6.  C 1 (s)      0.1843  0.8123  0.0000  0.0000  0.0000  1.0000  0.0000  0.0000
   7.  C 1 (px)     0.0000  0.0000  0.5698  0.0000  0.0000  0.0000  1.0000  0.0000
   8.  C 1 (py)     0.0000  0.0000  0.0000  0.5698  0.0000  0.0000  0.0000  1.0000
   9.  C 1 (pz)     0.0000  0.0000  0.0000  0.0000  0.5698  0.0000  0.0000  0.0000
  10.  C 1 (d5)     0.0000  0.0000  0.0000  0.0000  0.0000  0.0000  0.0000  0.0000
  11.  C 1 (d2)     0.0000  0.0000  0.0000  0.0000  0.0000  0.0000  0.0000  0.0000
  12.  C 1 (d3)     0.0000  0.0000  0.0000  0.0000  0.0000  0.0000  0.0000  0.0000
  13.  C 1 (d4)     0.0000  0.0000  0.0000  0.0000  0.0000  0.0000  0.0000  0.0000
  14.  C 1 (d1)     0.0000  0.0000  0.0000  0.0000  0.0000  0.0000  0.0000  0.0000
  15.  C 2 (s)      0.0000  0.0198  0.0000 -0.0432  0.0000  0.0647  0.0000 -0.1299
  16.  C 2 (s)      0.0198  0.2049  0.0000 -0.2838  0.0000  0.3607  0.0000 -0.5632
  17.  C 2 (px)     0.0000  0.0000  0.1168  0.0000  0.0000  0.0000  0.2437  0.0000
  18.  C 2 (py)     0.0432  0.2838  0.0000 -0.3347  0.0000  0.2539  0.0000 -0.1695
  19.  C 2 (pz)     0.0000  0.0000  0.0000  0.0000  0.1168  0.0000  0.0000  0.0000
  20.  C 2 (s)      0.0647  0.3607  0.0000 -0.2539  0.0000  0.5811  0.0000 -0.6055
  21.  C 2 (px)     0.0000  0.0000  0.2437  0.0000  0.0000  0.0000  0.5811  0.0000
  22.  C 2 (py)     0.1299  0.5632  0.0000 -0.1695  0.0000  0.6055  0.0000 -0.0499
  23.  C 2 (pz)     0.0000  0.0000  0.0000  0.0000  0.2437  0.0000  0.0000  0.0000
  24.  C 2 (d5)    -0.0262 -0.1213  0.0000  0.1360  0.0000 -0.0486  0.0000 -0.0096
  25.  C 2 (d2)     0.0000  0.0000  0.0000  0.0000  0.0000  0.0000  0.0000  0.0000
  26.  C 2 (d3)     0.0000  0.0000  0.0000  0.0000  0.1849  0.0000  0.0000  0.0000
  27.  C 2 (d4)    -0.0453 -0.2101  0.0000  0.2355  0.0000 -0.0842  0.0000 -0.0167
  28.  C 2 (d1)     0.0000  0.0000  0.1849  0.0000  0.0000  0.0000  0.1615  0.0000
  29.  C 3 (s)      0.0000  0.0000  0.0000  0.0000  0.0000  0.0054 -0.0097 -0.0172
  30.  C 3 (s)      0.0000  0.0035 -0.0039 -0.0069  0.0000  0.0516 -0.0732 -0.1300
  31.  C 3 (px)     0.0000  0.0039 -0.0029 -0.0078  0.0000  0.0307 -0.0121 -0.0794
  32.  C 3 (py)     0.0000  0.0069 -0.0078 -0.0123  0.0000  0.0544 -0.0794 -0.1083
  33.  C 3 (pz)     0.0000  0.0000  0.0000  0.0000  0.0015  0.0000  0.0000  0.0000
  34.  C 3 (s)      0.0054  0.0516 -0.0307 -0.0544  0.0000  0.1595 -0.1500 -0.2663
  35.  C 3 (px)     0.0097  0.0732 -0.0121 -0.0794  0.0000  0.1500  0.0185 -0.2504
  36.  C 3 (py)     0.0172  0.1300 -0.0794 -0.1083  0.0000  0.2663 -0.2504 -0.2851
  37.  C 3 (pz)     0.0000  0.0000  0.0000  0.0000  0.0326  0.0000  0.0000  0.0000
  38.  C 3 (d5)     0.0000 -0.0032  0.0036  0.0064  0.0000 -0.0194  0.0202  0.0359
  39.  C 3 (d2)     0.0000  0.0000  0.0000  0.0000  0.0010  0.0000  0.0000  0.0000
  40.  C 3 (d3)     0.0000  0.0000  0.0000  0.0000  0.0018  0.0000  0.0000  0.0000
  41.  C 3 (d4)     0.0000 -0.0029  0.0048  0.0049  0.0000 -0.0174  0.0443  0.0175
  42.  C 3 (d1)     0.0000  0.0047 -0.0044 -0.0100  0.0000  0.0288 -0.0141 -0.0621
  43.  C 4 (s)      0.0000  0.0000  0.0000  0.0000  0.0000  0.0001 -0.0001 -0.0003
  44.  C 4 (s)      0.0000  0.0000  0.0000  0.0000  0.0000  0.0016 -0.0023 -0.0067
  45.  C 4 (px)     0.0000  0.0000  0.0000  0.0000  0.0000  0.0009 -0.0003 -0.0038
  46.  C 4 (py)     0.0000  0.0000  0.0000  0.0000  0.0000  0.0026 -0.0038 -0.0099
  47.  C 4 (pz)     0.0000  0.0000  0.0000  0.0000  0.0000  0.0000  0.0000  0.0000
  48.  C 4 (s)      0.0001  0.0016 -0.0009 -0.0026  0.0000  0.0163 -0.0153 -0.0441
  49.  C 4 (px)     0.0001  0.0023 -0.0003 -0.0038  0.0000  0.0153  0.0019 -0.0415
  50.  C 4 (py)     0.0003  0.0067 -0.0038 -0.0099  0.0000  0.0441 -0.0415 -0.1034
  51.  C 4 (pz)     0.0000  0.0000  0.0000  0.0000  0.0010  0.0000  0.0000  0.0000
  52.  C 4 (d5)     0.0000  0.0000  0.0000  0.0000  0.0000 -0.0010  0.0013  0.0038
  53.  C 4 (d2)     0.0000  0.0000  0.0000  0.0000  0.0000  0.0000  0.0000  0.0000
  54.  C 4 (d3)     0.0000  0.0000  0.0000  0.0000  0.0000  0.0000  0.0000  0.0000
  55.  C 4 (d4)     0.0000  0.0000  0.0000  0.0000  0.0000 -0.0014  0.0025  0.0050
  56.  C 4 (d1)     0.0000  0.0000  0.0000  0.0000  0.0000  0.0011 -0.0005 -0.0044
  57.  H 5 (s)      0.0336  0.2773  0.3171  0.1963  0.0000  0.3793  0.4382  0.2714
  58.  H 5 (s)      0.0928  0.4787  0.2260  0.1400  0.0000  0.7071  0.4946  0.3063
  59.  H 6 (s)      0.0333  0.2760 -0.3171  0.1939  0.0000  0.3785 -0.4396  0.2688
  60.  H 6 (s)      0.0926  0.4778 -0.2268  0.1386  0.0000  0.7062 -0.4966  0.3036
  61.  H 7 (s)      0.0001  0.0089  0.0085 -0.0168  0.0000  0.0781  0.0923 -0.1831
  62.  H 7 (s)      0.0152  0.1153  0.0531 -0.1053  0.0000  0.2709  0.1948 -0.3865
  63.  H 8 (s)      0.0000  0.0005 -0.0010 -0.0007  0.0000  0.0199 -0.0534 -0.0399
  64.  H 8 (s)      0.0031  0.0333 -0.0337 -0.0252  0.0000  0.1177 -0.1929 -0.1441
  65.  H 9 (s)      0.0000  0.0000  0.0000  0.0000  0.0000  0.0002 -0.0001 -0.0011
  66.  H 9 (s)      0.0000  0.0005 -0.0001 -0.0010  0.0000  0.0076 -0.0016 -0.0235
  67.  H10 (s)      0.0000  0.0000  0.0000  0.0000  0.0000  0.0000 -0.0001 -0.0001
  68.  H10 (s)      0.0000  0.0001 -0.0001 -0.0001  0.0000  0.0020 -0.0033 -0.0062

           AO          9      10      11      12      13      14      15      16
      ------------ ------- ------- ------- ------- ------- ------- ------- -------
   1.  C 1 (s)      0.0000  0.0000  0.0000  0.0000  0.0000  0.0000  0.0000  0.0198
   2.  C 1 (s)      0.0000  0.0000  0.0000  0.0000  0.0000  0.0000  0.0198  0.2049
   3.  C 1 (px)     0.0000  0.0000  0.0000  0.0000  0.0000  0.0000  0.0000  0.0000
   4.  C 1 (py)     0.0000  0.0000  0.0000  0.0000  0.0000  0.0000 -0.0432 -0.2838
   5.  C 1 (pz)     0.5698  0.0000  0.0000  0.0000  0.0000  0.0000  0.0000  0.0000
   6.  C 1 (s)      0.0000  0.0000  0.0000  0.0000  0.0000  0.0000  0.0647  0.3607
   7.  C 1 (px)     0.0000  0.0000  0.0000  0.0000  0.0000  0.0000  0.0000  0.0000
   8.  C 1 (py)     0.0000  0.0000  0.0000  0.0000  0.0000  0.0000 -0.1299 -0.5632
   9.  C 1 (pz)     1.0000  0.0000  0.0000  0.0000  0.0000  0.0000  0.0000  0.0000
  10.  C 1 (d5)     0.0000  1.0000  0.0000  0.0000  0.0000  0.0000 -0.0262 -0.1213
  11.  C 1 (d2)     0.0000  0.0000  1.0000  0.0000  0.0000  0.0000  0.0000  0.0000
  12.  C 1 (d3)     0.0000  0.0000  0.0000  1.0000  0.0000  0.0000  0.0000  0.0000
  13.  C 1 (d4)     0.0000  0.0000  0.0000  0.0000  1.0000  0.0000 -0.0453 -0.2101
  14.  C 1 (d1)     0.0000  0.0000  0.0000  0.0000  0.0000  1.0000  0.0000  0.0000
  15.  C 2 (s)      0.0000 -0.0262  0.0000  0.0000 -0.0453  0.0000  1.0000  0.2191
  16.  C 2 (s)      0.0000 -0.1213  0.0000  0.0000 -0.2101  0.0000  0.2191  1.0000
  17.  C 2 (px)     0.0000  0.0000  0.0000  0.0000  0.0000 -0.1849  0.0000  0.0000
  18.  C 2 (py)     0.0000 -0.1360  0.0000  0.0000 -0.2355  0.0000  0.0000  0.0000
  19.  C 2 (pz)     0.2437  0.0000  0.0000 -0.1849  0.0000  0.0000  0.0000  0.0000
  20.  C 2 (s)      0.0000 -0.0486  0.0000  0.0000 -0.0842  0.0000  0.1843  0.8123
  21.  C 2 (px)     0.0000  0.0000  0.0000  0.0000  0.0000 -0.1615  0.0000  0.0000
  22.  C 2 (py)     0.0000  0.0096  0.0000  0.0000  0.0167  0.0000  0.0000  0.0000
  23.  C 2 (pz)     0.5811  0.0000  0.0000 -0.1615  0.0000  0.0000  0.0000  0.0000
  24.  C 2 (d5)     0.0000  0.1138  0.0000  0.0000  0.0651  0.0000  0.0000  0.0000
  25.  C 2 (d2)     0.0000  0.0000  0.0762  0.0000  0.0000  0.0000  0.0000  0.0000
[...]
  25. (0.00747) BD*( 1) C  4- H  9
               ( 39.67%)   0.6298* C  4 s( 29.75%)p 2.36( 70.08%)d 0.01(  0.17%)
                                         0.0000 -0.5453  0.0118 -0.7090  0.0093
                                         0.4443  0.0254  0.0000  0.0000  0.0294
                                         0.0000  0.0000 -0.0181  0.0220
               ( 60.33%)  -0.7767* H  9 s(100.00%)
                                        -1.0000 -0.0013
  26. (0.00471) BD*( 1) C  4- H 10
               ( 39.28%)   0.6267* C  4 s( 30.25%)p 2.30( 69.59%)d 0.01(  0.16%)
                                         0.0000 -0.5499  0.0094  0.7038 -0.0091
                                         0.4473  0.0193  0.0000  0.0000 -0.0296
                                         0.0000  0.0000 -0.0173  0.0216
               ( 60.72%)  -0.7792* H 10 s(100.00%)
                                        -1.0000 -0.0004
  27. (0.00497) RY ( 1) C  1            s(  0.47%)p99.99( 96.17%)d 7.23(  3.36%)
                                         0.0000  0.0049  0.0681 -0.0209 -0.9765
                                         0.0003 -0.0874  0.0000  0.0000  0.1833
                                         0.0000  0.0000 -0.0056  0.0012
  28. (0.00059) RY ( 2) C  1            s( 13.19%)p 6.25( 82.48%)d 0.33(  4.33%)
                                         0.0000 -0.0098  0.3631 -0.0079  0.1287
                                         0.0690 -0.8963  0.0000  0.0000  0.1181
                                         0.0000  0.0000 -0.1600 -0.0612
  29. (0.00047) RY ( 3) C  1            s(  0.00%)p 1.00( 94.40%)d 0.06(  5.60%)
                                         0.0000  0.0000  0.0000  0.0000  0.0000
                                         0.0000  0.0000  0.0356  0.9710  0.0000
                                        -0.0852 -0.2207  0.0000  0.0000
  30. (0.00002) RY ( 4) C  1            s( 80.48%)p 0.10(  8.39%)d 0.14( 11.13%)
  31. (0.00001) RY ( 5) C  1            s(  5.20%)p 1.31(  6.83%)d16.93( 87.97%)
  32. (0.00000) RY ( 6) C  1            s(  0.00%)p 1.00(  0.02%)d99.99( 99.98%)
  33. (0.00000) RY ( 7) C  1            s(  0.00%)p 1.00(  5.74%)d16.43( 94.26%)
  34. (0.00000) RY ( 8) C  1            s(  0.64%)p 8.35(  5.34%)d99.99( 94.02%)
  35. (0.00000) RY ( 9) C  1            s(  0.09%)p14.54(  1.24%)d99.99( 98.68%)
  36. (0.00644) RY ( 1) C  2            s(  1.11%)p86.20( 95.51%)d 3.05(  3.38%)
                                         0.0000  0.0117  0.1046  0.0249  0.6182
                                         0.0033 -0.7565  0.0000  0.0000  0.1541
                                         0.0000  0.0000 -0.1005  0.0028
  37. (0.00367) RY ( 2) C  2            s(  0.50%)p99.99( 96.12%)d 6.77(  3.38%)
                                         0.0000 -0.0163  0.0688 -0.0039  0.7382
                                        -0.0397  0.6439  0.0000  0.0000  0.1799
                                         0.0000  0.0000  0.0367 -0.0110
  38. (0.00120) RY ( 3) C  2            s(  0.00%)p 1.00( 48.33%)d 1.07( 51.67%)
                                         0.0000  0.0000  0.0000  0.0000  0.0000
                                         0.0000  0.0000  0.0515  0.6933  0.0000
                                        -0.3143 -0.6465  0.0000  0.0000
  39. (0.00019) RY ( 4) C  2            s( 56.03%)p 0.02(  1.40%)d 0.76( 42.57%)
                                         0.0000 -0.0101  0.7485  0.0057 -0.0696
                                        -0.0428  0.0854  0.0000  0.0000 -0.2013
                                         0.0000  0.0000 -0.6057 -0.1350
  40. (0.00004) RY ( 5) C  2            s(  0.38%)p16.67(  6.36%)d99.99( 93.25%)
  41. (0.00001) RY ( 6) C  2            s( 30.96%)p 0.02(  0.73%)d 2.21( 68.31%)
  42. (0.00000) RY ( 7) C  2            s(  0.00%)p 1.00( 51.58%)d 0.94( 48.42%)
  43. (0.00000) RY ( 8) C  2            s(  0.00%)p 1.00(  0.24%)d99.99( 99.76%)
  44. (0.00000) RY ( 9) C  2            s( 11.10%)p 0.02(  0.27%)d 7.98( 88.63%)
  45. (0.00644) RY ( 1) C  3            s(  1.11%)p86.20( 95.51%)d 3.05(  3.38%)
                                         0.0000  0.0117  0.1046 -0.0249 -0.6182
                                        -0.0033  0.7565  0.0000  0.0000  0.1541
                                         0.0000  0.0000 -0.1005  0.0028
  46. (0.00367) RY ( 2) C  3            s(  0.50%)p99.99( 96.12%)d 6.77(  3.38%)
                                         0.0000 -0.0163  0.0688  0.0039 -0.7382
                                         0.0397 -0.6439  0.0000  0.0000  0.1799
                                         0.0000  0.0000  0.0367 -0.0110
  47. (0.00120) RY ( 3) C  3            s(  0.00%)p 1.00( 48.33%)d 1.07( 51.67%)
                                         0.0000  0.0000  0.0000  0.0000  0.0000
                                         0.0000  0.0000  0.0515  0.6933  0.0000
                                         0.3143  0.6465  0.0000  0.0000
  48. (0.00019) RY ( 4) C  3            s( 56.03%)p 0.02(  1.40%)d 0.76( 42.57%)
                                         0.0000 -0.0101  0.7485 -0.0057  0.0696
                                         0.0428 -0.0854  0.0000  0.0000 -0.2013
                                         0.0000  0.0000 -0.6057 -0.1350
  49. (0.00004) RY ( 5) C  3            s(  0.38%)p16.67(  6.36%)d99.99( 93.25%)
  50. (0.00001) RY ( 6) C  3            s( 30.96%)p 0.02(  0.73%)d 2.21( 68.31%)
  51. (0.00000) RY ( 7) C  3            s(  0.00%)p 1.00( 50.54%)d 0.98( 49.46%)
  52. (0.00000) RY ( 8) C  3            s(  0.00%)p 1.00(  1.28%)d76.87( 98.72%)
  53. (0.00000) RY ( 9) C  3            s( 11.10%)p 0.02(  0.27%)d 7.98( 88.63%)
  54. (0.00497) RY ( 1) C  4            s(  0.47%)p99.99( 96.17%)d 7.23(  3.36%)
                                         0.0000  0.0049  0.0681  0.0209  0.9765
                                        -0.0003  0.0874  0.0000  0.0000  0.1833
                                         0.0000  0.0000 -0.0056  0.0012
  55. (0.00059) RY ( 2) C  4            s( 13.19%)p 6.25( 82.48%)d 0.33(  4.33%)
                                         0.0000 -0.0098  0.3631  0.0079 -0.1287
                                        -0.0690  0.8963  0.0000  0.0000  0.1181
                                         0.0000  0.0000 -0.1600 -0.0612
  56. (0.00047) RY ( 3) C  4            s(  0.00%)p 1.00( 94.40%)d 0.06(  5.60%)
                                         0.0000  0.0000  0.0000  0.0000  0.0000
                                         0.0000  0.0000  0.0356  0.9710  0.0000
                                         0.0852  0.2207  0.0000  0.0000
  57. (0.00002) RY ( 4) C  4            s( 80.48%)p 0.10(  8.39%)d 0.14( 11.13%)
  58. (0.00001) RY ( 5) C  4            s(  5.20%)p 1.31(  6.83%)d16.93( 87.97%)
  59. (0.00000) RY ( 6) C  4            s(  0.00%)p 1.00(  5.05%)d18.81( 94.95%)
  60. (0.00000) RY ( 7) C  4            s(  0.00%)p 1.00(  0.71%)d99.99( 99.29%)
  61. (0.00000) RY ( 8) C  4            s(  0.64%)p 8.35(  5.34%)d99.99( 94.02%)
  62. (0.00000) RY ( 9) C  4            s(  0.09%)p14.54(  1.24%)d99.99( 98.68%)
  63. (0.00044) RY ( 1) H  5            s(100.00%)
                                        -0.0004  1.0000
  64. (0.00070) RY ( 1) H  6            s(100.00%)
                                        -0.0013  1.0000
  65. (0.00096) RY ( 1) H  7            s(100.00%)
                                        -0.0015  1.0000
  66. (0.00096) RY ( 1) H  8            s(100.00%)
                                        -0.0015  1.0000
  67. (0.00070) RY ( 1) H  9            s(100.00%)
                                        -0.0013  1.0000
  68. (0.00044) RY ( 1) H 10            s(100.00%)
                                        -0.0004  1.0000


 NHO DIRECTIONALITY AND BOND BENDING (deviation from line of nuclear centers at
                                      the position of maximum hybrid amplitude)

         [Thresholds for printing:  angular deviation  >  1.0 degree]
                                    p- or d-character  > 25.0%
                                    orbital occupancy  >  0.10e

                        Line of Centers        Hybrid 1             Hybrid 2
                        ---------------  -------------------  ------------------
           NBO            Theta   Phi    Theta   Phi    Dev   Theta   Phi    Dev
 ===============================================================================
   6. BD ( 2) C  1- C  2   90.0  270.0   178.4  269.2  88.4   178.3   94.3  88.4
   9. BD ( 1) C  2- C  3   90.0  213.7    90.0  212.7   1.0    90.0   32.7   1.0
  12. BD ( 2) C  3- C  4   90.0  270.0     1.7  274.3  88.4     1.6   89.2  88.4


 SECOND ORDER PERTURBATION THEORY ANALYSIS OF FOCK MATRIX IN NBO BASIS

     Threshold for printing:   0.50 kcal/mol
                                                          E(2) E(NL)-E(L) F(L,NL)
      Donor (L) NBO              Acceptor (NL) NBO      kcal/mol   a.u.    a.u.
 ===============================================================================

 within unit  1
    5. BD ( 1) C  1- C  2      18. BD*( 1) C  1- H  5      1.48    1.61   0.044
    5. BD ( 1) C  1- C  2      19. BD*( 1) C  1- H  6      1.22    1.60   0.039
    5. BD ( 1) C  1- C  2      20. BD*( 1) C  2- C  3      2.70    1.63   0.059
    5. BD ( 1) C  1- C  2      21. BD*( 1) C  2- H  7      2.19    1.60   0.053
    5. BD ( 1) C  1- C  2      22. BD*( 1) C  3- C  4      1.37    1.81   0.044
    5. BD ( 1) C  1- C  2      45. RY ( 1) C  3            3.71    2.16   0.080
    5. BD ( 1) C  1- C  2      65. RY ( 1) H  7            0.72    1.60   0.030
    6. BD ( 2) C  1- C  2      23. BD*( 2) C  3- C  4     19.23    0.60   0.095
    6. BD ( 2) C  1- C  2      47. RY ( 3) C  3            1.59    1.94   0.050
    7. BD ( 1) C  1- H  5      16. BD*( 1) C  1- C  2      1.08    1.64   0.038
    7. BD ( 1) C  1- H  5      20. BD*( 1) C  2- C  3      5.49    1.46   0.080
    7. BD ( 1) C  1- H  5      36. RY ( 1) C  2            1.51    1.98   0.049
    7. BD ( 1) C  1- H  5      37. RY ( 2) C  2            0.86    1.70   0.034
    8. BD ( 1) C  1- H  6      16. BD*( 1) C  1- C  2      0.86    1.64   0.033
    8. BD ( 1) C  1- H  6      21. BD*( 1) C  2- H  7      5.12    1.42   0.076
    8. BD ( 1) C  1- H  6      37. RY ( 2) C  2            2.77    1.70   0.061
    9. BD ( 1) C  2- C  3      16. BD*( 1) C  1- C  2      2.53    1.74   0.059
    9. BD ( 1) C  2- C  3      18. BD*( 1) C  1- H  5      2.09    1.53   0.050
    9. BD ( 1) C  2- C  3      21. BD*( 1) C  2- H  7      0.66    1.52   0.028
    9. BD ( 1) C  2- C  3      22. BD*( 1) C  3- C  4      2.53    1.74   0.059
    9. BD ( 1) C  2- C  3      24. BD*( 1) C  3- H  8      0.66    1.52   0.028
    9. BD ( 1) C  2- C  3      26. BD*( 1) C  4- H 10      2.09    1.53   0.050
    9. BD ( 1) C  2- C  3      27. RY ( 1) C  1            3.31    2.03   0.073
    9. BD ( 1) C  2- C  3      54. RY ( 1) C  4            3.31    2.03   0.073
   10. BD ( 1) C  2- H  7      16. BD*( 1) C  1- C  2      1.27    1.63   0.041
   10. BD ( 1) C  2- H  7      19. BD*( 1) C  1- H  6      4.47    1.41   0.071
   10. BD ( 1) C  2- H  7      24. BD*( 1) C  3- H  8      3.45    1.41   0.062
   10. BD ( 1) C  2- H  7      27. RY ( 1) C  1            1.69    1.92   0.051
   10. BD ( 1) C  2- H  7      45. RY ( 1) C  3            1.31    1.98   0.045
   11. BD ( 1) C  3- C  4      16. BD*( 1) C  1- C  2      1.37    1.81   0.044
   11. BD ( 1) C  3- C  4      20. BD*( 1) C  2- C  3      2.70    1.63   0.059
   11. BD ( 1) C  3- C  4      24. BD*( 1) C  3- H  8      2.19    1.60   0.053
   11. BD ( 1) C  3- C  4      25. BD*( 1) C  4- H  9      1.22    1.60   0.039
   11. BD ( 1) C  3- C  4      26. BD*( 1) C  4- H 10      1.48    1.61   0.044
   11. BD ( 1) C  3- C  4      36. RY ( 1) C  2            3.71    2.16   0.080
   11. BD ( 1) C  3- C  4      66. RY ( 1) H  8            0.72    1.60   0.030
   12. BD ( 2) C  3- C  4      17. BD*( 2) C  1- C  2     19.23    0.60   0.095
   12. BD ( 2) C  3- C  4      38. RY ( 3) C  2            1.59    1.94   0.050
   13. BD ( 1) C  3- H  8      21. BD*( 1) C  2- H  7      3.45    1.41   0.062
   13. BD ( 1) C  3- H  8      22. BD*( 1) C  3- C  4      1.27    1.63   0.041
   13. BD ( 1) C  3- H  8      25. BD*( 1) C  4- H  9      4.47    1.41   0.071
   13. BD ( 1) C  3- H  8      36. RY ( 1) C  2            1.31    1.98   0.045
   13. BD ( 1) C  3- H  8      54. RY ( 1) C  4            1.69    1.92   0.051
   14. BD ( 1) C  4- H  9      22. BD*( 1) C  3- C  4      0.86    1.64   0.033
   14. BD ( 1) C  4- H  9      24. BD*( 1) C  3- H  8      5.12    1.42   0.076
   14. BD ( 1) C  4- H  9      46. RY ( 2) C  3            2.77    1.70   0.061
   15. BD ( 1) C  4- H 10      20. BD*( 1) C  2- C  3      5.49    1.46   0.080
   15. BD ( 1) C  4- H 10      22. BD*( 1) C  3- C  4      1.08    1.64   0.038
   15. BD ( 1) C  4- H 10      45. RY ( 1) C  3            1.51    1.98   0.049
   15. BD ( 1) C  4- H 10      46. RY ( 2) C  3            0.86    1.70   0.034


 NATURAL BOND ORBITALS (Summary):

                                                     Principal Delocalizations
           NBO                 Occupancy    Energy   (geminal,vicinal,remote)
 ===============================================================================
 Molecular unit  1  (C4H6)
 ------ Lewis --------------------------------------
    1. CR ( 1) C  1             1.99999   -11.22595
    2. CR ( 1) C  2             1.99999   -11.23565
    3. CR ( 1) C  3             1.99999   -11.23565
    4. CR ( 1) C  4             1.99999   -11.22595
    5. BD ( 1) C  1- C  2       1.98949    -0.84001  45(v),20(g),21(g),18(g)
                                                     22(v),19(g),65(v)
    6. BD ( 2) C  1- C  2       1.94851    -0.36029  23(v),47(v)
    7. BD ( 1) C  1- H  5       1.98937    -0.66331  20(v),36(v),16(g),37(v)
    8. BD ( 1) C  1- H  6       1.98883    -0.66279  21(v),37(v),16(g)
    9. BD ( 1) C  2- C  3       1.98240    -0.76497  27(v),54(v),16(g),22(g)
                                                     18(v),26(v),21(g),24(g)
   10. BD ( 1) C  2- H  7       1.98159    -0.65611  19(v),24(v),27(v),45(v)
                                                     16(g)
   11. BD ( 1) C  3- C  4       1.98949    -0.84001  36(v),20(g),24(g),26(g)
                                                     16(v),25(g),66(v)
   12. BD ( 2) C  3- C  4       1.94851    -0.36029  17(v),38(v)
   13. BD ( 1) C  3- H  8       1.98159    -0.65611  25(v),21(v),54(v),36(v)
                                                     22(g)
   14. BD ( 1) C  4- H  9       1.98883    -0.66279  24(v),46(v),22(g)
   15. BD ( 1) C  4- H 10       1.98937    -0.66331  20(v),45(v),22(g),46(v)
 ------ non-Lewis ----------------------------------
   16. BD*( 1) C  1- C  2       0.00646     0.97311
   17. BD*( 2) C  1- C  2       0.04982     0.23495
   18. BD*( 1) C  1- H  5       0.00471     0.76634
   19. BD*( 1) C  1- H  6       0.00747     0.75595
   20. BD*( 1) C  2- C  3       0.01746     0.79494
   21. BD*( 1) C  2- H  7       0.01412     0.75733
   22. BD*( 1) C  3- C  4       0.00646     0.97311
   23. BD*( 2) C  3- C  4       0.04982     0.23495
   24. BD*( 1) C  3- H  8       0.01412     0.75733
   25. BD*( 1) C  4- H  9       0.00747     0.75595
   26. BD*( 1) C  4- H 10       0.00471     0.76634
   27. RY ( 1) C  1             0.00497     1.26352
   28. RY ( 2) C  1             0.00059     0.81707
   29. RY ( 3) C  1             0.00047     0.87729
   30. RY ( 4) C  1             0.00002     1.28822
   31. RY ( 5) C  1             0.00001     2.38685
   32. RY ( 6) C  1             0.00000     2.00775
   33. RY ( 7) C  1             0.00000     2.12686
   34. RY ( 8) C  1             0.00000     2.37544
   35. RY ( 9) C  1             0.00000     2.49396
   36. RY ( 1) C  2             0.00644     1.31994
   37. RY ( 2) C  2             0.00367     1.03292
   38. RY ( 3) C  2             0.00120     1.58153
   39. RY ( 4) C  2             0.00019     1.74636
   40. RY ( 5) C  2             0.00004     2.54861
   41. RY ( 6) C  2             0.00001     2.04781
   42. RY ( 7) C  2             0.00000     1.52711
   43. RY ( 8) C  2             0.00000     2.07264
   44. RY ( 9) C  2             0.00000     2.53161
   45. RY ( 1) C  3             0.00644     1.31994
   46. RY ( 2) C  3             0.00367     1.03292
   47. RY ( 3) C  3             0.00120     1.58153
   48. RY ( 4) C  3             0.00019     1.74636
   49. RY ( 5) C  3             0.00004     2.54861
   50. RY ( 6) C  3             0.00001     2.04781
   51. RY ( 7) C  3             0.00000     1.54362
   52. RY ( 8) C  3             0.00000     2.05613
   53. RY ( 9) C  3             0.00000     2.53161
   54. RY ( 1) C  4             0.00497     1.26352
   55. RY ( 2) C  4             0.00059     0.81707
   56. RY ( 3) C  4             0.00047     0.87729
   57. RY ( 4) C  4             0.00002     1.28822
   58. RY ( 5) C  4             0.00001     2.38685
   59. RY ( 6) C  4             0.00000     2.05815
   60. RY ( 7) C  4             0.00000     2.07647
   61. RY ( 8) C  4             0.00000     2.37544
   62. RY ( 9) C  4             0.00000     2.49396
   63. RY ( 1) H  5             0.00044     0.76581
   64. RY ( 1) H  6             0.00070     0.78360
   65. RY ( 1) H  7             0.00096     0.75683
   66. RY ( 1) H  8             0.00096     0.75683
   67. RY ( 1) H  9             0.00070     0.78360
   68. RY ( 1) H 10             0.00044     0.76581
          -------------------------------
                 Total Lewis   29.77799  ( 99.2600%)
           Valence non-Lewis    0.18260  (  0.6087%)
           Rydberg non-Lewis    0.03941  (  0.1314%)
          -------------------------------
               Total unit  1   30.00000  (100.0000%)
              Charge unit  1    0.00000

 $CHOOSE
   BOND D 1 2 S 1 5 S 1 6 S 2 3 S 2 7 D 3 4 S 3 8 S 4 9 S 4 10 END
 $END

 NBO analysis completed in 0.90 CPU seconds (1 wall second)
 Maximum scratch memory used by NBO was 351895 words (2.68 MB)
 Maximum scratch memory used by G16NBO was 15620 words (0.12 MB)

 Opening RunExU unformatted file "/cluster/work/users/beto93/mol82/Gau-1782242.EUF"
 Read unf file /cluster/work/users/beto93/mol82/Gau-1782242.EUF:
 Label Gaussian matrix elements                                         IVers= 2 NLab= 2 Version=ES64L-G16RevC.01
 Title mol82-NBO                                                       
 NAtoms=    10 NBasis=    68 NBsUse=    68 ICharg=     0 Multip=     1 NE=    30 Len12L=8 Len4L=8 IOpCl= 0 ICGU=111
 GAUSSIAN SCALARS                    NI= 1 NR= 1 NTot=       1 LenBuf=    2 NRI=1 N=    1000
 NPA CHARGES                         NI= 0 NR= 1 NTot=      10 LenBuf= 4000 NRI=1 N=      10
 Recovered energy= -154.917566180     dipole=      0.000000000000      0.000000000000      0.000000000000
 Unable to Open any file for archive entry.
 1\1\GINC-C1-37\SP\RHF\6-31G(d)\C4H6\BETO93\18-Nov-2024\0\\#RHF/6-31G* 
 int=nobasistransform Symmetry=None 5D 7F Pop=NBO7Read\\mol82-NBO\\0,1\
 C,0,0.605711,1.74655,0.\C,0,0.605711,0.404083,0.\C,0,-0.605711,-0.4040
 83,0.\C,0,-0.605711,-1.74655,0.\H,0,1.527617,2.317443,0.\H,0,-0.321132
 ,2.313116,0.\H,0,1.553503,-0.13364,0.\H,0,-1.553503,0.13364,0.\H,0,0.3
 21132,-2.313116,0.\H,0,-1.527617,-2.317443,0.\\Version=ES64L-G16RevC.0
 1\HF=-154.9175662\RMSD=3.792e-09\Dipole=0.,0.,0.\Quadrupole=1.4686214,
 1.5358969,-3.0045183,-0.1596121,0.,0.\PG=Unknown\\@
 The archive entry for this job was punched.


 REFRAIN FROM ILLUSIONS, INSIST ON WORK AND NOT WORDS,
 PATIENTLY SEEK DIVINE AND SCIENTIFIC TRUTH.
 LAST WORDS OF MARIA MENDELEEVA TO HER SON DMITRI, C. 1850
 Job cpu time:       0 days  0 hours  0 minutes  9.7 seconds.
 Elapsed time:       0 days  0 hours  0 minutes  3.1 seconds.
 File lengths (MBytes):  RWF=     10 Int=      0 D2E=      0 Chk=      2 Scr=      1
 Normal termination of Gaussian 16 at Mon Nov 18 16:40:42 2024.
