 Entering Gaussian System, Link 0=g16
 Initial command:
 /cluster/software/Gaussian/g16_C.01/l1.exe "/cluster/work/users/beto93/CH3CH3/Gau-2329424.inp" -scrdir="/cluster/work/users/beto93/CH3CH3/"
 Entering Link 1 = /cluster/software/Gaussian/g16_C.01/l1.exe PID=   2329425.
  
 Copyright (c) 1988-2019, Gaussian, Inc.  All Rights Reserved.
  
 This is part of the Gaussian(R) 16 program.  It is based on
 the Gaussian(R) 09 system (copyright 2009, Gaussian, Inc.),
 the Gaussian(R) 03 system (copyright 2003, Gaussian, Inc.),
 the Gaussian(R) 98 system (copyright 1998, Gaussian, Inc.),
 the Gaussian(R) 94 system (copyright 1995, Gaussian, Inc.),
 the Gaussian 92(TM) system (copyright 1992, Gaussian, Inc.),
 the Gaussian 90(TM) system (copyright 1990, Gaussian, Inc.),
 the Gaussian 88(TM) system (copyright 1988, Gaussian, Inc.),
 the Gaussian 86(TM) system (copyright 1986, Carnegie Mellon
 University), and the Gaussian 82(TM) system (copyright 1983,
 Carnegie Mellon University). Gaussian is a federally registered
 trademark of Gaussian, Inc.
  
 This software contains proprietary and confidential information,
 including trade secrets, belonging to Gaussian, Inc.
  
 This software is provided under written license and may be
 used, copied, transmitted, or stored only in accord with that
 written license.
  
 The following legend is applicable only to US Government
 contracts under FAR:
  
                    RESTRICTED RIGHTS LEGEND
  
 Use, reproduction and disclosure by the US Government is
 subject to restrictions as set forth in subparagraphs (a)
 and (c) of the Commercial Computer Software - Restricted
 Rights clause in FAR 52.227-19.
  
 Gaussian, Inc.
 340 Quinnipiac St., Bldg. 40, Wallingford CT 06492
  
  
 ---------------------------------------------------------------
 Warning -- This program may not be used in any manner that
 competes with the business of Gaussian, Inc. or will provide
 assistance to any competitor of Gaussian, Inc.  The licensee
 of this program is prohibited from giving any competitor of
 Gaussian, Inc. access to this program.  By using this program,
 the user acknowledges that Gaussian, Inc. is engaged in the
 business of creating and licensing software in the field of
 computational chemistry and represents and warrants to the
 licensee that it is not a competitor of Gaussian, Inc. and that
 it will not use this program in any manner prohibited above.
 ---------------------------------------------------------------
  

 Cite this work as:
 Gaussian 16, Revision C.01,
 M. J. Frisch, G. W. Trucks, H. B. Schlegel, G. E. Scuseria, 
 M. A. Robb, J. R. Cheeseman, G. Scalmani, V. Barone, 
 G. A. Petersson, H. Nakatsuji, X. Li, M. Caricato, A. V. Marenich, 
 J. Bloino, B. G. Janesko, R. Gomperts, B. Mennucci, H. P. Hratchian, 
 J. V. Ortiz, A. F. Izmaylov, J. L. Sonnenberg, D. Williams-Young, 
 F. Ding, F. Lipparini, F. Egidi, J. Goings, B. Peng, A. Petrone, 
 T. Henderson, D. Ranasinghe, V. G. Zakrzewski, J. Gao, N. Rega, 
 G. Zheng, W. Liang, M. Hada, M. Ehara, K. Toyota, R. Fukuda, 
 J. Hasegawa, M. Ishida, T. Nakajima, Y. Honda, O. Kitao, H. Nakai, 
 T. Vreven, K. Throssell, J. A. Montgomery, Jr., J. E. Peralta, 
 F. Ogliaro, M. J. Bearpark, J. J. Heyd, E. N. Brothers, K. N. Kudin, 
 V. N. Staroverov, T. A. Keith, R. Kobayashi, J. Normand, 
 K. Raghavachari, A. P. Rendell, J. C. Burant, S. S. Iyengar, 
 J. Tomasi, M. Cossi, J. M. Millam, M. Klene, C. Adamo, R. Cammi, 
 J. W. Ochterski, R. L. Martin, K. Morokuma, O. Farkas, 
 J. B. Foresman, and D. J. Fox, Gaussian, Inc., Wallingford CT, 2019.
 
 ******************************************
 Gaussian 16:  ES64L-G16RevC.01  3-Jul-2019
                24-Jul-2024 
 ******************************************
 %LindaWorkers=c1-4-ib
 %NProcShared=4
 Will use up to    4 processors via shared memory.
 %mem=25GB
 %chk=a.chk
 SetLPE:    new flags="-opt 'Tsnet.Node.lindarsharg: ssh'  -nodelist 'c1-4-ib.saga' -env GAUSS_MDEF=3355443200 -env GAUSS_EXEDIR="/cluster/software/Gaussian/g16_C.01/bsd:/cluster/software/Gaussian/g16_C.01""
 Will use up to    1 processors via Linda.
 ------------------------
 #RHF/6-31G* Pop=NBO7Read
 ------------------------
 1/38=1,163=2,172=1/1;
 2/12=2,17=6,18=5,40=1/2;
 3/5=1,6=6,7=1,11=1,25=1,30=1,116=1/1,2,3;
 4//1;
 5/5=2,38=5/2;
 6/7=2,8=2,9=2,10=2,28=1,40=2,113=1,114=1,124=2103/1,12;
 99/5=1,9=1/99;
 -----
 NBO-a
 -----
 Symbolic Z-matrix:
 Charge =  0 Multiplicity = 1
 C                     0.00888   0.01538   0.00628 
 H                     0.02082   0.03606   1.09206 
 H                     1.03655   0.03606  -0.34439 
 H                    -0.48704   0.91571  -0.34439 
 C                    -0.71598  -1.24012  -0.50628 
 H                    -1.74365  -1.26081  -0.15562 
 H                    -0.72792  -1.26081  -1.59206 
 H                    -0.22007  -2.14045  -0.15561 
 
                          Input orientation:                          
 ---------------------------------------------------------------------
 Center     Atomic      Atomic             Coordinates (Angstroms)
 Number     Number       Type             X           Y           Z
 ---------------------------------------------------------------------
      1          6           0        0.008877    0.015375    0.006277
      2          1           0        0.020819    0.036063    1.092059
      3          1           0        1.036545    0.036063   -0.344387
      4          1           0       -0.487038    0.915705   -0.344391
      5          6           0       -0.715982   -1.240120   -0.506280
      6          1           0       -1.743649   -1.260807   -0.155616
      7          1           0       -0.727923   -1.260807   -1.592062
      8          1           0       -0.220066   -2.140449   -0.155612
 ---------------------------------------------------------------------
                    Distance matrix (angstroms):
                    1          2          3          4          5
     1  C    0.000000
     2  H    1.086045   0.000000
     3  H    1.086045   1.759283   0.000000
     4  H    1.086045   1.759283   1.759283   0.000000
     5  C    1.537662   2.173984   2.173983   2.173984   0.000000
     6  H    2.173982   2.520300   3.073595   2.520300   1.086044
     7  H    2.173983   3.073596   2.520300   2.520300   1.086045
     8  H    2.173983   2.520300   2.520300   3.073595   1.086045
                    6          7          8
     6  H    0.000000
     7  H    1.759283   0.000000
     8  H    1.759283   1.759283   0.000000
 This structure is nearly, but not quite of a higher symmetry.
 Consider Symm=Loose if the higher symmetry is desired.
 Stoichiometry    C2H6
 Framework group  CI[X(C2H6)]
 Deg. of freedom     9
 Full point group                 CI      NOp   2
 Largest Abelian subgroup         CI      NOp   2
 Largest concise Abelian subgroup CI      NOp   2
                         Standard orientation:                         
 ---------------------------------------------------------------------
 Center     Atomic      Atomic             Coordinates (Angstroms)
 Number     Number       Type             X           Y           Z
 ---------------------------------------------------------------------
      1          6           0        0.362429    0.627747    0.256279
      2          1           0        0.374371    0.648435    1.342061
      3          1           0        1.390097    0.648435   -0.094385
      4          1           0       -0.133486    1.528077   -0.094389
      5          6           0       -0.362429   -0.627747   -0.256279
      6          1           0       -1.390097   -0.648435    0.094385
      7          1           0       -0.374371   -0.648435   -1.342061
      8          1           0        0.133486   -1.528077    0.094389
 ---------------------------------------------------------------------
 Rotational constants (GHZ):          81.0085197          19.9372460          19.9372440
 Standard basis: 6-31G(d) (6D, 7F)
 There are    21 symmetry adapted cartesian basis functions of AG  symmetry.
 There are    21 symmetry adapted cartesian basis functions of AU  symmetry.
 There are    21 symmetry adapted basis functions of AG  symmetry.
 There are    21 symmetry adapted basis functions of AU  symmetry.
    42 basis functions,    80 primitive gaussians,    42 cartesian basis functions
     9 alpha electrons        9 beta electrons
       nuclear repulsion energy        42.2741924002 Hartrees.
 NAtoms=    8 NActive=    8 NUniq=    4 SFac= 4.00D+00 NAtFMM=   60 NAOKFM=F Big=F
 Integral buffers will be    131072 words long.
 Raffenetti 1 integral format.
 Two-electron integral symmetry is turned on.
 One-electron integrals computed using PRISM.
 NBasis=    42 RedAO= T EigKep=  8.37D-03  NBF=    21    21
 NBsUse=    42 1.00D-06 EigRej= -1.00D+00 NBFU=    21    21
 ExpMin= 1.61D-01 ExpMax= 3.05D+03 ExpMxC= 4.57D+02 IAcc=3 IRadAn=         5 AccDes= 0.00D+00
 Harris functional with IExCor=  205 and IRadAn=       5 diagonalized for initial guess.
 HarFok:  IExCor=  205 AccDes= 0.00D+00 IRadAn=         5 IDoV= 1 UseB2=F ITyADJ=14
 ICtDFT=  3500011 ScaDFX=  1.000000  1.000000  1.000000  1.000000
 FoFCou: FMM=F IPFlag=           0 FMFlag=      100000 FMFlg1=           0
         NFxFlg=           0 DoJE=T BraDBF=F KetDBF=T FulRan=T
         wScrn=  0.000000 ICntrl=       500 IOpCl=  0 I1Cent=   200000004 NGrid=           0
         NMat0=    1 NMatS0=      1 NMatT0=    0 NMatD0=    1 NMtDS0=    0 NMtDT0=    0
 Petite list used in FoFCou.
 Initial guess orbital symmetries:
       Occupied  (AG) (AU) (AG) (AU) (AU) (AU) (AG) (AG) (AG)
       Virtual   (AG) (AU) (AU) (AU) (AG) (AG) (AU) (AG) (AU) (AU)
                 (AG) (AG) (AU) (AU) (AU) (AG) (AG) (AG) (AU) (AG)
                 (AU) (AU) (AU) (AG) (AG) (AG) (AU) (AU) (AG) (AG)
                 (AU) (AG) (AU)
 The electronic state of the initial guess is 1-AG.
 Keep R1 ints in memory in symmetry-blocked form, NReq=1251141.
 Requested convergence on RMS density matrix=1.00D-08 within 128 cycles.
 Requested convergence on MAX density matrix=1.00D-06.
 Requested convergence on             energy=1.00D-06.
 No special actions if energy rises.
 SCF Done:  E(RHF) =  -79.2286533600     A.U. after    9 cycles
            NFock=  9  Conv=0.36D-08     -V/T= 2.0006

 **********************************************************************

            Population analysis using the SCF Density.

 **********************************************************************

 Orbital symmetries:
       Occupied  (AG) (AU) (AG) (AU) (AU) (AU) (AG) (AG) (AG)
       Virtual   (AG) (AU) (AU) (AU) (AG) (AG) (AU) (AG) (AU) (AU)
                 (AG) (AG) (AU) (AU) (AU) (AG) (AG) (AG) (AU) (AG)
                 (AU) (AU) (AU) (AG) (AG) (AG) (AU) (AU) (AG) (AG)
                 (AU) (AG) (AU)
 The electronic state is 1-AG.
 Alpha  occ. eigenvalues --  -11.21089 -11.21033  -1.01664  -0.84286  -0.59790
 Alpha  occ. eigenvalues --   -0.59790  -0.50413  -0.48939  -0.48939
 Alpha virt. eigenvalues --    0.24235   0.30311   0.31895   0.31895   0.33795
 Alpha virt. eigenvalues --    0.33795   0.40862   0.70977   0.73931   0.73931
 Alpha virt. eigenvalues --    0.84517   0.84517   0.93695   1.16164   1.16164
 Alpha virt. eigenvalues --    1.20637   1.20787   1.20787   1.26289   1.27848
 Alpha virt. eigenvalues --    1.68699   1.80126   1.80126   2.24840   2.29919
 Alpha virt. eigenvalues --    2.29919   2.62333   2.62333   2.66844   2.66845
 Alpha virt. eigenvalues --    2.93575   4.57737   4.79727
          Condensed to atoms (all electrons):
               1          2          3          4          5          6
     1  C    5.075436   0.394696   0.394696   0.394696   0.329118  -0.037693
     2  H    0.394696   0.544298  -0.029083  -0.029083  -0.037693  -0.002806
     3  H    0.394696  -0.029083   0.544298  -0.029083  -0.037693   0.003955
     4  H    0.394696  -0.029083  -0.029083   0.544298  -0.037693  -0.002806
     5  C    0.329118  -0.037693  -0.037693  -0.037693   5.075436   0.394696
     6  H   -0.037693  -0.002806   0.003955  -0.002806   0.394696   0.544298
     7  H   -0.037693   0.003955  -0.002806  -0.002806   0.394696  -0.029083
     8  H   -0.037693  -0.002806  -0.002806   0.003955   0.394696  -0.029083
               7          8
     1  C   -0.037693  -0.037693
     2  H    0.003955  -0.002806
     3  H   -0.002806  -0.002806
     4  H   -0.002806   0.003955
     5  C    0.394696   0.394696
     6  H   -0.029083  -0.029083
     7  H    0.544298  -0.029083
     8  H   -0.029083   0.544298
 Mulliken charges:
               1
     1  C   -0.475563
     2  H    0.158521
     3  H    0.158521
     4  H    0.158521
     5  C   -0.475563
     6  H    0.158521
     7  H    0.158521
     8  H    0.158521
 Sum of Mulliken charges =   0.00000
 Mulliken charges with hydrogens summed into heavy atoms:
               1
     1  C    0.000000
     5  C    0.000000
 Electronic spatial extent (au):  <R**2>=            109.6903
 Charge=              0.0000 electrons
 Dipole moment (field-independent basis, Debye):
    X=              0.0000    Y=              0.0000    Z=             -0.0000  Tot=              0.0000
 Quadrupole moment (field-independent basis, Debye-Ang):
   XX=            -15.0551   YY=            -15.3724   ZZ=            -14.9758
   XY=             -0.2747   XZ=             -0.1122   YZ=             -0.1943
 Traceless Quadrupole moment (field-independent basis, Debye-Ang):
   XX=              0.0793   YY=             -0.2379   ZZ=              0.1586
   XY=             -0.2747   XZ=             -0.1122   YZ=             -0.1943
 Octapole moment (field-independent basis, Debye-Ang**2):
  XXX=             -0.0000  YYY=             -0.0000  ZZZ=             -0.0000  XYY=             -0.0000
  XXY=             -0.0000  XXZ=              0.0000  XZZ=              0.0000  YZZ=             -0.0000
  YYZ=              0.0000  XYZ=              0.0000
 Hexadecapole moment (field-independent basis, Debye-Ang**3):
 XXXX=            -41.1978 YYYY=            -69.9084 ZZZZ=            -33.8988 XXXY=            -11.3919
 XXXZ=             -5.8841 YYYX=            -13.4722 YYYZ=             -9.5263 ZZZX=             -4.4384
 ZZZY=             -7.6876 XXYY=            -19.3184 XXZZ=            -13.7087 YYZZ=            -18.2936
 XXYZ=             -3.1754 YYXZ=             -1.4493 ZZXY=             -3.9707
 N-N= 4.227419240023D+01 E-N=-2.682674283163D+02  KE= 7.918058635245D+01
 Symmetry AG   KE= 4.107682847556D+01
 Symmetry AU   KE= 3.810375787689D+01
 Running external command "gaunbo7 R"
         input file       "/cluster/work/users/beto93/CH3CH3/Gau-2329425.EIn"
         output file      "/cluster/work/users/beto93/CH3CH3/Gau-2329425.EOu"
         message file     "/cluster/work/users/beto93/CH3CH3/Gau-2329425.EMs"
         fchk file        "/cluster/work/users/beto93/CH3CH3/Gau-2329425.EFC"
         mat. el file     "/cluster/work/users/beto93/CH3CH3/Gau-2329425.EUF"

 Writing WrtUnf unformatted file "/cluster/work/users/beto93/CH3CH3/Gau-2329425.EUF"
 Gaussian matrix elements                                         Version   2 NLab=11 Len12L=8 Len4L=8
 Write SHELL TO ATOM MAP                   from file      0 offset           0 length                  20 to matrix element file.
 Write SHELL TYPES                         from file      0 offset           0 length                  20 to matrix element file.
 Write NUMBER OF PRIMITIVES PER SHELL      from file      0 offset           0 length                  20 to matrix element file.
 Write PRIMITIVE EXPONENTS                 from file      0 offset           0 length                  46 to matrix element file.
 Write CONTRACTION COEFFICIENTS            from file      0 offset           0 length                  46 to matrix element file.
 Write P(S=P) CONTRACTION COEFFICIENTS     from file      0 offset           0 length                  46 to matrix element file.
 Write COORDINATES OF EACH SHELL           from file      0 offset           0 length                  60 to matrix element file.
 Write BONDS PER ATOM                      from file      0 offset           0 length                   8 to matrix element file.
 Write BONDED ATOMS                        from file      0 offset           0 length                  14 to matrix element file.
 Write BOND TYPES                          from file      0 offset           0 length                  14 to matrix element file.
 Write ONIOM CHARGE/MULT                   from file      0 offset           0 length                  32 to matrix element file.
 Write ONIOM ATOM LAYERS                   from file      0 offset           0 length                   8 to matrix element file.
 Write ONIOM ATOM MODIFIERS                from file      0 offset           0 length                   8 to matrix element file.
 Write ONIOM ATOM TYPES                    from file      0 offset           0 length                   8 to matrix element file.
 Write ONIOM LINK ATOMS                    from file      0 offset           0 length                   8 to matrix element file.
 Write ONIOM LINK CHARGES                  from file      0 offset           0 length                   8 to matrix element file.
 Write ONIOM LINK DISTANCES                from file      0 offset           0 length                  32 to matrix element file.
 Write SYMINF INTS                         from file      0 offset           0 length                  26 to matrix element file.
 Write ROTTR TO SO                         from file      0 offset           0 length                  12 to matrix element file.
 Write GAUSSIAN SCALARS                    from file    501 offset           0 to matrix element file.
 Write OPTIMIZATION FLAGS                  from file      0 offset           0 length                   8 to matrix element file.
 Write INTEGER ISO                         from file      0 offset           0 length                   8 to matrix element file.
 Write INTEGER SPIN                        from file      0 offset           0 length                   8 to matrix element file.
 Write REAL ZEFFECTIVE                     from file      0 offset           0 length                   8 to matrix element file.
 Write REAL GFACTOR                        from file      0 offset           0 length                   8 to matrix element file.
 Write REAL ZNUCLEAR                       from file      0 offset           0 length                   8 to matrix element file.
 Write MULLIKEN CHARGES                    from file      0 offset           0 length                   8 to matrix element file.
 Write NUCLEAR GRADIENT                    from file  10584 offset           0 length                  24 to matrix element file.
 Array NUCLEAR FORCE CONSTANTS              on  file  10585 does not exist.
 Write ELECTRIC DIPOLE MOMENT              from file      0 offset           0 length                   3 to matrix element file.
 Write NON-ADIABATIC COUPLING              from file  10810 offset           0 length                  24 to matrix element file.
 Write FINITE EM FIELD                     from file  10521 offset           0 length                  35 to matrix element file.
 Write OVERLAP                             from file  10514 offset           0 length                 903 to matrix element file.
 Write CORE HAMILTONIAN ALPHA              from file  10515 offset           0 length                 903 to matrix element file.
 Write CORE HAMILTONIAN BETA               from file  10515 offset         903 length                 903 to matrix element file.
 Write KINETIC ENERGY                      from file  10516 offset           0 length                 903 to matrix element file.
 Write ORTHOGONAL BASIS                    from file  10685 offset           0 length                1764 to matrix element file.
 Write DIPOLE INTEGRALS                    from file  10518 offset           0 length                2709 to matrix element file.
 Array DIP VEL INTEGRALS                    on  file  10572 does not exist.
 Array R X DEL INTEGRALS                    on  file  10572 does not exist.
 Write ALPHA ORBITAL ENERGIES              from file      0 offset           0 length                  42 to matrix element file.
 Write ALPHA MO COEFFICIENTS               from file  10524 offset           0 length                1764 to matrix element file.
 Write ALPHA DENSITY MATRIX                from file      0 offset           0 length                 903 to matrix element file.
 Write ALPHA FOCK MATRIX                   from file  10536 offset           0 length                 903 to matrix element file.
 Write ENERGY-WEIGHTED DENSITY             from file  10571 offset           0 length                 903 to matrix element file.
 Write ALPHA SCF DENSITY MATRIX            from file      0 offset           0 length                 903 to matrix element file.
 No 2e integrals to process.
 Perform NBO analysis...executing G16NBO...

 *********************************** NBO 7.0 ***********************************
             N A T U R A L   A T O M I C   O R B I T A L   A N D
          N A T U R A L   B O N D   O R B I T A L   A N A L Y S I S
 **************************** Espen Tangen (S101595) ***************************
  (c) Copyright 1996-2021 Board of Regents of the University of Wisconsin System
      on behalf of the Theoretical Chemistry Institute.  All rights reserved.

          Cite this program [NBO 7.0.10 (8-Feb-2021)] as:

          NBO 7.0.  E. D. Glendening, J. K. Badenhoop, A. E. Reed,
          J. E. Carpenter, J. A. Bohmann, C. M. Morales, P. Karafiloglou,
          C. R. Landis, and F. Weinhold, Theoretical Chemistry Institute,
          University of Wisconsin, Madison, WI (2018)

       /NPA    / : Natural Population Analysis
       /AOPNAO / : Print the AO to PNAO transformation
       /AONAO  / : Print the AO to NAO transformation
       /AONO   / : Print the NOs in the AO basis
       /AOMO   / : Print the MOs in the AO basis
       /BOAO   / : Print the AO bond-order matrix
       /DMAO   / : Print the AO density matrix
       /DMPNAO / : Print the PNAO density matrix
       /DMNAO  / : Print the NAO density matrix
       /DMMO   / : Print the MO density matrix
       /SAO    / : Print the AO overlap matrix
       /SPNAO  / : Print the PNAO overlap matrix
       /DETAIL / : Write details of NBO search
       /ARCHIVE/ : Write the archive file to lfn47
       /AOINFO / : Write AO information to lfn31
       /FILE   / : Set to inpGenNbo

 Filename set to inpGenNbo

 Job title: NBO-a


 MOs in the AO basis:

           AO          1       2       3       4       5       6       7       8
      ------------ ------- ------- ------- ------- ------- ------- ------- -------
   1.  C 1 (s)      0.7040  0.7042 -0.1450 -0.1273  0.0000  0.0000  0.0166  0.0000
   2.  C 1 (s)      0.0201  0.0200  0.2685  0.2375  0.0000  0.0000 -0.0373  0.0000
   3.  C 1 (px)     0.0000  0.0000 -0.0259  0.0598  0.0238  0.2718  0.1895  0.0244
   4.  C 1 (py)     0.0000  0.0000 -0.0449  0.1036 -0.1282 -0.1243  0.3283 -0.1282
   5.  C 1 (pz)     0.0000  0.0000 -0.0183  0.0423  0.2805 -0.0798  0.1340  0.2795
   6.  C 1 (s)     -0.0080 -0.0131  0.2393  0.2768  0.0000  0.0000 -0.0419  0.0000
   7.  C 1 (px)    -0.0004  0.0008 -0.0037  0.0183  0.0115  0.1318  0.0981  0.0143
   8.  C 1 (py)    -0.0006  0.0014 -0.0064  0.0317 -0.0622 -0.0603  0.1698 -0.0752
   9.  C 1 (pz)    -0.0003  0.0006 -0.0026  0.0130  0.1361 -0.0387  0.0693  0.1641
  10.  C 1 (d1)    -0.0014 -0.0012  0.0063  0.0074 -0.0095  0.0135  0.0059 -0.0109
  11.  C 1 (d4)    -0.0016 -0.0011  0.0098 -0.0032 -0.0086 -0.0083 -0.0110 -0.0192
  12.  C 1 (d6)    -0.0014 -0.0012  0.0054  0.0101  0.0181 -0.0051  0.0101  0.0301
  13.  C 1 (d2)    -0.0001  0.0001  0.0035 -0.0107  0.0085  0.0048 -0.0169  0.0087
  14.  C 1 (d3)    -0.0001  0.0000  0.0014 -0.0044 -0.0034 -0.0126 -0.0069  0.0023
  15.  C 1 (d5)    -0.0001  0.0001  0.0024 -0.0075  0.0023  0.0072 -0.0119  0.0116
  16.  H 2 (s)      0.0000  0.0002  0.0861  0.1170  0.1738 -0.0495  0.0811  0.2022
  17.  H 2 (s)      0.0018  0.0018  0.0180  0.0439  0.1280 -0.0364  0.0766  0.1889
  18.  H 3 (s)      0.0000  0.0002  0.0861  0.1170 -0.0441  0.1753  0.0811 -0.0508
  19.  H 3 (s)      0.0018  0.0018  0.0180  0.0439 -0.0324  0.1291  0.0766 -0.0474
  20.  H 4 (s)      0.0000  0.0002  0.0861  0.1170 -0.1298 -0.1258  0.0811 -0.1514
  21.  H 4 (s)      0.0018  0.0018  0.0180  0.0439 -0.0955 -0.0926  0.0766 -0.1415
  22.  C 5 (s)      0.7040 -0.7042 -0.1450  0.1273  0.0000  0.0000  0.0166  0.0000
  23.  C 5 (s)      0.0201 -0.0200  0.2685 -0.2375  0.0000  0.0000 -0.0373  0.0000
  24.  C 5 (px)     0.0000  0.0000  0.0259  0.0598  0.0238  0.2718 -0.1895 -0.0244
  25.  C 5 (py)     0.0000  0.0000  0.0449  0.1036 -0.1282 -0.1243 -0.3283  0.1282
  26.  C 5 (pz)     0.0000  0.0000  0.0183  0.0423  0.2805 -0.0798 -0.1340 -0.2795
  27.  C 5 (s)     -0.0080  0.0131  0.2393 -0.2768  0.0000  0.0000 -0.0419  0.0000
  28.  C 5 (px)     0.0004  0.0008  0.0037  0.0183  0.0115  0.1318 -0.0981 -0.0143
  29.  C 5 (py)     0.0006  0.0014  0.0064  0.0317 -0.0622 -0.0603 -0.1698  0.0752
  30.  C 5 (pz)     0.0003  0.0006  0.0026  0.0130  0.1361 -0.0387 -0.0693 -0.1641
  31.  C 5 (d1)    -0.0014  0.0012  0.0063 -0.0074  0.0095 -0.0135  0.0059 -0.0109
  32.  C 5 (d4)    -0.0016  0.0011  0.0098  0.0032  0.0086  0.0083 -0.0110 -0.0192
  33.  C 5 (d6)    -0.0014  0.0012  0.0054 -0.0101 -0.0181  0.0051  0.0101  0.0301
  34.  C 5 (d2)    -0.0001 -0.0001  0.0035  0.0107 -0.0085 -0.0048 -0.0169  0.0087
  35.  C 5 (d3)    -0.0001  0.0000  0.0014  0.0044  0.0034  0.0126 -0.0069  0.0023
  36.  C 5 (d5)    -0.0001 -0.0001  0.0024  0.0075 -0.0023 -0.0072 -0.0119  0.0116
  37.  H 6 (s)      0.0000 -0.0002  0.0861 -0.1170  0.0441 -0.1753  0.0811 -0.0508
  38.  H 6 (s)      0.0018 -0.0018  0.0180 -0.0439  0.0324 -0.1291  0.0766 -0.0474
  39.  H 7 (s)      0.0000 -0.0002  0.0861 -0.1170 -0.1738  0.0495  0.0811  0.2022
  40.  H 7 (s)      0.0018 -0.0018  0.0180 -0.0439 -0.1280  0.0364  0.0766  0.1889
  41.  H 8 (s)      0.0000 -0.0002  0.0861 -0.1170  0.1298  0.1258  0.0811 -0.1514
  42.  H 8 (s)      0.0018 -0.0018  0.0180 -0.0439  0.0955  0.0926  0.0766 -0.1415

           AO          9      10      11      12      13      14      15      16
      ------------ ------- ------- ------- ------- ------- ------- ------- -------
   1.  C 1 (s)      0.0000 -0.0954 -0.1265  0.0000  0.0000  0.0000  0.0000  0.0431
   2.  C 1 (s)      0.0000  0.0696  0.0506  0.0000  0.0000  0.0000  0.0000 -0.0171
   3.  C 1 (px)     0.2709  0.0459  0.0150 -0.2080 -0.0361 -0.1803 -0.0171  0.1266
   4.  C 1 (py)    -0.1236  0.0796  0.0260  0.0875  0.1070  0.0819  0.0857  0.2192
   5.  C 1 (pz)    -0.0803  0.0325  0.0106  0.0799 -0.2111  0.0543 -0.1858  0.0895
   6.  C 1 (s)      0.0000  1.7137  2.4847  0.0000  0.0000  0.0000  0.0000 -0.9419
   7.  C 1 (px)     0.1590  0.2455 -0.1192 -0.7585 -0.1317 -1.2256 -0.1160  0.8883
   8.  C 1 (py)    -0.0726  0.4251 -0.2064  0.3189  0.3903  0.5568  0.5827  1.5386
   9.  C 1 (pz)    -0.0472  0.1736 -0.0843  0.2915 -0.7697  0.3694 -1.2632  0.6281
  10.  C 1 (d1)     0.0272 -0.0086 -0.0079  0.0140  0.0000 -0.0028 -0.0071 -0.0054
  11.  C 1 (d4)    -0.0185 -0.0039 -0.0105 -0.0096 -0.0117  0.0037  0.0039  0.0074
  12.  C 1 (d6)    -0.0086 -0.0097 -0.0073 -0.0044  0.0117 -0.0009  0.0032 -0.0087
  13.  C 1 (d2)     0.0136  0.0046 -0.0026  0.0091  0.0006 -0.0054  0.0075  0.0128
  14.  C 1 (d3)    -0.0132  0.0019 -0.0010 -0.0007  0.0062 -0.0107 -0.0095  0.0052
  15.  C 1 (d5)     0.0039  0.0033 -0.0018 -0.0045  0.0094  0.0101 -0.0080  0.0091
  16.  H 2 (s)     -0.0581  0.0039  0.0040 -0.0189  0.0500 -0.0074  0.0254 -0.0488
  17.  H 2 (s)     -0.0543 -0.8241 -0.8488 -0.4643  1.2256 -0.4047  1.3838 -0.4591
  18.  H 3 (s)      0.2041  0.0039  0.0040  0.0528 -0.0086  0.0257 -0.0063 -0.0488
  19.  H 3 (s)      0.1907 -0.8241 -0.8488  1.2936 -0.2108  1.4007 -0.3414 -0.4591
  20.  H 4 (s)     -0.1460  0.0039  0.0040 -0.0338 -0.0414 -0.0183 -0.0191 -0.0488
  21.  H 4 (s)     -0.1364 -0.8241 -0.8488 -0.8293 -1.0149 -0.9960 -1.0424 -0.4591
  22.  C 5 (s)      0.0000 -0.0954  0.1265  0.0000  0.0000  0.0000  0.0000 -0.0431
  23.  C 5 (s)      0.0000  0.0696 -0.0506  0.0000  0.0000  0.0000  0.0000  0.0171
  24.  C 5 (px)    -0.2709 -0.0459  0.0150 -0.2080 -0.0361  0.1803  0.0171  0.1266
  25.  C 5 (py)     0.1236 -0.0796  0.0260  0.0875  0.1070 -0.0819 -0.0857  0.2192
  26.  C 5 (pz)     0.0803 -0.0325  0.0106  0.0799 -0.2111 -0.0543  0.1858  0.0895
  27.  C 5 (s)      0.0000  1.7137 -2.4847  0.0000  0.0000  0.0000  0.0000  0.9419
  28.  C 5 (px)    -0.1590 -0.2455 -0.1192 -0.7585 -0.1317  1.2256  0.1160  0.8883
  29.  C 5 (py)     0.0726 -0.4251 -0.2064  0.3189  0.3903 -0.5568 -0.5827  1.5386
  30.  C 5 (pz)     0.0472 -0.1736 -0.0843  0.2915 -0.7697 -0.3694  1.2632  0.6281
  31.  C 5 (d1)     0.0272 -0.0086  0.0079 -0.0140  0.0000 -0.0028 -0.0071  0.0054
  32.  C 5 (d4)    -0.0185 -0.0039  0.0105  0.0096  0.0117  0.0037  0.0039 -0.0074
  33.  C 5 (d6)    -0.0086 -0.0097  0.0073  0.0044 -0.0117 -0.0009  0.0032  0.0087
  34.  C 5 (d2)     0.0136  0.0046  0.0026 -0.0091 -0.0006 -0.0054  0.0075 -0.0128
  35.  C 5 (d3)    -0.0132  0.0019  0.0010  0.0007 -0.0062 -0.0107 -0.0095 -0.0052
  36.  C 5 (d5)     0.0039  0.0033  0.0018  0.0045 -0.0094  0.0101 -0.0080 -0.0091
  37.  H 6 (s)      0.2041  0.0039 -0.0040 -0.0528  0.0086  0.0257 -0.0063  0.0488
  38.  H 6 (s)      0.1907 -0.8241  0.8488 -1.2936  0.2108  1.4007 -0.3414  0.4591
  39.  H 7 (s)     -0.0581  0.0039 -0.0040  0.0189 -0.0500 -0.0074  0.0254  0.0488
  40.  H 7 (s)     -0.0543 -0.8241  0.8488  0.4643 -1.2256 -0.4047  1.3838  0.4591
  41.  H 8 (s)     -0.1460  0.0039 -0.0040  0.0338  0.0414 -0.0183 -0.0191  0.0488
  42.  H 8 (s)     -0.1364 -0.8241  0.8488  0.8293  1.0149 -0.9960 -1.0424  0.4591

           AO         17      18      19      20      21      22      23      24
      ------------ ------- ------- ------- ------- ------- ------- ------- -------
   1.  C 1 (s)      0.0104  0.0000  0.0000  0.0000  0.0000 -0.0508  0.0000  0.0000
   2.  C 1 (s)      0.0528  0.0000  0.0000  0.0000  0.0000  0.3194  0.0000  0.0000
   3.  C 1 (px)    -0.2823 -0.0517 -0.3724 -0.5597 -0.0473 -0.3801  0.6224  0.0631
   4.  C 1 (py)    -0.4890  0.1852  0.1621  0.2567  0.2633 -0.6583 -0.2810 -0.2980
   5.  C 1 (pz)    -0.1996 -0.3805  0.1295  0.1628 -0.5780 -0.2688 -0.1920  0.6406
   6.  C 1 (s)      0.3043  0.0000  0.0000  0.0000  0.0000 -0.7542  0.0000  0.0000
   7.  C 1 (px)     0.4258  0.0897  0.6458  1.4609  0.1235  0.7399 -0.9207 -0.0934
   8.  C 1 (py)     0.7374 -0.3212 -0.2811 -0.6700 -0.6872  1.2815  0.4156  0.4408
   9.  C 1 (pz)     0.3011  0.6598 -0.2246 -0.4248  1.5087  0.5232  0.2840 -0.9477
  10.  C 1 (d1)    -0.0005  0.0278 -0.0720 -0.0395  0.0455  0.0126 -0.1391  0.0377
  11.  C 1 (d4)     0.0655  0.0514  0.0450  0.0207  0.0213 -0.0513  0.0970  0.1029
  12.  C 1 (d6)    -0.0170 -0.0793  0.0270  0.0188 -0.0667  0.0286  0.0421 -0.1406
  13.  C 1 (d2)     0.0661 -0.0273 -0.0324 -0.0058 -0.0428 -0.0639 -0.0766 -0.0286
  14.  C 1 (d3)     0.0270 -0.0006  0.0388  0.0627  0.0292 -0.0261  0.0438 -0.0292
  15.  C 1 (d5)     0.0467 -0.0283 -0.0127 -0.0432  0.0079 -0.0452  0.0016 -0.0728
  16.  H 2 (s)     -0.1392 -0.4069  0.1385  0.0786 -0.2793 -0.1215  0.1399 -0.4668
  17.  H 2 (s)      0.0037 -0.0144  0.0049  0.0973 -0.3457 -0.2434 -0.3474  1.1590
  18.  H 3 (s)     -0.1392  0.0835 -0.4217 -0.2812  0.0715 -0.1215 -0.4742  0.1122
  19.  H 3 (s)      0.0037  0.0030 -0.0150 -0.3481  0.0885 -0.2434  1.1774 -0.2787
  20.  H 4 (s)     -0.1392  0.3234  0.2831  0.2026  0.2078 -0.1215  0.3343  0.3545
  21.  H 4 (s)      0.0037  0.0115  0.0100  0.2507  0.2572 -0.2434 -0.8300 -0.8803
  22.  C 5 (s)      0.0104  0.0000  0.0000  0.0000  0.0000  0.0508  0.0000  0.0000
  23.  C 5 (s)      0.0528  0.0000  0.0000  0.0000  0.0000 -0.3194  0.0000  0.0000
  24.  C 5 (px)     0.2823 -0.0517 -0.3724  0.5597  0.0473 -0.3801  0.6224  0.0631
  25.  C 5 (py)     0.4890  0.1852  0.1621 -0.2567 -0.2633 -0.6583 -0.2810 -0.2980
  26.  C 5 (pz)     0.1996 -0.3805  0.1295 -0.1628  0.5780 -0.2688 -0.1920  0.6406
  27.  C 5 (s)      0.3043  0.0000  0.0000  0.0000  0.0000  0.7542  0.0000  0.0000
  28.  C 5 (px)    -0.4258  0.0897  0.6458 -1.4609 -0.1235  0.7399 -0.9207 -0.0934
  29.  C 5 (py)    -0.7374 -0.3212 -0.2811  0.6700  0.6872  1.2815  0.4156  0.4408
  30.  C 5 (pz)    -0.3011  0.6598 -0.2246  0.4248 -1.5087  0.5232  0.2840 -0.9477
  31.  C 5 (d1)    -0.0005 -0.0278  0.0720 -0.0395  0.0455 -0.0126  0.1391 -0.0377
  32.  C 5 (d4)     0.0655 -0.0514 -0.0450  0.0207  0.0213  0.0513 -0.0970 -0.1029
  33.  C 5 (d6)    -0.0170  0.0793 -0.0270  0.0188 -0.0667 -0.0286 -0.0421  0.1406
  34.  C 5 (d2)     0.0661  0.0273  0.0324 -0.0058 -0.0428  0.0639  0.0766  0.0286
  35.  C 5 (d3)     0.0270  0.0006 -0.0388  0.0627  0.0292  0.0261 -0.0438  0.0292
  36.  C 5 (d5)     0.0467  0.0283  0.0127 -0.0432  0.0079  0.0452 -0.0016  0.0728
  37.  H 6 (s)     -0.1392 -0.0835  0.4217 -0.2812  0.0715  0.1215  0.4742 -0.1122
  38.  H 6 (s)      0.0037 -0.0030  0.0150 -0.3481  0.0885  0.2434 -1.1774  0.2787
  39.  H 7 (s)     -0.1392  0.4069 -0.1385  0.0786 -0.2793  0.1215 -0.1399  0.4668
  40.  H 7 (s)      0.0037  0.0144 -0.0049  0.0973 -0.3457  0.2434  0.3474 -1.1590
  41.  H 8 (s)     -0.1392 -0.3234 -0.2831  0.2026  0.2078  0.1215 -0.3343 -0.3545
  42.  H 8 (s)      0.0037 -0.0115 -0.0100  0.2507  0.2572  0.2434  0.8300  0.8803

           AO         25      26      27      28      29      30      31      32
      ------------ ------- ------- ------- ------- ------- ------- ------- -------
   1.  C 1 (s)      0.0510  0.0000  0.0000  0.0249 -0.0684 -0.1404  0.0000  0.0000
   2.  C 1 (s)     -0.4461  0.0000  0.0000 -1.0850 -1.4117 -1.4353  0.0000  0.0000
   3.  C 1 (px)    -0.1915  0.4957  0.0456 -0.1571  0.0239  0.0231 -0.0867  0.0081
   4.  C 1 (py)    -0.3316 -0.2258 -0.2350 -0.2721  0.0414  0.0399  0.0394 -0.0412
   5.  C 1 (pz)    -0.1354 -0.1480  0.5112 -0.1111  0.0169  0.0163  0.0260  0.0894
   6.  C 1 (s)      0.7134  0.0000  0.0000  2.5488  3.1811  5.5578  0.0000  0.0000
   7.  C 1 (px)     0.1279 -0.5273 -0.0485  0.1723  0.2253 -0.7038 -0.0860  0.0080
   8.  C 1 (py)     0.2214  0.2402  0.2500  0.2984  0.3902 -1.2190  0.0391 -0.0408
   9.  C 1 (pz)     0.0904  0.1574 -0.5438  0.1218  0.1593 -0.4977  0.0258  0.0886
  10.  C 1 (d1)    -0.0060 -0.0989  0.0868 -0.0513 -0.0920 -0.0738 -0.2767  0.2150
  11.  C 1 (d4)    -0.0668  0.0567  0.0590 -0.0729 -0.1326 -0.0287  0.2602 -0.2716
  12.  C 1 (d6)     0.0092  0.0422 -0.1458 -0.0458 -0.0819 -0.0851  0.0165  0.0566
  13.  C 1 (d2)    -0.0608 -0.0259 -0.0804 -0.0217 -0.0405  0.0452 -0.2971 -0.2439
  14.  C 1 (d3)    -0.0248  0.1179  0.0453 -0.0089 -0.0165  0.0184 -0.3433  0.3884
  15.  C 1 (d5)    -0.0430 -0.0750 -0.0024 -0.0153 -0.0287  0.0319  0.3769  0.3901
  16.  H 2 (s)      0.4868  0.1744 -0.6024  0.3619 -0.1930 -0.5052 -0.0422 -0.1450
  17.  H 2 (s)     -0.4154 -0.2585  0.8930 -0.8279 -0.7673 -0.3921 -0.0016 -0.0055
  18.  H 3 (s)      0.4869 -0.6088  0.1501  0.3619 -0.1930 -0.5052  0.1467  0.0360
  19.  H 3 (s)     -0.4155  0.9026 -0.2226 -0.8279 -0.7673 -0.3921  0.0056  0.0014
  20.  H 4 (s)      0.4868  0.4345  0.4522  0.3619 -0.1930 -0.5052 -0.1045  0.1090
  21.  H 4 (s)     -0.4155 -0.6441 -0.6704 -0.8279 -0.7673 -0.3921 -0.0040  0.0042
  22.  C 5 (s)      0.0510  0.0000  0.0000 -0.0249 -0.0684  0.1404  0.0000  0.0000
  23.  C 5 (s)     -0.4461  0.0000  0.0000  1.0850 -1.4117  1.4353  0.0000  0.0000
  24.  C 5 (px)     0.1915 -0.4957 -0.0456 -0.1571 -0.0239  0.0231 -0.0867  0.0081
  25.  C 5 (py)     0.3316  0.2258  0.2350 -0.2721 -0.0414  0.0399  0.0394 -0.0412
  26.  C 5 (pz)     0.1354  0.1480 -0.5112 -0.1111 -0.0169  0.0163  0.0260  0.0894
  27.  C 5 (s)      0.7134  0.0000  0.0000 -2.5488  3.1811 -5.5578  0.0000  0.0000
  28.  C 5 (px)    -0.1279  0.5273  0.0485  0.1723 -0.2253 -0.7038 -0.0860  0.0080
  29.  C 5 (py)    -0.2214 -0.2402 -0.2500  0.2984 -0.3902 -1.2190  0.0391 -0.0408
  30.  C 5 (pz)    -0.0904 -0.1574  0.5438  0.1218 -0.1593 -0.4977  0.0258  0.0886
  31.  C 5 (d1)    -0.0060 -0.0989  0.0868  0.0513 -0.0920  0.0738  0.2767 -0.2150
  32.  C 5 (d4)    -0.0668  0.0567  0.0590  0.0729 -0.1326  0.0287 -0.2602  0.2716
  33.  C 5 (d6)     0.0092  0.0422 -0.1458  0.0458 -0.0819  0.0851 -0.0165 -0.0566
  34.  C 5 (d2)    -0.0608 -0.0259 -0.0804  0.0217 -0.0405 -0.0452  0.2971  0.2439
  35.  C 5 (d3)    -0.0248  0.1179  0.0453  0.0089 -0.0165 -0.0184  0.3433 -0.3884
  36.  C 5 (d5)    -0.0430 -0.0750 -0.0024  0.0153 -0.0287 -0.0319 -0.3769 -0.3901
  37.  H 6 (s)      0.4869 -0.6088  0.1501 -0.3619 -0.1930  0.5052 -0.1467 -0.0360
  38.  H 6 (s)     -0.4155  0.9026 -0.2226  0.8279 -0.7673  0.3921 -0.0056 -0.0014
  39.  H 7 (s)      0.4868  0.1744 -0.6024 -0.3619 -0.1930  0.5052  0.0422  0.1450
  40.  H 7 (s)     -0.4154 -0.2585  0.8930  0.8279 -0.7673  0.3921  0.0016  0.0055
  41.  H 8 (s)      0.4868  0.4345  0.4522 -0.3619 -0.1930  0.5052  0.1045 -0.1090
  42.  H 8 (s)     -0.4155 -0.6441 -0.6704  0.8279 -0.7673  0.3921  0.0040 -0.0042

           AO         33      34      35      36      37      38      39      40
      ------------ ------- ------- ------- ------- ------- ------- ------- -------
   1.  C 1 (s)      0.0275  0.0000  0.0000  0.0000  0.0000  0.0000  0.0000 -0.0711
   2.  C 1 (s)     -0.3756  0.0000  0.0000  0.0000  0.0000  0.0000  0.0000  0.0553
   3.  C 1 (px)     0.1225  0.0007  0.0078  0.0081  0.1278  0.0615  0.0063 -0.1816
   4.  C 1 (py)     0.2122 -0.0037 -0.0036 -0.0588 -0.0598 -0.0277 -0.0295 -0.3146
   5.  C 1 (pz)     0.0866  0.0081 -0.0023  0.1325 -0.0343 -0.0191  0.0633 -0.1284
   6.  C 1 (s)      0.0469  0.0000  0.0000  0.0000  0.0000  0.0000  0.0000  1.3512
   7.  C 1 (px)    -0.1640  0.0627  0.6785  0.0124  0.1951  0.1976  0.0204 -0.4164
   8.  C 1 (py)    -0.2840 -0.3218 -0.3089 -0.0897 -0.0913 -0.0891 -0.0948 -0.7211
   9.  C 1 (pz)    -0.1159  0.6996 -0.2029  0.2023 -0.0524 -0.0613  0.2033 -0.2944
  10.  C 1 (d1)    -0.1175 -0.3560 -0.0581 -0.3694  0.5493  0.6905 -0.1826 -0.2226
  11.  C 1 (d4)     0.3286  0.1291  0.1239 -0.3556 -0.3616 -0.4812 -0.5119  0.4338
  12.  C 1 (d6)    -0.2291  0.2269 -0.0658  0.7249 -0.1877 -0.2093  0.6945 -0.3867
  13.  C 1 (d2)     0.4461  0.3700 -0.2149  0.3074  0.2228  0.3818  0.1389  0.6563
  14.  C 1 (d3)     0.1821 -0.4313 -0.5298 -0.0880 -0.4671 -0.2124  0.1485  0.2680
  15.  C 1 (d5)     0.3155 -0.3425  0.4774  0.1222  0.2512 -0.0130  0.3641  0.4641
  16.  H 2 (s)      0.2117 -0.3237  0.0939 -0.5470  0.1416  0.1440 -0.4779  0.1123
  17.  H 2 (s)     -0.0498 -0.2060  0.0597  0.0888 -0.0230 -0.0318  0.1054 -0.0261
  18.  H 3 (s)      0.2117  0.0806 -0.3273  0.1508 -0.5445 -0.4859  0.1142  0.1123
  19.  H 3 (s)     -0.0498  0.0513 -0.2083 -0.0245  0.0884  0.1071 -0.0252 -0.0261
  20.  H 4 (s)      0.2117  0.2431  0.2334  0.3961  0.4029  0.3418  0.3637  0.1123
  21.  H 4 (s)     -0.0498  0.1547  0.1485 -0.0643 -0.0654 -0.0754 -0.0802 -0.0261
  22.  C 5 (s)      0.0275  0.0000  0.0000  0.0000  0.0000  0.0000  0.0000  0.0711
  23.  C 5 (s)     -0.3756  0.0000  0.0000  0.0000  0.0000  0.0000  0.0000 -0.0553
  24.  C 5 (px)    -0.1225 -0.0007 -0.0078  0.0081  0.1278 -0.0615 -0.0063 -0.1816
  25.  C 5 (py)    -0.2122  0.0037  0.0036 -0.0588 -0.0598  0.0277  0.0295 -0.3146
  26.  C 5 (pz)    -0.0866 -0.0081  0.0023  0.1325 -0.0343  0.0191 -0.0633 -0.1284
  27.  C 5 (s)      0.0469  0.0000  0.0000  0.0000  0.0000  0.0000  0.0000 -1.3512
  28.  C 5 (px)     0.1640 -0.0627 -0.6785  0.0124  0.1951 -0.1976 -0.0204 -0.4164
  29.  C 5 (py)     0.2840  0.3218  0.3089 -0.0897 -0.0913  0.0891  0.0948 -0.7211
  30.  C 5 (pz)     0.1159 -0.6996  0.2029  0.2023 -0.0524  0.0613 -0.2033 -0.2944
  31.  C 5 (d1)    -0.1175 -0.3560 -0.0581  0.3694 -0.5493  0.6905 -0.1826  0.2226
  32.  C 5 (d4)     0.3286  0.1291  0.1239  0.3556  0.3616 -0.4812 -0.5119 -0.4338
  33.  C 5 (d6)    -0.2291  0.2269 -0.0658 -0.7249  0.1877 -0.2093  0.6945  0.3867
  34.  C 5 (d2)     0.4461  0.3700 -0.2149 -0.3074 -0.2228  0.3818  0.1389 -0.6563
  35.  C 5 (d3)     0.1821 -0.4313 -0.5298  0.0880  0.4671 -0.2124  0.1485 -0.2680
  36.  C 5 (d5)     0.3155 -0.3425  0.4774 -0.1222 -0.2512 -0.0130  0.3641 -0.4641
  37.  H 6 (s)      0.2117  0.0806 -0.3273 -0.1508  0.5445 -0.4859  0.1142 -0.1123
  38.  H 6 (s)     -0.0498  0.0513 -0.2083  0.0245 -0.0884  0.1071 -0.0252  0.0261
  39.  H 7 (s)      0.2117 -0.3237  0.0939  0.5470 -0.1416  0.1440 -0.4779 -0.1123
  40.  H 7 (s)     -0.0498 -0.2060  0.0597 -0.0888  0.0230 -0.0318  0.1054  0.0261
  41.  H 8 (s)      0.2117  0.2431  0.2334 -0.3961 -0.4029  0.3418  0.3637 -0.1123
  42.  H 8 (s)     -0.0498  0.1547  0.1485  0.0643  0.0654 -0.0754 -0.0802  0.0261

           AO         41      42
      ------------ ------- -------
   1.  C 1 (s)     -0.3477 -0.3492
   2.  C 1 (s)      2.0666  2.0507
   3.  C 1 (px)    -0.0202  0.0529
   4.  C 1 (py)    -0.0349  0.0916
   5.  C 1 (pz)    -0.0143  0.0374
   6.  C 1 (s)      1.4114  2.3274
   7.  C 1 (px)     0.0614 -0.0933
   8.  C 1 (py)     0.1063 -0.1616
   9.  C 1 (pz)     0.0434 -0.0660
  10.  C 1 (d1)    -1.3233 -1.3649
  11.  C 1 (d4)    -1.2487 -1.4863
  12.  C 1 (d6)    -1.3419 -1.3346
  13.  C 1 (d2)     0.0745 -0.1214
  14.  C 1 (d3)     0.0304 -0.0495
  15.  C 1 (d5)     0.0527 -0.0858
  16.  H 2 (s)      0.1119  0.0450
  17.  H 2 (s)     -0.3595 -0.3728
  18.  H 3 (s)      0.1119  0.0450
  19.  H 3 (s)     -0.3595 -0.3728
  20.  H 4 (s)      0.1119  0.0450
  21.  H 4 (s)     -0.3595 -0.3728
  22.  C 5 (s)     -0.3477  0.3492
  23.  C 5 (s)      2.0666 -2.0507
  24.  C 5 (px)     0.0202  0.0529
  25.  C 5 (py)     0.0349  0.0916
  26.  C 5 (pz)     0.0143  0.0374
  27.  C 5 (s)      1.4114 -2.3274
  28.  C 5 (px)    -0.0614 -0.0933
  29.  C 5 (py)    -0.1063 -0.1616
  30.  C 5 (pz)    -0.0434 -0.0660
  31.  C 5 (d1)    -1.3233  1.3649
  32.  C 5 (d4)    -1.2487  1.4863
  33.  C 5 (d6)    -1.3419  1.3346
  34.  C 5 (d2)     0.0745  0.1214
  35.  C 5 (d3)     0.0304  0.0495
  36.  C 5 (d5)     0.0527  0.0858
  37.  H 6 (s)      0.1119 -0.0450
  38.  H 6 (s)     -0.3595  0.3728
  39.  H 7 (s)      0.1119 -0.0450
  40.  H 7 (s)     -0.3595  0.3728
  41.  H 8 (s)      0.1119 -0.0450
  42.  H 8 (s)     -0.3595  0.3728


 NOs in the AO basis:

           AO          1       2       3       4       5       6       7       8
      ------------ ------- ------- ------- ------- ------- ------- ------- -------
   1.  C 1 (s)      0.6508  0.6101 -0.3435 -0.3121 -0.0831  0.0519  0.0852  0.0177
   2.  C 1 (s)      0.0582 -0.0208 -0.0219  0.1212  0.2761 -0.1795 -0.0416 -0.0384
   3.  C 1 (px)    -0.0307  0.1140  0.2256 -0.1082 -0.0237 -0.1666 -0.0962  0.1652
   4.  C 1 (py)     0.0255 -0.0163 -0.0542  0.1191 -0.0312 -0.0577  0.1026  0.3538
   5.  C 1 (pz)     0.0294 -0.1386 -0.2256 -0.0014 -0.0158  0.0738 -0.2797  0.1101
   6.  C 1 (s)      0.0332 -0.0454 -0.0140  0.1526  0.2457 -0.2104 -0.0535 -0.0417
   7.  C 1 (px)    -0.0151  0.0645  0.1253 -0.0516 -0.0039 -0.0705 -0.0436  0.0849
   8.  C 1 (py)     0.0106 -0.0077 -0.0231  0.0472  0.0004 -0.0125  0.0536  0.1825
   9.  C 1 (pz)     0.0119 -0.0813 -0.1275 -0.0136 -0.0020  0.0403 -0.1354  0.0562
  10.  C 1 (d1)    -0.0018  0.0130  0.0258  0.0037  0.0060 -0.0133  0.0056  0.0054
  11.  C 1 (d4)    -0.0005 -0.0022 -0.0015  0.0046  0.0100  0.0047  0.0114 -0.0087
  12.  C 1 (d6)     0.0013 -0.0171 -0.0225  0.0005  0.0056 -0.0015 -0.0202  0.0080
  13.  C 1 (d2)    -0.0015  0.0028  0.0058 -0.0062  0.0022  0.0090 -0.0053 -0.0187
  14.  C 1 (d3)     0.0008 -0.0068 -0.0123  0.0030  0.0012  0.0081  0.0067 -0.0058
  15.  C 1 (d5)    -0.0025 -0.0020 -0.0006 -0.0101  0.0017  0.0027 -0.0015 -0.0133
  16.  H 2 (s)      0.0316 -0.1142 -0.1643  0.0385  0.0898 -0.0244 -0.1921  0.0647
  17.  H 2 (s)      0.0156 -0.0957 -0.1468 -0.0078  0.0197  0.0112 -0.1360  0.0629
  18.  H 3 (s)     -0.0076  0.0948  0.1937 -0.0051  0.0885 -0.1790 -0.0147  0.0710
  19.  H 3 (s)     -0.0092  0.0967  0.1717 -0.0145  0.0180 -0.0975 -0.0017  0.0685
  20.  H 4 (s)      0.0310 -0.0263 -0.0517  0.1398  0.0955 -0.0641  0.1203  0.1075
  21.  H 4 (s)      0.0176 -0.0104 -0.0370  0.0783  0.0260 -0.0154  0.0959  0.0985
  22.  C 5 (s)     -0.6639  0.5835 -0.4206  0.1748 -0.0768 -0.1634 -0.0863  0.0169
  23.  C 5 (s)     -0.0593  0.0162  0.0281 -0.1153  0.2597  0.1987  0.0592 -0.0476
  24.  C 5 (px)    -0.0436 -0.0712 -0.0497 -0.2232  0.0396 -0.1922 -0.0883 -0.1942
  25.  C 5 (py)     0.0310 -0.0307 -0.0522  0.1591  0.0303 -0.0579  0.1464 -0.3216
  26.  C 5 (pz)     0.0633  0.1335  0.1548  0.1838  0.0214  0.1100 -0.2361 -0.1336
  27.  C 5 (s)     -0.0334 -0.0020  0.0470 -0.1415  0.2268  0.2311  0.0700 -0.0521
  28.  C 5 (px)    -0.0229 -0.0420 -0.0377 -0.1207  0.0110 -0.0865 -0.0411 -0.0993
  29.  C 5 (py)     0.0134 -0.0122 -0.0243  0.0679 -0.0021 -0.0141  0.0755 -0.1676
  30.  C 5 (pz)     0.0316  0.0800  0.0949  0.0940  0.0042  0.0609 -0.1114 -0.0679
  31.  C 5 (d1)     0.0046  0.0122  0.0179  0.0157  0.0051  0.0180 -0.0033  0.0054
  32.  C 5 (d4)     0.0011 -0.0007  0.0035 -0.0040  0.0108 -0.0038 -0.0095 -0.0105
  33.  C 5 (d6)    -0.0048 -0.0156 -0.0163 -0.0196  0.0047 -0.0016  0.0164  0.0093
  34.  C 5 (d2)     0.0021 -0.0003  0.0004  0.0112  0.0026 -0.0083  0.0080 -0.0168
  35.  C 5 (d3)    -0.0018 -0.0050 -0.0046 -0.0104  0.0021 -0.0096 -0.0069 -0.0074
  36.  C 5 (d5)     0.0020 -0.0047 -0.0071  0.0080  0.0019 -0.0034  0.0026 -0.0120
  37.  H 6 (s)      0.0244  0.0830  0.0960  0.1320  0.0741  0.2133  0.0264  0.0796
  38.  H 6 (s)      0.0252  0.0814  0.0905  0.1312  0.0103  0.1241  0.0097  0.0765
  39.  H 7 (s)     -0.0563 -0.0968 -0.1007 -0.1687  0.0801  0.0064  0.1673  0.0758
  40.  H 7 (s)     -0.0384 -0.0895 -0.1093 -0.1157  0.0154 -0.0335  0.1098  0.0727
  41.  H 8 (s)     -0.0307  0.0231  0.0585 -0.1542  0.0956  0.0723 -0.1263  0.0744
  42.  H 8 (s)     -0.0170  0.0194  0.0349 -0.0936  0.0289  0.0177 -0.1045  0.0758

           AO          9      10      11      12      13      14      15      16
      ------------ ------- ------- ------- ------- ------- ------- ------- -------
   1.  C 1 (s)     -0.0246 -0.0061  0.0346  0.0030 -0.0590 -0.0307 -0.0474  0.0910
   2.  C 1 (s)     -0.0063 -0.0303 -0.0864  0.1035  0.0718  0.2040  0.1087 -0.2510
   3.  C 1 (px)    -0.2171  0.2460 -0.1399 -0.3148  0.0841  0.4731 -0.1816  0.0511
   4.  C 1 (py)     0.1614  0.0916 -0.6605  0.1567  0.1170 -0.4215  0.0400 -0.0413
   5.  C 1 (pz)    -0.1506 -0.6344 -0.0157  0.1497  0.5177 -0.0294 -0.3671  0.0875
   6.  C 1 (s)     -0.0035  0.0044 -0.1519 -0.1531  0.0563 -0.0238  0.0687 -0.1091
   7.  C 1 (px)    -0.1270  0.0047  0.2186  0.2767  0.4806  0.2440  0.6288  0.0916
   8.  C 1 (py)     0.0951  0.1327  0.9812  0.1517  0.2492 -0.2150 -0.2514 -0.4917
   9.  C 1 (pz)    -0.0884  0.4208  0.2792  0.0377 -0.5734 -0.0394  0.0078 -0.2125
  10.  C 1 (d1)    -0.0116 -0.3489  0.0060 -0.0824 -0.4105 -0.1108  0.1495  0.3372
  11.  C 1 (d4)     0.0270  0.0658  0.1972  0.3430 -0.1812 -0.2784 -0.1542  0.1517
  12.  C 1 (d6)    -0.0162 -0.0371 -0.0717 -0.0140  0.2475  0.0799 -0.4221  0.4867
  13.  C 1 (d2)    -0.0148  0.0217 -0.1812  0.1173 -0.0833 -0.2111  0.0702  0.0679
  14.  C 1 (d3)     0.0079 -0.1990 -0.0372 -0.0879  0.0386 -0.0242 -0.2464 -0.1018
  15.  C 1 (d5)    -0.0106 -0.2640 -0.2089 -0.3094 -0.0557  0.2589 -0.0911  0.1399
  16.  H 2 (s)     -0.1110 -0.1308 -0.0221  0.1138 -0.3122  0.0041 -0.0229 -0.0357
  17.  H 2 (s)     -0.1024  0.4561 -0.1834 -0.2647  0.2150  0.0161  0.3917  0.1387
  18.  H 3 (s)     -0.1134 -0.0456  0.1245 -0.1507 -0.1195 -0.4018 -0.5574 -0.1300
  19.  H 3 (s)     -0.1040 -0.2748 -0.0639  0.2769 -0.7394 -0.1435 -0.1003 -0.0977
  20.  H 4 (s)      0.2036 -0.1334 -0.2597  0.0880 -0.5669  0.6295  0.1835  0.5405
  21.  H 4 (s)      0.1917  0.0830  0.2612 -0.4423  0.6140  0.0799  0.0432  0.1970
  22.  C 5 (s)     -0.0059 -0.0080  0.0824  0.0084 -0.0745  0.0594 -0.0295  0.0109
  23.  C 5 (s)     -0.0096  0.0524  0.0066  0.0652  0.5122 -0.3617  0.2910 -0.0339
  24.  C 5 (px)     0.2128  0.4360 -0.1638  0.1753 -0.3301  0.0653 -0.7733 -0.0402
  25.  C 5 (py)    -0.1581 -0.0891  0.4117 -0.3461 -0.1524 -0.3932 -0.0400  0.4713
  26.  C 5 (pz)     0.1547  0.0447  0.1468  0.0852 -0.0941  0.0511 -0.2303 -0.0377
  27.  C 5 (s)     -0.0082  0.1274 -0.1939  0.0531  0.0147 -0.0470 -0.1073 -0.1470
  28.  C 5 (px)     0.1247  0.1241  0.2276  0.1432  0.7987 -0.1650  0.5243 -0.0562
  29.  C 5 (py)    -0.0938  0.1520 -0.1572  0.1367  0.3816  0.2748  0.0727 -1.3257
  30.  C 5 (pz)     0.0903 -0.1125  0.2946  0.1261  0.2238  0.0659  0.1921  0.0155
  31.  C 5 (d1)    -0.0114 -0.0374  0.1923  0.2639 -0.0990 -0.0147  0.0265  0.2513
  32.  C 5 (d4)     0.0269 -0.0658  0.1973  0.4149 -0.0464  0.4459 -0.0055  0.0907
  33.  C 5 (d6)    -0.0166 -0.0076  0.1237 -0.0637 -0.3207  0.1199 -0.1151  0.3934
  34.  C 5 (d2)    -0.0146 -0.0304  0.0784 -0.0016  0.0284  0.1217 -0.0864 -0.2338
  35.  C 5 (d3)     0.0077  0.0474 -0.0238 -0.0601  0.1416  0.1064 -0.0726  0.0583
  36.  C 5 (d5)    -0.0103  0.1155  0.0374 -0.3054  0.0995 -0.0205  0.0639 -0.1195
  37.  H 6 (s)     -0.1115  0.5202  0.3203  0.1375  0.2059 -0.0002 -0.4691  0.1966
  38.  H 6 (s)     -0.1019 -0.1270 -0.3277 -0.0034  0.2231  0.1451  0.4449 -0.4515
  39.  H 7 (s)     -0.1150 -0.0235  0.3867  0.0109  0.0087  0.3183  0.0660 -0.2518
  40.  H 7 (s)     -0.1046  0.0496  0.2845  0.2039 -0.1294 -0.2322 -0.1170  0.0457
  41.  H 8 (s)      0.2001 -0.2810  0.4005  0.0146 -0.2873  0.1101  0.1753 -0.6292
  42.  H 8 (s)      0.1898  0.0944 -0.1788 -0.7491  0.2132 -0.2871 -0.3200 -0.2675

           AO         17      18      19      20      21      22      23      24
      ------------ ------- ------- ------- ------- ------- ------- ------- -------
   1.  C 1 (s)      0.1780  0.0023 -0.0299  0.0189 -0.0015 -0.0528 -0.0398 -0.1247
   2.  C 1 (s)     -1.2291  0.2544  0.1918 -0.0211  0.0031  0.0513  0.3137  0.3445
   3.  C 1 (px)     0.3904 -0.1616  0.4430  0.1884 -0.1779  0.3691 -0.0005 -0.0452
   4.  C 1 (py)     0.0214 -0.0934 -0.2621  0.3008 -0.1006 -0.0396  0.1268 -0.2968
   5.  C 1 (pz)    -0.0554 -0.4765 -0.1465 -0.1074 -0.0185 -0.0723 -0.0086  0.0053
   6.  C 1 (s)     -0.9801 -0.6185  0.2019 -0.0750 -0.0892  0.7874 -0.0790  1.2560
   7.  C 1 (px)    -1.5700  0.9743 -0.9720  0.1099 -0.2046 -0.9706  0.1901 -0.2042
   8.  C 1 (py)    -0.0660  0.0371  1.1883 -0.1427 -0.1553  0.3741 -0.9182  1.1452
   9.  C 1 (pz)     1.1100  1.1986  0.7934  0.1811 -0.1663 -1.3438  0.7803  0.1410
  10.  C 1 (d1)     0.4297  0.2366 -0.1284  0.1058 -0.1733  0.1741 -0.3241  0.0005
  11.  C 1 (d4)     0.5522 -0.1056 -0.1163 -0.1813  0.4465 -0.1591  0.0567 -0.5712
  12.  C 1 (d6)     0.8581  0.2173 -0.3554  0.0306  0.2754 -0.3531 -0.1058  0.3969
  13.  C 1 (d2)     0.0336 -0.0543  0.1025  0.2956  0.1529 -0.1084  0.1095 -0.0855
  14.  C 1 (d3)     0.0023 -0.1160  0.1056  0.3880  0.2126  0.0791 -0.0710  0.0118
  15.  C 1 (d5)    -0.0554 -0.0013  0.0164  0.0369 -0.2329 -0.0414  0.0377 -0.0919
  16.  H 2 (s)     -0.3867  0.4130  0.3584 -0.0002  0.1164  0.6265 -0.3502 -0.9185
  17.  H 2 (s)     -0.5381 -1.5569 -0.9661 -0.0537 -0.2160  0.4768 -0.1992  0.2771
  18.  H 3 (s)     -0.5249 -0.4892  0.4137  0.0475  0.1467 -0.5544  0.2744 -0.1158
  19.  H 3 (s)      2.4509  0.2274  0.2066 -0.1618  0.1165  0.6920 -0.1022 -0.2670
  20.  H 4 (s)     -0.0090 -0.1736  0.4249  0.0509  0.0978 -0.3533  0.1563 -0.0064
  21.  H 4 (s)      0.0039  0.8957 -1.2559  0.1992 -0.2466 -0.9469  0.6028 -1.5150
  22.  C 5 (s)      0.0190 -0.1057 -0.1513  0.0271  0.0918  0.0994  0.1507  0.0273
  23.  C 5 (s)     -0.1571  1.0830  1.0407  0.0051 -0.4585 -0.8286 -1.2465 -0.0567
  24.  C 5 (px)    -0.0297  0.2880 -0.3757  0.1820 -0.2135  0.0660 -0.0293  0.0366
  25.  C 5 (py)     0.0940 -0.1634 -0.2685  0.3340 -0.1498 -0.0634 -0.3343 -0.0833
  26.  C 5 (pz)    -0.0213 -0.3249 -0.0072 -0.3435 -0.1580  0.0096 -0.0621 -0.0228
  27.  C 5 (s)      0.0261 -0.0253  0.2457 -0.2383 -0.3963 -0.1326 -0.1239  0.0887
  28.  C 5 (px)     0.4460 -0.8651  1.2514  0.0555  0.1258 -0.8178 -1.1910  0.0907
  29.  C 5 (py)    -0.2289  0.9335  0.7398 -0.0454  0.0753 -0.5362  1.0361  0.0228
  30.  C 5 (pz)    -0.5272  0.7226  0.0330  0.3153  0.1191  0.5444 -0.8537 -0.2526
  31.  C 5 (d1)     0.0043 -0.3106 -0.2873  0.2091  0.2649  0.6645  0.6037  0.1511
  32.  C 5 (d4)     0.1081 -0.4943 -0.4755  0.3787 -0.3953  0.2810  0.5901 -0.0590
  33.  C 5 (d6)     0.1138 -0.4130 -0.5649 -0.1465  0.1695  0.3025  0.7226  0.2163
  34.  C 5 (d2)     0.0477 -0.0146  0.0648 -0.1406 -0.0046 -0.0841  0.0647 -0.0223
  35.  C 5 (d3)     0.0412 -0.0800  0.0677  0.2810  0.0682  0.0480 -0.1298  0.0473
  36.  C 5 (d5)    -0.0794  0.0178 -0.0503 -0.0391 -0.0762  0.0369 -0.0195 -0.0182
  37.  H 6 (s)      0.1107 -0.0897  0.1210  0.2077 -0.0520  0.1170  0.2752 -0.0358
  38.  H 6 (s)      0.1831 -0.6070  0.3393  0.0576  0.3799 -1.2915 -1.4355  0.1272
  39.  H 7 (s)     -0.0444 -0.1689 -0.1070  0.4030  0.6229  0.1713 -0.3436 -0.1059
  40.  H 7 (s)     -0.3926  0.8302  0.2297 -0.3735 -0.4849  0.0919 -0.4356 -0.1993
  41.  H 8 (s)     -0.0262 -0.1135 -0.2397  0.2075 -0.0036 -0.1671  0.0669  0.0290
  42.  H 8 (s)     -0.1239  0.8935  0.3590 -0.1523  0.4649  0.1791  1.3350  0.1200

           AO         25      26      27      28      29      30      31      32
      ------------ ------- ------- ------- ------- ------- ------- ------- -------
   1.  C 1 (s)      0.2267  0.0250  0.0596 -0.1203 -0.0116 -0.0041  0.0467  0.0029
   2.  C 1 (s)      1.5965  0.0088 -0.0072  0.6202 -0.1124  0.0259 -0.3035  0.0053
   3.  C 1 (px)     0.0526  0.5747 -0.0409  0.0665  0.0832 -0.0374 -0.3307  0.0942
   4.  C 1 (py)     0.0131  0.1369  0.2879  0.0141  0.3222  0.3112 -0.1619  0.1820
   5.  C 1 (pz)     0.1225  0.1002 -0.3040  0.3944  0.0747 -0.0240 -0.1205  0.2164
   6.  C 1 (s)     -7.3942 -0.1606 -0.8240  0.9274  0.2283  0.0060  0.3175  0.0040
   7.  C 1 (px)     0.3345 -0.1973  0.3570  0.7861  0.1059 -0.0686  0.1764 -0.1875
   8.  C 1 (py)     1.0723 -0.0483 -0.1788  0.7382 -0.5438  0.1546  0.3165 -0.2308
   9.  C 1 (pz)    -0.1469 -0.0554  0.9240 -0.2175  0.1056  0.0869  0.0842 -0.1161
  10.  C 1 (d1)     0.3935 -0.0917  0.4802 -0.4952 -0.0550 -0.0636 -0.5922  0.1945
  11.  C 1 (d4)     0.1690  0.2521 -0.1791 -0.7121 -0.3250  0.1148 -0.4478 -0.2953
  12.  C 1 (d6)     0.4437  0.2807  0.2780 -0.7393  0.3031 -0.1386  0.4434  0.0407
  13.  C 1 (d2)    -0.1337  0.1944 -0.0287 -0.0704  0.0887 -0.4494 -0.0539 -0.2602
  14.  C 1 (d3)    -0.0262 -0.2138 -0.1086 -0.2397 -0.0242  0.1390 -0.0069 -0.6726
  15.  C 1 (d5)    -0.0641 -0.3965 -0.1173 -0.0829  0.0768 -0.0624 -0.0927 -0.1474
  16.  H 2 (s)      0.0867  0.0184  0.3113 -0.0082 -0.4416 -0.1129  0.1770  0.0691
  17.  H 2 (s)      1.7625 -0.1135 -0.6513 -0.0550  0.0454 -0.0774 -0.0477 -0.1997
  18.  H 3 (s)      0.2086 -0.0876 -0.1327 -0.4928 -0.0321  0.2268  0.5731  0.0997
  19.  H 3 (s)      1.2360 -0.0977 -0.0911 -0.1769 -0.0372  0.0089 -0.0986 -0.0517
  20.  H 4 (s)      0.2755 -0.0078 -0.1831  0.5693  0.2763 -0.3966  0.2587  0.0379
  21.  H 4 (s)      0.7785 -0.0090  0.7413 -1.1034  0.0853 -0.0150 -0.2784  0.0993
  22.  C 5 (s)     -0.0064 -0.0349  0.1052 -0.0069 -0.0468 -0.0341  0.0008  0.0235
  23.  C 5 (s)     -0.6338  0.1727 -0.7963 -0.1269  0.3179  0.2994 -0.1247 -0.0661
  24.  C 5 (px)     0.0230 -0.0850 -0.1835  0.3495 -0.0518  0.0795  0.0056  0.1988
  25.  C 5 (py)     0.0257  0.2552  0.0272  0.2397  0.1029 -0.1513 -0.0271  0.1765
  26.  C 5 (pz)    -0.0493  0.1258  0.8170  0.2555  0.3875  0.2229  0.0662 -0.3151
  27.  C 5 (s)      2.3208 -0.0014  0.1310  0.0969  0.0142 -0.1695  0.0840 -0.1623
  28.  C 5 (px)     0.8819 -0.3499  0.8683 -0.4159 -0.4893 -0.1281 -0.2660  0.0741
  29.  C 5 (py)     1.5243  0.0151  0.4965  1.0800 -0.1026  0.1589  0.2750 -0.0014
  30.  C 5 (pz)     0.9662 -0.1239 -1.5541 -0.3166  0.8358  0.3969 -0.0410  0.3265
  31.  C 5 (d1)     0.1885 -0.1888  0.4177  0.0273  0.1609 -0.3547  0.4128  0.0323
  32.  C 5 (d4)     0.2478  0.1316  0.4136  0.1100 -0.2053  0.4413  0.2710  0.2812
  33.  C 5 (d6)     0.1532  0.1224  0.4362  0.0570 -0.8486  0.1566  0.0660 -0.1182
  34.  C 5 (d2)     0.1215  0.1399  0.0928  0.2072  0.0908 -0.0435  0.0425 -0.0487
  35.  C 5 (d3)     0.0827 -0.1188  0.0634  0.0228 -0.0345  0.1490  0.0173 -0.0398
  36.  C 5 (d5)     0.1157  0.2788 -0.0015  0.1358  0.0889  0.0128  0.1355  0.0300
  37.  H 6 (s)     -0.1444 -0.5240 -0.0269 -0.0237 -0.0782 -0.0635 -0.4717  0.3142
  38.  H 6 (s)      0.1062  0.0582  1.0119  0.0536 -0.8905 -0.2875  0.0367 -0.0609
  39.  H 7 (s)     -0.2022 -0.1293  0.2563  0.1487  0.5805  0.5180  0.0433  0.3527
  40.  H 7 (s)      0.5153  0.0038 -1.1709 -0.4633  1.0029 -0.1547 -0.3076 -0.2476
  41.  H 8 (s)     -0.1601  0.3170 -0.0319 -0.1199  0.1175 -0.7240 -0.1084  0.1365
  42.  H 8 (s)      0.2079 -0.0410  0.3385  1.3315 -0.2815  0.5361  0.2916 -0.1003

           AO         33      34      35      36      37      38      39      40
      ------------ ------- ------- ------- ------- ------- ------- ------- -------
   1.  C 1 (s)     -0.0033 -0.0076 -0.0251  0.0077 -0.0083 -0.0054  0.0013  0.0912
   2.  C 1 (s)      0.0012  0.0324  0.0660 -0.0085  0.0011 -0.1488 -0.0342  0.0413
   3.  C 1 (px)    -0.1433 -0.1327 -0.0765  0.0341 -0.0300 -0.0785  0.0750 -0.0241
   4.  C 1 (py)    -0.0657  0.0642 -0.3948  0.0559  0.1309  0.2520 -0.0064 -0.0031
   5.  C 1 (pz)    -0.1605  0.1402  0.1432 -0.0089 -0.0318 -0.0355  0.1155  0.0038
   6.  C 1 (s)     -0.0154  0.0199  0.0914 -0.0604  0.0602  0.3068  0.0476 -2.6571
   7.  C 1 (px)     0.0249  0.0546  0.0423  0.0810 -0.0969  0.1056 -0.0574  0.7425
   8.  C 1 (py)     0.2204 -0.0381 -0.0645 -0.0922  0.0322 -0.2095 -0.2118  1.0124
   9.  C 1 (pz)     0.0331 -0.0513 -0.1986  0.0659 -0.0105 -0.1526  0.0743  0.4889
  10.  C 1 (d1)    -0.1379  0.1369  0.1413  0.0168  0.1445 -0.0994  0.2723  0.2032
  11.  C 1 (d4)     0.1102 -0.1190 -0.3409 -0.0402 -0.2054 -0.2731 -0.4418  0.2121
  12.  C 1 (d6)     0.2016 -0.0989 -0.1085  0.0731 -0.0955  0.1641 -0.1699  0.1855
  13.  C 1 (d2)    -0.0103 -0.0769  0.7410 -0.1545  0.2731  0.0122 -0.1932 -0.0240
  14.  C 1 (d3)    -0.0445  0.0883 -0.0476  0.3387 -0.1646  0.0819  0.2423 -0.0257
  15.  C 1 (d5)    -0.0840 -0.0484  0.0289 -0.1348  0.0720  0.1291 -0.7372 -0.0272
  16.  H 2 (s)      0.1425  0.0278 -0.0544  0.0033  0.0158  0.0973 -0.0512  0.1201
  17.  H 2 (s)     -0.0446 -0.1596  0.0620 -0.0303  0.0354 -0.0018  0.0548  0.0260
  18.  H 3 (s)      0.0016 -0.0142 -0.0449  0.0243 -0.0122 -0.0257  0.0610  0.0928
  19.  H 3 (s)      0.0083  0.1181 -0.0066 -0.0606 -0.0175 -0.0126 -0.0905  0.0158
  20.  H 4 (s)      0.0901  0.0900  0.2693  0.0176 -0.0553  0.1671 -0.0008  0.0909
  21.  H 4 (s)     -0.4771 -0.0857  0.2290  0.0485  0.0524 -0.2228  0.3080  0.1758
  22.  C 5 (s)     -0.0063  0.0191  0.0253  0.0154  0.0071 -0.0760 -0.0366 -0.3907
  23.  C 5 (s)      0.0450 -0.1143 -0.2049 -0.0681 -0.0001  0.7941  0.0706 -0.2457
  24.  C 5 (px)    -0.1427  0.1104  0.0527  0.0217 -0.0002 -0.0793  0.1079  0.0507
  25.  C 5 (py)     0.0932 -0.1695 -0.4372  0.0750 -0.0148  0.0635  0.1025  0.0428
  26.  C 5 (pz)    -0.0318 -0.0728  0.0587 -0.0763 -0.1732 -0.0534 -0.0362  0.0681
  27.  C 5 (s)      0.1987 -0.0025 -0.0363 -0.0671 -0.1080 -0.1692  0.2054  7.6494
  28.  C 5 (px)     0.2574  0.1066  0.0438  0.0793  0.1216  0.0905  0.0855  0.0296
  29.  C 5 (py)     0.0520 -0.0070 -0.0555  0.0221 -0.1280  0.1696 -0.1426  0.4327
  30.  C 5 (pz)    -0.1193 -0.0073  0.1197  0.0228  0.1625  0.2404 -0.1459 -0.0853
  31.  C 5 (d1)    -0.7928  0.1196 -0.2297  0.0670  0.0532 -0.8236 -0.0917 -1.0201
  32.  C 5 (d4)     0.5048  0.1261  0.0833  0.1460  0.0887 -0.5929 -0.0152 -1.0222
  33.  C 5 (d6)    -0.5235 -0.0215  0.1754 -0.0051 -0.0114  0.4289 -0.0515 -1.0498
  34.  C 5 (d2)    -0.0354  0.1112 -0.3863  0.0979  0.8996  0.1593  0.2883  0.0388
  35.  C 5 (d3)     0.1412  0.2698 -0.1173 -0.8777 -0.0041  0.0964  0.2361 -0.0100
  36.  C 5 (d5)    -0.0270  0.8836 -0.1092  0.1977 -0.0722  0.1466 -0.1994  0.0266
  37.  H 6 (s)      0.5934  0.2280  0.1607 -0.0417  0.0494  0.6181  0.1386 -0.1159
  38.  H 6 (s)     -0.1820  0.0306 -0.1041  0.0940  0.0016 -0.5139 -0.1110 -1.6104
  39.  H 7 (s)     -0.0320 -0.0396  0.1837  0.1199  0.1478 -0.2821 -0.3393  0.0199
  40.  H 7 (s)      0.1406 -0.0178 -0.0154 -0.1741 -0.1536  0.4678  0.1745 -1.9074
  41.  H 8 (s)     -0.2235  0.0743 -0.4825  0.0862 -0.0145  0.6502 -0.0749 -0.0980
  42.  H 8 (s)      0.4952 -0.2217  0.1176  0.0182  0.0472 -0.4600 -0.1299 -1.3503

           AO         41      42
      ------------ ------- -------
   1.  C 1 (s)      0.0363 -0.3924
   2.  C 1 (s)      0.0448  3.0196
   3.  C 1 (px)    -0.0319  0.0804
   4.  C 1 (py)    -0.1255  0.0972
   5.  C 1 (pz)     0.0942 -0.1216
   6.  C 1 (s)     -0.3964  0.7217
   7.  C 1 (px)    -0.5936 -0.7727
   8.  C 1 (py)    -1.0682 -0.4761
   9.  C 1 (pz)    -0.6979  0.5339
  10.  C 1 (d1)     0.2076 -1.6681
  11.  C 1 (d4)     0.3396 -1.4723
  12.  C 1 (d6)     0.1014 -1.3597
  13.  C 1 (d2)     0.1606  0.0252
  14.  C 1 (d3)     0.0191  0.0550
  15.  C 1 (d5)     0.0557 -0.0186
  16.  H 2 (s)     -0.1453  0.0754
  17.  H 2 (s)      1.1214 -0.6320
  18.  H 3 (s)     -0.0447  0.0848
  19.  H 3 (s)      0.5346  0.7167
  20.  H 4 (s)      0.0392 -0.0551
  21.  H 4 (s)      0.3431  0.2795
  22.  C 5 (s)     -0.1853 -0.0160
  23.  C 5 (s)      2.6252 -0.0188
  24.  C 5 (px)     0.1319 -0.0325
  25.  C 5 (py)    -0.1156  0.2581
  26.  C 5 (pz)     0.2980  0.0550
  27.  C 5 (s)     -1.8387  0.0680
  28.  C 5 (px)    -0.8918  0.1900
  29.  C 5 (py)    -0.3114 -0.9087
  30.  C 5 (pz)    -1.2543 -0.3509
  31.  C 5 (d1)    -0.7978 -0.0605
  32.  C 5 (d4)    -1.0314  0.0328
  33.  C 5 (d6)    -0.9470 -0.0196
  34.  C 5 (d2)    -0.0928  0.0255
  35.  C 5 (d3)    -0.0839  0.0317
  36.  C 5 (d5)    -0.0734 -0.0200
  37.  H 6 (s)      0.1813  0.0510
  38.  H 6 (s)     -0.0823  0.0573
  39.  H 7 (s)      0.4018  0.0225
  40.  H 7 (s)     -1.0295 -0.2886
  41.  H 8 (s)      0.1526  0.0412
  42.  H 8 (s)      0.8385 -0.6983


 AO overlap matrix:

           AO          1       2       3       4       5       6       7       8
      ------------ ------- ------- ------- ------- ------- ------- ------- -------
   1.  C 1 (s)      1.0000  0.2191  0.0000  0.0000  0.0000  0.1843  0.0000  0.0000
   2.  C 1 (s)      0.2191  1.0000  0.0000  0.0000  0.0000  0.8123  0.0000  0.0000
   3.  C 1 (px)     0.0000  0.0000  1.0000  0.0000  0.0000  0.0000  0.5698  0.0000
   4.  C 1 (py)     0.0000  0.0000  0.0000  1.0000  0.0000  0.0000  0.0000  0.5698
   5.  C 1 (pz)     0.0000  0.0000  0.0000  0.0000  1.0000  0.0000  0.0000  0.0000
   6.  C 1 (s)      0.1843  0.8123  0.0000  0.0000  0.0000  1.0000  0.0000  0.0000
   7.  C 1 (px)     0.0000  0.0000  0.5698  0.0000  0.0000  0.0000  1.0000  0.0000
   8.  C 1 (py)     0.0000  0.0000  0.0000  0.5698  0.0000  0.0000  0.0000  1.0000
   9.  C 1 (pz)     0.0000  0.0000  0.0000  0.0000  0.5698  0.0000  0.0000  0.0000
  10.  C 1 (d1)     0.0791  0.7102  0.0000  0.0000  0.0000  0.6299  0.0000  0.0000
  11.  C 1 (d4)     0.0791  0.7102  0.0000  0.0000  0.0000  0.6299  0.0000  0.0000
  12.  C 1 (d6)     0.0791  0.7102  0.0000  0.0000  0.0000  0.6299  0.0000  0.0000
  13.  C 1 (d2)     0.0000  0.0000  0.0000  0.0000  0.0000  0.0000  0.0000  0.0000
  14.  C 1 (d3)     0.0000  0.0000  0.0000  0.0000  0.0000  0.0000  0.0000  0.0000
  15.  C 1 (d5)     0.0000  0.0000  0.0000  0.0000  0.0000  0.0000  0.0000  0.0000
  16.  H 2 (s)      0.0333  0.2762  0.0041  0.0071  0.3718  0.3786  0.0057  0.0098
  17.  H 2 (s)      0.0926  0.4779  0.0029  0.0051  0.2658  0.7063  0.0064  0.0111
  18.  H 3 (s)      0.0333  0.2762  0.3519  0.0071 -0.1201  0.3786  0.4876  0.0098
  19.  H 3 (s)      0.0926  0.4779  0.2515  0.0051 -0.0858  0.7063  0.5507  0.0111
  20.  H 4 (s)      0.0333  0.2762 -0.1698  0.3083 -0.1201  0.3786 -0.2353  0.4272
  21.  H 4 (s)      0.0926  0.4779 -0.1214  0.2204 -0.0858  0.7063 -0.2658  0.4825
  22.  C 5 (s)      0.0000  0.0075 -0.0088 -0.0152 -0.0062  0.0467 -0.0506 -0.0877
  23.  C 5 (s)      0.0075  0.1222 -0.0883 -0.1530 -0.0625  0.2798 -0.2362 -0.4090
  24.  C 5 (px)     0.0088  0.0883 -0.0064 -0.1227 -0.0501  0.1053  0.0947 -0.1600
  25.  C 5 (py)     0.0152  0.1530 -0.1227 -0.1482 -0.0868  0.1823 -0.1600 -0.0901
  26.  C 5 (pz)     0.0062  0.0625 -0.0501 -0.0868  0.0290  0.0744 -0.0653 -0.1132
  27.  C 5 (s)      0.0467  0.2798 -0.1053 -0.1823 -0.0744  0.4905 -0.2760 -0.4780
  28.  C 5 (px)     0.0506  0.2362  0.0947 -0.1600 -0.0653  0.2760  0.3352 -0.2690
  29.  C 5 (py)     0.0877  0.4090 -0.1600 -0.0901 -0.1132  0.4780 -0.2690  0.0247
  30.  C 5 (pz)     0.0358  0.1670 -0.0653 -0.1132  0.1409  0.1952 -0.1098 -0.1902
  31.  C 5 (d1)     0.0042  0.0878 -0.0193 -0.1328 -0.0542  0.2157 -0.1243 -0.3472
  32.  C 5 (d4)     0.0121  0.1650 -0.1504 -0.1612 -0.1064  0.2585 -0.2402 -0.2842
  33.  C 5 (d6)     0.0023  0.0685 -0.0582 -0.1009 -0.0006  0.2050 -0.1905 -0.3299
  34.  C 5 (d2)     0.0118  0.1158 -0.0246 -0.1420 -0.0782  0.0643  0.0545 -0.0375
  35.  C 5 (d3)     0.0048  0.0473 -0.0101 -0.0782  0.0177  0.0262  0.0222 -0.0422
  36.  C 5 (d5)     0.0083  0.0819 -0.0782 -0.1004  0.0307  0.0454 -0.0422 -0.0265
  37.  H 6 (s)      0.0000  0.0065 -0.0115 -0.0084 -0.0011  0.0678 -0.1481 -0.1078
  38.  H 6 (s)      0.0129  0.1014 -0.0860 -0.0626 -0.0079  0.2486 -0.3305 -0.2407
  39.  H 7 (s)      0.0000  0.0065 -0.0048 -0.0084 -0.0105  0.0678 -0.0623 -0.1078
  40.  H 7 (s)      0.0129  0.1014 -0.0361 -0.0626 -0.0784  0.2486 -0.1390 -0.2407
  41.  H 8 (s)      0.0000  0.0065 -0.0015 -0.0141 -0.0011  0.0678 -0.0193 -0.1822
  42.  H 8 (s)      0.0129  0.1014 -0.0112 -0.1058 -0.0079  0.2486 -0.0432 -0.4066

           AO          9      10      11      12      13      14      15      16
      ------------ ------- ------- ------- ------- ------- ------- ------- -------
   1.  C 1 (s)      0.0000  0.0791  0.0791  0.0791  0.0000  0.0000  0.0000  0.0333
   2.  C 1 (s)      0.0000  0.7102  0.7102  0.7102  0.0000  0.0000  0.0000  0.2762
   3.  C 1 (px)     0.0000  0.0000  0.0000  0.0000  0.0000  0.0000  0.0000  0.0041
   4.  C 1 (py)     0.0000  0.0000  0.0000  0.0000  0.0000  0.0000  0.0000  0.0071
   5.  C 1 (pz)     0.5698  0.0000  0.0000  0.0000  0.0000  0.0000  0.0000  0.3718
   6.  C 1 (s)      0.0000  0.6299  0.6299  0.6299  0.0000  0.0000  0.0000  0.3786
   7.  C 1 (px)     0.0000  0.0000  0.0000  0.0000  0.0000  0.0000  0.0000  0.0057
   8.  C 1 (py)     0.0000  0.0000  0.0000  0.0000  0.0000  0.0000  0.0000  0.0098
   9.  C 1 (pz)     1.0000  0.0000  0.0000  0.0000  0.0000  0.0000  0.0000  0.5152
  10.  C 1 (d1)     0.0000  1.0000  0.3333  0.3333  0.0000  0.0000  0.0000  0.1190
  11.  C 1 (d4)     0.0000  0.3333  1.0000  0.3333  0.0000  0.0000  0.0000  0.1191
  12.  C 1 (d6)     0.0000  0.3333  0.3333  1.0000  0.0000  0.0000  0.0000  0.4590
  13.  C 1 (d2)     0.0000  0.0000  0.0000  0.0000  1.0000  0.0000  0.0000  0.0001
  14.  C 1 (d3)     0.0000  0.0000  0.0000  0.0000  0.0000  1.0000  0.0000  0.0065
  15.  C 1 (d5)     0.0000  0.0000  0.0000  0.0000  0.0000  0.0000  1.0000  0.0112
  16.  H 2 (s)      0.5152  0.1190  0.1191  0.4590  0.0001  0.0065  0.0112  1.0000
  17.  H 2 (s)      0.5819  0.3528  0.3528  0.4331  0.0000  0.0015  0.0027  0.6583
  18.  H 3 (s)     -0.1664  0.4235  0.1191  0.1544  0.0106 -0.1800 -0.0036  0.0201
  19.  H 3 (s)     -0.1879  0.4247  0.3528  0.3611  0.0025 -0.0425 -0.0009  0.1544
  20.  H 4 (s)     -0.1664  0.1899  0.3527  0.1544 -0.2231  0.0869 -0.1577  0.0201
  21.  H 4 (s)     -0.1879  0.3695  0.4080  0.3611 -0.0527  0.0205 -0.0373  0.1544
  22.  C 5 (s)     -0.0358  0.0042  0.0121  0.0023  0.0118  0.0048  0.0083  0.0000
  23.  C 5 (s)     -0.1670  0.0878  0.1650  0.0685  0.1158  0.0473  0.0819  0.0065
  24.  C 5 (px)    -0.0653  0.0193  0.1504  0.0582  0.0246  0.0101  0.0782  0.0048
  25.  C 5 (py)    -0.1132  0.1328  0.1612  0.1009  0.1420  0.0782  0.1004  0.0084
  26.  C 5 (pz)     0.1409  0.0542  0.1064  0.0006  0.0782 -0.0177 -0.0307  0.0105
  27.  C 5 (s)     -0.1952  0.2157  0.2585  0.2050  0.0643  0.0262  0.0454  0.0678
  28.  C 5 (px)    -0.1098  0.1243  0.2402  0.1905 -0.0545 -0.0222  0.0422  0.0623
  29.  C 5 (py)    -0.1902  0.3472  0.2842  0.3299  0.0375  0.0422  0.0265  0.1078
  30.  C 5 (pz)     0.4129  0.1417  0.1699  0.0808  0.0422 -0.0487 -0.0844  0.1351
  31.  C 5 (d1)    -0.1417  0.0256  0.1566  0.0498  0.0257  0.0105  0.0906  0.0027
  32.  C 5 (d4)    -0.1699  0.1566  0.1624  0.1096  0.1795  0.1151  0.1269  0.0055
  33.  C 5 (d6)    -0.0808  0.0498  0.1096  0.0235  0.0897 -0.0052 -0.0090  0.0080
  34.  C 5 (d2)    -0.0422  0.0257  0.1795  0.0897  0.0599  0.0314  0.1269  0.0043
  35.  C 5 (d3)     0.0487  0.0105  0.1151 -0.0052  0.0314 -0.0043 -0.0221  0.0053
  36.  C 5 (d5)     0.0844  0.0906  0.1269 -0.0090  0.1269 -0.0221 -0.0298  0.0093
  37.  H 6 (s)     -0.0137  0.0093  0.0055  0.0013  0.0102  0.0013  0.0009  0.0005
  38.  H 6 (s)     -0.0305  0.1027  0.0847  0.0648  0.0482  0.0061  0.0045  0.0338
  39.  H 7 (s)     -0.1351  0.0027  0.0055  0.0080  0.0043  0.0053  0.0093  0.0000
  40.  H 7 (s)     -0.3014  0.0712  0.0847  0.0963  0.0203  0.0254  0.0440  0.0080
  41.  H 8 (s)     -0.0137  0.0014  0.0135  0.0013  0.0022  0.0002  0.0016  0.0005
  42.  H 8 (s)     -0.0305  0.0651  0.1223  0.0648  0.0106  0.0008  0.0075  0.0338

           AO         17      18      19      20      21      22      23      24
      ------------ ------- ------- ------- ------- ------- ------- ------- -------
   1.  C 1 (s)      0.0926  0.0333  0.0926  0.0333  0.0926  0.0000  0.0075  0.0088
   2.  C 1 (s)      0.4779  0.2762  0.4779  0.2762  0.4779  0.0075  0.1222  0.0883
   3.  C 1 (px)     0.0029  0.3519  0.2515 -0.1698 -0.1214 -0.0088 -0.0883 -0.0064
   4.  C 1 (py)     0.0051  0.0071  0.0051  0.3083  0.2204 -0.0152 -0.1530 -0.1227
   5.  C 1 (pz)     0.2658 -0.1201 -0.0858 -0.1201 -0.0858 -0.0062 -0.0625 -0.0501
   6.  C 1 (s)      0.7063  0.3786  0.7063  0.3786  0.7063  0.0467  0.2798  0.1053
   7.  C 1 (px)     0.0064  0.4876  0.5507 -0.2353 -0.2658 -0.0506 -0.2362  0.0947
   8.  C 1 (py)     0.0111  0.0098  0.0111  0.4272  0.4825 -0.0877 -0.4090 -0.1600
   9.  C 1 (pz)     0.5819 -0.1664 -0.1879 -0.1664 -0.1879 -0.0358 -0.1670 -0.0653
  10.  C 1 (d1)     0.3528  0.4235  0.4247  0.1899  0.3695  0.0042  0.0878  0.0193
  11.  C 1 (d4)     0.3528  0.1191  0.3528  0.3527  0.4080  0.0121  0.1650  0.1504
  12.  C 1 (d6)     0.4331  0.1544  0.3611  0.1544  0.3611  0.0023  0.0685  0.0582
  13.  C 1 (d2)     0.0000  0.0106  0.0025 -0.2231 -0.0527  0.0118  0.1158  0.0246
  14.  C 1 (d3)     0.0015 -0.1800 -0.0425  0.0869  0.0205  0.0048  0.0473  0.0101
  15.  C 1 (d5)     0.0027 -0.0036 -0.0009 -0.1577 -0.0373  0.0083  0.0819  0.0782
  16.  H 2 (s)      0.6583  0.0201  0.1544  0.0201  0.1544  0.0000  0.0065  0.0048
  17.  H 2 (s)      1.0000  0.1544  0.4101  0.1544  0.4101  0.0129  0.1014  0.0361
  18.  H 3 (s)      0.1544  1.0000  0.6583  0.0201  0.1544  0.0000  0.0065  0.0115
  19.  H 3 (s)      0.4101  0.6583  1.0000  0.1544  0.4101  0.0129  0.1014  0.0860
  20.  H 4 (s)      0.1544  0.0201  0.1544  1.0000  0.6583  0.0000  0.0065  0.0015
  21.  H 4 (s)      0.4101  0.1544  0.4101  0.6583  1.0000  0.0129  0.1014  0.0112
  22.  C 5 (s)      0.0129  0.0000  0.0129  0.0000  0.0129  1.0000  0.2191  0.0000
  23.  C 5 (s)      0.1014  0.0065  0.1014  0.0065  0.1014  0.2191  1.0000  0.0000
  24.  C 5 (px)     0.0361  0.0115  0.0860  0.0015  0.0112  0.0000  0.0000  1.0000
  25.  C 5 (py)     0.0626  0.0084  0.0626  0.0141  0.1058  0.0000  0.0000  0.0000
  26.  C 5 (pz)     0.0784  0.0011  0.0079  0.0011  0.0079  0.0000  0.0000  0.0000
  27.  C 5 (s)      0.2486  0.0678  0.2486  0.0678  0.2486  0.1843  0.8123  0.0000
  28.  C 5 (px)     0.1390  0.1481  0.3305  0.0193  0.0432  0.0000  0.0000  0.5698
  29.  C 5 (py)     0.2407  0.1078  0.2407  0.1822  0.4066  0.0000  0.0000  0.0000
  30.  C 5 (pz)     0.3014  0.0137  0.0305  0.0137  0.0305  0.0000  0.0000  0.0000
  31.  C 5 (d1)     0.0712  0.0093  0.1027  0.0014  0.0651  0.0791  0.7102  0.0000
  32.  C 5 (d4)     0.0847  0.0055  0.0847  0.0135  0.1223  0.0791  0.7102  0.0000
  33.  C 5 (d6)     0.0963  0.0013  0.0648  0.0013  0.0648  0.0791  0.7102  0.0000
  34.  C 5 (d2)     0.0203  0.0102  0.0482  0.0022  0.0106  0.0000  0.0000  0.0000
  35.  C 5 (d3)     0.0254  0.0013  0.0061  0.0002  0.0008  0.0000  0.0000  0.0000
  36.  C 5 (d5)     0.0440  0.0009  0.0045  0.0016  0.0075  0.0000  0.0000  0.0000
  37.  H 6 (s)      0.0338  0.0000  0.0080  0.0005  0.0338  0.0333  0.2762 -0.3519
  38.  H 6 (s)      0.1606  0.0080  0.0658  0.0338  0.1606  0.0926  0.4779 -0.2515
  39.  H 7 (s)      0.0080  0.0005  0.0338  0.0005  0.0338  0.0333  0.2762 -0.0041
  40.  H 7 (s)      0.0658  0.0338  0.1606  0.0338  0.1606  0.0926  0.4779 -0.0029
  41.  H 8 (s)      0.0338  0.0005  0.0338  0.0000  0.0080  0.0333  0.2762  0.1698
  42.  H 8 (s)      0.1606  0.0338  0.1606  0.0080  0.0658  0.0926  0.4779  0.1214

           AO         25      26      27      28      29      30      31      32
      ------------ ------- ------- ------- ------- ------- ------- ------- -------
   1.  C 1 (s)      0.0152  0.0062  0.0467  0.0506  0.0877  0.0358  0.0042  0.0121
   2.  C 1 (s)      0.1530  0.0625  0.2798  0.2362  0.4090  0.1670  0.0878  0.1650
   3.  C 1 (px)    -0.1227 -0.0501 -0.1053  0.0947 -0.1600 -0.0653 -0.0193 -0.1504
   4.  C 1 (py)    -0.1482 -0.0868 -0.1823 -0.1600 -0.0901 -0.1132 -0.1328 -0.1612
   5.  C 1 (pz)    -0.0868  0.0290 -0.0744 -0.0653 -0.1132  0.1409 -0.0542 -0.1064
   6.  C 1 (s)      0.1823  0.0744  0.4905  0.2760  0.4780  0.1952  0.2157  0.2585
   7.  C 1 (px)    -0.1600 -0.0653 -0.2760  0.3352 -0.2690 -0.1098 -0.1243 -0.2402
   8.  C 1 (py)    -0.0901 -0.1132 -0.4780 -0.2690  0.0247 -0.1902 -0.3472 -0.2842
   9.  C 1 (pz)    -0.1132  0.1409 -0.1952 -0.1098 -0.1902  0.4129 -0.1417 -0.1699
  10.  C 1 (d1)     0.1328  0.0542  0.2157  0.1243  0.3472  0.1417  0.0256  0.1566
  11.  C 1 (d4)     0.1612  0.1064  0.2585  0.2402  0.2842  0.1699  0.1566  0.1624
  12.  C 1 (d6)     0.1009  0.0006  0.2050  0.1905  0.3299  0.0808  0.0498  0.1096
  13.  C 1 (d2)     0.1420  0.0782  0.0643 -0.0545  0.0375  0.0422  0.0257  0.1795
  14.  C 1 (d3)     0.0782 -0.0177  0.0262 -0.0222  0.0422 -0.0487  0.0105  0.1151
  15.  C 1 (d5)     0.1004 -0.0307  0.0454  0.0422  0.0265 -0.0844  0.0906  0.1269
  16.  H 2 (s)      0.0084  0.0105  0.0678  0.0623  0.1078  0.1351  0.0027  0.0055
  17.  H 2 (s)      0.0626  0.0784  0.2486  0.1390  0.2407  0.3014  0.0712  0.0847
  18.  H 3 (s)      0.0084  0.0011  0.0678  0.1481  0.1078  0.0137  0.0093  0.0055
  19.  H 3 (s)      0.0626  0.0079  0.2486  0.3305  0.2407  0.0305  0.1027  0.0847
  20.  H 4 (s)      0.0141  0.0011  0.0678  0.0193  0.1822  0.0137  0.0014  0.0135
  21.  H 4 (s)      0.1058  0.0079  0.2486  0.0432  0.4066  0.0305  0.0651  0.1223
  22.  C 5 (s)      0.0000  0.0000  0.1843  0.0000  0.0000  0.0000  0.0791  0.0791
  23.  C 5 (s)      0.0000  0.0000  0.8123  0.0000  0.0000  0.0000  0.7102  0.7102
  24.  C 5 (px)     0.0000  0.0000  0.0000  0.5698  0.0000  0.0000  0.0000  0.0000
  25.  C 5 (py)     1.0000  0.0000  0.0000  0.0000  0.5698  0.0000  0.0000  0.0000
  26.  C 5 (pz)     0.0000  1.0000  0.0000  0.0000  0.0000  0.5698  0.0000  0.0000
  27.  C 5 (s)      0.0000  0.0000  1.0000  0.0000  0.0000  0.0000  0.6299  0.6299
  28.  C 5 (px)     0.0000  0.0000  0.0000  1.0000  0.0000  0.0000  0.0000  0.0000
  29.  C 5 (py)     0.5698  0.0000  0.0000  0.0000  1.0000  0.0000  0.0000  0.0000
  30.  C 5 (pz)     0.0000  0.5698  0.0000  0.0000  0.0000  1.0000  0.0000  0.0000
  31.  C 5 (d1)     0.0000  0.0000  0.6299  0.0000  0.0000  0.0000  1.0000  0.3333
  32.  C 5 (d4)     0.0000  0.0000  0.6299  0.0000  0.0000  0.0000  0.3333  1.0000
  33.  C 5 (d6)     0.0000  0.0000  0.6299  0.0000  0.0000  0.0000  0.3333  0.3333
  34.  C 5 (d2)     0.0000  0.0000  0.0000  0.0000  0.0000  0.0000  0.0000  0.0000
  35.  C 5 (d3)     0.0000  0.0000  0.0000  0.0000  0.0000  0.0000  0.0000  0.0000
  36.  C 5 (d5)     0.0000  0.0000  0.0000  0.0000  0.0000  0.0000  0.0000  0.0000
  37.  H 6 (s)     -0.0071  0.1201  0.3786 -0.4876 -0.0098  0.1664  0.4235  0.1191
  38.  H 6 (s)     -0.0051  0.0858  0.7063 -0.5507 -0.0111  0.1879  0.4247  0.3528
  39.  H 7 (s)     -0.0071 -0.3718  0.3786 -0.0057 -0.0098 -0.5152  0.1190  0.1191
  40.  H 7 (s)     -0.0051 -0.2658  0.7063 -0.0064 -0.0111 -0.5819  0.3528  0.3528
  41.  H 8 (s)     -0.3083  0.1201  0.3786  0.2353 -0.4272  0.1664  0.1899  0.3527
  42.  H 8 (s)     -0.2204  0.0858  0.7063  0.2658 -0.4825  0.1879  0.3695  0.4080

           AO         33      34      35      36      37      38      39      40
      ------------ ------- ------- ------- ------- ------- ------- ------- -------
   1.  C 1 (s)      0.0023  0.0118  0.0048  0.0083  0.0000  0.0129  0.0000  0.0129
   2.  C 1 (s)      0.0685  0.1158  0.0473  0.0819  0.0065  0.1014  0.0065  0.1014
   3.  C 1 (px)    -0.0582 -0.0246 -0.0101 -0.0782 -0.0115 -0.0860 -0.0048 -0.0361
   4.  C 1 (py)    -0.1009 -0.1420 -0.0782 -0.1004 -0.0084 -0.0626 -0.0084 -0.0626
   5.  C 1 (pz)    -0.0006 -0.0782  0.0177  0.0307 -0.0011 -0.0079 -0.0105 -0.0784
   6.  C 1 (s)      0.2050  0.0643  0.0262  0.0454  0.0678  0.2486  0.0678  0.2486
   7.  C 1 (px)    -0.1905  0.0545  0.0222 -0.0422 -0.1481 -0.3305 -0.0623 -0.1390
   8.  C 1 (py)    -0.3299 -0.0375 -0.0422 -0.0265 -0.1078 -0.2407 -0.1078 -0.2407
   9.  C 1 (pz)    -0.0808 -0.0422  0.0487  0.0844 -0.0137 -0.0305 -0.1351 -0.3014
  10.  C 1 (d1)     0.0498  0.0257  0.0105  0.0906  0.0093  0.1027  0.0027  0.0712
  11.  C 1 (d4)     0.1096  0.1795  0.1151  0.1269  0.0055  0.0847  0.0055  0.0847
  12.  C 1 (d6)     0.0235  0.0897 -0.0052 -0.0090  0.0013  0.0648  0.0080  0.0963
  13.  C 1 (d2)     0.0897  0.0599  0.0314  0.1269  0.0102  0.0482  0.0043  0.0203
  14.  C 1 (d3)    -0.0052  0.0314 -0.0043 -0.0221  0.0013  0.0061  0.0053  0.0254
  15.  C 1 (d5)    -0.0090  0.1269 -0.0221 -0.0298  0.0009  0.0045  0.0093  0.0440
  16.  H 2 (s)      0.0080  0.0043  0.0053  0.0093  0.0005  0.0338  0.0000  0.0080
  17.  H 2 (s)      0.0963  0.0203  0.0254  0.0440  0.0338  0.1606  0.0080  0.0658
  18.  H 3 (s)      0.0013  0.0102  0.0013  0.0009  0.0000  0.0080  0.0005  0.0338
  19.  H 3 (s)      0.0648  0.0482  0.0061  0.0045  0.0080  0.0658  0.0338  0.1606
  20.  H 4 (s)      0.0013  0.0022  0.0002  0.0016  0.0005  0.0338  0.0005  0.0338
  21.  H 4 (s)      0.0648  0.0106  0.0008  0.0075  0.0338  0.1606  0.0338  0.1606
  22.  C 5 (s)      0.0791  0.0000  0.0000  0.0000  0.0333  0.0926  0.0333  0.0926
  23.  C 5 (s)      0.7102  0.0000  0.0000  0.0000  0.2762  0.4779  0.2762  0.4779
  24.  C 5 (px)     0.0000  0.0000  0.0000  0.0000 -0.3519 -0.2515 -0.0041 -0.0029
  25.  C 5 (py)     0.0000  0.0000  0.0000  0.0000 -0.0071 -0.0051 -0.0071 -0.0051
  26.  C 5 (pz)     0.0000  0.0000  0.0000  0.0000  0.1201  0.0858 -0.3718 -0.2658
  27.  C 5 (s)      0.6299  0.0000  0.0000  0.0000  0.3786  0.7063  0.3786  0.7063
  28.  C 5 (px)     0.0000  0.0000  0.0000  0.0000 -0.4876 -0.5507 -0.0057 -0.0064
  29.  C 5 (py)     0.0000  0.0000  0.0000  0.0000 -0.0098 -0.0111 -0.0098 -0.0111
  30.  C 5 (pz)     0.0000  0.0000  0.0000  0.0000  0.1664  0.1879 -0.5152 -0.5819
  31.  C 5 (d1)     0.3333  0.0000  0.0000  0.0000  0.4235  0.4247  0.1190  0.3528
  32.  C 5 (d4)     0.3333  0.0000  0.0000  0.0000  0.1191  0.3528  0.1191  0.3528
  33.  C 5 (d6)     1.0000  0.0000  0.0000  0.0000  0.1544  0.3611  0.4590  0.4331
  34.  C 5 (d2)     0.0000  1.0000  0.0000  0.0000  0.0106  0.0025  0.0001  0.0000
  35.  C 5 (d3)     0.0000  0.0000  1.0000  0.0000 -0.1800 -0.0425  0.0065  0.0015
[...]
  Cycle  Ctr   Thresh    Lewis   non-Lewis     CR  BD  nC  LP    (L)   (NL)
 ============================================================================
    1     2     1.90    17.95479   0.04521      2   7   0   0     0      0
 ----------------------------------------------------------------------------

 Structure accepted: No low occupancy Lewis orbitals

 -------------------------------------------------------
   Core                      3.99999 (100.000% of   4)
   Valence Lewis            13.95480 ( 99.677% of  14)
  ==================      =============================
   Total Lewis              17.95479 ( 99.749% of  18)
  -----------------------------------------------------
   Valence non-Lewis         0.03423 (  0.190% of  18)
   Rydberg non-Lewis         0.01098 (  0.061% of  18)
  ==================      =============================
   Total non-Lewis           0.04521 (  0.251% of  18)
 -------------------------------------------------------


     (Occupancy)   Bond orbital / Coefficients / Hybrids
 ------------------ Lewis ------------------------------------------------------
   1. (2.00000) CR ( 1) C  1            s(100.00%)
                                         1.0000  0.0000  0.0000  0.0000  0.0000
                                         0.0000  0.0000  0.0000  0.0000  0.0000
                                         0.0000  0.0000  0.0000  0.0000  0.0000
   2. (2.00000) CR ( 1) C  5            s(100.00%)
                                         1.0000  0.0000  0.0000  0.0000  0.0000
                                         0.0000  0.0000  0.0000  0.0000  0.0000
                                         0.0000  0.0000  0.0000  0.0000  0.0000
   3. (1.99284) BD ( 1) C  1- H  2
               ( 60.73%)   0.7793* C  1 s( 24.10%)p 3.14( 75.73%)d 0.01(  0.16%)
                                         0.0000  0.4909  0.0039 -0.0006  0.0071
                                         0.0061  0.0123  0.0106  0.8700 -0.0046
                                         0.0002 -0.0001 -0.0001 -0.0001  0.0405
               ( 39.27%)   0.6266* H  2 s(100.00%)
                                         1.0000  0.0007
   4. (1.99284) BD ( 1) C  1- H  3
               ( 60.73%)   0.7793* C  1 s( 24.10%)p 3.14( 75.73%)d 0.01(  0.16%)
                                         0.0000  0.4909  0.0039 -0.0006  0.8226
                                        -0.0023  0.0123  0.0106 -0.2833  0.0073
                                         0.0000 -0.0221  0.0002  0.0311 -0.0136
               ( 39.27%)   0.6266* H  3 s(100.00%)
                                         1.0000  0.0007
   5. (1.99284) BD ( 1) C  1- H  4
               ( 60.73%)   0.7793* C  1 s( 24.10%)p 3.14( 75.73%)d 0.01(  0.16%)
                                         0.0000  0.4909  0.0039 -0.0006 -0.4007
                                         0.0103  0.7186  0.0033 -0.2833  0.0073
                                        -0.0269  0.0113 -0.0191 -0.0155 -0.0136
               ( 39.27%)   0.6266* H  4 s(100.00%)
                                         1.0000  0.0007
   6. (1.99773) BD ( 1) C  1- C  5
               ( 50.00%)   0.7071* C  1 s( 27.71%)p 2.60( 72.16%)d 0.00(  0.13%)
                                         0.0000  0.5262 -0.0134  0.0022 -0.4004
                                        -0.0057 -0.6935 -0.0099 -0.2831 -0.0040
                                         0.0241  0.0099  0.0171 -0.0139 -0.0121
               ( 50.00%)   0.7071* C  5 s( 27.71%)p 2.60( 72.16%)d 0.00(  0.13%)
                                         0.0000  0.5262 -0.0134  0.0022  0.4004
                                         0.0057  0.6935  0.0099  0.2831  0.0040
                                         0.0241  0.0099  0.0171 -0.0139 -0.0121
   7. (1.99284) BD ( 1) C  5- H  6
               ( 60.73%)   0.7793* C  5 s( 24.10%)p 3.14( 75.73%)d 0.01(  0.16%)
                                         0.0000  0.4909  0.0039 -0.0006 -0.8226
                                         0.0023 -0.0123 -0.0106  0.2833 -0.0073
                                         0.0000 -0.0221  0.0002  0.0311 -0.0136
               ( 39.27%)   0.6266* H  6 s(100.00%)
                                         1.0000  0.0007
   8. (1.99284) BD ( 1) C  5- H  7
               ( 60.73%)   0.7793* C  5 s( 24.10%)p 3.14( 75.73%)d 0.01(  0.16%)
                                         0.0000  0.4909  0.0039 -0.0006 -0.0071
                                        -0.0061 -0.0123 -0.0106 -0.8700  0.0046
                                         0.0002 -0.0001 -0.0001 -0.0001  0.0405
               ( 39.27%)   0.6266* H  7 s(100.00%)
                                         1.0000  0.0007
   9. (1.99284) BD ( 1) C  5- H  8
               ( 60.73%)   0.7793* C  5 s( 24.10%)p 3.14( 75.73%)d 0.01(  0.16%)
                                         0.0000  0.4909  0.0039 -0.0006  0.4007
                                        -0.0103 -0.7186 -0.0033  0.2833 -0.0073
                                        -0.0269  0.0113 -0.0191 -0.0155 -0.0136
               ( 39.27%)   0.6266* H  8 s(100.00%)
                                         1.0000  0.0007
 ---------------- non-Lewis ----------------------------------------------------
  10. (0.00557) BD*( 1) C  1- H  2
               ( 39.27%)   0.6266* C  1 s( 24.10%)p 3.14( 75.73%)d 0.01(  0.16%)
                                         0.0000 -0.4909 -0.0039  0.0006 -0.0071
                                        -0.0061 -0.0123 -0.0106 -0.8700  0.0046
                                        -0.0002  0.0001  0.0001  0.0001 -0.0405
               ( 60.73%)  -0.7793* H  2 s(100.00%)
                                        -1.0000 -0.0007
  11. (0.00557) BD*( 1) C  1- H  3
               ( 39.27%)   0.6266* C  1 s( 24.10%)p 3.14( 75.73%)d 0.01(  0.16%)
                                         0.0000 -0.4909 -0.0039  0.0006 -0.8226
                                         0.0023 -0.0123 -0.0106  0.2833 -0.0073
                                         0.0000  0.0221 -0.0002 -0.0311  0.0136
               ( 60.73%)  -0.7793* H  3 s(100.00%)
                                        -1.0000 -0.0007
  12. (0.00557) BD*( 1) C  1- H  4
               ( 39.27%)   0.6266* C  1 s( 24.10%)p 3.14( 75.73%)d 0.01(  0.16%)
                                         0.0000 -0.4909 -0.0039  0.0006  0.4007
                                        -0.0103 -0.7186 -0.0033  0.2833 -0.0073
                                         0.0269 -0.0113  0.0191  0.0155  0.0136
               ( 60.73%)  -0.7793* H  4 s(100.00%)
                                        -1.0000 -0.0007
  13. (0.00080) BD*( 1) C  1- C  5
               ( 50.00%)   0.7071* C  1 s( 27.71%)p 2.60( 72.16%)d 0.00(  0.13%)
                                         0.0000  0.5262 -0.0134  0.0022 -0.4004
                                        -0.0057 -0.6935 -0.0099 -0.2831 -0.0040
                                         0.0241  0.0099  0.0171 -0.0139 -0.0121
               ( 50.00%)  -0.7071* C  5 s( 27.71%)p 2.60( 72.16%)d 0.00(  0.13%)
                                         0.0000  0.5262 -0.0134  0.0022  0.4004
                                         0.0057  0.6935  0.0099  0.2831  0.0040
                                         0.0241  0.0099  0.0171 -0.0139 -0.0121
  14. (0.00557) BD*( 1) C  5- H  6
               ( 39.27%)   0.6266* C  5 s( 24.10%)p 3.14( 75.73%)d 0.01(  0.16%)
                                         0.0000 -0.4909 -0.0039  0.0006  0.8226
                                        -0.0023  0.0123  0.0106 -0.2833  0.0073
                                         0.0000  0.0221 -0.0002 -0.0311  0.0136
               ( 60.73%)  -0.7793* H  6 s(100.00%)
                                        -1.0000 -0.0007
  15. (0.00557) BD*( 1) C  5- H  7
               ( 39.27%)   0.6266* C  5 s( 24.10%)p 3.14( 75.73%)d 0.01(  0.16%)
                                         0.0000 -0.4909 -0.0039  0.0006  0.0071
                                         0.0061  0.0123  0.0106  0.8700 -0.0046
                                        -0.0002  0.0001  0.0001  0.0001 -0.0405
               ( 60.73%)  -0.7793* H  7 s(100.00%)
                                        -1.0000 -0.0007
  16. (0.00557) BD*( 1) C  5- H  8
               ( 39.27%)   0.6266* C  5 s( 24.10%)p 3.14( 75.73%)d 0.01(  0.16%)
                                         0.0000 -0.4909 -0.0039  0.0006 -0.4007
                                         0.0103  0.7186  0.0033 -0.2833  0.0073
                                         0.0269 -0.0113  0.0191  0.0155  0.0136
               ( 60.73%)  -0.7793* H  8 s(100.00%)
                                        -1.0000 -0.0007
  17. (0.00136) RY ( 1) C  1            s(  0.00%)p 1.00( 84.15%)d 0.19( 15.85%)
                                         0.0000  0.0000  0.0000  0.0000  0.0227
                                         0.8055 -0.0104 -0.3680 -0.0067 -0.2379
                                        -0.1925  0.0730  0.0276 -0.3271  0.0913
  18. (0.00136) RY ( 2) C  1            s(  0.00%)p 1.00( 84.15%)d 0.19( 15.85%)
                                         0.0000  0.0000  0.0000  0.0000  0.0020
                                         0.0716 -0.0107 -0.3807  0.0235  0.8312
                                        -0.0447 -0.0933 -0.1898 -0.0996 -0.3191
  19. (0.00019) RY ( 3) C  1            s( 55.93%)p 0.31( 17.11%)d 0.48( 26.95%)
                                         0.0000  0.0047  0.6926  0.2821  0.0098
                                        -0.1948  0.0169 -0.3373  0.0069 -0.1377
                                         0.3461  0.1413  0.2447 -0.1998 -0.1731
  20. (0.00000) RY ( 4) C  1            s( 43.07%)p 0.87( 37.40%)d 0.45( 19.53%)
  21. (0.00000) RY ( 5) C  1            s(  0.03%)p99.99(  7.77%)d99.99( 92.20%)
  22. (0.00000) RY ( 6) C  1            s(  2.97%)p 8.23( 24.45%)d24.43( 72.58%)
  23. (0.00000) RY ( 7) C  1            s( 91.95%)p 0.02(  1.44%)d 0.07(  6.61%)
  24. (0.00000) RY ( 8) C  1            s(  3.61%)p 5.19( 18.70%)d21.55( 77.69%)
  25. (0.00000) RY ( 9) C  1            s(  0.21%)p39.81(  8.42%)d99.99( 91.37%)
  26. (0.00000) RY (10) C  1            s(  2.22%)p 7.69( 17.03%)d36.46( 80.75%)
  27. (0.00086) RY ( 1) H  2            s(100.00%)
                                        -0.0007  1.0000
  28. (0.00086) RY ( 1) H  3            s(100.00%)
                                        -0.0007  1.0000
  29. (0.00086) RY ( 1) H  4            s(100.00%)
                                        -0.0007  1.0000
  30. (0.00136) RY ( 1) C  5            s(  0.00%)p 1.00( 84.15%)d 0.19( 15.85%)
                                         0.0000  0.0000  0.0000  0.0000  0.0227
                                         0.8055 -0.0104 -0.3680 -0.0067 -0.2379
                                         0.1925 -0.0730 -0.0276  0.3271 -0.0913
  31. (0.00136) RY ( 2) C  5            s(  0.00%)p 1.00( 84.15%)d 0.19( 15.85%)
                                         0.0000  0.0000  0.0000  0.0000  0.0020
                                         0.0716 -0.0107 -0.3807  0.0235  0.8312
                                         0.0447  0.0933  0.1898  0.0996  0.3191
  32. (0.00019) RY ( 3) C  5            s( 55.93%)p 0.31( 17.11%)d 0.48( 26.95%)
                                         0.0000  0.0047  0.6926  0.2821 -0.0098
                                         0.1948 -0.0169  0.3373 -0.0069  0.1377
                                         0.3461  0.1413  0.2447 -0.1998 -0.1731
  33. (0.00000) RY ( 4) C  5            s( 43.07%)p 0.87( 37.40%)d 0.45( 19.53%)
  34. (0.00000) RY ( 5) C  5            s(  0.04%)p99.99(  9.08%)d99.99( 90.89%)
  35. (0.00000) RY ( 6) C  5            s(  8.69%)p 4.92( 42.77%)d 5.58( 48.54%)
  36. (0.00000) RY ( 7) C  5            s( 91.95%)p 0.02(  1.44%)d 0.07(  6.61%)
  37. (0.00000) RY ( 8) C  5            s(  0.30%)p34.64( 10.31%)d99.99( 89.39%)
  38. (0.00000) RY ( 9) C  5            s(  0.00%)p 1.00( 13.51%)d 6.40( 86.49%)
  39. (0.00000) RY (10) C  5            s(  0.00%)p 1.00(  0.71%)d99.99( 99.29%)
  40. (0.00086) RY ( 1) H  6            s(100.00%)
                                        -0.0007  1.0000
  41. (0.00086) RY ( 1) H  7            s(100.00%)
                                        -0.0007  1.0000
  42. (0.00086) RY ( 1) H  8            s(100.00%)
                                        -0.0007  1.0000


 NHO DIRECTIONALITY AND BOND BENDING (deviation from line of nuclear centers at
                                      the position of maximum hybrid amplitude)

         [Thresholds for printing:  angular deviation  >  1.0 degree]
                                    p- or d-character  > 25.0%
                                    orbital occupancy  >  0.10e

                        Line of Centers        Hybrid 1             Hybrid 2
                        ---------------  -------------------  ------------------
           NBO            Theta   Phi    Theta   Phi    Dev   Theta   Phi    Dev
 ===============================================================================
    None exceeding thresholds


 SECOND ORDER PERTURBATION THEORY ANALYSIS OF FOCK MATRIX IN NBO BASIS

     Threshold for printing:   0.50 kcal/mol
                                                          E(2) E(NL)-E(L) F(L,NL)
      Donor (L) NBO              Acceptor (NL) NBO      kcal/mol   a.u.    a.u.
 ===============================================================================

 within unit  1
    3. BD ( 1) C  1- H  2      15. BD*( 1) C  5- H  7      3.20    1.37   0.059
    3. BD ( 1) C  1- H  2      31. RY ( 2) C  5            0.96    1.78   0.037
    4. BD ( 1) C  1- H  3      14. BD*( 1) C  5- H  6      3.20    1.37   0.059
    4. BD ( 1) C  1- H  3      30. RY ( 1) C  5            0.98    1.78   0.037
    5. BD ( 1) C  1- H  4      16. BD*( 1) C  5- H  8      3.20    1.37   0.059
    5. BD ( 1) C  1- H  4      30. RY ( 1) C  5            0.50    1.78   0.027
    5. BD ( 1) C  1- H  4      31. RY ( 2) C  5            0.54    1.78   0.028
    7. BD ( 1) C  5- H  6      11. BD*( 1) C  1- H  3      3.20    1.37   0.059
    7. BD ( 1) C  5- H  6      17. RY ( 1) C  1            0.98    1.78   0.037
    8. BD ( 1) C  5- H  7      10. BD*( 1) C  1- H  2      3.20    1.37   0.059
    8. BD ( 1) C  5- H  7      18. RY ( 2) C  1            0.96    1.78   0.037
    9. BD ( 1) C  5- H  8      12. BD*( 1) C  1- H  4      3.20    1.37   0.059
    9. BD ( 1) C  5- H  8      17. RY ( 1) C  1            0.50    1.78   0.027
    9. BD ( 1) C  5- H  8      18. RY ( 2) C  1            0.54    1.78   0.028


 NATURAL BOND ORBITALS (Summary):

                                                     Principal Delocalizations
           NBO                 Occupancy    Energy   (geminal,vicinal,remote)
 ===============================================================================
 Molecular unit  1  (C2H6)
 ------ Lewis --------------------------------------
    1. CR ( 1) C  1             2.00000   -11.21055
    2. CR ( 1) C  5             2.00000   -11.21055
    3. BD ( 1) C  1- H  2       1.99284    -0.63606  15(v),31(v)
    4. BD ( 1) C  1- H  3       1.99284    -0.63606  14(v),30(v)
    5. BD ( 1) C  1- H  4       1.99284    -0.63606  16(v),31(v),30(v)
    6. BD ( 1) C  1- C  5       1.99773    -0.69232
    7. BD ( 1) C  5- H  6       1.99284    -0.63606  11(v),17(v)
    8. BD ( 1) C  5- H  7       1.99284    -0.63606  10(v),18(v)
    9. BD ( 1) C  5- H  8       1.99284    -0.63606  12(v),18(v),17(v)
 ------ non-Lewis ----------------------------------
   10. BD*( 1) C  1- H  2       0.00557     0.73773
   11. BD*( 1) C  1- H  3       0.00557     0.73773
   12. BD*( 1) C  1- H  4       0.00557     0.73773
   13. BD*( 1) C  1- C  5       0.00080     0.64429
   14. BD*( 1) C  5- H  6       0.00557     0.73773
   15. BD*( 1) C  5- H  7       0.00557     0.73773
   16. BD*( 1) C  5- H  8       0.00557     0.73773
   17. RY ( 1) C  1             0.00136     1.14167
   18. RY ( 2) C  1             0.00136     1.14167
   19. RY ( 3) C  1             0.00019     1.88523
   20. RY ( 4) C  1             0.00000     1.77422
   21. RY ( 5) C  1             0.00000     2.07130
   22. RY ( 6) C  1             0.00000     2.06895
   23. RY ( 7) C  1             0.00000     3.74003
   24. RY ( 8) C  1             0.00000     2.08165
   25. RY ( 9) C  1             0.00000     2.18241
   26. RY (10) C  1             0.00000     2.16537
   27. RY ( 1) H  2             0.00086     0.83254
   28. RY ( 1) H  3             0.00086     0.83254
   29. RY ( 1) H  4             0.00086     0.83254
   30. RY ( 1) C  5             0.00136     1.14167
   31. RY ( 2) C  5             0.00136     1.14167
   32. RY ( 3) C  5             0.00019     1.88523
   33. RY ( 4) C  5             0.00000     1.77422
   34. RY ( 5) C  5             0.00000     2.10612
   35. RY ( 6) C  5             0.00000     2.01324
   36. RY ( 7) C  5             0.00000     3.74003
   37. RY ( 8) C  5             0.00000     2.04949
   38. RY ( 9) C  5             0.00000     2.21680
   39. RY (10) C  5             0.00000     2.18404
   40. RY ( 1) H  6             0.00086     0.83254
   41. RY ( 1) H  7             0.00086     0.83254
   42. RY ( 1) H  8             0.00086     0.83254
          -------------------------------
                 Total Lewis   17.95479  ( 99.7488%)
           Valence non-Lewis    0.03423  (  0.1902%)
           Rydberg non-Lewis    0.01098  (  0.0610%)
          -------------------------------
               Total unit  1   18.00000  (100.0000%)
              Charge unit  1    0.00000

 $CHOOSE
   BOND S 1 2 S 1 3 S 1 4 S 1 5 S 5 6 S 5 7 S 5 8 END
 $END

 NBO analysis completed in 0.50 CPU seconds (1 wall second)
 Maximum scratch memory used by NBO was 337558 words (2.58 MB)
 Maximum scratch memory used by G16NBO was 11095 words (0.08 MB)

 Opening RunExU unformatted file "/cluster/work/users/beto93/CH3CH3/Gau-2329425.EUF"
 Read unf file /cluster/work/users/beto93/CH3CH3/Gau-2329425.EUF:
 Label Gaussian matrix elements                                         IVers= 2 NLab= 2 Version=ES64L-G16RevC.01
 Title NBO-a                                                           
 NAtoms=     8 NBasis=    42 NBsUse=    42 ICharg=     0 Multip=     1 NE=    18 Len12L=8 Len4L=8 IOpCl= 0 ICGU=111
 GAUSSIAN SCALARS                    NI= 1 NR= 1 NTot=       1 LenBuf=    2 NRI=1 N=    1000
 NPA CHARGES                         NI= 0 NR= 1 NTot=       8 LenBuf= 4000 NRI=1 N=       8
 Recovered energy= -79.2286533600     dipole=      0.000000000000      0.000000000000     -0.000000000000
 Unable to Open any file for archive entry.
 1\1\GINC-C1-4\SP\RHF\6-31G(d)\C2H6\BETO93\24-Jul-2024\0\\#RHF/6-31G* P
 op=NBO7Read\\NBO-a\\0,1\C,0,0.008877,0.015375,0.006277\H,0,0.020819,0.
 036063,1.092059\H,0,1.036545,0.036063,-0.344387\H,0,-0.487038,0.915705
 ,-0.344391\C,0,-0.715982,-1.24012,-0.50628\H,0,-1.743649,-1.260807,-0.
 155616\H,0,-0.727923,-1.260807,-1.592062\H,0,-0.220066,-2.140449,-0.15
 5612\\Version=ES64L-G16RevC.01\State=1-AG\HF=-79.2286534\RMSD=3.580e-0
 9\Dipole=0.,0.,0.\Quadrupole=0.0589582,-0.176885,0.1179268,-0.2042496,
 -0.0833836,-0.1444268\PG=CI [X(C2H6)]\\@
 The archive entry for this job was punched.


      HUMANKIND PERIODICALLY GOES THROUGH A SPEEDUP OF ITS AFFAIRS, 
      THEREBY EXPERIENCING THE RACE BETWEEN THE RENEWABLE VITALITY
      OF THE LIVING, AND THE BECKONING VITIATION OF DECADENCE.
      IN THIS PERIODIC RACE, ANY PAUSE BECOMES A LUXURY.
      ONLY THEN CAN ONE REFLECT THAT ALL IS PERMITTED;
      ALL IS POSSIBLE.

                              -- THE APOCRYPHA OF MUAD'DIB
                                 CHILDREN OF DUNE, BY FRANK HERBERT
 Job cpu time:       0 days  0 hours  0 minutes 13.7 seconds.
 Elapsed time:       0 days  0 hours  0 minutes  4.6 seconds.
 File lengths (MBytes):  RWF=     10 Int=      0 D2E=      0 Chk=      1 Scr=      1
 Normal termination of Gaussian 16 at Wed Jul 24 12:08:02 2024.
