 Entering Gaussian System, Link 0=g16
 Initial command:
 /cluster/software/Gaussian/g16_C.01/l1.exe "/cluster/work/users/beto93/mol125/Gau-1814815.inp" -scrdir="/cluster/work/users/beto93/mol125/"
 Entering Link 1 = /cluster/software/Gaussian/g16_C.01/l1.exe PID=   1814818.
  
 Copyright (c) 1988-2019, Gaussian, Inc.  All Rights Reserved.
  
 This is part of the Gaussian(R) 16 program.  It is based on
 the Gaussian(R) 09 system (copyright 2009, Gaussian, Inc.),
 the Gaussian(R) 03 system (copyright 2003, Gaussian, Inc.),
 the Gaussian(R) 98 system (copyright 1998, Gaussian, Inc.),
 the Gaussian(R) 94 system (copyright 1995, Gaussian, Inc.),
 the Gaussian 92(TM) system (copyright 1992, Gaussian, Inc.),
 the Gaussian 90(TM) system (copyright 1990, Gaussian, Inc.),
 the Gaussian 88(TM) system (copyright 1988, Gaussian, Inc.),
 the Gaussian 86(TM) system (copyright 1986, Carnegie Mellon
 University), and the Gaussian 82(TM) system (copyright 1983,
 Carnegie Mellon University). Gaussian is a federally registered
 trademark of Gaussian, Inc.
  
 This software contains proprietary and confidential information,
 including trade secrets, belonging to Gaussian, Inc.
  
 This software is provided under written license and may be
 used, copied, transmitted, or stored only in accord with that
 written license.
  
 The following legend is applicable only to US Government
 contracts under FAR:
  
                    RESTRICTED RIGHTS LEGEND
  
 Use, reproduction and disclosure by the US Government is
 subject to restrictions as set forth in subparagraphs (a)
 and (c) of the Commercial Computer Software - Restricted
 Rights clause in FAR 52.227-19.
  
 Gaussian, Inc.
 340 Quinnipiac St., Bldg. 40, Wallingford CT 06492
  
  
 ---------------------------------------------------------------
 Warning -- This program may not be used in any manner that
 competes with the business of Gaussian, Inc. or will provide
 assistance to any competitor of Gaussian, Inc.  The licensee
 of this program is prohibited from giving any competitor of
 Gaussian, Inc. access to this program.  By using this program,
 the user acknowledges that Gaussian, Inc. is engaged in the
 business of creating and licensing software in the field of
 computational chemistry and represents and warrants to the
 licensee that it is not a competitor of Gaussian, Inc. and that
 it will not use this program in any manner prohibited above.
 ---------------------------------------------------------------
  

 Cite this work as:
 Gaussian 16, Revision C.01,
 M. J. Frisch, G. W. Trucks, H. B. Schlegel, G. E. Scuseria, 
 M. A. Robb, J. R. Cheeseman, G. Scalmani, V. Barone, 
 G. A. Petersson, H. Nakatsuji, X. Li, M. Caricato, A. V. Marenich, 
 J. Bloino, B. G. Janesko, R. Gomperts, B. Mennucci, H. P. Hratchian, 
 J. V. Ortiz, A. F. Izmaylov, J. L. Sonnenberg, D. Williams-Young, 
 F. Ding, F. Lipparini, F. Egidi, J. Goings, B. Peng, A. Petrone, 
 T. Henderson, D. Ranasinghe, V. G. Zakrzewski, J. Gao, N. Rega, 
 G. Zheng, W. Liang, M. Hada, M. Ehara, K. Toyota, R. Fukuda, 
 J. Hasegawa, M. Ishida, T. Nakajima, Y. Honda, O. Kitao, H. Nakai, 
 T. Vreven, K. Throssell, J. A. Montgomery, Jr., J. E. Peralta, 
 F. Ogliaro, M. J. Bearpark, J. J. Heyd, E. N. Brothers, K. N. Kudin, 
 V. N. Staroverov, T. A. Keith, R. Kobayashi, J. Normand, 
 K. Raghavachari, A. P. Rendell, J. C. Burant, S. S. Iyengar, 
 J. Tomasi, M. Cossi, J. M. Millam, M. Klene, C. Adamo, R. Cammi, 
 J. W. Ochterski, R. L. Martin, K. Morokuma, O. Farkas, 
 J. B. Foresman, and D. J. Fox, Gaussian, Inc., Wallingford CT, 2019.
 
 ******************************************
 Gaussian 16:  ES64L-G16RevC.01  3-Jul-2019
                18-Nov-2024 
 ******************************************
 %LindaWorkers=c3-25-ib
 %NProcShared=4
 Will use up to    4 processors via shared memory.
 %mem=25GB
 %chk=mol125.chk
 SetLPE:    new flags="-opt 'Tsnet.Node.lindarsharg: ssh'  -nodelist 'c3-25-ib.saga' -env GAUSS_MDEF=3355443200 -env GAUSS_EXEDIR="/cluster/software/Gaussian/g16_C.01/bsd:/cluster/software/Gaussian/g16_C.01""
 Will use up to    1 processors via Linda.
 -----------------------------------------------------------------
 #RHF/6-31G* int=nobasistransform Symmetry=None 5D 7F Pop=NBO7Read
 -----------------------------------------------------------------
 1/38=1,163=2,172=1/1;
 2/12=2,15=3,17=6,18=5,40=1/2;
 3/5=1,6=6,7=1,8=11,11=1,25=1,30=1,60=-1,116=1/1,2,3;
 4//1;
 5/5=2,38=5/2;
 6/7=2,8=2,9=2,10=2,28=1,40=2,113=1,114=1,124=2103/1,12;
 99/5=1,9=1/99;
 ----------
 mol125-NBO
 ----------
 Symbolic Z-matrix:
 Charge =  0 Multiplicity = 1
 C                     0.        0.1864    0. 
 O                     0.12665   1.3772    0. 
 F                    -1.24395  -0.38275   0. 
 C                     1.04945  -0.87622   0. 
 H                     2.03588  -0.4171    0. 
 H                     0.92487  -1.50841   0.88155 
 H                     0.92487  -1.50841  -0.88155 
 
                          Input orientation:                          
 ---------------------------------------------------------------------
 Center     Atomic      Atomic             Coordinates (Angstroms)
 Number     Number       Type             X           Y           Z
 ---------------------------------------------------------------------
      1          6           0        0.000000    0.186396    0.000000
      2          8           0        0.126651    1.377199    0.000000
      3          9           0       -1.243950   -0.382745    0.000000
      4          6           0        1.049454   -0.876224    0.000000
      5          1           0        2.035883   -0.417099    0.000000
      6          1           0        0.924869   -1.508407    0.881549
      7          1           0        0.924869   -1.508407   -0.881549
 ---------------------------------------------------------------------
                    Distance matrix (angstroms):
                    1          2          3          4          5
     1  C    0.000000
     2  O    1.197519   0.000000
     3  F    1.367967   2.230684   0.000000
     4  C    1.493491   2.435052   2.345895   0.000000
     5  H    2.123447   2.620052   3.280013   1.088043   0.000000
     6  H    2.122468   3.121058   2.597695   1.091927   1.789535
     7  H    2.122468   3.121058   2.597695   1.091927   1.789535
                    6          7
     6  H    0.000000
     7  H    1.763098   0.000000
 Symmetry turned off by external request.
 Stoichiometry    C2H3FO
 Rotational constants (GHZ):          10.8078288           9.7018402           5.2798377
 Standard basis: 6-31G(d) (5D, 7F)
    62 basis functions,   124 primitive gaussians,    66 cartesian basis functions
    16 alpha electrons       16 beta electrons
       nuclear repulsion energy       118.1079115426 Hartrees.
 NAtoms=    7 NActive=    7 NUniq=    7 SFac= 1.00D+00 NAtFMM=   60 NAOKFM=F Big=F
 Integral buffers will be    131072 words long.
 Raffenetti 1 integral format.
 Two-electron integral symmetry is turned off.
 One-electron integrals computed using PRISM.
 NBasis=    62 RedAO= T EigKep=  6.55D-03  NBF=    62
 NBsUse=    62 1.00D-06 EigRej= -1.00D+00 NBFU=    62
 ExpMin= 1.61D-01 ExpMax= 7.00D+03 ExpMxC= 1.05D+03 IAcc=3 IRadAn=         5 AccDes= 0.00D+00
 Harris functional with IExCor=  205 and IRadAn=       5 diagonalized for initial guess.
 HarFok:  IExCor=  205 AccDes= 0.00D+00 IRadAn=         5 IDoV= 1 UseB2=F ITyADJ=14
 ICtDFT=  3500011 ScaDFX=  1.000000  1.000000  1.000000  1.000000
 FoFCou: FMM=F IPFlag=           0 FMFlag=      100000 FMFlg1=           0
         NFxFlg=           0 DoJE=T BraDBF=F KetDBF=T FulRan=T
         wScrn=  0.000000 ICntrl=       500 IOpCl=  0 I1Cent=   200000004 NGrid=           0
         NMat0=    1 NMatS0=      1 NMatT0=    0 NMatD0=    1 NMtDS0=    0 NMtDT0=    0
 Symmetry not used in FoFCou.
 Keep R1 ints in memory in canonical form, NReq=2753746.
 Requested convergence on RMS density matrix=1.00D-08 within 128 cycles.
 Requested convergence on MAX density matrix=1.00D-06.
 Requested convergence on             energy=1.00D-06.
 No special actions if energy rises.
 SCF Done:  E(RHF) =  -251.793169623     A.U. after   13 cycles
            NFock= 13  Conv=0.44D-08     -V/T= 2.0015

 **********************************************************************

            Population analysis using the SCF Density.

 **********************************************************************

 Alpha  occ. eigenvalues --  -26.32187 -20.58940 -11.43321 -11.26383  -1.63975
 Alpha  occ. eigenvalues --   -1.42078  -1.05041  -0.83807  -0.72554  -0.71233
 Alpha  occ. eigenvalues --   -0.71222  -0.61559  -0.60766  -0.58603  -0.52264
 Alpha  occ. eigenvalues --   -0.48530
 Alpha virt. eigenvalues --    0.15619   0.23276   0.28246   0.30527   0.35662
 Alpha virt. eigenvalues --    0.43078   0.48043   0.71052   0.72928   0.79590
 Alpha virt. eigenvalues --    0.80480   0.80604   0.91959   0.97938   1.10011
 Alpha virt. eigenvalues --    1.10884   1.16056   1.19038   1.28085   1.31863
 Alpha virt. eigenvalues --    1.44872   1.50831   1.54029   1.63648   1.64901
 Alpha virt. eigenvalues --    1.70041   1.90057   1.96839   2.03749   2.06463
 Alpha virt. eigenvalues --    2.11440   2.11928   2.15783   2.26076   2.27911
 Alpha virt. eigenvalues --    2.31004   2.38536   2.51077   2.53257   2.70249
 Alpha virt. eigenvalues --    2.77754   2.97416   3.10551   3.26874   3.33427
 Alpha virt. eigenvalues --    3.47665
          Condensed to atoms (all electrons):
               1          2          3          4          5          6
     1  C    4.039036   0.610442   0.218698   0.351400  -0.032997  -0.027544
     2  O    0.610442   8.006190  -0.049543  -0.067540   0.003116   0.000849
     3  F    0.218698  -0.049543   9.314495  -0.065037   0.002088   0.001469
     4  C    0.351400  -0.067540  -0.065037   5.269115   0.374471   0.373929
     5  H   -0.032997   0.003116   0.002088   0.374471   0.466229  -0.018715
     6  H   -0.027544   0.000849   0.001469   0.373929  -0.018715   0.469041
     7  H   -0.027544   0.000849   0.001469   0.373929  -0.018715  -0.021648
               7
     1  C   -0.027544
     2  O    0.000849
     3  F    0.001469
     4  C    0.373929
     5  H   -0.018715
     6  H   -0.021648
     7  H    0.469041
 Mulliken charges:
               1
     1  C    0.868510
     2  O   -0.504364
     3  F   -0.423640
     4  C   -0.610268
     5  H    0.224523
     6  H    0.222619
     7  H    0.222619
 Sum of Mulliken charges =  -0.00000
 Mulliken charges with hydrogens summed into heavy atoms:
               1
     1  C    0.868510
     2  O   -0.504364
     3  F   -0.423640
     4  C    0.059494
 Electronic spatial extent (au):  <R**2>=            244.7420
 Charge=              0.0000 electrons
 Dipole moment (field-independent basis, Debye):
    X=              1.7927    Y=             -2.7229    Z=              0.0000  Tot=              3.2601
 Quadrupole moment (field-independent basis, Debye-Ang):
   XX=            -22.8835   YY=            -25.3688   ZZ=            -21.0593
   XY=             -1.6034   XZ=              0.0000   YZ=             -0.0000
 Traceless Quadrupole moment (field-independent basis, Debye-Ang):
   XX=              0.2204   YY=             -2.2650   ZZ=              2.0446
   XY=             -1.6034   XZ=              0.0000   YZ=             -0.0000
 Octapole moment (field-independent basis, Debye-Ang**2):
  XXX=             -4.5294  YYY=             -5.8836  ZZZ=              0.0000  XYY=             -2.4992
  XXY=              0.4659  XXZ=              0.0000  XZZ=             -2.8887  YZZ=             -0.6165
  YYZ=              0.0000  XYZ=             -0.0000
 Hexadecapole moment (field-independent basis, Debye-Ang**3):
 XXXX=           -117.2473 YYYY=           -134.5788 ZZZZ=            -22.8456 XXXY=             12.4119
 XXXZ=              0.0000 YYYX=             10.7366 YYYZ=             -0.0000 ZZZX=              0.0000
 ZZZY=             -0.0000 XXYY=            -42.6383 XXZZ=            -24.6739 YYZZ=            -23.1777
 XXYZ=             -0.0000 YYXZ=              0.0000 ZZXY=              3.3419
 N-N= 1.181079115426D+02 E-N=-8.321766572424D+02  KE= 2.514237449278D+02
 Running external command "gaunbo7 R"
         input file       "/cluster/work/users/beto93/mol125/Gau-1814818.EIn"
         output file      "/cluster/work/users/beto93/mol125/Gau-1814818.EOu"
         message file     "/cluster/work/users/beto93/mol125/Gau-1814818.EMs"
         fchk file        "/cluster/work/users/beto93/mol125/Gau-1814818.EFC"
         mat. el file     "/cluster/work/users/beto93/mol125/Gau-1814818.EUF"

 Writing WrtUnf unformatted file "/cluster/work/users/beto93/mol125/Gau-1814818.EUF"
 Gaussian matrix elements                                         Version   2 NLab=11 Len12L=8 Len4L=8
 Write SHELL TO ATOM MAP                   from file      0 offset           0 length                  22 to matrix element file.
 Write SHELL TYPES                         from file      0 offset           0 length                  22 to matrix element file.
 Write NUMBER OF PRIMITIVES PER SHELL      from file      0 offset           0 length                  22 to matrix element file.
 Write PRIMITIVE EXPONENTS                 from file      0 offset           0 length                  56 to matrix element file.
 Write CONTRACTION COEFFICIENTS            from file      0 offset           0 length                  56 to matrix element file.
 Write P(S=P) CONTRACTION COEFFICIENTS     from file      0 offset           0 length                  56 to matrix element file.
 Write COORDINATES OF EACH SHELL           from file      0 offset           0 length                  66 to matrix element file.
 Write BONDS PER ATOM                      from file      0 offset           0 length                   7 to matrix element file.
 Write BONDED ATOMS                        from file      0 offset           0 length                  12 to matrix element file.
 Write BOND TYPES                          from file      0 offset           0 length                  12 to matrix element file.
 Write ONIOM CHARGE/MULT                   from file      0 offset           0 length                  32 to matrix element file.
 Write ONIOM ATOM LAYERS                   from file      0 offset           0 length                   7 to matrix element file.
 Write ONIOM ATOM MODIFIERS                from file      0 offset           0 length                   7 to matrix element file.
 Write ONIOM ATOM TYPES                    from file      0 offset           0 length                   7 to matrix element file.
 Write ONIOM LINK ATOMS                    from file      0 offset           0 length                   7 to matrix element file.
 Write ONIOM LINK CHARGES                  from file      0 offset           0 length                   7 to matrix element file.
 Write ONIOM LINK DISTANCES                from file      0 offset           0 length                  28 to matrix element file.
 Write SYMINF INTS                         from file      0 offset           0 length                  26 to matrix element file.
 Write ROTTR TO SO                         from file      0 offset           0 length                  12 to matrix element file.
 Write GAUSSIAN SCALARS                    from file    501 offset           0 to matrix element file.
 Write OPTIMIZATION FLAGS                  from file      0 offset           0 length                   7 to matrix element file.
 Write INTEGER ISO                         from file      0 offset           0 length                   7 to matrix element file.
 Write INTEGER SPIN                        from file      0 offset           0 length                   7 to matrix element file.
 Write REAL ZEFFECTIVE                     from file      0 offset           0 length                   7 to matrix element file.
 Write REAL GFACTOR                        from file      0 offset           0 length                   7 to matrix element file.
 Write REAL ZNUCLEAR                       from file      0 offset           0 length                   7 to matrix element file.
 Write MULLIKEN CHARGES                    from file      0 offset           0 length                   7 to matrix element file.
 Write NUCLEAR GRADIENT                    from file  10584 offset           0 length                  21 to matrix element file.
 Array NUCLEAR FORCE CONSTANTS              on  file  10585 does not exist.
 Write ELECTRIC DIPOLE MOMENT              from file      0 offset           0 length                   3 to matrix element file.
 Write NON-ADIABATIC COUPLING              from file  10810 offset           0 length                  21 to matrix element file.
 Write FINITE EM FIELD                     from file  10521 offset           0 length                  35 to matrix element file.
 Write OVERLAP                             from file  10514 offset           0 length                1953 to matrix element file.
 Write CORE HAMILTONIAN ALPHA              from file  10515 offset           0 length                1953 to matrix element file.
 Write CORE HAMILTONIAN BETA               from file  10515 offset        1953 length                1953 to matrix element file.
 Write KINETIC ENERGY                      from file  10516 offset           0 length                1953 to matrix element file.
 Write ORTHOGONAL BASIS                    from file  10685 offset           0 length                3844 to matrix element file.
 Write DIPOLE INTEGRALS                    from file  10518 offset           0 length                5859 to matrix element file.
 Array DIP VEL INTEGRALS                    on  file  10572 does not exist.
 Array R X DEL INTEGRALS                    on  file  10572 does not exist.
 Write ALPHA ORBITAL ENERGIES              from file      0 offset           0 length                  62 to matrix element file.
 Write ALPHA MO COEFFICIENTS               from file  10524 offset           0 length                3844 to matrix element file.
 Write ALPHA DENSITY MATRIX                from file      0 offset           0 length                1953 to matrix element file.
 Write ALPHA FOCK MATRIX                   from file  10536 offset           0 length                1953 to matrix element file.
 Write ENERGY-WEIGHTED DENSITY             from file  10571 offset           0 length                1953 to matrix element file.
 Write ALPHA SCF DENSITY MATRIX            from file      0 offset           0 length                1953 to matrix element file.
 No 2e integrals to process.
 Perform NBO analysis...executing G16NBO...

 *********************************** NBO 7.0 ***********************************
             N A T U R A L   A T O M I C   O R B I T A L   A N D
          N A T U R A L   B O N D   O R B I T A L   A N A L Y S I S
 **************************** Espen Tangen (S101595) ***************************
  (c) Copyright 1996-2021 Board of Regents of the University of Wisconsin System
      on behalf of the Theoretical Chemistry Institute.  All rights reserved.

          Cite this program [NBO 7.0.10 (8-Feb-2021)] as:

          NBO 7.0.  E. D. Glendening, J. K. Badenhoop, A. E. Reed,
          J. E. Carpenter, J. A. Bohmann, C. M. Morales, P. Karafiloglou,
          C. R. Landis, and F. Weinhold, Theoretical Chemistry Institute,
          University of Wisconsin, Madison, WI (2018)

       /NPA    / : Natural Population Analysis
       /AOPNAO / : Print the AO to PNAO transformation
       /AONAO  / : Print the AO to NAO transformation
       /AOMO   / : Print the MOs in the AO basis
       /BOAO   / : Print the AO bond-order matrix
       /DMAO   / : Print the AO density matrix
       /DMPNAO / : Print the PNAO density matrix
       /DMNAO  / : Print the NAO density matrix
       /DMMO   / : Print the MO density matrix
       /SAO    / : Print the AO overlap matrix
       /SPNAO  / : Print the PNAO overlap matrix
       /DETAIL / : Write details of NBO search
       /ARCHIVE/ : Write the archive file to lfn47
       /AOINFO / : Write AO information to lfn31
       /FILE   / : Set to mol125.gen*

 Filename set to mol125.gen1

 Job title: mol125-NBO


 MOs in the AO basis:

           AO          1       2       3       4       5       6       7       8
      ------------ ------- ------- ------- ------- ------- ------- ------- -------
   1.  C 1 (s)      0.0000  0.0002  0.9962 -0.0020 -0.0665 -0.1004 -0.0768 -0.1061
   2.  C 1 (s)      0.0004  0.0004  0.0239 -0.0006  0.1229  0.1971  0.1703  0.2368
   3.  C 1 (px)    -0.0008 -0.0001 -0.0015 -0.0001 -0.0770  0.0461  0.1076 -0.1568
   4.  C 1 (py)    -0.0003 -0.0002  0.0000  0.0000 -0.0192  0.2017 -0.1691 -0.0784
   5.  C 1 (pz)     0.0000  0.0000  0.0000  0.0000  0.0000  0.0000  0.0000  0.0000
   6.  C 1 (s)      0.0026  0.0051 -0.0072  0.0046  0.0109  0.0422  0.0888  0.1605
   7.  C 1 (px)    -0.0039  0.0000 -0.0028  0.0018  0.0308  0.0074  0.0223  0.0270
   8.  C 1 (py)    -0.0015  0.0069  0.0041 -0.0014 -0.0001 -0.0396 -0.0306 -0.0421
   9.  C 1 (pz)     0.0000  0.0000  0.0000  0.0000  0.0000  0.0000  0.0000  0.0000
  10.  C 1 (d5)    -0.0004  0.0003 -0.0012  0.0002 -0.0111 -0.0133 -0.0072 -0.0095
  11.  C 1 (d2)     0.0000  0.0000  0.0000  0.0000  0.0000  0.0000  0.0000  0.0000
  12.  C 1 (d3)     0.0000  0.0000  0.0000  0.0000  0.0000  0.0000  0.0000  0.0000
  13.  C 1 (d4)     0.0003  0.0007 -0.0004  0.0000  0.0076 -0.0328  0.0027  0.0104
  14.  C 1 (d1)     0.0002 -0.0002  0.0004  0.0004  0.0145  0.0006 -0.0146  0.0108
  15.  O 2 (s)      0.0000  0.9959 -0.0004  0.0000 -0.0279 -0.1959  0.0437  0.0551
  16.  O 2 (s)     -0.0001  0.0232  0.0006 -0.0001  0.0611  0.4251 -0.0989 -0.1284
  17.  O 2 (px)    -0.0001 -0.0003 -0.0001  0.0000 -0.0109 -0.0101  0.0310 -0.0810
  18.  O 2 (py)     0.0001 -0.0022 -0.0002  0.0001 -0.0292 -0.1379 -0.0189 -0.1155
  19.  O 2 (pz)     0.0000  0.0000  0.0000  0.0000  0.0000  0.0000  0.0000  0.0000
  20.  O 2 (s)      0.0004 -0.0138 -0.0031 -0.0001  0.0532  0.4122 -0.1059 -0.1631
  21.  O 2 (px)     0.0011  0.0007  0.0011 -0.0003 -0.0139 -0.0057  0.0098 -0.0596
  22.  O 2 (py)    -0.0001  0.0041  0.0018  0.0000 -0.0119 -0.0567 -0.0109 -0.0612
  23.  O 2 (pz)     0.0000  0.0000  0.0000  0.0000  0.0000  0.0000  0.0000  0.0000
  24.  O 2 (d5)     0.0000 -0.0001  0.0002 -0.0001 -0.0012 -0.0067  0.0008 -0.0024
  25.  O 2 (d2)     0.0000  0.0000  0.0000  0.0000  0.0000  0.0000  0.0000  0.0000
  26.  O 2 (d3)     0.0000  0.0000  0.0000  0.0000  0.0000  0.0000  0.0000  0.0000
  27.  O 2 (d4)     0.0000  0.0000  0.0001  0.0000 -0.0028 -0.0120 -0.0013 -0.0055
  28.  O 2 (d1)    -0.0003 -0.0001 -0.0003  0.0001  0.0046  0.0020 -0.0036  0.0105
  29.  F 3 (s)      0.9956  0.0000  0.0000  0.0000 -0.2233  0.0521  0.0315  0.0574
  30.  F 3 (s)      0.0225 -0.0001  0.0008 -0.0002  0.4766 -0.1143 -0.0713 -0.1371
  31.  F 3 (px)     0.0012 -0.0001  0.0003 -0.0001  0.0619  0.0099  0.0952  0.3874
  32.  F 3 (py)     0.0005  0.0001  0.0003  0.0000  0.0263  0.0190 -0.0177  0.1808
  33.  F 3 (pz)     0.0000  0.0000  0.0000  0.0000  0.0000  0.0000  0.0000  0.0000
  34.  F 3 (s)     -0.0094  0.0003 -0.0017  0.0002  0.5317 -0.1318 -0.0983 -0.1828
  35.  F 3 (px)    -0.0026  0.0004 -0.0016  0.0001  0.0533  0.0029  0.0536  0.2553
  36.  F 3 (py)    -0.0013 -0.0010 -0.0015 -0.0001  0.0231  0.0152 -0.0062  0.1253
  37.  F 3 (pz)     0.0000  0.0000  0.0000  0.0000  0.0000  0.0000  0.0000  0.0000
  38.  F 3 (d5)     0.0003  0.0000  0.0007 -0.0001 -0.0063 -0.0012 -0.0031 -0.0123
  39.  F 3 (d2)     0.0000  0.0000  0.0000  0.0000  0.0000  0.0000  0.0000  0.0000
  40.  F 3 (d3)     0.0000  0.0000  0.0000  0.0000  0.0000  0.0000  0.0000  0.0000
  41.  F 3 (d4)    -0.0004  0.0002 -0.0005  0.0000  0.0084  0.0002  0.0060  0.0149
  42.  F 3 (d1)    -0.0005 -0.0003 -0.0008 -0.0001  0.0092  0.0035  0.0015  0.0167
  43.  C 4 (s)      0.0000  0.0000  0.0019  0.9962 -0.0083 -0.0124 -0.1789  0.0638
  44.  C 4 (s)     -0.0003 -0.0002 -0.0005  0.0261  0.0188  0.0259  0.3415 -0.1141
  45.  C 4 (px)     0.0002  0.0000  0.0002 -0.0004 -0.0137 -0.0084 -0.0446 -0.1085
  46.  C 4 (py)     0.0000  0.0000 -0.0001  0.0003  0.0079  0.0185  0.0335  0.0634
  47.  C 4 (pz)     0.0000  0.0000  0.0000  0.0000  0.0000  0.0000  0.0000  0.0000
  48.  C 4 (s)      0.0010  0.0020  0.0045 -0.0186 -0.0026 -0.0016  0.3331 -0.1848
  49.  C 4 (px)     0.0003 -0.0018 -0.0020  0.0009 -0.0048  0.0140 -0.0067 -0.0233
  50.  C 4 (py)     0.0008 -0.0006  0.0017 -0.0008 -0.0067  0.0039  0.0038  0.0020
  51.  C 4 (pz)     0.0000  0.0000  0.0000  0.0000  0.0000  0.0000  0.0000  0.0000
  52.  C 4 (d5)    -0.0001  0.0000  0.0002  0.0000 -0.0016 -0.0021 -0.0005 -0.0051
  53.  C 4 (d2)     0.0000  0.0000  0.0000  0.0000  0.0000  0.0000  0.0000  0.0000
  54.  C 4 (d3)     0.0000  0.0000  0.0000  0.0000  0.0000  0.0000  0.0000  0.0000
  55.  C 4 (d4)    -0.0002  0.0004  0.0000  0.0000  0.0017 -0.0026  0.0007  0.0026
  56.  C 4 (d1)     0.0001  0.0000  0.0003  0.0000 -0.0036 -0.0031 -0.0020 -0.0142
  57.  H 5 (s)     -0.0002  0.0000 -0.0002  0.0000  0.0029  0.0063  0.1046 -0.0833
  58.  H 5 (s)      0.0000  0.0006  0.0004  0.0031  0.0000 -0.0048  0.0106 -0.0397
  59.  H 6 (s)      0.0000 -0.0001 -0.0002  0.0001  0.0027  0.0038  0.1095 -0.0615
  60.  H 6 (s)     -0.0001 -0.0003  0.0004  0.0032  0.0009 -0.0006  0.0155 -0.0268
  61.  H 7 (s)      0.0000 -0.0001 -0.0002  0.0001  0.0027  0.0038  0.1095 -0.0615
  62.  H 7 (s)     -0.0001 -0.0003  0.0004  0.0032  0.0009 -0.0006  0.0155 -0.0268

           AO          9      10      11      12      13      14      15      16
      ------------ ------- ------- ------- ------- ------- ------- ------- -------
   1.  C 1 (s)      0.0272  0.0000  0.0651  0.0027  0.0000  0.0184  0.0000  0.0255
   2.  C 1 (s)     -0.0593  0.0000 -0.1567 -0.0081  0.0000 -0.0432  0.0000 -0.0646
   3.  C 1 (px)    -0.2043  0.0000 -0.1926  0.0852  0.0000 -0.1277  0.0000 -0.0570
   4.  C 1 (py)     0.1433  0.0000 -0.1889 -0.2547  0.0000  0.1178  0.0000  0.0985
   5.  C 1 (pz)     0.0000  0.2090  0.0000  0.0000  0.0886  0.0000  0.2483  0.0000
   6.  C 1 (s)     -0.0725  0.0000 -0.1005  0.0514  0.0000 -0.0870  0.0000 -0.0825
   7.  C 1 (px)    -0.0654  0.0000 -0.0363  0.0199  0.0000 -0.0259  0.0000  0.0558
   8.  C 1 (py)     0.0690  0.0000  0.0059  0.0120  0.0000 -0.0159  0.0000  0.0355
   9.  C 1 (pz)     0.0000  0.1135  0.0000  0.0000  0.0109  0.0000  0.1312  0.0000
  10.  C 1 (d5)    -0.0007  0.0000  0.0015  0.0006  0.0000 -0.0019  0.0000 -0.0023
  11.  C 1 (d2)     0.0000 -0.0140  0.0000  0.0000  0.0180  0.0000  0.0085  0.0000
  12.  C 1 (d3)     0.0000 -0.0006  0.0000  0.0000  0.0028  0.0000  0.0444  0.0000
  13.  C 1 (d4)     0.0129  0.0000  0.0095  0.0335  0.0000  0.0039  0.0000  0.0133
  14.  C 1 (d1)    -0.0095  0.0000  0.0082 -0.0035  0.0000  0.0178  0.0000  0.0570
  15.  O 2 (s)      0.0131  0.0000 -0.0819 -0.0279  0.0000  0.0050  0.0000 -0.0009
  16.  O 2 (s)     -0.0283  0.0000  0.1959  0.0715  0.0000 -0.0166  0.0000  0.0016
  17.  O 2 (px)    -0.1886  0.0000 -0.0795  0.1780  0.0000 -0.0792  0.0000  0.5577
  18.  O 2 (py)    -0.0351  0.0000  0.3925  0.2973  0.0000 -0.0692  0.0000 -0.1070
  19.  O 2 (pz)     0.0000  0.1520  0.0000  0.0000  0.1066  0.0000  0.4859  0.0000
  20.  O 2 (s)     -0.0683  0.0000  0.3052  0.1028  0.0000  0.0076  0.0000 -0.0023
  21.  O 2 (px)    -0.1137  0.0000 -0.0483  0.1135  0.0000 -0.0504  0.0000  0.4065
  22.  O 2 (py)    -0.0114  0.0000  0.2133  0.1812  0.0000 -0.0527  0.0000 -0.0758
  23.  O 2 (pz)     0.0000  0.0855  0.0000  0.0000  0.0790  0.0000  0.3595  0.0000
  24.  O 2 (d5)    -0.0024  0.0000  0.0101  0.0067  0.0000 -0.0022  0.0000 -0.0025
  25.  O 2 (d2)     0.0000 -0.0023  0.0000  0.0000 -0.0002  0.0000 -0.0033  0.0000
  26.  O 2 (d3)     0.0000 -0.0154  0.0000  0.0000 -0.0106  0.0000 -0.0390  0.0000
  27.  O 2 (d4)     0.0002  0.0000  0.0202  0.0130  0.0000 -0.0035  0.0000 -0.0072
  28.  O 2 (d1)     0.0140  0.0000  0.0064 -0.0129  0.0000  0.0086  0.0000 -0.0243
  29.  F 3 (s)      0.0065  0.0000  0.0139 -0.0011  0.0000 -0.0018  0.0000 -0.0103
  30.  F 3 (s)     -0.0142  0.0000 -0.0348  0.0017  0.0000  0.0007  0.0000  0.0161
  31.  F 3 (px)    -0.0890  0.0000  0.2684 -0.0496  0.0000  0.2479  0.0000  0.1857
  32.  F 3 (py)     0.4550  0.0000 -0.0790  0.3150  0.0000 -0.2440  0.0000  0.1153
  33.  F 3 (pz)     0.0000  0.5398  0.0000  0.0000 -0.2925  0.0000 -0.2039  0.0000
  34.  F 3 (s)     -0.0254  0.0000 -0.0451  0.0055  0.0000  0.0187  0.0000  0.0842
  35.  F 3 (px)    -0.0620  0.0000  0.1864 -0.0338  0.0000  0.1900  0.0000  0.1617
  36.  F 3 (py)     0.3112  0.0000 -0.0582  0.2263  0.0000 -0.1809  0.0000  0.0947
  37.  F 3 (pz)     0.0000  0.3796  0.0000  0.0000 -0.2202  0.0000 -0.1697  0.0000
  38.  F 3 (d5)    -0.0016  0.0000 -0.0051 -0.0011  0.0000 -0.0029  0.0000 -0.0026
  39.  F 3 (d2)     0.0000  0.0241  0.0000  0.0000 -0.0096  0.0000 -0.0050  0.0000
  40.  F 3 (d3)     0.0000  0.0091  0.0000  0.0000 -0.0039  0.0000  0.0002  0.0000
  41.  F 3 (d4)    -0.0104  0.0000  0.0113 -0.0026  0.0000  0.0097  0.0000  0.0033
  42.  F 3 (d1)     0.0167  0.0000 -0.0003  0.0077  0.0000 -0.0026  0.0000  0.0085
  43.  C 4 (s)     -0.0427  0.0000 -0.0129 -0.0002  0.0000  0.0009  0.0000  0.0183
  44.  C 4 (s)      0.0824  0.0000  0.0206  0.0041  0.0000 -0.0049  0.0000 -0.0381
  45.  C 4 (px)     0.1577  0.0000 -0.0197  0.0529  0.0000  0.3728  0.0000  0.0963
  46.  C 4 (py)    -0.1439  0.0000 -0.1638  0.2891  0.0000  0.1200  0.0000 -0.1976
  47.  C 4 (pz)     0.0000  0.1279  0.0000  0.0000  0.3919  0.0000 -0.1645  0.0000
  48.  C 4 (s)      0.1412  0.0000  0.0470  0.0218  0.0000 -0.0187  0.0000 -0.1100
  49.  C 4 (px)     0.0789  0.0000 -0.0406  0.0389  0.0000  0.1903  0.0000  0.0430
  50.  C 4 (py)    -0.0485  0.0000 -0.0812  0.1574  0.0000  0.0639  0.0000 -0.1263
  51.  C 4 (pz)     0.0000  0.0458  0.0000  0.0000  0.2353  0.0000 -0.0844  0.0000
  52.  C 4 (d5)     0.0095  0.0000  0.0108 -0.0197  0.0000 -0.0149  0.0000  0.0081
  53.  C 4 (d2)     0.0000 -0.0073  0.0000  0.0000 -0.0110  0.0000  0.0013  0.0000
  54.  C 4 (d3)     0.0000 -0.0057  0.0000  0.0000 -0.0272  0.0000  0.0193  0.0000
  55.  C 4 (d4)    -0.0002  0.0000  0.0014  0.0112  0.0000  0.0164  0.0000 -0.0047
  56.  C 4 (d1)     0.0169  0.0000  0.0051 -0.0051  0.0000  0.0232  0.0000  0.0090
  57.  H 5 (s)      0.0839  0.0000 -0.0352  0.1066  0.0000  0.2546  0.0000 -0.0109
  58.  H 5 (s)      0.0277  0.0000 -0.0049  0.0702  0.0000  0.1956  0.0000  0.0287
  59.  H 6 (s)      0.0759  0.0593  0.0655 -0.1121  0.2041 -0.0728 -0.0983  0.0574
  60.  H 6 (s)      0.0353  0.0496  0.0366 -0.0844  0.1331 -0.0476 -0.1032  0.0586
  61.  H 7 (s)      0.0759 -0.0593  0.0655 -0.1121 -0.2041 -0.0728  0.0983  0.0574
  62.  H 7 (s)      0.0353 -0.0496  0.0366 -0.0844 -0.1331 -0.0476  0.1032  0.0586

           AO         17      18      19      20      21      22      23      24
      ------------ ------- ------- ------- ------- ------- ------- ------- -------
   1.  C 1 (s)      0.0000  0.0235 -0.0084  0.0000 -0.1504 -0.0014 -0.0076  0.0000
   2.  C 1 (s)      0.0000  0.0522  0.0438  0.0000  0.1673 -0.1144 -0.1298  0.0000
   3.  C 1 (px)     0.0000  0.0217 -0.1123  0.0000 -0.0684 -0.4715  0.1487  0.0000
   4.  C 1 (py)     0.0000  0.0058 -0.0610  0.0000 -0.2242  0.1116  0.1715  0.0000
   5.  C 1 (pz)     0.4816  0.0000  0.0000  0.1772  0.0000  0.0000  0.0000 -0.8191
   6.  C 1 (s)      0.0000 -0.6328 -0.0363  0.0000  2.7209 -0.5338  1.3516  0.0000
   7.  C 1 (px)     0.0000  0.0388 -0.0576  0.0000  0.1985 -1.7393  0.4462  0.0000
   8.  C 1 (py)     0.0000 -0.0356  0.0951  0.0000 -0.6397  0.8789  2.6953  0.0000
   9.  C 1 (pz)     0.5720  0.0000  0.0000  0.5555  0.0000  0.0000  0.0000  0.7239
  10.  C 1 (d5)     0.0000 -0.0051 -0.0049  0.0000  0.0205  0.0232 -0.0016  0.0000
  11.  C 1 (d2)     0.0092  0.0000  0.0000 -0.0135  0.0000  0.0000  0.0000  0.0205
  12.  C 1 (d3)    -0.0296  0.0000  0.0000 -0.0016  0.0000  0.0000  0.0000 -0.0007
  13.  C 1 (d4)     0.0000 -0.0018 -0.0301  0.0000 -0.0086 -0.0075 -0.0070  0.0000
  14.  C 1 (d1)     0.0000 -0.0051 -0.0036  0.0000  0.0009  0.0144  0.0194  0.0000
  15.  O 2 (s)      0.0000 -0.0192 -0.0044  0.0000  0.0337  0.0261  0.1007  0.0000
  16.  O 2 (s)      0.0000  0.0289  0.0155  0.0000 -0.0609 -0.0407 -0.1016  0.0000
  17.  O 2 (px)     0.0000  0.0191  0.0309  0.0000  0.0838  0.1926 -0.0843  0.0000
  18.  O 2 (py)     0.0000 -0.0394 -0.0495  0.0000  0.1157 -0.0012  0.0822  0.0000
  19.  O 2 (pz)    -0.3507  0.0000  0.0000 -0.1024  0.0000  0.0000  0.0000 -0.0455
  20.  O 2 (s)      0.0000  0.2768 -0.0172  0.0000 -0.4073 -0.4626 -2.4409  0.0000
  21.  O 2 (px)     0.0000 -0.0163  0.0651  0.0000  0.0613  0.5424  0.0282  0.0000
  22.  O 2 (py)     0.0000 -0.1549 -0.0420  0.0000  0.3313  0.1399  0.9866  0.0000
  23.  O 2 (pz)    -0.4571  0.0000  0.0000 -0.2282  0.0000  0.0000  0.0000 -0.0286
  24.  O 2 (d5)     0.0000 -0.0079  0.0006  0.0000  0.0212  0.0124  0.0327  0.0000
  25.  O 2 (d2)     0.0011  0.0000  0.0000 -0.0063  0.0000  0.0000  0.0000  0.0197
  26.  O 2 (d3)    -0.0054  0.0000  0.0000  0.0001  0.0000  0.0000  0.0000  0.0616
  27.  O 2 (d4)     0.0000 -0.0104  0.0057  0.0000  0.0100  0.0122  0.0491  0.0000
  28.  O 2 (d1)     0.0000  0.0021  0.0038  0.0000  0.0032  0.0031 -0.0235  0.0000
  29.  F 3 (s)      0.0000 -0.0172  0.0199  0.0000  0.0531  0.0638 -0.0243  0.0000
  30.  F 3 (s)      0.0000  0.0295 -0.0553  0.0000 -0.0871 -0.1147  0.0243  0.0000
  31.  F 3 (px)     0.0000  0.0419 -0.1066  0.0000 -0.2045 -0.1228  0.1128  0.0000
  32.  F 3 (py)     0.0000 -0.0009  0.0098  0.0000 -0.1063 -0.1184 -0.0780  0.0000
  33.  F 3 (pz)    -0.1550  0.0000  0.0000 -0.1042  0.0000  0.0000  0.0000 -0.0296
  34.  F 3 (s)      0.0000  0.1762 -0.0956  0.0000 -0.5954 -0.7208  0.4483  0.0000
  35.  F 3 (px)     0.0000  0.0986 -0.1159  0.0000 -0.4019 -0.2943  0.2561  0.0000
  36.  F 3 (py)     0.0000  0.0520 -0.0006  0.0000 -0.1580 -0.3334 -0.1965  0.0000
  37.  F 3 (pz)    -0.1782  0.0000  0.0000 -0.1168  0.0000  0.0000  0.0000 -0.0825
  38.  F 3 (d5)     0.0000 -0.0071 -0.0037  0.0000  0.0083  0.0109  0.0110  0.0000
  39.  F 3 (d2)     0.0124  0.0000  0.0000  0.0067  0.0000  0.0000  0.0000 -0.0341
  40.  F 3 (d3)     0.0040  0.0000  0.0000 -0.0013  0.0000  0.0000  0.0000 -0.0262
  41.  F 3 (d4)     0.0000  0.0048  0.0023  0.0000  0.0031 -0.0036  0.0042  0.0000
  42.  F 3 (d1)     0.0000  0.0064 -0.0039  0.0000  0.0016 -0.0091 -0.0166  0.0000
  43.  C 4 (s)      0.0000 -0.1404  0.0139  0.0000  0.0561 -0.0635 -0.0090  0.0000
  44.  C 4 (s)      0.0000  0.1005 -0.0143  0.0000 -0.0184 -0.0473 -0.0998  0.0000
  45.  C 4 (px)     0.0000  0.0500 -0.2410  0.0000  0.1687  0.1226  0.0176  0.0000
  46.  C 4 (py)     0.0000 -0.1097 -0.1917  0.0000 -0.1506 -0.0208 -0.1891  0.0000
  47.  C 4 (pz)     0.0332  0.0000  0.0000 -0.3434  0.0000  0.0000  0.0000 -0.4274
  48.  C 4 (s)      0.0000  2.4933 -0.2073  0.0000 -0.9758  1.8742  0.9963  0.0000
  49.  C 4 (px)     0.0000  0.1737 -1.1329  0.0000  1.2792 -0.7512 -0.9380  0.0000
  50.  C 4 (py)     0.0000 -0.4931 -0.9079  0.0000 -1.0109  1.3394 -0.3653  0.0000
  51.  C 4 (pz)     0.3248  0.0000  0.0000 -1.5212  0.0000  0.0000  0.0000  0.8262
  52.  C 4 (d5)     0.0000 -0.0053 -0.0126  0.0000 -0.0087  0.0164  0.0114  0.0000
  53.  C 4 (d2)    -0.0207  0.0000  0.0000 -0.0144  0.0000  0.0000  0.0000  0.0443
  54.  C 4 (d3)     0.0361  0.0000  0.0000 -0.0005  0.0000  0.0000  0.0000  0.0597
  55.  C 4 (d4)     0.0000 -0.0003  0.0188  0.0000  0.0137  0.0252 -0.0474  0.0000
  56.  C 4 (d1)     0.0000 -0.0029  0.0079  0.0000 -0.0278  0.0277 -0.0043  0.0000
  57.  H 5 (s)      0.0000 -0.0004  0.0885  0.0000 -0.0282  0.1030 -0.1246  0.0000
  58.  H 5 (s)      0.0000 -0.9184  1.9838  0.0000 -0.3947 -0.4836  0.5286  0.0000
  59.  H 6 (s)     -0.1038 -0.0085 -0.0392  0.0190 -0.0619  0.0318  0.0498 -0.2997
  60.  H 6 (s)     -0.5143 -1.2919 -0.7691  1.5712 -0.1834  0.0700 -0.4305 -0.1553
  61.  H 7 (s)      0.1038 -0.0085 -0.0392 -0.0190 -0.0619  0.0318  0.0498  0.2997
  62.  H 7 (s)      0.5143 -1.2919 -0.7691 -1.5712 -0.1834  0.0700 -0.4305  0.1553

           AO         25      26      27      28      29      30      31      32
      ------------ ------- ------- ------- ------- ------- ------- ------- -------
   1.  C 1 (s)     -0.0332  0.0585  0.0000  0.0138  0.0512  0.0192  0.0000  0.0311
   2.  C 1 (s)      0.5441  0.0312  0.0000 -0.3871 -0.1532 -1.4356  0.0000  0.4761
   3.  C 1 (px)    -0.8012 -0.1480  0.0000  0.2157  0.0256 -0.4589  0.0000  0.0595
   4.  C 1 (py)    -0.0849 -0.0198  0.0000  0.0445 -1.0438  0.1695  0.0000  0.1731
   5.  C 1 (pz)     0.0000  0.0000  0.6205  0.0000  0.0000  0.0000  0.0167  0.0000
   6.  C 1 (s)     -0.7569  0.5193  0.0000  0.2812 -1.2193  3.1271  0.0000  0.3785
   7.  C 1 (px)     1.3601 -0.2730  0.0000 -1.2195 -0.4612  1.4627  0.0000  0.0870
   8.  C 1 (py)    -0.1832  1.1552  0.0000 -1.3720  1.5071 -1.0786  0.0000  0.4118
   9.  C 1 (pz)     0.0000  0.0000 -1.3643  0.0000  0.0000  0.0000  0.0563  0.0000
  10.  C 1 (d5)     0.0500 -0.1135  0.0000 -0.0181 -0.0515 -0.0142  0.0000 -0.0781
  11.  C 1 (d2)     0.0000  0.0000  0.0194  0.0000  0.0000  0.0000  0.0818  0.0000
  12.  C 1 (d3)     0.0000  0.0000  0.0106  0.0000  0.0000  0.0000 -0.0677  0.0000
  13.  C 1 (d4)    -0.0260 -0.0340  0.0000  0.0234 -0.1568 -0.0870  0.0000 -0.2067
  14.  C 1 (d1)    -0.0842 -0.0962  0.0000  0.0211  0.0531 -0.0020  0.0000  0.0402
  15.  O 2 (s)     -0.0022  0.0156  0.0000 -0.0255 -0.0447 -0.0141  0.0000  0.0479
  16.  O 2 (s)     -0.0353  0.0259  0.0000  0.0311  0.1737  0.0831  0.0000 -0.1665
  17.  O 2 (px)    -0.0560  0.1896  0.0000  0.0228 -0.0164 -0.2331  0.0000 -0.0315
  18.  O 2 (py)     0.0929 -0.1422  0.0000  0.0125 -0.2791 -0.1486  0.0000 -0.4837
  19.  O 2 (pz)     0.0000  0.0000  0.0930  0.0000  0.0000  0.0000  0.1928  0.0000
  20.  O 2 (s)      0.3025 -0.8697  0.0000  0.8527 -0.2716 -0.2164  0.0000 -0.6119
  21.  O 2 (px)    -0.1926  0.1698  0.0000  0.1483  0.0229 -0.0671  0.0000  0.0564
  22.  O 2 (py)    -0.1305  0.3079  0.0000 -0.3145 -0.4810  0.1137  0.0000  1.1714
  23.  O 2 (pz)     0.0000  0.0000  0.1944  0.0000  0.0000  0.0000 -0.1482  0.0000
  24.  O 2 (d5)    -0.0214  0.0204  0.0000 -0.0096  0.0746  0.0736  0.0000  0.0290
  25.  O 2 (d2)     0.0000  0.0000  0.0173  0.0000  0.0000  0.0000 -0.0056  0.0000
  26.  O 2 (d3)     0.0000  0.0000 -0.0509  0.0000  0.0000  0.0000  0.0193  0.0000
  27.  O 2 (d4)    -0.0046  0.0546  0.0000 -0.0012  0.1356  0.0667  0.0000  0.0238
  28.  O 2 (d1)     0.0670  0.0318  0.0000 -0.0263 -0.0491  0.0148  0.0000 -0.0235
  29.  F 3 (s)     -0.0156 -0.0027  0.0000  0.0139 -0.0033 -0.0004  0.0000 -0.0186
  30.  F 3 (s)     -0.0365  0.0052  0.0000  0.0719 -0.0242  0.0088  0.0000  0.1029
  31.  F 3 (px)    -0.2340  0.0574  0.0000  0.1749 -0.0542 -0.0302  0.0000 -0.0242
  32.  F 3 (py)    -0.1427 -0.1426  0.0000 -0.0486 -0.0387  0.1710  0.0000  0.0233
  33.  F 3 (pz)     0.0000  0.0000  0.0995  0.0000  0.0000  0.0000 -0.0186  0.0000
  34.  F 3 (s)      0.6799  0.0371  0.0000 -0.7741  0.2462 -0.0991  0.0000  0.0448
  35.  F 3 (px)     0.1208  0.0671  0.0000 -0.2414  0.1237 -0.1028  0.0000  0.1081
  36.  F 3 (py)     0.1439 -0.1329  0.0000 -0.0420 -0.0820  0.0222  0.0000 -0.0180
  37.  F 3 (pz)     0.0000  0.0000  0.1270  0.0000  0.0000  0.0000  0.0252  0.0000
  38.  F 3 (d5)    -0.0685 -0.0158  0.0000  0.0515 -0.0352  0.0366  0.0000 -0.0066
  39.  F 3 (d2)     0.0000  0.0000  0.0316  0.0000  0.0000  0.0000 -0.0029  0.0000
  40.  F 3 (d3)     0.0000  0.0000 -0.0053  0.0000  0.0000  0.0000 -0.0265  0.0000
  41.  F 3 (d4)     0.0551 -0.0190  0.0000 -0.0337  0.0761 -0.0045  0.0000  0.0484
  42.  F 3 (d1)     0.1111  0.0123  0.0000 -0.0147 -0.0376 -0.0298  0.0000 -0.0116
  43.  C 4 (s)     -0.0009 -0.0381  0.0000 -0.0065  0.0116 -0.0386  0.0000  0.0092
  44.  C 4 (s)      0.0604  0.3248  0.0000  0.0443 -0.1310 -0.0503  0.0000  0.1881
  45.  C 4 (px)    -0.2115 -0.5859  0.0000 -0.6019  0.1207 -0.0694  0.0000 -0.4205
  46.  C 4 (py)    -0.1165  0.7599  0.0000 -0.4538 -0.1862  0.0270  0.0000 -0.4778
  47.  C 4 (pz)     0.0000  0.0000 -0.6300  0.0000  0.0000  0.0000  0.8705  0.0000
  48.  C 4 (s)     -0.5754  0.4172  0.0000 -0.1219  1.0294 -1.0381  0.0000 -0.4115
  49.  C 4 (px)     0.3802  0.3317  0.0000  1.7605 -0.5192  0.9429  0.0000  0.5821
  50.  C 4 (py)     0.2142 -0.8421  0.0000  1.3893  0.6698 -1.0826  0.0000  0.7479
  51.  C 4 (pz)     0.0000  0.0000  1.6762  0.0000  0.0000  0.0000 -1.2383  0.0000
  52.  C 4 (d5)     0.0557 -0.0152  0.0000  0.1035 -0.0407  0.0307  0.0000 -0.0847
  53.  C 4 (d2)     0.0000  0.0000  0.0540  0.0000  0.0000  0.0000  0.0064  0.0000
  54.  C 4 (d3)     0.0000  0.0000  0.0835  0.0000  0.0000  0.0000  0.2201  0.0000
  55.  C 4 (d4)    -0.0065  0.0009  0.0000 -0.0093  0.0515  0.0436  0.0000  0.1395
  56.  C 4 (d1)     0.0072 -0.0085  0.0000 -0.0580 -0.0573  0.0881  0.0000  0.0457
  57.  H 5 (s)     -0.1770 -0.0871  0.0000 -0.4531  0.0362 -0.1137  0.0000  0.5609
  58.  H 5 (s)     -0.1028  0.0306  0.0000 -0.6099 -0.1495 -0.3719  0.0000 -1.0063
  59.  H 6 (s)      0.1442 -0.1218 -0.3187  0.1812  0.0064 -0.3080 -0.6688 -0.2219
  60.  H 6 (s)      0.1045 -0.0882 -0.2622  0.2718  0.2257 -0.2032  1.3021  0.6743
  61.  H 7 (s)      0.1442 -0.1218  0.3187  0.1812  0.0064 -0.3080  0.6688 -0.2219
  62.  H 7 (s)      0.1045 -0.0882  0.2622  0.2718  0.2257 -0.2032 -1.3021  0.6743

           AO         33      34      35      36      37      38      39      40
      ------------ ------- ------- ------- ------- ------- ------- ------- -------
   1.  C 1 (s)      0.0373  0.0019  0.0000 -0.0002  0.0427 -0.0062  0.0000  0.0000
   2.  C 1 (s)      0.3452 -0.1725  0.0000  0.1658  0.6867 -0.1752  0.0000  0.0000
   3.  C 1 (px)     0.0044 -0.0495  0.0000  0.1544  0.0619  0.3107  0.0000  0.0000
   4.  C 1 (py)     0.0280  0.0365  0.0000 -0.0955 -0.0104  0.1006  0.0000  0.0000
   5.  C 1 (pz)     0.0000  0.0000  0.1547  0.0000  0.0000  0.0000  0.0834 -0.1112
   6.  C 1 (s)      0.2385  0.8289  0.0000 -0.0909 -3.9048 -0.6383  0.0000  0.0000
   7.  C 1 (px)    -0.3009  0.1491  0.0000 -1.0251 -1.7142 -0.3270  0.0000  0.0000
   8.  C 1 (py)     0.0421 -0.2059  0.0000  0.2490  1.3255  0.0989  0.0000  0.0000
   9.  C 1 (pz)     0.0000  0.0000 -0.6091  0.0000  0.0000  0.0000 -0.5638  0.3700
  10.  C 1 (d5)    -0.1103  0.0003  0.0000 -0.0407 -0.1131  0.1591  0.0000  0.0000
  11.  C 1 (d2)     0.0000  0.0000  0.0109  0.0000  0.0000  0.0000 -0.3580 -0.1812
  12.  C 1 (d3)     0.0000  0.0000 -0.0921  0.0000  0.0000  0.0000  0.0213  0.5361
  13.  C 1 (d4)    -0.1040 -0.0839  0.0000  0.0160  0.0537 -0.1743  0.0000  0.0000
  14.  C 1 (d1)     0.0223  0.0866  0.0000 -0.1277 -0.0238 -0.1958  0.0000  0.0000
  15.  O 2 (s)      0.0194  0.0084  0.0000  0.0000  0.0091  0.0019  0.0000  0.0000
  16.  O 2 (s)     -0.0557 -0.0272  0.0000  0.0127 -0.2076 -0.0522  0.0000  0.0000
  17.  O 2 (px)    -0.1615 -0.0380  0.0000 -0.8268 -0.1676 -0.0786  0.0000  0.0000
  18.  O 2 (py)    -0.4998 -0.2747  0.0000  0.1298  0.0522  0.0389  0.0000  0.0000
  19.  O 2 (pz)     0.0000  0.0000 -0.9276  0.0000  0.0000  0.0000 -0.1106 -0.0680
  20.  O 2 (s)     -0.2321 -0.1460  0.0000 -0.0650  0.4744  0.1565  0.0000  0.0000
  21.  O 2 (px)     0.2927 -0.0013  0.0000  1.3361  0.5566  0.2688  0.0000  0.0000
  22.  O 2 (py)     0.8389  0.4557  0.0000 -0.1937 -0.2722 -0.0893  0.0000  0.0000
  23.  O 2 (pz)     0.0000  0.0000  1.2482  0.0000  0.0000  0.0000  0.3016 -0.2609
  24.  O 2 (d5)     0.0097  0.0330  0.0000  0.0005 -0.1637 -0.0096  0.0000  0.0000
  25.  O 2 (d2)     0.0000  0.0000  0.0134  0.0000  0.0000  0.0000 -0.1354 -0.1188
  26.  O 2 (d3)     0.0000  0.0000  0.0515  0.0000  0.0000  0.0000  0.0698 -0.3006
  27.  O 2 (d4)     0.0396  0.0138  0.0000  0.0213  0.0367  0.0085  0.0000  0.0000
  28.  O 2 (d1)     0.0042 -0.0258  0.0000  0.0900  0.0352  0.0993  0.0000  0.0000
  29.  F 3 (s)      0.0150  0.0058  0.0000  0.0169  0.0201 -0.0605  0.0000  0.0000
  30.  F 3 (s)     -0.0471 -0.0021  0.0000 -0.0897 -0.2416  0.4480  0.0000  0.0000
  31.  F 3 (px)     0.0195 -0.0112  0.0000  0.1661 -0.0319 -0.6252  0.0000  0.0000
  32.  F 3 (py)     0.1031  0.0610  0.0000  0.0018 -0.0017 -0.3407  0.0000  0.0000
  33.  F 3 (pz)     0.0000  0.0000  0.1673  0.0000  0.0000  0.0000 -0.7778  0.2855
  34.  F 3 (s)     -0.1749 -0.1285  0.0000 -0.2446  0.3357 -0.2186  0.0000  0.0000
  35.  F 3 (px)    -0.1425 -0.0909  0.0000 -0.1752  0.1714  1.0348  0.0000  0.0000
  36.  F 3 (py)    -0.0951 -0.0225  0.0000 -0.1115 -0.1060  0.5199  0.0000  0.0000
  37.  F 3 (pz)     0.0000  0.0000 -0.0855  0.0000  0.0000  0.0000  0.9113 -0.3836
  38.  F 3 (d5)     0.0124  0.0154  0.0000  0.0504 -0.1354  0.0551  0.0000  0.0000
  39.  F 3 (d2)     0.0000  0.0000 -0.0039  0.0000  0.0000  0.0000  0.0828 -0.0660
  40.  F 3 (d3)     0.0000  0.0000  0.0227  0.0000  0.0000  0.0000  0.0748  0.1401
  41.  F 3 (d4)     0.0308  0.0420  0.0000  0.0086 -0.0465 -0.0574  0.0000  0.0000
  42.  F 3 (d1)    -0.0352 -0.0400  0.0000 -0.0053 -0.0662 -0.0877  0.0000  0.0000
  43.  C 4 (s)     -0.0186  0.0513  0.0000  0.0365 -0.1129  0.0001  0.0000  0.0000
  44.  C 4 (s)      0.5864 -1.3397  0.0000  0.3345 -1.9100 -0.1025  0.0000  0.0000
  45.  C 4 (px)     0.5619 -0.1231  0.0000 -0.1159 -0.0144  0.0838  0.0000  0.0000
  46.  C 4 (py)     0.1871  0.4469  0.0000  0.0524 -0.1130  0.0282  0.0000  0.0000
  47.  C 4 (pz)     0.0000  0.0000  0.1313  0.0000  0.0000  0.0000  0.0249  0.1718
  48.  C 4 (s)     -1.0640  2.1990  0.0000 -0.2575  6.3640  0.4579  0.0000  0.0000
  49.  C 4 (px)    -0.5740  0.4216  0.0000  0.0820 -0.7753 -0.1086  0.0000  0.0000
  50.  C 4 (py)    -0.0559 -0.6902  0.0000  0.2193  1.1956  0.1934  0.0000  0.0000
  51.  C 4 (pz)     0.0000  0.0000 -0.0711  0.0000  0.0000  0.0000  0.4439 -0.2106
  52.  C 4 (d5)     0.1148  0.1237  0.0000 -0.0644 -0.0937  0.0572  0.0000  0.0000
  53.  C 4 (d2)     0.0000  0.0000  0.0519  0.0000  0.0000  0.0000  0.2560  0.4714
  54.  C 4 (d3)     0.0000  0.0000  0.0484  0.0000  0.0000  0.0000 -0.0810 -0.0914
  55.  C 4 (d4)    -0.0261  0.0113  0.0000 -0.0207  0.0034  0.1163  0.0000  0.0000
  56.  C 4 (d1)    -0.1244  0.0631  0.0000  0.0039 -0.0751 -0.0664  0.0000  0.0000
  57.  H 5 (s)     -0.7694  0.2290  0.0000  0.2965 -0.4492 -0.1060  0.0000  0.0000
  58.  H 5 (s)      1.2548 -0.6261  0.0000 -0.1863 -0.8433  0.0372  0.0000  0.0000
  59.  H 6 (s)      0.0858  0.5863 -0.1246  0.1712 -0.5034  0.0308 -0.1135 -0.1110
  60.  H 6 (s)      0.0161 -1.1264  0.2661  0.1508 -0.4665 -0.0239 -0.1424  0.1777
  61.  H 7 (s)      0.0858  0.5863  0.1246  0.1712 -0.5034  0.0308  0.1135  0.1110
  62.  H 7 (s)      0.0161 -1.1264 -0.2661  0.1508 -0.4665 -0.0239  0.1424 -0.1777

           AO         41      42      43      44      45      46      47      48
      ------------ ------- ------- ------- ------- ------- ------- ------- -------
   1.  C 1 (s)     -0.0015  0.0000 -0.0050 -0.0378  0.0175  0.0000  0.0195  0.0000
   2.  C 1 (s)     -0.0574  0.0000 -0.3170 -0.4321  0.5733  0.0000  0.1075  0.0000
   3.  C 1 (px)    -0.0974  0.0000 -0.0666 -0.0866  0.0804  0.0000  0.0190  0.0000
   4.  C 1 (py)     0.1291  0.0000 -0.0439  0.0072 -0.0435  0.0000 -0.1493  0.0000
   5.  C 1 (pz)     0.0000  0.0492  0.0000  0.0000  0.0000 -0.0023  0.0000  0.0184
   6.  C 1 (s)      0.8855  0.0000  1.6041 -0.0833 -1.7244  0.0000 -2.2209  0.0000
   7.  C 1 (px)     0.5990  0.0000  0.4009  0.6848 -1.5040  0.0000 -0.1292  0.0000
   8.  C 1 (py)    -0.1283  0.0000 -0.2654 -2.5194  1.4868  0.0000 -1.8292  0.0000
   9.  C 1 (pz)     0.0000 -0.2030  0.0000  0.0000  0.0000  0.1949  0.0000 -0.0339
  10.  C 1 (d5)    -0.0005  0.0000 -0.2587 -0.1472  0.0799  0.0000  0.2856  0.0000
  11.  C 1 (d2)     0.0000  0.4918  0.0000  0.0000  0.0000  0.0680  0.0000 -0.0112
  12.  C 1 (d3)     0.0000  0.2560  0.0000  0.0000  0.0000 -0.0847  0.0000 -0.0008
  13.  C 1 (d4)    -0.1362  0.0000  0.1793  0.2836 -0.0663  0.0000  0.2336  0.0000
  14.  C 1 (d1)     0.1306  0.0000 -0.0517  0.0500  0.4646  0.0000 -0.1339  0.0000
  15.  O 2 (s)     -0.0148  0.0000 -0.0261  0.0176  0.0085  0.0000 -0.0065  0.0000
  16.  O 2 (s)      0.4831  0.0000  0.6232 -1.2205  0.0679  0.0000 -0.9093  0.0000
  17.  O 2 (px)    -0.0265  0.0000  0.0396 -0.0380 -0.2299  0.0000  0.0705  0.0000
  18.  O 2 (py)    -0.0081  0.0000 -0.2746  0.0246  0.1732  0.0000 -0.2070  0.0000
  19.  O 2 (pz)     0.0000 -0.1585  0.0000  0.0000  0.0000  0.0424  0.0000  0.0467
  20.  O 2 (s)     -0.8894  0.0000 -0.9859  3.2264 -0.5625  0.0000  3.1648  0.0000
  21.  O 2 (px)    -0.0784  0.0000 -0.1037 -0.2752  0.5559  0.0000 -0.2245  0.0000
  22.  O 2 (py)     0.3950  0.0000  0.5549 -0.9087 -0.0714  0.0000 -0.8473  0.0000
  23.  O 2 (pz)     0.0000  0.1043  0.0000  0.0000  0.0000 -0.0794  0.0000 -0.0480
  24.  O 2 (d5)    -0.0385  0.0000 -0.3184 -0.3040  0.1059  0.0000  0.5080  0.0000
  25.  O 2 (d2)     0.0000  0.1701  0.0000  0.0000  0.0000  0.7704  0.0000  0.4303
  26.  O 2 (d3)     0.0000 -0.2057  0.0000  0.0000  0.0000 -0.0148  0.0000  0.0904
  27.  O 2 (d4)    -0.0417  0.0000  0.1242  0.3017 -0.1791  0.0000 -0.0728  0.0000
  28.  O 2 (d1)     0.0018  0.0000 -0.0087 -0.3052 -0.3373  0.0000  0.2410  0.0000
  29.  F 3 (s)      0.0003  0.0000  0.0270  0.0245  0.0213  0.0000  0.0045  0.0000
  30.  F 3 (s)      0.0085  0.0000 -0.2218 -0.2367 -0.1621  0.0000 -0.1528  0.0000
  31.  F 3 (px)     0.3542  0.0000 -0.2828 -0.0831 -0.3551  0.0000  0.0694  0.0000
  32.  F 3 (py)    -0.7132  0.0000 -0.0743 -0.3036  0.1012  0.0000 -0.1379  0.0000
  33.  F 3 (pz)     0.0000 -0.3889  0.0000  0.0000  0.0000 -0.0100  0.0000 -0.0358
  34.  F 3 (s)      0.0224  0.0000  0.0196  0.0902  0.0274  0.0000  0.2321  0.0000
  35.  F 3 (px)    -0.5143  0.0000  0.1893 -0.1071  0.4450  0.0000 -0.0445  0.0000
  36.  F 3 (py)     0.9627  0.0000  0.0289  0.5834 -0.3654  0.0000  0.4110  0.0000
  37.  F 3 (pz)     0.0000  0.6312  0.0000  0.0000  0.0000 -0.0241  0.0000  0.0467
  38.  F 3 (d5)     0.0103  0.0000  0.2308  0.0077  0.2257  0.0000  0.1887  0.0000
  39.  F 3 (d2)     0.0000 -0.4399  0.0000  0.0000  0.0000  0.3468  0.0000 -0.2411
  40.  F 3 (d3)     0.0000 -0.1820  0.0000  0.0000  0.0000 -0.2465  0.0000  0.8623
  41.  F 3 (d4)     0.2152  0.0000 -0.1055  0.0028  0.2745  0.0000  0.0697  0.0000
  42.  F 3 (d1)    -0.1609  0.0000  0.0800 -0.0445 -0.0847  0.0000 -0.0723  0.0000
  43.  C 4 (s)     -0.0134  0.0000  0.0340  0.0315 -0.0616  0.0000 -0.0170  0.0000
  44.  C 4 (s)     -0.1254  0.0000  0.1000  0.4758  0.0519  0.0000 -0.2494  0.0000
  45.  C 4 (px)     0.1449  0.0000  0.0220  0.0163 -0.2827  0.0000 -0.0191  0.0000
  46.  C 4 (py)     0.0396  0.0000 -0.1456  0.0371  0.2385  0.0000 -0.1075  0.0000
  47.  C 4 (pz)     0.0000 -0.0200  0.0000  0.0000  0.0000  0.0850  0.0000 -0.0165
  48.  C 4 (s)     -0.2267  0.0000 -1.0777 -2.3338  2.1698  0.0000  0.2933  0.0000
  49.  C 4 (px)    -0.2527  0.0000  0.4040  0.7897 -0.2441  0.0000  0.3493  0.0000
  50.  C 4 (py)    -0.4794  0.0000 -0.1455 -0.3892  0.6782  0.0000  0.4744  0.0000
  51.  C 4 (pz)     0.0000 -0.0409  0.0000  0.0000  0.0000 -0.3211  0.0000  0.0078
  52.  C 4 (d5)    -0.0123  0.0000 -0.3241  0.0429 -0.0143  0.0000 -0.1522  0.0000
  53.  C 4 (d2)     0.0000 -0.0260  0.0000  0.0000  0.0000  0.4394  0.0000 -0.0543
  54.  C 4 (d3)     0.0000  0.0574  0.0000  0.0000  0.0000 -0.1712  0.0000  0.0787
  55.  C 4 (d4)    -0.0389  0.0000 -0.5348  0.1404 -0.0972  0.0000 -0.4686  0.0000
  56.  C 4 (d1)     0.0748  0.0000  0.1253  0.0376  0.3281  0.0000  0.0929  0.0000
  57.  H 5 (s)     -0.0381  0.0000  0.1279  0.0593 -0.3388  0.0000 -0.0524  0.0000
  58.  H 5 (s)      0.2522  0.0000 -0.0903  0.0491 -0.1644  0.0000 -0.2366  0.0000
  59.  H 6 (s)     -0.1098  0.0632  0.1228  0.1419 -0.1909  0.0026 -0.0776  0.0092
  60.  H 6 (s)     -0.1260  0.0114  0.0445  0.1275  0.0764  0.1265  0.0653  0.0305
  61.  H 7 (s)     -0.1098 -0.0632  0.1228  0.1419 -0.1909 -0.0026 -0.0776 -0.0092
  62.  H 7 (s)     -0.1260 -0.0114  0.0445  0.1275  0.0764 -0.1265  0.0653 -0.0305

           AO         49      50      51      52      53      54      55      56
      ------------ ------- ------- ------- ------- ------- ------- ------- -------
   1.  C 1 (s)      0.0278 -0.0140  0.0000  0.0117  0.0217  0.0000  0.0137  0.0731
   2.  C 1 (s)      0.2030  0.0247  0.0000  0.2308  0.5239  0.0000  0.0200  0.2535
   3.  C 1 (px)     0.0904  0.1294  0.0000 -0.2232  0.0161  0.0000 -0.1001 -0.4247
   4.  C 1 (py)    -0.1343  0.1736  0.0000  0.1146 -0.3073  0.0000  0.0938  0.2248
   5.  C 1 (pz)     0.0000  0.0000  0.2105  0.0000  0.0000 -0.1772  0.0000  0.0000
   6.  C 1 (s)     -1.1004  0.1069  0.0000 -0.7644 -0.7271  0.0000 -0.1131 -2.1077
   7.  C 1 (px)    -0.6028 -0.3652  0.0000  1.1131  0.7111  0.0000 -0.0427 -1.5030
   8.  C 1 (py)     0.2708  0.2018  0.0000  1.0868  0.4337  0.0000  0.9235  0.5830
   9.  C 1 (pz)     0.0000  0.0000  0.5574  0.0000  0.0000 -0.0535  0.0000  0.0000
  10.  C 1 (d5)     0.2054 -0.0014  0.0000 -0.1108  0.6174  0.0000 -0.1505  0.6188
  11.  C 1 (d2)     0.0000  0.0000  0.2697  0.0000  0.0000  0.2477  0.0000  0.0000
  12.  C 1 (d3)     0.0000  0.0000 -0.2076  0.0000  0.0000 -0.0138  0.0000  0.0000
  13.  C 1 (d4)     0.1749 -0.1856  0.0000 -0.3204 -0.1146  0.0000  0.1736 -0.0920
  14.  C 1 (d1)    -0.0308  0.0307  0.0000 -0.1650 -0.0939  0.0000  0.0610  0.0767
  15.  O 2 (s)     -0.0122  0.0209  0.0000  0.0164 -0.0113  0.0000  0.0022 -0.0052
  16.  O 2 (s)      0.0837 -0.2523  0.0000 -0.0280  0.1623  0.0000  0.2102  0.0044
  17.  O 2 (px)    -0.0542  0.1399  0.0000  0.1823  0.0259  0.0000 -0.0411 -0.1093
  18.  O 2 (py)    -0.1802  0.2452  0.0000  0.2303 -0.1786  0.0000  0.0056 -0.0664
  19.  O 2 (pz)     0.0000  0.0000  0.1629  0.0000  0.0000 -0.0297  0.0000  0.0000
  20.  O 2 (s)      0.2198 -0.0108  0.0000 -0.6865 -0.1010  0.0000 -0.8021  0.2952
  21.  O 2 (px)     0.1592 -0.0970  0.0000 -0.3927 -0.1871  0.0000  0.1152  0.5373
  22.  O 2 (py)    -0.0552 -0.1240  0.0000  0.0561  0.0546  0.0000  0.1688 -0.1486
  23.  O 2 (pz)     0.0000  0.0000 -0.3467  0.0000  0.0000  0.0967  0.0000  0.0000
  24.  O 2 (d5)    -0.1059 -0.3248  0.0000  0.0335 -0.3717  0.0000  0.0532 -0.1121
  25.  O 2 (d2)     0.0000  0.0000 -0.2358  0.0000  0.0000 -0.1073  0.0000  0.0000
  26.  O 2 (d3)     0.0000  0.0000  0.5361  0.0000  0.0000 -0.2133  0.0000  0.0000
  27.  O 2 (d4)     0.1179  0.3323  0.0000 -0.0838  0.2256  0.0000 -0.0321  0.0491
  28.  O 2 (d1)    -0.0205  0.3915  0.0000 -0.0205  0.0430  0.0000 -0.0517 -0.5424
  29.  F 3 (s)     -0.0264 -0.0271  0.0000  0.0276  0.0036  0.0000  0.0131 -0.0206
  30.  F 3 (s)      0.4373  0.4132  0.0000 -0.8996 -0.4714  0.0000 -0.1455  0.4012
  31.  F 3 (px)     0.1504  0.0701  0.0000  0.0196  0.1323  0.0000 -0.1470  0.1127
  32.  F 3 (py)    -0.0554  0.2839  0.0000  0.0456  0.0713  0.0000  0.0066  0.0881
  33.  F 3 (pz)     0.0000  0.0000  0.1264  0.0000  0.0000 -0.1058  0.0000  0.0000
  34.  F 3 (s)     -0.5345 -0.5352  0.0000  1.8335  1.1476  0.0000  0.2121 -0.6257
  35.  F 3 (px)    -0.2154 -0.0680  0.0000  0.3719  0.1581  0.0000  0.1785 -0.1097
  36.  F 3 (py)     0.0435 -0.4238  0.0000  0.0648  0.0682  0.0000 -0.1220 -0.2201
  37.  F 3 (pz)     0.0000  0.0000 -0.2458  0.0000  0.0000  0.2149  0.0000  0.0000
  38.  F 3 (d5)     0.5505  0.0786  0.0000  0.6206  0.0447  0.0000  0.0820 -0.0460
  39.  F 3 (d2)     0.0000  0.0000 -0.3757  0.0000  0.0000  0.4457  0.0000  0.0000
  40.  F 3 (d3)     0.0000  0.0000 -0.0096  0.0000  0.0000  0.1434  0.0000  0.0000
  41.  F 3 (d4)     0.1204  0.6243  0.0000  0.0111 -0.3348  0.0000  0.2402  0.0256
  42.  F 3 (d1)     0.6284 -0.2334  0.0000 -0.1903 -0.2295  0.0000 -0.1668 -0.0953
  43.  C 4 (s)     -0.0395  0.0004  0.0000  0.0014 -0.0061  0.0000 -0.0065 -0.0589
  44.  C 4 (s)     -0.5558  0.0866  0.0000 -0.1097  0.1891  0.0000 -0.0409 -0.3053
  45.  C 4 (px)     0.1065 -0.0467  0.0000  0.0473 -0.0916  0.0000 -0.1554 -0.1989
  46.  C 4 (py)     0.0230  0.0242  0.0000  0.0139  0.0219  0.0000 -0.0608  0.2186
  47.  C 4 (pz)     0.0000  0.0000 -0.0312  0.0000  0.0000 -0.1411  0.0000  0.0000
  48.  C 4 (s)      1.8315  0.0756  0.0000  0.2877 -0.1551  0.0000  0.5481  2.3388
  49.  C 4 (px)    -0.6502  0.1044  0.0000 -0.4800 -0.0872  0.0000 -0.7107 -0.6086
  50.  C 4 (py)     0.0645  0.1899  0.0000 -0.0660 -0.3600  0.0000 -0.2694  1.0706
  51.  C 4 (pz)     0.0000  0.0000 -0.5901  0.0000  0.0000 -0.3830  0.0000  0.0000
  52.  C 4 (d5)     0.1783 -0.1068  0.0000 -0.1768  0.4074  0.0000  0.7015 -0.5556
  53.  C 4 (d2)     0.0000  0.0000  0.7020  0.0000  0.0000  0.2238  0.0000  0.0000
  54.  C 4 (d3)     0.0000  0.0000  0.0399  0.0000  0.0000  0.9374  0.0000  0.0000
  55.  C 4 (d4)     0.1577 -0.1114  0.0000  0.3372 -0.1297  0.0000 -0.3773 -0.1835
  56.  C 4 (d1)    -0.0207  0.0532  0.0000 -0.2538  0.2660  0.0000 -0.6543 -0.6860
  57.  H 5 (s)     -0.0635 -0.0593  0.0000 -0.0163  0.1225  0.0000  0.8102 -0.0075
  58.  H 5 (s)      0.0898 -0.0523  0.0000  0.0696  0.0299  0.0000 -0.0218 -0.1867
  59.  H 6 (s)     -0.2128  0.0379  0.2332  0.1161 -0.2241  0.6087 -0.3422  0.0818
  60.  H 6 (s)     -0.2533  0.0618  0.1213 -0.0388  0.0570 -0.0753 -0.0082 -0.0331
  61.  H 7 (s)     -0.2128  0.0379 -0.2332  0.1161 -0.2241 -0.6087 -0.3422  0.0818
  62.  H 7 (s)     -0.2533  0.0618 -0.1213 -0.0388  0.0570  0.0753 -0.0082 -0.0331

           AO         57      58      59      60      61      62
      ------------ ------- ------- ------- ------- ------- -------
   1.  C 1 (s)      0.0000  0.0000 -0.0813  0.0195 -0.0473  0.0208
   2.  C 1 (s)      0.0000  0.0000 -0.2668 -1.0630 -1.1279 -0.5198
   3.  C 1 (px)     0.0000  0.0000 -0.2782  0.5461 -0.3688  0.5757
   4.  C 1 (py)     0.0000  0.0000 -0.4199 -0.0754 -1.3303 -0.0096
   5.  C 1 (pz)    -0.1312  0.1944  0.0000  0.0000  0.0000  0.0000
   6.  C 1 (s)      0.0000  0.0000  0.2275 -1.4681 -1.3221 -0.9108
   7.  C 1 (px)     0.0000  0.0000 -0.3861  0.8519 -0.4214 -0.1002
   8.  C 1 (py)     0.0000  0.0000 -1.2643 -0.6177 -0.7858  0.5103
   9.  C 1 (pz)    -0.2761  0.0957  0.0000  0.0000  0.0000  0.0000
  10.  C 1 (d5)     0.0000  0.0000 -0.3865  0.5035  0.3191  0.3043
  11.  C 1 (d2)     0.7731  0.2925  0.0000  0.0000  0.0000  0.0000
  12.  C 1 (d3)    -0.2352  1.0053  0.0000  0.0000  0.0000  0.0000
  13.  C 1 (d4)     0.0000  0.0000 -0.6083 -0.4710  0.9421 -0.1844
  14.  C 1 (d1)     0.0000  0.0000 -0.1671  0.3538 -0.0033 -1.2852
  15.  O 2 (s)      0.0000  0.0000  0.0082 -0.0166 -0.0634 -0.0129
  16.  O 2 (s)      0.0000  0.0000 -0.8854 -0.6172 -0.4622  0.0587
  17.  O 2 (px)     0.0000  0.0000  0.0301  0.0022 -0.0550  0.0608
  18.  O 2 (py)     0.0000  0.0000  0.3635  0.0812 -0.4299 -0.1231
  19.  O 2 (pz)    -0.0240 -0.0546  0.0000  0.0000  0.0000  0.0000
  20.  O 2 (s)      0.0000  0.0000  1.7931  1.7672  2.7788  0.1047
  21.  O 2 (px)     0.0000  0.0000  0.1532 -0.4810 -0.1220  0.3093
  22.  O 2 (py)     0.0000  0.0000 -0.8525 -0.8273 -1.6030 -0.2158
  23.  O 2 (pz)     0.1963 -0.3676  0.0000  0.0000  0.0000  0.0000
  24.  O 2 (d5)     0.0000  0.0000 -0.1849 -0.2981 -0.6564 -0.1107
  25.  O 2 (d2)    -0.3386  0.0410  0.0000  0.0000  0.0000  0.0000
  26.  O 2 (d3)    -0.2648  0.9231  0.0000  0.0000  0.0000  0.0000
  27.  O 2 (d4)     0.0000  0.0000 -0.3498 -0.2610 -1.1488 -0.3301
  28.  O 2 (d1)     0.0000  0.0000 -0.2949  0.4793  0.2885 -0.6313
  29.  F 3 (s)      0.0000  0.0000 -0.0198  0.0020  0.0035 -0.0210
  30.  F 3 (s)      0.0000  0.0000  0.6631 -0.9002  0.2705 -0.6016
  31.  F 3 (px)     0.0000  0.0000  0.2284 -0.1332  0.0103 -0.0555
  32.  F 3 (py)     0.0000  0.0000  0.0184 -0.1535  0.0359  0.0469
  33.  F 3 (pz)    -0.1157 -0.0410  0.0000  0.0000  0.0000  0.0000
  34.  F 3 (s)      0.0000  0.0000 -1.2337  1.8771 -0.6026  1.4188
  35.  F 3 (px)     0.0000  0.0000 -0.6370  0.8199 -0.2883  1.0162
  36.  F 3 (py)     0.0000  0.0000  0.0375  0.7597 -0.2095  0.1595
  37.  F 3 (pz)     0.3220  0.1438  0.0000  0.0000  0.0000  0.0000
  38.  F 3 (d5)     0.0000  0.0000  0.1750 -0.3453  0.1400 -0.3984
  39.  F 3 (d2)     0.5109  0.4061  0.0000  0.0000  0.0000  0.0000
  40.  F 3 (d3)     0.3888  0.0409  0.0000  0.0000  0.0000  0.0000
  41.  F 3 (d4)     0.0000  0.0000 -0.3405  0.1083  0.0348  0.7573
  42.  F 3 (d1)     0.0000  0.0000  0.1113  0.7476 -0.3391  0.3201
  43.  C 4 (s)      0.0000  0.0000  0.0148 -0.0145 -0.0101  0.0164
  44.  C 4 (s)      0.0000  0.0000 -0.0903  0.1720  0.0146 -0.1580
  45.  C 4 (px)     0.0000  0.0000  0.1653 -0.1210 -0.0661  0.1143
  46.  C 4 (py)     0.0000  0.0000 -0.0623  0.1388  0.0285 -0.1584
  47.  C 4 (pz)     0.0159  0.0410  0.0000  0.0000  0.0000  0.0000
  48.  C 4 (s)      0.0000  0.0000 -0.4220 -0.4312  0.1793  0.4971
  49.  C 4 (px)     0.0000  0.0000  0.3793 -0.0288  0.0579  0.0050
  50.  C 4 (py)     0.0000  0.0000 -0.0711 -0.0105  0.2029  0.1503
  51.  C 4 (pz)     0.1573  0.0631  0.0000  0.0000  0.0000  0.0000
  52.  C 4 (d5)     0.0000  0.0000  0.2119 -0.1187 -0.0775  0.1465
  53.  C 4 (d2)     0.1040 -0.2035  0.0000  0.0000  0.0000  0.0000
  54.  C 4 (d3)    -0.5894  0.0051  0.0000  0.0000  0.0000  0.0000
  55.  C 4 (d4)     0.0000  0.0000 -0.5211 -0.1517  0.1725 -0.0076
  56.  C 4 (d1)     0.0000  0.0000  0.1717 -0.3427 -0.0603  0.3304
  57.  H 5 (s)      0.0000  0.0000  0.1208  0.1364 -0.0573 -0.0796
  58.  H 5 (s)      0.0000  0.0000 -0.1105 -0.0074 -0.0260 -0.1282
  59.  H 6 (s)     -0.2828 -0.0449 -0.1018  0.0279  0.0311 -0.0534
  60.  H 6 (s)      0.0697 -0.0221  0.0073  0.0687  0.0102  0.0463
  61.  H 7 (s)      0.2828  0.0449 -0.1018  0.0279  0.0311 -0.0534
  62.  H 7 (s)     -0.0697  0.0221  0.0073  0.0687  0.0102  0.0463


 AO overlap matrix:

           AO          1       2       3       4       5       6       7       8
      ------------ ------- ------- ------- ------- ------- ------- ------- -------
   1.  C 1 (s)      1.0000  0.2191  0.0000  0.0000  0.0000  0.1843  0.0000  0.0000
   2.  C 1 (s)      0.2191  1.0000  0.0000  0.0000  0.0000  0.8123  0.0000  0.0000
   3.  C 1 (px)     0.0000  0.0000  1.0000  0.0000  0.0000  0.0000  0.5698  0.0000
   4.  C 1 (py)     0.0000  0.0000  0.0000  1.0000  0.0000  0.0000  0.0000  0.5698
   5.  C 1 (pz)     0.0000  0.0000  0.0000  0.0000  1.0000  0.0000  0.0000  0.0000
   6.  C 1 (s)      0.1843  0.8123  0.0000  0.0000  0.0000  1.0000  0.0000  0.0000
   7.  C 1 (px)     0.0000  0.0000  0.5698  0.0000  0.0000  0.0000  1.0000  0.0000
   8.  C 1 (py)     0.0000  0.0000  0.0000  0.5698  0.0000  0.0000  0.0000  1.0000
   9.  C 1 (pz)     0.0000  0.0000  0.0000  0.0000  0.5698  0.0000  0.0000  0.0000
  10.  C 1 (d5)     0.0000  0.0000  0.0000  0.0000  0.0000  0.0000  0.0000  0.0000
  11.  C 1 (d2)     0.0000  0.0000  0.0000  0.0000  0.0000  0.0000  0.0000  0.0000
  12.  C 1 (d3)     0.0000  0.0000  0.0000  0.0000  0.0000  0.0000  0.0000  0.0000
  13.  C 1 (d4)     0.0000  0.0000  0.0000  0.0000  0.0000  0.0000  0.0000  0.0000
  14.  C 1 (d1)     0.0000  0.0000  0.0000  0.0000  0.0000  0.0000  0.0000  0.0000
  15.  O 2 (s)      0.0000  0.0225  0.0049  0.0461  0.0000  0.0513  0.0099  0.0930
  16.  O 2 (s)      0.0090  0.1797  0.0299  0.2815  0.0000  0.2937  0.0491  0.4613
  17.  O 2 (px)    -0.0023 -0.0222  0.0902 -0.0397  0.0000 -0.0156  0.1562 -0.0251
  18.  O 2 (py)    -0.0213 -0.2090 -0.0397 -0.2788  0.0000 -0.1468 -0.0251 -0.0767
  19.  O 2 (pz)     0.0000  0.0000  0.0000  0.0000  0.0944  0.0000  0.0000  0.0000
  20.  O 2 (s)      0.0688  0.3820  0.0360  0.3382  0.0000  0.5639  0.0682  0.6416
  21.  O 2 (px)    -0.0162 -0.0617  0.2830 -0.0584  0.0000 -0.0539  0.5422 -0.0614
  22.  O 2 (py)    -0.1519 -0.5799 -0.0584 -0.2596  0.0000 -0.5072 -0.0614 -0.0283
  23.  O 2 (pz)     0.0000  0.0000  0.0000  0.0000  0.2892  0.0000  0.0000  0.0000
  24.  O 2 (d5)    -0.0510 -0.1407 -0.0138 -0.1301  0.0000 -0.0464  0.0030  0.0285
  25.  O 2 (d2)     0.0000  0.0000  0.0000  0.0000 -0.0279  0.0000  0.0000  0.0000
  26.  O 2 (d3)     0.0000  0.0000  0.0000  0.0000 -0.2625  0.0000  0.0000  0.0000
  27.  O 2 (d4)    -0.0863 -0.2383 -0.0786 -0.2143  0.0000 -0.0786 -0.0311  0.0520
  28.  O 2 (d1)     0.0186  0.0513 -0.2516  0.0747  0.0000  0.0169 -0.1694  0.0075
  29.  F 3 (s)      0.0000  0.0082 -0.0177 -0.0081  0.0000  0.0330 -0.0628 -0.0287
  30.  F 3 (s)      0.0008  0.0790 -0.1318 -0.0603  0.0000  0.1937 -0.3301 -0.1510
  31.  F 3 (px)     0.0020  0.0897 -0.1254 -0.0737  0.0000  0.0897 -0.0624 -0.0711
  32.  F 3 (py)     0.0009  0.0410 -0.0737  0.0019  0.0000  0.0411 -0.0711  0.0604
  33.  F 3 (pz)     0.0000  0.0000  0.0000  0.0000  0.0356  0.0000  0.0000  0.0000
  34.  F 3 (s)      0.0332  0.2446 -0.2626 -0.1202  0.0000  0.4188 -0.5498 -0.2516
  35.  F 3 (px)     0.0865  0.4030 -0.2783 -0.2127  0.0000  0.3774 -0.1046 -0.2267
  36.  F 3 (py)     0.0396  0.1844 -0.2127  0.0893  0.0000  0.1727 -0.2267  0.2871
  37.  F 3 (pz)     0.0000  0.0000  0.0000  0.0000  0.1867  0.0000  0.0000  0.0000
  38.  F 3 (d5)    -0.0230 -0.1171  0.1225  0.0560  0.0000 -0.0488 -0.0058 -0.0026
  39.  F 3 (d2)     0.0000  0.0000  0.0000  0.0000  0.1570  0.0000  0.0000  0.0000
  40.  F 3 (d3)     0.0000  0.0000  0.0000  0.0000  0.0718  0.0000  0.0000  0.0000
  41.  F 3 (d4)     0.0260  0.1326 -0.0843 -0.1823  0.0000  0.0552  0.0566 -0.1065
  42.  F 3 (d1)     0.0301  0.1534 -0.2075  0.0292  0.0000  0.0639 -0.0357  0.0980
  43.  C 4 (s)      0.0000  0.0094  0.0160 -0.0162  0.0000  0.0504  0.0792 -0.0802
  44.  C 4 (s)      0.0094  0.1383  0.1458 -0.1476  0.0000  0.2972  0.3631 -0.3677
  45.  C 4 (px)    -0.0160 -0.1458 -0.0977  0.1740  0.0000 -0.1623 -0.0071  0.2089
  46.  C 4 (py)     0.0162  0.1476  0.1740 -0.1020  0.0000  0.1643  0.2089 -0.0123
  47.  C 4 (pz)     0.0000  0.0000  0.0000  0.0000  0.0741  0.0000  0.0000  0.0000
  48.  C 4 (s)      0.0504  0.2972  0.1623 -0.1643  0.0000  0.5107  0.4160 -0.4212
  49.  C 4 (px)    -0.0792 -0.3631 -0.0071  0.2089  0.0000 -0.4160  0.1718  0.3431
  50.  C 4 (py)     0.0802  0.3677  0.2089 -0.0123  0.0000  0.4212  0.3431  0.1633
  51.  C 4 (pz)     0.0000  0.0000  0.0000  0.0000  0.1992  0.0000  0.0000  0.0000
  52.  C 4 (d5)    -0.0115 -0.0948 -0.0855  0.0866  0.0000 -0.0486 -0.0065  0.0066
  53.  C 4 (d2)     0.0000  0.0000  0.0000  0.0000 -0.0848  0.0000  0.0000  0.0000
  54.  C 4 (d3)     0.0000  0.0000  0.0000  0.0000  0.0858  0.0000  0.0000  0.0000
  55.  C 4 (d4)    -0.0002 -0.0020 -0.0877 -0.0829  0.0000 -0.0010 -0.1035 -0.1019
  56.  C 4 (d1)    -0.0199 -0.1643 -0.1470  0.1510  0.0000 -0.0842 -0.0099  0.0126
  57.  H 5 (s)      0.0000  0.0082  0.0168 -0.0050  0.0000  0.0753  0.1911 -0.0567
  58.  H 5 (s)      0.0145  0.1115  0.1102 -0.0327  0.0000  0.2650  0.4093 -0.1213
  59.  H 6 (s)      0.0000  0.0082  0.0077 -0.0141  0.0073  0.0754  0.0870 -0.1594
  60.  H 6 (s)      0.0146  0.1117  0.0501 -0.0919  0.0478  0.2653  0.1862 -0.3411
  61.  H 7 (s)      0.0000  0.0082  0.0077 -0.0141 -0.0073  0.0754  0.0870 -0.1594
  62.  H 7 (s)      0.0146  0.1117  0.0501 -0.0919 -0.0478  0.2653  0.1862 -0.3411

           AO          9      10      11      12      13      14      15      16
      ------------ ------- ------- ------- ------- ------- ------- ------- -------
   1.  C 1 (s)      0.0000  0.0000  0.0000  0.0000  0.0000  0.0000  0.0000  0.0090
   2.  C 1 (s)      0.0000  0.0000  0.0000  0.0000  0.0000  0.0000  0.0225  0.1797
   3.  C 1 (px)     0.0000  0.0000  0.0000  0.0000  0.0000  0.0000  0.0049  0.0299
   4.  C 1 (py)     0.0000  0.0000  0.0000  0.0000  0.0000  0.0000  0.0461  0.2815
   5.  C 1 (pz)     0.5698  0.0000  0.0000  0.0000  0.0000  0.0000  0.0000  0.0000
   6.  C 1 (s)      0.0000  0.0000  0.0000  0.0000  0.0000  0.0000  0.0513  0.2937
   7.  C 1 (px)     0.0000  0.0000  0.0000  0.0000  0.0000  0.0000  0.0099  0.0491
   8.  C 1 (py)     0.0000  0.0000  0.0000  0.0000  0.0000  0.0000  0.0930  0.4613
   9.  C 1 (pz)     1.0000  0.0000  0.0000  0.0000  0.0000  0.0000  0.0000  0.0000
  10.  C 1 (d5)     0.0000  1.0000  0.0000  0.0000  0.0000  0.0000 -0.0323 -0.1536
  11.  C 1 (d2)     0.0000  0.0000  1.0000  0.0000  0.0000  0.0000  0.0000  0.0000
  12.  C 1 (d3)     0.0000  0.0000  0.0000  1.0000  0.0000  0.0000  0.0000  0.0000
  13.  C 1 (d4)     0.0000  0.0000  0.0000  0.0000  1.0000  0.0000 -0.0546 -0.2602
  14.  C 1 (d1)     0.0000  0.0000  0.0000  0.0000  0.0000  1.0000  0.0118  0.0560
  15.  O 2 (s)      0.0000 -0.0323  0.0000  0.0000 -0.0546  0.0118  1.0000  0.2337
  16.  O 2 (s)      0.0000 -0.1536  0.0000  0.0000 -0.2602  0.0560  0.2337  1.0000
  17.  O 2 (px)     0.0000  0.0160  0.0000  0.0000  0.0657  0.1740  0.0000  0.0000
  18.  O 2 (py)     0.0000  0.1502  0.0000  0.0000  0.2502 -0.0738  0.0000  0.0000
  19.  O 2 (pz)     0.1588  0.0000  0.0196  0.1840  0.0000  0.0000  0.0000  0.0000
  20.  O 2 (s)      0.0000 -0.0867  0.0000  0.0000 -0.1469  0.0316  0.1673  0.7636
  21.  O 2 (px)     0.0000  0.0005  0.0000  0.0000  0.0543  0.2482  0.0000  0.0000
  22.  O 2 (py)     0.0000  0.0050  0.0000  0.0000  0.0027 -0.0282  0.0000  0.0000
  23.  O 2 (pz)     0.5487  0.0000  0.0270  0.2541  0.0000  0.0000  0.0000  0.0000
  24.  O 2 (d5)     0.0000  0.1332  0.0000  0.0000  0.0072 -0.0016  0.0000  0.0000
  25.  O 2 (d2)    -0.0183  0.0000  0.1230 -0.0556  0.0000  0.0000  0.0000  0.0000
  26.  O 2 (d3)    -0.1721  0.0000 -0.0556 -0.3934  0.0000  0.0000  0.0000  0.0000
  27.  O 2 (d4)     0.0000  0.0072  0.0000  0.0000  0.1178 -0.1113  0.0000  0.0000
  28.  O 2 (d1)     0.0000 -0.0016  0.0000  0.0000 -0.1113 -0.3754  0.0000  0.0000
  29.  F 3 (s)      0.0000 -0.0109  0.0000  0.0000  0.0124  0.0143  0.0000  0.0000
  30.  F 3 (s)      0.0000 -0.0865  0.0000  0.0000  0.0979  0.1133  0.0000  0.0000
  31.  F 3 (px)     0.0000 -0.0945  0.0000  0.0000  0.0839  0.1438  0.0000  0.0001
  32.  F 3 (py)     0.0000 -0.0432  0.0000  0.0000  0.0995  0.0130  0.0000  0.0001
  33.  F 3 (pz)     0.0929  0.0000 -0.0668 -0.0305  0.0000  0.0000  0.0000  0.0000
  34.  F 3 (s)      0.0000 -0.1004  0.0000  0.0000  0.1137  0.1316  0.0005  0.0082
  35.  F 3 (px)     0.0000 -0.0771  0.0000  0.0000  0.0165  0.1623  0.0014  0.0187
  36.  F 3 (py)     0.0000 -0.0353  0.0000  0.0000  0.1947 -0.0875  0.0017  0.0240
  37.  F 3 (pz)     0.3908  0.0000 -0.2045 -0.0936  0.0000  0.0000  0.0000  0.0000
  38.  F 3 (d5)     0.0000  0.1104  0.0000  0.0000 -0.0469 -0.0543  0.0000 -0.0020
  39.  F 3 (d2)     0.1446  0.0000 -0.2362 -0.1396  0.0000  0.0000  0.0000  0.0000
  40.  F 3 (d3)     0.0662  0.0000 -0.1396  0.0052  0.0000  0.0000  0.0000  0.0000
  41.  F 3 (d4)     0.0000 -0.0469  0.0000  0.0000 -0.0892  0.2440  0.0000 -0.0009
  42.  F 3 (d1)     0.0000 -0.0543  0.0000  0.0000  0.2440 -0.0176  0.0000  0.0034
  43.  C 4 (s)      0.0000 -0.0115  0.0000  0.0000 -0.0002 -0.0199  0.0000  0.0000
  44.  C 4 (s)      0.0000 -0.0948  0.0000  0.0000 -0.0020 -0.1643  0.0000  0.0007
  45.  C 4 (px)     0.0000  0.0855  0.0000  0.0000  0.0877  0.1470  0.0000 -0.0007
  46.  C 4 (py)     0.0000 -0.0866  0.0000  0.0000  0.0829 -0.1510  0.0000  0.0018
  47.  C 4 (pz)     0.1992  0.0000  0.0848 -0.0858  0.0000  0.0000  0.0000  0.0000
  48.  C 4 (s)      0.0000 -0.0486  0.0000  0.0000 -0.0010 -0.0842  0.0036  0.0293
  49.  C 4 (px)     0.0000  0.0065  0.0000  0.0000  0.1035  0.0099 -0.0051 -0.0358
  50.  C 4 (py)     0.0000 -0.0066  0.0000  0.0000  0.1019 -0.0126  0.0124  0.0874
  51.  C 4 (pz)     0.5107  0.0000  0.1020 -0.1033  0.0000  0.0000  0.0000  0.0000
  52.  C 4 (d5)     0.0000  0.0934  0.0000  0.0000  0.0011  0.0902  0.0000 -0.0005
  53.  C 4 (d2)    -0.1020  0.0000 -0.0887  0.1317  0.0000  0.0000  0.0000  0.0000
  54.  C 4 (d3)     0.1033  0.0000  0.1317 -0.0920  0.0000  0.0000  0.0000  0.0000
  55.  C 4 (d4)     0.0000  0.0011  0.0000  0.0000 -0.2220  0.0052  0.0000 -0.0007
  56.  C 4 (d1)     0.0000  0.0902  0.0000  0.0000  0.0052  0.1975  0.0000 -0.0006
  57.  H 5 (s)      0.0000 -0.0078  0.0000  0.0000  0.0113 -0.0074  0.0000  0.0001
  58.  H 5 (s)      0.0000 -0.0312  0.0000  0.0000  0.0452 -0.0294  0.0024  0.0202
  59.  H 6 (s)      0.0829 -0.0038  0.0049 -0.0090 -0.0061 -0.0094  0.0000  0.0000
  60.  H 6 (s)      0.1774 -0.0150  0.0196 -0.0358 -0.0242 -0.0376  0.0005  0.0049
  61.  H 7 (s)     -0.0829 -0.0038 -0.0049  0.0090 -0.0061 -0.0094  0.0000  0.0000
  62.  H 7 (s)     -0.1774 -0.0150 -0.0196  0.0358 -0.0242 -0.0376  0.0005  0.0049

           AO         17      18      19      20      21      22      23      24
      ------------ ------- ------- ------- ------- ------- ------- ------- -------
   1.  C 1 (s)     -0.0023 -0.0213  0.0000  0.0688 -0.0162 -0.1519  0.0000 -0.0510
   2.  C 1 (s)     -0.0222 -0.2090  0.0000  0.3820 -0.0617 -0.5799  0.0000 -0.1407
   3.  C 1 (px)     0.0902 -0.0397  0.0000  0.0360  0.2830 -0.0584  0.0000 -0.0138
   4.  C 1 (py)    -0.0397 -0.2788  0.0000  0.3382 -0.0584 -0.2596  0.0000 -0.1301
   5.  C 1 (pz)     0.0000  0.0000  0.0944  0.0000  0.0000  0.0000  0.2892  0.0000
   6.  C 1 (s)     -0.0156 -0.1468  0.0000  0.5639 -0.0539 -0.5072  0.0000 -0.0464
   7.  C 1 (px)     0.1562 -0.0251  0.0000  0.0682  0.5422 -0.0614  0.0000  0.0030
   8.  C 1 (py)    -0.0251 -0.0767  0.0000  0.6416 -0.0614 -0.0283  0.0000  0.0285
   9.  C 1 (pz)     0.0000  0.0000  0.1588  0.0000  0.0000  0.0000  0.5487  0.0000
  10.  C 1 (d5)     0.0160  0.1502  0.0000 -0.0867  0.0005  0.0050  0.0000  0.1332
  11.  C 1 (d2)     0.0000  0.0000  0.0196  0.0000  0.0000  0.0000  0.0270  0.0000
  12.  C 1 (d3)     0.0000  0.0000  0.1840  0.0000  0.0000  0.0000  0.2541  0.0000
  13.  C 1 (d4)     0.0657  0.2502  0.0000 -0.1469  0.0543  0.0027  0.0000  0.0072
  14.  C 1 (d1)     0.1740 -0.0738  0.0000  0.0316  0.2482 -0.0282  0.0000 -0.0016
  15.  O 2 (s)      0.0000  0.0000  0.0000  0.1673  0.0000  0.0000  0.0000  0.0000
  16.  O 2 (s)      0.0000  0.0000  0.0000  0.7636  0.0000  0.0000  0.0000  0.0000
  17.  O 2 (px)     1.0000  0.0000  0.0000  0.0000  0.5015  0.0000  0.0000  0.0000
  18.  O 2 (py)     0.0000  1.0000  0.0000  0.0000  0.0000  0.5015  0.0000  0.0000
  19.  O 2 (pz)     0.0000  0.0000  1.0000  0.0000  0.0000  0.0000  0.5015  0.0000
  20.  O 2 (s)      0.0000  0.0000  0.0000  1.0000  0.0000  0.0000  0.0000  0.0000
  21.  O 2 (px)     0.5015  0.0000  0.0000  0.0000  1.0000  0.0000  0.0000  0.0000
  22.  O 2 (py)     0.0000  0.5015  0.0000  0.0000  0.0000  1.0000  0.0000  0.0000
  23.  O 2 (pz)     0.0000  0.0000  0.5015  0.0000  0.0000  0.0000  1.0000  0.0000
  24.  O 2 (d5)     0.0000  0.0000  0.0000  0.0000  0.0000  0.0000  0.0000  1.0000
  25.  O 2 (d2)     0.0000  0.0000  0.0000  0.0000  0.0000  0.0000  0.0000  0.0000
  26.  O 2 (d3)     0.0000  0.0000  0.0000  0.0000  0.0000  0.0000  0.0000  0.0000
  27.  O 2 (d4)     0.0000  0.0000  0.0000  0.0000  0.0000  0.0000  0.0000  0.0000
  28.  O 2 (d1)     0.0000  0.0000  0.0000  0.0000  0.0000  0.0000  0.0000  0.0000
  29.  F 3 (s)      0.0000  0.0000  0.0000  0.0013 -0.0034 -0.0044  0.0000  0.0000
  30.  F 3 (s)     -0.0001 -0.0001  0.0000  0.0128 -0.0286 -0.0367  0.0000 -0.0009
  31.  F 3 (px)    -0.0001 -0.0002  0.0000  0.0093 -0.0142 -0.0270  0.0000 -0.0012
  32.  F 3 (py)    -0.0002 -0.0002  0.0000  0.0119 -0.0270 -0.0278  0.0000 -0.0016
  33.  F 3 (pz)     0.0000  0.0000  0.0000  0.0000  0.0000  0.0000  0.0069  0.0000
  34.  F 3 (s)     -0.0078 -0.0100  0.0000  0.0639 -0.0981 -0.1259  0.0000 -0.0172
  35.  F 3 (px)    -0.0131 -0.0232  0.0000  0.0851 -0.0674 -0.1678  0.0000 -0.0284
  36.  F 3 (py)    -0.0232 -0.0248  0.0000  0.1093 -0.1678 -0.1522  0.0000 -0.0365
  37.  F 3 (pz)     0.0000  0.0000  0.0050  0.0000  0.0000  0.0000  0.0633  0.0000
  38.  F 3 (d5)     0.0027  0.0034  0.0000 -0.0234  0.0340  0.0437  0.0000  0.0107
  39.  F 3 (d2)     0.0000  0.0000  0.0007  0.0000  0.0000  0.0000  0.0228  0.0000
  40.  F 3 (d3)     0.0000  0.0000  0.0008  0.0000  0.0000  0.0000  0.0292  0.0000
  41.  F 3 (d4)     0.0020  0.0008  0.0000 -0.0099  0.0428 -0.0035  0.0000  0.0042
  42.  F 3 (d1)    -0.0043 -0.0059  0.0000  0.0393 -0.0499 -0.0789  0.0000 -0.0166
  43.  C 4 (s)      0.0000  0.0000  0.0000  0.0012  0.0020 -0.0048  0.0000  0.0000
  44.  C 4 (s)      0.0005 -0.0013  0.0000  0.0222  0.0266 -0.0650  0.0000 -0.0037
  45.  C 4 (px)    -0.0003  0.0014  0.0000 -0.0134 -0.0017  0.0403  0.0000  0.0032
  46.  C 4 (py)     0.0014 -0.0032  0.0000  0.0328  0.0403 -0.0837  0.0000 -0.0078
  47.  C 4 (pz)     0.0000  0.0000  0.0003  0.0000  0.0000  0.0000  0.0148  0.0000
  48.  C 4 (s)      0.0109 -0.0266  0.0000  0.1065  0.0742 -0.1812  0.0000 -0.0205
  49.  C 4 (px)     0.0017  0.0329  0.0000 -0.0939  0.0382  0.1598  0.0000  0.0160
  50.  C 4 (py)     0.0329 -0.0652  0.0000  0.2293  0.1598 -0.2866  0.0000 -0.0392
  51.  C 4 (pz)     0.0000  0.0000  0.0152  0.0000  0.0000  0.0000  0.1036  0.0000
  52.  C 4 (d5)    -0.0005  0.0012  0.0000 -0.0140 -0.0146  0.0356  0.0000  0.0040
  53.  C 4 (d2)     0.0000  0.0000 -0.0001  0.0000  0.0000  0.0000 -0.0077  0.0000
  54.  C 4 (d3)     0.0000  0.0000  0.0002  0.0000  0.0000  0.0000  0.0188  0.0000
  55.  C 4 (d4)    -0.0008  0.0014  0.0000 -0.0173 -0.0312  0.0385  0.0000  0.0047
  56.  C 4 (d1)    -0.0004  0.0015  0.0000 -0.0171 -0.0043  0.0487  0.0000  0.0047
  57.  H 5 (s)      0.0001 -0.0001  0.0000  0.0070  0.0187 -0.0175  0.0000 -0.0006
  58.  H 5 (s)      0.0149 -0.0140  0.0000  0.0801  0.1123 -0.1056  0.0000 -0.0153
  59.  H 6 (s)      0.0000  0.0000  0.0000  0.0010  0.0011 -0.0039  0.0012  0.0000
  60.  H 6 (s)      0.0015 -0.0053  0.0016  0.0284  0.0166 -0.0602  0.0184 -0.0042
  61.  H 7 (s)      0.0000  0.0000  0.0000  0.0010  0.0011 -0.0039 -0.0012  0.0000
  62.  H 7 (s)      0.0015 -0.0053 -0.0016  0.0284  0.0166 -0.0602 -0.0184 -0.0042

           AO         25      26      27      28      29      30      31      32
      ------------ ------- ------- ------- ------- ------- ------- ------- -------
   1.  C 1 (s)      0.0000  0.0000 -0.0863  0.0186  0.0000  0.0008  0.0020  0.0009
   2.  C 1 (s)      0.0000  0.0000 -0.2383  0.0513  0.0082  0.0790  0.0897  0.0410
   3.  C 1 (px)     0.0000  0.0000 -0.0786 -0.2516 -0.0177 -0.1318 -0.1254 -0.0737
   4.  C 1 (py)     0.0000  0.0000 -0.2143  0.0747 -0.0081 -0.0603 -0.0737  0.0019
   5.  C 1 (pz)    -0.0279 -0.2625  0.0000  0.0000  0.0000  0.0000  0.0000  0.0000
   6.  C 1 (s)      0.0000  0.0000 -0.0786  0.0169  0.0330  0.1937  0.0897  0.0411
   7.  C 1 (px)     0.0000  0.0000 -0.0311 -0.1694 -0.0628 -0.3301 -0.0624 -0.0711
   8.  C 1 (py)     0.0000  0.0000  0.0520  0.0075 -0.0287 -0.1510 -0.0711  0.0604
   9.  C 1 (pz)    -0.0183 -0.1721  0.0000  0.0000  0.0000  0.0000  0.0000  0.0000
  10.  C 1 (d5)     0.0000  0.0000  0.0072 -0.0016 -0.0109 -0.0865 -0.0945 -0.0432
  11.  C 1 (d2)     0.1230 -0.0556  0.0000  0.0000  0.0000  0.0000  0.0000  0.0000
  12.  C 1 (d3)    -0.0556 -0.3934  0.0000  0.0000  0.0000  0.0000  0.0000  0.0000
  13.  C 1 (d4)     0.0000  0.0000  0.1178 -0.1113  0.0124  0.0979  0.0839  0.0995
  14.  C 1 (d1)     0.0000  0.0000 -0.1113 -0.3754  0.0143  0.1133  0.1438  0.0130
  15.  O 2 (s)      0.0000  0.0000  0.0000  0.0000  0.0000  0.0000  0.0000  0.0000
  16.  O 2 (s)      0.0000  0.0000  0.0000  0.0000  0.0000  0.0000  0.0001  0.0001
  17.  O 2 (px)     0.0000  0.0000  0.0000  0.0000  0.0000 -0.0001 -0.0001 -0.0002
  18.  O 2 (py)     0.0000  0.0000  0.0000  0.0000  0.0000 -0.0001 -0.0002 -0.0002
  19.  O 2 (pz)     0.0000  0.0000  0.0000  0.0000  0.0000  0.0000  0.0000  0.0000
  20.  O 2 (s)      0.0000  0.0000  0.0000  0.0000  0.0013  0.0128  0.0093  0.0119
  21.  O 2 (px)     0.0000  0.0000  0.0000  0.0000 -0.0034 -0.0286 -0.0142 -0.0270
  22.  O 2 (py)     0.0000  0.0000  0.0000  0.0000 -0.0044 -0.0367 -0.0270 -0.0278
  23.  O 2 (pz)     0.0000  0.0000  0.0000  0.0000  0.0000  0.0000  0.0000  0.0000
  24.  O 2 (d5)     0.0000  0.0000  0.0000  0.0000  0.0000 -0.0009 -0.0012 -0.0016
  25.  O 2 (d2)     1.0000  0.0000  0.0000  0.0000  0.0000  0.0000  0.0000  0.0000
[...]
               ( 51.41%)   0.7170* C  1 s( 42.19%)p 1.36( 57.59%)d 0.01(  0.22%)
                                         0.0000  0.6488 -0.0319  0.5482 -0.0011
                                        -0.5247  0.0064  0.0000  0.0000 -0.0440
                                         0.0000  0.0000 -0.0046 -0.0149
               ( 48.59%)  -0.6971* C  4 s( 25.88%)p 2.86( 73.92%)d 0.01(  0.20%)
                                         0.0000  0.5084  0.0159 -0.6019 -0.0214
                                         0.6135  0.0140  0.0000  0.0000 -0.0402
                                         0.0000  0.0000  0.0014 -0.0200
  21. (0.00416) BD*( 1) C  4- H  5
               ( 37.35%)   0.6112* C  4 s( 25.43%)p 2.93( 74.42%)d 0.01(  0.15%)
                                         0.0000 -0.5043  0.0035 -0.7861 -0.0009
                                        -0.3550  0.0156  0.0000  0.0000 -0.0291
                                         0.0000  0.0000 -0.0165  0.0205
               ( 62.65%)  -0.7915* H  5 s(100.00%)
                                        -1.0000 -0.0001
  22. (0.00421) BD*( 1) C  4- H  6
               ( 37.38%)   0.6114* C  4 s( 24.36%)p 3.10( 75.48%)d 0.01(  0.16%)
                                         0.0000 -0.4935  0.0045  0.0917 -0.0148
                                         0.4972  0.0040 -0.7063  0.0099 -0.0063
                                         0.0131  0.0288  0.0087 -0.0210
               ( 62.62%)  -0.7913* H  6 s(100.00%)
                                        -1.0000 -0.0001
  23. (0.00421) BD*( 1) C  4- H  7
               ( 37.38%)   0.6114* C  4 s( 24.36%)p 3.10( 75.48%)d 0.01(  0.16%)
                                         0.0000 -0.4935  0.0045  0.0917 -0.0148
                                         0.4972  0.0040  0.7063 -0.0099 -0.0063
                                        -0.0131 -0.0288  0.0087 -0.0210
               ( 62.62%)  -0.7913* H  7 s(100.00%)
                                        -1.0000 -0.0001
  24. (0.01945) RY ( 1) C  1            s( 12.41%)p 6.93( 86.04%)d 0.12(  1.55%)
                                         0.0000 -0.0446  0.3495 -0.0104  0.1276
                                        -0.0774  0.9154  0.0000  0.0000  0.0240
                                         0.0000  0.0000 -0.1221  0.0001
  25. (0.01088) RY ( 2) C  1            s(  4.41%)p 9.67( 42.65%)d12.00( 52.94%)
                                         0.0000 -0.0172  0.2093  0.0795 -0.6479
                                        -0.0068  0.0182  0.0000  0.0000  0.6941
                                         0.0000  0.0000  0.1988 -0.0899
  26. (0.00497) RY ( 3) C  1            s( 12.04%)p 3.47( 41.80%)d 3.84( 46.16%)
                                         0.0000 -0.0146  0.3466 -0.0311 -0.6416
                                        -0.0198 -0.0712  0.0000  0.0000 -0.6010
                                         0.0000  0.0000 -0.3094  0.0689
  27. (0.00309) RY ( 4) C  1            s(  0.00%)p 1.00( 11.69%)d 7.55( 88.31%)
                                         0.0000  0.0000  0.0000  0.0000  0.0000
                                         0.0000  0.0000 -0.0431  0.3392  0.0000
                                         0.6005  0.7229  0.0000  0.0000
  28. (0.00180) RY ( 5) C  1            s(  0.00%)p 1.00( 61.68%)d 0.62( 38.32%)
                                         0.0000  0.0000  0.0000  0.0000  0.0000
                                         0.0000  0.0000  0.0768  0.7816  0.0000
                                         0.2472 -0.5676  0.0000  0.0000
  29. (0.00147) RY ( 6) C  1            s(  4.49%)p 0.12(  0.53%)d21.14( 94.98%)
                                         0.0000  0.0072  0.2118  0.0204 -0.0134
                                         0.0404  0.0554  0.0000  0.0000 -0.3462
                                         0.0000  0.0000  0.9098 -0.0459
  30. (0.00015) RY ( 7) C  1            s( 66.53%)p 0.45( 30.06%)d 0.05(  3.41%)
                                         0.0000  0.0155  0.8155  0.0111  0.3883
                                        -0.0355 -0.3852  0.0000  0.0000  0.1520
                                         0.0000  0.0000 -0.1027 -0.0220
  31. (0.00001) RY ( 8) C  1            s(  0.19%)p 0.04(  0.01%)d99.99( 99.80%)
  32. (0.00000) RY ( 9) C  1            s(  0.00%)p 1.00( 27.17%)d 2.68( 72.83%)
  33. (0.00211) RY ( 1) O  2            s(  0.10%)p99.99( 97.22%)d27.07(  2.69%)
                                         0.0000  0.0036  0.0313  0.0124 -0.9762
                                        -0.0076  0.1378  0.0000  0.0000  0.0948
                                         0.0000  0.0000  0.1204  0.0581
  34. (0.00026) RY ( 2) O  2            s(  0.00%)p 1.00( 95.85%)d 0.04(  4.15%)
                                         0.0000  0.0000  0.0000  0.0000  0.0000
                                         0.0000  0.0000 -0.0047  0.9790  0.0000
                                         0.2037 -0.0036  0.0000  0.0000
  35. (0.00009) RY ( 3) O  2            s( 54.01%)p 0.04(  2.21%)d 0.81( 43.79%)
  36. (0.00006) RY ( 4) O  2            s( 16.41%)p 1.99( 32.61%)d 3.11( 50.98%)
  37. (0.00002) RY ( 5) O  2            s(  6.59%)p 0.19(  1.23%)d13.98( 92.17%)
  38. (0.00001) RY ( 6) O  2            s( 15.14%)p 4.23( 64.06%)d 1.37( 20.80%)
  39. (0.00001) RY ( 7) O  2            s(  0.00%)p 1.00(  1.79%)d54.71( 98.21%)
  40. (0.00000) RY ( 8) O  2            s(  7.79%)p 0.45(  3.48%)d11.39( 88.73%)
  41. (0.00000) RY ( 9) O  2            s(  0.00%)p 1.00(  2.82%)d34.46( 97.18%)
  42. (0.00118) RY ( 1) F  3            s( 39.03%)p 1.54( 60.21%)d 0.02(  0.76%)
                                         0.0000  0.0038  0.6247  0.0000 -0.6617
                                         0.0003  0.4054  0.0000  0.0000  0.0138
                                         0.0000  0.0000  0.0064 -0.0856
  43. (0.00048) RY ( 2) F  3            s(  0.00%)p 1.00( 95.71%)d 0.04(  4.29%)
                                         0.0000  0.0000  0.0000  0.0000  0.0000
                                         0.0000  0.0000  0.0041  0.9783  0.0000
                                        -0.0919 -0.1855  0.0000  0.0000
  44. (0.00033) RY ( 3) F  3            s( 26.20%)p 2.62( 68.76%)d 0.19(  5.04%)
                                         0.0000  0.0026  0.5119  0.0079 -0.0244
                                        -0.0058 -0.8288  0.0000  0.0000  0.0896
                                         0.0000  0.0000 -0.2058 -0.0013
  45. (0.00002) RY ( 4) F  3            s(  2.76%)p 2.26(  6.23%)d32.96( 91.01%)
  46. (0.00001) RY ( 5) F  3            s(  1.64%)p 2.09(  3.43%)d57.88( 94.93%)
  47. (0.00001) RY ( 6) F  3            s(  0.00%)p 1.00(  0.05%)d99.99( 99.95%)
  48. (0.00000) RY ( 7) F  3            s( 29.82%)p 2.06( 61.41%)d 0.29(  8.77%)
  49. (0.00000) RY ( 8) F  3            s(  0.57%)p 0.45(  0.26%)d99.99( 99.18%)
  50. (0.00000) RY ( 9) F  3            s(  0.00%)p 1.00(  4.34%)d22.05( 95.66%)
  51. (0.00146) RY ( 1) C  4            s(  0.09%)p99.99( 99.77%)d 1.52(  0.14%)
                                         0.0000 -0.0002  0.0300 -0.0058 -0.7335
                                        -0.0167 -0.6778  0.0000  0.0000  0.0015
                                         0.0000  0.0000  0.0357 -0.0096
  52. (0.00051) RY ( 2) C  4            s( 34.58%)p 1.74( 60.13%)d 0.15(  5.29%)
                                         0.0000  0.0039  0.5880  0.0286 -0.5188
                                        -0.0219  0.5753  0.0000  0.0000 -0.0287
                                         0.0000  0.0000 -0.2263  0.0295
  53. (0.00030) RY ( 3) C  4            s(  0.00%)p 1.00( 61.01%)d 0.64( 38.99%)
                                         0.0000  0.0000  0.0000  0.0000  0.0000
                                         0.0000  0.0000  0.0310  0.7805  0.0000
                                        -0.2115  0.5875  0.0000  0.0000
  54. (0.00017) RY ( 4) C  4            s( 13.19%)p 0.02(  0.30%)d 6.56( 86.51%)
                                         0.0000 -0.0012  0.3631 -0.0244  0.0389
                                        -0.0191  0.0228  0.0000  0.0000  0.3306
                                         0.0000  0.0000  0.8403 -0.2229
  55. (0.00009) RY ( 5) C  4            s( 19.22%)p 1.00( 19.15%)d 3.21( 61.63%)
  56. (0.00002) RY ( 6) C  4            s(  0.00%)p 1.00( 17.98%)d 4.56( 82.02%)
  57. (0.00002) RY ( 7) C  4            s( 30.87%)p 0.61( 18.86%)d 1.63( 50.27%)
  58. (0.00000) RY ( 8) C  4            s(  2.03%)p 1.12(  2.28%)d47.17( 95.69%)
  59. (0.00000) RY ( 9) C  4            s(  0.00%)p 1.00( 21.21%)d 3.71( 78.79%)
  60. (0.00089) RY ( 1) H  5            s(100.00%)
                                        -0.0001  1.0000
  61. (0.00089) RY ( 1) H  6            s(100.00%)
                                        -0.0001  1.0000
  62. (0.00089) RY ( 1) H  7            s(100.00%)
                                        -0.0001  1.0000


 NHO DIRECTIONALITY AND BOND BENDING (deviation from line of nuclear centers at
                                      the position of maximum hybrid amplitude)

         [Thresholds for printing:  angular deviation  >  1.0 degree]
                                    p- or d-character  > 25.0%
                                    orbital occupancy  >  0.10e

                        Line of Centers        Hybrid 1             Hybrid 2
                        ---------------  -------------------  ------------------
           NBO            Theta   Phi    Theta   Phi    Dev   Theta   Phi    Dev
 ===============================================================================
   5. LP ( 1) O  2          --     --     90.0   87.3   --      --     --    --
   6. LP ( 2) O  2          --     --     90.0  353.6   --      --     --    --
   7. LP ( 1) F  3          --     --     90.0  198.1   --      --     --    --
   8. LP ( 2) F  3          --     --     90.0  293.6   --      --     --    --
   9. LP ( 3) F  3          --     --    179.7   19.6   --      --     --    --
  10. BD ( 1) C  1- O  2   90.0   83.9    90.0   85.4   1.4    90.0  262.8   1.1
  11. BD ( 2) C  1- O  2   90.0   83.9   177.0   81.1  87.0   179.1  265.0  89.1
  12. BD ( 1) C  1- F  3   90.0  204.6    90.0  200.9   3.7     --     --    --


 SECOND ORDER PERTURBATION THEORY ANALYSIS OF FOCK MATRIX IN NBO BASIS

     Threshold for printing:   0.50 kcal/mol
                                                          E(2) E(NL)-E(L) F(L,NL)
      Donor (L) NBO              Acceptor (NL) NBO      kcal/mol   a.u.    a.u.
 ===============================================================================

 within unit  1
    5. LP ( 1) O  2            19. BD*( 1) C  1- F  3      0.58    1.31   0.025
    5. LP ( 1) O  2            20. BD*( 1) C  1- C  4      2.98    1.47   0.059
    5. LP ( 1) O  2            24. RY ( 1) C  1           15.10    1.66   0.141
    6. LP ( 2) O  2            19. BD*( 1) C  1- F  3     61.83    0.94   0.215
    6. LP ( 2) O  2            20. BD*( 1) C  1- C  4     20.53    1.10   0.134
    6. LP ( 2) O  2            25. RY ( 2) C  1            4.85    2.33   0.095
    6. LP ( 2) O  2            26. RY ( 3) C  1            4.63    2.18   0.090
    6. LP ( 2) O  2            37. RY ( 5) O  2            0.87    2.80   0.044
    7. LP ( 1) F  3            20. BD*( 1) C  1- C  4      0.94    1.86   0.037
    7. LP ( 1) F  3            24. RY ( 1) C  1            1.00    2.05   0.040
    7. LP ( 1) F  3            25. RY ( 2) C  1            3.04    3.09   0.086
    7. LP ( 1) F  3            26. RY ( 3) C  1            1.75    2.94   0.064
    8. LP ( 2) F  3            17. BD*( 1) C  1- O  2     10.19    1.61   0.114
    8. LP ( 2) F  3            20. BD*( 1) C  1- C  4      5.09    1.30   0.073
    8. LP ( 2) F  3            21. BD*( 1) C  4- H  5      1.08    1.36   0.034
    8. LP ( 2) F  3            24. RY ( 1) C  1            1.21    1.49   0.038
    8. LP ( 2) F  3            29. RY ( 6) C  1            0.99    3.18   0.050
    9. LP ( 3) F  3            18. BD*( 2) C  1- O  2     37.77    0.84   0.159
    9. LP ( 3) F  3            27. RY ( 4) C  1            2.26    2.78   0.071
   10. BD ( 1) C  1- O  2      20. BD*( 1) C  1- C  4      0.79    1.92   0.035
   10. BD ( 1) C  1- O  2      51. RY ( 1) C  4            0.58    2.12   0.031
   11. BD ( 2) C  1- O  2      22. BD*( 1) C  4- H  6      1.60    1.24   0.040
   11. BD ( 2) C  1- O  2      23. BD*( 1) C  4- H  7      1.60    1.24   0.040
   11. BD ( 2) C  1- O  2      43. RY ( 2) F  3            0.63    2.16   0.033
   12. BD ( 1) C  1- F  3      20. BD*( 1) C  1- C  4      0.91    1.83   0.036
   12. BD ( 1) C  1- F  3      21. BD*( 1) C  4- H  5      1.29    1.89   0.044
   13. BD ( 1) C  1- C  4      17. BD*( 1) C  1- O  2      0.66    1.79   0.031
   13. BD ( 1) C  1- C  4      19. BD*( 1) C  1- F  3      0.51    1.32   0.023
   13. BD ( 1) C  1- C  4      33. RY ( 1) O  2            2.41    2.31   0.067
   13. BD ( 1) C  1- C  4      42. RY ( 1) F  3            1.05    2.97   0.050
   14. BD ( 1) C  4- H  5      19. BD*( 1) C  1- F  3      6.51    1.17   0.078
   14. BD ( 1) C  4- H  5      24. RY ( 1) C  1            0.99    1.52   0.035
   15. BD ( 1) C  4- H  6      17. BD*( 1) C  1- O  2      2.42    1.64   0.056
   15. BD ( 1) C  4- H  6      18. BD*( 2) C  1- O  2      7.22    0.89   0.071
   15. BD ( 1) C  4- H  6      28. RY ( 5) C  1            0.93    2.03   0.039
   16. BD ( 1) C  4- H  7      17. BD*( 1) C  1- O  2      2.42    1.64   0.056
   16. BD ( 1) C  4- H  7      18. BD*( 2) C  1- O  2      7.22    0.89   0.071
   16. BD ( 1) C  4- H  7      28. RY ( 5) C  1            0.93    2.03   0.039


 NATURAL BOND ORBITALS (Summary):

                                                     Principal Delocalizations
           NBO                 Occupancy    Energy   (geminal,vicinal,remote)
 ===============================================================================
 Molecular unit  1  (C2H3FO)
 ------ Lewis --------------------------------------
    1. CR ( 1) C  1             1.99999   -11.43314
    2. CR ( 1) O  2             1.99999   -20.58778
    3. CR ( 1) F  3             1.99999   -26.32111
    4. CR ( 1) C  4             1.99999   -11.26377
    5. LP ( 1) O  2             1.98056    -0.82564  24(v),20(v),19(v)
    6. LP ( 2) O  2             1.86313    -0.45780  19(v),20(v),25(v),26(v)
                                                     37(g)
    7. LP ( 1) F  3             1.99085    -1.21612  25(v),26(v),24(v),20(v)
    8. LP ( 2) F  3             1.97637    -0.65820  17(v),20(v),24(v),21(r)
                                                     29(v)
    9. LP ( 3) F  3             1.92765    -0.64193  18(v),27(v)
   10. BD ( 1) C  1- O  2       1.99820    -1.27117  20(g),51(v)
   11. BD ( 2) C  1- O  2       1.99350    -0.55824  22(v),23(v),43(v)
   12. BD ( 1) C  1- F  3       1.99577    -1.18548  21(v),20(g)
   13. BD ( 1) C  1- C  4       1.99420    -0.84021  33(v),42(v),17(g),19(g)
   14. BD ( 1) C  4- H  5       1.98695    -0.69081  19(v),24(v)
   15. BD ( 1) C  4- H  6       1.97912    -0.69008  18(v),17(v),28(v)
   16. BD ( 1) C  4- H  7       1.97912    -0.69008  18(v),17(v),28(v)
 ------ non-Lewis ----------------------------------
   17. BD*( 1) C  1- O  2       0.01853     0.94684
   18. BD*( 2) C  1- O  2       0.09946     0.19753
   19. BD*( 1) C  1- F  3       0.11207     0.48297
   20. BD*( 1) C  1- C  4       0.04035     0.64523
   21. BD*( 1) C  4- H  5       0.00416     0.70464
   22. BD*( 1) C  4- H  6       0.00421     0.68396
   23. BD*( 1) C  4- H  7       0.00421     0.68396
   24. RY ( 1) C  1             0.01945     0.83358
   25. RY ( 2) C  1             0.01088     1.87537
   26. RY ( 3) C  1             0.00497     1.72113
   27. RY ( 4) C  1             0.00309     2.13866
   28. RY ( 5) C  1             0.00180     1.33533
   29. RY ( 6) C  1             0.00147     2.51807
   30. RY ( 7) C  1             0.00015     1.10077
   31. RY ( 8) C  1             0.00001     2.44695
   32. RY ( 9) C  1             0.00000     1.79239
   33. RY ( 1) O  2             0.00211     1.46744
   34. RY ( 2) O  2             0.00026     1.31568
   35. RY ( 3) O  2             0.00009     2.50966
   36. RY ( 4) O  2             0.00006     1.88782
   37. RY ( 5) O  2             0.00002     2.34133
   38. RY ( 6) O  2             0.00001     1.63250
   39. RY ( 7) O  2             0.00001     2.17659
   40. RY ( 8) O  2             0.00000     2.29208
   41. RY ( 9) O  2             0.00000     2.20309
   42. RY ( 1) F  3             0.00118     2.13022
   43. RY ( 2) F  3             0.00048     1.59792
   44. RY ( 3) F  3             0.00033     2.04294
   45. RY ( 4) F  3             0.00002     2.60145
   46. RY ( 5) F  3             0.00001     2.43859
   47. RY ( 6) F  3             0.00001     2.17965
   48. RY ( 7) F  3             0.00000     1.72613
   49. RY ( 8) F  3             0.00000     2.26551
   50. RY ( 9) F  3             0.00000     2.25121
   51. RY ( 1) C  4             0.00146     0.85153
   52. RY ( 2) C  4             0.00051     0.99128
   53. RY ( 3) C  4             0.00030     1.45595
   54. RY ( 4) C  4             0.00017     2.25380
   55. RY ( 5) C  4             0.00009     1.82287
   56. RY ( 6) C  4             0.00002     1.98483
   57. RY ( 7) C  4             0.00002     1.74565
   58. RY ( 8) C  4             0.00000     2.28325
   59. RY ( 9) C  4             0.00000     1.80844
   60. RY ( 1) H  5             0.00089     0.78098
   61. RY ( 1) H  6             0.00089     0.78717
   62. RY ( 1) H  7             0.00089     0.78717
          -------------------------------
                 Total Lewis   31.66539  ( 98.9543%)
           Valence non-Lewis    0.28298  (  0.8843%)
           Rydberg non-Lewis    0.05163  (  0.1613%)
          -------------------------------
               Total unit  1   32.00000  (100.0000%)
              Charge unit  1    0.00000

 $CHOOSE
   LONE 2 2 3 3 END
   BOND D 1 2 S 1 3 S 1 4 S 4 5 S 4 6 S 4 7 END
 $END

 NBO analysis completed in 1.08 CPU seconds (2 wall seconds)
 Maximum scratch memory used by NBO was 345094 words (2.63 MB)
 Maximum scratch memory used by G16NBO was 14354 words (0.11 MB)

 Opening RunExU unformatted file "/cluster/work/users/beto93/mol125/Gau-1814818.EUF"
 Read unf file /cluster/work/users/beto93/mol125/Gau-1814818.EUF:
 Label Gaussian matrix elements                                         IVers= 2 NLab= 2 Version=ES64L-G16RevC.01
 Title mol125-NBO                                                      
 NAtoms=     7 NBasis=    62 NBsUse=    62 ICharg=     0 Multip=     1 NE=    32 Len12L=8 Len4L=8 IOpCl= 0 ICGU=111
 GAUSSIAN SCALARS                    NI= 1 NR= 1 NTot=       1 LenBuf=    2 NRI=1 N=    1000
 NPA CHARGES                         NI= 0 NR= 1 NTot=       7 LenBuf= 4000 NRI=1 N=       7
 Recovered energy= -251.793169623     dipole=      0.705309881507     -1.071272935427      0.000000000000
 Unable to Open any file for archive entry.
 1\1\GINC-C3-25\SP\RHF\6-31G(d)\C2H3F1O1\BETO93\18-Nov-2024\0\\#RHF/6-3
 1G* int=nobasistransform Symmetry=None 5D 7F Pop=NBO7Read\\mol125-NBO\
 \0,1\C,0,0.,0.186396,0.\O,0,0.126651,1.377199,0.\F,0,-1.24395,-0.38274
 5,0.\C,0,1.049454,-0.876224,0.\H,0,2.035883,-0.417099,0.\H,0,0.924869,
 -1.508407,0.881549\H,0,0.924869,-1.508407,-0.881549\\Version=ES64L-G16
 RevC.01\HF=-251.7931696\RMSD=4.373e-09\Dipole=0.7053099,-1.0712729,0.\
 Quadrupole=0.1638437,-1.6839393,1.5200956,-1.192101,0.,0.\PG=Unknown\\
 @
 The archive entry for this job was punched.


 Mondays are the potholes in the road of life.
                                -- Tom Wilson
 Job cpu time:       0 days  0 hours  0 minutes 10.4 seconds.
 Elapsed time:       0 days  0 hours  0 minutes  3.4 seconds.
 File lengths (MBytes):  RWF=     10 Int=      0 D2E=      0 Chk=      1 Scr=      1
 Normal termination of Gaussian 16 at Mon Nov 18 16:41:12 2024.
