 Entering Gaussian System, Link 0=g16
 Initial command:
 /cluster/software/Gaussian/g16_C.01/l1.exe "/cluster/work/users/beto93/mol43/Gau-671142.inp" -scrdir="/cluster/work/users/beto93/mol43/"
 Entering Link 1 = /cluster/software/Gaussian/g16_C.01/l1.exe PID=    671143.
  
 Copyright (c) 1988-2019, Gaussian, Inc.  All Rights Reserved.
  
 This is part of the Gaussian(R) 16 program.  It is based on
 the Gaussian(R) 09 system (copyright 2009, Gaussian, Inc.),
 the Gaussian(R) 03 system (copyright 2003, Gaussian, Inc.),
 the Gaussian(R) 98 system (copyright 1998, Gaussian, Inc.),
 the Gaussian(R) 94 system (copyright 1995, Gaussian, Inc.),
 the Gaussian 92(TM) system (copyright 1992, Gaussian, Inc.),
 the Gaussian 90(TM) system (copyright 1990, Gaussian, Inc.),
 the Gaussian 88(TM) system (copyright 1988, Gaussian, Inc.),
 the Gaussian 86(TM) system (copyright 1986, Carnegie Mellon
 University), and the Gaussian 82(TM) system (copyright 1983,
 Carnegie Mellon University). Gaussian is a federally registered
 trademark of Gaussian, Inc.
  
 This software contains proprietary and confidential information,
 including trade secrets, belonging to Gaussian, Inc.
  
 This software is provided under written license and may be
 used, copied, transmitted, or stored only in accord with that
 written license.
  
 The following legend is applicable only to US Government
 contracts under FAR:
  
                    RESTRICTED RIGHTS LEGEND
  
 Use, reproduction and disclosure by the US Government is
 subject to restrictions as set forth in subparagraphs (a)
 and (c) of the Commercial Computer Software - Restricted
 Rights clause in FAR 52.227-19.
  
 Gaussian, Inc.
 340 Quinnipiac St., Bldg. 40, Wallingford CT 06492
  
  
 ---------------------------------------------------------------
 Warning -- This program may not be used in any manner that
 competes with the business of Gaussian, Inc. or will provide
 assistance to any competitor of Gaussian, Inc.  The licensee
 of this program is prohibited from giving any competitor of
 Gaussian, Inc. access to this program.  By using this program,
 the user acknowledges that Gaussian, Inc. is engaged in the
 business of creating and licensing software in the field of
 computational chemistry and represents and warrants to the
 licensee that it is not a competitor of Gaussian, Inc. and that
 it will not use this program in any manner prohibited above.
 ---------------------------------------------------------------
  

 Cite this work as:
 Gaussian 16, Revision C.01,
 M. J. Frisch, G. W. Trucks, H. B. Schlegel, G. E. Scuseria, 
 M. A. Robb, J. R. Cheeseman, G. Scalmani, V. Barone, 
 G. A. Petersson, H. Nakatsuji, X. Li, M. Caricato, A. V. Marenich, 
 J. Bloino, B. G. Janesko, R. Gomperts, B. Mennucci, H. P. Hratchian, 
 J. V. Ortiz, A. F. Izmaylov, J. L. Sonnenberg, D. Williams-Young, 
 F. Ding, F. Lipparini, F. Egidi, J. Goings, B. Peng, A. Petrone, 
 T. Henderson, D. Ranasinghe, V. G. Zakrzewski, J. Gao, N. Rega, 
 G. Zheng, W. Liang, M. Hada, M. Ehara, K. Toyota, R. Fukuda, 
 J. Hasegawa, M. Ishida, T. Nakajima, Y. Honda, O. Kitao, H. Nakai, 
 T. Vreven, K. Throssell, J. A. Montgomery, Jr., J. E. Peralta, 
 F. Ogliaro, M. J. Bearpark, J. J. Heyd, E. N. Brothers, K. N. Kudin, 
 V. N. Staroverov, T. A. Keith, R. Kobayashi, J. Normand, 
 K. Raghavachari, A. P. Rendell, J. C. Burant, S. S. Iyengar, 
 J. Tomasi, M. Cossi, J. M. Millam, M. Klene, C. Adamo, R. Cammi, 
 J. W. Ochterski, R. L. Martin, K. Morokuma, O. Farkas, 
 J. B. Foresman, and D. J. Fox, Gaussian, Inc., Wallingford CT, 2019.
 
 ******************************************
 Gaussian 16:  ES64L-G16RevC.01  3-Jul-2019
                18-Nov-2024 
 ******************************************
 %LindaWorkers=c1-40-ib
 %NProcShared=4
 Will use up to    4 processors via shared memory.
 %mem=25GB
 %chk=mol43.chk
 SetLPE:    new flags="-opt 'Tsnet.Node.lindarsharg: ssh'  -nodelist 'c1-40-ib.saga' -env GAUSS_MDEF=3355443200 -env GAUSS_EXEDIR="/cluster/software/Gaussian/g16_C.01/bsd:/cluster/software/Gaussian/g16_C.01""
 Will use up to    1 processors via Linda.
 -----------------------------------------------------------------
 #RHF/6-31G* int=nobasistransform Symmetry=None 5D 7F Pop=NBO7Read
 -----------------------------------------------------------------
 1/38=1,163=2,172=1/1;
 2/12=2,15=3,17=6,18=5,40=1/2;
 3/5=1,6=6,7=1,8=11,11=1,25=1,30=1,60=-1,116=1/1,2,3;
 4//1;
 5/5=2,38=5/2;
 6/7=2,8=2,9=2,10=2,28=1,40=2,113=1,114=1,124=2103/1,12;
 99/5=1,9=1/99;
 ---------
 mol43-NBO
 ---------
 Symbolic Z-matrix:
 Charge =  0 Multiplicity = 1
 Cl                    0.        0.        1.00754 
 Cl                    0.        0.       -1.00754 
 
                          Input orientation:                          
 ---------------------------------------------------------------------
 Center     Atomic      Atomic             Coordinates (Angstroms)
 Number     Number       Type             X           Y           Z
 ---------------------------------------------------------------------
      1         17           0        0.000000    0.000000    1.007541
      2         17           0        0.000000    0.000000   -1.007541
 ---------------------------------------------------------------------
 Symmetry turned off by external request.
 Stoichiometry    Cl2
 Rotational constants (GHZ):           0.0000000           7.1183668           7.1183668
 Standard basis: 6-31G(d) (5D, 7F)
    36 basis functions,   104 primitive gaussians,    38 cartesian basis functions
    17 alpha electrons       17 beta electrons
       nuclear repulsion energy        75.8937918933 Hartrees.
 NAtoms=    2 NActive=    2 NUniq=    2 SFac= 1.00D+00 NAtFMM=   60 NAOKFM=F Big=F
 Integral buffers will be    131072 words long.
 Raffenetti 1 integral format.
 Two-electron integral symmetry is turned off.
 One-electron integrals computed using PRISM.
 NBasis=    36 RedAO= T EigKep=  3.58D-02  NBF=    36
 NBsUse=    36 1.00D-06 EigRej= -1.00D+00 NBFU=    36
 ExpMin= 1.43D-01 ExpMax= 2.52D+04 ExpMxC= 3.78D+03 IAcc=3 IRadAn=         5 AccDes= 0.00D+00
 Harris functional with IExCor=  205 and IRadAn=       5 diagonalized for initial guess.
 HarFok:  IExCor=  205 AccDes= 0.00D+00 IRadAn=         5 IDoV= 1 UseB2=F ITyADJ=14
 ICtDFT=  3500011 ScaDFX=  1.000000  1.000000  1.000000  1.000000
 FoFCou: FMM=F IPFlag=           0 FMFlag=      100000 FMFlg1=           0
         NFxFlg=           0 DoJE=T BraDBF=F KetDBF=T FulRan=T
         wScrn=  0.000000 ICntrl=       500 IOpCl=  0 I1Cent=   200000004 NGrid=           0
         NMat0=    1 NMatS0=      1 NMatT0=    0 NMatD0=    1 NMtDS0=    0 NMtDT0=    0
 Symmetry not used in FoFCou.
 Keep R1 ints in memory in canonical form, NReq=1054163.
 Requested convergence on RMS density matrix=1.00D-08 within 128 cycles.
 Requested convergence on MAX density matrix=1.00D-06.
 Requested convergence on             energy=1.00D-06.
 No special actions if energy rises.
 SCF Done:  E(RHF) =  -918.909091581     A.U. after    9 cycles
            NFock=  9  Conv=0.18D-08     -V/T= 1.9997

 **********************************************************************

            Population analysis using the SCF Density.

 **********************************************************************

 Alpha  occ. eigenvalues -- -104.88085-104.88083 -10.61852 -10.61840  -8.08760
 Alpha  occ. eigenvalues --   -8.08746  -8.08220  -8.08220  -8.08220  -8.08220
 Alpha  occ. eigenvalues --   -1.21990  -1.02169  -0.59349  -0.56870  -0.56870
 Alpha  occ. eigenvalues --   -0.45092  -0.45092
 Alpha virt. eigenvalues --    0.02480   0.50027   0.56347   0.58791   0.59090
 Alpha virt. eigenvalues --    0.59090   0.64189   0.64189   0.72140   0.97066
 Alpha virt. eigenvalues --    0.97066   1.03971   1.08825   1.08825   1.11890
 Alpha virt. eigenvalues --    1.11890   1.24501   1.24501   1.58552
          Condensed to atoms (all electrons):
               1          2
     1  Cl  16.996743   0.003257
     2  Cl   0.003257  16.996743
 Mulliken charges:
               1
     1  Cl  -0.000000
     2  Cl  -0.000000
 Sum of Mulliken charges =  -0.00000
 Mulliken charges with hydrogens summed into heavy atoms:
               1
     1  Cl  -0.000000
     2  Cl  -0.000000
 Electronic spatial extent (au):  <R**2>=            178.3165
 Charge=             -0.0000 electrons
 Dipole moment (field-independent basis, Debye):
    X=             -0.0000    Y=              0.0000    Z=              0.0000  Tot=              0.0000
 Quadrupole moment (field-independent basis, Debye-Ang):
   XX=            -25.6227   YY=            -25.6227   ZZ=            -22.8152
   XY=             -0.0000   XZ=              0.0000   YZ=              0.0000
 Traceless Quadrupole moment (field-independent basis, Debye-Ang):
   XX=             -0.9358   YY=             -0.9358   ZZ=              1.8716
   XY=             -0.0000   XZ=              0.0000   YZ=              0.0000
 Octapole moment (field-independent basis, Debye-Ang**2):
  XXX=             -0.0000  YYY=              0.0000  ZZZ=              0.0000  XYY=              0.0000
  XXY=              0.0000  XXZ=              0.0000  XZZ=              0.0000  YZZ=              0.0000
  YYZ=             -0.0000  XYZ=             -0.0000
 Hexadecapole moment (field-independent basis, Debye-Ang**3):
 XXXX=            -28.2239 YYYY=            -28.2239 ZZZZ=           -154.7089 XXXY=             -0.0000
 XXXZ=              0.0000 YYYX=             -0.0000 YYYZ=              0.0000 ZZZX=              0.0000
 ZZZY=              0.0000 XXYY=             -9.4080 XXZZ=            -35.4156 YYZZ=            -35.4156
 XXYZ=             -0.0000 YYXZ=              0.0000 ZZXY=             -0.0000
 N-N= 7.589379189327D+01 E-N=-2.340064432526D+03  KE= 9.192122184548D+02
 Running external command "gaunbo7 R"
         input file       "/cluster/work/users/beto93/mol43/Gau-671143.EIn"
         output file      "/cluster/work/users/beto93/mol43/Gau-671143.EOu"
         message file     "/cluster/work/users/beto93/mol43/Gau-671143.EMs"
         fchk file        "/cluster/work/users/beto93/mol43/Gau-671143.EFC"
         mat. el file     "/cluster/work/users/beto93/mol43/Gau-671143.EUF"

 Writing WrtUnf unformatted file "/cluster/work/users/beto93/mol43/Gau-671143.EUF"
 Gaussian matrix elements                                         Version   2 NLab=11 Len12L=8 Len4L=8
 Write SHELL TO ATOM MAP                   from file      0 offset           0 length                  10 to matrix element file.
 Write SHELL TYPES                         from file      0 offset           0 length                  10 to matrix element file.
 Write NUMBER OF PRIMITIVES PER SHELL      from file      0 offset           0 length                  10 to matrix element file.
 Write PRIMITIVE EXPONENTS                 from file      0 offset           0 length                  34 to matrix element file.
 Write CONTRACTION COEFFICIENTS            from file      0 offset           0 length                  34 to matrix element file.
 Write P(S=P) CONTRACTION COEFFICIENTS     from file      0 offset           0 length                  34 to matrix element file.
 Write COORDINATES OF EACH SHELL           from file      0 offset           0 length                  30 to matrix element file.
 Write BONDS PER ATOM                      from file      0 offset           0 length                   2 to matrix element file.
 Write BONDED ATOMS                        from file      0 offset           0 length                   2 to matrix element file.
 Write BOND TYPES                          from file      0 offset           0 length                   2 to matrix element file.
 Write ONIOM CHARGE/MULT                   from file      0 offset           0 length                  32 to matrix element file.
 Write ONIOM ATOM LAYERS                   from file      0 offset           0 length                   2 to matrix element file.
 Write ONIOM ATOM MODIFIERS                from file      0 offset           0 length                   2 to matrix element file.
 Write ONIOM ATOM TYPES                    from file      0 offset           0 length                   2 to matrix element file.
 Write ONIOM LINK ATOMS                    from file      0 offset           0 length                   2 to matrix element file.
 Write ONIOM LINK CHARGES                  from file      0 offset           0 length                   2 to matrix element file.
 Write ONIOM LINK DISTANCES                from file      0 offset           0 length                   8 to matrix element file.
 Write SYMINF INTS                         from file      0 offset           0 length                  26 to matrix element file.
 Write ROTTR TO SO                         from file      0 offset           0 length                  12 to matrix element file.
 Write GAUSSIAN SCALARS                    from file    501 offset           0 to matrix element file.
 Write OPTIMIZATION FLAGS                  from file      0 offset           0 length                   2 to matrix element file.
 Write INTEGER ISO                         from file      0 offset           0 length                   2 to matrix element file.
 Write INTEGER SPIN                        from file      0 offset           0 length                   2 to matrix element file.
 Write REAL ZEFFECTIVE                     from file      0 offset           0 length                   2 to matrix element file.
 Write REAL QUADRUPOLEMOMENT               from file      0 offset           0 length                   2 to matrix element file.
 Write REAL GFACTOR                        from file      0 offset           0 length                   2 to matrix element file.
 Write REAL ZNUCLEAR                       from file      0 offset           0 length                   2 to matrix element file.
 Write MULLIKEN CHARGES                    from file      0 offset           0 length                   2 to matrix element file.
 Write NUCLEAR GRADIENT                    from file  10584 offset           0 length                   6 to matrix element file.
 Array NUCLEAR FORCE CONSTANTS              on  file  10585 does not exist.
 Write ELECTRIC DIPOLE MOMENT              from file      0 offset           0 length                   3 to matrix element file.
 Write NON-ADIABATIC COUPLING              from file  10810 offset           0 length                   6 to matrix element file.
 Write FINITE EM FIELD                     from file  10521 offset           0 length                  35 to matrix element file.
 Write OVERLAP                             from file  10514 offset           0 length                 666 to matrix element file.
 Write CORE HAMILTONIAN ALPHA              from file  10515 offset           0 length                 666 to matrix element file.
 Write CORE HAMILTONIAN BETA               from file  10515 offset         666 length                 666 to matrix element file.
 Write KINETIC ENERGY                      from file  10516 offset           0 length                 666 to matrix element file.
 Write ORTHOGONAL BASIS                    from file  10685 offset           0 length                1296 to matrix element file.
 Write DIPOLE INTEGRALS                    from file  10518 offset           0 length                1998 to matrix element file.
 Array DIP VEL INTEGRALS                    on  file  10572 does not exist.
 Array R X DEL INTEGRALS                    on  file  10572 does not exist.
 Write ALPHA ORBITAL ENERGIES              from file      0 offset           0 length                  36 to matrix element file.
 Write ALPHA MO COEFFICIENTS               from file  10524 offset           0 length                1296 to matrix element file.
 Write ALPHA DENSITY MATRIX                from file      0 offset           0 length                 666 to matrix element file.
 Write ALPHA FOCK MATRIX                   from file  10536 offset           0 length                 666 to matrix element file.
 Write ENERGY-WEIGHTED DENSITY             from file  10571 offset           0 length                 666 to matrix element file.
 Write ALPHA SCF DENSITY MATRIX            from file      0 offset           0 length                 666 to matrix element file.
 No 2e integrals to process.
 Perform NBO analysis...executing G16NBO...

 *********************************** NBO 7.0 ***********************************
             N A T U R A L   A T O M I C   O R B I T A L   A N D
          N A T U R A L   B O N D   O R B I T A L   A N A L Y S I S
 **************************** Espen Tangen (S101595) ***************************
  (c) Copyright 1996-2021 Board of Regents of the University of Wisconsin System
      on behalf of the Theoretical Chemistry Institute.  All rights reserved.

          Cite this program [NBO 7.0.10 (8-Feb-2021)] as:

          NBO 7.0.  E. D. Glendening, J. K. Badenhoop, A. E. Reed,
          J. E. Carpenter, J. A. Bohmann, C. M. Morales, P. Karafiloglou,
          C. R. Landis, and F. Weinhold, Theoretical Chemistry Institute,
          University of Wisconsin, Madison, WI (2018)

       /NPA    / : Natural Population Analysis
       /AOPNAO / : Print the AO to PNAO transformation
       /AONAO  / : Print the AO to NAO transformation
       /AOMO   / : Print the MOs in the AO basis
       /BOAO   / : Print the AO bond-order matrix
       /DMAO   / : Print the AO density matrix
       /DMPNAO / : Print the PNAO density matrix
       /DMNAO  / : Print the NAO density matrix
       /DMMO   / : Print the MO density matrix
       /SAO    / : Print the AO overlap matrix
       /SPNAO  / : Print the PNAO overlap matrix
       /DETAIL / : Write details of NBO search
       /ARCHIVE/ : Write the archive file to lfn47
       /AOINFO / : Write AO information to lfn31
       /FILE   / : Set to mol43.gen*

 Filename set to mol43.gen1

 Job title: mol43-NBO


 MOs in the AO basis:

           AO          1       2       3       4       5       6       7       8
      ------------ ------- ------- ------- ------- ------- ------- ------- -------
   1. Cl 1 (s)      0.7047  0.7047 -0.2028 -0.2028 -0.0012 -0.0012  0.0000  0.0000
   2. Cl 1 (s)      0.0089  0.0089  0.7292  0.7292  0.0045  0.0046  0.0000  0.0000
   3. Cl 1 (px)     0.0000  0.0000  0.0000  0.0000  0.0000  0.0000  0.3502  0.6091
   4. Cl 1 (py)     0.0000  0.0000  0.0000  0.0000  0.0000  0.0000  0.6091 -0.3502
   5. Cl 1 (pz)    -0.0001  0.0000 -0.0040 -0.0039  0.7020  0.7019  0.0000  0.0000
   6. Cl 1 (s)     -0.0030 -0.0026  0.0156  0.0162 -0.0010 -0.0013  0.0000  0.0000
   7. Cl 1 (px)     0.0000  0.0000  0.0000  0.0000  0.0000  0.0000  0.0071  0.0123
   8. Cl 1 (py)     0.0000  0.0000  0.0000  0.0000  0.0000  0.0000  0.0123 -0.0071
   9. Cl 1 (pz)     0.0001  0.0001 -0.0008 -0.0009  0.0162  0.0167  0.0000  0.0000
  10. Cl 1 (s)      0.0025  0.0012 -0.0037 -0.0066 -0.0002  0.0024  0.0000  0.0000
  11. Cl 1 (px)     0.0000  0.0000  0.0000  0.0000  0.0000  0.0000 -0.0018 -0.0031
  12. Cl 1 (py)     0.0000  0.0000  0.0000  0.0000  0.0000  0.0000 -0.0031  0.0018
  13. Cl 1 (pz)    -0.0008 -0.0001  0.0004  0.0020 -0.0042 -0.0050  0.0000  0.0000
  14. Cl 1 (d5)     0.0001  0.0001  0.0000  0.0003  0.0001 -0.0010  0.0000  0.0000
  15. Cl 1 (d2)     0.0000  0.0000  0.0000  0.0000  0.0000  0.0000 -0.0001 -0.0003
  16. Cl 1 (d3)     0.0000  0.0000  0.0000  0.0000  0.0000  0.0000 -0.0003  0.0001
  17. Cl 1 (d4)     0.0000  0.0000  0.0000  0.0000  0.0000  0.0000  0.0000  0.0000
  18. Cl 1 (d1)     0.0000  0.0000  0.0000  0.0000  0.0000  0.0000  0.0000  0.0000
  19. Cl 2 (s)     -0.7047  0.7047 -0.2028  0.2028 -0.0012  0.0012  0.0000  0.0000
  20. Cl 2 (s)     -0.0089  0.0089  0.7292 -0.7292  0.0045 -0.0046  0.0000  0.0000
  21. Cl 2 (px)     0.0000  0.0000  0.0000  0.0000  0.0000  0.0000 -0.3502 -0.6091
  22. Cl 2 (py)     0.0000  0.0000  0.0000  0.0000  0.0000  0.0000 -0.6091  0.3502
  23. Cl 2 (pz)    -0.0001  0.0000  0.0040 -0.0039 -0.7020  0.7019  0.0000  0.0000
  24. Cl 2 (s)      0.0030 -0.0026  0.0156 -0.0162 -0.0010  0.0013  0.0000  0.0000
  25. Cl 2 (px)     0.0000  0.0000  0.0000  0.0000  0.0000  0.0000 -0.0071 -0.0123
  26. Cl 2 (py)     0.0000  0.0000  0.0000  0.0000  0.0000  0.0000 -0.0123  0.0071
  27. Cl 2 (pz)     0.0001 -0.0001  0.0008 -0.0009 -0.0162  0.0167  0.0000  0.0000
  28. Cl 2 (s)     -0.0025  0.0012 -0.0037  0.0066 -0.0002 -0.0024  0.0000  0.0000
  29. Cl 2 (px)     0.0000  0.0000  0.0000  0.0000  0.0000  0.0000  0.0018  0.0031
  30. Cl 2 (py)     0.0000  0.0000  0.0000  0.0000  0.0000  0.0000  0.0031 -0.0018
  31. Cl 2 (pz)    -0.0008  0.0001 -0.0004  0.0020  0.0042 -0.0050  0.0000  0.0000
  32. Cl 2 (d5)    -0.0001  0.0001  0.0000 -0.0003  0.0001  0.0010  0.0000  0.0000
  33. Cl 2 (d2)     0.0000  0.0000  0.0000  0.0000  0.0000  0.0000 -0.0001 -0.0003
  34. Cl 2 (d3)     0.0000  0.0000  0.0000  0.0000  0.0000  0.0000 -0.0003  0.0001
  35. Cl 2 (d4)     0.0000  0.0000  0.0000  0.0000  0.0000  0.0000  0.0000  0.0000
  36. Cl 2 (d1)     0.0000  0.0000  0.0000  0.0000  0.0000  0.0000  0.0000  0.0000

           AO          9      10      11      12      13      14      15      16
      ------------ ------- ------- ------- ------- ------- ------- ------- -------
   1. Cl 1 (s)      0.0000  0.0000  0.0556  0.0597  0.0153  0.0000  0.0000  0.0000
   2. Cl 1 (s)      0.0000  0.0000 -0.2526 -0.2725 -0.0703  0.0000  0.0000  0.0000
   3. Cl 1 (px)     0.5150  0.4781  0.0000  0.0000  0.0000 -0.1162 -0.1567  0.0449
   4. Cl 1 (py)    -0.4781  0.5150  0.0000  0.0000  0.0000 -0.1567  0.1162 -0.2047
   5. Cl 1 (pz)     0.0000  0.0000  0.0459 -0.0320 -0.1978  0.0000  0.0000  0.0000
   6. Cl 1 (s)      0.0000  0.0000  0.5044  0.5507  0.1498  0.0000  0.0000  0.0000
   7. Cl 1 (px)     0.0103  0.0096  0.0000  0.0000  0.0000  0.3015  0.4067 -0.1185
   8. Cl 1 (py)    -0.0096  0.0103  0.0000  0.0000  0.0000  0.4067 -0.3015  0.5402
   9. Cl 1 (pz)     0.0000  0.0000 -0.1090  0.0781  0.5059  0.0000  0.0000  0.0000
  10. Cl 1 (s)      0.0000  0.0000  0.1873  0.2860  0.1266  0.0000  0.0000  0.0000
  11. Cl 1 (px)    -0.0021 -0.0019  0.0000  0.0000  0.0000  0.1455  0.1963 -0.0686
  12. Cl 1 (py)     0.0019 -0.0021  0.0000  0.0000  0.0000  0.1963 -0.1455  0.3127
  13. Cl 1 (pz)     0.0000  0.0000 -0.0167 -0.0023  0.1961  0.0000  0.0000  0.0000
  14. Cl 1 (d5)     0.0000  0.0000  0.0313 -0.0106 -0.0633  0.0000  0.0000  0.0000
  15. Cl 1 (d2)    -0.0002 -0.0002  0.0000  0.0000  0.0000 -0.0171 -0.0231 -0.0024
  16. Cl 1 (d3)     0.0002 -0.0002  0.0000  0.0000  0.0000 -0.0231  0.0171  0.0109
  17. Cl 1 (d4)     0.0000  0.0000  0.0000  0.0000  0.0000  0.0000  0.0000  0.0000
  18. Cl 1 (d1)     0.0000  0.0000  0.0000  0.0000  0.0000  0.0000  0.0000  0.0000
  19. Cl 2 (s)      0.0000  0.0000  0.0556 -0.0597  0.0153  0.0000  0.0000  0.0000
  20. Cl 2 (s)      0.0000  0.0000 -0.2526  0.2725 -0.0703  0.0000  0.0000  0.0000
  21. Cl 2 (px)     0.5150  0.4781  0.0000  0.0000  0.0000 -0.1162 -0.1567 -0.0449
  22. Cl 2 (py)    -0.4781  0.5150  0.0000  0.0000  0.0000 -0.1567  0.1162  0.2047
  23. Cl 2 (pz)     0.0000  0.0000 -0.0459 -0.0320  0.1978  0.0000  0.0000  0.0000
  24. Cl 2 (s)      0.0000  0.0000  0.5044 -0.5507  0.1498  0.0000  0.0000  0.0000
  25. Cl 2 (px)     0.0103  0.0096  0.0000  0.0000  0.0000  0.3015  0.4067  0.1185
  26. Cl 2 (py)    -0.0096  0.0103  0.0000  0.0000  0.0000  0.4067 -0.3015 -0.5402
  27. Cl 2 (pz)     0.0000  0.0000  0.1090  0.0781 -0.5059  0.0000  0.0000  0.0000
  28. Cl 2 (s)      0.0000  0.0000  0.1873 -0.2860  0.1266  0.0000  0.0000  0.0000
  29. Cl 2 (px)    -0.0021 -0.0019  0.0000  0.0000  0.0000  0.1455  0.1963  0.0686
  30. Cl 2 (py)     0.0019 -0.0021  0.0000  0.0000  0.0000  0.1963 -0.1455 -0.3127
  31. Cl 2 (pz)     0.0000  0.0000  0.0167 -0.0023 -0.1961  0.0000  0.0000  0.0000
  32. Cl 2 (d5)     0.0000  0.0000  0.0313  0.0106 -0.0633  0.0000  0.0000  0.0000
  33. Cl 2 (d2)     0.0002  0.0002  0.0000  0.0000  0.0000  0.0171  0.0231 -0.0024
  34. Cl 2 (d3)    -0.0002  0.0002  0.0000  0.0000  0.0000  0.0231 -0.0171  0.0109
  35. Cl 2 (d4)     0.0000  0.0000  0.0000  0.0000  0.0000  0.0000  0.0000  0.0000
  36. Cl 2 (d1)     0.0000  0.0000  0.0000  0.0000  0.0000  0.0000  0.0000  0.0000

           AO         17      18      19      20      21      22      23      24
      ------------ ------- ------- ------- ------- ------- ------- ------- -------
   1. Cl 1 (s)      0.0000 -0.0189  0.0553 -0.0285  0.0080  0.0000  0.0000  0.0000
   2. Cl 1 (s)      0.0000  0.0913 -0.1004  0.0518  0.0002  0.0000  0.0000  0.0000
   3. Cl 1 (px)    -0.2047  0.0000  0.0000  0.0000  0.0000 -0.0471 -0.2079  0.1961
   4. Cl 1 (py)    -0.0449  0.0000  0.0000  0.0000  0.0000 -0.2079  0.0471  0.0495
   5. Cl 1 (pz)     0.0000 -0.1927 -0.0434  0.1985  0.1523  0.0000  0.0000  0.0000
   6. Cl 1 (s)      0.0000 -0.1802  1.1493 -0.5970  0.2267  0.0000  0.0000  0.0000
   7. Cl 1 (px)     0.5402  0.0000  0.0000  0.0000  0.0000  0.1822  0.8043 -0.7865
   8. Cl 1 (py)     0.1185  0.0000  0.0000  0.0000  0.0000  0.8043 -0.1822 -0.1985
   9. Cl 1 (pz)     0.0000  0.4983  0.1532 -0.7325 -0.6799  0.0000  0.0000  0.0000
  10. Cl 1 (s)      0.0000 -0.4513 -1.1225  0.3383 -0.0290  0.0000  0.0000  0.0000
  11. Cl 1 (px)     0.3127  0.0000  0.0000  0.0000  0.0000 -0.1677 -0.7404  1.0463
  12. Cl 1 (py)     0.0686  0.0000  0.0000  0.0000  0.0000 -0.7404  0.1677  0.2641
  13. Cl 1 (pz)     0.0000  0.7354 -0.2140  0.8995  0.7906  0.0000  0.0000  0.0000
  14. Cl 1 (d5)     0.0000  0.0482  0.0643 -0.0437  0.3199  0.0000  0.0000  0.0000
  15. Cl 1 (d2)     0.0109  0.0000  0.0000  0.0000  0.0000  0.0061  0.0269  0.0872
  16. Cl 1 (d3)     0.0024  0.0000  0.0000  0.0000  0.0000  0.0269 -0.0061  0.0220
  17. Cl 1 (d4)     0.0000  0.0000  0.0000  0.0000  0.0000  0.0000  0.0000  0.0000
  18. Cl 1 (d1)     0.0000  0.0000  0.0000  0.0000  0.0000  0.0000  0.0000  0.0000
  19. Cl 2 (s)      0.0000  0.0189  0.0553  0.0285  0.0080  0.0000  0.0000  0.0000
  20. Cl 2 (s)      0.0000 -0.0913 -0.1004 -0.0518  0.0002  0.0000  0.0000  0.0000
  21. Cl 2 (px)     0.2047  0.0000  0.0000  0.0000  0.0000 -0.0471 -0.2079 -0.1961
  22. Cl 2 (py)     0.0449  0.0000  0.0000  0.0000  0.0000 -0.2079  0.0471 -0.0495
  23. Cl 2 (pz)     0.0000 -0.1927  0.0434  0.1985 -0.1523  0.0000  0.0000  0.0000
  24. Cl 2 (s)      0.0000  0.1802  1.1493  0.5970  0.2267  0.0000  0.0000  0.0000
  25. Cl 2 (px)    -0.5402  0.0000  0.0000  0.0000  0.0000  0.1822  0.8043  0.7865
  26. Cl 2 (py)    -0.1185  0.0000  0.0000  0.0000  0.0000  0.8043 -0.1822  0.1985
  27. Cl 2 (pz)     0.0000  0.4983 -0.1532 -0.7325  0.6799  0.0000  0.0000  0.0000
  28. Cl 2 (s)      0.0000  0.4513 -1.1225 -0.3383 -0.0290  0.0000  0.0000  0.0000
  29. Cl 2 (px)    -0.3127  0.0000  0.0000  0.0000  0.0000 -0.1677 -0.7404 -1.0463
  30. Cl 2 (py)    -0.0686  0.0000  0.0000  0.0000  0.0000 -0.7404  0.1677 -0.2641
  31. Cl 2 (pz)     0.0000  0.7354  0.2140  0.8995 -0.7906  0.0000  0.0000  0.0000
  32. Cl 2 (d5)     0.0000 -0.0482  0.0643  0.0437  0.3199  0.0000  0.0000  0.0000
  33. Cl 2 (d2)     0.0109  0.0000  0.0000  0.0000  0.0000 -0.0061 -0.0269  0.0872
  34. Cl 2 (d3)     0.0024  0.0000  0.0000  0.0000  0.0000 -0.0269  0.0061  0.0220
  35. Cl 2 (d4)     0.0000  0.0000  0.0000  0.0000  0.0000  0.0000  0.0000  0.0000
  36. Cl 2 (d1)     0.0000  0.0000  0.0000  0.0000  0.0000  0.0000  0.0000  0.0000

           AO         25      26      27      28      29      30      31      32
      ------------ ------- ------- ------- ------- ------- ------- ------- -------
   1. Cl 1 (s)      0.0000 -0.0488  0.0000  0.0000 -0.0157  0.0000  0.0000  0.0000
   2. Cl 1 (s)      0.0000  0.0224  0.0000  0.0000  0.0324  0.0000  0.0000  0.0000
   3. Cl 1 (px)    -0.0495  0.0000  0.0017  0.0007  0.0000  0.0000  0.0000  0.0000
   4. Cl 1 (py)     0.1961  0.0000 -0.0007  0.0017  0.0000  0.0000  0.0000  0.0000
   5. Cl 1 (pz)     0.0000 -0.1125  0.0000  0.0000 -0.1363  0.0000  0.0000  0.0000
   6. Cl 1 (s)      0.0000 -1.2338  0.0000  0.0000 -0.3133  0.0000  0.0000  0.0000
   7. Cl 1 (px)     0.1985  0.0000 -0.0254 -0.0113  0.0000  0.0000  0.0000  0.0000
   8. Cl 1 (py)    -0.7865  0.0000  0.0113 -0.0254  0.0000  0.0000  0.0000  0.0000
   9. Cl 1 (pz)     0.0000  0.4495  0.0000  0.0000  0.5390  0.0000  0.0000  0.0000
  10. Cl 1 (s)      0.0000  2.5163  0.0000  0.0000  0.1338  0.0000  0.0000  0.0000
  11. Cl 1 (px)    -0.2641  0.0000  0.0848  0.0379  0.0000  0.0000  0.0000  0.0000
  12. Cl 1 (py)     1.0463  0.0000 -0.0379  0.0848  0.0000  0.0000  0.0000  0.0000
  13. Cl 1 (pz)     0.0000 -1.5679  0.0000  0.0000 -0.4401  0.0000  0.0000  0.0000
  14. Cl 1 (d5)     0.0000 -0.1246  0.0000  0.0000  0.5880  0.0000  0.0000  0.0000
  15. Cl 1 (d2)    -0.0220  0.0000  0.6329  0.2827  0.0000  0.0000  0.0000  0.0000
  16. Cl 1 (d3)     0.0872  0.0000 -0.2827  0.6329  0.0000  0.0000  0.0000  0.0000
  17. Cl 1 (d4)     0.0000  0.0000  0.0000  0.0000  0.0000  0.6601  0.2492 -0.0619
  18. Cl 1 (d1)     0.0000  0.0000  0.0000  0.0000  0.0000 -0.2492  0.6601  0.7059
  19. Cl 2 (s)      0.0000  0.0488  0.0000  0.0000 -0.0157  0.0000  0.0000  0.0000
  20. Cl 2 (s)      0.0000 -0.0224  0.0000  0.0000  0.0324  0.0000  0.0000  0.0000
  21. Cl 2 (px)     0.0495  0.0000  0.0017  0.0007  0.0000  0.0000  0.0000  0.0000
  22. Cl 2 (py)    -0.1961  0.0000 -0.0007  0.0017  0.0000  0.0000  0.0000  0.0000
  23. Cl 2 (pz)     0.0000 -0.1125  0.0000  0.0000  0.1363  0.0000  0.0000  0.0000
  24. Cl 2 (s)      0.0000  1.2338  0.0000  0.0000 -0.3133  0.0000  0.0000  0.0000
  25. Cl 2 (px)    -0.1985  0.0000 -0.0254 -0.0113  0.0000  0.0000  0.0000  0.0000
  26. Cl 2 (py)     0.7865  0.0000  0.0113 -0.0254  0.0000  0.0000  0.0000  0.0000
  27. Cl 2 (pz)     0.0000  0.4495  0.0000  0.0000 -0.5390  0.0000  0.0000  0.0000
  28. Cl 2 (s)      0.0000 -2.5163  0.0000  0.0000  0.1338  0.0000  0.0000  0.0000
  29. Cl 2 (px)     0.2641  0.0000  0.0848  0.0379  0.0000  0.0000  0.0000  0.0000
  30. Cl 2 (py)    -1.0463  0.0000 -0.0379  0.0848  0.0000  0.0000  0.0000  0.0000
  31. Cl 2 (pz)     0.0000 -1.5679  0.0000  0.0000  0.4401  0.0000  0.0000  0.0000
  32. Cl 2 (d5)     0.0000  0.1246  0.0000  0.0000  0.5880  0.0000  0.0000  0.0000
  33. Cl 2 (d2)    -0.0220  0.0000 -0.6329 -0.2827  0.0000  0.0000  0.0000  0.0000
  34. Cl 2 (d3)     0.0872  0.0000  0.2827 -0.6329  0.0000  0.0000  0.0000  0.0000
  35. Cl 2 (d4)     0.0000  0.0000  0.0000  0.0000  0.0000  0.6601  0.2492  0.0619
  36. Cl 2 (d1)     0.0000  0.0000  0.0000  0.0000  0.0000 -0.2492  0.6601 -0.7059

           AO         33      34      35      36
      ------------ ------- ------- ------- -------
   1. Cl 1 (s)      0.0000  0.0000  0.0000 -0.0134
   2. Cl 1 (s)      0.0000  0.0000  0.0000 -0.0416
   3. Cl 1 (px)     0.0000  0.0031 -0.0277  0.0000
   4. Cl 1 (py)     0.0000 -0.0277 -0.0031  0.0000
   5. Cl 1 (pz)     0.0000  0.0000  0.0000  0.0229
   6. Cl 1 (s)      0.0000  0.0000  0.0000 -0.5111
   7. Cl 1 (px)     0.0000 -0.0151  0.1345  0.0000
   8. Cl 1 (py)     0.0000  0.1345  0.0151  0.0000
   9. Cl 1 (pz)     0.0000  0.0000  0.0000 -0.0105
  10. Cl 1 (s)      0.0000  0.0000  0.0000  1.3961
  11. Cl 1 (px)     0.0000  0.0300 -0.2672  0.0000
  12. Cl 1 (py)     0.0000 -0.2672 -0.0300  0.0000
  13. Cl 1 (pz)     0.0000  0.0000  0.0000 -0.9236
  14. Cl 1 (d5)     0.0000  0.0000  0.0000  0.7949
  15. Cl 1 (d2)     0.0000 -0.0806  0.7176  0.0000
  16. Cl 1 (d3)     0.0000  0.7176  0.0806  0.0000
  17. Cl 1 (d4)     0.7059  0.0000  0.0000  0.0000
  18. Cl 1 (d1)     0.0619  0.0000  0.0000  0.0000
  19. Cl 2 (s)      0.0000  0.0000  0.0000  0.0134
  20. Cl 2 (s)      0.0000  0.0000  0.0000  0.0416
  21. Cl 2 (px)     0.0000 -0.0031  0.0277  0.0000
  22. Cl 2 (py)     0.0000  0.0277  0.0031  0.0000
  23. Cl 2 (pz)     0.0000  0.0000  0.0000  0.0229
  24. Cl 2 (s)      0.0000  0.0000  0.0000  0.5111
  25. Cl 2 (px)     0.0000  0.0151 -0.1345  0.0000
  26. Cl 2 (py)     0.0000 -0.1345 -0.0151  0.0000
  27. Cl 2 (pz)     0.0000  0.0000  0.0000 -0.0105
  28. Cl 2 (s)      0.0000  0.0000  0.0000 -1.3961
  29. Cl 2 (px)     0.0000 -0.0300  0.2672  0.0000
  30. Cl 2 (py)     0.0000  0.2672  0.0300  0.0000
  31. Cl 2 (pz)     0.0000  0.0000  0.0000 -0.9236
  32. Cl 2 (d5)     0.0000  0.0000  0.0000 -0.7949
  33. Cl 2 (d2)     0.0000 -0.0806  0.7176  0.0000
  34. Cl 2 (d3)     0.0000  0.7176  0.0806  0.0000
  35. Cl 2 (d4)    -0.7059  0.0000  0.0000  0.0000
  36. Cl 2 (d1)    -0.0619  0.0000  0.0000  0.0000


 AO overlap matrix:

           AO          1       2       3       4       5       6       7       8
      ------------ ------- ------- ------- ------- ------- ------- ------- -------
   1. Cl 1 (s)      1.0000  0.2672  0.0000  0.0000  0.0000  0.0112  0.0000  0.0000
   2. Cl 1 (s)      0.2672  1.0000  0.0000  0.0000  0.0000  0.3358  0.0000  0.0000
   3. Cl 1 (px)     0.0000  0.0000  1.0000  0.0000  0.0000  0.0000  0.3254  0.0000
   4. Cl 1 (py)     0.0000  0.0000  0.0000  1.0000  0.0000  0.0000  0.0000  0.3254
   5. Cl 1 (pz)     0.0000  0.0000  0.0000  0.0000  1.0000  0.0000  0.0000  0.0000
   6. Cl 1 (s)      0.0112  0.3358  0.0000  0.0000  0.0000  1.0000  0.0000  0.0000
   7. Cl 1 (px)     0.0000  0.0000  0.3254  0.0000  0.0000  0.0000  1.0000  0.0000
   8. Cl 1 (py)     0.0000  0.0000  0.0000  0.3254  0.0000  0.0000  0.0000  1.0000
   9. Cl 1 (pz)     0.0000  0.0000  0.0000  0.0000  0.3254  0.0000  0.0000  0.0000
  10. Cl 1 (s)      0.0341  0.2556  0.0000  0.0000  0.0000  0.8259  0.0000  0.0000
  11. Cl 1 (px)     0.0000  0.0000  0.0714  0.0000  0.0000  0.0000  0.6243  0.0000
  12. Cl 1 (py)     0.0000  0.0000  0.0000  0.0714  0.0000  0.0000  0.0000  0.6243
  13. Cl 1 (pz)     0.0000  0.0000  0.0000  0.0000  0.0714  0.0000  0.0000  0.0000
  14. Cl 1 (d5)     0.0000  0.0000  0.0000  0.0000  0.0000  0.0000  0.0000  0.0000
  15. Cl 1 (d2)     0.0000  0.0000  0.0000  0.0000  0.0000  0.0000  0.0000  0.0000
  16. Cl 1 (d3)     0.0000  0.0000  0.0000  0.0000  0.0000  0.0000  0.0000  0.0000
  17. Cl 1 (d4)     0.0000  0.0000  0.0000  0.0000  0.0000  0.0000  0.0000  0.0000
  18. Cl 1 (d1)     0.0000  0.0000  0.0000  0.0000  0.0000  0.0000  0.0000  0.0000
  19. Cl 2 (s)      0.0000  0.0000  0.0000  0.0000  0.0000  0.0002  0.0000  0.0000
  20. Cl 2 (s)      0.0000  0.0000  0.0000  0.0000  0.0000  0.0026  0.0000  0.0000
  21. Cl 2 (px)     0.0000  0.0000  0.0000  0.0000  0.0000  0.0000  0.0008  0.0000
  22. Cl 2 (py)     0.0000  0.0000  0.0000  0.0000  0.0000  0.0000  0.0000  0.0008
  23. Cl 2 (pz)     0.0000  0.0000  0.0000  0.0000  0.0000  0.0028  0.0000  0.0000
  24. Cl 2 (s)      0.0002  0.0026  0.0000  0.0000 -0.0028  0.0534  0.0000  0.0000
  25. Cl 2 (px)     0.0000  0.0000  0.0008  0.0000  0.0000  0.0000  0.0304  0.0000
  26. Cl 2 (py)     0.0000  0.0000  0.0000  0.0008  0.0000  0.0000  0.0000  0.0304
  27. Cl 2 (pz)     0.0007  0.0079  0.0000  0.0000 -0.0076  0.0993  0.0000  0.0000
  28. Cl 2 (s)      0.0043  0.0356  0.0000  0.0000 -0.0142  0.1795  0.0000  0.0000
  29. Cl 2 (px)     0.0000  0.0000  0.0099  0.0000  0.0000  0.0000  0.1279  0.0000
  30. Cl 2 (py)     0.0000  0.0000  0.0000  0.0099  0.0000  0.0000  0.0000  0.1279
  31. Cl 2 (pz)     0.0124  0.0975  0.0000  0.0000 -0.0292  0.3820  0.0000  0.0000
  32. Cl 2 (d5)     0.0001  0.0020  0.0000  0.0000 -0.0028  0.0653  0.0000  0.0000
  33. Cl 2 (d2)     0.0000  0.0000  0.0003  0.0000  0.0000  0.0000  0.0337  0.0000
  34. Cl 2 (d3)     0.0000  0.0000  0.0000  0.0003  0.0000  0.0000  0.0000  0.0337
  35. Cl 2 (d4)     0.0000  0.0000  0.0000  0.0000  0.0000  0.0000  0.0000  0.0000
  36. Cl 2 (d1)     0.0000  0.0000  0.0000  0.0000  0.0000  0.0000  0.0000  0.0000

           AO          9      10      11      12      13      14      15      16
      ------------ ------- ------- ------- ------- ------- ------- ------- -------
   1. Cl 1 (s)      0.0000  0.0341  0.0000  0.0000  0.0000  0.0000  0.0000  0.0000
   2. Cl 1 (s)      0.0000  0.2556  0.0000  0.0000  0.0000  0.0000  0.0000  0.0000
   3. Cl 1 (px)     0.0000  0.0000  0.0714  0.0000  0.0000  0.0000  0.0000  0.0000
   4. Cl 1 (py)     0.0000  0.0000  0.0000  0.0714  0.0000  0.0000  0.0000  0.0000
   5. Cl 1 (pz)     0.3254  0.0000  0.0000  0.0000  0.0714  0.0000  0.0000  0.0000
   6. Cl 1 (s)      0.0000  0.8259  0.0000  0.0000  0.0000  0.0000  0.0000  0.0000
   7. Cl 1 (px)     0.0000  0.0000  0.6243  0.0000  0.0000  0.0000  0.0000  0.0000
   8. Cl 1 (py)     0.0000  0.0000  0.0000  0.6243  0.0000  0.0000  0.0000  0.0000
   9. Cl 1 (pz)     1.0000  0.0000  0.0000  0.0000  0.6243  0.0000  0.0000  0.0000
  10. Cl 1 (s)      0.0000  1.0000  0.0000  0.0000  0.0000  0.0000  0.0000  0.0000
  11. Cl 1 (px)     0.0000  0.0000  1.0000  0.0000  0.0000  0.0000  0.0000  0.0000
  12. Cl 1 (py)     0.0000  0.0000  0.0000  1.0000  0.0000  0.0000  0.0000  0.0000
  13. Cl 1 (pz)     0.6243  0.0000  0.0000  0.0000  1.0000  0.0000  0.0000  0.0000
  14. Cl 1 (d5)     0.0000  0.0000  0.0000  0.0000  0.0000  1.0000  0.0000  0.0000
  15. Cl 1 (d2)     0.0000  0.0000  0.0000  0.0000  0.0000  0.0000  1.0000  0.0000
  16. Cl 1 (d3)     0.0000  0.0000  0.0000  0.0000  0.0000  0.0000  0.0000  1.0000
  17. Cl 1 (d4)     0.0000  0.0000  0.0000  0.0000  0.0000  0.0000  0.0000  0.0000
  18. Cl 1 (d1)     0.0000  0.0000  0.0000  0.0000  0.0000  0.0000  0.0000  0.0000
  19. Cl 2 (s)     -0.0007  0.0043  0.0000  0.0000 -0.0124  0.0001  0.0000  0.0000
  20. Cl 2 (s)     -0.0079  0.0356  0.0000  0.0000 -0.0975  0.0020  0.0000  0.0000
  21. Cl 2 (px)     0.0000  0.0000  0.0099  0.0000  0.0000  0.0000 -0.0003  0.0000
  22. Cl 2 (py)     0.0000  0.0000  0.0000  0.0099  0.0000  0.0000  0.0000 -0.0003
  23. Cl 2 (pz)    -0.0076  0.0142  0.0000  0.0000 -0.0292  0.0028  0.0000  0.0000
  24. Cl 2 (s)     -0.0993  0.1795  0.0000  0.0000 -0.3820  0.0653  0.0000  0.0000
  25. Cl 2 (px)     0.0000  0.0000  0.1279  0.0000  0.0000  0.0000 -0.0337  0.0000
  26. Cl 2 (py)     0.0000  0.0000  0.0000  0.1279  0.0000  0.0000  0.0000 -0.0337
  27. Cl 2 (pz)    -0.1664  0.1839  0.0000  0.0000 -0.2764  0.1182  0.0000  0.0000
  28. Cl 2 (s)     -0.1839  0.3555  0.0000  0.0000 -0.5113  0.0708  0.0000  0.0000
  29. Cl 2 (px)     0.0000  0.0000  0.3555  0.0000  0.0000  0.0000 -0.0852  0.0000
  30. Cl 2 (py)     0.0000  0.0000  0.0000  0.3555  0.0000  0.0000  0.0000 -0.0852
  31. Cl 2 (pz)    -0.2764  0.5113  0.0000  0.0000 -0.3799  0.0726  0.0000  0.0000
  32. Cl 2 (d5)    -0.1182  0.0708  0.0000  0.0000 -0.0726  0.1128  0.0000  0.0000
  33. Cl 2 (d2)     0.0000  0.0000  0.0852  0.0000  0.0000  0.0000 -0.0430  0.0000
  34. Cl 2 (d3)     0.0000  0.0000  0.0000  0.0852  0.0000  0.0000  0.0000 -0.0430
  35. Cl 2 (d4)     0.0000  0.0000  0.0000  0.0000  0.0000  0.0000  0.0000  0.0000
  36. Cl 2 (d1)     0.0000  0.0000  0.0000  0.0000  0.0000  0.0000  0.0000  0.0000

           AO         17      18      19      20      21      22      23      24
      ------------ ------- ------- ------- ------- ------- ------- ------- -------
   1. Cl 1 (s)      0.0000  0.0000  0.0000  0.0000  0.0000  0.0000  0.0000  0.0002
   2. Cl 1 (s)      0.0000  0.0000  0.0000  0.0000  0.0000  0.0000  0.0000  0.0026
   3. Cl 1 (px)     0.0000  0.0000  0.0000  0.0000  0.0000  0.0000  0.0000  0.0000
   4. Cl 1 (py)     0.0000  0.0000  0.0000  0.0000  0.0000  0.0000  0.0000  0.0000
   5. Cl 1 (pz)     0.0000  0.0000  0.0000  0.0000  0.0000  0.0000  0.0000 -0.0028
   6. Cl 1 (s)      0.0000  0.0000  0.0002  0.0026  0.0000  0.0000  0.0028  0.0534
   7. Cl 1 (px)     0.0000  0.0000  0.0000  0.0000  0.0008  0.0000  0.0000  0.0000
   8. Cl 1 (py)     0.0000  0.0000  0.0000  0.0000  0.0000  0.0008  0.0000  0.0000
   9. Cl 1 (pz)     0.0000  0.0000 -0.0007 -0.0079  0.0000  0.0000 -0.0076 -0.0993
  10. Cl 1 (s)      0.0000  0.0000  0.0043  0.0356  0.0000  0.0000  0.0142  0.1795
  11. Cl 1 (px)     0.0000  0.0000  0.0000  0.0000  0.0099  0.0000  0.0000  0.0000
  12. Cl 1 (py)     0.0000  0.0000  0.0000  0.0000  0.0000  0.0099  0.0000  0.0000
  13. Cl 1 (pz)     0.0000  0.0000 -0.0124 -0.0975  0.0000  0.0000 -0.0292 -0.3820
  14. Cl 1 (d5)     0.0000  0.0000  0.0001  0.0020  0.0000  0.0000  0.0028  0.0653
  15. Cl 1 (d2)     0.0000  0.0000  0.0000  0.0000 -0.0003  0.0000  0.0000  0.0000
  16. Cl 1 (d3)     0.0000  0.0000  0.0000  0.0000  0.0000 -0.0003  0.0000  0.0000
  17. Cl 1 (d4)     1.0000  0.0000  0.0000  0.0000  0.0000  0.0000  0.0000  0.0000
  18. Cl 1 (d1)     0.0000  1.0000  0.0000  0.0000  0.0000  0.0000  0.0000  0.0000
  19. Cl 2 (s)      0.0000  0.0000  1.0000  0.2672  0.0000  0.0000  0.0000  0.0112
  20. Cl 2 (s)      0.0000  0.0000  0.2672  1.0000  0.0000  0.0000  0.0000  0.3358
  21. Cl 2 (px)     0.0000  0.0000  0.0000  0.0000  1.0000  0.0000  0.0000  0.0000
  22. Cl 2 (py)     0.0000  0.0000  0.0000  0.0000  0.0000  1.0000  0.0000  0.0000
  23. Cl 2 (pz)     0.0000  0.0000  0.0000  0.0000  0.0000  0.0000  1.0000  0.0000
  24. Cl 2 (s)      0.0000  0.0000  0.0112  0.3358  0.0000  0.0000  0.0000  1.0000
  25. Cl 2 (px)     0.0000  0.0000  0.0000  0.0000  0.3254  0.0000  0.0000  0.0000
  26. Cl 2 (py)     0.0000  0.0000  0.0000  0.0000  0.0000  0.3254  0.0000  0.0000
  27. Cl 2 (pz)     0.0000  0.0000  0.0000  0.0000  0.0000  0.0000  0.3254  0.0000
  28. Cl 2 (s)      0.0000  0.0000  0.0341  0.2556  0.0000  0.0000  0.0000  0.8259
  29. Cl 2 (px)     0.0000  0.0000  0.0000  0.0000  0.0714  0.0000  0.0000  0.0000
  30. Cl 2 (py)     0.0000  0.0000  0.0000  0.0000  0.0000  0.0714  0.0000  0.0000
  31. Cl 2 (pz)     0.0000  0.0000  0.0000  0.0000  0.0000  0.0000  0.0714  0.0000
  32. Cl 2 (d5)     0.0000  0.0000  0.0000  0.0000  0.0000  0.0000  0.0000  0.0000
  33. Cl 2 (d2)     0.0000  0.0000  0.0000  0.0000  0.0000  0.0000  0.0000  0.0000
  34. Cl 2 (d3)     0.0000  0.0000  0.0000  0.0000  0.0000  0.0000  0.0000  0.0000
  35. Cl 2 (d4)     0.0043  0.0000  0.0000  0.0000  0.0000  0.0000  0.0000  0.0000
  36. Cl 2 (d1)     0.0000  0.0043  0.0000  0.0000  0.0000  0.0000  0.0000  0.0000

           AO         25      26      27      28      29      30      31      32
      ------------ ------- ------- ------- ------- ------- ------- ------- -------
   1. Cl 1 (s)      0.0000  0.0000  0.0007  0.0043  0.0000  0.0000  0.0124  0.0001
   2. Cl 1 (s)      0.0000  0.0000  0.0079  0.0356  0.0000  0.0000  0.0975  0.0020
   3. Cl 1 (px)     0.0008  0.0000  0.0000  0.0000  0.0099  0.0000  0.0000  0.0000
   4. Cl 1 (py)     0.0000  0.0008  0.0000  0.0000  0.0000  0.0099  0.0000  0.0000
   5. Cl 1 (pz)     0.0000  0.0000 -0.0076 -0.0142  0.0000  0.0000 -0.0292 -0.0028
   6. Cl 1 (s)      0.0000  0.0000  0.0993  0.1795  0.0000  0.0000  0.3820  0.0653
   7. Cl 1 (px)     0.0304  0.0000  0.0000  0.0000  0.1279  0.0000  0.0000  0.0000
   8. Cl 1 (py)     0.0000  0.0304  0.0000  0.0000  0.0000  0.1279  0.0000  0.0000
   9. Cl 1 (pz)     0.0000  0.0000 -0.1664 -0.1839  0.0000  0.0000 -0.2764 -0.1182
  10. Cl 1 (s)      0.0000  0.0000  0.1839  0.3555  0.0000  0.0000  0.5113  0.0708
  11. Cl 1 (px)     0.1279  0.0000  0.0000  0.0000  0.3555  0.0000  0.0000  0.0000
  12. Cl 1 (py)     0.0000  0.1279  0.0000  0.0000  0.0000  0.3555  0.0000  0.0000
  13. Cl 1 (pz)     0.0000  0.0000 -0.2764 -0.5113  0.0000  0.0000 -0.3799 -0.0726
  14. Cl 1 (d5)     0.0000  0.0000  0.1182  0.0708  0.0000  0.0000  0.0726  0.1128
  15. Cl 1 (d2)    -0.0337  0.0000  0.0000  0.0000 -0.0852  0.0000  0.0000  0.0000
  16. Cl 1 (d3)     0.0000 -0.0337  0.0000  0.0000  0.0000 -0.0852  0.0000  0.0000
  17. Cl 1 (d4)     0.0000  0.0000  0.0000  0.0000  0.0000  0.0000  0.0000  0.0000
  18. Cl 1 (d1)     0.0000  0.0000  0.0000  0.0000  0.0000  0.0000  0.0000  0.0000
  19. Cl 2 (s)      0.0000  0.0000  0.0000  0.0341  0.0000  0.0000  0.0000  0.0000
  20. Cl 2 (s)      0.0000  0.0000  0.0000  0.2556  0.0000  0.0000  0.0000  0.0000
  21. Cl 2 (px)     0.3254  0.0000  0.0000  0.0000  0.0714  0.0000  0.0000  0.0000
  22. Cl 2 (py)     0.0000  0.3254  0.0000  0.0000  0.0000  0.0714  0.0000  0.0000
  23. Cl 2 (pz)     0.0000  0.0000  0.3254  0.0000  0.0000  0.0000  0.0714  0.0000
  24. Cl 2 (s)      0.0000  0.0000  0.0000  0.8259  0.0000  0.0000  0.0000  0.0000
  25. Cl 2 (px)     1.0000  0.0000  0.0000  0.0000  0.6243  0.0000  0.0000  0.0000
  26. Cl 2 (py)     0.0000  1.0000  0.0000  0.0000  0.0000  0.6243  0.0000  0.0000
  27. Cl 2 (pz)     0.0000  0.0000  1.0000  0.0000  0.0000  0.0000  0.6243  0.0000
  28. Cl 2 (s)      0.0000  0.0000  0.0000  1.0000  0.0000  0.0000  0.0000  0.0000
  29. Cl 2 (px)     0.6243  0.0000  0.0000  0.0000  1.0000  0.0000  0.0000  0.0000
  30. Cl 2 (py)     0.0000  0.6243  0.0000  0.0000  0.0000  1.0000  0.0000  0.0000
  31. Cl 2 (pz)     0.0000  0.0000  0.6243  0.0000  0.0000  0.0000  1.0000  0.0000
  32. Cl 2 (d5)     0.0000  0.0000  0.0000  0.0000  0.0000  0.0000  0.0000  1.0000
  33. Cl 2 (d2)     0.0000  0.0000  0.0000  0.0000  0.0000  0.0000  0.0000  0.0000
  34. Cl 2 (d3)     0.0000  0.0000  0.0000  0.0000  0.0000  0.0000  0.0000  0.0000
  35. Cl 2 (d4)     0.0000  0.0000  0.0000  0.0000  0.0000  0.0000  0.0000  0.0000
  36. Cl 2 (d1)     0.0000  0.0000  0.0000  0.0000  0.0000  0.0000  0.0000  0.0000

           AO         33      34      35      36
      ------------ ------- ------- ------- -------
   1. Cl 1 (s)      0.0000  0.0000  0.0000  0.0000
   2. Cl 1 (s)      0.0000  0.0000  0.0000  0.0000
   3. Cl 1 (px)     0.0003  0.0000  0.0000  0.0000
   4. Cl 1 (py)     0.0000  0.0003  0.0000  0.0000
   5. Cl 1 (pz)     0.0000  0.0000  0.0000  0.0000
   6. Cl 1 (s)      0.0000  0.0000  0.0000  0.0000
   7. Cl 1 (px)     0.0337  0.0000  0.0000  0.0000
   8. Cl 1 (py)     0.0000  0.0337  0.0000  0.0000
   9. Cl 1 (pz)     0.0000  0.0000  0.0000  0.0000
  10. Cl 1 (s)      0.0000  0.0000  0.0000  0.0000
  11. Cl 1 (px)     0.0852  0.0000  0.0000  0.0000
  12. Cl 1 (py)     0.0000  0.0852  0.0000  0.0000
  13. Cl 1 (pz)     0.0000  0.0000  0.0000  0.0000
  14. Cl 1 (d5)     0.0000  0.0000  0.0000  0.0000
  15. Cl 1 (d2)    -0.0430  0.0000  0.0000  0.0000
  16. Cl 1 (d3)     0.0000 -0.0430  0.0000  0.0000
  17. Cl 1 (d4)     0.0000  0.0000  0.0043  0.0000
  18. Cl 1 (d1)     0.0000  0.0000  0.0000  0.0043
  19. Cl 2 (s)      0.0000  0.0000  0.0000  0.0000
  20. Cl 2 (s)      0.0000  0.0000  0.0000  0.0000
  21. Cl 2 (px)     0.0000  0.0000  0.0000  0.0000
  22. Cl 2 (py)     0.0000  0.0000  0.0000  0.0000
  23. Cl 2 (pz)     0.0000  0.0000  0.0000  0.0000
  24. Cl 2 (s)      0.0000  0.0000  0.0000  0.0000
  25. Cl 2 (px)     0.0000  0.0000  0.0000  0.0000
  26. Cl 2 (py)     0.0000  0.0000  0.0000  0.0000
  27. Cl 2 (pz)     0.0000  0.0000  0.0000  0.0000
  28. Cl 2 (s)      0.0000  0.0000  0.0000  0.0000
  29. Cl 2 (px)     0.0000  0.0000  0.0000  0.0000
  30. Cl 2 (py)     0.0000  0.0000  0.0000  0.0000
  31. Cl 2 (pz)     0.0000  0.0000  0.0000  0.0000
  32. Cl 2 (d5)     0.0000  0.0000  0.0000  0.0000
  33. Cl 2 (d2)     1.0000  0.0000  0.0000  0.0000
  34. Cl 2 (d3)     0.0000  1.0000  0.0000  0.0000
  35. Cl 2 (d4)     0.0000  0.0000  1.0000  0.0000
  36. Cl 2 (d1)     0.0000  0.0000  0.0000  1.0000


 AO bond-order matrix:

           AO          1       2       3       4       5       6       7       8
      ------------ ------- ------- ------- ------- ------- ------- ------- -------
   1. Cl 1 (s)      2.1645 -0.6293  0.0000  0.0000 -0.0052  0.1056  0.0000  0.0000
   2. Cl 1 (s)     -0.6293  2.4132  0.0000  0.0000  0.0233 -0.5297  0.0000  0.0000
   3. Cl 1 (px)     0.0000  0.0000  2.1387  0.0000  0.0000  0.0000 -0.3896  0.0000
   4. Cl 1 (py)     0.0000  0.0000  0.0000  2.1387  0.0000  0.0000  0.0000 -0.3896
   5. Cl 1 (pz)    -0.0052  0.0233  0.0000  0.0000  2.0554 -0.0517  0.0000  0.0000
   6. Cl 1 (s)      0.1056 -0.5297  0.0000  0.0000 -0.0517  1.1612  0.0000  0.0000
   7. Cl 1 (px)     0.0000  0.0000 -0.3896  0.0000  0.0000  0.0000  1.1252  0.0000
   8. Cl 1 (py)     0.0000  0.0000  0.0000 -0.3896  0.0000  0.0000  0.0000  1.1252
   9. Cl 1 (pz)     0.0136 -0.0606  0.0000  0.0000 -0.1690  0.1275  0.0000  0.0000
  10. Cl 1 (s)      0.0682 -0.2834  0.0000  0.0000 -0.0480  0.5416  0.0000  0.0000
  11. Cl 1 (px)     0.0000  0.0000 -0.2385  0.0000  0.0000  0.0000  0.6013  0.0000
  12. Cl 1 (py)     0.0000  0.0000  0.0000 -0.2385  0.0000  0.0000  0.0000  0.6013
  13. Cl 1 (pz)     0.0016 -0.0144  0.0000  0.0000 -0.0919  0.0394  0.0000  0.0000
  14. Cl 1 (d5)     0.0003 -0.0006  0.0000  0.0000  0.0274  0.0009  0.0000  0.0000
  15. Cl 1 (d2)     0.0000  0.0000  0.0058  0.0000  0.0000  0.0000 -0.0168  0.0000
  16. Cl 1 (d3)     0.0000  0.0000  0.0000  0.0058  0.0000  0.0000  0.0000 -0.0168
  17. Cl 1 (d4)     0.0000  0.0000  0.0000  0.0000  0.0000  0.0000  0.0000  0.0000
  18. Cl 1 (d1)     0.0000  0.0000  0.0000  0.0000  0.0000  0.0000  0.0000  0.0000
  19. Cl 2 (s)     -0.0004  0.0023  0.0000  0.0000  0.0029 -0.0043  0.0000  0.0000
  20. Cl 2 (s)      0.0023 -0.0111  0.0000  0.0000 -0.0131  0.0233  0.0000  0.0000
  21. Cl 2 (px)     0.0000  0.0000 -0.0116  0.0000  0.0000  0.0000  0.0340  0.0000
  22. Cl 2 (py)     0.0000  0.0000  0.0000 -0.0116  0.0000  0.0000  0.0000  0.0340
  23. Cl 2 (pz)    -0.0029  0.0131  0.0000  0.0000 -0.0808 -0.0227  0.0000  0.0000
  24. Cl 2 (s)     -0.0043  0.0233  0.0000  0.0000  0.0227 -0.0528  0.0000  0.0000
  25. Cl 2 (px)     0.0000  0.0000  0.0340  0.0000  0.0000  0.0000 -0.0991  0.0000
  26. Cl 2 (py)     0.0000  0.0000  0.0000  0.0340  0.0000  0.0000  0.0000 -0.0991
  27. Cl 2 (pz)     0.0060 -0.0267  0.0000  0.0000  0.2059  0.0443  0.0000  0.0000
  28. Cl 2 (s)     -0.0124  0.0477  0.0000  0.0000 -0.0181 -0.0880  0.0000  0.0000
  29. Cl 2 (px)     0.0000  0.0000  0.0399  0.0000  0.0000  0.0000 -0.1067  0.0000
  30. Cl 2 (py)     0.0000  0.0000  0.0000  0.0399  0.0000  0.0000  0.0000 -0.1067
  31. Cl 2 (pz)    -0.0062  0.0228  0.0000  0.0000  0.0781 -0.0444  0.0000  0.0000
  32. Cl 2 (d5)     0.0030 -0.0131  0.0000  0.0000  0.0288  0.0244  0.0000  0.0000
  33. Cl 2 (d2)     0.0000  0.0000 -0.0160  0.0000  0.0000  0.0000  0.0415  0.0000
  34. Cl 2 (d3)     0.0000  0.0000  0.0000 -0.0160  0.0000  0.0000  0.0000  0.0415
  35. Cl 2 (d4)     0.0000  0.0000  0.0000  0.0000  0.0000  0.0000  0.0000  0.0000
  36. Cl 2 (d1)     0.0000  0.0000  0.0000  0.0000  0.0000  0.0000  0.0000  0.0000

           AO          9      10      11      12      13      14      15      16
      ------------ ------- ------- ------- ------- ------- ------- ------- -------
   1. Cl 1 (s)      0.0136  0.0682  0.0000  0.0000  0.0016  0.0003  0.0000  0.0000
   2. Cl 1 (s)     -0.0606 -0.2834  0.0000  0.0000 -0.0144 -0.0006  0.0000  0.0000
   3. Cl 1 (px)     0.0000  0.0000 -0.2385  0.0000  0.0000  0.0000  0.0058  0.0000
   4. Cl 1 (py)     0.0000  0.0000  0.0000 -0.2385  0.0000  0.0000  0.0000  0.0058
   5. Cl 1 (pz)    -0.1690 -0.0480  0.0000  0.0000 -0.0919  0.0274  0.0000  0.0000
   6. Cl 1 (s)      0.1275  0.5416  0.0000  0.0000  0.0394  0.0009  0.0000  0.0000
   7. Cl 1 (px)     0.0000  0.0000  0.6013  0.0000  0.0000  0.0000 -0.0168  0.0000
   8. Cl 1 (py)     0.0000  0.0000  0.0000  0.6013  0.0000  0.0000  0.0000 -0.0168
   9. Cl 1 (pz)     0.5490  0.1320  0.0000  0.0000  0.2014 -0.0726  0.0000  0.0000
  10. Cl 1 (s)      0.1320  0.2660  0.0000  0.0000  0.0420 -0.0104  0.0000  0.0000
  11. Cl 1 (px)     0.0000  0.0000  0.3244  0.0000  0.0000  0.0000 -0.0069  0.0000
  12. Cl 1 (py)     0.0000  0.0000  0.0000  0.3244  0.0000  0.0000  0.0000 -0.0069
  13. Cl 1 (pz)     0.2014  0.0420  0.0000  0.0000  0.0776 -0.0258  0.0000  0.0000
  14. Cl 1 (d5)    -0.0726 -0.0104  0.0000  0.0000 -0.0258  0.0102  0.0000  0.0000
  15. Cl 1 (d2)     0.0000  0.0000 -0.0069  0.0000  0.0000  0.0000  0.0019  0.0000
  16. Cl 1 (d3)     0.0000  0.0000  0.0000 -0.0069  0.0000  0.0000  0.0000  0.0019
  17. Cl 1 (d4)     0.0000  0.0000  0.0000  0.0000  0.0000  0.0000  0.0000  0.0000
  18. Cl 1 (d1)     0.0000  0.0000  0.0000  0.0000  0.0000  0.0000  0.0000  0.0000
  19. Cl 2 (s)     -0.0060 -0.0124  0.0000  0.0000  0.0062  0.0030  0.0000  0.0000
  20. Cl 2 (s)      0.0267  0.0477  0.0000  0.0000 -0.0228 -0.0131  0.0000  0.0000
  21. Cl 2 (px)     0.0000  0.0000  0.0399  0.0000  0.0000  0.0000  0.0160  0.0000
  22. Cl 2 (py)     0.0000  0.0000  0.0000  0.0399  0.0000  0.0000  0.0000  0.0160
  23. Cl 2 (pz)     0.2059  0.0181  0.0000  0.0000  0.0781 -0.0288  0.0000  0.0000
  24. Cl 2 (s)     -0.0443 -0.0880  0.0000  0.0000  0.0444  0.0244  0.0000  0.0000
  25. Cl 2 (px)     0.0000  0.0000 -0.1067  0.0000  0.0000  0.0000 -0.0415  0.0000
  26. Cl 2 (py)     0.0000  0.0000  0.0000 -0.1067  0.0000  0.0000  0.0000 -0.0415
  27. Cl 2 (pz)    -0.5235 -0.0425  0.0000  0.0000 -0.2024  0.0692  0.0000  0.0000
  28. Cl 2 (s)      0.0425 -0.0615  0.0000  0.0000  0.0448  0.0018  0.0000  0.0000
  29. Cl 2 (px)     0.0000  0.0000 -0.0856  0.0000  0.0000  0.0000 -0.0212  0.0000
  30. Cl 2 (py)     0.0000  0.0000  0.0000 -0.0856  0.0000  0.0000  0.0000 -0.0212
  31. Cl 2 (pz)    -0.2024 -0.0448  0.0000  0.0000 -0.0774  0.0259  0.0000  0.0000
  32. Cl 2 (d5)    -0.0692  0.0018  0.0000  0.0000 -0.0259  0.0098  0.0000  0.0000
  33. Cl 2 (d2)     0.0000  0.0000  0.0212  0.0000  0.0000  0.0000 -0.0014  0.0000
  34. Cl 2 (d3)     0.0000  0.0000  0.0000  0.0212  0.0000  0.0000  0.0000 -0.0014
  35. Cl 2 (d4)     0.0000  0.0000  0.0000  0.0000  0.0000  0.0000  0.0000  0.0000
  36. Cl 2 (d1)     0.0000  0.0000  0.0000  0.0000  0.0000  0.0000  0.0000  0.0000

           AO         17      18      19      20      21      22      23      24
      ------------ ------- ------- ------- ------- ------- ------- ------- -------
   1. Cl 1 (s)      0.0000  0.0000 -0.0004  0.0023  0.0000  0.0000 -0.0029 -0.0043
   2. Cl 1 (s)      0.0000  0.0000  0.0023 -0.0111  0.0000  0.0000  0.0131  0.0233
   3. Cl 1 (px)     0.0000  0.0000  0.0000  0.0000 -0.0116  0.0000  0.0000  0.0000
   4. Cl 1 (py)     0.0000  0.0000  0.0000  0.0000  0.0000 -0.0116  0.0000  0.0000
   5. Cl 1 (pz)     0.0000  0.0000  0.0029 -0.0131  0.0000  0.0000 -0.0808  0.0227
   6. Cl 1 (s)      0.0000  0.0000 -0.0043  0.0233  0.0000  0.0000 -0.0227 -0.0528
   7. Cl 1 (px)     0.0000  0.0000  0.0000  0.0000  0.0340  0.0000  0.0000  0.0000
   8. Cl 1 (py)     0.0000  0.0000  0.0000  0.0000  0.0000  0.0340  0.0000  0.0000
   9. Cl 1 (pz)     0.0000  0.0000 -0.0060  0.0267  0.0000  0.0000  0.2059 -0.0443
  10. Cl 1 (s)      0.0000  0.0000 -0.0124  0.0477  0.0000  0.0000  0.0181 -0.0880
  11. Cl 1 (px)     0.0000  0.0000  0.0000  0.0000  0.0399  0.0000  0.0000  0.0000
  12. Cl 1 (py)     0.0000  0.0000  0.0000  0.0000  0.0000  0.0399  0.0000  0.0000
  13. Cl 1 (pz)     0.0000  0.0000  0.0062 -0.0228  0.0000  0.0000  0.0781  0.0444
  14. Cl 1 (d5)     0.0000  0.0000  0.0030 -0.0131  0.0000  0.0000 -0.0288  0.0244
  15. Cl 1 (d2)     0.0000  0.0000  0.0000  0.0000  0.0160  0.0000  0.0000  0.0000
  16. Cl 1 (d3)     0.0000  0.0000  0.0000  0.0000  0.0000  0.0160  0.0000  0.0000
  17. Cl 1 (d4)     0.0000  0.0000  0.0000  0.0000  0.0000  0.0000  0.0000  0.0000
  18. Cl 1 (d1)     0.0000  0.0000  0.0000  0.0000  0.0000  0.0000  0.0000  0.0000
  19. Cl 2 (s)      0.0000  0.0000  2.1645 -0.6293  0.0000  0.0000  0.0052  0.1056
  20. Cl 2 (s)      0.0000  0.0000 -0.6293  2.4132  0.0000  0.0000 -0.0233 -0.5297
  21. Cl 2 (px)     0.0000  0.0000  0.0000  0.0000  2.1387  0.0000  0.0000  0.0000
  22. Cl 2 (py)     0.0000  0.0000  0.0000  0.0000  0.0000  2.1387  0.0000  0.0000
  23. Cl 2 (pz)     0.0000  0.0000  0.0052 -0.0233  0.0000  0.0000  2.0554  0.0517
  24. Cl 2 (s)      0.0000  0.0000  0.1056 -0.5297  0.0000  0.0000  0.0517  1.1612
  25. Cl 2 (px)     0.0000  0.0000  0.0000  0.0000 -0.3896  0.0000  0.0000  0.0000
  26. Cl 2 (py)     0.0000  0.0000  0.0000  0.0000  0.0000 -0.3896  0.0000  0.0000
  27. Cl 2 (pz)     0.0000  0.0000 -0.0136  0.0606  0.0000  0.0000 -0.1690 -0.1275
  28. Cl 2 (s)      0.0000  0.0000  0.0682 -0.2834  0.0000  0.0000  0.0480  0.5416
  29. Cl 2 (px)     0.0000  0.0000  0.0000  0.0000 -0.2385  0.0000  0.0000  0.0000
  30. Cl 2 (py)     0.0000  0.0000  0.0000  0.0000  0.0000 -0.2385  0.0000  0.0000
  31. Cl 2 (pz)     0.0000  0.0000 -0.0016  0.0144  0.0000  0.0000 -0.0919 -0.0394
  32. Cl 2 (d5)     0.0000  0.0000  0.0003 -0.0006  0.0000  0.0000 -0.0274  0.0009
  33. Cl 2 (d2)     0.0000  0.0000  0.0000  0.0000 -0.0058  0.0000  0.0000  0.0000
  34. Cl 2 (d3)     0.0000  0.0000  0.0000  0.0000  0.0000 -0.0058  0.0000  0.0000
  35. Cl 2 (d4)     0.0000  0.0000  0.0000  0.0000  0.0000  0.0000  0.0000  0.0000
  36. Cl 2 (d1)     0.0000  0.0000  0.0000  0.0000  0.0000  0.0000  0.0000  0.0000

           AO         25      26      27      28      29      30      31      32
      ------------ ------- ------- ------- ------- ------- ------- ------- -------
   1. Cl 1 (s)      0.0000  0.0000  0.0060 -0.0124  0.0000  0.0000 -0.0062  0.0030
   2. Cl 1 (s)      0.0000  0.0000 -0.0267  0.0477  0.0000  0.0000  0.0228 -0.0131
   3. Cl 1 (px)     0.0340  0.0000  0.0000  0.0000  0.0399  0.0000  0.0000  0.0000
   4. Cl 1 (py)     0.0000  0.0340  0.0000  0.0000  0.0000  0.0399  0.0000  0.0000
   5. Cl 1 (pz)     0.0000  0.0000  0.2059 -0.0181  0.0000  0.0000  0.0781  0.0288
   6. Cl 1 (s)      0.0000  0.0000  0.0443 -0.0880  0.0000  0.0000 -0.0444  0.0244
   7. Cl 1 (px)    -0.0991  0.0000  0.0000  0.0000 -0.1067  0.0000  0.0000  0.0000
   8. Cl 1 (py)     0.0000 -0.0991  0.0000  0.0000  0.0000 -0.1067  0.0000  0.0000
   9. Cl 1 (pz)     0.0000  0.0000 -0.5235  0.0425  0.0000  0.0000 -0.2024 -0.0692
  10. Cl 1 (s)      0.0000  0.0000 -0.0425 -0.0615  0.0000  0.0000 -0.0448  0.0018
  11. Cl 1 (px)    -0.1067  0.0000  0.0000  0.0000 -0.0856  0.0000  0.0000  0.0000
  12. Cl 1 (py)     0.0000 -0.1067  0.0000  0.0000  0.0000 -0.0856  0.0000  0.0000
  13. Cl 1 (pz)     0.0000  0.0000 -0.2024  0.0448  0.0000  0.0000 -0.0774 -0.0259
  14. Cl 1 (d5)     0.0000  0.0000  0.0692  0.0018  0.0000  0.0000  0.0259  0.0098
  15. Cl 1 (d2)    -0.0415  0.0000  0.0000  0.0000 -0.0212  0.0000  0.0000  0.0000
  16. Cl 1 (d3)     0.0000 -0.0415  0.0000  0.0000  0.0000 -0.0212  0.0000  0.0000
  17. Cl 1 (d4)     0.0000  0.0000  0.0000  0.0000  0.0000  0.0000  0.0000  0.0000
  18. Cl 1 (d1)     0.0000  0.0000  0.0000  0.0000  0.0000  0.0000  0.0000  0.0000
  19. Cl 2 (s)      0.0000  0.0000 -0.0136  0.0682  0.0000  0.0000 -0.0016  0.0003
  20. Cl 2 (s)      0.0000  0.0000  0.0606 -0.2834  0.0000  0.0000  0.0144 -0.0006
  21. Cl 2 (px)    -0.3896  0.0000  0.0000  0.0000 -0.2385  0.0000  0.0000  0.0000
  22. Cl 2 (py)     0.0000 -0.3896  0.0000  0.0000  0.0000 -0.2385  0.0000  0.0000
  23. Cl 2 (pz)     0.0000  0.0000 -0.1690  0.0480  0.0000  0.0000 -0.0919 -0.0274
  24. Cl 2 (s)      0.0000  0.0000 -0.1275  0.5416  0.0000  0.0000 -0.0394  0.0009
  25. Cl 2 (px)     1.1252  0.0000  0.0000  0.0000  0.6013  0.0000  0.0000  0.0000
  26. Cl 2 (py)     0.0000  1.1252  0.0000  0.0000  0.0000  0.6013  0.0000  0.0000
  27. Cl 2 (pz)     0.0000  0.0000  0.5490 -0.1320  0.0000  0.0000  0.2014  0.0726
  28. Cl 2 (s)      0.0000  0.0000 -0.1320  0.2660  0.0000  0.0000 -0.0420 -0.0104
  29. Cl 2 (px)     0.6013  0.0000  0.0000  0.0000  0.3244  0.0000  0.0000  0.0000
  30. Cl 2 (py)     0.0000  0.6013  0.0000  0.0000  0.0000  0.3244  0.0000  0.0000
  31. Cl 2 (pz)     0.0000  0.0000  0.2014 -0.0420  0.0000  0.0000  0.0776  0.0258
  32. Cl 2 (d5)     0.0000  0.0000  0.0726 -0.0104  0.0000  0.0000  0.0258  0.0102
  33. Cl 2 (d2)     0.0168  0.0000  0.0000  0.0000  0.0069  0.0000  0.0000  0.0000
  34. Cl 2 (d3)     0.0000  0.0168  0.0000  0.0000  0.0000  0.0069  0.0000  0.0000
  35. Cl 2 (d4)     0.0000  0.0000  0.0000  0.0000  0.0000  0.0000  0.0000  0.0000
  36. Cl 2 (d1)     0.0000  0.0000  0.0000  0.0000  0.0000  0.0000  0.0000  0.0000

           AO         33      34      35      36
      ------------ ------- ------- ------- -------
   1. Cl 1 (s)      0.0000  0.0000  0.0000  0.0000
   2. Cl 1 (s)      0.0000  0.0000  0.0000  0.0000
   3. Cl 1 (px)    -0.0160  0.0000  0.0000  0.0000
   4. Cl 1 (py)     0.0000 -0.0160  0.0000  0.0000
   5. Cl 1 (pz)     0.0000  0.0000  0.0000  0.0000
   6. Cl 1 (s)      0.0000  0.0000  0.0000  0.0000
   7. Cl 1 (px)     0.0415  0.0000  0.0000  0.0000
   8. Cl 1 (py)     0.0000  0.0415  0.0000  0.0000
   9. Cl 1 (pz)     0.0000  0.0000  0.0000  0.0000
  10. Cl 1 (s)      0.0000  0.0000  0.0000  0.0000
  11. Cl 1 (px)     0.0212  0.0000  0.0000  0.0000
  12. Cl 1 (py)     0.0000  0.0212  0.0000  0.0000
  13. Cl 1 (pz)     0.0000  0.0000  0.0000  0.0000
  14. Cl 1 (d5)     0.0000  0.0000  0.0000  0.0000
  15. Cl 1 (d2)    -0.0014  0.0000  0.0000  0.0000
  16. Cl 1 (d3)     0.0000 -0.0014  0.0000  0.0000
  17. Cl 1 (d4)     0.0000  0.0000  0.0000  0.0000
  18. Cl 1 (d1)     0.0000  0.0000  0.0000  0.0000
  19. Cl 2 (s)      0.0000  0.0000  0.0000  0.0000
  20. Cl 2 (s)      0.0000  0.0000  0.0000  0.0000
  21. Cl 2 (px)    -0.0058  0.0000  0.0000  0.0000
  22. Cl 2 (py)     0.0000 -0.0058  0.0000  0.0000
  23. Cl 2 (pz)     0.0000  0.0000  0.0000  0.0000
  24. Cl 2 (s)      0.0000  0.0000  0.0000  0.0000
  25. Cl 2 (px)     0.0168  0.0000  0.0000  0.0000
  26. Cl 2 (py)     0.0000  0.0168  0.0000  0.0000
  27. Cl 2 (pz)     0.0000  0.0000  0.0000  0.0000
  28. Cl 2 (s)      0.0000  0.0000  0.0000  0.0000
  29. Cl 2 (px)     0.0069  0.0000  0.0000  0.0000
  30. Cl 2 (py)     0.0000  0.0069  0.0000  0.0000
  31. Cl 2 (pz)     0.0000  0.0000  0.0000  0.0000
  32. Cl 2 (d5)     0.0000  0.0000  0.0000  0.0000
  33. Cl 2 (d2)     0.0019  0.0000  0.0000  0.0000
  34. Cl 2 (d3)     0.0000  0.0019  0.0000  0.0000
  35. Cl 2 (d4)     0.0000  0.0000  0.0000  0.0000
  36. Cl 2 (d1)     0.0000  0.0000  0.0000  0.0000


 AO density matrix:

           AO          1       2       3       4       5       6       7       8
      ------------ ------- ------- ------- ------- ------- ------- ------- -------
   1. Cl 1 (s)      2.0000  0.5344  0.0000  0.0000  0.0000  0.0218  0.0000  0.0000
   2. Cl 1 (s)      0.5344  1.9999  0.0000  0.0000  0.0000  0.6738  0.0000  0.0000
   3. Cl 1 (px)     0.0000  0.0000  1.9999  0.0000  0.0000  0.0000  0.6553  0.0000
   4. Cl 1 (py)     0.0000  0.0000  0.0000  1.9999  0.0000  0.0000  0.0000  0.6553
   5. Cl 1 (pz)     0.0000  0.0000  0.0000  0.0000  1.9996 -0.0019  0.0000  0.0000
   6. Cl 1 (s)      0.0218  0.6738  0.0000  0.0000 -0.0019  1.9279  0.0000  0.0000
   7. Cl 1 (px)     0.0000  0.0000  0.6553  0.0000  0.0000  0.0000  1.8459  0.0000
   8. Cl 1 (py)     0.0000  0.0000  0.0000  0.6553  0.0000  0.0000  0.0000  1.8459
   9. Cl 1 (pz)     0.0004 -0.0023  0.0000  0.0000  0.6672  0.0952  0.0000  0.0000
  10. Cl 1 (s)      0.0692  0.5072  0.0000  0.0000  0.0001  1.7809  0.0000  0.0000
  11. Cl 1 (px)     0.0000  0.0000  0.1344  0.0000  0.0000  0.0000  1.5405  0.0000
  12. Cl 1 (py)     0.0000  0.0000  0.0000  0.1344  0.0000  0.0000  0.0000  1.5405
  13. Cl 1 (pz)     0.0004 -0.0020  0.0000  0.0000  0.1415  0.0974  0.0000  0.0000
  14. Cl 1 (d5)     0.0000  0.0005  0.0000  0.0000  0.0026  0.0207  0.0000  0.0000
  15. Cl 1 (d2)     0.0000  0.0000 -0.0007  0.0000  0.0000  0.0000 -0.0165  0.0000
  16. Cl 1 (d3)     0.0000  0.0000  0.0000 -0.0007  0.0000  0.0000  0.0000 -0.0165
  17. Cl 1 (d4)     0.0000  0.0000  0.0000  0.0000  0.0000  0.0000  0.0000  0.0000
  18. Cl 1 (d1)     0.0000  0.0000  0.0000  0.0000  0.0000  0.0000  0.0000  0.0000
  19. Cl 2 (s)      0.0000  0.0000  0.0000  0.0000  0.0000  0.0004  0.0000  0.0000
  20. Cl 2 (s)      0.0000  0.0000  0.0000  0.0000  0.0000  0.0050  0.0000  0.0000
  21. Cl 2 (px)     0.0000  0.0000  0.0000  0.0000  0.0000  0.0000  0.0021  0.0000
  22. Cl 2 (py)     0.0000  0.0000  0.0000  0.0000  0.0000  0.0000  0.0000  0.0021
  23. Cl 2 (pz)     0.0000  0.0000  0.0000  0.0000 -0.0003  0.0034  0.0000  0.0000
  24. Cl 2 (s)      0.0004  0.0050  0.0000  0.0000 -0.0034  0.1176  0.0000  0.0000
  25. Cl 2 (px)     0.0000  0.0000  0.0021  0.0000  0.0000  0.0000  0.0400  0.0000
  26. Cl 2 (py)     0.0000  0.0000  0.0000  0.0021  0.0000  0.0000  0.0000  0.0400
  27. Cl 2 (pz)     0.0017  0.0133  0.0000  0.0000 -0.0025  0.3070  0.0000  0.0000
  28. Cl 2 (s)      0.0089  0.0703  0.0000  0.0000 -0.0282  0.3810  0.0000  0.0000
  29. Cl 2 (px)     0.0000  0.0000  0.0181  0.0000  0.0000  0.0000  0.3172  0.0000
  30. Cl 2 (py)     0.0000  0.0000  0.0000  0.0181  0.0000  0.0000  0.0000  0.3172
  31. Cl 2 (pz)     0.0255  0.1922  0.0000  0.0000 -0.0508  0.8602  0.0000  0.0000
  32. Cl 2 (d5)     0.0004  0.0029  0.0000  0.0000 -0.0053  0.1624  0.0000  0.0000
  33. Cl 2 (d2)     0.0000  0.0000 -0.0013  0.0000  0.0000  0.0000  0.1585  0.0000
  34. Cl 2 (d3)     0.0000  0.0000  0.0000 -0.0013  0.0000  0.0000  0.0000  0.1585
  35. Cl 2 (d4)     0.0000  0.0000  0.0000  0.0000  0.0000  0.0000  0.0000  0.0000
  36. Cl 2 (d1)     0.0000  0.0000  0.0000  0.0000  0.0000  0.0000  0.0000  0.0000

           AO          9      10      11      12      13      14      15      16
      ------------ ------- ------- ------- ------- ------- ------- ------- -------
   1. Cl 1 (s)      0.0004  0.0692  0.0000  0.0000  0.0004  0.0000  0.0000  0.0000
   2. Cl 1 (s)     -0.0023  0.5072  0.0000  0.0000 -0.0020  0.0005  0.0000  0.0000
   3. Cl 1 (px)     0.0000  0.0000  0.1344  0.0000  0.0000  0.0000 -0.0007  0.0000
   4. Cl 1 (py)     0.0000  0.0000  0.0000  0.1344  0.0000  0.0000  0.0000 -0.0007
   5. Cl 1 (pz)     0.6672  0.0001  0.0000  0.0000  0.1415  0.0026  0.0000  0.0000
   6. Cl 1 (s)      0.0952  1.7809  0.0000  0.0000  0.0974  0.0207  0.0000  0.0000
   7. Cl 1 (px)     0.0000  0.0000  1.5405  0.0000  0.0000  0.0000 -0.0165  0.0000
   8. Cl 1 (py)     0.0000  0.0000  0.0000  1.5405  0.0000  0.0000  0.0000 -0.0165
   9. Cl 1 (pz)     1.2757 -0.0080  0.0000  0.0000  1.1317 -0.2267  0.0000  0.0000
  10. Cl 1 (s)     -0.0080  1.6981  0.0000  0.0000 -0.0820  0.0541  0.0000  0.0000
  11. Cl 1 (px)     0.0000  0.0000  1.4286  0.0000  0.0000  0.0000 -0.0418  0.0000
  12. Cl 1 (py)     0.0000  0.0000  0.0000  1.4286  0.0000  0.0000  0.0000 -0.0418
  13. Cl 1 (pz)     1.1317 -0.0820  0.0000  0.0000  1.2912 -0.2626  0.0000  0.0000
  14. Cl 1 (d5)    -0.2267  0.0541  0.0000  0.0000 -0.2626  0.0556  0.0000  0.0000
  15. Cl 1 (d2)     0.0000  0.0000 -0.0418  0.0000  0.0000  0.0000  0.0156  0.0000
  16. Cl 1 (d3)     0.0000  0.0000  0.0000 -0.0418  0.0000  0.0000  0.0000  0.0156
  17. Cl 1 (d4)     0.0000  0.0000  0.0000  0.0000  0.0000  0.0000  0.0000  0.0000
  18. Cl 1 (d1)     0.0000  0.0000  0.0000  0.0000  0.0000  0.0000  0.0000  0.0000
  19. Cl 2 (s)     -0.0017  0.0089  0.0000  0.0000 -0.0255  0.0004  0.0000  0.0000
  20. Cl 2 (s)     -0.0133  0.0703  0.0000  0.0000 -0.1922  0.0029  0.0000  0.0000
  21. Cl 2 (px)     0.0000  0.0000  0.0181  0.0000  0.0000  0.0000  0.0013  0.0000
  22. Cl 2 (py)     0.0000  0.0000  0.0000  0.0181  0.0000  0.0000  0.0000  0.0013
  23. Cl 2 (pz)    -0.0025  0.0282  0.0000  0.0000 -0.0508  0.0053  0.0000  0.0000
  24. Cl 2 (s)     -0.3070  0.3810  0.0000  0.0000 -0.8602  0.1624  0.0000  0.0000
  25. Cl 2 (px)     0.0000  0.0000  0.3172  0.0000  0.0000  0.0000 -0.1585  0.0000
  26. Cl 2 (py)     0.0000  0.0000  0.0000  0.3172  0.0000  0.0000  0.0000 -0.1585
  27. Cl 2 (pz)    -0.9540  0.3357  0.0000  0.0000 -0.8750  0.1937  0.0000  0.0000
  28. Cl 2 (s)     -0.3357  0.6089  0.0000  0.0000 -0.8336  0.1664  0.0000  0.0000
  29. Cl 2 (px)     0.0000  0.0000  0.5397  0.0000  0.0000  0.0000 -0.1479  0.0000
  30. Cl 2 (py)     0.0000  0.0000  0.0000  0.5397  0.0000  0.0000  0.0000 -0.1479
  31. Cl 2 (pz)    -0.8750  0.8336  0.0000  0.0000 -0.7632  0.1828  0.0000  0.0000
  32. Cl 2 (d5)    -0.1937  0.1664  0.0000  0.0000 -0.1828  0.0430  0.0000  0.0000
  33. Cl 2 (d2)     0.0000  0.0000  0.1479  0.0000  0.0000  0.0000 -0.0028  0.0000
  34. Cl 2 (d3)     0.0000  0.0000  0.0000  0.1479  0.0000  0.0000  0.0000 -0.0028
  35. Cl 2 (d4)     0.0000  0.0000  0.0000  0.0000  0.0000  0.0000  0.0000  0.0000
  36. Cl 2 (d1)     0.0000  0.0000  0.0000  0.0000  0.0000  0.0000  0.0000  0.0000

           AO         17      18      19      20      21      22      23      24
      ------------ ------- ------- ------- ------- ------- ------- ------- -------
   1. Cl 1 (s)      0.0000  0.0000  0.0000  0.0000  0.0000  0.0000  0.0000  0.0004
   2. Cl 1 (s)      0.0000  0.0000  0.0000  0.0000  0.0000  0.0000  0.0000  0.0050
   3. Cl 1 (px)     0.0000  0.0000  0.0000  0.0000  0.0000  0.0000  0.0000  0.0000
   4. Cl 1 (py)     0.0000  0.0000  0.0000  0.0000  0.0000  0.0000  0.0000  0.0000
   5. Cl 1 (pz)     0.0000  0.0000  0.0000  0.0000  0.0000  0.0000 -0.0003 -0.0034
   6. Cl 1 (s)      0.0000  0.0000  0.0004  0.0050  0.0000  0.0000  0.0034  0.1176
   7. Cl 1 (px)     0.0000  0.0000  0.0000  0.0000  0.0021  0.0000  0.0000  0.0000
   8. Cl 1 (py)     0.0000  0.0000  0.0000  0.0000  0.0000  0.0021  0.0000  0.0000
   9. Cl 1 (pz)     0.0000  0.0000 -0.0017 -0.0133  0.0000  0.0000 -0.0025 -0.3070
  10. Cl 1 (s)      0.0000  0.0000  0.0089  0.0703  0.0000  0.0000  0.0282  0.3810
  11. Cl 1 (px)     0.0000  0.0000  0.0000  0.0000  0.0181  0.0000  0.0000  0.0000
  12. Cl 1 (py)     0.0000  0.0000  0.0000  0.0000  0.0000  0.0181  0.0000  0.0000
  13. Cl 1 (pz)     0.0000  0.0000 -0.0255 -0.1922  0.0000  0.0000 -0.0508 -0.8602
  14. Cl 1 (d5)     0.0000  0.0000  0.0004  0.0029  0.0000  0.0000  0.0053  0.1624
  15. Cl 1 (d2)     0.0000  0.0000  0.0000  0.0000  0.0013  0.0000  0.0000  0.0000
  16. Cl 1 (d3)     0.0000  0.0000  0.0000  0.0000  0.0000  0.0013  0.0000  0.0000
  17. Cl 1 (d4)     0.0000  0.0000  0.0000  0.0000  0.0000  0.0000  0.0000  0.0000
  18. Cl 1 (d1)     0.0000  0.0000  0.0000  0.0000  0.0000  0.0000  0.0000  0.0000
  19. Cl 2 (s)      0.0000  0.0000  2.0000  0.5344  0.0000  0.0000  0.0000  0.0218
  20. Cl 2 (s)      0.0000  0.0000  0.5344  1.9999  0.0000  0.0000  0.0000  0.6738
  21. Cl 2 (px)     0.0000  0.0000  0.0000  0.0000  1.9999  0.0000  0.0000  0.0000
  22. Cl 2 (py)     0.0000  0.0000  0.0000  0.0000  0.0000  1.9999  0.0000  0.0000
  23. Cl 2 (pz)     0.0000  0.0000  0.0000  0.0000  0.0000  0.0000  1.9996  0.0019
  24. Cl 2 (s)      0.0000  0.0000  0.0218  0.6738  0.0000  0.0000  0.0019  1.9279
  25. Cl 2 (px)     0.0000  0.0000  0.0000  0.0000  0.6553  0.0000  0.0000  0.0000
  26. Cl 2 (py)     0.0000  0.0000  0.0000  0.0000  0.0000  0.6553  0.0000  0.0000
  27. Cl 2 (pz)     0.0000  0.0000 -0.0004  0.0023  0.0000  0.0000  0.6672 -0.0952
  28. Cl 2 (s)      0.0000  0.0000  0.0692  0.5072  0.0000  0.0000 -0.0001  1.7809
  29. Cl 2 (px)     0.0000  0.0000  0.0000  0.0000  0.1344  0.0000  0.0000  0.0000
  30. Cl 2 (py)     0.0000  0.0000  0.0000  0.0000  0.0000  0.1344  0.0000  0.0000
  31. Cl 2 (pz)     0.0000  0.0000 -0.0004  0.0020  0.0000  0.0000  0.1415 -0.0974
  32. Cl 2 (d5)     0.0000  0.0000  0.0000  0.0005  0.0000  0.0000 -0.0026  0.0207
  33. Cl 2 (d2)     0.0000  0.0000  0.0000  0.0000  0.0007  0.0000  0.0000  0.0000
  34. Cl 2 (d3)     0.0000  0.0000  0.0000  0.0000  0.0000  0.0007  0.0000  0.0000
  35. Cl 2 (d4)     0.0000  0.0000  0.0000  0.0000  0.0000  0.0000  0.0000  0.0000
  36. Cl 2 (d1)     0.0000  0.0000  0.0000  0.0000  0.0000  0.0000  0.0000  0.0000

           AO         25      26      27      28      29      30      31      32
      ------------ ------- ------- ------- ------- ------- ------- ------- -------
   1. Cl 1 (s)      0.0000  0.0000  0.0017  0.0089  0.0000  0.0000  0.0255  0.0004
   2. Cl 1 (s)      0.0000  0.0000  0.0133  0.0703  0.0000  0.0000  0.1922  0.0029
   3. Cl 1 (px)     0.0021  0.0000  0.0000  0.0000  0.0181  0.0000  0.0000  0.0000
   4. Cl 1 (py)     0.0000  0.0021  0.0000  0.0000  0.0000  0.0181  0.0000  0.0000
   5. Cl 1 (pz)     0.0000  0.0000 -0.0025 -0.0282  0.0000  0.0000 -0.0508 -0.0053
   6. Cl 1 (s)      0.0000  0.0000  0.3070  0.3810  0.0000  0.0000  0.8602  0.1624
   7. Cl 1 (px)     0.0400  0.0000  0.0000  0.0000  0.3172  0.0000  0.0000  0.0000
   8. Cl 1 (py)     0.0000  0.0400  0.0000  0.0000  0.0000  0.3172  0.0000  0.0000
   9. Cl 1 (pz)     0.0000  0.0000 -0.9540 -0.3357  0.0000  0.0000 -0.8750 -0.1937
  10. Cl 1 (s)      0.0000  0.0000  0.3357  0.6089  0.0000  0.0000  0.8336  0.1664
  11. Cl 1 (px)     0.3172  0.0000  0.0000  0.0000  0.5397  0.0000  0.0000  0.0000
  12. Cl 1 (py)     0.0000  0.3172  0.0000  0.0000  0.0000  0.5397  0.0000  0.0000
  13. Cl 1 (pz)     0.0000  0.0000 -0.8750 -0.8336  0.0000  0.0000 -0.7632 -0.1828
  14. Cl 1 (d5)     0.0000  0.0000  0.1937  0.1664  0.0000  0.0000  0.1828  0.0430
  15. Cl 1 (d2)    -0.1585  0.0000  0.0000  0.0000 -0.1479  0.0000  0.0000  0.0000
  16. Cl 1 (d3)     0.0000 -0.1585  0.0000  0.0000  0.0000 -0.1479  0.0000  0.0000
  17. Cl 1 (d4)     0.0000  0.0000  0.0000  0.0000  0.0000  0.0000  0.0000  0.0000
  18. Cl 1 (d1)     0.0000  0.0000  0.0000  0.0000  0.0000  0.0000  0.0000  0.0000
  19. Cl 2 (s)      0.0000  0.0000 -0.0004  0.0692  0.0000  0.0000 -0.0004  0.0000
  20. Cl 2 (s)      0.0000  0.0000  0.0023  0.5072  0.0000  0.0000  0.0020  0.0005
  21. Cl 2 (px)     0.6553  0.0000  0.0000  0.0000  0.1344  0.0000  0.0000  0.0000
  22. Cl 2 (py)     0.0000  0.6553  0.0000  0.0000  0.0000  0.1344  0.0000  0.0000
  23. Cl 2 (pz)     0.0000  0.0000  0.6672 -0.0001  0.0000  0.0000  0.1415 -0.0026
  24. Cl 2 (s)      0.0000  0.0000 -0.0952  1.7809  0.0000  0.0000 -0.0974  0.0207
  25. Cl 2 (px)     1.8459  0.0000  0.0000  0.0000  1.5405  0.0000  0.0000  0.0000
  26. Cl 2 (py)     0.0000  1.8459  0.0000  0.0000  0.0000  1.5405  0.0000  0.0000
  27. Cl 2 (pz)     0.0000  0.0000  1.2757  0.0080  0.0000  0.0000  1.1317  0.2267
  28. Cl 2 (s)      0.0000  0.0000  0.0080  1.6981  0.0000  0.0000  0.0820  0.0541
  29. Cl 2 (px)     1.5405  0.0000  0.0000  0.0000  1.4286  0.0000  0.0000  0.0000
  30. Cl 2 (py)     0.0000  1.5405  0.0000  0.0000  0.0000  1.4286  0.0000  0.0000
  31. Cl 2 (pz)     0.0000  0.0000  1.1317  0.0820  0.0000  0.0000  1.2912  0.2626
  32. Cl 2 (d5)     0.0000  0.0000  0.2267  0.0541  0.0000  0.0000  0.2626  0.0556
  33. Cl 2 (d2)     0.0165  0.0000  0.0000  0.0000  0.0418  0.0000  0.0000  0.0000
  34. Cl 2 (d3)     0.0000  0.0165  0.0000  0.0000  0.0000  0.0418  0.0000  0.0000
  35. Cl 2 (d4)     0.0000  0.0000  0.0000  0.0000  0.0000  0.0000  0.0000  0.0000
  36. Cl 2 (d1)     0.0000  0.0000  0.0000  0.0000  0.0000  0.0000  0.0000  0.0000

           AO         33      34      35      36
      ------------ ------- ------- ------- -------
   1. Cl 1 (s)      0.0000  0.0000  0.0000  0.0000
   2. Cl 1 (s)      0.0000  0.0000  0.0000  0.0000
   3. Cl 1 (px)    -0.0013  0.0000  0.0000  0.0000
   4. Cl 1 (py)     0.0000 -0.0013  0.0000  0.0000
   5. Cl 1 (pz)     0.0000  0.0000  0.0000  0.0000
   6. Cl 1 (s)      0.0000  0.0000  0.0000  0.0000
   7. Cl 1 (px)     0.1585  0.0000  0.0000  0.0000
   8. Cl 1 (py)     0.0000  0.1585  0.0000  0.0000
   9. Cl 1 (pz)     0.0000  0.0000  0.0000  0.0000
  10. Cl 1 (s)      0.0000  0.0000  0.0000  0.0000
  11. Cl 1 (px)     0.1479  0.0000  0.0000  0.0000
  12. Cl 1 (py)     0.0000  0.1479  0.0000  0.0000
  13. Cl 1 (pz)     0.0000  0.0000  0.0000  0.0000
  14. Cl 1 (d5)     0.0000  0.0000  0.0000  0.0000
  15. Cl 1 (d2)    -0.0028  0.0000  0.0000  0.0000
  16. Cl 1 (d3)     0.0000 -0.0028  0.0000  0.0000
  17. Cl 1 (d4)     0.0000  0.0000  0.0000  0.0000
  18. Cl 1 (d1)     0.0000  0.0000  0.0000  0.0000
  19. Cl 2 (s)      0.0000  0.0000  0.0000  0.0000
  20. Cl 2 (s)      0.0000  0.0000  0.0000  0.0000
  21. Cl 2 (px)     0.0007  0.0000  0.0000  0.0000
  22. Cl 2 (py)     0.0000  0.0007  0.0000  0.0000
  23. Cl 2 (pz)     0.0000  0.0000  0.0000  0.0000
  24. Cl 2 (s)      0.0000  0.0000  0.0000  0.0000
  25. Cl 2 (px)     0.0165  0.0000  0.0000  0.0000
  26. Cl 2 (py)     0.0000  0.0165  0.0000  0.0000
  27. Cl 2 (pz)     0.0000  0.0000  0.0000  0.0000
  28. Cl 2 (s)      0.0000  0.0000  0.0000  0.0000
  29. Cl 2 (px)     0.0418  0.0000  0.0000  0.0000
  30. Cl 2 (py)     0.0000  0.0418  0.0000  0.0000
  31. Cl 2 (pz)     0.0000  0.0000  0.0000  0.0000
  32. Cl 2 (d5)     0.0000  0.0000  0.0000  0.0000
  33. Cl 2 (d2)     0.0156  0.0000  0.0000  0.0000
  34. Cl 2 (d3)     0.0000  0.0156  0.0000  0.0000
  35. Cl 2 (d4)     0.0000  0.0000  0.0000  0.0000
  36. Cl 2 (d1)     0.0000  0.0000  0.0000  0.0000


 MO density matrix:

      MO     1       2       3       4       5       6       7       8       9
     ---- ------  ------  ------  ------  ------  ------  ------  ------  ------
   1.     2.0000  0.0000  0.0000  0.0000  0.0000  0.0000  0.0000  0.0000  0.0000
   2.     0.0000  2.0000  0.0000  0.0000  0.0000  0.0000  0.0000  0.0000  0.0000
   3.     0.0000  0.0000  2.0000  0.0000  0.0000  0.0000  0.0000  0.0000  0.0000
   4.     0.0000  0.0000  0.0000  2.0000  0.0000  0.0000  0.0000  0.0000  0.0000
   5.     0.0000  0.0000  0.0000  0.0000  2.0000  0.0000  0.0000  0.0000  0.0000
   6.     0.0000  0.0000  0.0000  0.0000  0.0000  2.0000  0.0000  0.0000  0.0000
   7.     0.0000  0.0000  0.0000  0.0000  0.0000  0.0000  2.0000  0.0000  0.0000
   8.     0.0000  0.0000  0.0000  0.0000  0.0000  0.0000  0.0000  2.0000  0.0000
   9.     0.0000  0.0000  0.0000  0.0000  0.0000  0.0000  0.0000  0.0000  2.0000
  10.     0.0000  0.0000  0.0000  0.0000  0.0000  0.0000  0.0000  0.0000  0.0000
  11.     0.0000  0.0000  0.0000  0.0000  0.0000  0.0000  0.0000  0.0000  0.0000
  12.     0.0000  0.0000  0.0000  0.0000  0.0000  0.0000  0.0000  0.0000  0.0000
  13.     0.0000  0.0000  0.0000  0.0000  0.0000  0.0000  0.0000  0.0000  0.0000
  14.     0.0000  0.0000  0.0000  0.0000  0.0000  0.0000  0.0000  0.0000  0.0000
  15.     0.0000  0.0000  0.0000  0.0000  0.0000  0.0000  0.0000  0.0000  0.0000
  16.     0.0000  0.0000  0.0000  0.0000  0.0000  0.0000  0.0000  0.0000  0.0000
  17.     0.0000  0.0000  0.0000  0.0000  0.0000  0.0000  0.0000  0.0000  0.0000
  18.     0.0000  0.0000  0.0000  0.0000  0.0000  0.0000  0.0000  0.0000  0.0000
  19.     0.0000  0.0000  0.0000  0.0000  0.0000  0.0000  0.0000  0.0000  0.0000
  20.     0.0000  0.0000  0.0000  0.0000  0.0000  0.0000  0.0000  0.0000  0.0000
  21.     0.0000  0.0000  0.0000  0.0000  0.0000  0.0000  0.0000  0.0000  0.0000
  22.     0.0000  0.0000  0.0000  0.0000  0.0000  0.0000  0.0000  0.0000  0.0000
  23.     0.0000  0.0000  0.0000  0.0000  0.0000  0.0000  0.0000  0.0000  0.0000
  24.     0.0000  0.0000  0.0000  0.0000  0.0000  0.0000  0.0000  0.0000  0.0000
  25.     0.0000  0.0000  0.0000  0.0000  0.0000  0.0000  0.0000  0.0000  0.0000
  26.     0.0000  0.0000  0.0000  0.0000  0.0000  0.0000  0.0000  0.0000  0.0000
  27.     0.0000  0.0000  0.0000  0.0000  0.0000  0.0000  0.0000  0.0000  0.0000
  28.     0.0000  0.0000  0.0000  0.0000  0.0000  0.0000  0.0000  0.0000  0.0000
  29.     0.0000  0.0000  0.0000  0.0000  0.0000  0.0000  0.0000  0.0000  0.0000
  30.     0.0000  0.0000  0.0000  0.0000  0.0000  0.0000  0.0000  0.0000  0.0000
  31.     0.0000  0.0000  0.0000  0.0000  0.0000  0.0000  0.0000  0.0000  0.0000
  32.     0.0000  0.0000  0.0000  0.0000  0.0000  0.0000  0.0000  0.0000  0.0000
  33.     0.0000  0.0000  0.0000  0.0000  0.0000  0.0000  0.0000  0.0000  0.0000
  34.     0.0000  0.0000  0.0000  0.0000  0.0000  0.0000  0.0000  0.0000  0.0000
  35.     0.0000  0.0000  0.0000  0.0000  0.0000  0.0000  0.0000  0.0000  0.0000
  36.     0.0000  0.0000  0.0000  0.0000  0.0000  0.0000  0.0000  0.0000  0.0000

      MO    10      11      12      13      14      15      16      17      18
     ---- ------  ------  ------  ------  ------  ------  ------  ------  ------
   1.     0.0000  0.0000  0.0000  0.0000  0.0000  0.0000  0.0000  0.0000  0.0000
   2.     0.0000  0.0000  0.0000  0.0000  0.0000  0.0000  0.0000  0.0000  0.0000
   3.     0.0000  0.0000  0.0000  0.0000  0.0000  0.0000  0.0000  0.0000  0.0000
   4.     0.0000  0.0000  0.0000  0.0000  0.0000  0.0000  0.0000  0.0000  0.0000
   5.     0.0000  0.0000  0.0000  0.0000  0.0000  0.0000  0.0000  0.0000  0.0000
   6.     0.0000  0.0000  0.0000  0.0000  0.0000  0.0000  0.0000  0.0000  0.0000
[...]
           NBO accepted:   15. Label:LP ( 2)   2
      Eigenvector ( 8) has occupancy 1.99764
            0.0000 0.0000 0.0000 0.0000 0.0000 0.0000 0.0000 1.0000
            0.0000 0.0000 0.0000 0.0000 0.0000 0.0000 0.0000 0.0000
            0.0000 0.0000
           NBO accepted:   16. Label:LP ( 3)   2
        8 eigenvector(s) stashed in permanent list

  1-center NBOs projected from the NHO density matrix
       2.010 electrons remain (>1.900); search continues

 Search of NHO DM block for the following atom(s):   1   2
      Select eigenvectors with eigenvalue > 1.900
       2.000 0.000 0.000 0.000 0.000 0.000 0.000 0.000 0.000 0.000 0.000 0.000
       0.000 0.000 0.000 0.000 0.000 0.000 0.000 0.000 0.000 0.000 0.000 0.000
       0.000 0.000 0.000 0.000 0.000 0.000 0.000 0.000 0.000 0.000 0.000 0.000
      Eigenvector ( 1) has occupancy 2.00000
            0.0000 0.0000 0.0000 0.0000 0.0000 0.0000 0.0000 0.0000
            0.7071 0.0000 0.0000 0.0000 0.0000 0.0000 0.0000 0.0000
            0.0000 0.0000 0.0000 0.0000 0.0000 0.0000 0.0000 0.0000
            0.0000 0.0000 0.7071 0.0000 0.0000 0.0000 0.0000 0.0000
            0.0000 0.0000 0.0000 0.0000
      Occupancy is 2.000 after deleting minor hybrid components
            0.0000 0.0000 0.0000 0.0000 0.0000 0.0000 0.0000 0.0000
            0.7071 0.0000 0.0000 0.0000 0.0000 0.0000 0.0000 0.0000
            0.0000 0.0000 0.0000 0.0000 0.0000 0.0000 0.0000 0.0000
            0.0000 0.0000 0.7071 0.0000 0.0000 0.0000 0.0000 0.0000
            0.0000 0.0000 0.0000 0.0000
           NBO accepted:   17. Label:BD ( 1)   1   2
      Occupancy is 0.000 for antibonding component
            0.0000 0.0000 0.0000 0.0000 0.0000 0.0000 0.0000 0.0000
            0.7071 0.0000 0.0000 0.0000 0.0000 0.0000 0.0000 0.0000
            0.0000 0.0000 0.0000 0.0000 0.0000 0.0000 0.0000 0.0000
            0.0000 0.0000-0.7071 0.0000 0.0000 0.0000 0.0000 0.0000
            0.0000 0.0000 0.0000 0.0000
           NBO accepted:   18. Label:BD*( 1)   1   2
        2 eigenvector(s) stashed in permanent list

  2-center NBOs projected from the NHO density matrix
       0.010 electrons remain in the fully projected matrix

                            Occupancies       Lewis Structure    Low   High
         Max    Occ     -------------------  -----------------   occ   occ
  Cycle  Ctr   Thresh    Lewis   non-Lewis     CR  BD  nC  LP    (L)   (NL)
 ============================================================================
    1     2     1.90    33.99033   0.00967     10   1   0   6     0      0
 ----------------------------------------------------------------------------

 Structure accepted: No low occupancy Lewis orbitals

 -------------------------------------------------------
   Core                     19.99998 (100.000% of  20)
   Valence Lewis            13.99035 ( 99.931% of  14)
  ==================      =============================
   Total Lewis              33.99033 ( 99.972% of  34)
  -----------------------------------------------------
   Valence non-Lewis         0.00000 (  0.000% of  34)
   Rydberg non-Lewis         0.00967 (  0.028% of  34)
  ==================      =============================
   Total non-Lewis           0.00967 (  0.028% of  34)
 -------------------------------------------------------


     (Occupancy)   Bond orbital / Coefficients / Hybrids
 ------------------ Lewis ------------------------------------------------------
   1. (2.00000) CR ( 1)Cl  1            s(100.00%)
                                         1.0000  0.0000  0.0000  0.0000  0.0000
                                         0.0000  0.0000  0.0000  0.0000  0.0000
                                         0.0000  0.0000  0.0000  0.0000  0.0000
                                         0.0000  0.0000  0.0000
   2. (2.00000) CR ( 2)Cl  1            s(100.00%)
                                         0.0000  1.0000  0.0000  0.0000  0.0000
                                         0.0000  0.0000  0.0000  0.0000  0.0000
                                         0.0000  0.0000  0.0000  0.0000  0.0000
                                         0.0000  0.0000  0.0000
   3. (2.00000) CR ( 3)Cl  1            s(  0.00%)p 1.00(100.00%)
                                         0.0000  0.0000  0.0000  0.0000  1.0000
                                         0.0000  0.0000  0.0000  0.0000  0.0000
                                         0.0000  0.0000  0.0000  0.0000  0.0000
                                         0.0000  0.0000  0.0000
   4. (2.00000) CR ( 4)Cl  1            s(  0.00%)p 1.00(100.00%)
                                         0.0000  0.0000  0.0000  0.0000  0.0000
                                         0.0000  0.0000  1.0000  0.0000  0.0000
                                         0.0000  0.0000  0.0000  0.0000  0.0000
                                         0.0000  0.0000  0.0000
   5. (1.99999) CR ( 5)Cl  1            s(  0.00%)p 1.00(100.00%)
                                         0.0000  0.0000  0.0000  0.0000  0.0000
                                         0.0000  0.0000  0.0000  0.0000  0.0000
                                         1.0000  0.0000  0.0000  0.0000  0.0000
                                         0.0000  0.0000  0.0000
   6. (2.00000) CR ( 1)Cl  2            s(100.00%)
                                         1.0000  0.0000  0.0000  0.0000  0.0000
                                         0.0000  0.0000  0.0000  0.0000  0.0000
                                         0.0000  0.0000  0.0000  0.0000  0.0000
                                         0.0000  0.0000  0.0000
   7. (2.00000) CR ( 2)Cl  2            s(100.00%)
                                         0.0000  1.0000  0.0000  0.0000  0.0000
                                         0.0000  0.0000  0.0000  0.0000  0.0000
                                         0.0000  0.0000  0.0000  0.0000  0.0000
                                         0.0000  0.0000  0.0000
   8. (2.00000) CR ( 3)Cl  2            s(  0.00%)p 1.00(100.00%)
                                         0.0000  0.0000  0.0000  0.0000  1.0000
                                         0.0000  0.0000  0.0000  0.0000  0.0000
                                         0.0000  0.0000  0.0000  0.0000  0.0000
                                         0.0000  0.0000  0.0000
   9. (2.00000) CR ( 4)Cl  2            s(  0.00%)p 1.00(100.00%)
                                         0.0000  0.0000  0.0000  0.0000  0.0000
                                         0.0000  0.0000  1.0000  0.0000  0.0000
                                         0.0000  0.0000  0.0000  0.0000  0.0000
                                         0.0000  0.0000  0.0000
  10. (1.99999) CR ( 5)Cl  2            s(  0.00%)p 1.00(100.00%)
                                         0.0000  0.0000  0.0000  0.0000  0.0000
                                         0.0000  0.0000  0.0000  0.0000  0.0000
                                         1.0000  0.0000  0.0000  0.0000  0.0000
                                         0.0000  0.0000  0.0000
  11. (1.99989) LP ( 1)Cl  1            s( 93.07%)p 0.07(  6.91%)d 0.00(  0.02%)
                                         0.0000  0.0000  0.9647  0.0060  0.0000
                                         0.0000  0.0000  0.0000  0.0000  0.0000
                                         0.0000  0.2629 -0.0065  0.0000  0.0000
                                         0.0000  0.0000 -0.0135
  12. (1.99764) LP ( 2)Cl  1            s(  0.00%)p 1.00( 99.98%)d 0.00(  0.02%)
                                         0.0000  0.0000  0.0000  0.0000  0.0000
                                         0.9529  0.0118  0.0000 -0.3026 -0.0038
                                         0.0000  0.0000  0.0000  0.0000 -0.0123
                                         0.0039  0.0000  0.0000
  13. (1.99764) LP ( 3)Cl  1            s(  0.00%)p 1.00( 99.98%)d 0.00(  0.02%)
                                         0.0000  0.0000  0.0000  0.0000  0.0000
                                         0.3026  0.0038  0.0000  0.9529  0.0118
                                         0.0000  0.0000  0.0000  0.0000 -0.0039
                                        -0.0123  0.0000  0.0000
  14. (1.99989) LP ( 1)Cl  2            s( 93.07%)p 0.07(  6.91%)d 0.00(  0.02%)
                                         0.0000  0.0000  0.9647  0.0060  0.0000
                                         0.0000  0.0000  0.0000  0.0000  0.0000
                                         0.0000 -0.2629  0.0065  0.0000  0.0000
                                         0.0000  0.0000 -0.0135
  15. (1.99764) LP ( 2)Cl  2            s(  0.00%)p 1.00( 99.98%)d 0.00(  0.02%)
                                         0.0000  0.0000  0.0000  0.0000  0.0000
                                         0.9993  0.0124  0.0000  0.0335  0.0004
                                         0.0000  0.0000  0.0000  0.0000  0.0129
                                         0.0004  0.0000  0.0000
  16. (1.99764) LP ( 3)Cl  2            s(  0.00%)p 1.00( 99.98%)d 0.00(  0.02%)
                                         0.0000  0.0000  0.0000  0.0000  0.0000
                                        -0.0335 -0.0004  0.0000  0.9993  0.0124
                                         0.0000  0.0000  0.0000  0.0000 -0.0004
                                         0.0129  0.0000  0.0000
  17. (2.00000) BD ( 1)Cl  1-Cl  2
               ( 50.00%)   0.7071*Cl  1 s(  7.10%)p12.92( 91.76%)d 0.16(  1.14%)
                                         0.0000  0.0000  0.2628 -0.0441  0.0000
                                         0.0000  0.0000  0.0000  0.0000  0.0000
                                         0.0000 -0.9567  0.0482  0.0000  0.0000
                                         0.0000  0.0000  0.1069
               ( 50.00%)   0.7071*Cl  2 s(  7.10%)p12.92( 91.76%)d 0.16(  1.14%)
                                         0.0000  0.0000  0.2628 -0.0441  0.0000
                                         0.0000  0.0000  0.0000  0.0000  0.0000
                                         0.0000  0.9567 -0.0482  0.0000  0.0000
                                         0.0000  0.0000  0.1069
 ---------------- non-Lewis ----------------------------------------------------
  18. (0.00000) BD*( 1)Cl  1-Cl  2
               ( 50.00%)   0.7071*Cl  1 s(  7.10%)p12.92( 91.76%)d 0.16(  1.14%)
               ( 50.00%)  -0.7071*Cl  2 s(  7.10%)p12.92( 91.76%)d 0.16(  1.14%)
  19. (0.00236) RY ( 1)Cl  1            s(  0.00%)p 1.00( 35.31%)d 1.83( 64.69%)
                                         0.0000  0.0000  0.0000  0.0000  0.0000
                                         0.0027  0.5358  0.0000 -0.0013 -0.2569
                                         0.0000  0.0000  0.0000  0.0000  0.7252
                                        -0.3478  0.0000  0.0000
  20. (0.00236) RY ( 2)Cl  1            s(  0.00%)p 1.00( 35.31%)d 1.83( 64.69%)
                                         0.0000  0.0000  0.0000  0.0000  0.0000
                                         0.0013  0.2569  0.0000  0.0027  0.5358
                                         0.0000  0.0000  0.0000  0.0000  0.3478
                                         0.7252  0.0000  0.0000
  21. (0.00012) RY ( 3)Cl  1            s( 52.08%)p 0.70( 36.22%)d 0.22( 11.71%)
                                         0.0000  0.0000  0.0134  0.7215  0.0000
                                         0.0000  0.0000  0.0000  0.0000  0.0000
                                         0.0000 -0.0977 -0.5938  0.0000  0.0000
                                         0.0000  0.0000 -0.3421
  22. (0.00000) RY ( 4)Cl  1            s(  0.00%)p 1.00( 64.71%)d 0.55( 35.29%)
  23. (0.00000) RY ( 5)Cl  1            s(  0.00%)p 1.00( 64.71%)d 0.55( 35.29%)
  24. (0.00000) RY ( 6)Cl  1            s(  1.81%)p 8.09( 14.67%)d46.04( 83.52%)
  25. (0.00000) RY ( 7)Cl  1            s(  0.00%)p 0.00(  0.00%)d 1.00(100.00%)
  26. (0.00000) RY ( 8)Cl  1            s(  0.00%)p 0.00(  0.00%)d 1.00(100.00%)
  27. (0.00000) RY ( 9)Cl  1            s( 45.94%)p 1.10( 50.44%)d 0.08(  3.62%)
  28. (0.00236) RY ( 1)Cl  2            s(  0.00%)p 1.00( 35.31%)d 1.83( 64.69%)
                                         0.0000  0.0000  0.0000  0.0000  0.0000
                                         0.0003  0.0612  0.0000 -0.0030 -0.5911
                                         0.0000  0.0000  0.0000  0.0000 -0.0828
                                         0.8000  0.0000  0.0000
  29. (0.00236) RY ( 2)Cl  2            s(  0.00%)p 1.00( 35.31%)d 1.83( 64.69%)
                                         0.0000  0.0000  0.0000  0.0000  0.0000
                                        -0.0030 -0.5911  0.0000 -0.0003 -0.0612
                                         0.0000  0.0000  0.0000  0.0000  0.8000
                                         0.0828  0.0000  0.0000
  30. (0.00012) RY ( 3)Cl  2            s( 52.08%)p 0.70( 36.22%)d 0.22( 11.71%)
                                         0.0000  0.0000  0.0134  0.7215  0.0000
                                         0.0000  0.0000  0.0000  0.0000  0.0000
                                         0.0000  0.0977  0.5938  0.0000  0.0000
                                         0.0000  0.0000 -0.3421
  31. (0.00000) RY ( 4)Cl  2            s(  0.00%)p 1.00( 64.71%)d 0.55( 35.29%)
  32. (0.00000) RY ( 5)Cl  2            s(  0.00%)p 1.00( 64.71%)d 0.55( 35.29%)
  33. (0.00000) RY ( 6)Cl  2            s(  1.81%)p 8.09( 14.67%)d46.04( 83.52%)
  34. (0.00000) RY ( 7)Cl  2            s(  0.00%)p 0.00(  0.00%)d 1.00(100.00%)
  35. (0.00000) RY ( 8)Cl  2            s(  0.00%)p 0.00(  0.00%)d 1.00(100.00%)
  36. (0.00000) RY ( 9)Cl  2            s( 45.94%)p 1.10( 50.44%)d 0.08(  3.62%)


 NHO DIRECTIONALITY AND BOND BENDING (deviation from line of nuclear centers at
                                      the position of maximum hybrid amplitude)

         [Thresholds for printing:  angular deviation  >  1.0 degree]
                                    p- or d-character  > 25.0%
                                    orbital occupancy  >  0.10e

                        Line of Centers        Hybrid 1             Hybrid 2
                        ---------------  -------------------  ------------------
           NBO            Theta   Phi    Theta   Phi    Dev   Theta   Phi    Dev
 ===============================================================================
  12. LP ( 2)Cl  1          --     --     91.8  162.4   --      --     --    --
  13. LP ( 3)Cl  1          --     --     91.8   72.4   --      --     --    --
  15. LP ( 2)Cl  2          --     --     88.2    1.9   --      --     --    --
  16. LP ( 3)Cl  2          --     --     88.2   91.9   --      --     --    --


 SECOND ORDER PERTURBATION THEORY ANALYSIS OF FOCK MATRIX IN NBO BASIS

     Threshold for printing:   0.50 kcal/mol
                                                          E(2) E(NL)-E(L) F(L,NL)
      Donor (L) NBO              Acceptor (NL) NBO      kcal/mol   a.u.    a.u.
 ===============================================================================

 within unit  1
   12. LP ( 2)Cl  1            29. RY ( 2)Cl  2            1.75    1.40   0.044
   13. LP ( 3)Cl  1            28. RY ( 1)Cl  2            1.75    1.40   0.044
   15. LP ( 2)Cl  2            19. RY ( 1)Cl  1            1.64    1.40   0.043
   16. LP ( 3)Cl  2            20. RY ( 2)Cl  1            1.64    1.40   0.043


 NATURAL BOND ORBITALS (Summary):

                                                     Principal Delocalizations
           NBO                 Occupancy    Energy   (geminal,vicinal,remote)
 ===============================================================================
 Molecular unit  1  (Cl2)
 ------ Lewis --------------------------------------
    1. CR ( 1)Cl  1             2.00000   -97.57091
    2. CR ( 2)Cl  1             2.00000   -17.92819
    3. CR ( 3)Cl  1             2.00000    -8.08215
    4. CR ( 4)Cl  1             2.00000    -8.08215
    5. CR ( 5)Cl  1             1.99999    -8.08758
    6. CR ( 1)Cl  2             2.00000   -97.57091
    7. CR ( 2)Cl  2             2.00000   -17.92819
    8. CR ( 3)Cl  2             2.00000    -8.08215
    9. CR ( 4)Cl  2             2.00000    -8.08215
   10. CR ( 5)Cl  2             1.99999    -8.08758
   11. LP ( 1)Cl  1             1.99989    -1.03212
   12. LP ( 2)Cl  1             1.99764    -0.50820  29(v)
   13. LP ( 3)Cl  1             1.99764    -0.50820  28(v)
   14. LP ( 1)Cl  2             1.99989    -1.03212
   15. LP ( 2)Cl  2             1.99764    -0.50820  19(v)
   16. LP ( 3)Cl  2             1.99764    -0.50820  20(v)
   17. BD ( 1)Cl  1-Cl  2       2.00000    -0.77087
 ------ non-Lewis ----------------------------------
   18. BD*( 1)Cl  1-Cl  2       0.00000     0.11229
   19. RY ( 1)Cl  1             0.00236     0.89574
   20. RY ( 2)Cl  1             0.00236     0.89574
   21. RY ( 3)Cl  1             0.00012     0.60334
   22. RY ( 4)Cl  1             0.00000     0.82683
   23. RY ( 5)Cl  1             0.00000     0.82683
   24. RY ( 6)Cl  1             0.00000     1.24254
   25. RY ( 7)Cl  1             0.00000     1.10357
   26. RY ( 8)Cl  1             0.00000     1.10357
   27. RY ( 9)Cl  1             0.00000     0.60938
   28. RY ( 1)Cl  2             0.00236     0.89574
   29. RY ( 2)Cl  2             0.00236     0.89574
   30. RY ( 3)Cl  2             0.00012     0.60334
   31. RY ( 4)Cl  2             0.00000     0.82683
   32. RY ( 5)Cl  2             0.00000     0.82683
   33. RY ( 6)Cl  2             0.00000     1.24254
   34. RY ( 7)Cl  2             0.00000     1.10357
   35. RY ( 8)Cl  2             0.00000     1.10357
   36. RY ( 9)Cl  2             0.00000     0.60938
          -------------------------------
                 Total Lewis   33.99033  ( 99.9716%)
           Valence non-Lewis    0.00000  (  0.0000%)
           Rydberg non-Lewis    0.00967  (  0.0284%)
          -------------------------------
               Total unit  1   34.00000  (100.0000%)
              Charge unit  1    0.00000

 $CHOOSE
   LONE 1 3 2 3 END
   BOND S 1 2 END
 $END

 NBO analysis completed in 0.43 CPU seconds (0 wall seconds)
 Maximum scratch memory used by NBO was 363523 words (2.77 MB)
 Maximum scratch memory used by G16NBO was 10274 words (0.08 MB)

 Opening RunExU unformatted file "/cluster/work/users/beto93/mol43/Gau-671143.EUF"
 Read unf file /cluster/work/users/beto93/mol43/Gau-671143.EUF:
 Label Gaussian matrix elements                                         IVers= 2 NLab= 2 Version=ES64L-G16RevC.01
 Title mol43-NBO                                                       
 NAtoms=     2 NBasis=    36 NBsUse=    36 ICharg=     0 Multip=     1 NE=    34 Len12L=8 Len4L=8 IOpCl= 0 ICGU=111
 GAUSSIAN SCALARS                    NI= 1 NR= 1 NTot=       1 LenBuf=    2 NRI=1 N=    1000
 NPA CHARGES                         NI= 0 NR= 1 NTot=       2 LenBuf= 4000 NRI=1 N=       2
 Recovered energy= -918.909091581     dipole=     -0.000000000000      0.000000000000      0.000000000000
 Unable to Open any file for archive entry.
 1\1\GINC-C1-40\SP\RHF\6-31G(d)\Cl2\BETO93\18-Nov-2024\0\\#RHF/6-31G* i
 nt=nobasistransform Symmetry=None 5D 7F Pop=NBO7Read\\mol43-NBO\\0,1\C
 l,0,0.,0.,1.007541\Cl,0,0.,0.,-1.007541\\Version=ES64L-G16RevC.01\HF=-
 918.9090916\RMSD=1.782e-09\Dipole=0.,0.,0.\Quadrupole=-0.6957584,-0.69
 57584,1.3915169,0.,0.,0.\PG=Unknown\\@
 The archive entry for this job was punched.


 NOTHING WILL BE ATTEMPTED IF ALL POSSIBLE OBJECTIONS
 MUST FIRST BE OVERCOME.

                               -- THE GOLDEN PRINCIPLE,
                    PAUL DICKSON'S "THE OFFICIAL RULES"
 Job cpu time:       0 days  0 hours  0 minutes  8.0 seconds.
 Elapsed time:       0 days  0 hours  0 minutes  2.6 seconds.
 File lengths (MBytes):  RWF=     10 Int=      0 D2E=      0 Chk=      1 Scr=      1
 Normal termination of Gaussian 16 at Mon Nov 18 16:40:07 2024.
