 Entering Gaussian System, Link 0=g16
 Initial command:
 /cluster/software/Gaussian/g16_C.01/l1.exe "/cluster/work/users/beto93/mol12/Gau-2207161.inp" -scrdir="/cluster/work/users/beto93/mol12/"
 Entering Link 1 = /cluster/software/Gaussian/g16_C.01/l1.exe PID=   2207164.
  
 Copyright (c) 1988-2019, Gaussian, Inc.  All Rights Reserved.
  
 This is part of the Gaussian(R) 16 program.  It is based on
 the Gaussian(R) 09 system (copyright 2009, Gaussian, Inc.),
 the Gaussian(R) 03 system (copyright 2003, Gaussian, Inc.),
 the Gaussian(R) 98 system (copyright 1998, Gaussian, Inc.),
 the Gaussian(R) 94 system (copyright 1995, Gaussian, Inc.),
 the Gaussian 92(TM) system (copyright 1992, Gaussian, Inc.),
 the Gaussian 90(TM) system (copyright 1990, Gaussian, Inc.),
 the Gaussian 88(TM) system (copyright 1988, Gaussian, Inc.),
 the Gaussian 86(TM) system (copyright 1986, Carnegie Mellon
 University), and the Gaussian 82(TM) system (copyright 1983,
 Carnegie Mellon University). Gaussian is a federally registered
 trademark of Gaussian, Inc.
  
 This software contains proprietary and confidential information,
 including trade secrets, belonging to Gaussian, Inc.
  
 This software is provided under written license and may be
 used, copied, transmitted, or stored only in accord with that
 written license.
  
 The following legend is applicable only to US Government
 contracts under FAR:
  
                    RESTRICTED RIGHTS LEGEND
  
 Use, reproduction and disclosure by the US Government is
 subject to restrictions as set forth in subparagraphs (a)
 and (c) of the Commercial Computer Software - Restricted
 Rights clause in FAR 52.227-19.
  
 Gaussian, Inc.
 340 Quinnipiac St., Bldg. 40, Wallingford CT 06492
  
  
 ---------------------------------------------------------------
 Warning -- This program may not be used in any manner that
 competes with the business of Gaussian, Inc. or will provide
 assistance to any competitor of Gaussian, Inc.  The licensee
 of this program is prohibited from giving any competitor of
 Gaussian, Inc. access to this program.  By using this program,
 the user acknowledges that Gaussian, Inc. is engaged in the
 business of creating and licensing software in the field of
 computational chemistry and represents and warrants to the
 licensee that it is not a competitor of Gaussian, Inc. and that
 it will not use this program in any manner prohibited above.
 ---------------------------------------------------------------
  

 Cite this work as:
 Gaussian 16, Revision C.01,
 M. J. Frisch, G. W. Trucks, H. B. Schlegel, G. E. Scuseria, 
 M. A. Robb, J. R. Cheeseman, G. Scalmani, V. Barone, 
 G. A. Petersson, H. Nakatsuji, X. Li, M. Caricato, A. V. Marenich, 
 J. Bloino, B. G. Janesko, R. Gomperts, B. Mennucci, H. P. Hratchian, 
 J. V. Ortiz, A. F. Izmaylov, J. L. Sonnenberg, D. Williams-Young, 
 F. Ding, F. Lipparini, F. Egidi, J. Goings, B. Peng, A. Petrone, 
 T. Henderson, D. Ranasinghe, V. G. Zakrzewski, J. Gao, N. Rega, 
 G. Zheng, W. Liang, M. Hada, M. Ehara, K. Toyota, R. Fukuda, 
 J. Hasegawa, M. Ishida, T. Nakajima, Y. Honda, O. Kitao, H. Nakai, 
 T. Vreven, K. Throssell, J. A. Montgomery, Jr., J. E. Peralta, 
 F. Ogliaro, M. J. Bearpark, J. J. Heyd, E. N. Brothers, K. N. Kudin, 
 V. N. Staroverov, T. A. Keith, R. Kobayashi, J. Normand, 
 K. Raghavachari, A. P. Rendell, J. C. Burant, S. S. Iyengar, 
 J. Tomasi, M. Cossi, J. M. Millam, M. Klene, C. Adamo, R. Cammi, 
 J. W. Ochterski, R. L. Martin, K. Morokuma, O. Farkas, 
 J. B. Foresman, and D. J. Fox, Gaussian, Inc., Wallingford CT, 2019.
 
 ******************************************
 Gaussian 16:  ES64L-G16RevC.01  3-Jul-2019
                18-Nov-2024 
 ******************************************
 %LindaWorkers=c2-23-ib
 %NProcShared=4
 Will use up to    4 processors via shared memory.
 %mem=25GB
 %chk=mol12.chk
 SetLPE:    new flags="-opt 'Tsnet.Node.lindarsharg: ssh'  -nodelist 'c2-23-ib.saga' -env GAUSS_MDEF=3355443200 -env GAUSS_EXEDIR="/cluster/software/Gaussian/g16_C.01/bsd:/cluster/software/Gaussian/g16_C.01""
 Will use up to    1 processors via Linda.
 -----------------------------------------------------------------
 #RHF/6-31G* int=nobasistransform Symmetry=None 5D 7F Pop=NBO7Read
 -----------------------------------------------------------------
 1/38=1,163=2,172=1/1;
 2/12=2,15=3,17=6,18=5,40=1/2;
 3/5=1,6=6,7=1,8=11,11=1,25=1,30=1,60=-1,116=1/1,2,3;
 4//1;
 5/5=2,38=5/2;
 6/7=2,8=2,9=2,10=2,28=1,40=2,113=1,114=1,124=2103/1,12;
 99/5=1,9=1/99;
 ---------
 mol12-NBO
 ---------
 Symbolic Z-matrix:
 Charge =  0 Multiplicity = 1
 F                     0.        0.        0.09339 
 H                     0.        0.       -0.8405 
 
                          Input orientation:                          
 ---------------------------------------------------------------------
 Center     Atomic      Atomic             Coordinates (Angstroms)
 Number     Number       Type             X           Y           Z
 ---------------------------------------------------------------------
      1          9           0        0.000000    0.000000    0.093389
      2          1           0        0.000000    0.000000   -0.840502
 ---------------------------------------------------------------------
 Symmetry turned off by external request.
 Stoichiometry    FH
 Rotational constants (GHZ):           0.0000000         605.4632600         605.4632600
 Standard basis: 6-31G(d) (5D, 7F)
    16 basis functions,    32 primitive gaussians,    17 cartesian basis functions
     5 alpha electrons        5 beta electrons
       nuclear repulsion energy         5.0997331576 Hartrees.
 NAtoms=    2 NActive=    2 NUniq=    2 SFac= 1.00D+00 NAtFMM=   60 NAOKFM=F Big=F
 Integral buffers will be    131072 words long.
 Raffenetti 1 integral format.
 Two-electron integral symmetry is turned off.
 One-electron integrals computed using PRISM.
 NBasis=    16 RedAO= T EigKep=  9.80D-02  NBF=    16
 NBsUse=    16 1.00D-06 EigRej= -1.00D+00 NBFU=    16
 ExpMin= 1.61D-01 ExpMax= 7.00D+03 ExpMxC= 1.05D+03 IAcc=3 IRadAn=         5 AccDes= 0.00D+00
 Harris functional with IExCor=  205 and IRadAn=       5 diagonalized for initial guess.
 HarFok:  IExCor=  205 AccDes= 0.00D+00 IRadAn=         5 IDoV= 1 UseB2=F ITyADJ=14
 ICtDFT=  3500011 ScaDFX=  1.000000  1.000000  1.000000  1.000000
 FoFCou: FMM=F IPFlag=           0 FMFlag=      100000 FMFlg1=           0
         NFxFlg=           0 DoJE=T BraDBF=F KetDBF=T FulRan=T
         wScrn=  0.000000 ICntrl=       500 IOpCl=  0 I1Cent=   200000004 NGrid=           0
         NMat0=    1 NMatS0=      1 NMatT0=    0 NMatD0=    1 NMtDS0=    0 NMtDT0=    0
 Symmetry not used in FoFCou.
 Keep R1 ints in memory in canonical form, NReq=834537.
 Requested convergence on RMS density matrix=1.00D-08 within 128 cycles.
 Requested convergence on MAX density matrix=1.00D-06.
 Requested convergence on             energy=1.00D-06.
 No special actions if energy rises.
 SCF Done:  E(RHF) =  -100.000221016     A.U. after    8 cycles
            NFock=  8  Conv=0.93D-08     -V/T= 2.0000

 **********************************************************************

            Population analysis using the SCF Density.

 **********************************************************************

 Alpha  occ. eigenvalues --  -26.27348  -1.57375  -0.73872  -0.62678  -0.62678
 Alpha virt. eigenvalues --    0.21532   1.08042   1.49173   1.49173   1.57225
 Alpha virt. eigenvalues --    1.96031   2.09035   2.09035   2.15692   2.15692
 Alpha virt. eigenvalues --    2.95452
          Condensed to atoms (all electrons):
               1          2
     1  F    9.331323   0.211627
     2  H    0.211627   0.245424
 Mulliken charges:
               1
     1  F   -0.542950
     2  H    0.542950
 Sum of Mulliken charges =   0.00000
 Mulliken charges with hydrogens summed into heavy atoms:
               1
     1  F    0.000000
 Electronic spatial extent (au):  <R**2>=             13.2931
 Charge=              0.0000 electrons
 Dipole moment (field-independent basis, Debye):
    X=              0.0000    Y=              0.0000    Z=             -2.0146  Tot=              2.0146
 Quadrupole moment (field-independent basis, Debye-Ang):
   XX=             -5.4238   YY=             -5.4238   ZZ=             -3.2619
   XY=              0.0000   XZ=              0.0000   YZ=             -0.0000
 Traceless Quadrupole moment (field-independent basis, Debye-Ang):
   XX=             -0.7206   YY=             -0.7206   ZZ=              1.4412
   XY=              0.0000   XZ=              0.0000   YZ=             -0.0000
 Octapole moment (field-independent basis, Debye-Ang**2):
  XXX=              0.0000  YYY=              0.0000  ZZZ=             -1.9985  XYY=              0.0000
  XXY=              0.0000  XXZ=             -0.1664  XZZ=              0.0000  YZZ=              0.0000
  YYZ=             -0.1664  XYZ=             -0.0000
 Hexadecapole moment (field-independent basis, Debye-Ang**3):
 XXXX=             -2.9200 YYYY=             -2.9200 ZZZZ=             -2.5841 XXXY=              0.0000
 XXXZ=              0.0000 YYYX=              0.0000 YYYZ=             -0.0000 ZZZX=              0.0000
 ZZZY=             -0.0000 XXYY=             -0.9733 XXZZ=             -1.1746 YYZZ=             -1.1746
 XXYZ=             -0.0000 YYXZ=              0.0000 ZZXY=              0.0000
 N-N= 5.099733157595D+00 E-N=-2.505204267188D+02  KE= 9.999953671506D+01
 Running external command "gaunbo7 R"
         input file       "/cluster/work/users/beto93/mol12/Gau-2207164.EIn"
         output file      "/cluster/work/users/beto93/mol12/Gau-2207164.EOu"
         message file     "/cluster/work/users/beto93/mol12/Gau-2207164.EMs"
         fchk file        "/cluster/work/users/beto93/mol12/Gau-2207164.EFC"
         mat. el file     "/cluster/work/users/beto93/mol12/Gau-2207164.EUF"

 Writing WrtUnf unformatted file "/cluster/work/users/beto93/mol12/Gau-2207164.EUF"
 Gaussian matrix elements                                         Version   2 NLab=11 Len12L=8 Len4L=8
 Write SHELL TO ATOM MAP                   from file      0 offset           0 length                   6 to matrix element file.
 Write SHELL TYPES                         from file      0 offset           0 length                   6 to matrix element file.
 Write NUMBER OF PRIMITIVES PER SHELL      from file      0 offset           0 length                   6 to matrix element file.
 Write PRIMITIVE EXPONENTS                 from file      0 offset           0 length                  15 to matrix element file.
 Write CONTRACTION COEFFICIENTS            from file      0 offset           0 length                  15 to matrix element file.
 Write P(S=P) CONTRACTION COEFFICIENTS     from file      0 offset           0 length                  15 to matrix element file.
 Write COORDINATES OF EACH SHELL           from file      0 offset           0 length                  18 to matrix element file.
 Write BONDS PER ATOM                      from file      0 offset           0 length                   2 to matrix element file.
 Write BONDED ATOMS                        from file      0 offset           0 length                   2 to matrix element file.
 Write BOND TYPES                          from file      0 offset           0 length                   2 to matrix element file.
 Write ONIOM CHARGE/MULT                   from file      0 offset           0 length                  32 to matrix element file.
 Write ONIOM ATOM LAYERS                   from file      0 offset           0 length                   2 to matrix element file.
 Write ONIOM ATOM MODIFIERS                from file      0 offset           0 length                   2 to matrix element file.
 Write ONIOM ATOM TYPES                    from file      0 offset           0 length                   2 to matrix element file.
 Write ONIOM LINK ATOMS                    from file      0 offset           0 length                   2 to matrix element file.
 Write ONIOM LINK CHARGES                  from file      0 offset           0 length                   2 to matrix element file.
 Write ONIOM LINK DISTANCES                from file      0 offset           0 length                   8 to matrix element file.
 Write SYMINF INTS                         from file      0 offset           0 length                  26 to matrix element file.
 Write ROTTR TO SO                         from file      0 offset           0 length                  12 to matrix element file.
 Write GAUSSIAN SCALARS                    from file    501 offset           0 to matrix element file.
 Write OPTIMIZATION FLAGS                  from file      0 offset           0 length                   2 to matrix element file.
 Write INTEGER ISO                         from file      0 offset           0 length                   2 to matrix element file.
 Write INTEGER SPIN                        from file      0 offset           0 length                   2 to matrix element file.
 Write REAL ZEFFECTIVE                     from file      0 offset           0 length                   2 to matrix element file.
 Write REAL GFACTOR                        from file      0 offset           0 length                   2 to matrix element file.
 Write REAL ZNUCLEAR                       from file      0 offset           0 length                   2 to matrix element file.
 Write MULLIKEN CHARGES                    from file      0 offset           0 length                   2 to matrix element file.
 Write NUCLEAR GRADIENT                    from file  10584 offset           0 length                   6 to matrix element file.
 Array NUCLEAR FORCE CONSTANTS              on  file  10585 does not exist.
 Write ELECTRIC DIPOLE MOMENT              from file      0 offset           0 length                   3 to matrix element file.
 Write NON-ADIABATIC COUPLING              from file  10810 offset           0 length                   6 to matrix element file.
 Write FINITE EM FIELD                     from file  10521 offset           0 length                  35 to matrix element file.
 Write OVERLAP                             from file  10514 offset           0 length                 136 to matrix element file.
 Write CORE HAMILTONIAN ALPHA              from file  10515 offset           0 length                 136 to matrix element file.
 Write CORE HAMILTONIAN BETA               from file  10515 offset         136 length                 136 to matrix element file.
 Write KINETIC ENERGY                      from file  10516 offset           0 length                 136 to matrix element file.
 Write ORTHOGONAL BASIS                    from file  10685 offset           0 length                 256 to matrix element file.
 Write DIPOLE INTEGRALS                    from file  10518 offset           0 length                 408 to matrix element file.
 Array DIP VEL INTEGRALS                    on  file  10572 does not exist.
 Array R X DEL INTEGRALS                    on  file  10572 does not exist.
 Write ALPHA ORBITAL ENERGIES              from file      0 offset           0 length                  16 to matrix element file.
 Write ALPHA MO COEFFICIENTS               from file  10524 offset           0 length                 256 to matrix element file.
 Write ALPHA DENSITY MATRIX                from file      0 offset           0 length                 136 to matrix element file.
 Write ALPHA FOCK MATRIX                   from file  10536 offset           0 length                 136 to matrix element file.
 Write ENERGY-WEIGHTED DENSITY             from file  10571 offset           0 length                 136 to matrix element file.
 Write ALPHA SCF DENSITY MATRIX            from file      0 offset           0 length                 136 to matrix element file.
 No 2e integrals to process.
 Perform NBO analysis...executing G16NBO...

 *********************************** NBO 7.0 ***********************************
             N A T U R A L   A T O M I C   O R B I T A L   A N D
          N A T U R A L   B O N D   O R B I T A L   A N A L Y S I S
 **************************** Espen Tangen (S101595) ***************************
  (c) Copyright 1996-2021 Board of Regents of the University of Wisconsin System
      on behalf of the Theoretical Chemistry Institute.  All rights reserved.

          Cite this program [NBO 7.0.10 (8-Feb-2021)] as:

          NBO 7.0.  E. D. Glendening, J. K. Badenhoop, A. E. Reed,
          J. E. Carpenter, J. A. Bohmann, C. M. Morales, P. Karafiloglou,
          C. R. Landis, and F. Weinhold, Theoretical Chemistry Institute,
          University of Wisconsin, Madison, WI (2018)

       /NPA    / : Natural Population Analysis
       /AOPNAO / : Print the AO to PNAO transformation
       /AONAO  / : Print the AO to NAO transformation
       /AOMO   / : Print the MOs in the AO basis
       /BOAO   / : Print the AO bond-order matrix
       /DMAO   / : Print the AO density matrix
       /DMPNAO / : Print the PNAO density matrix
       /DMNAO  / : Print the NAO density matrix
       /DMMO   / : Print the MO density matrix
       /SAO    / : Print the AO overlap matrix
       /SPNAO  / : Print the PNAO overlap matrix
       /DETAIL / : Write details of NBO search
       /ARCHIVE/ : Write the archive file to lfn47
       /AOINFO / : Write AO information to lfn31
       /FILE   / : Set to mol12.gen*

 Filename set to mol12.gen1

 Job title: mol12-NBO


 MOs in the AO basis:

           AO          1       2       3       4       5       6       7       8
      ------------ ------- ------- ------- ------- ------- ------- ------- -------
   1.  F 1 (s)      0.9955 -0.2320 -0.0544  0.0000  0.0000  0.0637  0.0314  0.0000
   2.  F 1 (s)      0.0214  0.4971  0.1290  0.0000  0.0000 -0.0791 -0.1171  0.0000
   3.  F 1 (px)     0.0000  0.0000  0.0000 -0.3520  0.5572  0.0000  0.0000 -0.6929
   4.  F 1 (py)     0.0000  0.0000  0.0000  0.5572  0.3520  0.0000  0.0000 -0.6459
   5.  F 1 (pz)    -0.0012 -0.0634  0.5508  0.0000  0.0000  0.2616  0.3785  0.0000
   6.  F 1 (s)     -0.0059  0.5436  0.2029  0.0000  0.0000 -0.7246  0.0403  0.0000
   7.  F 1 (px)     0.0000  0.0000  0.0000 -0.2624  0.4154  0.0000  0.0000  0.7625
   8.  F 1 (py)     0.0000  0.0000  0.0000  0.4154  0.2624  0.0000  0.0000  0.7109
   9.  F 1 (pz)     0.0014 -0.0485  0.3761  0.0000  0.0000  0.4588  0.2223  0.0000
  10.  F 1 (d5)    -0.0004  0.0183 -0.0390  0.0000  0.0000 -0.0152  0.1837  0.0000
  11.  F 1 (d2)     0.0000  0.0000  0.0000  0.0148 -0.0235  0.0000  0.0000 -0.0364
  12.  F 1 (d3)     0.0000  0.0000  0.0000 -0.0235 -0.0148  0.0000  0.0000 -0.0340
  13.  F 1 (d4)     0.0000  0.0000  0.0000  0.0000  0.0000  0.0000  0.0000  0.0000
  14.  F 1 (d1)     0.0000  0.0000  0.0000  0.0000  0.0000  0.0000  0.0000  0.0000
  15.  H 2 (s)      0.0007  0.1080 -0.2547  0.0000  0.0000  0.1068  1.2247  0.0000
  16.  H 2 (s)      0.0016 -0.0108 -0.1075  0.0000  0.0000  1.3476 -0.7925  0.0000

           AO          9      10      11      12      13      14      15      16
      ------------ ------- ------- ------- ------- ------- ------- ------- -------
   1.  F 1 (s)      0.0000  0.0597  0.0906  0.0000  0.0000  0.0000  0.0000 -0.0014
   2.  F 1 (s)      0.0000 -0.5794 -1.4253  0.0000  0.0000  0.0000  0.0000  0.5520
   3.  F 1 (px)     0.6459  0.0000  0.0000 -0.0077 -0.0279  0.0000  0.0000  0.0000
   4.  F 1 (py)    -0.6929  0.0000  0.0000 -0.0279  0.0077  0.0000  0.0000  0.0000
   5.  F 1 (pz)     0.0000 -0.8363  0.3582  0.0000  0.0000  0.0000  0.0000 -0.2095
   6.  F 1 (s)      0.0000  0.4187  1.8000  0.0000  0.0000  0.0000  0.0000 -1.0366
   7.  F 1 (px)    -0.7109  0.0000  0.0000  0.0175  0.0633  0.0000  0.0000  0.0000
   8.  F 1 (py)     0.7625  0.0000  0.0000  0.0633 -0.0175  0.0000  0.0000  0.0000
   9.  F 1 (pz)     0.0000  1.0998 -0.6696  0.0000  0.0000  0.0000  0.0000  0.9797
  10.  F 1 (d5)     0.0000  0.0958 -0.2956  0.0000  0.0000  0.0000  0.0000 -1.1915
  11.  F 1 (d2)     0.0340  0.0000  0.0000  0.2658  0.9624  0.0000  0.0000  0.0000
  12.  F 1 (d3)    -0.0364  0.0000  0.0000  0.9624 -0.2658  0.0000  0.0000  0.0000
  13.  F 1 (d4)     0.0000  0.0000  0.0000  0.0000  0.0000  0.9868 -0.1620  0.0000
  14.  F 1 (d1)     0.0000  0.0000  0.0000  0.0000  0.0000  0.1620  0.9868  0.0000
  15.  H 2 (s)      0.0000  0.2734 -0.0879  0.0000  0.0000  0.0000  0.0000  1.4277
  16.  H 2 (s)      0.0000  0.0784 -0.6971  0.0000  0.0000  0.0000  0.0000 -0.0467


 AO overlap matrix:

           AO          1       2       3       4       5       6       7       8
      ------------ ------- ------- ------- ------- ------- ------- ------- -------
   1.  F 1 (s)      1.0000  0.2443  0.0000  0.0000  0.0000  0.1716  0.0000  0.0000
   2.  F 1 (s)      0.2443  1.0000  0.0000  0.0000  0.0000  0.7635  0.0000  0.0000
   3.  F 1 (px)     0.0000  0.0000  1.0000  0.0000  0.0000  0.0000  0.4995  0.0000
   4.  F 1 (py)     0.0000  0.0000  0.0000  1.0000  0.0000  0.0000  0.0000  0.4995
   5.  F 1 (pz)     0.0000  0.0000  0.0000  0.0000  1.0000  0.0000  0.0000  0.0000
   6.  F 1 (s)      0.1716  0.7635  0.0000  0.0000  0.0000  1.0000  0.0000  0.0000
   7.  F 1 (px)     0.0000  0.0000  0.4995  0.0000  0.0000  0.0000  1.0000  0.0000
   8.  F 1 (py)     0.0000  0.0000  0.0000  0.4995  0.0000  0.0000  0.0000  1.0000
   9.  F 1 (pz)     0.0000  0.0000  0.0000  0.0000  0.4995  0.0000  0.0000  0.0000
  10.  F 1 (d5)     0.0000  0.0000  0.0000  0.0000  0.0000  0.0000  0.0000  0.0000
  11.  F 1 (d2)     0.0000  0.0000  0.0000  0.0000  0.0000  0.0000  0.0000  0.0000
  12.  F 1 (d3)     0.0000  0.0000  0.0000  0.0000  0.0000  0.0000  0.0000  0.0000
  13.  F 1 (d4)     0.0000  0.0000  0.0000  0.0000  0.0000  0.0000  0.0000  0.0000
  14.  F 1 (d1)     0.0000  0.0000  0.0000  0.0000  0.0000  0.0000  0.0000  0.0000
  15.  H 2 (s)      0.0318  0.2162  0.0000  0.0000 -0.2318  0.4193  0.0000  0.0000
  16.  H 2 (s)      0.0591  0.3268  0.0000  0.0000 -0.1101  0.6296  0.0000  0.0000

           AO          9      10      11      12      13      14      15      16
      ------------ ------- ------- ------- ------- ------- ------- ------- -------
   1.  F 1 (s)      0.0000  0.0000  0.0000  0.0000  0.0000  0.0000  0.0318  0.0591
   2.  F 1 (s)      0.0000  0.0000  0.0000  0.0000  0.0000  0.0000  0.2162  0.3268
   3.  F 1 (px)     0.0000  0.0000  0.0000  0.0000  0.0000  0.0000  0.0000  0.0000
   4.  F 1 (py)     0.0000  0.0000  0.0000  0.0000  0.0000  0.0000  0.0000  0.0000
   5.  F 1 (pz)     0.4995  0.0000  0.0000  0.0000  0.0000  0.0000 -0.2318 -0.1101
   6.  F 1 (s)      0.0000  0.0000  0.0000  0.0000  0.0000  0.0000  0.4193  0.6296
   7.  F 1 (px)     0.0000  0.0000  0.0000  0.0000  0.0000  0.0000  0.0000  0.0000
   8.  F 1 (py)     0.0000  0.0000  0.0000  0.0000  0.0000  0.0000  0.0000  0.0000
   9.  F 1 (pz)     1.0000  0.0000  0.0000  0.0000  0.0000  0.0000 -0.5919 -0.4129
  10.  F 1 (d5)     0.0000  1.0000  0.0000  0.0000  0.0000  0.0000  0.3958  0.0689
  11.  F 1 (d2)     0.0000  0.0000  1.0000  0.0000  0.0000  0.0000  0.0000  0.0000
  12.  F 1 (d3)     0.0000  0.0000  0.0000  1.0000  0.0000  0.0000  0.0000  0.0000
  13.  F 1 (d4)     0.0000  0.0000  0.0000  0.0000  1.0000  0.0000  0.0000  0.0000
  14.  F 1 (d1)     0.0000  0.0000  0.0000  0.0000  0.0000  1.0000  0.0000  0.0000
  15.  H 2 (s)     -0.5919  0.3958  0.0000  0.0000  0.0000  0.0000  1.0000  0.6583
  16.  H 2 (s)     -0.4129  0.0689  0.0000  0.0000  0.0000  0.0000  0.6583  1.0000


 AO bond-order matrix:

           AO          1       2       3       4       5       6       7       8
      ------------ ------- ------- ------- ------- ------- ------- ------- -------
   1.  F 1 (s)      2.0958 -0.2022  0.0000  0.0000 -0.0329 -0.2861  0.0000  0.0000
   2.  F 1 (s)     -0.2022  0.5284  0.0000  0.0000  0.0790  0.5925  0.0000  0.0000
   3.  F 1 (px)     0.0000  0.0000  0.8687  0.0000  0.0000  0.0000  0.6476  0.0000
   4.  F 1 (py)     0.0000  0.0000  0.0000  0.8687  0.0000  0.0000  0.0000  0.6476
   5.  F 1 (pz)    -0.0329  0.0790  0.0000  0.0000  0.6148  0.1545  0.0000  0.0000
   6.  F 1 (s)     -0.2861  0.5925  0.0000  0.0000  0.1545  0.6734  0.0000  0.0000
   7.  F 1 (px)     0.0000  0.0000  0.6476  0.0000  0.0000  0.0000  0.4828  0.0000
   8.  F 1 (py)     0.0000  0.0000  0.0000  0.6476  0.0000  0.0000  0.0000  0.4828
   9.  F 1 (pz)    -0.0156  0.0489  0.0000  0.0000  0.4204  0.0999  0.0000  0.0000
  10.  F 1 (d5)    -0.0050  0.0081  0.0000  0.0000 -0.0453  0.0040  0.0000  0.0000
  11.  F 1 (d2)     0.0000  0.0000 -0.0366  0.0000  0.0000  0.0000 -0.0273  0.0000
  12.  F 1 (d3)     0.0000  0.0000  0.0000 -0.0366  0.0000  0.0000  0.0000 -0.0273
  13.  F 1 (d4)     0.0000  0.0000  0.0000  0.0000  0.0000  0.0000  0.0000  0.0000
  14.  F 1 (d1)     0.0000  0.0000  0.0000  0.0000  0.0000  0.0000  0.0000  0.0000
  15.  H 2 (s)     -0.0211  0.0417  0.0000  0.0000 -0.2943  0.0141  0.0000  0.0000
  16.  H 2 (s)      0.0199 -0.0384  0.0000  0.0000 -0.1170 -0.0554  0.0000  0.0000

           AO          9      10      11      12      13      14      15      16
      ------------ ------- ------- ------- ------- ------- ------- ------- -------
   1.  F 1 (s)     -0.0156 -0.0050  0.0000  0.0000  0.0000  0.0000 -0.0211  0.0199
   2.  F 1 (s)      0.0489  0.0081  0.0000  0.0000  0.0000  0.0000  0.0417 -0.0384
   3.  F 1 (px)     0.0000  0.0000 -0.0366  0.0000  0.0000  0.0000  0.0000  0.0000
   4.  F 1 (py)     0.0000  0.0000  0.0000 -0.0366  0.0000  0.0000  0.0000  0.0000
   5.  F 1 (pz)     0.4204 -0.0453  0.0000  0.0000  0.0000  0.0000 -0.2943 -0.1170
   6.  F 1 (s)      0.0999  0.0040  0.0000  0.0000  0.0000  0.0000  0.0141 -0.0554
   7.  F 1 (px)     0.0000  0.0000 -0.0273  0.0000  0.0000  0.0000  0.0000  0.0000
   8.  F 1 (py)     0.0000  0.0000  0.0000 -0.0273  0.0000  0.0000  0.0000  0.0000
   9.  F 1 (pz)     0.2875 -0.0311  0.0000  0.0000  0.0000  0.0000 -0.2020 -0.0798
  10.  F 1 (d5)    -0.0311  0.0037  0.0000  0.0000  0.0000  0.0000  0.0238  0.0080
  11.  F 1 (d2)     0.0000  0.0000  0.0015  0.0000  0.0000  0.0000  0.0000  0.0000
  12.  F 1 (d3)     0.0000  0.0000  0.0000  0.0015  0.0000  0.0000  0.0000  0.0000
  13.  F 1 (d4)     0.0000  0.0000  0.0000  0.0000  0.0000  0.0000  0.0000  0.0000
  14.  F 1 (d1)     0.0000  0.0000  0.0000  0.0000  0.0000  0.0000  0.0000  0.0000
  15.  H 2 (s)     -0.2020  0.0238  0.0000  0.0000  0.0000  0.0000  0.1531  0.0524
  16.  H 2 (s)     -0.0798  0.0080  0.0000  0.0000  0.0000  0.0000  0.0524  0.0233


 AO density matrix:

           AO          1       2       3       4       5       6       7       8
      ------------ ------- ------- ------- ------- ------- ------- ------- -------
   1.  F 1 (s)      1.9998  0.4951  0.0000  0.0000 -0.0025  0.3378  0.0000  0.0000
   2.  F 1 (s)      0.4951  1.7332  0.0000  0.0000  0.0965  1.7512  0.0000  0.0000
   3.  F 1 (px)     0.0000  0.0000  1.6361  0.0000  0.0000  0.0000  1.4843  0.0000
   4.  F 1 (py)     0.0000  0.0000  0.0000  1.6361  0.0000  0.0000  0.0000  1.4843
   5.  F 1 (pz)    -0.0025  0.0965  0.0000  0.0000  1.3355 -0.0155  0.0000  0.0000
   6.  F 1 (s)      0.3378  1.7512  0.0000  0.0000 -0.0155  1.7937  0.0000  0.0000
   7.  F 1 (px)     0.0000  0.0000  1.4843  0.0000  0.0000  0.0000  1.3466  0.0000
   8.  F 1 (py)     0.0000  0.0000  0.0000  1.4843  0.0000  0.0000  0.0000  1.3466
   9.  F 1 (pz)    -0.0008  0.0608  0.0000  0.0000  1.4014 -0.0585  0.0000  0.0000
  10.  F 1 (d5)    -0.0011  0.0524  0.0000  0.0000 -0.2518  0.0765  0.0000  0.0000
  11.  F 1 (d2)     0.0000  0.0000 -0.0502  0.0000  0.0000  0.0000 -0.0455  0.0000
  12.  F 1 (d3)     0.0000  0.0000  0.0000 -0.0502  0.0000  0.0000  0.0000 -0.0455
  13.  F 1 (d4)     0.0000  0.0000  0.0000  0.0000  0.0000  0.0000  0.0000  0.0000
  14.  F 1 (d1)     0.0000  0.0000  0.0000  0.0000  0.0000  0.0000  0.0000  0.0000
  15.  H 2 (s)      0.0587  0.6484  0.0000  0.0000 -1.0459  0.7605  0.0000  0.0000
  16.  H 2 (s)      0.1122  0.9298  0.0000  0.0000 -0.6589  1.0149  0.0000  0.0000

           AO          9      10      11      12      13      14      15      16
      ------------ ------- ------- ------- ------- ------- ------- ------- -------
   1.  F 1 (s)     -0.0008 -0.0011  0.0000  0.0000  0.0000  0.0000  0.0587  0.1122
   2.  F 1 (s)      0.0608  0.0524  0.0000  0.0000  0.0000  0.0000  0.6484  0.9298
   3.  F 1 (px)     0.0000  0.0000 -0.0502  0.0000  0.0000  0.0000  0.0000  0.0000
   4.  F 1 (py)     0.0000  0.0000  0.0000 -0.0502  0.0000  0.0000  0.0000  0.0000
   5.  F 1 (pz)     1.4014 -0.2518  0.0000  0.0000  0.0000  0.0000 -1.0459 -0.6589
   6.  F 1 (s)     -0.0585  0.0765  0.0000  0.0000  0.0000  0.0000  0.7605  1.0149
   7.  F 1 (px)     0.0000  0.0000 -0.0455  0.0000  0.0000  0.0000  0.0000  0.0000
   8.  F 1 (py)     0.0000  0.0000  0.0000 -0.0455  0.0000  0.0000  0.0000  0.0000
   9.  F 1 (pz)     1.4715 -0.2660  0.0000  0.0000  0.0000  0.0000 -1.1155 -0.7154
  10.  F 1 (d5)    -0.2660  0.0506  0.0000  0.0000  0.0000  0.0000  0.2285  0.1661
  11.  F 1 (d2)     0.0000  0.0000  0.0015  0.0000  0.0000  0.0000  0.0000  0.0000
  12.  F 1 (d3)     0.0000  0.0000  0.0000  0.0015  0.0000  0.0000  0.0000  0.0000
  13.  F 1 (d4)     0.0000  0.0000  0.0000  0.0000  0.0000  0.0000  0.0000  0.0000
  14.  F 1 (d1)     0.0000  0.0000  0.0000  0.0000  0.0000  0.0000  0.0000  0.0000
  15.  H 2 (s)     -1.1155  0.2285  0.0000  0.0000  0.0000  0.0000  1.1350  0.9396
  16.  H 2 (s)     -0.7154  0.1661  0.0000  0.0000  0.0000  0.0000  0.9396  0.8938


 MO density matrix:

      MO     1       2       3       4       5       6       7       8       9
     ---- ------  ------  ------  ------  ------  ------  ------  ------  ------
   1.     2.0000  0.0000  0.0000  0.0000  0.0000  0.0000  0.0000  0.0000  0.0000
   2.     0.0000  2.0000  0.0000  0.0000  0.0000  0.0000  0.0000  0.0000  0.0000
   3.     0.0000  0.0000  2.0000  0.0000  0.0000  0.0000  0.0000  0.0000  0.0000
   4.     0.0000  0.0000  0.0000  2.0000  0.0000  0.0000  0.0000  0.0000  0.0000
   5.     0.0000  0.0000  0.0000  0.0000  2.0000  0.0000  0.0000  0.0000  0.0000
   6.     0.0000  0.0000  0.0000  0.0000  0.0000  0.0000  0.0000  0.0000  0.0000
   7.     0.0000  0.0000  0.0000  0.0000  0.0000  0.0000  0.0000  0.0000  0.0000
   8.     0.0000  0.0000  0.0000  0.0000  0.0000  0.0000  0.0000  0.0000  0.0000
   9.     0.0000  0.0000  0.0000  0.0000  0.0000  0.0000  0.0000  0.0000  0.0000
  10.     0.0000  0.0000  0.0000  0.0000  0.0000  0.0000  0.0000  0.0000  0.0000
  11.     0.0000  0.0000  0.0000  0.0000  0.0000  0.0000  0.0000  0.0000  0.0000
  12.     0.0000  0.0000  0.0000  0.0000  0.0000  0.0000  0.0000  0.0000  0.0000
  13.     0.0000  0.0000  0.0000  0.0000  0.0000  0.0000  0.0000  0.0000  0.0000
  14.     0.0000  0.0000  0.0000  0.0000  0.0000  0.0000  0.0000  0.0000  0.0000
  15.     0.0000  0.0000  0.0000  0.0000  0.0000  0.0000  0.0000  0.0000  0.0000
  16.     0.0000  0.0000  0.0000  0.0000  0.0000  0.0000  0.0000  0.0000  0.0000

      MO    10      11      12      13      14      15      16
     ---- ------  ------  ------  ------  ------  ------  ------
   1.     0.0000  0.0000  0.0000  0.0000  0.0000  0.0000  0.0000
   2.     0.0000  0.0000  0.0000  0.0000  0.0000  0.0000  0.0000
   3.     0.0000  0.0000  0.0000  0.0000  0.0000  0.0000  0.0000
   4.     0.0000  0.0000  0.0000  0.0000  0.0000  0.0000  0.0000
   5.     0.0000  0.0000  0.0000  0.0000  0.0000  0.0000  0.0000
   6.     0.0000  0.0000  0.0000  0.0000  0.0000  0.0000  0.0000
   7.     0.0000  0.0000  0.0000  0.0000  0.0000  0.0000  0.0000
   8.     0.0000  0.0000  0.0000  0.0000  0.0000  0.0000  0.0000
   9.     0.0000  0.0000  0.0000  0.0000  0.0000  0.0000  0.0000
  10.     0.0000  0.0000  0.0000  0.0000  0.0000  0.0000  0.0000
  11.     0.0000  0.0000  0.0000  0.0000  0.0000  0.0000  0.0000
  12.     0.0000  0.0000  0.0000  0.0000  0.0000  0.0000  0.0000
  13.     0.0000  0.0000  0.0000  0.0000  0.0000  0.0000  0.0000
  14.     0.0000  0.0000  0.0000  0.0000  0.0000  0.0000  0.0000
  15.     0.0000  0.0000  0.0000  0.0000  0.0000  0.0000  0.0000
  16.     0.0000  0.0000  0.0000  0.0000  0.0000  0.0000  0.0000


 NATURAL POPULATIONS:  Natural atomic orbital occupancies

  NAO Atom No lang   Type(AO)    Occupancy      Energy
 -------------------------------------------------------
   1    F  1  s      Cor( 1s)     2.00000     -26.27265
   2    F  1  s      Val( 2s)     1.91544      -1.43807
   3    F  1  s      Ryd( 3s)     0.00052       1.99524
   4    F  1  px     Val( 2p)     1.99843      -0.62467
   5    F  1  px     Ryd( 3p)     0.00003       1.49319
   6    F  1  py     Val( 2p)     1.99843      -0.62467
   7    F  1  py     Ryd( 3p)     0.00003       1.49319
   8    F  1  pz     Val( 2p)     1.64081      -0.50277
   9    F  1  pz     Ryd( 3p)     0.00014       1.67838
  10    F  1  dxy    Ryd( 3d)     0.00000       2.15692
  11    F  1  dxz    Ryd( 3d)     0.00154       2.08678
  12    F  1  dyz    Ryd( 3d)     0.00154       2.08678
  13    F  1  dx2y2  Ryd( 3d)     0.00000       2.15692
  14    F  1  dz2    Ryd( 3d)     0.00411       2.68087

  15    H  2  s      Val( 1s)     0.43825       0.30448
  16    H  2  s      Ryd( 2s)     0.00074       0.75139


 Summary of Natural Population Analysis:

                                     Natural Population
             Natural    ---------------------------------------------
  Atom No    Charge        Core      Valence    Rydberg      Total
 --------------------------------------------------------------------
    F  1   -0.56101      2.00000     7.55311    0.00790     9.56101
    H  2    0.56101      0.00000     0.43825    0.00074     0.43899
 ====================================================================
 * Total *  0.00000      2.00000     7.99136    0.00864    10.00000

                                 Natural Population
 ---------------------------------------------------------
   Core                       2.00000 ( 99.9999% of    2)
   Valence                    7.99136 ( 99.8920% of    8)
   Natural Minimal Basis      9.99136 ( 99.9136% of   10)
   Natural Rydberg Basis      0.00864 (  0.0864% of   10)
 ---------------------------------------------------------

    Atom No         Natural Electron Configuration
 ----------------------------------------------------------------------------
      F  1      [core]2s( 1.92)2p( 5.64)3d( 0.01)
      H  2            1s( 0.44)


 PNAOs in the AO basis:

           AO          1       2       3       4       5       6       7       8
      ------------ ------- ------- ------- ------- ------- ------- ------- -------
   1.  F 1 (s)      0.9941 -0.2443 -0.1267  0.0000  0.0000  0.0000  0.0000  0.0000
   2.  F 1 (s)      0.0235  0.5061  1.4898  0.0000  0.0000  0.0000  0.0000  0.0000
   3.  F 1 (px)     0.0000  0.0000  0.0000  0.6208 -0.9732  0.0000  0.0000  0.0000
   4.  F 1 (py)     0.0000  0.0000  0.0000  0.0000  0.0000  0.6208 -0.9732  0.0000
   5.  F 1 (pz)     0.0000  0.0000  0.0000  0.0000  0.0000  0.0000  0.0000  0.6208
   6.  F 1 (s)     -0.0008  0.5846 -1.4344  0.0000  0.0000  0.0000  0.0000  0.0000
   7.  F 1 (px)     0.0000  0.0000  0.0000  0.5330  1.0239  0.0000  0.0000  0.0000
   8.  F 1 (py)     0.0000  0.0000  0.0000  0.0000  0.0000  0.5330  1.0239  0.0000
   9.  F 1 (pz)     0.0000  0.0000  0.0000  0.0000  0.0000  0.0000  0.0000  0.5330
  10.  F 1 (d5)     0.0000  0.0000  0.0000  0.0000  0.0000  0.0000  0.0000  0.0000
  11.  F 1 (d2)     0.0000  0.0000  0.0000  0.0000  0.0000  0.0000  0.0000  0.0000
  12.  F 1 (d3)     0.0000  0.0000  0.0000  0.0000  0.0000  0.0000  0.0000  0.0000
  13.  F 1 (d4)     0.0000  0.0000  0.0000  0.0000  0.0000  0.0000  0.0000  0.0000
  14.  F 1 (d1)     0.0000  0.0000  0.0000  0.0000  0.0000  0.0000  0.0000  0.0000
  15.  H 2 (s)      0.0000  0.0000  0.0000  0.0000  0.0000  0.0000  0.0000  0.0000
  16.  H 2 (s)      0.0000  0.0000  0.0000  0.0000  0.0000  0.0000  0.0000  0.0000

           AO          9      10      11      12      13      14      15      16
      ------------ ------- ------- ------- ------- ------- ------- ------- -------
   1.  F 1 (s)      0.0000  0.0000  0.0000  0.0000  0.0000  0.0000  0.0000  0.0000
   2.  F 1 (s)      0.0000  0.0000  0.0000  0.0000  0.0000  0.0000  0.0000  0.0000
   3.  F 1 (px)     0.0000  0.0000  0.0000  0.0000  0.0000  0.0000  0.0000  0.0000
   4.  F 1 (py)     0.0000  0.0000  0.0000  0.0000  0.0000  0.0000  0.0000  0.0000
   5.  F 1 (pz)    -0.9732  0.0000  0.0000  0.0000  0.0000  0.0000  0.0000  0.0000
   6.  F 1 (s)      0.0000  0.0000  0.0000  0.0000  0.0000  0.0000  0.0000  0.0000
   7.  F 1 (px)     0.0000  0.0000  0.0000  0.0000  0.0000  0.0000  0.0000  0.0000
   8.  F 1 (py)     0.0000  0.0000  0.0000  0.0000  0.0000  0.0000  0.0000  0.0000
   9.  F 1 (pz)     1.0239  0.0000  0.0000  0.0000  0.0000  0.0000  0.0000  0.0000
  10.  F 1 (d5)     0.0000  0.0000  0.0000  0.0000  0.0000  1.0000  0.0000  0.0000
  11.  F 1 (d2)     0.0000  0.0000  1.0000  0.0000  0.0000  0.0000  0.0000  0.0000
  12.  F 1 (d3)     0.0000  0.0000  0.0000  1.0000  0.0000  0.0000  0.0000  0.0000
  13.  F 1 (d4)     0.0000  0.0000  0.0000  0.0000  1.0000  0.0000  0.0000  0.0000
  14.  F 1 (d1)     0.0000  1.0000  0.0000  0.0000  0.0000  0.0000  0.0000  0.0000
  15.  H 2 (s)      0.0000  0.0000  0.0000  0.0000  0.0000  0.0000  0.7360 -1.1059
  16.  H 2 (s)      0.0000  0.0000  0.0000  0.0000  0.0000  0.0000  0.3479  1.2821


 PNAO overlap matrix:

           NAO         1       2       3       4       5       6       7       8
      ------------ ------- ------- ------- ------- ------- ------- ------- -------
   1.  F 1( 1s )    1.0000  0.0000  0.0000  0.0000  0.0000  0.0000  0.0000  0.0000
   2.  F 1( 2s )    0.0000  1.0000  0.0000  0.0000  0.0000  0.0000  0.0000  0.0000
   3.  F 1( 3s )    0.0000  0.0000  1.0000  0.0000  0.0000  0.0000  0.0000  0.0000
   4.  F 1( 2px)    0.0000  0.0000  0.0000  1.0000  0.0000  0.0000  0.0000  0.0000
   5.  F 1( 3px)    0.0000  0.0000  0.0000  0.0000  1.0000  0.0000  0.0000  0.0000
   6.  F 1( 2py)    0.0000  0.0000  0.0000  0.0000  0.0000  1.0000  0.0000  0.0000
   7.  F 1( 3py)    0.0000  0.0000  0.0000  0.0000  0.0000  0.0000  1.0000  0.0000
   8.  F 1( 2pz)    0.0000  0.0000  0.0000  0.0000  0.0000  0.0000  0.0000  1.0000
   9.  F 1( 3pz)    0.0000  0.0000  0.0000  0.0000  0.0000  0.0000  0.0000  0.0000
  10.  F 1( 3d1)    0.0000  0.0000  0.0000  0.0000  0.0000  0.0000  0.0000  0.0000
  11.  F 1( 3d2)    0.0000  0.0000  0.0000  0.0000  0.0000  0.0000  0.0000  0.0000
  12.  F 1( 3d3)    0.0000  0.0000  0.0000  0.0000  0.0000  0.0000  0.0000  0.0000
  13.  F 1( 3d4)    0.0000  0.0000  0.0000  0.0000  0.0000  0.0000  0.0000  0.0000
  14.  F 1( 3d5)    0.0000  0.0000  0.0000  0.0000  0.0000  0.0000  0.0000  0.0000
  15.  H 2( 1s )    0.0497  0.4358 -0.3560  0.0000  0.0000  0.0000  0.0000 -0.4385
  16.  H 2( 2s )    0.0443  0.2820 -0.2297  0.0000  0.0000  0.0000  0.0000  0.1383

           NAO         9      10      11      12      13      14      15      16
      ------------ ------- ------- ------- ------- ------- ------- ------- -------
   1.  F 1( 1s )    0.0000  0.0000  0.0000  0.0000  0.0000  0.0000  0.0497  0.0443
   2.  F 1( 2s )    0.0000  0.0000  0.0000  0.0000  0.0000  0.0000  0.4358  0.2820
   3.  F 1( 3s )    0.0000  0.0000  0.0000  0.0000  0.0000  0.0000 -0.3560 -0.2297
   4.  F 1( 2px)    0.0000  0.0000  0.0000  0.0000  0.0000  0.0000  0.0000  0.0000
   5.  F 1( 3px)    0.0000  0.0000  0.0000  0.0000  0.0000  0.0000  0.0000  0.0000
   6.  F 1( 2py)    0.0000  0.0000  0.0000  0.0000  0.0000  0.0000  0.0000  0.0000
   7.  F 1( 3py)    0.0000  0.0000  0.0000  0.0000  0.0000  0.0000  0.0000  0.0000
   8.  F 1( 2pz)    0.0000  0.0000  0.0000  0.0000  0.0000  0.0000 -0.4385  0.1383
   9.  F 1( 3pz)    1.0000  0.0000  0.0000  0.0000  0.0000  0.0000 -0.3899  0.0160
  10.  F 1( 3d1)    0.0000  1.0000  0.0000  0.0000  0.0000  0.0000  0.0000  0.0000
  11.  F 1( 3d2)    0.0000  0.0000  1.0000  0.0000  0.0000  0.0000  0.0000  0.0000
  12.  F 1( 3d3)    0.0000  0.0000  0.0000  1.0000  0.0000  0.0000  0.0000  0.0000
  13.  F 1( 3d4)    0.0000  0.0000  0.0000  0.0000  1.0000  0.0000  0.0000  0.0000
  14.  F 1( 3d5)    0.0000  0.0000  0.0000  0.0000  0.0000  1.0000  0.3153 -0.3493
  15.  H 2( 1s )   -0.3899  0.0000  0.0000  0.0000  0.0000  0.3153  1.0000  0.0000
  16.  H 2( 2s )    0.0160  0.0000  0.0000  0.0000  0.0000 -0.3493  0.0000  1.0000


 PNAO density matrix:

           NAO         1       2       3       4       5       6       7       8
      ------------ ------- ------- ------- ------- ------- ------- ------- -------
   1.  F 1( 1s )    2.0000  0.0000  0.0000  0.0000  0.0000  0.0000  0.0000  0.0002
   2.  F 1( 2s )    0.0000  1.9938  0.0000  0.0000  0.0000  0.0000  0.0000  0.0233
   3.  F 1( 3s )    0.0000  0.0000  0.0207  0.0000  0.0000  0.0000  0.0000  0.1963
   4.  F 1( 2px)    0.0000  0.0000  0.0000  1.9953 -0.0800  0.0000  0.0000  0.0000
   5.  F 1( 3px)    0.0000  0.0000  0.0000 -0.0800  0.0032  0.0000  0.0000  0.0000
   6.  F 1( 2py)    0.0000  0.0000  0.0000  0.0000  0.0000  1.9953 -0.0800  0.0000
   7.  F 1( 3py)    0.0000  0.0000  0.0000  0.0000  0.0000 -0.0800  0.0032  0.0000
   8.  F 1( 2pz)    0.0002  0.0233  0.1963  0.0000  0.0000  0.0000  0.0000  1.8600
   9.  F 1( 3pz)    0.0010 -0.0426  0.0169  0.0000  0.0000  0.0000  0.0000  0.1601
  10.  F 1( 3d1)    0.0000  0.0000  0.0000  0.0000  0.0000  0.0000  0.0000  0.0000
  11.  F 1( 3d2)    0.0000  0.0000  0.0000 -0.0554  0.0022  0.0000  0.0000  0.0000
  12.  F 1( 3d3)    0.0000  0.0000  0.0000  0.0000  0.0000 -0.0554  0.0022  0.0000
  13.  F 1( 3d4)    0.0000  0.0000  0.0000  0.0000  0.0000  0.0000  0.0000  0.0000
  14.  F 1( 3d5)    0.0001  0.0715 -0.0316  0.0000  0.0000  0.0000  0.0000 -0.2981
  15.  H 2( 1s )    0.0999  0.9188 -0.1268  0.0000  0.0000  0.0000  0.0000 -1.1905
  16.  H 2( 2s )    0.0893  0.4901  0.0376  0.0000  0.0000  0.0000  0.0000  0.3623

           NAO         9      10      11      12      13      14      15      16
      ------------ ------- ------- ------- ------- ------- ------- ------- -------
   1.  F 1( 1s )    0.0010  0.0000  0.0000  0.0000  0.0000  0.0001  0.0999  0.0893
   2.  F 1( 2s )   -0.0426  0.0000  0.0000  0.0000  0.0000  0.0715  0.9188  0.4901
   3.  F 1( 3s )    0.0169  0.0000  0.0000  0.0000  0.0000 -0.0316 -0.1268  0.0376
   4.  F 1( 2px)    0.0000  0.0000 -0.0554  0.0000  0.0000  0.0000  0.0000  0.0000
   5.  F 1( 3px)    0.0000  0.0000  0.0022  0.0000  0.0000  0.0000  0.0000  0.0000
   6.  F 1( 2py)    0.0000  0.0000  0.0000 -0.0554  0.0000  0.0000  0.0000  0.0000
   7.  F 1( 3py)    0.0000  0.0000  0.0000  0.0022  0.0000  0.0000  0.0000  0.0000
   8.  F 1( 2pz)    0.1601  0.0000  0.0000  0.0000  0.0000 -0.2981 -1.1905  0.3623
   9.  F 1( 3pz)    0.0148  0.0000  0.0000  0.0000  0.0000 -0.0273 -0.1233  0.0204
  10.  F 1( 3d1)    0.0000  0.0000  0.0000  0.0000  0.0000  0.0000  0.0000  0.0000
  11.  F 1( 3d2)    0.0000  0.0000  0.0015  0.0000  0.0000  0.0000  0.0000  0.0000
  12.  F 1( 3d3)    0.0000  0.0000  0.0000  0.0015  0.0000  0.0000  0.0000  0.0000
  13.  F 1( 3d4)    0.0000  0.0000  0.0000  0.0000  0.0000  0.0000  0.0000  0.0000
  14.  F 1( 3d5)   -0.0273  0.0000  0.0000  0.0000  0.0000  0.0506  0.2260 -0.0397
  15.  H 2( 1s )   -0.1233  0.0000  0.0000  0.0000  0.0000  0.2260  1.2044  0.0000
  16.  H 2( 2s )    0.0204  0.0000  0.0000  0.0000  0.0000 -0.0397  0.0000  0.1928


 NAOs in the AO basis:

           AO          1       2       3       4       5       6       7       8
      ------------ ------- ------- ------- ------- ------- ------- ------- -------
   1.  F 1 (s)      0.9941 -0.2540 -0.0917  0.0000  0.0000  0.0000  0.0000  0.0075
   2.  F 1 (s)      0.0235  0.5605  1.6117  0.0000  0.0000  0.0000  0.0000 -0.0412
   3.  F 1 (px)     0.0000  0.0000  0.0000  0.6627 -0.9451  0.0000  0.0000  0.0000
   4.  F 1 (py)     0.0000  0.0000  0.0000  0.0000  0.0000  0.6627 -0.9451  0.0000
   5.  F 1 (pz)     0.0000 -0.0508 -0.0589  0.0000  0.0000  0.0000  0.0000  0.7125
   6.  F 1 (s)     -0.0008  0.6145 -2.1344  0.0000  0.0000  0.0000  0.0000 -0.0306
   7.  F 1 (px)     0.0000  0.0000  0.0000  0.4877  1.0462  0.0000  0.0000  0.0000
   8.  F 1 (py)     0.0000  0.0000  0.0000  0.0000  0.0000  0.4877  1.0462  0.0000
   9.  F 1 (pz)     0.0000 -0.0386  0.5686  0.0000  0.0000  0.0000  0.0000  0.5132
  10.  F 1 (d5)     0.0000 -0.0013 -0.1629  0.0000  0.0000  0.0000  0.0000  0.0055
  11.  F 1 (d2)     0.0000  0.0000  0.0000  0.0000  0.0000  0.0000  0.0000  0.0000
  12.  F 1 (d3)     0.0000  0.0000  0.0000  0.0000  0.0000  0.0000  0.0000  0.0000
  13.  F 1 (d4)     0.0000  0.0000  0.0000  0.0000  0.0000  0.0000  0.0000  0.0000
  14.  F 1 (d1)     0.0000  0.0000  0.0000  0.0000  0.0000  0.0000  0.0000  0.0000
  15.  H 2 (s)      0.0000 -0.1584  0.4886  0.0000  0.0000  0.0000  0.0000  0.1373
  16.  H 2 (s)      0.0000 -0.0710  0.7030  0.0000  0.0000  0.0000  0.0000  0.0638

           AO          9      10      11      12      13      14      15      16
      ------------ ------- ------- ------- ------- ------- ------- ------- -------
   1.  F 1 (s)      0.0370  0.0000  0.0000  0.0000  0.0000 -0.0250  0.0260  0.0269
   2.  F 1 (s)     -0.0241  0.0000  0.0000  0.0000  0.0000 -0.0320 -0.1793 -0.0909
   3.  F 1 (px)     0.0000  0.0000  0.0000  0.0000  0.0000  0.0000  0.0000  0.0000
   4.  F 1 (py)     0.0000  0.0000  0.0000  0.0000  0.0000  0.0000  0.0000  0.0000
   5.  F 1 (pz)    -0.9054  0.0000  0.0000  0.0000  0.0000 -0.0094  0.2322 -0.0570
   6.  F 1 (s)     -0.4078  0.0000  0.0000  0.0000  0.0000  0.3278 -0.1861 -0.3322
   7.  F 1 (px)     0.0000  0.0000  0.0000  0.0000  0.0000  0.0000  0.0000  0.0000
   8.  F 1 (py)     0.0000  0.0000  0.0000  0.0000  0.0000  0.0000  0.0000  0.0000
   9.  F 1 (pz)     1.4762  0.0000  0.0000  0.0000  0.0000 -0.4629  0.1977 -0.0292
  10.  F 1 (d5)    -0.1248  0.0000  0.0000  0.0000  0.0000  1.2237 -0.0094  0.1115
  11.  F 1 (d2)     0.0000  0.0000  1.0000  0.0000  0.0000  0.0000  0.0000  0.0000
  12.  F 1 (d3)     0.0000  0.0000  0.0000  1.0000  0.0000  0.0000  0.0000  0.0000
  13.  F 1 (d4)     0.0000  0.0000  0.0000  0.0000  1.0000  0.0000  0.0000  0.0000
  14.  F 1 (d1)     0.0000  1.0000  0.0000  0.0000  0.0000  0.0000  0.0000  0.0000
  15.  H 2 (s)      0.6567  0.0000  0.0000  0.0000  0.0000 -0.9188  1.0031 -1.0698
  16.  H 2 (s)      0.3355  0.0000  0.0000  0.0000  0.0000  0.0813  0.3046  1.4949


 NAO density matrix:

           NAO         1       2       3       4       5       6       7       8
      ------------ ------- ------- ------- ------- ------- ------- ------- -------
   1.  F 1( 1s )    2.0000 -0.0001  0.0011  0.0000  0.0000  0.0000  0.0000  0.0003
   2.  F 1( 2s )   -0.0001  1.9154  0.0000  0.0000  0.0000  0.0000  0.0000  0.1730
   3.  F 1( 3s )    0.0011  0.0000  0.0005  0.0000  0.0000  0.0000  0.0000 -0.0291
   4.  F 1( 2px)    0.0000  0.0000  0.0000  1.9984  0.0072  0.0000  0.0000  0.0000
   5.  F 1( 3px)    0.0000  0.0000  0.0000  0.0072  0.0000  0.0000  0.0000  0.0000
   6.  F 1( 2py)    0.0000  0.0000  0.0000  0.0000  0.0000  1.9984  0.0072  0.0000
   7.  F 1( 3py)    0.0000  0.0000  0.0000  0.0000  0.0000  0.0072  0.0000  0.0000
   8.  F 1( 2pz)    0.0003  0.1730 -0.0291  0.0000  0.0000  0.0000  0.0000  1.6408
   9.  F 1( 3pz)    0.0017 -0.0053  0.0003  0.0000  0.0000  0.0000  0.0000 -0.0145
  10.  F 1( 3d1)    0.0000  0.0000  0.0000  0.0000  0.0000  0.0000  0.0000  0.0000
  11.  F 1( 3d2)    0.0000  0.0000  0.0000 -0.0555 -0.0002  0.0000  0.0000  0.0000
  12.  F 1( 3d3)    0.0000  0.0000  0.0000  0.0000  0.0000 -0.0555 -0.0002  0.0000
  13.  F 1( 3d4)    0.0000  0.0000  0.0000  0.0000  0.0000  0.0000  0.0000  0.0000
  14.  F 1( 3d5)   -0.0004  0.0215  0.0014  0.0000  0.0000  0.0000  0.0000 -0.0773
  15.  H 2( 1s )    0.0006  0.3610  0.0139  0.0000  0.0000  0.0000  0.0000 -0.7430
  16.  H 2( 2s )    0.0009 -0.0347  0.0002  0.0000  0.0000  0.0000  0.0000 -0.0168

           NAO         9      10      11      12      13      14      15      16
      ------------ ------- ------- ------- ------- ------- ------- ------- -------
   1.  F 1( 1s )    0.0017  0.0000  0.0000  0.0000  0.0000 -0.0004  0.0006  0.0009
   2.  F 1( 2s )   -0.0053  0.0000  0.0000  0.0000  0.0000  0.0215  0.3610 -0.0347
   3.  F 1( 3s )    0.0003  0.0000  0.0000  0.0000  0.0000  0.0014  0.0139  0.0002
   4.  F 1( 2px)    0.0000  0.0000 -0.0555  0.0000  0.0000  0.0000  0.0000  0.0000
   5.  F 1( 3px)    0.0000  0.0000 -0.0002  0.0000  0.0000  0.0000  0.0000  0.0000
   6.  F 1( 2py)    0.0000  0.0000  0.0000 -0.0555  0.0000  0.0000  0.0000  0.0000
   7.  F 1( 3py)    0.0000  0.0000  0.0000 -0.0002  0.0000  0.0000  0.0000  0.0000
   8.  F 1( 2pz)   -0.0145  0.0000  0.0000  0.0000  0.0000 -0.0773 -0.7430 -0.0168
   9.  F 1( 3pz)    0.0001  0.0000  0.0000  0.0000  0.0000  0.0006  0.0057  0.0002
  10.  F 1( 3d1)    0.0000  0.0000  0.0000  0.0000  0.0000  0.0000  0.0000  0.0000
  11.  F 1( 3d2)    0.0000  0.0000  0.0015  0.0000  0.0000  0.0000  0.0000  0.0000
  12.  F 1( 3d3)    0.0000  0.0000  0.0000  0.0015  0.0000  0.0000  0.0000  0.0000
  13.  F 1( 3d4)    0.0000  0.0000  0.0000  0.0000  0.0000  0.0000  0.0000  0.0000
  14.  F 1( 3d5)    0.0006  0.0000  0.0000  0.0000  0.0000  0.0041  0.0419  0.0003
  15.  H 2( 1s )    0.0057  0.0000  0.0000  0.0000  0.0000  0.0419  0.4382  0.0000
  16.  H 2( 2s )    0.0002  0.0000  0.0000  0.0000  0.0000  0.0003  0.0000  0.0007


 NATURAL BOND ORBITAL ANALYSIS:

 Initiate 2-center NBO search using THRESH = 1.900 and PRJTHR = 0.300

 Search of NAO DM block for core orbitals on atom:   1
      Eigenvector ( 1) has occupancy 2.00000
            1.0000 0.0000 0.0000 0.0000 0.0000 0.0000 0.0000 0.0000
            0.0000 0.0000 0.0000 0.0000 0.0000 0.0000
        1 eigenvector(s) stashed in permanent list

 Core orbitals projected from the NAO density matrix
       8.000 electrons remain (>1.900); search continues

 Search of NAO DM block for the following atom(s):   1
      Select eigenvectors with eigenvalue > 1.900
       2.000 2.000 1.999 1.562 0.000 0.000 0.000 0.000 0.000 0.000 0.000 0.000
       0.000 0.000
      Eigenvector ( 1) has occupancy 2.00000
            0.0000 0.0000 0.0000 0.5200 0.0019 0.8537 0.0031 0.0000
            0.0000 0.0000-0.0144-0.0237 0.0000 0.0000
      Eigenvector ( 2) has occupancy 2.00000
            0.0000 0.0000 0.0000 0.8537 0.0031-0.5200-0.0019 0.0000
            0.0000 0.0000-0.0237 0.0144 0.0000 0.0000
      Eigenvector ( 3) has occupancy 1.99926
            0.0000 0.8996-0.0064 0.0000 0.0000 0.0000 0.0000 0.4365
           -0.0055 0.0000 0.0000 0.0000 0.0000-0.0072
      3 hybrids on atom 1 stashed in prospective list

 Stash prospective hybrids having projection expectation value > 0.300
       1.000 1.000 1.000
      0 hybrids eliminated in 1 pass
      3 hybrids moved from prospective to permanent list

 NHOs of 1-center eigenvectors projected from the NAO density matrix
       2.001 electrons remain (>1.900); search continues

 Search of NAO DM block for the following atom(s):   1   2
      Select eigenvectors with eigenvalue > 1.900
       2.000 0.001 0.000 0.000 0.000 0.000 0.000 0.000 0.000 0.000 0.000 0.000
       0.000 0.000 0.000 0.000
      Eigenvector ( 1) has occupancy 2.00000
            0.0000-0.3856-0.0148 0.0000 0.0000 0.0000 0.0000 0.7937
           -0.0061 0.0000 0.0000 0.0000 0.0000-0.0447-0.4681 0.0000
      1 hybrid on atom 1 stashed in prospective list
      1 hybrid on atom 2 stashed in prospective list

 Stash prospective hybrids having projection expectation value > 0.300
       1.000 1.000
      0 hybrids eliminated in 1 pass
      2 hybrids moved from prospective to permanent list

 NHOs of 2-center eigenvectors projected from the NAO density matrix
       0.001 electrons remain in the fully projected matrix

 Search of NHO DM block for the following atom(s):   1
      Select eigenvectors with eigenvalue > 1.900
       2.000 2.000 2.000 1.999 0.000 0.000 0.000 0.000 0.000 0.000 0.000 0.000
       0.000 0.000
      Eigenvector ( 1) has occupancy 2.00000
            1.0000 0.0000 0.0000 0.0000 0.0000 0.0000 0.0000 0.0000
            0.0000 0.0000 0.0000 0.0000 0.0000 0.0000
           NBO accepted:    1. Label:CR ( 1)   1
      Eigenvector ( 2) has occupancy 2.00000
            0.0000 1.0000 0.0000 0.0000 0.0000 0.0000 0.0000 0.0000
            0.0000 0.0000 0.0000 0.0000 0.0000 0.0000
           NBO accepted:    2. Label:LP ( 1)   1
      Eigenvector ( 3) has occupancy 2.00000
            0.0000 0.0000 1.0000 0.0000 0.0000 0.0000 0.0000 0.0000
            0.0000 0.0000 0.0000 0.0000 0.0000 0.0000
           NBO accepted:    3. Label:LP ( 2)   1
      Eigenvector ( 4) has occupancy 1.99926
            0.0000 0.0000 0.0000 1.0000 0.0000 0.0000 0.0000 0.0000
            0.0000 0.0000 0.0000 0.0000 0.0000 0.0000
           NBO accepted:    4. Label:LP ( 3)   1
        4 eigenvector(s) stashed in permanent list

  1-center NBOs projected from the NHO density matrix
       2.001 electrons remain (>1.900); search continues

 Search of NHO DM block for the following atom(s):   1   2
      Select eigenvectors with eigenvalue > 1.900
       2.000 0.000 0.000 0.000 0.000 0.000 0.000 0.000 0.000 0.000 0.000 0.000
       0.000 0.000 0.000 0.000
      Eigenvector ( 1) has occupancy 2.00000
            0.0000 0.0000 0.0000 0.0000 0.8837 0.0000 0.0000 0.0000
            0.0000 0.0000 0.0000 0.0000 0.0000 0.0000 0.4681 0.0000
      Occupancy is 2.000 after deleting minor hybrid components
            0.0000 0.0000 0.0000 0.0000 0.8837 0.0000 0.0000 0.0000
            0.0000 0.0000 0.0000 0.0000 0.0000 0.0000 0.4681 0.0000
           NBO accepted:    5. Label:BD ( 1)   1   2
      Occupancy is 0.000 for antibonding component
            0.0000 0.0000 0.0000 0.0000-0.4681 0.0000 0.0000 0.0000
            0.0000 0.0000 0.0000 0.0000 0.0000 0.0000 0.8837 0.0000
           NBO accepted:    6. Label:BD*( 1)   1   2
        2 eigenvector(s) stashed in permanent list

  2-center NBOs projected from the NHO density matrix
       0.001 electrons remain in the fully projected matrix

                            Occupancies       Lewis Structure    Low   High
         Max    Occ     -------------------  -----------------   occ   occ
  Cycle  Ctr   Thresh    Lewis   non-Lewis     CR  BD  nC  LP    (L)   (NL)
 ============================================================================
    1     2     1.90     9.99925   0.00075      1   1   0   3     0      0
 ----------------------------------------------------------------------------

 Structure accepted: No low occupancy Lewis orbitals

 -------------------------------------------------------
   Core                      2.00000 (100.000% of   2)
   Valence Lewis             7.99926 ( 99.991% of   8)
  ==================      =============================
   Total Lewis               9.99925 ( 99.993% of  10)
  -----------------------------------------------------
   Valence non-Lewis         0.00000 (  0.000% of  10)
   Rydberg non-Lewis         0.00075 (  0.007% of  10)
  ==================      =============================
   Total non-Lewis           0.00075 (  0.007% of  10)
 -------------------------------------------------------


     (Occupancy)   Bond orbital / Coefficients / Hybrids
 ------------------ Lewis ------------------------------------------------------
   1. (2.00000) CR ( 1) F  1            s(100.00%)
                                         1.0000  0.0000  0.0000  0.0000  0.0000
                                         0.0000  0.0000  0.0000  0.0000  0.0000
                                         0.0000  0.0000  0.0000  0.0000
   2. (2.00000) LP ( 1) F  1            s(  0.00%)p 1.00( 99.92%)d 0.00(  0.08%)
                                         0.0000  0.0000  0.0000  0.5200  0.0019
                                         0.8537  0.0031  0.0000  0.0000  0.0000
                                        -0.0144 -0.0237  0.0000  0.0000
   3. (2.00000) LP ( 2) F  1            s(  0.00%)p 1.00( 99.92%)d 0.00(  0.08%)
                                         0.0000  0.0000  0.0000  0.8537  0.0031
                                        -0.5200 -0.0019  0.0000  0.0000  0.0000
                                        -0.0237  0.0144  0.0000  0.0000
   4. (1.99926) LP ( 3) F  1            s( 80.93%)p 0.24( 19.06%)d 0.00(  0.01%)
                                         0.0000  0.8996 -0.0064  0.0000  0.0000
                                         0.0000  0.0000  0.4365 -0.0055  0.0000
                                         0.0000  0.0000  0.0000 -0.0072
   5. (2.00000) BD ( 1) F  1- H  2
               ( 78.09%)   0.8837* F  1 s( 19.07%)p 4.23( 80.67%)d 0.01(  0.26%)
                                         0.0000  0.4364  0.0168  0.0000  0.0000
                                         0.0000  0.0000 -0.8981  0.0069  0.0000
                                         0.0000  0.0000  0.0000  0.0506
               ( 21.91%)   0.4681* H  2 s(100.00%)
                                         1.0000  0.0000
 ---------------- non-Lewis ----------------------------------------------------
   6. (0.00000) BD*( 1) F  1- H  2
               ( 21.91%)   0.4681* F  1 s( 19.07%)p 4.23( 80.67%)d 0.01(  0.26%)
               ( 78.09%)  -0.8837* H  2 s(100.00%)
   7. (0.00000) RY ( 1) F  1            s( 27.75%)p 2.50( 69.43%)d 0.10(  2.82%)
   8. (0.00000) RY ( 2) F  1            s(  0.00%)p 1.00( 99.41%)d 0.01(  0.59%)
   9. (0.00000) RY ( 3) F  1            s(  0.00%)p 1.00( 99.96%)d 0.00(  0.04%)
  10. (0.00000) RY ( 4) F  1            s(  0.00%)p 1.00(  0.15%)d99.99( 99.85%)
  11. (0.00000) RY ( 5) F  1            s(  0.00%)p 0.00(  0.00%)d 1.00(100.00%)
  12. (0.00000) RY ( 6) F  1            s(  0.00%)p 0.00(  0.00%)d 1.00(100.00%)
  13. (0.00000) RY ( 7) F  1            s(  0.00%)p 1.00(  0.64%)d99.99( 99.36%)
  14. (0.00000) RY ( 8) F  1            s(  0.84%)p 7.78(  6.52%)d99.99( 92.64%)
  15. (0.00000) RY ( 9) F  1            s( 71.41%)p 0.34( 24.32%)d 0.06(  4.27%)
  16. (0.00074) RY ( 1) H  2            s(100.00%)
                                         0.0000  1.0000


 NHO DIRECTIONALITY AND BOND BENDING (deviation from line of nuclear centers at
                                      the position of maximum hybrid amplitude)

         [Thresholds for printing:  angular deviation  >  1.0 degree]
                                    p- or d-character  > 25.0%
                                    orbital occupancy  >  0.10e

                        Line of Centers        Hybrid 1             Hybrid 2
                        ---------------  -------------------  ------------------
           NBO            Theta   Phi    Theta   Phi    Dev   Theta   Phi    Dev
 ===============================================================================
   2. LP ( 1) F  1          --     --     90.2  238.7   --      --     --    --
   3. LP ( 2) F  1          --     --     90.2  148.7   --      --     --    --


 SECOND ORDER PERTURBATION THEORY ANALYSIS OF FOCK MATRIX IN NBO BASIS

     Threshold for printing:   0.50 kcal/mol
                                                          E(2) E(NL)-E(L) F(L,NL)
      Donor (L) NBO              Acceptor (NL) NBO      kcal/mol   a.u.    a.u.
 ===============================================================================

 within unit  1
    4. LP ( 3) F  1            16. RY ( 1) H  2            0.96    2.04   0.039


 NATURAL BOND ORBITALS (Summary):

                                                     Principal Delocalizations
           NBO                 Occupancy    Energy   (geminal,vicinal,remote)
 ===============================================================================
 Molecular unit  1  (HF)
 ------ Lewis --------------------------------------
    1. CR ( 1) F  1             2.00000   -26.27265
    2. LP ( 1) F  1             2.00000    -0.62678
    3. LP ( 2) F  1             2.00000    -0.62678
    4. LP ( 3) F  1             1.99926    -1.28613  16(v)
    5. BD ( 1) F  1- H  2       2.00000    -1.02637
 ------ non-Lewis ----------------------------------
    6. BD*( 1) F  1- H  2       0.00000     0.67792
    7. RY ( 1) F  1             0.00000     2.08242
    8. RY ( 2) F  1             0.00000     1.49218
    9. RY ( 3) F  1             0.00000     1.49226
   10. RY ( 4) F  1             0.00000     2.08986
   11. RY ( 5) F  1             0.00000     2.15692
   12. RY ( 6) F  1             0.00000     2.15692
   13. RY ( 7) F  1             0.00000     2.08987
   14. RY ( 8) F  1             0.00000     2.52373
   15. RY ( 9) F  1             0.00000     1.74656
   16. RY ( 1) H  2             0.00074     0.75139
          -------------------------------
                 Total Lewis    9.99925  ( 99.9925%)
           Valence non-Lewis    0.00000  (  0.0000%)
           Rydberg non-Lewis    0.00075  (  0.0075%)
          -------------------------------
               Total unit  1   10.00000  (100.0000%)
              Charge unit  1    0.00000

 $CHOOSE
   LONE 1 3 END
   BOND S 1 2 END
 $END

 NBO analysis completed in 0.15 CPU seconds (0 wall seconds)
 Maximum scratch memory used by NBO was 313671 words (2.39 MB)
 Maximum scratch memory used by G16NBO was 8539 words (0.07 MB)

 Opening RunExU unformatted file "/cluster/work/users/beto93/mol12/Gau-2207164.EUF"
 Read unf file /cluster/work/users/beto93/mol12/Gau-2207164.EUF:
 Label Gaussian matrix elements                                         IVers= 2 NLab= 2 Version=ES64L-G16RevC.01
 Title mol12-NBO                                                       
 NAtoms=     2 NBasis=    16 NBsUse=    16 ICharg=     0 Multip=     1 NE=    10 Len12L=8 Len4L=8 IOpCl= 0 ICGU=111
 GAUSSIAN SCALARS                    NI= 1 NR= 1 NTot=       1 LenBuf=    2 NRI=1 N=    1000
 NPA CHARGES                         NI= 0 NR= 1 NTot=       2 LenBuf= 4000 NRI=1 N=       2
 Recovered energy= -100.000221016     dipole=      0.000000000000      0.000000000000     -0.792605582560
 Unable to Open any file for archive entry.
 1\1\GINC-C2-23\SP\RHF\6-31G(d)\F1H1\BETO93\18-Nov-2024\0\\#RHF/6-31G* 
 int=nobasistransform Symmetry=None 5D 7F Pop=NBO7Read\\mol12-NBO\\0,1\
 F,0,0.,0.,0.093389\H,0,0.,0.,-0.840502\\Version=ES64L-G16RevC.01\HF=-1
 00.000221\RMSD=9.345e-09\Dipole=0.,0.,-0.7926056\Quadrupole=-0.5357648
 ,-0.5357648,1.0715296,0.,0.,0.\PG=Unknown\\@
 The archive entry for this job was punched.


 NOTHING WILL BE ATTEMPTED IF ALL POSSIBLE OBJECTIONS
 MUST FIRST BE OVERCOME.

                               -- THE GOLDEN PRINCIPLE,
                    PAUL DICKSON'S "THE OFFICIAL RULES"
 Job cpu time:       0 days  0 hours  0 minutes  6.0 seconds.
 Elapsed time:       0 days  0 hours  0 minutes  2.0 seconds.
 File lengths (MBytes):  RWF=     10 Int=      0 D2E=      0 Chk=      1 Scr=      1
 Normal termination of Gaussian 16 at Mon Nov 18 16:40:07 2024.
