 Entering Gaussian System, Link 0=g16
 Initial command:
 /cluster/software/Gaussian/g16_C.01/l1.exe "/cluster/work/users/beto93/mol85/Gau-27255.inp" -scrdir="/cluster/work/users/beto93/mol85/"
 Entering Link 1 = /cluster/software/Gaussian/g16_C.01/l1.exe PID=     27272.
  
 Copyright (c) 1988-2019, Gaussian, Inc.  All Rights Reserved.
  
 This is part of the Gaussian(R) 16 program.  It is based on
 the Gaussian(R) 09 system (copyright 2009, Gaussian, Inc.),
 the Gaussian(R) 03 system (copyright 2003, Gaussian, Inc.),
 the Gaussian(R) 98 system (copyright 1998, Gaussian, Inc.),
 the Gaussian(R) 94 system (copyright 1995, Gaussian, Inc.),
 the Gaussian 92(TM) system (copyright 1992, Gaussian, Inc.),
 the Gaussian 90(TM) system (copyright 1990, Gaussian, Inc.),
 the Gaussian 88(TM) system (copyright 1988, Gaussian, Inc.),
 the Gaussian 86(TM) system (copyright 1986, Carnegie Mellon
 University), and the Gaussian 82(TM) system (copyright 1983,
 Carnegie Mellon University). Gaussian is a federally registered
 trademark of Gaussian, Inc.
  
 This software contains proprietary and confidential information,
 including trade secrets, belonging to Gaussian, Inc.
  
 This software is provided under written license and may be
 used, copied, transmitted, or stored only in accord with that
 written license.
  
 The following legend is applicable only to US Government
 contracts under FAR:
  
                    RESTRICTED RIGHTS LEGEND
  
 Use, reproduction and disclosure by the US Government is
 subject to restrictions as set forth in subparagraphs (a)
 and (c) of the Commercial Computer Software - Restricted
 Rights clause in FAR 52.227-19.
  
 Gaussian, Inc.
 340 Quinnipiac St., Bldg. 40, Wallingford CT 06492
  
  
 ---------------------------------------------------------------
 Warning -- This program may not be used in any manner that
 competes with the business of Gaussian, Inc. or will provide
 assistance to any competitor of Gaussian, Inc.  The licensee
 of this program is prohibited from giving any competitor of
 Gaussian, Inc. access to this program.  By using this program,
 the user acknowledges that Gaussian, Inc. is engaged in the
 business of creating and licensing software in the field of
 computational chemistry and represents and warrants to the
 licensee that it is not a competitor of Gaussian, Inc. and that
 it will not use this program in any manner prohibited above.
 ---------------------------------------------------------------
  

 Cite this work as:
 Gaussian 16, Revision C.01,
 M. J. Frisch, G. W. Trucks, H. B. Schlegel, G. E. Scuseria, 
 M. A. Robb, J. R. Cheeseman, G. Scalmani, V. Barone, 
 G. A. Petersson, H. Nakatsuji, X. Li, M. Caricato, A. V. Marenich, 
 J. Bloino, B. G. Janesko, R. Gomperts, B. Mennucci, H. P. Hratchian, 
 J. V. Ortiz, A. F. Izmaylov, J. L. Sonnenberg, D. Williams-Young, 
 F. Ding, F. Lipparini, F. Egidi, J. Goings, B. Peng, A. Petrone, 
 T. Henderson, D. Ranasinghe, V. G. Zakrzewski, J. Gao, N. Rega, 
 G. Zheng, W. Liang, M. Hada, M. Ehara, K. Toyota, R. Fukuda, 
 J. Hasegawa, M. Ishida, T. Nakajima, Y. Honda, O. Kitao, H. Nakai, 
 T. Vreven, K. Throssell, J. A. Montgomery, Jr., J. E. Peralta, 
 F. Ogliaro, M. J. Bearpark, J. J. Heyd, E. N. Brothers, K. N. Kudin, 
 V. N. Staroverov, T. A. Keith, R. Kobayashi, J. Normand, 
 K. Raghavachari, A. P. Rendell, J. C. Burant, S. S. Iyengar, 
 J. Tomasi, M. Cossi, J. M. Millam, M. Klene, C. Adamo, R. Cammi, 
 J. W. Ochterski, R. L. Martin, K. Morokuma, O. Farkas, 
 J. B. Foresman, and D. J. Fox, Gaussian, Inc., Wallingford CT, 2019.
 
 ******************************************
 Gaussian 16:  ES64L-G16RevC.01  3-Jul-2019
                18-Nov-2024 
 ******************************************
 %LindaWorkers=c5-5-ib
 %NProcShared=4
 Will use up to    4 processors via shared memory.
 %mem=25GB
 %chk=mol85.chk
 SetLPE:    new flags="-opt 'Tsnet.Node.lindarsharg: ssh'  -nodelist 'c5-5-ib.saga' -env GAUSS_MDEF=3355443200 -env GAUSS_EXEDIR="/cluster/software/Gaussian/g16_C.01/bsd:/cluster/software/Gaussian/g16_C.01""
 Will use up to    1 processors via Linda.
 -----------------------------------------------------------------
 #RHF/STO-3G int=nobasistransform Symmetry=None 5D 7F Pop=NBO7Read
 -----------------------------------------------------------------
 1/38=1,163=2,172=1/1;
 2/12=2,15=3,17=6,18=5,40=1/2;
 3/6=3,8=11,11=1,25=1,30=1,60=-1,116=1/1,2,3;
 4//1;
 5/5=2,38=5/2;
 6/7=2,8=2,9=2,10=2,28=1,40=2,113=1,114=1,124=2103/1,12;
 99/5=1,9=1/99;
 ---------
 mol85-NBO
 ---------
 Symbolic Z-matrix:
 Charge =  0 Multiplicity = 1
 C                     0.        1.13134   0.31042 
 C                     0.       -1.13134   0.31042 
 C                     0.74795   0.       -0.31181 
 C                    -0.74795   0.       -0.31181 
 H                     0.        1.23703   1.39762 
 H                     0.        2.07737  -0.22767 
 H                     0.       -1.23703   1.39762 
 H                     0.       -2.07737  -0.22767 
 H                     1.41441   0.       -1.16163 
 H                    -1.41441   0.       -1.16163 
 
                          Input orientation:                          
 ---------------------------------------------------------------------
 Center     Atomic      Atomic             Coordinates (Angstroms)
 Number     Number       Type             X           Y           Z
 ---------------------------------------------------------------------
      1          6           0        0.000000    1.131343    0.310424
      2          6           0        0.000000   -1.131343    0.310424
      3          6           0        0.747952    0.000000   -0.311812
      4          6           0       -0.747952    0.000000   -0.311812
      5          1           0        0.000000    1.237033    1.397617
      6          1           0        0.000000    2.077375   -0.227668
      7          1           0        0.000000   -1.237033    1.397617
      8          1           0        0.000000   -2.077375   -0.227668
      9          1           0        1.414410    0.000000   -1.161626
     10          1           0       -1.414410    0.000000   -1.161626
 ---------------------------------------------------------------------
                    Distance matrix (angstroms):
                    1          2          3          4          5
     1  C    0.000000
     2  C    2.262686   0.000000
     3  C    1.492162   1.492162   0.000000
     4  C    1.492162   1.492162   1.495904   0.000000
     5  H    1.092318   2.605992   2.238712   2.238712   0.000000
     6  H    1.088356   3.253523   2.209525   2.209525   1.829679
     7  H    2.605992   1.092318   2.238712   2.238712   2.474066
     8  H    3.253523   1.088356   2.209525   2.209525   3.691457
     9  H    2.333972   2.333972   1.079977   2.323358   3.174985
    10  H    2.333972   2.333972   2.323358   1.079977   3.174985
                    6          7          8          9         10
     6  H    0.000000
     7  H    3.691457   0.000000
     8  H    4.154750   1.829679   0.000000
     9  H    2.681104   3.174985   2.681104   0.000000
    10  H    2.681104   3.174985   2.681104   2.828820   0.000000
 Symmetry turned off by external request.
 Stoichiometry    C4H6
 Rotational constants (GHZ):          17.5074429           9.3746374           8.4285686
 Standard basis: STO-3G (5D, 7F)
    26 basis functions,    78 primitive gaussians,    26 cartesian basis functions
    15 alpha electrons       15 beta electrons
       nuclear repulsion energy       116.5839423635 Hartrees.
 NAtoms=   10 NActive=   10 NUniq=   10 SFac= 1.00D+00 NAtFMM=   60 NAOKFM=F Big=F
 Integral buffers will be    131072 words long.
 Raffenetti 1 integral format.
 Two-electron integral symmetry is turned off.
 One-electron integrals computed using PRISM.
 NBasis=    26 RedAO= T EigKep=  2.13D-01  NBF=    26
 NBsUse=    26 1.00D-06 EigRej= -1.00D+00 NBFU=    26
 ExpMin= 1.69D-01 ExpMax= 7.16D+01 ExpMxC= 7.16D+01 IAcc=3 IRadAn=         5 AccDes= 0.00D+00
 Harris functional with IExCor=  205 and IRadAn=       5 diagonalized for initial guess.
 HarFok:  IExCor=  205 AccDes= 0.00D+00 IRadAn=         5 IDoV= 1 UseB2=F ITyADJ=14
 ICtDFT=  3500011 ScaDFX=  1.000000  1.000000  1.000000  1.000000
 FoFCou: FMM=F IPFlag=           0 FMFlag=      100000 FMFlg1=           0
         NFxFlg=           0 DoJE=T BraDBF=F KetDBF=T FulRan=T
         wScrn=  0.000000 ICntrl=       500 IOpCl=  0 I1Cent=   200000004 NGrid=           0
         NMat0=    1 NMatS0=      1 NMatT0=    0 NMatD0=    1 NMtDS0=    0 NMtDT0=    0
 Symmetry not used in FoFCou.
 Keep R1 ints in memory in canonical form, NReq=877545.
 Requested convergence on RMS density matrix=1.00D-08 within 128 cycles.
 Requested convergence on MAX density matrix=1.00D-06.
 Requested convergence on             energy=1.00D-06.
 No special actions if energy rises.
 SCF Done:  E(RHF) =  -152.998619766     A.U. after    9 cycles
            NFock=  9  Conv=0.41D-08     -V/T= 2.0075

 **********************************************************************

            Population analysis using the SCF Density.

 **********************************************************************

 Alpha  occ. eigenvalues --  -11.05876 -11.05863 -11.03208 -11.03183  -1.17228
 Alpha  occ. eigenvalues --   -0.88950  -0.74891  -0.74454  -0.65734  -0.55406
 Alpha  occ. eigenvalues --   -0.54386  -0.47530  -0.42422  -0.39908  -0.30233
 Alpha virt. eigenvalues --    0.40276   0.58539   0.59388   0.66117   0.67519
 Alpha virt. eigenvalues --    0.68814   0.72551   0.73061   0.84527   0.87787
 Alpha virt. eigenvalues --    0.91999
          Condensed to atoms (all electrons):
               1          2          3          4          5          6
     1  C    4.774349  -0.062986   0.322510   0.322510   0.384047   0.390808
     2  C   -0.062986   4.774349   0.322510   0.322510  -0.005699   0.002829
     3  C    0.322510   0.322510   4.971608   0.179979  -0.018533  -0.017758
     4  C    0.322510   0.322510   0.179979   4.971608  -0.018533  -0.017758
     5  H    0.384047  -0.005699  -0.018533  -0.018533   0.617577  -0.023728
     6  H    0.390808   0.002829  -0.017758  -0.017758  -0.023728   0.598998
     7  H   -0.005699   0.384047  -0.018533  -0.018533   0.002597  -0.000010
     8  H    0.002829   0.390808  -0.017758  -0.017758  -0.000010  -0.000077
     9  H   -0.013988  -0.013988   0.390723  -0.007648   0.000451  -0.001421
    10  H   -0.013988  -0.013988  -0.007648   0.390723   0.000451  -0.001421
               7          8          9         10
     1  C   -0.005699   0.002829  -0.013988  -0.013988
     2  C    0.384047   0.390808  -0.013988  -0.013988
     3  C   -0.018533  -0.017758   0.390723  -0.007648
     4  C   -0.018533  -0.017758  -0.007648   0.390723
     5  H    0.002597  -0.000010   0.000451   0.000451
     6  H   -0.000010  -0.000077  -0.001421  -0.001421
     7  H    0.617577  -0.023728   0.000451   0.000451
     8  H   -0.023728   0.598998  -0.001421  -0.001421
     9  H    0.000451  -0.001421   0.572112  -0.001840
    10  H    0.000451  -0.001421  -0.001840   0.572112
 Mulliken charges:
               1
     1  C   -0.100389
     2  C   -0.100389
     3  C   -0.107100
     4  C   -0.107100
     5  H    0.061380
     6  H    0.069539
     7  H    0.061380
     8  H    0.069539
     9  H    0.076570
    10  H    0.076570
 Sum of Mulliken charges =  -0.00000
 Mulliken charges with hydrogens summed into heavy atoms:
               1
     1  C    0.030530
     2  C    0.030530
     3  C   -0.030530
     4  C   -0.030530
 Electronic spatial extent (au):  <R**2>=            220.0828
 Charge=             -0.0000 electrons
 Dipole moment (field-independent basis, Debye):
    X=             -0.0000    Y=              0.0000    Z=             -0.6754  Tot=              0.6754
 Quadrupole moment (field-independent basis, Debye-Ang):
   XX=            -25.3055   YY=            -23.2080   ZZ=            -22.7290
   XY=              0.0000   XZ=             -0.0000   YZ=             -0.0000
 Traceless Quadrupole moment (field-independent basis, Debye-Ang):
   XX=             -1.5580   YY=              0.5395   ZZ=              1.0185
   XY=              0.0000   XZ=             -0.0000   YZ=             -0.0000
 Octapole moment (field-independent basis, Debye-Ang**2):
  XXX=             -0.0000  YYY=              0.0000  ZZZ=              0.2839  XYY=             -0.0000
  XXY=              0.0000  XXZ=             -2.4538  XZZ=              0.0000  YZZ=              0.0000
  YYZ=             -1.0277  XYZ=              0.0000
 Hexadecapole moment (field-independent basis, Debye-Ang**3):
 XXXX=            -71.5239 YYYY=           -140.2588 ZZZZ=            -56.6363 XXXY=              0.0000
 XXXZ=             -0.0000 YYYX=             -0.0000 YYYZ=             -0.0000 ZZZX=             -0.0000
 ZZZY=              0.0000 XXYY=            -38.5048 XXZZ=            -19.6317 YYZZ=            -33.9005
 XXYZ=             -0.0000 YYXZ=              0.0000 ZZXY=              0.0000
 N-N= 1.165839423635D+02 E-N=-5.888409960355D+02  KE= 1.518613079885D+02
 Running external command "gaunbo7 R"
         input file       "/cluster/work/users/beto93/mol85/Gau-27272.EIn"
         output file      "/cluster/work/users/beto93/mol85/Gau-27272.EOu"
         message file     "/cluster/work/users/beto93/mol85/Gau-27272.EMs"
         fchk file        "/cluster/work/users/beto93/mol85/Gau-27272.EFC"
         mat. el file     "/cluster/work/users/beto93/mol85/Gau-27272.EUF"

 Writing WrtUnf unformatted file "/cluster/work/users/beto93/mol85/Gau-27272.EUF"
 Gaussian matrix elements                                         Version   2 NLab=11 Len12L=8 Len4L=8
 Write SHELL TO ATOM MAP                   from file      0 offset           0 length                  14 to matrix element file.
 Write SHELL TYPES                         from file      0 offset           0 length                  14 to matrix element file.
 Write NUMBER OF PRIMITIVES PER SHELL      from file      0 offset           0 length                  14 to matrix element file.
 Write PRIMITIVE EXPONENTS                 from file      0 offset           0 length                  42 to matrix element file.
 Write CONTRACTION COEFFICIENTS            from file      0 offset           0 length                  42 to matrix element file.
 Write P(S=P) CONTRACTION COEFFICIENTS     from file      0 offset           0 length                  42 to matrix element file.
 Write COORDINATES OF EACH SHELL           from file      0 offset           0 length                  42 to matrix element file.
 Write BONDS PER ATOM                      from file      0 offset           0 length                  10 to matrix element file.
 Write BONDED ATOMS                        from file      0 offset           0 length                  22 to matrix element file.
 Write BOND TYPES                          from file      0 offset           0 length                  22 to matrix element file.
 Write ONIOM CHARGE/MULT                   from file      0 offset           0 length                  32 to matrix element file.
 Write ONIOM ATOM LAYERS                   from file      0 offset           0 length                  10 to matrix element file.
 Write ONIOM ATOM MODIFIERS                from file      0 offset           0 length                  10 to matrix element file.
 Write ONIOM ATOM TYPES                    from file      0 offset           0 length                  10 to matrix element file.
 Write ONIOM LINK ATOMS                    from file      0 offset           0 length                  10 to matrix element file.
 Write ONIOM LINK CHARGES                  from file      0 offset           0 length                  10 to matrix element file.
 Write ONIOM LINK DISTANCES                from file      0 offset           0 length                  40 to matrix element file.
 Write SYMINF INTS                         from file      0 offset           0 length                  26 to matrix element file.
 Write ROTTR TO SO                         from file      0 offset           0 length                  12 to matrix element file.
 Write GAUSSIAN SCALARS                    from file    501 offset           0 to matrix element file.
 Write OPTIMIZATION FLAGS                  from file      0 offset           0 length                  10 to matrix element file.
 Write INTEGER ISO                         from file      0 offset           0 length                  10 to matrix element file.
 Write INTEGER SPIN                        from file      0 offset           0 length                  10 to matrix element file.
 Write REAL ZEFFECTIVE                     from file      0 offset           0 length                  10 to matrix element file.
 Write REAL GFACTOR                        from file      0 offset           0 length                  10 to matrix element file.
 Write REAL ZNUCLEAR                       from file      0 offset           0 length                  10 to matrix element file.
 Write MULLIKEN CHARGES                    from file      0 offset           0 length                  10 to matrix element file.
 Write NUCLEAR GRADIENT                    from file  10584 offset           0 length                  30 to matrix element file.
 Array NUCLEAR FORCE CONSTANTS              on  file  10585 does not exist.
 Write ELECTRIC DIPOLE MOMENT              from file      0 offset           0 length                   3 to matrix element file.
 Write NON-ADIABATIC COUPLING              from file  10810 offset           0 length                  30 to matrix element file.
 Write FINITE EM FIELD                     from file  10521 offset           0 length                  35 to matrix element file.
 Write OVERLAP                             from file  10514 offset           0 length                 351 to matrix element file.
 Write CORE HAMILTONIAN ALPHA              from file  10515 offset           0 length                 351 to matrix element file.
 Write CORE HAMILTONIAN BETA               from file  10515 offset         351 length                 351 to matrix element file.
 Write KINETIC ENERGY                      from file  10516 offset           0 length                 351 to matrix element file.
 Write ORTHOGONAL BASIS                    from file  10685 offset           0 length                 676 to matrix element file.
 Write DIPOLE INTEGRALS                    from file  10518 offset           0 length                1053 to matrix element file.
 Array DIP VEL INTEGRALS                    on  file  10572 does not exist.
 Array R X DEL INTEGRALS                    on  file  10572 does not exist.
 Write ALPHA ORBITAL ENERGIES              from file      0 offset           0 length                  26 to matrix element file.
 Write ALPHA MO COEFFICIENTS               from file  10524 offset           0 length                 676 to matrix element file.
 Write ALPHA DENSITY MATRIX                from file      0 offset           0 length                 351 to matrix element file.
 Write ALPHA FOCK MATRIX                   from file  10536 offset           0 length                 351 to matrix element file.
 Write ENERGY-WEIGHTED DENSITY             from file  10571 offset           0 length                 351 to matrix element file.
 Write ALPHA SCF DENSITY MATRIX            from file      0 offset           0 length                 351 to matrix element file.
 No 2e integrals to process.
 Perform NBO analysis...executing G16NBO...

 *********************************** NBO 7.0 ***********************************
             N A T U R A L   A T O M I C   O R B I T A L   A N D
          N A T U R A L   B O N D   O R B I T A L   A N A L Y S I S
 **************************** Espen Tangen (S101595) ***************************
  (c) Copyright 1996-2021 Board of Regents of the University of Wisconsin System
      on behalf of the Theoretical Chemistry Institute.  All rights reserved.

          Cite this program [NBO 7.0.10 (8-Feb-2021)] as:

          NBO 7.0.  E. D. Glendening, J. K. Badenhoop, A. E. Reed,
          J. E. Carpenter, J. A. Bohmann, C. M. Morales, P. Karafiloglou,
          C. R. Landis, and F. Weinhold, Theoretical Chemistry Institute,
          University of Wisconsin, Madison, WI (2018)

       /NPA    / : Natural Population Analysis
       /AOPNAO / : Print the AO to PNAO transformation
       /AONAO  / : Print the AO to NAO transformation
       /AOMO   / : Print the MOs in the AO basis
       /BOAO   / : Print the AO bond-order matrix
       /DMAO   / : Print the AO density matrix
       /DMPNAO / : Print the PNAO density matrix
       /DMNAO  / : Print the NAO density matrix
       /DMMO   / : Print the MO density matrix
       /SAO    / : Print the AO overlap matrix
       /SPNAO  / : Print the PNAO overlap matrix
       /DETAIL / : Write details of NBO search
       /ARCHIVE/ : Write the archive file to lfn47
       /AOINFO / : Write AO information to lfn31
       /FILE   / : Set to mol85.gen*

 Filename set to mol85.gen1

 Job title: mol85-NBO


 MOs in the AO basis:

           AO          1       2       3       4       5       6       7       8
      ------------ ------- ------- ------- ------- ------- ------- ------- -------
   1.  C 1 (s)      0.7014  0.7015  0.0004  0.0000 -0.1069 -0.1600 -0.1011  0.0000
   2.  C 1 (s)      0.0261  0.0261 -0.0075  0.0000  0.2489  0.4686  0.3256  0.0000
   3.  C 1 (px)     0.0000  0.0000  0.0000 -0.0039  0.0000  0.0000  0.0000  0.1676
   4.  C 1 (py)    -0.0015 -0.0012  0.0037  0.0000 -0.0927  0.0033  0.1035  0.0000
   5.  C 1 (pz)    -0.0008 -0.0010  0.0022  0.0000 -0.0484 -0.0403  0.1504  0.0000
   6.  C 2 (s)     -0.7014  0.7015  0.0004  0.0000 -0.1069  0.1600 -0.1011  0.0000
   7.  C 2 (s)     -0.0261  0.0261 -0.0075  0.0000  0.2489 -0.4686  0.3256  0.0000
   8.  C 2 (px)     0.0000  0.0000  0.0000 -0.0039  0.0000  0.0000  0.0000  0.1676
   9.  C 2 (py)    -0.0015  0.0012 -0.0037  0.0000  0.0927  0.0033 -0.1035  0.0000
  10.  C 2 (pz)     0.0008 -0.0010  0.0022  0.0000 -0.0484  0.0403  0.1504  0.0000
  11.  C 3 (s)      0.0000  0.0005  0.7016  0.7013 -0.1383  0.0000  0.0768 -0.1489
  12.  C 3 (s)      0.0000 -0.0073  0.0227  0.0290  0.3234  0.0000 -0.2386  0.4844
  13.  C 3 (px)     0.0000  0.0015 -0.0009 -0.0058 -0.1370  0.0000  0.0389  0.1307
  14.  C 3 (py)    -0.0049  0.0000  0.0000  0.0000  0.0000  0.1816  0.0000  0.0000
  15.  C 3 (pz)     0.0000 -0.0026  0.0008 -0.0009  0.0410  0.0000  0.1693 -0.0395
  16.  C 4 (s)      0.0000  0.0005  0.7016 -0.7013 -0.1383  0.0000  0.0768  0.1489
  17.  C 4 (s)      0.0000 -0.0073  0.0227 -0.0290  0.3234  0.0000 -0.2386 -0.4844
  18.  C 4 (px)     0.0000 -0.0015  0.0009 -0.0058  0.1370  0.0000 -0.0389  0.1307
  19.  C 4 (py)    -0.0049  0.0000  0.0000  0.0000  0.0000  0.1816  0.0000  0.0000
  20.  C 4 (pz)     0.0000 -0.0026  0.0008  0.0009  0.0410  0.0000  0.1693  0.0395
  21.  H 5 (s)     -0.0046 -0.0047  0.0000  0.0000  0.0408  0.1237  0.2112  0.0000
  22.  H 6 (s)     -0.0047 -0.0049  0.0001  0.0000  0.0395  0.1553  0.1314  0.0000
  23.  H 7 (s)      0.0046 -0.0047  0.0000  0.0000  0.0408 -0.1237  0.2112  0.0000
  24.  H 8 (s)      0.0047 -0.0049  0.0001  0.0000  0.0395 -0.1553  0.1314  0.0000
  25.  H 9 (s)      0.0000  0.0001 -0.0044 -0.0047  0.0525  0.0000 -0.1531  0.2569
  26.  H10 (s)      0.0000  0.0001 -0.0044  0.0047  0.0525  0.0000 -0.1531 -0.2569

           AO          9      10      11      12      13      14      15      16
      ------------ ------- ------- ------- ------- ------- ------- ------- -------
   1.  C 1 (s)     -0.0303 -0.0160  0.0163  0.0213  0.0000  0.0000 -0.0126  0.0000
   2.  C 1 (s)      0.1156  0.0524 -0.0395 -0.0858  0.0000  0.0000  0.0890  0.0000
   3.  C 1 (px)     0.0000  0.0000  0.0000  0.0000  0.3574  0.4660  0.0000  0.5478
   4.  C 1 (py)     0.2757  0.1193 -0.1093  0.4092  0.0000  0.0000 -0.0915  0.0000
   5.  C 1 (pz)    -0.0730  0.3869  0.3067 -0.1160  0.0000  0.0000 -0.1576  0.0000
   6.  C 2 (s)     -0.0303  0.0160  0.0163 -0.0213  0.0000  0.0000 -0.0126  0.0000
   7.  C 2 (s)      0.1156 -0.0524 -0.0395  0.0858  0.0000  0.0000  0.0890  0.0000
   8.  C 2 (px)     0.0000  0.0000  0.0000  0.0000  0.3574 -0.4660  0.0000  0.5478
   9.  C 2 (py)    -0.2757  0.1193  0.1093  0.4092  0.0000  0.0000  0.0915  0.0000
  10.  C 2 (pz)    -0.0730 -0.3869  0.3067  0.1160  0.0000  0.0000 -0.1576  0.0000
  11.  C 3 (s)     -0.0062  0.0000 -0.0314  0.0000 -0.0392  0.0000 -0.0205  0.0454
  12.  C 3 (s)      0.0365  0.0000  0.1171  0.0000  0.1899  0.0000  0.0758 -0.2421
  13.  C 3 (px)     0.1919  0.0000  0.2509  0.0000 -0.0959  0.0000  0.4309 -0.4562
  14.  C 3 (py)     0.0000 -0.2177  0.0000 -0.2350  0.0000  0.4171  0.0000  0.0000
  15.  C 3 (pz)    -0.2240  0.0000 -0.0492  0.0000  0.3965  0.0000  0.4113 -0.4831
  16.  C 4 (s)     -0.0062  0.0000 -0.0314  0.0000  0.0392  0.0000 -0.0205 -0.0454
  17.  C 4 (s)      0.0365  0.0000  0.1171  0.0000 -0.1899  0.0000  0.0758  0.2421
  18.  C 4 (px)    -0.1919  0.0000 -0.2509  0.0000 -0.0959  0.0000 -0.4309 -0.4562
  19.  C 4 (py)     0.0000 -0.2177  0.0000 -0.2350  0.0000 -0.4171  0.0000  0.0000
  20.  C 4 (pz)    -0.2240  0.0000 -0.0492  0.0000 -0.3965  0.0000  0.4113  0.4831
  21.  H 5 (s)      0.0167  0.3379  0.2275 -0.1114  0.0000  0.0000 -0.2618  0.0000
  22.  H 6 (s)      0.2395 -0.0437 -0.2266  0.3739  0.0000  0.0000  0.0779  0.0000
  23.  H 7 (s)      0.0167 -0.3379  0.2275  0.1114  0.0000  0.0000 -0.2618  0.0000
  24.  H 8 (s)      0.2395  0.0437 -0.2266 -0.3739  0.0000  0.0000  0.0779  0.0000
  25.  H 9 (s)      0.2037  0.0000  0.2375  0.0000 -0.3077  0.0000  0.0353  0.0900
  26.  H10 (s)      0.2037  0.0000  0.2375  0.0000  0.3077  0.0000  0.0353 -0.0900

           AO         17      18      19      20      21      22      23      24
      ------------ ------- ------- ------- ------- ------- ------- ------- -------
   1.  C 1 (s)     -0.0144  0.0000 -0.1664 -0.1314  0.0000  0.0330  0.0845  0.0728
   2.  C 1 (s)      0.0567  0.0000  1.0273  0.8015  0.0000 -0.2200 -0.5557 -0.4611
   3.  C 1 (px)     0.0000 -0.6465  0.0000  0.0000 -0.3275  0.0000  0.0000  0.0000
   4.  C 1 (py)    -0.3628  0.0000  0.0557 -0.4109  0.0000 -0.3874 -0.6994  0.1358
   5.  C 1 (pz)     0.2096  0.0000 -0.2759  0.3134  0.0000 -0.7263 -0.0519  0.7743
   6.  C 2 (s)     -0.0144  0.0000 -0.1664  0.1314  0.0000  0.0330 -0.0845 -0.0728
   7.  C 2 (s)      0.0567  0.0000  1.0273 -0.8015  0.0000 -0.2200  0.5557  0.4611
   8.  C 2 (px)     0.0000  0.6465  0.0000  0.0000 -0.3275  0.0000  0.0000  0.0000
   9.  C 2 (py)     0.3628  0.0000 -0.0557 -0.4109  0.0000  0.3874 -0.6994  0.1358
  10.  C 2 (pz)     0.2096  0.0000 -0.2759 -0.3134  0.0000 -0.7263  0.0519 -0.7743
  11.  C 3 (s)      0.1072  0.0000  0.0942  0.0000 -0.1765  0.0596  0.0000  0.0000
  12.  C 3 (s)     -0.6735  0.0000 -0.5618  0.0000  1.0858 -0.3965  0.0000  0.0000
  13.  C 3 (px)    -0.2905  0.0000  0.0734  0.0000 -0.3844  0.1303  0.0000  0.0000
  14.  C 3 (py)     0.0000  0.7556  0.0000 -0.4842  0.0000  0.0000 -0.1281  0.6144
  15.  C 3 (pz)     0.1830  0.0000 -0.1570  0.0000 -0.3585 -0.0133  0.0000  0.0000
  16.  C 4 (s)      0.1072  0.0000  0.0942  0.0000  0.1765  0.0596  0.0000  0.0000
  17.  C 4 (s)     -0.6735  0.0000 -0.5618  0.0000 -1.0858 -0.3965  0.0000  0.0000
  18.  C 4 (px)     0.2905  0.0000 -0.0734  0.0000 -0.3844 -0.1303  0.0000  0.0000
  19.  C 4 (py)     0.0000 -0.7556  0.0000 -0.4842  0.0000  0.0000 -0.1281  0.6144
  20.  C 4 (pz)     0.1830  0.0000 -0.1570  0.0000  0.3585 -0.0133  0.0000  0.0000
  21.  H 5 (s)     -0.2355  0.0000 -0.2379 -0.6871  0.0000  0.7509  0.3788 -0.4493
  22.  H 6 (s)      0.3957  0.0000 -0.7087  0.1209  0.0000  0.0640  0.7784  0.3925
  23.  H 7 (s)     -0.2355  0.0000 -0.2379  0.6871  0.0000  0.7509 -0.3788  0.4493
  24.  H 8 (s)      0.3957  0.0000 -0.7087 -0.1209  0.0000  0.0640 -0.7784 -0.3925
  25.  H 9 (s)      0.7230  0.0000  0.1740  0.0000 -0.6141  0.1082  0.0000  0.0000
  26.  H10 (s)      0.7230  0.0000  0.1740  0.0000  0.6141  0.1082  0.0000  0.0000

           AO         25      26
      ------------ ------- -------
   1.  C 1 (s)      0.0000  0.0567
   2.  C 1 (s)      0.0000 -0.3953
   3.  C 1 (px)     0.2773  0.0000
   4.  C 1 (py)     0.0000  0.7011
   5.  C 1 (pz)     0.0000 -0.1847
   6.  C 2 (s)      0.0000  0.0567
   7.  C 2 (s)      0.0000 -0.3953
   8.  C 2 (px)     0.2773  0.0000
   9.  C 2 (py)     0.0000 -0.7011
  10.  C 2 (pz)     0.0000 -0.1847
  11.  C 3 (s)      0.0371 -0.0259
  12.  C 3 (s)     -0.2376  0.1480
  13.  C 3 (px)     0.8618 -0.4026
  14.  C 3 (py)     0.0000  0.0000
  15.  C 3 (pz)    -0.5386  0.6269
  16.  C 4 (s)     -0.0371 -0.0259
  17.  C 4 (s)      0.2376  0.1480
  18.  C 4 (px)     0.8618  0.4026
  19.  C 4 (py)     0.0000  0.0000
  20.  C 4 (pz)     0.5386  0.6269
  21.  H 5 (s)      0.0000  0.2452
  22.  H 6 (s)      0.0000 -0.3686
  23.  H 7 (s)      0.0000  0.2452
  24.  H 8 (s)      0.0000 -0.3686
  25.  H 9 (s)     -0.6489  0.4990
  26.  H10 (s)      0.6489  0.4990


 AO overlap matrix:

           AO          1       2       3       4       5       6       7       8
      ------------ ------- ------- ------- ------- ------- ------- ------- -------
   1.  C 1 (s)      1.0000  0.2484  0.0000  0.0000  0.0000  0.0000  0.0032  0.0000
   2.  C 1 (s)      0.2484  1.0000  0.0000  0.0000  0.0000  0.0032  0.0842  0.0000
   3.  C 1 (px)     0.0000  0.0000  1.0000  0.0000  0.0000  0.0000  0.0000  0.0366
   4.  C 1 (py)     0.0000  0.0000  0.0000  1.0000  0.0000 -0.0069 -0.1190  0.0000
   5.  C 1 (pz)     0.0000  0.0000  0.0000  0.0000  1.0000  0.0000  0.0000  0.0000
   6.  C 2 (s)      0.0000  0.0032  0.0000 -0.0069  0.0000  1.0000  0.2484  0.0000
   7.  C 2 (s)      0.0032  0.0842  0.0000 -0.1190  0.0000  0.2484  1.0000  0.0000
   8.  C 2 (px)     0.0000  0.0000  0.0366  0.0000  0.0000  0.0000  0.0000  1.0000
   9.  C 2 (py)     0.0069  0.1190  0.0000 -0.1517  0.0000  0.0000  0.0000  0.0000
  10.  C 2 (pz)     0.0000  0.0000  0.0000  0.0000  0.0366  0.0000  0.0000  0.0000
  11.  C 3 (s)      0.0000  0.0300  0.0250 -0.0379 -0.0208  0.0000  0.0300  0.0250
  12.  C 3 (s)      0.0300  0.3202  0.1775 -0.2685 -0.1477  0.0300  0.3202  0.1775
  13.  C 3 (px)    -0.0250 -0.1775  0.0541  0.1902  0.1046 -0.0250 -0.1775  0.0541
  14.  C 3 (py)     0.0379  0.2685  0.1902 -0.1078 -0.1582 -0.0379 -0.2685 -0.1902
  15.  C 3 (pz)     0.0208  0.1477  0.1046 -0.1582  0.0928  0.0208  0.1477  0.1046
  16.  C 4 (s)      0.0000  0.0300 -0.0250 -0.0379 -0.0208  0.0000  0.0300 -0.0250
  17.  C 4 (s)      0.0300  0.3202 -0.1775 -0.2685 -0.1477  0.0300  0.3202 -0.1775
  18.  C 4 (px)     0.0250  0.1775  0.0541 -0.1902 -0.1046  0.0250  0.1775  0.0541
  19.  C 4 (py)     0.0379  0.2685 -0.1902 -0.1078 -0.1582 -0.0379 -0.2685  0.1902
  20.  C 4 (pz)     0.0208  0.1477 -0.1046 -0.1582  0.0928  0.0208  0.1477 -0.1046
  21.  H 5 (s)      0.0619  0.4894  0.0000  0.0451  0.4643  0.0016  0.0405  0.0000
  22.  H 6 (s)      0.0625  0.4917  0.0000  0.4067 -0.2313  0.0002  0.0095  0.0000
  23.  H 7 (s)      0.0016  0.0405  0.0000 -0.0525  0.0241  0.0619  0.4894  0.0000
  24.  H 8 (s)      0.0002  0.0095  0.0000 -0.0152 -0.0025  0.0625  0.4917  0.0000
  25.  H 9 (s)      0.0034  0.0697  0.0568 -0.0454 -0.0591  0.0034  0.0697  0.0568
  26.  H10 (s)      0.0034  0.0697 -0.0568 -0.0454 -0.0591  0.0034  0.0697 -0.0568

           AO          9      10      11      12      13      14      15      16
      ------------ ------- ------- ------- ------- ------- ------- ------- -------
   1.  C 1 (s)      0.0069  0.0000  0.0000  0.0300 -0.0250  0.0379  0.0208  0.0000
   2.  C 1 (s)      0.1190  0.0000  0.0300  0.3202 -0.1775  0.2685  0.1477  0.0300
   3.  C 1 (px)     0.0000  0.0000  0.0250  0.1775  0.0541  0.1902  0.1046 -0.0250
   4.  C 1 (py)    -0.1517  0.0000 -0.0379 -0.2685  0.1902 -0.1078 -0.1582 -0.0379
   5.  C 1 (pz)     0.0000  0.0366 -0.0208 -0.1477  0.1046 -0.1582  0.0928 -0.0208
   6.  C 2 (s)      0.0000  0.0000  0.0000  0.0300 -0.0250 -0.0379  0.0208  0.0000
   7.  C 2 (s)      0.0000  0.0000  0.0300  0.3202 -0.1775 -0.2685  0.1477  0.0300
   8.  C 2 (px)     0.0000  0.0000  0.0250  0.1775  0.0541 -0.1902  0.1046 -0.0250
   9.  C 2 (py)     1.0000  0.0000  0.0379  0.2685 -0.1902 -0.1078  0.1582  0.0379
  10.  C 2 (pz)     0.0000  1.0000 -0.0208 -0.1477  0.1046  0.1582  0.0928 -0.0208
  11.  C 3 (s)      0.0379 -0.0208  1.0000  0.2484  0.0000  0.0000  0.0000  0.0000
  12.  C 3 (s)      0.2685 -0.1477  0.2484  1.0000  0.0000  0.0000  0.0000  0.0297
  13.  C 3 (px)    -0.1902  0.1046  0.0000  0.0000  1.0000  0.0000  0.0000 -0.0495
  14.  C 3 (py)    -0.1078  0.1582  0.0000  0.0000  0.0000  1.0000  0.0000  0.0000
  15.  C 3 (pz)     0.1582  0.0928  0.0000  0.0000  0.0000  0.0000  1.0000  0.0000
  16.  C 4 (s)      0.0379 -0.0208  0.0000  0.0297 -0.0495  0.0000  0.0000  1.0000
  17.  C 4 (s)      0.2685 -0.1477  0.0297  0.3185 -0.3527  0.0000  0.0000  0.2484
  18.  C 4 (px)     0.1902 -0.1046  0.0495  0.3527 -0.3201  0.0000  0.0000  0.0000
  19.  C 4 (py)    -0.1078  0.1582  0.0000  0.0000  0.0000  0.1786  0.0000  0.0000
  20.  C 4 (pz)     0.1582  0.0928  0.0000  0.0000  0.0000  0.0000  0.1786  0.0000
  21.  H 5 (s)      0.0525  0.0241  0.0044  0.0835 -0.0367  0.0607  0.0838  0.0044
  22.  H 6 (s)      0.0152 -0.0025  0.0047  0.0881 -0.0390  0.1083  0.0044  0.0047
  23.  H 7 (s)     -0.0451  0.4643  0.0044  0.0835 -0.0367 -0.0607  0.0838  0.0044
  24.  H 8 (s)     -0.4067 -0.2313  0.0047  0.0881 -0.0390 -0.1083  0.0044  0.0047
  25.  H 9 (s)      0.0454 -0.0591  0.0638  0.4965  0.2905  0.0000 -0.3704  0.0035
  26.  H10 (s)      0.0454 -0.0591  0.0035  0.0711 -0.0888  0.0000 -0.0349  0.0638

           AO         17      18      19      20      21      22      23      24
      ------------ ------- ------- ------- ------- ------- ------- ------- -------
   1.  C 1 (s)      0.0300  0.0250  0.0379  0.0208  0.0619  0.0625  0.0016  0.0002
   2.  C 1 (s)      0.3202  0.1775  0.2685  0.1477  0.4894  0.4917  0.0405  0.0095
   3.  C 1 (px)    -0.1775  0.0541 -0.1902 -0.1046  0.0000  0.0000  0.0000  0.0000
   4.  C 1 (py)    -0.2685 -0.1902 -0.1078 -0.1582  0.0451  0.4067 -0.0525 -0.0152
   5.  C 1 (pz)    -0.1477 -0.1046 -0.1582  0.0928  0.4643 -0.2313  0.0241 -0.0025
   6.  C 2 (s)      0.0300  0.0250 -0.0379  0.0208  0.0016  0.0002  0.0619  0.0625
   7.  C 2 (s)      0.3202  0.1775 -0.2685  0.1477  0.0405  0.0095  0.4894  0.4917
   8.  C 2 (px)    -0.1775  0.0541  0.1902 -0.1046  0.0000  0.0000  0.0000  0.0000
   9.  C 2 (py)     0.2685  0.1902 -0.1078  0.1582  0.0525  0.0152 -0.0451 -0.4067
  10.  C 2 (pz)    -0.1477 -0.1046  0.1582  0.0928  0.0241 -0.0025  0.4643 -0.2313
  11.  C 3 (s)      0.0297  0.0495  0.0000  0.0000  0.0044  0.0047  0.0044  0.0047
  12.  C 3 (s)      0.3185  0.3527  0.0000  0.0000  0.0835  0.0881  0.0835  0.0881
  13.  C 3 (px)    -0.3527 -0.3201  0.0000  0.0000 -0.0367 -0.0390 -0.0367 -0.0390
  14.  C 3 (py)     0.0000  0.0000  0.1786  0.0000  0.0607  0.1083 -0.0607 -0.1083
  15.  C 3 (pz)     0.0000  0.0000  0.0000  0.1786  0.0838  0.0044  0.0838  0.0044
  16.  C 4 (s)      0.2484  0.0000  0.0000  0.0000  0.0044  0.0047  0.0044  0.0047
  17.  C 4 (s)      1.0000  0.0000  0.0000  0.0000  0.0835  0.0881  0.0835  0.0881
  18.  C 4 (px)     0.0000  1.0000  0.0000  0.0000  0.0367  0.0390  0.0367  0.0390
  19.  C 4 (py)     0.0000  0.0000  1.0000  0.0000  0.0607  0.1083 -0.0607 -0.1083
  20.  C 4 (pz)     0.0000  0.0000  0.0000  1.0000  0.0838  0.0044  0.0838  0.0044
  21.  H 5 (s)      0.0835  0.0367  0.0607  0.0838  1.0000  0.1567  0.0520  0.0038
  22.  H 6 (s)      0.0881  0.0390  0.1083  0.0044  0.1567  1.0000  0.0038  0.0012
  23.  H 7 (s)      0.0835  0.0367 -0.0607  0.0838  0.0520  0.0038  1.0000  0.1567
  24.  H 8 (s)      0.0881  0.0390 -0.1083  0.0044  0.0038  0.0012  0.1567  1.0000
  25.  H 9 (s)      0.0711  0.0888  0.0000 -0.0349  0.0125  0.0350  0.0125  0.0350
  26.  H10 (s)      0.4965 -0.2905  0.0000 -0.3704  0.0125  0.0350  0.0125  0.0350

           AO         25      26
      ------------ ------- -------
   1.  C 1 (s)      0.0034  0.0034
   2.  C 1 (s)      0.0697  0.0697
   3.  C 1 (px)     0.0568 -0.0568
   4.  C 1 (py)    -0.0454 -0.0454
   5.  C 1 (pz)    -0.0591 -0.0591
   6.  C 2 (s)      0.0034  0.0034
   7.  C 2 (s)      0.0697  0.0697
   8.  C 2 (px)     0.0568 -0.0568
   9.  C 2 (py)     0.0454  0.0454
  10.  C 2 (pz)    -0.0591 -0.0591
  11.  C 3 (s)      0.0638  0.0035
  12.  C 3 (s)      0.4965  0.0711
  13.  C 3 (px)     0.2905 -0.0888
  14.  C 3 (py)     0.0000  0.0000
  15.  C 3 (pz)    -0.3704 -0.0349
  16.  C 4 (s)      0.0035  0.0638
  17.  C 4 (s)      0.0711  0.4965
  18.  C 4 (px)     0.0888 -0.2905
  19.  C 4 (py)     0.0000  0.0000
  20.  C 4 (pz)    -0.0349 -0.3704
  21.  H 5 (s)      0.0125  0.0125
  22.  H 6 (s)      0.0350  0.0350
  23.  H 7 (s)      0.0125  0.0125
  24.  H 8 (s)      0.0350  0.0350
  25.  H 9 (s)      1.0000  0.0260
  26.  H10 (s)      0.0260  1.0000


 AO bond-order matrix:

           AO          1       2       3       4       5       6       7       8
      ------------ ------- ------- ------- ------- ------- ------- ------- -------
   1.  C 1 (s)      2.0668 -0.2115  0.0000 -0.0103 -0.0086 -0.0063  0.0257  0.0000
   2.  C 1 (s)     -0.2115  0.8439  0.0000  0.0226  0.0273  0.0257 -0.0776  0.0000
   3.  C 1 (px)     0.0000  0.0000  0.7460  0.0000  0.0000  0.0000  0.0000 -0.1228
   4.  C 1 (py)    -0.0103  0.0226  0.0000  0.5947 -0.0413 -0.0312  0.1319  0.0000
   5.  C 1 (pz)    -0.0086  0.0273  0.0000 -0.0413  0.6279  0.0025 -0.0181  0.0000
   6.  C 2 (s)     -0.0063  0.0257  0.0000 -0.0312  0.0025  2.0668 -0.2115  0.0000
   7.  C 2 (s)      0.0257 -0.0776  0.0000  0.1319 -0.0181 -0.2115  0.8439  0.0000
   8.  C 2 (px)     0.0000  0.0000 -0.1228  0.0000  0.0000  0.0000  0.0000  0.7460
   9.  C 2 (py)     0.0312 -0.1319  0.0000  0.1320  0.0355  0.0103 -0.0226  0.0000
  10.  C 2 (pz)     0.0025 -0.0181  0.0000 -0.0355 -0.0310 -0.0086  0.0273  0.0000
  11.  C 3 (s)      0.0153 -0.0320 -0.0835  0.0539  0.0277  0.0153 -0.0320 -0.0835
  12.  C 3 (s)     -0.0314  0.0176  0.2979 -0.1285 -0.0604 -0.0314  0.0176  0.2979
  13.  C 3 (px)     0.0093  0.0585 -0.0247  0.0056  0.0150  0.0093  0.0585 -0.0247
  14.  C 3 (py)    -0.0680  0.1875  0.3888 -0.2430 -0.1286  0.0680 -0.1875 -0.3888
  15.  C 3 (pz)    -0.0450  0.1559  0.2701 -0.1606 -0.0802 -0.0450  0.1559  0.2701
  16.  C 4 (s)      0.0153 -0.0320  0.0835  0.0539  0.0277  0.0153 -0.0320  0.0835
  17.  C 4 (s)     -0.0314  0.0176 -0.2979 -0.1285 -0.0604 -0.0314  0.0176 -0.2979
  18.  C 4 (px)    -0.0093 -0.0585 -0.0247 -0.0056 -0.0150 -0.0093 -0.0585 -0.0247
  19.  C 4 (py)    -0.0680  0.1875 -0.3888 -0.2430 -0.1286  0.0680 -0.1875  0.3888
  20.  C 4 (pz)    -0.0450  0.1559 -0.2701 -0.1606 -0.0802 -0.0450  0.1559 -0.2701
  21.  H 5 (s)     -0.1066  0.2671  0.0000  0.0338  0.5566  0.0166 -0.0733  0.0000
  22.  H 6 (s)     -0.1047  0.2687  0.0000  0.4839 -0.2958 -0.0268  0.1155  0.0000
  23.  H 7 (s)      0.0166 -0.0733  0.0000  0.0533  0.0019 -0.1066  0.2671  0.0000
  24.  H 8 (s)     -0.0268  0.1155  0.0000 -0.1094 -0.0298 -0.1047  0.2687  0.0000
  25.  H 9 (s)      0.0145 -0.0389 -0.1338  0.0125  0.0536  0.0145 -0.0389 -0.1338
  26.  H10 (s)      0.0145 -0.0389  0.1338  0.0125  0.0536  0.0145 -0.0389  0.1338

           AO          9      10      11      12      13      14      15      16
      ------------ ------- ------- ------- ------- ------- ------- ------- -------
   1.  C 1 (s)      0.0312  0.0025  0.0153 -0.0314  0.0093 -0.0680 -0.0450  0.0153
   2.  C 1 (s)     -0.1319 -0.0181 -0.0320  0.0176  0.0585  0.1875  0.1559 -0.0320
   3.  C 1 (px)     0.0000  0.0000 -0.0835  0.2979 -0.0247  0.3888  0.2701  0.0835
   4.  C 1 (py)     0.1320 -0.0355  0.0539 -0.1285  0.0056 -0.2430 -0.1606  0.0539
   5.  C 1 (pz)     0.0355 -0.0310  0.0277 -0.0604  0.0150 -0.1286 -0.0802  0.0277
   6.  C 2 (s)      0.0103 -0.0086  0.0153 -0.0314  0.0093  0.0680 -0.0450  0.0153
   7.  C 2 (s)     -0.0226  0.0273 -0.0320  0.0176  0.0585 -0.1875  0.1559 -0.0320
   8.  C 2 (px)     0.0000  0.0000 -0.0835  0.2979 -0.0247 -0.3888  0.2701  0.0835
   9.  C 2 (py)     0.5947  0.0413 -0.0539  0.1285 -0.0056 -0.2430  0.1606 -0.0539
  10.  C 2 (pz)     0.0413  0.6279  0.0277 -0.0604  0.0150  0.1286 -0.0802  0.0277
  11.  C 3 (s)     -0.0539  0.0277  2.0686 -0.2236 -0.0328  0.0000 -0.0160  0.0064
  12.  C 3 (s)      0.1285 -0.0604 -0.2236  0.9090  0.1207  0.0000  0.0926  0.0133
  13.  C 3 (px)    -0.0056  0.0150 -0.0328  0.1207  0.6642  0.0000  0.1594  0.0464
  14.  C 3 (py)    -0.2430  0.1286  0.0000  0.0000  0.0000  0.6192  0.0000  0.0000
  15.  C 3 (pz)     0.1606 -0.0802 -0.0160  0.0926  0.1594  0.0000  0.8217  0.0254
  16.  C 4 (s)     -0.0539  0.0277  0.0064  0.0133  0.0464  0.0000  0.0254  2.0686
  17.  C 4 (s)      0.1285 -0.0604  0.0133 -0.1774 -0.0591  0.0000 -0.1320 -0.2236
  18.  C 4 (px)     0.0056 -0.0150 -0.0464  0.0591 -0.5590  0.0000 -0.3321  0.0328
  19.  C 4 (py)    -0.2430  0.1286  0.0000  0.0000  0.0000 -0.0767  0.0000  0.0000
  20.  C 4 (pz)     0.1606 -0.0802  0.0254 -0.1320  0.3321  0.0000  0.1868 -0.0160
  21.  H 5 (s)     -0.0533  0.0019  0.0174 -0.0595 -0.0998 -0.0498 -0.1704  0.0174
  22.  H 6 (s)      0.1094 -0.0298  0.0174 -0.0609  0.0447 -0.1002  0.0268  0.0174
  23.  H 7 (s)     -0.0338  0.5566  0.0174 -0.0595 -0.0998  0.0498 -0.1704  0.0174
  24.  H 8 (s)     -0.4839 -0.2958  0.0174 -0.0609  0.0447  0.1002  0.0268  0.0174
  25.  H 9 (s)     -0.0125  0.0536 -0.1221  0.3145  0.3277  0.0000 -0.3974 -0.0042
  26.  H10 (s)     -0.0125  0.0536 -0.0042  0.0510  0.0753  0.0000  0.1311 -0.1221

           AO         17      18      19      20      21      22      23      24
      ------------ ------- ------- ------- ------- ------- ------- ------- -------
   1.  C 1 (s)     -0.0314 -0.0093 -0.0680 -0.0450 -0.1066 -0.1047  0.0166 -0.0268
   2.  C 1 (s)      0.0176 -0.0585  0.1875  0.1559  0.2671  0.2687 -0.0733  0.1155
   3.  C 1 (px)    -0.2979 -0.0247 -0.3888 -0.2701  0.0000  0.0000  0.0000  0.0000
   4.  C 1 (py)    -0.1285 -0.0056 -0.2430 -0.1606  0.0338  0.4839  0.0533 -0.1094
   5.  C 1 (pz)    -0.0604 -0.0150 -0.1286 -0.0802  0.5566 -0.2958  0.0019 -0.0298
   6.  C 2 (s)     -0.0314 -0.0093  0.0680 -0.0450  0.0166 -0.0268 -0.1066 -0.1047
   7.  C 2 (s)      0.0176 -0.0585 -0.1875  0.1559 -0.0733  0.1155  0.2671  0.2687
   8.  C 2 (px)    -0.2979 -0.0247  0.3888 -0.2701  0.0000  0.0000  0.0000  0.0000
   9.  C 2 (py)     0.1285  0.0056 -0.2430  0.1606 -0.0533  0.1094 -0.0338 -0.4839
  10.  C 2 (pz)    -0.0604 -0.0150  0.1286 -0.0802  0.0019 -0.0298  0.5566 -0.2958
  11.  C 3 (s)      0.0133 -0.0464  0.0000  0.0254  0.0174  0.0174  0.0174  0.0174
  12.  C 3 (s)     -0.1774  0.0591  0.0000 -0.1320 -0.0595 -0.0609 -0.0595 -0.0609
  13.  C 3 (px)    -0.0591 -0.5590  0.0000  0.3321 -0.0998  0.0447 -0.0998  0.0447
  14.  C 3 (py)     0.0000  0.0000 -0.0767  0.0000 -0.0498 -0.1002  0.0498  0.1002
  15.  C 3 (pz)    -0.1320 -0.3321  0.0000  0.1868 -0.1704  0.0268 -0.1704  0.0268
  16.  C 4 (s)     -0.2236  0.0328  0.0000 -0.0160  0.0174  0.0174  0.0174  0.0174
  17.  C 4 (s)      0.9090 -0.1207  0.0000  0.0926 -0.0595 -0.0609 -0.0595 -0.0609
  18.  C 4 (px)    -0.1207  0.6642  0.0000 -0.1594  0.0998 -0.0447  0.0998 -0.0447
  19.  C 4 (py)     0.0000  0.0000  0.6192  0.0000 -0.0498 -0.1002  0.0498  0.1002
  20.  C 4 (pz)     0.0926 -0.1594  0.0000  0.8217 -0.1704  0.0268 -0.1704  0.0268
  21.  H 5 (s)     -0.0595  0.0998 -0.0498 -0.1704  0.6176 -0.1515  0.0500 -0.0027
  22.  H 6 (s)     -0.0609 -0.0447 -0.1002  0.0268 -0.1515  0.5990 -0.0027 -0.0645
  23.  H 7 (s)     -0.0595  0.0998  0.0498 -0.1704  0.0500 -0.0027  0.6176 -0.1515
  24.  H 8 (s)     -0.0609 -0.0447  0.1002  0.0268 -0.0027 -0.0645 -0.1515  0.5990
  25.  H 9 (s)      0.0510 -0.0753  0.0000  0.1311  0.0360 -0.0406  0.0360 -0.0406
  26.  H10 (s)      0.3145 -0.3277  0.0000 -0.3974  0.0360 -0.0406  0.0360 -0.0406

           AO         25      26
      ------------ ------- -------
   1.  C 1 (s)      0.0145  0.0145
   2.  C 1 (s)     -0.0389 -0.0389
   3.  C 1 (px)    -0.1338  0.1338
   4.  C 1 (py)     0.0125  0.0125
   5.  C 1 (pz)     0.0536  0.0536
   6.  C 2 (s)      0.0145  0.0145
   7.  C 2 (s)     -0.0389 -0.0389
   8.  C 2 (px)    -0.1338  0.1338
   9.  C 2 (py)    -0.0125 -0.0125
  10.  C 2 (pz)     0.0536  0.0536
  11.  C 3 (s)     -0.1221 -0.0042
  12.  C 3 (s)      0.3145  0.0510
  13.  C 3 (px)     0.3277  0.0753
  14.  C 3 (py)     0.0000  0.0000
  15.  C 3 (pz)    -0.3974  0.1311
  16.  C 4 (s)     -0.0042 -0.1221
  17.  C 4 (s)      0.0510  0.3145
  18.  C 4 (px)    -0.0753 -0.3277
  19.  C 4 (py)     0.0000  0.0000
  20.  C 4 (pz)     0.1311 -0.3974
  21.  H 5 (s)      0.0360  0.0360
  22.  H 6 (s)     -0.0406 -0.0406
  23.  H 7 (s)      0.0360  0.0360
  24.  H 8 (s)     -0.0406 -0.0406
  25.  H 9 (s)      0.5721 -0.0707
  26.  H10 (s)     -0.0707  0.5721


 AO density matrix:

           AO          1       2       3       4       5       6       7       8
      ------------ ------- ------- ------- ------- ------- ------- ------- -------
   1.  C 1 (s)      1.9995  0.5052  0.0000 -0.0014 -0.0008  0.0000  0.0068  0.0000
   2.  C 1 (s)      0.5052  1.8543  0.0000  0.0148  0.0074  0.0068  0.1603  0.0000
   3.  C 1 (px)     0.0000  0.0000  1.4687  0.0000  0.0000  0.0000  0.0000 -0.0080
   4.  C 1 (py)    -0.0014  0.0148  0.0000  1.6004 -0.0194 -0.0141 -0.2313  0.0000
   5.  C 1 (pz)    -0.0008  0.0074  0.0000 -0.0194  1.6312 -0.0006  0.0118  0.0000
   6.  C 2 (s)      0.0000  0.0068  0.0000 -0.0141 -0.0006  1.9995  0.5052  0.0000
   7.  C 2 (s)      0.0068  0.1603  0.0000 -0.2313  0.0118  0.5052  1.8543  0.0000
   8.  C 2 (px)     0.0000  0.0000 -0.0080  0.0000  0.0000  0.0000  0.0000  1.4687
   9.  C 2 (py)     0.0141  0.2313  0.0000 -0.3063  0.0273  0.0014 -0.0148  0.0000
  10.  C 2 (pz)    -0.0006  0.0118  0.0000 -0.0273  0.0475 -0.0008  0.0074  0.0000
  11.  C 3 (s)      0.0001  0.0577  0.0442 -0.0721 -0.0397  0.0001  0.0577  0.0442
  12.  C 3 (s)      0.0575  0.6780  0.4746 -0.6045 -0.3284  0.0575  0.6780  0.4746
  13.  C 3 (px)    -0.0497 -0.3642  0.2037  0.4043  0.2494 -0.0497 -0.3642  0.2037
  14.  C 3 (py)     0.0706  0.6213  0.6318 -0.3442 -0.3902 -0.0706 -0.6213 -0.6318
  15.  C 3 (pz)     0.0388  0.3458  0.4146 -0.3941  0.1766  0.0388  0.3458  0.4146
  16.  C 4 (s)      0.0001  0.0577 -0.0442 -0.0721 -0.0397  0.0001  0.0577 -0.0442
  17.  C 4 (s)      0.0575  0.6780 -0.4746 -0.6045 -0.3284  0.0575  0.6780 -0.4746
  18.  C 4 (px)     0.0497  0.3642  0.2037 -0.4043 -0.2494  0.0497  0.3642  0.2037
  19.  C 4 (py)     0.0706  0.6213 -0.6318 -0.3442 -0.3902 -0.0706 -0.6213  0.6318
  20.  C 4 (pz)     0.0388  0.3458 -0.4146 -0.3941  0.1766  0.0388  0.3458 -0.4146
  21.  H 5 (s)      0.1164  1.1138  0.0000  0.1131  1.2162  0.0037  0.0693  0.0000
  22.  H 6 (s)      0.1177  1.1141  0.0000  1.0698 -0.6075 -0.0010  0.0420  0.0000
  23.  H 7 (s)      0.0037  0.0693  0.0000 -0.0849  0.0565  0.1164  1.1138  0.0000
  24.  H 8 (s)     -0.0010  0.0420  0.0000 -0.0579 -0.0243  0.1177  1.1141  0.0000
  25.  H 9 (s)      0.0075  0.1345  0.0673 -0.0691 -0.1203  0.0075  0.1345  0.0673
  26.  H10 (s)      0.0075  0.1345 -0.0673 -0.0691 -0.1203  0.0075  0.1345 -0.0673

           AO          9      10      11      12      13      14      15      16
      ------------ ------- ------- ------- ------- ------- ------- ------- -------
   1.  C 1 (s)      0.0141 -0.0006  0.0001  0.0575 -0.0497  0.0706  0.0388  0.0001
   2.  C 1 (s)      0.2313  0.0118  0.0577  0.6780 -0.3642  0.6213  0.3458  0.0577
   3.  C 1 (px)     0.0000  0.0000  0.0442  0.4746  0.2037  0.6318  0.4146 -0.0442
   4.  C 1 (py)    -0.3063 -0.0273 -0.0721 -0.6045  0.4043 -0.3442 -0.3941 -0.0721
   5.  C 1 (pz)     0.0273  0.0475 -0.0397 -0.3284  0.2494 -0.3902  0.1766 -0.0397
   6.  C 2 (s)      0.0014 -0.0008  0.0001  0.0575 -0.0497 -0.0706  0.0388  0.0001
   7.  C 2 (s)     -0.0148  0.0074  0.0577  0.6780 -0.3642 -0.6213  0.3458  0.0577
   8.  C 2 (px)     0.0000  0.0000  0.0442  0.4746  0.2037 -0.6318  0.4146 -0.0442
   9.  C 2 (py)     1.6004  0.0194  0.0721  0.6045 -0.4043 -0.3442  0.3941  0.0721
  10.  C 2 (pz)     0.0194  1.6312 -0.0397 -0.3284  0.2494  0.3902  0.1766 -0.0397
  11.  C 3 (s)      0.0721 -0.0397  1.9995  0.5056 -0.0025  0.0000 -0.0001  0.0001
  12.  C 3 (s)      0.6045 -0.3284  0.5056  1.8374 -0.0029  0.0000 -0.0097  0.0583
  13.  C 3 (px)    -0.4043  0.2494 -0.0025 -0.0029  1.5440  0.0000 -0.0805 -0.0946
  14.  C 3 (py)    -0.3442  0.3902  0.0000  0.0000  0.0000  1.5031  0.0000  0.0000
  15.  C 3 (pz)     0.3941  0.1766 -0.0001 -0.0097 -0.0805  0.0000  1.5991  0.0020
  16.  C 4 (s)      0.0721 -0.0397  0.0001  0.0583 -0.0946  0.0000  0.0020  1.9995
  17.  C 4 (s)      0.6045 -0.3284  0.0583  0.6469 -0.7571  0.0000 -0.0056  0.5056
  18.  C 4 (px)     0.4043 -0.2494  0.0946  0.7571 -0.9721  0.0000 -0.1999  0.0025
  19.  C 4 (py)    -0.3442  0.3902  0.0000  0.0000  0.0000  0.4220  0.0000  0.0000
  20.  C 4 (pz)     0.3941  0.1766  0.0020 -0.0056  0.1999  0.0000  0.5565 -0.0001
  21.  H 5 (s)      0.0849  0.0565  0.0093  0.1560 -0.1069  0.0980  0.1417  0.0093
  22.  H 6 (s)      0.0579 -0.0243  0.0099  0.1744 -0.0602  0.2113 -0.0005  0.0099
  23.  H 7 (s)     -0.1131  1.2162  0.0093  0.1560 -0.1069 -0.0980  0.1417  0.0093
  24.  H 8 (s)     -1.0698 -0.6075  0.0099  0.1744 -0.0602 -0.2113 -0.0005  0.0099
  25.  H 9 (s)      0.0691 -0.1203  0.1193  1.1600  0.7476  0.0000 -0.9260  0.0068
  26.  H10 (s)      0.0691 -0.1203  0.0068  0.1596 -0.1479  0.0000 -0.0439  0.1193

           AO         17      18      19      20      21      22      23      24
      ------------ ------- ------- ------- ------- ------- ------- ------- -------
   1.  C 1 (s)      0.0575  0.0497  0.0706  0.0388  0.1164  0.1177  0.0037 -0.0010
   2.  C 1 (s)      0.6780  0.3642  0.6213  0.3458  1.1138  1.1141  0.0693  0.0420
   3.  C 1 (px)    -0.4746  0.2037 -0.6318 -0.4146  0.0000  0.0000  0.0000  0.0000
   4.  C 1 (py)    -0.6045 -0.4043 -0.3442 -0.3941  0.1131  1.0698 -0.0849 -0.0579
   5.  C 1 (pz)    -0.3284 -0.2494 -0.3902  0.1766  1.2162 -0.6075  0.0565 -0.0243
   6.  C 2 (s)      0.0575  0.0497 -0.0706  0.0388  0.0037 -0.0010  0.1164  0.1177
   7.  C 2 (s)      0.6780  0.3642 -0.6213  0.3458  0.0693  0.0420  1.1138  1.1141
   8.  C 2 (px)    -0.4746  0.2037  0.6318 -0.4146  0.0000  0.0000  0.0000  0.0000
   9.  C 2 (py)     0.6045  0.4043 -0.3442  0.3941  0.0849  0.0579 -0.1131 -1.0698
  10.  C 2 (pz)    -0.3284 -0.2494  0.3902  0.1766  0.0565 -0.0243  1.2162 -0.6075
  11.  C 3 (s)      0.0583  0.0946  0.0000  0.0020  0.0093  0.0099  0.0093  0.0099
  12.  C 3 (s)      0.6469  0.7571  0.0000 -0.0056  0.1560  0.1744  0.1560  0.1744
  13.  C 3 (px)    -0.7571 -0.9721  0.0000  0.1999 -0.1069 -0.0602 -0.1069 -0.0602
  14.  C 3 (py)     0.0000  0.0000  0.4220  0.0000  0.0980  0.2113 -0.0980 -0.2113
  15.  C 3 (pz)    -0.0056 -0.1999  0.0000  0.5565  0.1417 -0.0005  0.1417 -0.0005
  16.  C 4 (s)      0.5056  0.0025  0.0000 -0.0001  0.0093  0.0099  0.0093  0.0099
  17.  C 4 (s)      1.8374  0.0029  0.0000 -0.0097  0.1560  0.1744  0.1560  0.1744
  18.  C 4 (px)     0.0029  1.5440  0.0000  0.0805  0.1069  0.0602  0.1069  0.0602
  19.  C 4 (py)     0.0000  0.0000  1.5031  0.0000  0.0980  0.2113 -0.0980 -0.2113
  20.  C 4 (pz)    -0.0097  0.0805  0.0000  1.5991  0.1417 -0.0005  0.1417 -0.0005
  21.  H 5 (s)      0.1560  0.1069  0.0980  0.1417  1.6362  0.2897  0.1173  0.0080
  22.  H 6 (s)      0.1744  0.0602  0.2113 -0.0005  0.2897  1.6347  0.0080 -0.0244
  23.  H 7 (s)      0.1560  0.1069 -0.0980  0.1417  0.1173  0.0080  1.6362  0.2897
  24.  H 8 (s)      0.1744  0.0602 -0.2113 -0.0005  0.0080 -0.0244  0.2897  1.6347
  25.  H 9 (s)      0.1596  0.1479  0.0000 -0.0439  0.0466  0.0461  0.0466  0.0461
  26.  H10 (s)      1.1600 -0.7476  0.0000 -0.9260  0.0466  0.0461  0.0466  0.0461

           AO         25      26
      ------------ ------- -------
   1.  C 1 (s)      0.0075  0.0075
   2.  C 1 (s)      0.1345  0.1345
   3.  C 1 (px)     0.0673 -0.0673
   4.  C 1 (py)    -0.0691 -0.0691
   5.  C 1 (pz)    -0.1203 -0.1203
   6.  C 2 (s)      0.0075  0.0075
   7.  C 2 (s)      0.1345  0.1345
   8.  C 2 (px)     0.0673 -0.0673
   9.  C 2 (py)     0.0691  0.0691
  10.  C 2 (pz)    -0.1203 -0.1203
  11.  C 3 (s)      0.1193  0.0068
  12.  C 3 (s)      1.1600  0.1596
  13.  C 3 (px)     0.7476 -0.1479
  14.  C 3 (py)     0.0000  0.0000
  15.  C 3 (pz)    -0.9260 -0.0439
  16.  C 4 (s)      0.0068  0.1193
  17.  C 4 (s)      0.1596  1.1600
  18.  C 4 (px)     0.1479 -0.7476
  19.  C 4 (py)     0.0000  0.0000
  20.  C 4 (pz)    -0.0439 -0.9260
  21.  H 5 (s)      0.0466  0.0466
  22.  H 6 (s)      0.0461  0.0461
  23.  H 7 (s)      0.0466  0.0466
  24.  H 8 (s)      0.0461  0.0461
  25.  H 9 (s)      1.6379  0.0186
  26.  H10 (s)      0.0186  1.6379


 MO density matrix:

      MO     1       2       3       4       5       6       7       8       9
     ---- ------  ------  ------  ------  ------  ------  ------  ------  ------
   1.     2.0000  0.0000  0.0000  0.0000  0.0000  0.0000  0.0000  0.0000  0.0000
   2.     0.0000  2.0000  0.0000  0.0000  0.0000  0.0000  0.0000  0.0000  0.0000
   3.     0.0000  0.0000  2.0000  0.0000  0.0000  0.0000  0.0000  0.0000  0.0000
   4.     0.0000  0.0000  0.0000  2.0000  0.0000  0.0000  0.0000  0.0000  0.0000
   5.     0.0000  0.0000  0.0000  0.0000  2.0000  0.0000  0.0000  0.0000  0.0000
   6.     0.0000  0.0000  0.0000  0.0000  0.0000  2.0000  0.0000  0.0000  0.0000
   7.     0.0000  0.0000  0.0000  0.0000  0.0000  0.0000  2.0000  0.0000  0.0000
   8.     0.0000  0.0000  0.0000  0.0000  0.0000  0.0000  0.0000  2.0000  0.0000
   9.     0.0000  0.0000  0.0000  0.0000  0.0000  0.0000  0.0000  0.0000  2.0000
  10.     0.0000  0.0000  0.0000  0.0000  0.0000  0.0000  0.0000  0.0000  0.0000
  11.     0.0000  0.0000  0.0000  0.0000  0.0000  0.0000  0.0000  0.0000  0.0000
  12.     0.0000  0.0000  0.0000  0.0000  0.0000  0.0000  0.0000  0.0000  0.0000
  13.     0.0000  0.0000  0.0000  0.0000  0.0000  0.0000  0.0000  0.0000  0.0000
  14.     0.0000  0.0000  0.0000  0.0000  0.0000  0.0000  0.0000  0.0000  0.0000
  15.     0.0000  0.0000  0.0000  0.0000  0.0000  0.0000  0.0000  0.0000  0.0000
  16.     0.0000  0.0000  0.0000  0.0000  0.0000  0.0000  0.0000  0.0000  0.0000
  17.     0.0000  0.0000  0.0000  0.0000  0.0000  0.0000  0.0000  0.0000  0.0000
  18.     0.0000  0.0000  0.0000  0.0000  0.0000  0.0000  0.0000  0.0000  0.0000
  19.     0.0000  0.0000  0.0000  0.0000  0.0000  0.0000  0.0000  0.0000  0.0000
  20.     0.0000  0.0000  0.0000  0.0000  0.0000  0.0000  0.0000  0.0000  0.0000
  21.     0.0000  0.0000  0.0000  0.0000  0.0000  0.0000  0.0000  0.0000  0.0000
  22.     0.0000  0.0000  0.0000  0.0000  0.0000  0.0000  0.0000  0.0000  0.0000
  23.     0.0000  0.0000  0.0000  0.0000  0.0000  0.0000  0.0000  0.0000  0.0000
  24.     0.0000  0.0000  0.0000  0.0000  0.0000  0.0000  0.0000  0.0000  0.0000
  25.     0.0000  0.0000  0.0000  0.0000  0.0000  0.0000  0.0000  0.0000  0.0000
  26.     0.0000  0.0000  0.0000  0.0000  0.0000  0.0000  0.0000  0.0000  0.0000

      MO    10      11      12      13      14      15      16      17      18
     ---- ------  ------  ------  ------  ------  ------  ------  ------  ------
   1.     0.0000  0.0000  0.0000  0.0000  0.0000  0.0000  0.0000  0.0000  0.0000
   2.     0.0000  0.0000  0.0000  0.0000  0.0000  0.0000  0.0000  0.0000  0.0000
   3.     0.0000  0.0000  0.0000  0.0000  0.0000  0.0000  0.0000  0.0000  0.0000
   4.     0.0000  0.0000  0.0000  0.0000  0.0000  0.0000  0.0000  0.0000  0.0000
   5.     0.0000  0.0000  0.0000  0.0000  0.0000  0.0000  0.0000  0.0000  0.0000
   6.     0.0000  0.0000  0.0000  0.0000  0.0000  0.0000  0.0000  0.0000  0.0000
   7.     0.0000  0.0000  0.0000  0.0000  0.0000  0.0000  0.0000  0.0000  0.0000
   8.     0.0000  0.0000  0.0000  0.0000  0.0000  0.0000  0.0000  0.0000  0.0000
   9.     0.0000  0.0000  0.0000  0.0000  0.0000  0.0000  0.0000  0.0000  0.0000
  10.     2.0000  0.0000  0.0000  0.0000  0.0000  0.0000  0.0000  0.0000  0.0000
  11.     0.0000  2.0000  0.0000  0.0000  0.0000  0.0000  0.0000  0.0000  0.0000
  12.     0.0000  0.0000  2.0000  0.0000  0.0000  0.0000  0.0000  0.0000  0.0000
  13.     0.0000  0.0000  0.0000  2.0000  0.0000  0.0000  0.0000  0.0000  0.0000
  14.     0.0000  0.0000  0.0000  0.0000  2.0000  0.0000  0.0000  0.0000  0.0000
  15.     0.0000  0.0000  0.0000  0.0000  0.0000  2.0000  0.0000  0.0000  0.0000
  16.     0.0000  0.0000  0.0000  0.0000  0.0000  0.0000  0.0000  0.0000  0.0000
  17.     0.0000  0.0000  0.0000  0.0000  0.0000  0.0000  0.0000  0.0000  0.0000
  18.     0.0000  0.0000  0.0000  0.0000  0.0000  0.0000  0.0000  0.0000  0.0000
  19.     0.0000  0.0000  0.0000  0.0000  0.0000  0.0000  0.0000  0.0000  0.0000
  20.     0.0000  0.0000  0.0000  0.0000  0.0000  0.0000  0.0000  0.0000  0.0000
  21.     0.0000  0.0000  0.0000  0.0000  0.0000  0.0000  0.0000  0.0000  0.0000
  22.     0.0000  0.0000  0.0000  0.0000  0.0000  0.0000  0.0000  0.0000  0.0000
  23.     0.0000  0.0000  0.0000  0.0000  0.0000  0.0000  0.0000  0.0000  0.0000
  24.     0.0000  0.0000  0.0000  0.0000  0.0000  0.0000  0.0000  0.0000  0.0000
  25.     0.0000  0.0000  0.0000  0.0000  0.0000  0.0000  0.0000  0.0000  0.0000
  26.     0.0000  0.0000  0.0000  0.0000  0.0000  0.0000  0.0000  0.0000  0.0000

      MO    19      20      21      22      23      24      25      26
     ---- ------  ------  ------  ------  ------  ------  ------  ------
   1.     0.0000  0.0000  0.0000  0.0000  0.0000  0.0000  0.0000  0.0000
   2.     0.0000  0.0000  0.0000  0.0000  0.0000  0.0000  0.0000  0.0000
   3.     0.0000  0.0000  0.0000  0.0000  0.0000  0.0000  0.0000  0.0000
   4.     0.0000  0.0000  0.0000  0.0000  0.0000  0.0000  0.0000  0.0000
   5.     0.0000  0.0000  0.0000  0.0000  0.0000  0.0000  0.0000  0.0000
   6.     0.0000  0.0000  0.0000  0.0000  0.0000  0.0000  0.0000  0.0000
   7.     0.0000  0.0000  0.0000  0.0000  0.0000  0.0000  0.0000  0.0000
   8.     0.0000  0.0000  0.0000  0.0000  0.0000  0.0000  0.0000  0.0000
   9.     0.0000  0.0000  0.0000  0.0000  0.0000  0.0000  0.0000  0.0000
  10.     0.0000  0.0000  0.0000  0.0000  0.0000  0.0000  0.0000  0.0000
  11.     0.0000  0.0000  0.0000  0.0000  0.0000  0.0000  0.0000  0.0000
  12.     0.0000  0.0000  0.0000  0.0000  0.0000  0.0000  0.0000  0.0000
  13.     0.0000  0.0000  0.0000  0.0000  0.0000  0.0000  0.0000  0.0000
  14.     0.0000  0.0000  0.0000  0.0000  0.0000  0.0000  0.0000  0.0000
  15.     0.0000  0.0000  0.0000  0.0000  0.0000  0.0000  0.0000  0.0000
  16.     0.0000  0.0000  0.0000  0.0000  0.0000  0.0000  0.0000  0.0000
  17.     0.0000  0.0000  0.0000  0.0000  0.0000  0.0000  0.0000  0.0000
  18.     0.0000  0.0000  0.0000  0.0000  0.0000  0.0000  0.0000  0.0000
  19.     0.0000  0.0000  0.0000  0.0000  0.0000  0.0000  0.0000  0.0000
  20.     0.0000  0.0000  0.0000  0.0000  0.0000  0.0000  0.0000  0.0000
  21.     0.0000  0.0000  0.0000  0.0000  0.0000  0.0000  0.0000  0.0000
  22.     0.0000  0.0000  0.0000  0.0000  0.0000  0.0000  0.0000  0.0000
  23.     0.0000  0.0000  0.0000  0.0000  0.0000  0.0000  0.0000  0.0000
  24.     0.0000  0.0000  0.0000  0.0000  0.0000  0.0000  0.0000  0.0000
  25.     0.0000  0.0000  0.0000  0.0000  0.0000  0.0000  0.0000  0.0000
  26.     0.0000  0.0000  0.0000  0.0000  0.0000  0.0000  0.0000  0.0000


 NATURAL POPULATIONS:  Natural atomic orbital occupancies

  NAO Atom No lang   Type(AO)    Occupancy      Energy
 -------------------------------------------------------
   1    C  1  s      Cor( 1s)     2.00000     -11.04737
   2    C  1  s      Val( 2s)     1.07385      -0.17566
   3    C  1  px     Val( 2p)     1.05337       0.01925
   4    C  1  py     Val( 2p)     0.93970       0.12223
   5    C  1  pz     Val( 2p)     0.99701       0.09933

   6    C  2  s      Cor( 1s)     2.00000     -11.04737
   7    C  2  s      Val( 2s)     1.07385      -0.17566
   8    C  2  px     Val( 2p)     1.05337       0.01925
   9    C  2  py     Val( 2p)     0.93970       0.12223
  10    C  2  pz     Val( 2p)     0.99701       0.09933

  11    C  3  s      Cor( 1s)     1.99998     -11.02295
  12    C  3  s      Val( 2s)     1.08244      -0.19107
  13    C  3  px     Val( 2p)     0.94541       0.11513
  14    C  3  py     Val( 2p)     0.93725       0.10419
  15    C  3  pz     Val( 2p)     1.10933       0.04811

  16    C  4  s      Cor( 1s)     1.99998     -11.02295
  17    C  4  s      Val( 2s)     1.08244      -0.19107
  18    C  4  px     Val( 2p)     0.94541       0.11513
  19    C  4  py     Val( 2p)     0.93725       0.10419
  20    C  4  pz     Val( 2p)     1.10933       0.04811

  21    H  5  s      Val( 1s)     0.96185       0.08164

  22    H  6  s      Val( 1s)     0.95243       0.07482

  23    H  7  s      Val( 1s)     0.96185       0.08164

  24    H  8  s      Val( 1s)     0.95243       0.07482

  25    H  9  s      Val( 1s)     0.94738       0.07888

  26    H 10  s      Val( 1s)     0.94738       0.07888


 Summary of Natural Population Analysis:

                                     Natural Population
             Natural    ---------------------------------------------
  Atom No    Charge        Core      Valence    Rydberg      Total
 --------------------------------------------------------------------
    C  1   -0.06394      2.00000     4.06394    0.00000     6.06394
    C  2   -0.06394      2.00000     4.06394    0.00000     6.06394
    C  3   -0.07441      1.99998     4.07443    0.00000     6.07441
    C  4   -0.07441      1.99998     4.07443    0.00000     6.07441
    H  5    0.03815      0.00000     0.96185    0.00000     0.96185
    H  6    0.04757      0.00000     0.95243    0.00000     0.95243
    H  7    0.03815      0.00000     0.96185    0.00000     0.96185
    H  8    0.04757      0.00000     0.95243    0.00000     0.95243
    H  9    0.05262      0.00000     0.94738    0.00000     0.94738
    H 10    0.05262      0.00000     0.94738    0.00000     0.94738
 ====================================================================
 * Total *  0.00000      7.99996    22.00004    0.00000    30.00000

                                 Natural Population
 ---------------------------------------------------------
   Core                       7.99996 ( 99.9995% of    8)
   Valence                   22.00004 (100.0002% of   22)
   Natural Minimal Basis     30.00000 (100.0000% of   30)
   Natural Rydberg Basis      0.00000 (  0.0000% of   30)
 ---------------------------------------------------------

    Atom No         Natural Electron Configuration
 ----------------------------------------------------------------------------
      C  1      [core]2s( 1.07)2p( 2.99)
      C  2      [core]2s( 1.07)2p( 2.99)
      C  3      [core]2s( 1.08)2p( 2.99)
      C  4      [core]2s( 1.08)2p( 2.99)
      H  5            1s( 0.96)
      H  6            1s( 0.95)
      H  7            1s( 0.96)
      H  8            1s( 0.95)
      H  9            1s( 0.95)
      H 10            1s( 0.95)


 PNAOs in the AO basis:

           AO          1       2       3       4       5       6       7       8
      ------------ ------- ------- ------- ------- ------- ------- ------- -------
   1.  C 1 (s)      0.9843 -0.3113  0.0000  0.0000  0.0000  0.0000  0.0000  0.0000
   2.  C 1 (s)      0.0571  1.0308  0.0000  0.0000  0.0000  0.0000  0.0000  0.0000
   3.  C 1 (px)     0.0000  0.0000  1.0000  0.0000  0.0000  0.0000  0.0000  0.0000
   4.  C 1 (py)     0.0000  0.0000  0.0000  1.0000  0.0000  0.0000  0.0000  0.0000
   5.  C 1 (pz)     0.0000  0.0000  0.0000  0.0000  1.0000  0.0000  0.0000  0.0000
   6.  C 2 (s)      0.0000  0.0000  0.0000  0.0000  0.0000  0.9843 -0.3113  0.0000
   7.  C 2 (s)      0.0000  0.0000  0.0000  0.0000  0.0000  0.0571  1.0308  0.0000
   8.  C 2 (px)     0.0000  0.0000  0.0000  0.0000  0.0000  0.0000  0.0000  1.0000
   9.  C 2 (py)     0.0000  0.0000  0.0000  0.0000  0.0000  0.0000  0.0000  0.0000
  10.  C 2 (pz)     0.0000  0.0000  0.0000  0.0000  0.0000  0.0000  0.0000  0.0000
  11.  C 3 (s)      0.0000  0.0000  0.0000  0.0000  0.0000  0.0000  0.0000  0.0000
  12.  C 3 (s)      0.0000  0.0000  0.0000  0.0000  0.0000  0.0000  0.0000  0.0000
  13.  C 3 (px)     0.0000  0.0000  0.0000  0.0000  0.0000  0.0000  0.0000  0.0000
  14.  C 3 (py)     0.0000  0.0000  0.0000  0.0000  0.0000  0.0000  0.0000  0.0000
  15.  C 3 (pz)     0.0000  0.0000  0.0000  0.0000  0.0000  0.0000  0.0000  0.0000
  16.  C 4 (s)      0.0000  0.0000  0.0000  0.0000  0.0000  0.0000  0.0000  0.0000
  17.  C 4 (s)      0.0000  0.0000  0.0000  0.0000  0.0000  0.0000  0.0000  0.0000
  18.  C 4 (px)     0.0000  0.0000  0.0000  0.0000  0.0000  0.0000  0.0000  0.0000
  19.  C 4 (py)     0.0000  0.0000  0.0000  0.0000  0.0000  0.0000  0.0000  0.0000
  20.  C 4 (pz)     0.0000  0.0000  0.0000  0.0000  0.0000  0.0000  0.0000  0.0000
  21.  H 5 (s)      0.0000  0.0000  0.0000  0.0000  0.0000  0.0000  0.0000  0.0000
  22.  H 6 (s)      0.0000  0.0000  0.0000  0.0000  0.0000  0.0000  0.0000  0.0000
  23.  H 7 (s)      0.0000  0.0000  0.0000  0.0000  0.0000  0.0000  0.0000  0.0000
  24.  H 8 (s)      0.0000  0.0000  0.0000  0.0000  0.0000  0.0000  0.0000  0.0000
  25.  H 9 (s)      0.0000  0.0000  0.0000  0.0000  0.0000  0.0000  0.0000  0.0000
  26.  H10 (s)      0.0000  0.0000  0.0000  0.0000  0.0000  0.0000  0.0000  0.0000

           AO          9      10      11      12      13      14      15      16
      ------------ ------- ------- ------- ------- ------- ------- ------- -------
   1.  C 1 (s)      0.0000  0.0000  0.0000  0.0000  0.0000  0.0000  0.0000  0.0000
   2.  C 1 (s)      0.0000  0.0000  0.0000  0.0000  0.0000  0.0000  0.0000  0.0000
   3.  C 1 (px)     0.0000  0.0000  0.0000  0.0000  0.0000  0.0000  0.0000  0.0000
   4.  C 1 (py)     0.0000  0.0000  0.0000  0.0000  0.0000  0.0000  0.0000  0.0000
   5.  C 1 (pz)     0.0000  0.0000  0.0000  0.0000  0.0000  0.0000  0.0000  0.0000
   6.  C 2 (s)      0.0000  0.0000  0.0000  0.0000  0.0000  0.0000  0.0000  0.0000
   7.  C 2 (s)      0.0000  0.0000  0.0000  0.0000  0.0000  0.0000  0.0000  0.0000
   8.  C 2 (px)     0.0000  0.0000  0.0000  0.0000  0.0000  0.0000  0.0000  0.0000
   9.  C 2 (py)     1.0000  0.0000  0.0000  0.0000  0.0000  0.0000  0.0000  0.0000
  10.  C 2 (pz)     0.0000  1.0000  0.0000  0.0000  0.0000  0.0000  0.0000  0.0000
  11.  C 3 (s)      0.0000  0.0000  0.9854 -0.3079  0.0000  0.0000  0.0000  0.0000
  12.  C 3 (s)      0.0000  0.0000  0.0535  1.0310  0.0000  0.0000  0.0000  0.0000
  13.  C 3 (px)     0.0000  0.0000  0.0000  0.0000  1.0000  0.0000  0.0000  0.0000
  14.  C 3 (py)     0.0000  0.0000  0.0000  0.0000  0.0000  1.0000  0.0000  0.0000
  15.  C 3 (pz)     0.0000  0.0000  0.0000  0.0000  0.0000  0.0000  1.0000  0.0000
  16.  C 4 (s)      0.0000  0.0000  0.0000  0.0000  0.0000  0.0000  0.0000  0.9854
  17.  C 4 (s)      0.0000  0.0000  0.0000  0.0000  0.0000  0.0000  0.0000  0.0535
  18.  C 4 (px)     0.0000  0.0000  0.0000  0.0000  0.0000  0.0000  0.0000  0.0000
  19.  C 4 (py)     0.0000  0.0000  0.0000  0.0000  0.0000  0.0000  0.0000  0.0000
  20.  C 4 (pz)     0.0000  0.0000  0.0000  0.0000  0.0000  0.0000  0.0000  0.0000
  21.  H 5 (s)      0.0000  0.0000  0.0000  0.0000  0.0000  0.0000  0.0000  0.0000
  22.  H 6 (s)      0.0000  0.0000  0.0000  0.0000  0.0000  0.0000  0.0000  0.0000
  23.  H 7 (s)      0.0000  0.0000  0.0000  0.0000  0.0000  0.0000  0.0000  0.0000
  24.  H 8 (s)      0.0000  0.0000  0.0000  0.0000  0.0000  0.0000  0.0000  0.0000
  25.  H 9 (s)      0.0000  0.0000  0.0000  0.0000  0.0000  0.0000  0.0000  0.0000
  26.  H10 (s)      0.0000  0.0000  0.0000  0.0000  0.0000  0.0000  0.0000  0.0000

           AO         17      18      19      20      21      22      23      24
      ------------ ------- ------- ------- ------- ------- ------- ------- -------
   1.  C 1 (s)      0.0000  0.0000  0.0000  0.0000  0.0000  0.0000  0.0000  0.0000
   2.  C 1 (s)      0.0000  0.0000  0.0000  0.0000  0.0000  0.0000  0.0000  0.0000
   3.  C 1 (px)     0.0000  0.0000  0.0000  0.0000  0.0000  0.0000  0.0000  0.0000
   4.  C 1 (py)     0.0000  0.0000  0.0000  0.0000  0.0000  0.0000  0.0000  0.0000
   5.  C 1 (pz)     0.0000  0.0000  0.0000  0.0000  0.0000  0.0000  0.0000  0.0000
   6.  C 2 (s)      0.0000  0.0000  0.0000  0.0000  0.0000  0.0000  0.0000  0.0000
   7.  C 2 (s)      0.0000  0.0000  0.0000  0.0000  0.0000  0.0000  0.0000  0.0000
   8.  C 2 (px)     0.0000  0.0000  0.0000  0.0000  0.0000  0.0000  0.0000  0.0000
   9.  C 2 (py)     0.0000  0.0000  0.0000  0.0000  0.0000  0.0000  0.0000  0.0000
  10.  C 2 (pz)     0.0000  0.0000  0.0000  0.0000  0.0000  0.0000  0.0000  0.0000
  11.  C 3 (s)      0.0000  0.0000  0.0000  0.0000  0.0000  0.0000  0.0000  0.0000
  12.  C 3 (s)      0.0000  0.0000  0.0000  0.0000  0.0000  0.0000  0.0000  0.0000
  13.  C 3 (px)     0.0000  0.0000  0.0000  0.0000  0.0000  0.0000  0.0000  0.0000
  14.  C 3 (py)     0.0000  0.0000  0.0000  0.0000  0.0000  0.0000  0.0000  0.0000
  15.  C 3 (pz)     0.0000  0.0000  0.0000  0.0000  0.0000  0.0000  0.0000  0.0000
  16.  C 4 (s)     -0.3079  0.0000  0.0000  0.0000  0.0000  0.0000  0.0000  0.0000
  17.  C 4 (s)      1.0310  0.0000  0.0000  0.0000  0.0000  0.0000  0.0000  0.0000
  18.  C 4 (px)     0.0000  1.0000  0.0000  0.0000  0.0000  0.0000  0.0000  0.0000
  19.  C 4 (py)     0.0000  0.0000  1.0000  0.0000  0.0000  0.0000  0.0000  0.0000
  20.  C 4 (pz)     0.0000  0.0000  0.0000  1.0000  0.0000  0.0000  0.0000  0.0000
  21.  H 5 (s)      0.0000  0.0000  0.0000  0.0000  1.0000  0.0000  0.0000  0.0000
  22.  H 6 (s)      0.0000  0.0000  0.0000  0.0000  0.0000  1.0000  0.0000  0.0000
  23.  H 7 (s)      0.0000  0.0000  0.0000  0.0000  0.0000  0.0000  1.0000  0.0000
  24.  H 8 (s)      0.0000  0.0000  0.0000  0.0000  0.0000  0.0000  0.0000  1.0000
  25.  H 9 (s)      0.0000  0.0000  0.0000  0.0000  0.0000  0.0000  0.0000  0.0000
  26.  H10 (s)      0.0000  0.0000  0.0000  0.0000  0.0000  0.0000  0.0000  0.0000

           AO         25      26
      ------------ ------- -------
   1.  C 1 (s)      0.0000  0.0000
   2.  C 1 (s)      0.0000  0.0000
   3.  C 1 (px)     0.0000  0.0000
   4.  C 1 (py)     0.0000  0.0000
   5.  C 1 (pz)     0.0000  0.0000
   6.  C 2 (s)      0.0000  0.0000
   7.  C 2 (s)      0.0000  0.0000
   8.  C 2 (px)     0.0000  0.0000
   9.  C 2 (py)     0.0000  0.0000
  10.  C 2 (pz)     0.0000  0.0000
  11.  C 3 (s)      0.0000  0.0000
  12.  C 3 (s)      0.0000  0.0000
  13.  C 3 (px)     0.0000  0.0000
  14.  C 3 (py)     0.0000  0.0000
  15.  C 3 (pz)     0.0000  0.0000
  16.  C 4 (s)      0.0000  0.0000
  17.  C 4 (s)      0.0000  0.0000
  18.  C 4 (px)     0.0000  0.0000
  19.  C 4 (py)     0.0000  0.0000
  20.  C 4 (pz)     0.0000  0.0000
  21.  H 5 (s)      0.0000  0.0000
  22.  H 6 (s)      0.0000  0.0000
  23.  H 7 (s)      0.0000  0.0000
  24.  H 8 (s)      0.0000  0.0000
  25.  H 9 (s)      1.0000  0.0000
  26.  H10 (s)      0.0000  1.0000


 PNAO overlap matrix:

           NAO         1       2       3       4       5       6       7       8
      ------------ ------- ------- ------- ------- ------- ------- ------- -------
   1.  C 1( 1s )    1.0000  0.0000  0.0000  0.0000  0.0000  0.0006  0.0081  0.0000
   2.  C 1( 2s )    0.0000  1.0000  0.0000  0.0000  0.0000  0.0081  0.0874  0.0000
   3.  C 1( 2px)    0.0000  0.0000  1.0000  0.0000  0.0000  0.0000  0.0000  0.0366
   4.  C 1( 2py)    0.0000  0.0000  0.0000  1.0000  0.0000 -0.0136 -0.1206  0.0000
   5.  C 1( 2pz)    0.0000  0.0000  0.0000  0.0000  1.0000  0.0000  0.0000  0.0000
   6.  C 2( 1s )    0.0006  0.0081  0.0000 -0.0136  0.0000  1.0000  0.0000  0.0000
   7.  C 2( 2s )    0.0081  0.0874  0.0000 -0.1206  0.0000  0.0000  1.0000  0.0000
   8.  C 2( 2px)    0.0000  0.0000  0.0366  0.0000  0.0000  0.0000  0.0000  1.0000
   9.  C 2( 2py)    0.0136  0.1206  0.0000 -0.1517  0.0000  0.0000  0.0000  0.0000
  10.  C 2( 2pz)    0.0000  0.0000  0.0000  0.0000  0.0366  0.0000  0.0000  0.0000
  11.  C 3( 1s )    0.0042  0.0476  0.0342 -0.0517 -0.0284  0.0042  0.0476  0.0342
  12.  C 3( 2s )    0.0487  0.3212  0.1753 -0.2651 -0.1458  0.0487  0.3212  0.1753
  13.  C 3( 2px)   -0.0348 -0.1752  0.0541  0.1902  0.1046 -0.0348 -0.1752  0.0541
  14.  C 3( 2py)    0.0526  0.2649  0.1902 -0.1078 -0.1582 -0.0526 -0.2649 -0.1902
  15.  C 3( 2pz)    0.0289  0.1457  0.1046 -0.1582  0.0928  0.0289  0.1457  0.1046
  16.  C 4( 1s )    0.0042  0.0476 -0.0342 -0.0517 -0.0284  0.0042  0.0476 -0.0342
  17.  C 4( 2s )    0.0487  0.3212 -0.1753 -0.2651 -0.1458  0.0487  0.3212 -0.1753
  18.  C 4( 2px)    0.0348  0.1752  0.0541 -0.1902 -0.1046  0.0348  0.1752  0.0541
  19.  C 4( 2py)    0.0526  0.2649 -0.1902 -0.1078 -0.1582 -0.0526 -0.2649  0.1902
  20.  C 4( 2pz)    0.0289  0.1457 -0.1046 -0.1582  0.0928  0.0289  0.1457 -0.1046
  21.  H 5( 1s )    0.0889  0.4852  0.0000  0.0451  0.4643  0.0038  0.0413  0.0000
  22.  H 6( 1s )    0.0896  0.4874  0.0000  0.4067 -0.2313  0.0007  0.0098  0.0000
  23.  H 7( 1s )    0.0038  0.0413  0.0000 -0.0525  0.0241  0.0889  0.4852  0.0000
  24.  H 8( 1s )    0.0007  0.0098  0.0000 -0.0152 -0.0025  0.0896  0.4874  0.0000
  25.  H 9( 1s )    0.0073  0.0708  0.0568 -0.0454 -0.0591  0.0073  0.0708  0.0568
  26.  H10( 1s )    0.0073  0.0708 -0.0568 -0.0454 -0.0591  0.0073  0.0708 -0.0568

           NAO         9      10      11      12      13      14      15      16
      ------------ ------- ------- ------- ------- ------- ------- ------- -------
   1.  C 1( 1s )    0.0136  0.0000  0.0042  0.0487 -0.0348  0.0526  0.0289  0.0042
   2.  C 1( 2s )    0.1206  0.0000  0.0476  0.3212 -0.1752  0.2649  0.1457  0.0476
   3.  C 1( 2px)    0.0000  0.0000  0.0342  0.1753  0.0541  0.1902  0.1046 -0.0342
   4.  C 1( 2py)   -0.1517  0.0000 -0.0517 -0.2651  0.1902 -0.1078 -0.1582 -0.0517
   5.  C 1( 2pz)    0.0000  0.0366 -0.0284 -0.1458  0.1046 -0.1582  0.0928 -0.0284
   6.  C 2( 1s )    0.0000  0.0000  0.0042  0.0487 -0.0348 -0.0526  0.0289  0.0042
   7.  C 2( 2s )    0.0000  0.0000  0.0476  0.3212 -0.1752 -0.2649  0.1457  0.0476
   8.  C 2( 2px)    0.0000  0.0000  0.0342  0.1753  0.0541 -0.1902  0.1046 -0.0342
   9.  C 2( 2py)    1.0000  0.0000  0.0517  0.2651 -0.1902 -0.1078  0.1582  0.0517
  10.  C 2( 2pz)    0.0000  1.0000 -0.0284 -0.1458  0.1046  0.1582  0.0928 -0.0284
  11.  C 3( 1s )    0.0517 -0.0284  1.0000  0.0000  0.0000  0.0000  0.0000  0.0040
  12.  C 3( 2s )    0.2651 -0.1458  0.0000  1.0000  0.0000  0.0000  0.0000  0.0472
  13.  C 3( 2px)   -0.1902  0.1046  0.0000  0.0000  1.0000  0.0000  0.0000 -0.0677
  14.  C 3( 2py)   -0.1078  0.1582  0.0000  0.0000  0.0000  1.0000  0.0000  0.0000
  15.  C 3( 2pz)    0.1582  0.0928  0.0000  0.0000  0.0000  0.0000  1.0000  0.0000
  16.  C 4( 1s )    0.0517 -0.0284  0.0040  0.0472 -0.0677  0.0000  0.0000  1.0000
  17.  C 4( 2s )    0.2651 -0.1458  0.0472  0.3197 -0.3484  0.0000  0.0000  0.0000
  18.  C 4( 2px)    0.1902 -0.1046  0.0677  0.3484 -0.3201  0.0000  0.0000  0.0000
  19.  C 4( 2py)   -0.1078  0.1582  0.0000  0.0000  0.0000  0.1786  0.0000  0.0000
  20.  C 4( 2pz)    0.1582  0.0928  0.0000  0.0000  0.0000  0.0000  0.1786  0.0000
  21.  H 5( 1s )    0.0525  0.0241  0.0088  0.0847 -0.0367  0.0607  0.0838  0.0088
  22.  H 6( 1s )    0.0152 -0.0025  0.0094  0.0894 -0.0390  0.1083  0.0044  0.0094
  23.  H 7( 1s )   -0.0451  0.4643  0.0088  0.0847 -0.0367 -0.0607  0.0838  0.0088
  24.  H 8( 1s )   -0.4067 -0.2313  0.0094  0.0894 -0.0390 -0.1083  0.0044  0.0094
  25.  H 9( 1s )    0.0454 -0.0591  0.0894  0.4923  0.2905  0.0000 -0.3704  0.0072
  26.  H10( 1s )    0.0454 -0.0591  0.0072  0.0722 -0.0888  0.0000 -0.0349  0.0894

           NAO        17      18      19      20      21      22      23      24
      ------------ ------- ------- ------- ------- ------- ------- ------- -------
   1.  C 1( 1s )    0.0487  0.0348  0.0526  0.0289  0.0889  0.0896  0.0038  0.0007
   2.  C 1( 2s )    0.3212  0.1752  0.2649  0.1457  0.4852  0.4874  0.0413  0.0098
   3.  C 1( 2px)   -0.1753  0.0541 -0.1902 -0.1046  0.0000  0.0000  0.0000  0.0000
   4.  C 1( 2py)   -0.2651 -0.1902 -0.1078 -0.1582  0.0451  0.4067 -0.0525 -0.0152
   5.  C 1( 2pz)   -0.1458 -0.1046 -0.1582  0.0928  0.4643 -0.2313  0.0241 -0.0025
   6.  C 2( 1s )    0.0487  0.0348 -0.0526  0.0289  0.0038  0.0007  0.0889  0.0896
   7.  C 2( 2s )    0.3212  0.1752 -0.2649  0.1457  0.0413  0.0098  0.4852  0.4874
   8.  C 2( 2px)   -0.1753  0.0541  0.1902 -0.1046  0.0000  0.0000  0.0000  0.0000
   9.  C 2( 2py)    0.2651  0.1902 -0.1078  0.1582  0.0525  0.0152 -0.0451 -0.4067
  10.  C 2( 2pz)   -0.1458 -0.1046  0.1582  0.0928  0.0241 -0.0025  0.4643 -0.2313
  11.  C 3( 1s )    0.0472  0.0677  0.0000  0.0000  0.0088  0.0094  0.0088  0.0094
  12.  C 3( 2s )    0.3197  0.3484  0.0000  0.0000  0.0847  0.0894  0.0847  0.0894
  13.  C 3( 2px)   -0.3484 -0.3201  0.0000  0.0000 -0.0367 -0.0390 -0.0367 -0.0390
  14.  C 3( 2py)    0.0000  0.0000  0.1786  0.0000  0.0607  0.1083 -0.0607 -0.1083
  15.  C 3( 2pz)    0.0000  0.0000  0.0000  0.1786  0.0838  0.0044  0.0838  0.0044
  16.  C 4( 1s )    0.0000  0.0000  0.0000  0.0000  0.0088  0.0094  0.0088  0.0094
  17.  C 4( 2s )    1.0000  0.0000  0.0000  0.0000  0.0847  0.0894  0.0847  0.0894
  18.  C 4( 2px)    0.0000  1.0000  0.0000  0.0000  0.0367  0.0390  0.0367  0.0390
  19.  C 4( 2py)    0.0000  0.0000  1.0000  0.0000  0.0607  0.1083 -0.0607 -0.1083
  20.  C 4( 2pz)    0.0000  0.0000  0.0000  1.0000  0.0838  0.0044  0.0838  0.0044
  21.  H 5( 1s )    0.0847  0.0367  0.0607  0.0838  1.0000  0.1567  0.0520  0.0038
  22.  H 6( 1s )    0.0894  0.0390  0.1083  0.0044  0.1567  1.0000  0.0038  0.0012
  23.  H 7( 1s )    0.0847  0.0367 -0.0607  0.0838  0.0520  0.0038  1.0000  0.1567
  24.  H 8( 1s )    0.0894  0.0390 -0.1083  0.0044  0.0038  0.0012  0.1567  1.0000
  25.  H 9( 1s )    0.0722  0.0888  0.0000 -0.0349  0.0125  0.0350  0.0125  0.0350
  26.  H10( 1s )    0.4923 -0.2905  0.0000 -0.3704  0.0125  0.0350  0.0125  0.0350

           NAO        25      26
      ------------ ------- -------
   1.  C 1( 1s )    0.0073  0.0073
   2.  C 1( 2s )    0.0708  0.0708
   3.  C 1( 2px)    0.0568 -0.0568
   4.  C 1( 2py)   -0.0454 -0.0454
   5.  C 1( 2pz)   -0.0591 -0.0591
   6.  C 2( 1s )    0.0073  0.0073
   7.  C 2( 2s )    0.0708  0.0708
   8.  C 2( 2px)    0.0568 -0.0568
   9.  C 2( 2py)    0.0454  0.0454
  10.  C 2( 2pz)   -0.0591 -0.0591
  11.  C 3( 1s )    0.0894  0.0072
  12.  C 3( 2s )    0.4923  0.0722
  13.  C 3( 2px)    0.2905 -0.0888
  14.  C 3( 2py)    0.0000  0.0000
  15.  C 3( 2pz)   -0.3704 -0.0349
  16.  C 4( 1s )    0.0072  0.0894
  17.  C 4( 2s )    0.0722  0.4923
  18.  C 4( 2px)    0.0888 -0.2905
  19.  C 4( 2py)    0.0000  0.0000
  20.  C 4( 2pz)   -0.0349 -0.3704
  21.  H 5( 1s )    0.0125  0.0125
  22.  H 6( 1s )    0.0350  0.0350
  23.  H 7( 1s )    0.0125  0.0125
  24.  H 8( 1s )    0.0350  0.0350
  25.  H 9( 1s )    1.0000  0.0260
  26.  H10( 1s )    0.0260  1.0000


 PNAO density matrix:

           NAO         1       2       3       4       5       6       7       8
      ------------ ------- ------- ------- ------- ------- ------- ------- -------
   1.  C 1( 1s )    2.0000  0.0000  0.0000 -0.0005 -0.0004  0.0013  0.0162  0.0000
   2.  C 1( 2s )    0.0000  1.8398  0.0000  0.0157  0.0078  0.0162  0.1660  0.0000
   3.  C 1( 2px)    0.0000  0.0000  1.4687  0.0000  0.0000  0.0000  0.0000 -0.0080
   4.  C 1( 2py)   -0.0005  0.0157  0.0000  1.6004 -0.0194 -0.0271 -0.2340  0.0000
   5.  C 1( 2pz)   -0.0004  0.0078  0.0000 -0.0194  1.6312  0.0001  0.0124  0.0000
   6.  C 2( 1s )    0.0013  0.0162  0.0000 -0.0271  0.0001  2.0000  0.0000  0.0000
[...]

 -------------------------------------------------------
   Core                      7.99996 (100.000% of   8)
   Valence Lewis            21.76413 ( 98.928% of  22)
  ==================      =============================
   Total Lewis              29.76409 ( 99.214% of  30)
  -----------------------------------------------------
   Valence non-Lewis         0.23591 (  0.786% of  30)
   Rydberg non-Lewis         0.00000 (  0.000% of  30)
  ==================      =============================
   Total non-Lewis           0.23591 (  0.786% of  30)
 -------------------------------------------------------


     (Occupancy)   Bond orbital / Coefficients / Hybrids
 ------------------ Lewis ------------------------------------------------------
   1. (2.00000) CR ( 1) C  1            s(100.00%)
                                         1.0000  0.0000  0.0000  0.0000  0.0000
   2. (2.00000) CR ( 1) C  2            s(100.00%)
                                         1.0000  0.0000  0.0000  0.0000  0.0000
   3. (1.99998) CR ( 1) C  3            s(100.00%)
                                         1.0000  0.0000  0.0000  0.0000  0.0000
   4. (1.99998) CR ( 1) C  4            s(100.00%)
                                         1.0000  0.0000  0.0000  0.0000  0.0000
   5. (1.96977) BD ( 1) C  1- C  3
               ( 49.11%)   0.7008* C  1 s( 20.51%)p 3.87( 79.49%)
                                         0.0000  0.4529  0.7071 -0.4856 -0.2430
               ( 50.89%)   0.7134* C  3 s( 27.64%)p 2.62( 72.36%)
                                         0.0000  0.5258 -0.0671  0.7071  0.4680
   6. (1.96977) BD ( 1) C  1- C  4
               ( 49.11%)   0.7008* C  1 s( 20.51%)p 3.87( 79.49%)
                                         0.0000  0.4529 -0.7071 -0.4856 -0.2430
               ( 50.89%)   0.7134* C  4 s( 27.64%)p 2.62( 72.36%)
                                         0.0000  0.5258  0.0671  0.7071  0.4680
   7. (1.99363) BD ( 1) C  1- H  5
               ( 52.36%)   0.7236* C  1 s( 28.98%)p 2.45( 71.02%)
                                         0.0000  0.5383  0.0000  0.0824  0.8387
               ( 47.64%)   0.6902* H  5 s(100.00%)
                                         1.0000
   8. (1.99348) BD ( 1) C  1- H  6
               ( 52.49%)   0.7245* C  1 s( 29.99%)p 2.33( 70.01%)
                                         0.0000  0.5477  0.0000  0.7222 -0.4225
               ( 47.51%)   0.6893* H  6 s(100.00%)
                                         1.0000
   9. (1.96977) BD ( 1) C  2- C  3
               ( 49.11%)   0.7008* C  2 s( 20.51%)p 3.87( 79.49%)
                                         0.0000  0.4529  0.7071  0.4856 -0.2430
               ( 50.89%)   0.7134* C  3 s( 27.64%)p 2.62( 72.36%)
                                         0.0000  0.5258 -0.0671 -0.7071  0.4680
  10. (1.96977) BD ( 1) C  2- C  4
               ( 49.11%)   0.7008* C  2 s( 20.51%)p 3.87( 79.49%)
                                         0.0000  0.4529 -0.7071  0.4856 -0.2430
               ( 50.89%)   0.7134* C  4 s( 27.64%)p 2.62( 72.36%)
                                         0.0000  0.5258  0.0671 -0.7071  0.4680
  11. (1.99363) BD ( 1) C  2- H  7
               ( 52.36%)   0.7236* C  2 s( 28.98%)p 2.45( 71.02%)
                                         0.0000  0.5383  0.0000 -0.0824  0.8387
               ( 47.64%)   0.6902* H  7 s(100.00%)
                                         1.0000
  12. (1.99348) BD ( 1) C  2- H  8
               ( 52.49%)   0.7245* C  2 s( 29.99%)p 2.33( 70.01%)
                                         0.0000  0.5477  0.0000 -0.7222 -0.4225
               ( 47.51%)   0.6893* H  8 s(100.00%)
                                         1.0000
  13. (1.92718) BD ( 1) C  3- C  4
               ( 50.00%)   0.7071* C  3 s(  8.50%)p10.77( 91.50%)
                                         0.0000  0.2915 -0.8449  0.0000 -0.4486
               ( 50.00%)   0.7071* C  4 s(  8.50%)p10.77( 91.50%)
                                         0.0000  0.2915  0.8449  0.0000 -0.4486
  14. (1.99184) BD ( 1) C  3- H  9
               ( 52.91%)   0.7274* C  3 s( 36.21%)p 1.76( 63.79%)
                                         0.0000  0.6018  0.5265  0.0000 -0.6006
               ( 47.09%)   0.6862* H  9 s(100.00%)
                                         1.0000
  15. (1.99184) BD ( 1) C  4- H 10
               ( 52.91%)   0.7274* C  4 s( 36.21%)p 1.76( 63.79%)
                                         0.0000  0.6018 -0.5265  0.0000 -0.6006
               ( 47.09%)   0.6862* H 10 s(100.00%)
                                         1.0000
 ---------------- non-Lewis ----------------------------------------------------
  16. (0.02258) BD*( 1) C  1- C  3
               ( 50.89%)   0.7134* C  1 s( 20.51%)p 3.87( 79.49%)
                                         0.0000 -0.4529 -0.7071  0.4856  0.2430
               ( 49.11%)  -0.7008* C  3 s( 27.64%)p 2.62( 72.36%)
                                         0.0000 -0.5258  0.0671 -0.7071 -0.4680
  17. (0.02258) BD*( 1) C  1- C  4
               ( 50.89%)   0.7134* C  1 s( 20.51%)p 3.87( 79.49%)
                                         0.0000 -0.4529  0.7071  0.4856  0.2430
               ( 49.11%)  -0.7008* C  4 s( 27.64%)p 2.62( 72.36%)
                                         0.0000 -0.5258 -0.0671 -0.7071 -0.4680
  18. (0.02313) BD*( 1) C  1- H  5
               ( 47.64%)   0.6902* C  1 s( 28.98%)p 2.45( 71.02%)
                                         0.0000 -0.5383  0.0000 -0.0824 -0.8387
               ( 52.36%)  -0.7236* H  5 s(100.00%)
                                        -1.0000
  19. (0.01028) BD*( 1) C  1- H  6
               ( 47.51%)   0.6893* C  1 s( 29.99%)p 2.33( 70.01%)
                                         0.0000 -0.5477  0.0000 -0.7222  0.4225
               ( 52.49%)  -0.7245* H  6 s(100.00%)
                                        -1.0000
  20. (0.02258) BD*( 1) C  2- C  3
               ( 50.89%)   0.7134* C  2 s( 20.51%)p 3.87( 79.49%)
                                         0.0000 -0.4529 -0.7071 -0.4856  0.2430
               ( 49.11%)  -0.7008* C  3 s( 27.64%)p 2.62( 72.36%)
                                         0.0000 -0.5258  0.0671  0.7071 -0.4680
  21. (0.02258) BD*( 1) C  2- C  4
               ( 50.89%)   0.7134* C  2 s( 20.51%)p 3.87( 79.49%)
                                         0.0000 -0.4529  0.7071 -0.4856  0.2430
               ( 49.11%)  -0.7008* C  4 s( 27.64%)p 2.62( 72.36%)
                                         0.0000 -0.5258 -0.0671  0.7071 -0.4680
  22. (0.02313) BD*( 1) C  2- H  7
               ( 47.64%)   0.6902* C  2 s( 28.98%)p 2.45( 71.02%)
                                         0.0000 -0.5383  0.0000  0.0824 -0.8387
               ( 52.36%)  -0.7236* H  7 s(100.00%)
                                        -1.0000
  23. (0.01028) BD*( 1) C  2- H  8
               ( 47.51%)   0.6893* C  2 s( 29.99%)p 2.33( 70.01%)
                                         0.0000 -0.5477  0.0000  0.7222  0.4225
               ( 52.49%)  -0.7245* H  8 s(100.00%)
                                        -1.0000
  24. (0.04322) BD*( 1) C  3- C  4
               ( 50.00%)   0.7071* C  3 s(  8.50%)p10.77( 91.50%)
                                         0.0000  0.2915 -0.8449  0.0000 -0.4486
               ( 50.00%)  -0.7071* C  4 s(  8.50%)p10.77( 91.50%)
                                         0.0000  0.2915  0.8449  0.0000 -0.4486
  25. (0.01777) BD*( 1) C  3- H  9
               ( 47.09%)   0.6862* C  3 s( 36.21%)p 1.76( 63.79%)
                                         0.0000 -0.6018 -0.5265  0.0000  0.6006
               ( 52.91%)  -0.7274* H  9 s(100.00%)
                                        -1.0000
  26. (0.01777) BD*( 1) C  4- H 10
               ( 47.09%)   0.6862* C  4 s( 36.21%)p 1.76( 63.79%)
                                         0.0000 -0.6018  0.5265  0.0000  0.6006
               ( 52.91%)  -0.7274* H 10 s(100.00%)
                                        -1.0000


 NHO DIRECTIONALITY AND BOND BENDING (deviation from line of nuclear centers at
                                      the position of maximum hybrid amplitude)

         [Thresholds for printing:  angular deviation  >  1.0 degree]
                                    p- or d-character  > 25.0%
                                    orbital occupancy  >  0.10e

                        Line of Centers        Hybrid 1             Hybrid 2
                        ---------------  -------------------  ------------------
           NBO            Theta   Phi    Theta   Phi    Dev   Theta   Phi    Dev
 ===============================================================================
   5. BD ( 1) C  1- C  3  114.6  303.5   106.7  323.4  20.2    56.5   99.4  22.8
   6. BD ( 1) C  1- C  4  114.6  236.5   106.7  216.6  20.2    56.5   80.6  22.8
   8. BD ( 1) C  1- H  6  119.6   90.0   120.9   90.0   1.3     --     --    --
   9. BD ( 1) C  2- C  3  114.6   56.5   106.7   36.6  20.2    56.5  260.6  22.8
  10. BD ( 1) C  2- C  4  114.6  123.5   106.7  143.4  20.2    56.5  279.4  22.8
  12. BD ( 1) C  2- H  8  119.6  270.0   120.9  270.0   1.3     --     --    --
  13. BD ( 1) C  3- C  4   90.0  180.0   115.5  180.0  25.5   115.5    0.0  25.5
  14. BD ( 1) C  3- H  9  141.9    0.0   139.3    0.0   2.6     --     --    --
  15. BD ( 1) C  4- H 10  141.9  180.0   139.3  180.0   2.6     --     --    --


 SECOND ORDER PERTURBATION THEORY ANALYSIS OF FOCK MATRIX IN NBO BASIS

     Threshold for printing:   0.50 kcal/mol
                                                          E(2) E(NL)-E(L) F(L,NL)
      Donor (L) NBO              Acceptor (NL) NBO      kcal/mol   a.u.    a.u.
 ===============================================================================

 within unit  1
    5. BD ( 1) C  1- C  3      17. BD*( 1) C  1- C  4      2.80    1.28   0.053
    5. BD ( 1) C  1- C  3      19. BD*( 1) C  1- H  6      0.51    1.33   0.023
    5. BD ( 1) C  1- C  3      20. BD*( 1) C  2- C  3      1.36    1.28   0.037
    5. BD ( 1) C  1- C  3      22. BD*( 1) C  2- H  7      0.96    1.33   0.032
    5. BD ( 1) C  1- C  3      23. BD*( 1) C  2- H  8      2.41    1.33   0.051
    5. BD ( 1) C  1- C  3      24. BD*( 1) C  3- C  4      6.77    1.20   0.080
    5. BD ( 1) C  1- C  3      25. BD*( 1) C  3- H  9      1.34    1.35   0.038
    5. BD ( 1) C  1- C  3      26. BD*( 1) C  4- H 10      4.22    1.35   0.067
    6. BD ( 1) C  1- C  4      16. BD*( 1) C  1- C  3      2.80    1.28   0.053
    6. BD ( 1) C  1- C  4      19. BD*( 1) C  1- H  6      0.51    1.33   0.023
    6. BD ( 1) C  1- C  4      21. BD*( 1) C  2- C  4      1.36    1.28   0.037
    6. BD ( 1) C  1- C  4      22. BD*( 1) C  2- H  7      0.96    1.33   0.032
    6. BD ( 1) C  1- C  4      23. BD*( 1) C  2- H  8      2.41    1.33   0.051
    6. BD ( 1) C  1- C  4      24. BD*( 1) C  3- C  4      6.77    1.20   0.080
    6. BD ( 1) C  1- C  4      25. BD*( 1) C  3- H  9      4.22    1.35   0.067
    6. BD ( 1) C  1- C  4      26. BD*( 1) C  4- H 10      1.34    1.35   0.038
    7. BD ( 1) C  1- H  5      16. BD*( 1) C  1- C  3      0.81    1.29   0.029
    7. BD ( 1) C  1- H  5      17. BD*( 1) C  1- C  4      0.81    1.29   0.029
    7. BD ( 1) C  1- H  5      20. BD*( 1) C  2- C  3      0.50    1.29   0.023
    7. BD ( 1) C  1- H  5      21. BD*( 1) C  2- C  4      0.50    1.29   0.023
    7. BD ( 1) C  1- H  5      25. BD*( 1) C  3- H  9      0.77    1.36   0.029
    7. BD ( 1) C  1- H  5      26. BD*( 1) C  4- H 10      0.77    1.36   0.029
    8. BD ( 1) C  1- H  6      20. BD*( 1) C  2- C  3      1.67    1.31   0.042
    8. BD ( 1) C  1- H  6      21. BD*( 1) C  2- C  4      1.67    1.31   0.042
    8. BD ( 1) C  1- H  6      25. BD*( 1) C  3- H  9      0.57    1.37   0.025
    8. BD ( 1) C  1- H  6      26. BD*( 1) C  4- H 10      0.57    1.37   0.025
    9. BD ( 1) C  2- C  3      16. BD*( 1) C  1- C  3      1.36    1.28   0.037
    9. BD ( 1) C  2- C  3      18. BD*( 1) C  1- H  5      0.96    1.33   0.032
    9. BD ( 1) C  2- C  3      19. BD*( 1) C  1- H  6      2.41    1.33   0.051
    9. BD ( 1) C  2- C  3      21. BD*( 1) C  2- C  4      2.80    1.28   0.053
    9. BD ( 1) C  2- C  3      23. BD*( 1) C  2- H  8      0.51    1.33   0.023
    9. BD ( 1) C  2- C  3      24. BD*( 1) C  3- C  4      6.77    1.20   0.080
    9. BD ( 1) C  2- C  3      25. BD*( 1) C  3- H  9      1.34    1.35   0.038
    9. BD ( 1) C  2- C  3      26. BD*( 1) C  4- H 10      4.22    1.35   0.067
   10. BD ( 1) C  2- C  4      17. BD*( 1) C  1- C  4      1.36    1.28   0.037
   10. BD ( 1) C  2- C  4      18. BD*( 1) C  1- H  5      0.96    1.33   0.032
   10. BD ( 1) C  2- C  4      19. BD*( 1) C  1- H  6      2.41    1.33   0.051
   10. BD ( 1) C  2- C  4      20. BD*( 1) C  2- C  3      2.80    1.28   0.053
   10. BD ( 1) C  2- C  4      23. BD*( 1) C  2- H  8      0.51    1.33   0.023
   10. BD ( 1) C  2- C  4      24. BD*( 1) C  3- C  4      6.77    1.20   0.080
   10. BD ( 1) C  2- C  4      25. BD*( 1) C  3- H  9      4.22    1.35   0.067
   10. BD ( 1) C  2- C  4      26. BD*( 1) C  4- H 10      1.34    1.35   0.038
   11. BD ( 1) C  2- H  7      16. BD*( 1) C  1- C  3      0.50    1.29   0.023
   11. BD ( 1) C  2- H  7      17. BD*( 1) C  1- C  4      0.50    1.29   0.023
   11. BD ( 1) C  2- H  7      20. BD*( 1) C  2- C  3      0.81    1.29   0.029
   11. BD ( 1) C  2- H  7      21. BD*( 1) C  2- C  4      0.81    1.29   0.029
   11. BD ( 1) C  2- H  7      25. BD*( 1) C  3- H  9      0.77    1.36   0.029
   11. BD ( 1) C  2- H  7      26. BD*( 1) C  4- H 10      0.77    1.36   0.029
   12. BD ( 1) C  2- H  8      16. BD*( 1) C  1- C  3      1.67    1.31   0.042
   12. BD ( 1) C  2- H  8      17. BD*( 1) C  1- C  4      1.67    1.31   0.042
   12. BD ( 1) C  2- H  8      25. BD*( 1) C  3- H  9      0.57    1.37   0.025
   12. BD ( 1) C  2- H  8      26. BD*( 1) C  4- H 10      0.57    1.37   0.025
   13. BD ( 1) C  3- C  4      16. BD*( 1) C  1- C  3      5.54    1.15   0.071
   13. BD ( 1) C  3- C  4      17. BD*( 1) C  1- C  4      5.54    1.15   0.071
   13. BD ( 1) C  3- C  4      18. BD*( 1) C  1- H  5      8.72    1.21   0.092
   13. BD ( 1) C  3- C  4      20. BD*( 1) C  2- C  3      5.54    1.15   0.071
   13. BD ( 1) C  3- C  4      21. BD*( 1) C  2- C  4      5.54    1.15   0.071
   13. BD ( 1) C  3- C  4      22. BD*( 1) C  2- H  7      8.72    1.21   0.092
   14. BD ( 1) C  3- H  9      16. BD*( 1) C  1- C  3      1.78    1.32   0.043
   14. BD ( 1) C  3- H  9      18. BD*( 1) C  1- H  5      0.56    1.37   0.025
   14. BD ( 1) C  3- H  9      20. BD*( 1) C  2- C  3      1.78    1.32   0.043
   14. BD ( 1) C  3- H  9      22. BD*( 1) C  2- H  7      0.56    1.37   0.025
   15. BD ( 1) C  4- H 10      17. BD*( 1) C  1- C  4      1.78    1.32   0.043
   15. BD ( 1) C  4- H 10      18. BD*( 1) C  1- H  5      0.56    1.37   0.025
   15. BD ( 1) C  4- H 10      21. BD*( 1) C  2- C  4      1.78    1.32   0.043
   15. BD ( 1) C  4- H 10      22. BD*( 1) C  2- H  7      0.56    1.37   0.025


 NATURAL BOND ORBITALS (Summary):

                                                     Principal Delocalizations
           NBO                 Occupancy    Energy   (geminal,vicinal,remote)
 ===============================================================================
 Molecular unit  1  (C4H6)
 ------ Lewis --------------------------------------
    1. CR ( 1) C  1             2.00000   -11.04737
    2. CR ( 1) C  2             2.00000   -11.04737
    3. CR ( 1) C  3             1.99998   -11.02295
    4. CR ( 1) C  4             1.99998   -11.02295
    5. BD ( 1) C  1- C  3       1.96977    -0.61534  24(g),26(v),17(g),23(v)
                                                     20(g),25(g),22(v),19(g)
    6. BD ( 1) C  1- C  4       1.96977    -0.61534  24(g),25(v),16(g),23(v)
                                                     21(g),26(g),22(v),19(g)
    7. BD ( 1) C  1- H  5       1.99363    -0.63185  16(g),17(g),25(v),26(v)
                                                     20(v),21(v)
    8. BD ( 1) C  1- H  6       1.99348    -0.64280  20(v),21(v),25(v),26(v)
    9. BD ( 1) C  2- C  3       1.96977    -0.61534  24(g),26(v),21(g),19(v)
                                                     16(g),25(g),18(v),23(g)
   10. BD ( 1) C  2- C  4       1.96977    -0.61534  24(g),25(v),20(g),19(v)
                                                     17(g),26(g),18(v),23(g)
   11. BD ( 1) C  2- H  7       1.99363    -0.63185  20(g),21(g),25(v),26(v)
                                                     16(v),17(v)
   12. BD ( 1) C  2- H  8       1.99348    -0.64280  16(v),17(v),25(v),26(v)
   13. BD ( 1) C  3- C  4       1.92718    -0.48963  18(v),22(v),16(g),17(g)
                                                     20(g),21(g)
   14. BD ( 1) C  3- H  9       1.99184    -0.65692  16(g),20(g),18(v),22(v)
   15. BD ( 1) C  4- H 10       1.99184    -0.65692  17(g),21(g),18(v),22(v)
 ------ non-Lewis ----------------------------------
   16. BD*( 1) C  1- C  3       0.02258     0.66243
   17. BD*( 1) C  1- C  4       0.02258     0.66243
   18. BD*( 1) C  1- H  5       0.02313     0.71735
   19. BD*( 1) C  1- H  6       0.01028     0.71820
   20. BD*( 1) C  2- C  3       0.02258     0.66243
   21. BD*( 1) C  2- C  4       0.02258     0.66243
   22. BD*( 1) C  2- H  7       0.02313     0.71735
   23. BD*( 1) C  2- H  8       0.01028     0.71820
   24. BD*( 1) C  3- C  4       0.04322     0.58511
   25. BD*( 1) C  3- H  9       0.01777     0.73094
   26. BD*( 1) C  4- H 10       0.01777     0.73094
          -------------------------------
                 Total Lewis   29.76409  ( 99.2136%)
           Valence non-Lewis    0.23591  (  0.7864%)
           Rydberg non-Lewis    0.00000  (  0.0000%)
          -------------------------------
               Total unit  1   30.00000  (100.0000%)
              Charge unit  1    0.00000

 $CHOOSE
   BOND S 1 3 S 1 4 S 1 5 S 1 6 S 2 3 S 2 4 S 2 7 S 2 8 S 3 4 S 3 9 S 4 10 END
 $END

 NBO analysis completed in 0.28 CPU seconds (0 wall seconds)
 Maximum scratch memory used by NBO was 227358 words (1.73 MB)
 Maximum scratch memory used by G16NBO was 9361 words (0.07 MB)

 Opening RunExU unformatted file "/cluster/work/users/beto93/mol85/Gau-27272.EUF"
 Read unf file /cluster/work/users/beto93/mol85/Gau-27272.EUF:
 Label Gaussian matrix elements                                         IVers= 2 NLab= 2 Version=ES64L-G16RevC.01
 Title mol85-NBO                                                       
 NAtoms=    10 NBasis=    26 NBsUse=    26 ICharg=     0 Multip=     1 NE=    30 Len12L=8 Len4L=8 IOpCl= 0 ICGU=111
 GAUSSIAN SCALARS                    NI= 1 NR= 1 NTot=       1 LenBuf=    2 NRI=1 N=    1000
 NPA CHARGES                         NI= 0 NR= 1 NTot=      10 LenBuf= 4000 NRI=1 N=      10
 Recovered energy= -152.998619766     dipole=     -0.000000000000      0.000000000000     -0.265722778389
 Unable to Open any file for archive entry.
 1\1\GINC-C5-5\SP\RHF\STO-3G\C4H6\BETO93\18-Nov-2024\0\\#RHF/STO-3G int
 =nobasistransform Symmetry=None 5D 7F Pop=NBO7Read\\mol85-NBO\\0,1\C,0
 ,0.,1.131343,0.310424\C,0,0.,-1.131343,0.310424\C,0,0.747952,0.,-0.311
 812\C,0,-0.747952,0.,-0.311812\H,0,0.,1.237033,1.397617\H,0,0.,2.07737
 5,-0.227668\H,0,0.,-1.237033,1.397617\H,0,0.,-2.077375,-0.227668\H,0,1
 .41441,0.,-1.161626\H,0,-1.41441,0.,-1.161626\\Version=ES64L-G16RevC.0
 1\HF=-152.9986198\RMSD=4.070e-09\Dipole=0.,0.,-0.2657228\Quadrupole=-1
 .1583236,0.4011004,0.7572232,0.,0.,0.\PG=Unknown\\@
 The archive entry for this job was punched.


 K N O W I N G  IS A BARRIER WHICH PREVENTS LEARNING

                     -- TEACHING OF THE BENE GESSERIT
 Job cpu time:       0 days  0 hours  0 minutes  9.4 seconds.
 Elapsed time:       0 days  0 hours  0 minutes  3.1 seconds.
 File lengths (MBytes):  RWF=     10 Int=      0 D2E=      0 Chk=      1 Scr=      1
 Normal termination of Gaussian 16 at Mon Nov 18 15:41:34 2024.
