 Entering Gaussian System, Link 0=g16
 Initial command:
 /cluster/software/Gaussian/g16_C.01/l1.exe "/cluster/work/users/beto93/mol132/Gau-476359.inp" -scrdir="/cluster/work/users/beto93/mol132/"
 Entering Link 1 = /cluster/software/Gaussian/g16_C.01/l1.exe PID=    476362.
  
 Copyright (c) 1988-2019, Gaussian, Inc.  All Rights Reserved.
  
 This is part of the Gaussian(R) 16 program.  It is based on
 the Gaussian(R) 09 system (copyright 2009, Gaussian, Inc.),
 the Gaussian(R) 03 system (copyright 2003, Gaussian, Inc.),
 the Gaussian(R) 98 system (copyright 1998, Gaussian, Inc.),
 the Gaussian(R) 94 system (copyright 1995, Gaussian, Inc.),
 the Gaussian 92(TM) system (copyright 1992, Gaussian, Inc.),
 the Gaussian 90(TM) system (copyright 1990, Gaussian, Inc.),
 the Gaussian 88(TM) system (copyright 1988, Gaussian, Inc.),
 the Gaussian 86(TM) system (copyright 1986, Carnegie Mellon
 University), and the Gaussian 82(TM) system (copyright 1983,
 Carnegie Mellon University). Gaussian is a federally registered
 trademark of Gaussian, Inc.
  
 This software contains proprietary and confidential information,
 including trade secrets, belonging to Gaussian, Inc.
  
 This software is provided under written license and may be
 used, copied, transmitted, or stored only in accord with that
 written license.
  
 The following legend is applicable only to US Government
 contracts under FAR:
  
                    RESTRICTED RIGHTS LEGEND
  
 Use, reproduction and disclosure by the US Government is
 subject to restrictions as set forth in subparagraphs (a)
 and (c) of the Commercial Computer Software - Restricted
 Rights clause in FAR 52.227-19.
  
 Gaussian, Inc.
 340 Quinnipiac St., Bldg. 40, Wallingford CT 06492
  
  
 ---------------------------------------------------------------
 Warning -- This program may not be used in any manner that
 competes with the business of Gaussian, Inc. or will provide
 assistance to any competitor of Gaussian, Inc.  The licensee
 of this program is prohibited from giving any competitor of
 Gaussian, Inc. access to this program.  By using this program,
 the user acknowledges that Gaussian, Inc. is engaged in the
 business of creating and licensing software in the field of
 computational chemistry and represents and warrants to the
 licensee that it is not a competitor of Gaussian, Inc. and that
 it will not use this program in any manner prohibited above.
 ---------------------------------------------------------------
  

 Cite this work as:
 Gaussian 16, Revision C.01,
 M. J. Frisch, G. W. Trucks, H. B. Schlegel, G. E. Scuseria, 
 M. A. Robb, J. R. Cheeseman, G. Scalmani, V. Barone, 
 G. A. Petersson, H. Nakatsuji, X. Li, M. Caricato, A. V. Marenich, 
 J. Bloino, B. G. Janesko, R. Gomperts, B. Mennucci, H. P. Hratchian, 
 J. V. Ortiz, A. F. Izmaylov, J. L. Sonnenberg, D. Williams-Young, 
 F. Ding, F. Lipparini, F. Egidi, J. Goings, B. Peng, A. Petrone, 
 T. Henderson, D. Ranasinghe, V. G. Zakrzewski, J. Gao, N. Rega, 
 G. Zheng, W. Liang, M. Hada, M. Ehara, K. Toyota, R. Fukuda, 
 J. Hasegawa, M. Ishida, T. Nakajima, Y. Honda, O. Kitao, H. Nakai, 
 T. Vreven, K. Throssell, J. A. Montgomery, Jr., J. E. Peralta, 
 F. Ogliaro, M. J. Bearpark, J. J. Heyd, E. N. Brothers, K. N. Kudin, 
 V. N. Staroverov, T. A. Keith, R. Kobayashi, J. Normand, 
 K. Raghavachari, A. P. Rendell, J. C. Burant, S. S. Iyengar, 
 J. Tomasi, M. Cossi, J. M. Millam, M. Klene, C. Adamo, R. Cammi, 
 J. W. Ochterski, R. L. Martin, K. Morokuma, O. Farkas, 
 J. B. Foresman, and D. J. Fox, Gaussian, Inc., Wallingford CT, 2019.
 
 ******************************************
 Gaussian 16:  ES64L-G16RevC.01  3-Jul-2019
                18-Nov-2024 
 ******************************************
 %LindaWorkers=c1-39-ib
 %NProcShared=4
 Will use up to    4 processors via shared memory.
 %mem=25GB
 %chk=mol132.chk
 SetLPE:    new flags="-opt 'Tsnet.Node.lindarsharg: ssh'  -nodelist 'c1-39-ib.saga' -env GAUSS_MDEF=3355443200 -env GAUSS_EXEDIR="/cluster/software/Gaussian/g16_C.01/bsd:/cluster/software/Gaussian/g16_C.01""
 Will use up to    1 processors via Linda.
 -----------------------------------------------------------------
 #RHF/6-31G* int=nobasistransform Symmetry=None 5D 7F Pop=NBO7Read
 -----------------------------------------------------------------
 1/38=1,163=2,172=1/1;
 2/12=2,15=3,17=6,18=5,40=1/2;
 3/5=1,6=6,7=1,8=11,11=1,25=1,30=1,60=-1,116=1/1,2,3;
 4//1;
 5/5=2,38=5/2;
 6/7=2,8=2,9=2,10=2,28=1,40=2,113=1,114=1,124=2103/1,12;
 99/5=1,9=1/99;
 ----------
 mol132-NBO
 ----------
 Symbolic Z-matrix:
 Charge =  0 Multiplicity = 1
 S                     0.        0.        1.18975 
 C                     0.        1.23388  -0.00147 
 C                     0.       -1.23388  -0.00147 
 C                     0.        0.70917  -1.27232 
 C                     0.       -0.70917  -1.27232 
 H                     0.        2.27534   0.29198 
 H                     0.       -2.27534   0.29198 
 H                     0.        1.32193  -2.16723 
 H                     0.       -1.32193  -2.16723 
 
                          Input orientation:                          
 ---------------------------------------------------------------------
 Center     Atomic      Atomic             Coordinates (Angstroms)
 Number     Number       Type             X           Y           Z
 ---------------------------------------------------------------------
      1         16           0        0.000000    0.000000    1.189753
      2          6           0        0.000000    1.233876   -0.001474
      3          6           0        0.000000   -1.233876   -0.001474
      4          6           0        0.000000    0.709173   -1.272322
      5          6           0        0.000000   -0.709173   -1.272322
      6          1           0        0.000000    2.275343    0.291984
      7          1           0        0.000000   -2.275343    0.291984
      8          1           0        0.000000    1.321934   -2.167231
      9          1           0        0.000000   -1.321934   -2.167231
 ---------------------------------------------------------------------
                    Distance matrix (angstroms):
                    1          2          3          4          5
     1  S    0.000000
     2  C    1.715072   0.000000
     3  C    1.715072   2.467752   0.000000
     4  C    2.562175   1.374906   2.321744   0.000000
     5  C    2.562175   2.321744   1.374906   1.418346   0.000000
     6  H    2.446053   1.082022   3.521468   2.213581   3.369627
     7  H    2.446053   3.521468   1.082022   3.369627   2.213581
     8  H    3.607887   2.167546   3.350025   1.084591   2.219517
     9  H    3.607887   3.350025   2.167546   2.219517   1.084591
                    6          7          8          9
     6  H    0.000000
     7  H    4.550686   0.000000
     8  H    2.637561   4.357538   0.000000
     9  H    4.357538   2.637561   2.643868   0.000000
 Symmetry turned off by external request.
 Stoichiometry    C4H4S
 Rotational constants (GHZ):           8.0774317           5.4001901           3.2364513
 Standard basis: 6-31G(d) (5D, 7F)
    82 basis functions,   180 primitive gaussians,    87 cartesian basis functions
    22 alpha electrons       22 beta electrons
       nuclear repulsion energy       202.7116321541 Hartrees.
 NAtoms=    9 NActive=    9 NUniq=    9 SFac= 1.00D+00 NAtFMM=   60 NAOKFM=F Big=F
 Integral buffers will be    131072 words long.
 Raffenetti 1 integral format.
 Two-electron integral symmetry is turned off.
 One-electron integrals computed using PRISM.
 NBasis=    82 RedAO= T EigKep=  1.74D-03  NBF=    82
 NBsUse=    82 1.00D-06 EigRej= -1.00D+00 NBFU=    82
 ExpMin= 1.17D-01 ExpMax= 2.19D+04 ExpMxC= 3.30D+03 IAcc=3 IRadAn=         5 AccDes= 0.00D+00
 Harris functional with IExCor=  205 and IRadAn=       5 diagonalized for initial guess.
 HarFok:  IExCor=  205 AccDes= 0.00D+00 IRadAn=         5 IDoV= 1 UseB2=F ITyADJ=14
 ICtDFT=  3500011 ScaDFX=  1.000000  1.000000  1.000000  1.000000
 FoFCou: FMM=F IPFlag=           0 FMFlag=      100000 FMFlg1=           0
         NFxFlg=           0 DoJE=T BraDBF=F KetDBF=T FulRan=T
         wScrn=  0.000000 ICntrl=       500 IOpCl=  0 I1Cent=   200000004 NGrid=           0
         NMat0=    1 NMatS0=      1 NMatT0=    0 NMatD0=    1 NMtDS0=    0 NMtDT0=    0
 Symmetry not used in FoFCou.
 Keep R1 ints in memory in canonical form, NReq=6655430.
 Requested convergence on RMS density matrix=1.00D-08 within 128 cycles.
 Requested convergence on MAX density matrix=1.00D-06.
 Requested convergence on             energy=1.00D-06.
 No special actions if energy rises.
 SCF Done:  E(RHF) =  -551.286285618     A.U. after   12 cycles
            NFock= 12  Conv=0.93D-08     -V/T= 2.0000

 **********************************************************************

            Population analysis using the SCF Density.

 **********************************************************************

 Alpha  occ. eigenvalues --  -91.96322 -11.25811 -11.25809 -11.23617 -11.23517
 Alpha  occ. eigenvalues --   -8.97899  -6.66080  -6.65984  -6.65830  -1.16809
 Alpha  occ. eigenvalues --   -0.98335  -0.97738  -0.76198  -0.74705  -0.69234
 Alpha  occ. eigenvalues --   -0.57010  -0.54714  -0.52530  -0.51734  -0.47198
 Alpha  occ. eigenvalues --   -0.34183  -0.32044
 Alpha virt. eigenvalues --    0.13146   0.19056   0.23456   0.24312   0.26775
 Alpha virt. eigenvalues --    0.30278   0.31963   0.32399   0.40579   0.46238
 Alpha virt. eigenvalues --    0.47322   0.54392   0.58641   0.63651   0.63896
 Alpha virt. eigenvalues --    0.69996   0.73894   0.78090   0.81355   0.83583
 Alpha virt. eigenvalues --    0.84624   0.89490   0.90827   1.03264   1.04283
 Alpha virt. eigenvalues --    1.05636   1.05672   1.09121   1.11194   1.12686
 Alpha virt. eigenvalues --    1.17594   1.17832   1.25165   1.29996   1.32162
 Alpha virt. eigenvalues --    1.33926   1.36541   1.43942   1.57850   1.62708
 Alpha virt. eigenvalues --    1.69637   1.71767   1.78198   2.03301   2.12507
 Alpha virt. eigenvalues --    2.16342   2.20669   2.25966   2.35219   2.50584
 Alpha virt. eigenvalues --    2.55870   2.56599   2.59083   2.59878   2.79121
 Alpha virt. eigenvalues --    2.82442   2.94286   2.99219   3.24708   3.35808
          Condensed to atoms (all electrons):
               1          2          3          4          5          6
     1  S   15.260716   0.329938   0.329938  -0.093026  -0.093026  -0.028669
     2  C    0.329938   5.301745  -0.083282   0.600585  -0.074498   0.376708
     3  C    0.329938  -0.083282   5.301745  -0.074498   0.600585   0.002956
     4  C   -0.093026   0.600585  -0.074498   4.879668   0.522915  -0.014827
     5  C   -0.093026  -0.074498   0.600585   0.522915   4.879668   0.001375
     6  H   -0.028669   0.376708   0.002956  -0.014827   0.001375   0.428651
     7  H   -0.028669   0.002956   0.376708   0.001375  -0.014827  -0.000030
     8  H    0.003714  -0.029986   0.003742   0.380922  -0.028235  -0.000755
     9  H    0.003714   0.003742  -0.029986  -0.028235   0.380922  -0.000066
               7          8          9
     1  S   -0.028669   0.003714   0.003714
     2  C    0.002956  -0.029986   0.003742
     3  C    0.376708   0.003742  -0.029986
     4  C    0.001375   0.380922  -0.028235
     5  C   -0.014827  -0.028235   0.380922
     6  H   -0.000030  -0.000755  -0.000066
     7  H    0.428651  -0.000066  -0.000755
     8  H   -0.000066   0.460519  -0.000302
     9  H   -0.000755  -0.000302   0.460519
 Mulliken charges:
               1
     1  S    0.315369
     2  C   -0.427908
     3  C   -0.427908
     4  C   -0.174880
     5  C   -0.174880
     6  H    0.234656
     7  H    0.234656
     8  H    0.210447
     9  H    0.210447
 Sum of Mulliken charges =  -0.00000
 Mulliken charges with hydrogens summed into heavy atoms:
               1
     1  S    0.315369
     2  C   -0.193251
     3  C   -0.193251
     4  C    0.035567
     5  C    0.035567
 Electronic spatial extent (au):  <R**2>=            399.8160
 Charge=             -0.0000 electrons
 Dipole moment (field-independent basis, Debye):
    X=              0.0000    Y=              0.0000    Z=             -0.7649  Tot=              0.7649
 Quadrupole moment (field-independent basis, Debye-Ang):
   XX=            -40.6579   YY=            -31.0407   ZZ=            -34.7779
   XY=             -0.0000   XZ=              0.0000   YZ=             -0.0000
 Traceless Quadrupole moment (field-independent basis, Debye-Ang):
   XX=             -5.1657   YY=              4.4514   ZZ=              0.7143
   XY=             -0.0000   XZ=              0.0000   YZ=             -0.0000
 Octapole moment (field-independent basis, Debye-Ang**2):
  XXX=              0.0000  YYY=             -0.0000  ZZZ=             -7.4013  XYY=             -0.0000
  XXY=              0.0000  XXZ=              1.4708  XZZ=             -0.0000  YZZ=              0.0000
  YYZ=              2.3412  XYZ=              0.0000
 Hexadecapole moment (field-independent basis, Debye-Ang**3):
 XXXX=            -47.8992 YYYY=           -189.6070 ZZZZ=           -274.9063 XXXY=             -0.0000
 XXXZ=              0.0000 YYYX=             -0.0000 YYYZ=             -0.0000 ZZZX=              0.0000
 ZZZY=              0.0000 XXYY=            -49.9203 XXZZ=            -61.3160 YYZZ=            -75.0620
 XXYZ=             -0.0000 YYXZ=              0.0000 ZZXY=             -0.0000
 N-N= 2.027116321541D+02 E-N=-1.710236639466D+03  KE= 5.513068356642D+02
 Running external command "gaunbo7 R"
         input file       "/cluster/work/users/beto93/mol132/Gau-476362.EIn"
         output file      "/cluster/work/users/beto93/mol132/Gau-476362.EOu"
         message file     "/cluster/work/users/beto93/mol132/Gau-476362.EMs"
         fchk file        "/cluster/work/users/beto93/mol132/Gau-476362.EFC"
         mat. el file     "/cluster/work/users/beto93/mol132/Gau-476362.EUF"

 Writing WrtUnf unformatted file "/cluster/work/users/beto93/mol132/Gau-476362.EUF"
 Gaussian matrix elements                                         Version   2 NLab=11 Len12L=8 Len4L=8
 Write SHELL TO ATOM MAP                   from file      0 offset           0 length                  29 to matrix element file.
 Write SHELL TYPES                         from file      0 offset           0 length                  29 to matrix element file.
 Write NUMBER OF PRIMITIVES PER SHELL      from file      0 offset           0 length                  29 to matrix element file.
 Write PRIMITIVE EXPONENTS                 from file      0 offset           0 length                  77 to matrix element file.
 Write CONTRACTION COEFFICIENTS            from file      0 offset           0 length                  77 to matrix element file.
 Write P(S=P) CONTRACTION COEFFICIENTS     from file      0 offset           0 length                  77 to matrix element file.
 Write COORDINATES OF EACH SHELL           from file      0 offset           0 length                  87 to matrix element file.
 Write BONDS PER ATOM                      from file      0 offset           0 length                   9 to matrix element file.
 Write BONDED ATOMS                        from file      0 offset           0 length                  18 to matrix element file.
 Write BOND TYPES                          from file      0 offset           0 length                  18 to matrix element file.
 Write ONIOM CHARGE/MULT                   from file      0 offset           0 length                  32 to matrix element file.
 Write ONIOM ATOM LAYERS                   from file      0 offset           0 length                   9 to matrix element file.
 Write ONIOM ATOM MODIFIERS                from file      0 offset           0 length                   9 to matrix element file.
 Write ONIOM ATOM TYPES                    from file      0 offset           0 length                   9 to matrix element file.
 Write ONIOM LINK ATOMS                    from file      0 offset           0 length                   9 to matrix element file.
 Write ONIOM LINK CHARGES                  from file      0 offset           0 length                   9 to matrix element file.
 Write ONIOM LINK DISTANCES                from file      0 offset           0 length                  36 to matrix element file.
 Write SYMINF INTS                         from file      0 offset           0 length                  26 to matrix element file.
 Write ROTTR TO SO                         from file      0 offset           0 length                  12 to matrix element file.
 Write GAUSSIAN SCALARS                    from file    501 offset           0 to matrix element file.
 Write OPTIMIZATION FLAGS                  from file      0 offset           0 length                   9 to matrix element file.
 Write INTEGER ISO                         from file      0 offset           0 length                   9 to matrix element file.
 Write INTEGER SPIN                        from file      0 offset           0 length                   9 to matrix element file.
 Write REAL ZEFFECTIVE                     from file      0 offset           0 length                   9 to matrix element file.
 Write REAL GFACTOR                        from file      0 offset           0 length                   9 to matrix element file.
 Write REAL ZNUCLEAR                       from file      0 offset           0 length                   9 to matrix element file.
 Write MULLIKEN CHARGES                    from file      0 offset           0 length                   9 to matrix element file.
 Write NUCLEAR GRADIENT                    from file  10584 offset           0 length                  27 to matrix element file.
 Array NUCLEAR FORCE CONSTANTS              on  file  10585 does not exist.
 Write ELECTRIC DIPOLE MOMENT              from file      0 offset           0 length                   3 to matrix element file.
 Write NON-ADIABATIC COUPLING              from file  10810 offset           0 length                  27 to matrix element file.
 Write FINITE EM FIELD                     from file  10521 offset           0 length                  35 to matrix element file.
 Write OVERLAP                             from file  10514 offset           0 length                3403 to matrix element file.
 Write CORE HAMILTONIAN ALPHA              from file  10515 offset           0 length                3403 to matrix element file.
 Write CORE HAMILTONIAN BETA               from file  10515 offset        3403 length                3403 to matrix element file.
 Write KINETIC ENERGY                      from file  10516 offset           0 length                3403 to matrix element file.
 Write ORTHOGONAL BASIS                    from file  10685 offset           0 length                6724 to matrix element file.
 Write DIPOLE INTEGRALS                    from file  10518 offset           0 length               10209 to matrix element file.
 Array DIP VEL INTEGRALS                    on  file  10572 does not exist.
 Array R X DEL INTEGRALS                    on  file  10572 does not exist.
 Write ALPHA ORBITAL ENERGIES              from file      0 offset           0 length                  82 to matrix element file.
 Write ALPHA MO COEFFICIENTS               from file  10524 offset           0 length                6724 to matrix element file.
 Write ALPHA DENSITY MATRIX                from file      0 offset           0 length                3403 to matrix element file.
 Write ALPHA FOCK MATRIX                   from file  10536 offset           0 length                3403 to matrix element file.
 Write ENERGY-WEIGHTED DENSITY             from file  10571 offset           0 length                3403 to matrix element file.
 Write ALPHA SCF DENSITY MATRIX            from file      0 offset           0 length                3403 to matrix element file.
 No 2e integrals to process.
 Perform NBO analysis...executing G16NBO...

 *********************************** NBO 7.0 ***********************************
             N A T U R A L   A T O M I C   O R B I T A L   A N D
          N A T U R A L   B O N D   O R B I T A L   A N A L Y S I S
 **************************** Espen Tangen (S101595) ***************************
  (c) Copyright 1996-2021 Board of Regents of the University of Wisconsin System
      on behalf of the Theoretical Chemistry Institute.  All rights reserved.

          Cite this program [NBO 7.0.10 (8-Feb-2021)] as:

          NBO 7.0.  E. D. Glendening, J. K. Badenhoop, A. E. Reed,
          J. E. Carpenter, J. A. Bohmann, C. M. Morales, P. Karafiloglou,
          C. R. Landis, and F. Weinhold, Theoretical Chemistry Institute,
          University of Wisconsin, Madison, WI (2018)

       /NPA    / : Natural Population Analysis
       /AOPNAO / : Print the AO to PNAO transformation
       /AONAO  / : Print the AO to NAO transformation
       /AOMO   / : Print the MOs in the AO basis
       /BOAO   / : Print the AO bond-order matrix
       /DMAO   / : Print the AO density matrix
       /DMPNAO / : Print the PNAO density matrix
       /DMNAO  / : Print the NAO density matrix
       /DMMO   / : Print the MO density matrix
       /SAO    / : Print the AO overlap matrix
       /SPNAO  / : Print the PNAO overlap matrix
       /DETAIL / : Write details of NBO search
       /ARCHIVE/ : Write the archive file to lfn47
       /AOINFO / : Write AO information to lfn31
       /FILE   / : Set to mol132.gen*

 Filename set to mol132.gen1

 Job title: mol132-NBO


 MOs in the AO basis:

           AO          1       2       3       4       5       6       7       8
      ------------ ------- ------- ------- ------- ------- ------- ------- -------
   1.  S 1 (s)      0.9967  0.0000  0.0000  0.0000  0.0000 -0.2818  0.0000 -0.0016
   2.  S 1 (s)      0.0123  0.0000  0.0001 -0.0001  0.0000  1.0306  0.0000  0.0062
   3.  S 1 (px)     0.0000  0.0000  0.0000  0.0000  0.0000  0.0000  0.0000  0.0000
   4.  S 1 (py)     0.0000  0.0000  0.0000  0.0000  0.0000  0.0000  0.9928  0.0000
   5.  S 1 (pz)    -0.0002  0.0000  0.0000  0.0000  0.0000 -0.0048  0.0000  0.9931
   6.  S 1 (s)     -0.0041  0.0000 -0.0004 -0.0005  0.0000  0.0217  0.0000 -0.0025
   7.  S 1 (px)     0.0000  0.0000  0.0000  0.0000  0.0000  0.0000  0.0000  0.0000
   8.  S 1 (py)     0.0000  0.0003  0.0000  0.0000 -0.0002  0.0000  0.0246  0.0000
   9.  S 1 (pz)     0.0006  0.0000 -0.0005  0.0001  0.0000 -0.0022  0.0000  0.0237
  10.  S 1 (s)      0.0015  0.0000  0.0075  0.0012  0.0000 -0.0051  0.0000 -0.0055
  11.  S 1 (px)     0.0000  0.0000  0.0000  0.0000  0.0000  0.0000  0.0000  0.0000
  12.  S 1 (py)     0.0000  0.0016  0.0000  0.0000  0.0002  0.0000 -0.0051  0.0000
  13.  S 1 (pz)    -0.0001  0.0000 -0.0037 -0.0007  0.0000  0.0006  0.0000 -0.0024
  14.  S 1 (d5)    -0.0001  0.0000  0.0000  0.0001  0.0000  0.0002  0.0000 -0.0012
  15.  S 1 (d2)     0.0000  0.0000  0.0000  0.0000  0.0000  0.0000  0.0000  0.0000
  16.  S 1 (d3)     0.0000  0.0003  0.0000  0.0000  0.0000  0.0000 -0.0017  0.0000
  17.  S 1 (d4)     0.0001  0.0000  0.0001 -0.0001  0.0000 -0.0004  0.0000  0.0005
  18.  S 1 (d1)     0.0000  0.0000  0.0000  0.0000  0.0000  0.0000  0.0000  0.0000
  19.  C 2 (s)      0.0000  0.7041  0.7041 -0.0211 -0.0206 -0.0001 -0.0001  0.0001
  20.  C 2 (s)     -0.0001  0.0174  0.0179 -0.0009 -0.0010  0.0002  0.0004 -0.0008
  21.  C 2 (px)     0.0000  0.0000  0.0000  0.0000  0.0000  0.0000  0.0000  0.0000
  22.  C 2 (py)     0.0000 -0.0004 -0.0005  0.0001  0.0001  0.0000  0.0001  0.0001
  23.  C 2 (pz)     0.0001  0.0003  0.0002  0.0003  0.0002  0.0000 -0.0001  0.0001
  24.  C 2 (s)      0.0007 -0.0097 -0.0126  0.0026  0.0045 -0.0011 -0.0052  0.0050
  25.  C 2 (px)     0.0000  0.0000  0.0000  0.0000  0.0000  0.0000  0.0000  0.0000
  26.  C 2 (py)    -0.0010  0.0014  0.0024 -0.0004 -0.0013  0.0022  0.0047 -0.0054
  27.  C 2 (pz)    -0.0001  0.0002 -0.0003 -0.0014 -0.0017  0.0002  0.0004 -0.0002
  28.  C 2 (d5)     0.0001  0.0002  0.0001 -0.0003 -0.0002 -0.0001 -0.0004  0.0000
  29.  C 2 (d2)     0.0000  0.0000  0.0000  0.0000  0.0000  0.0000  0.0000  0.0000
  30.  C 2 (d3)    -0.0003  0.0002  0.0003 -0.0001 -0.0002  0.0003  0.0003 -0.0002
  31.  C 2 (d4)    -0.0002 -0.0002 -0.0003  0.0001  0.0002  0.0003  0.0002 -0.0004
  32.  C 2 (d1)     0.0000  0.0000  0.0000  0.0000  0.0000  0.0000  0.0000  0.0000
  33.  C 3 (s)      0.0000 -0.7041  0.7041 -0.0211  0.0206 -0.0001  0.0001  0.0001
  34.  C 3 (s)     -0.0001 -0.0174  0.0179 -0.0009  0.0010  0.0002 -0.0004 -0.0008
  35.  C 3 (px)     0.0000  0.0000  0.0000  0.0000  0.0000  0.0000  0.0000  0.0000
  36.  C 3 (py)     0.0000 -0.0004  0.0005 -0.0001  0.0001  0.0000  0.0001 -0.0001
  37.  C 3 (pz)     0.0001 -0.0003  0.0002  0.0003 -0.0002  0.0000  0.0001  0.0001
  38.  C 3 (s)      0.0007  0.0097 -0.0126  0.0026 -0.0045 -0.0011  0.0052  0.0050
  39.  C 3 (px)     0.0000  0.0000  0.0000  0.0000  0.0000  0.0000  0.0000  0.0000
  40.  C 3 (py)     0.0010  0.0014 -0.0024  0.0004 -0.0013 -0.0022  0.0047  0.0054
  41.  C 3 (pz)    -0.0001 -0.0002 -0.0003 -0.0014  0.0017  0.0002 -0.0004 -0.0002
  42.  C 3 (d5)     0.0001 -0.0002  0.0001 -0.0003  0.0002 -0.0001  0.0004  0.0000
  43.  C 3 (d2)     0.0000  0.0000  0.0000  0.0000  0.0000  0.0000  0.0000  0.0000
  44.  C 3 (d3)     0.0003  0.0002 -0.0003  0.0001 -0.0002 -0.0003  0.0003  0.0002
  45.  C 3 (d4)    -0.0002  0.0002 -0.0003  0.0001 -0.0002  0.0003 -0.0002 -0.0004
  46.  C 3 (d1)     0.0000  0.0000  0.0000  0.0000  0.0000  0.0000  0.0000  0.0000
  47.  C 4 (s)      0.0000  0.0203  0.0208  0.7040  0.7042  0.0000 -0.0001  0.0001
  48.  C 4 (s)      0.0002  0.0001 -0.0001  0.0171  0.0181 -0.0004 -0.0008  0.0003
  49.  C 4 (px)     0.0000  0.0000  0.0000  0.0000  0.0000  0.0000  0.0000  0.0000
  50.  C 4 (py)    -0.0001 -0.0001  0.0000  0.0001 -0.0004  0.0002  0.0001 -0.0002
  51.  C 4 (pz)     0.0000 -0.0003 -0.0002  0.0003  0.0003  0.0000  0.0000 -0.0002
  52.  C 4 (s)     -0.0005  0.0029  0.0028 -0.0078 -0.0154  0.0010  0.0097 -0.0026
  53.  C 4 (px)     0.0000  0.0000  0.0000  0.0000  0.0000  0.0000  0.0000  0.0000
  54.  C 4 (py)     0.0005  0.0003  0.0000 -0.0006  0.0024 -0.0011 -0.0053  0.0014
  55.  C 4 (pz)    -0.0007  0.0012  0.0017 -0.0010 -0.0024  0.0015  0.0049 -0.0025
  56.  C 4 (d5)     0.0000 -0.0002 -0.0002  0.0003  0.0001  0.0001  0.0000 -0.0002
  57.  C 4 (d2)     0.0000  0.0000  0.0000  0.0000  0.0000  0.0000  0.0000  0.0000
  58.  C 4 (d3)     0.0000 -0.0001 -0.0002  0.0000  0.0000  0.0000  0.0000  0.0001
  59.  C 4 (d4)     0.0000  0.0001  0.0000  0.0000 -0.0006  0.0000 -0.0002  0.0000
  60.  C 4 (d1)     0.0000  0.0000  0.0000  0.0000  0.0000  0.0000  0.0000  0.0000
  61.  C 5 (s)      0.0000 -0.0203  0.0208  0.7040 -0.7042  0.0000  0.0001  0.0001
  62.  C 5 (s)      0.0002 -0.0001 -0.0001  0.0171 -0.0181 -0.0004  0.0008  0.0003
  63.  C 5 (px)     0.0000  0.0000  0.0000  0.0000  0.0000  0.0000  0.0000  0.0000
  64.  C 5 (py)     0.0001 -0.0001  0.0000 -0.0001 -0.0004 -0.0002  0.0001  0.0002
  65.  C 5 (pz)     0.0000  0.0003 -0.0002  0.0003 -0.0003  0.0000  0.0000 -0.0002
  66.  C 5 (s)     -0.0005 -0.0029  0.0028 -0.0078  0.0154  0.0010 -0.0097 -0.0026
  67.  C 5 (px)     0.0000  0.0000  0.0000  0.0000  0.0000  0.0000  0.0000  0.0000
  68.  C 5 (py)    -0.0005  0.0003  0.0000  0.0006  0.0024  0.0011 -0.0053 -0.0014
  69.  C 5 (pz)    -0.0007 -0.0012  0.0017 -0.0010  0.0024  0.0015 -0.0049 -0.0025
  70.  C 5 (d5)     0.0000  0.0002 -0.0002  0.0003 -0.0001  0.0001  0.0000 -0.0002
  71.  C 5 (d2)     0.0000  0.0000  0.0000  0.0000  0.0000  0.0000  0.0000  0.0000
  72.  C 5 (d3)     0.0000 -0.0001  0.0002  0.0000  0.0000  0.0000  0.0000 -0.0001
  73.  C 5 (d4)     0.0000 -0.0001  0.0000  0.0000  0.0006  0.0000  0.0002  0.0000
  74.  C 5 (d1)     0.0000  0.0000  0.0000  0.0000  0.0000  0.0000  0.0000  0.0000
  75.  H 6 (s)      0.0001 -0.0003 -0.0003 -0.0001  0.0000 -0.0002 -0.0003  0.0001
  76.  H 6 (s)      0.0003  0.0011  0.0013  0.0000  0.0001 -0.0007 -0.0006  0.0023
  77.  H 7 (s)      0.0001  0.0003 -0.0003 -0.0001  0.0000 -0.0002  0.0003  0.0001
  78.  H 7 (s)      0.0003 -0.0011  0.0013  0.0000 -0.0001 -0.0007  0.0006  0.0023
  79.  H 8 (s)     -0.0001 -0.0001  0.0000 -0.0004 -0.0002  0.0001  0.0003 -0.0001
  80.  H 8 (s)     -0.0004  0.0000  0.0004  0.0015  0.0011  0.0008  0.0021 -0.0010
  81.  H 9 (s)     -0.0001  0.0001  0.0000 -0.0004  0.0002  0.0001 -0.0003 -0.0001
  82.  H 9 (s)     -0.0004  0.0000  0.0004  0.0015 -0.0011  0.0008 -0.0021 -0.0010

           AO          9      10      11      12      13      14      15      16
      ------------ ------- ------- ------- ------- ------- ------- ------- -------
   1.  S 1 (s)      0.0000  0.0359  0.0502  0.0000  0.0329  0.0000 -0.0160  0.0000
   2.  S 1 (s)      0.0000 -0.1649 -0.2312  0.0000 -0.1521  0.0000  0.0751  0.0000
   3.  S 1 (px)     0.9937  0.0000  0.0000  0.0000  0.0000  0.0000  0.0000  0.0000
   4.  S 1 (py)     0.0000  0.0000  0.0000 -0.0585  0.0000 -0.0942  0.0000  0.0405
   5.  S 1 (pz)     0.0000  0.0490  0.0249  0.0000 -0.0169  0.0000  0.0622  0.0000
   6.  S 1 (s)      0.0000  0.3304  0.4770  0.0000  0.3216  0.0000 -0.1565  0.0000
   7.  S 1 (px)     0.0209  0.0000  0.0000  0.0000  0.0000  0.0000  0.0000  0.0000
   8.  S 1 (py)     0.0000  0.0000  0.0000  0.1369  0.0000  0.2328  0.0000 -0.1041
   9.  S 1 (pz)     0.0000 -0.1085 -0.0582  0.0000  0.0456  0.0000 -0.1546  0.0000
  10.  S 1 (s)      0.0000  0.0435  0.1587  0.0000  0.1616  0.0000 -0.1305  0.0000
  11.  S 1 (px)    -0.0051  0.0000  0.0000  0.0000  0.0000  0.0000  0.0000  0.0000
  12.  S 1 (py)     0.0000  0.0000  0.0000 -0.0076  0.0000  0.0144  0.0000 -0.0089
  13.  S 1 (pz)     0.0000  0.0188  0.0038  0.0000  0.0186  0.0000 -0.0212  0.0000
  14.  S 1 (d5)     0.0000  0.0148  0.0021  0.0000  0.0034  0.0000  0.0244  0.0000
  15.  S 1 (d2)    -0.0004  0.0000  0.0000  0.0000  0.0000  0.0000  0.0000  0.0000
  16.  S 1 (d3)     0.0000  0.0000  0.0000 -0.0391  0.0000 -0.0441  0.0000  0.0335
  17.  S 1 (d4)     0.0000 -0.0154 -0.0171  0.0000  0.0046  0.0000  0.0043  0.0000
  18.  S 1 (d1)     0.0000  0.0000  0.0000  0.0000  0.0000  0.0000  0.0000  0.0000
  19.  C 2 (s)      0.0000 -0.0979 -0.0197 -0.1302  0.0917 -0.0521 -0.0046  0.0259
  20.  C 2 (s)      0.0000  0.1833  0.0387  0.2546 -0.1847  0.1031  0.0050 -0.0514
  21.  C 2 (px)    -0.0002  0.0000  0.0000  0.0000  0.0000  0.0000  0.0000  0.0000
  22.  C 2 (py)     0.0000 -0.0701 -0.0213 -0.0052 -0.1483  0.0561 -0.1746  0.2625
  23.  C 2 (pz)     0.0000 -0.0180  0.1339 -0.0521  0.0584  0.1904 -0.1026  0.1315
  24.  C 2 (s)      0.0000  0.1508  0.0460  0.2330 -0.1826  0.1078  0.0067 -0.0791
  25.  C 2 (px)     0.0003  0.0000  0.0000  0.0000  0.0000  0.0000  0.0000  0.0000
  26.  C 2 (py)     0.0000 -0.0257 -0.0036 -0.0009 -0.0742  0.0454 -0.0825  0.1410
  27.  C 2 (pz)     0.0000  0.0059  0.0339  0.0045  0.0025  0.0955 -0.0450  0.0583
  28.  C 2 (d5)     0.0000  0.0058 -0.0021  0.0073  0.0018 -0.0064  0.0005 -0.0104
  29.  C 2 (d2)    -0.0002  0.0000  0.0000  0.0000  0.0000  0.0000  0.0000  0.0000
  30.  C 2 (d3)     0.0000 -0.0002 -0.0147  0.0052 -0.0119 -0.0049  0.0027  0.0041
  31.  C 2 (d4)     0.0000 -0.0110 -0.0055 -0.0104  0.0100 -0.0113  0.0008 -0.0074
  32.  C 2 (d1)     0.0003  0.0000  0.0000  0.0000  0.0000  0.0000  0.0000  0.0000
  33.  C 3 (s)      0.0000 -0.0979 -0.0197  0.1302  0.0917  0.0521 -0.0046 -0.0259
  34.  C 3 (s)      0.0000  0.1833  0.0387 -0.2546 -0.1847 -0.1031  0.0050  0.0514
  35.  C 3 (px)    -0.0002  0.0000  0.0000  0.0000  0.0000  0.0000  0.0000  0.0000
  36.  C 3 (py)     0.0000  0.0701  0.0213 -0.0052  0.1483  0.0561  0.1746  0.2625
  37.  C 3 (pz)     0.0000 -0.0180  0.1339  0.0521  0.0584 -0.1904 -0.1026 -0.1315
  38.  C 3 (s)      0.0000  0.1508  0.0460 -0.2330 -0.1826 -0.1078  0.0067  0.0791
  39.  C 3 (px)     0.0003  0.0000  0.0000  0.0000  0.0000  0.0000  0.0000  0.0000
  40.  C 3 (py)     0.0000  0.0257  0.0036 -0.0009  0.0742  0.0454  0.0825  0.1410
  41.  C 3 (pz)     0.0000  0.0059  0.0339 -0.0045  0.0025 -0.0955 -0.0450 -0.0583
  42.  C 3 (d5)     0.0000  0.0058 -0.0021 -0.0073  0.0018  0.0064  0.0005  0.0104
  43.  C 3 (d2)    -0.0002  0.0000  0.0000  0.0000  0.0000  0.0000  0.0000  0.0000
  44.  C 3 (d3)     0.0000  0.0002  0.0147  0.0052  0.0119 -0.0049 -0.0027  0.0041
  45.  C 3 (d4)     0.0000 -0.0110 -0.0055  0.0104  0.0100  0.0113  0.0008  0.0074
  46.  C 3 (d1)    -0.0003  0.0000  0.0000  0.0000  0.0000  0.0000  0.0000  0.0000
  47.  C 4 (s)      0.0000 -0.0959  0.1121 -0.0822 -0.0337  0.0905  0.0155  0.0054
  48.  C 4 (s)      0.0000  0.1830 -0.2185  0.1601  0.0705 -0.1824 -0.0334 -0.0146
  49.  C 4 (px)     0.0000  0.0000  0.0000  0.0000  0.0000  0.0000  0.0000  0.0000
  50.  C 4 (py)     0.0000 -0.0390  0.0658  0.0932 -0.1586 -0.1162 -0.0896  0.0275
  51.  C 4 (pz)     0.0000  0.0638  0.0203  0.0757 -0.1216  0.0488  0.2445 -0.2426
  52.  C 4 (s)      0.0000  0.1090 -0.1728  0.1255  0.0568 -0.1356 -0.0731  0.0369
  53.  C 4 (px)     0.0002  0.0000  0.0000  0.0000  0.0000  0.0000  0.0000  0.0000
  54.  C 4 (py)     0.0000 -0.0030  0.0095  0.0235 -0.0356 -0.0549 -0.0412  0.0109
  55.  C 4 (pz)     0.0000  0.0034  0.0094 -0.0003 -0.0509  0.0738  0.0892 -0.0903
  56.  C 4 (d5)     0.0000  0.0058  0.0009  0.0135 -0.0055 -0.0112 -0.0008 -0.0056
  57.  C 4 (d2)     0.0000  0.0000  0.0000  0.0000  0.0000  0.0000  0.0000  0.0000
  58.  C 4 (d3)     0.0000 -0.0006  0.0027  0.0046 -0.0081  0.0099  0.0050 -0.0189
  59.  C 4 (d4)     0.0000 -0.0095  0.0133  0.0000 -0.0076  0.0019  0.0026 -0.0066
  60.  C 4 (d1)     0.0000  0.0000  0.0000  0.0000  0.0000  0.0000  0.0000  0.0000
  61.  C 5 (s)      0.0000 -0.0959  0.1121  0.0822 -0.0337 -0.0905  0.0155 -0.0054
  62.  C 5 (s)      0.0000  0.1830 -0.2185 -0.1601  0.0705  0.1824 -0.0334  0.0146
  63.  C 5 (px)     0.0000  0.0000  0.0000  0.0000  0.0000  0.0000  0.0000  0.0000
  64.  C 5 (py)     0.0000  0.0390 -0.0658  0.0932  0.1586 -0.1162  0.0896  0.0275
  65.  C 5 (pz)     0.0000  0.0638  0.0203 -0.0757 -0.1216 -0.0488  0.2445  0.2426
  66.  C 5 (s)      0.0000  0.1090 -0.1728 -0.1255  0.0568  0.1356 -0.0731 -0.0369
  67.  C 5 (px)     0.0002  0.0000  0.0000  0.0000  0.0000  0.0000  0.0000  0.0000
  68.  C 5 (py)     0.0000  0.0030 -0.0095  0.0235  0.0356 -0.0549  0.0412  0.0109
  69.  C 5 (pz)     0.0000  0.0034  0.0094  0.0003 -0.0509 -0.0738  0.0892  0.0903
  70.  C 5 (d5)     0.0000  0.0058  0.0009 -0.0135 -0.0055  0.0112 -0.0008  0.0056
  71.  C 5 (d2)     0.0000  0.0000  0.0000  0.0000  0.0000  0.0000  0.0000  0.0000
  72.  C 5 (d3)     0.0000  0.0006 -0.0027  0.0046  0.0081  0.0099 -0.0050 -0.0189
  73.  C 5 (d4)     0.0000 -0.0095  0.0133  0.0000 -0.0076 -0.0019  0.0026  0.0066
  74.  C 5 (d1)     0.0000  0.0000  0.0000  0.0000  0.0000  0.0000  0.0000  0.0000
  75.  H 6 (s)      0.0000  0.0348  0.0189  0.0862 -0.1483  0.1014 -0.1007  0.1549
  76.  H 6 (s)      0.0000  0.0051 -0.0003  0.0222 -0.0662  0.0405 -0.0502  0.1104
  77.  H 7 (s)      0.0000  0.0348  0.0189 -0.0862 -0.1483 -0.1014 -0.1007 -0.1549
  78.  H 7 (s)      0.0000  0.0051 -0.0003 -0.0222 -0.0662 -0.0405 -0.0502 -0.1104
  79.  H 8 (s)      0.0000  0.0321 -0.0708  0.0532  0.0369 -0.1366 -0.1521  0.1351
  80.  H 8 (s)      0.0000  0.0009 -0.0161  0.0085  0.0117 -0.0522 -0.0881  0.1080
  81.  H 9 (s)      0.0000  0.0321 -0.0708 -0.0532  0.0369  0.1366 -0.1521 -0.1351
  82.  H 9 (s)      0.0000  0.0009 -0.0161 -0.0085  0.0117  0.0522 -0.0881 -0.1080

           AO         17      18      19      20      21      22      23      24
      ------------ ------- ------- ------- ------- ------- ------- ------- -------
   1.  S 1 (s)      0.0099  0.0000  0.0000  0.0197  0.0000  0.0000  0.0000  0.0000
   2.  S 1 (s)     -0.0466  0.0000  0.0000 -0.0969  0.0000  0.0000  0.0000  0.0000
   3.  S 1 (px)     0.0000  0.0000 -0.1439  0.0000 -0.1996  0.0000  0.1022  0.0000
   4.  S 1 (py)     0.0000 -0.1653  0.0000  0.0000  0.0000  0.0000  0.0000 -0.1135
   5.  S 1 (pz)    -0.0073  0.0000  0.0000 -0.2180  0.0000  0.0000  0.0000  0.0000
   6.  S 1 (s)      0.0986  0.0000  0.0000  0.1870  0.0000  0.0000  0.0000  0.0000
   7.  S 1 (px)     0.0000  0.0000  0.3752  0.0000  0.5379  0.0000 -0.2836  0.0000
   8.  S 1 (py)     0.0000  0.4236  0.0000  0.0000  0.0000  0.0000  0.0000  0.2747
   9.  S 1 (pz)     0.0199  0.0000  0.0000  0.5724  0.0000  0.0000  0.0000  0.0000
  10.  S 1 (s)      0.0894  0.0000  0.0000  0.3283  0.0000  0.0000  0.0000  0.0000
  11.  S 1 (px)     0.0000  0.0000  0.1626  0.0000  0.3443  0.0000 -0.4478  0.0000
  12.  S 1 (py)     0.0000  0.0822  0.0000  0.0000  0.0000  0.0000  0.0000  1.3556
  13.  S 1 (pz)     0.0039  0.0000  0.0000  0.1875  0.0000  0.0000  0.0000  0.0000
  14.  S 1 (d5)     0.0134  0.0000  0.0000 -0.0140  0.0000  0.0000  0.0000  0.0000
  15.  S 1 (d2)     0.0000  0.0000 -0.0353  0.0000 -0.0066  0.0000 -0.0689  0.0000
  16.  S 1 (d3)     0.0000 -0.0671  0.0000  0.0000  0.0000  0.0000  0.0000  0.1427
  17.  S 1 (d4)     0.0128  0.0000  0.0000  0.0341  0.0000  0.0000  0.0000  0.0000
  18.  S 1 (d1)     0.0000  0.0000  0.0000  0.0000  0.0000  0.0554  0.0000  0.0000
  19.  C 2 (s)      0.0041  0.0122  0.0000  0.0179  0.0000  0.0000  0.0000  0.0727
  20.  C 2 (s)     -0.0042 -0.0295  0.0000 -0.0307  0.0000  0.0000  0.0000 -0.0824
  21.  C 2 (px)     0.0000  0.0000  0.2176  0.0000 -0.0326  0.3336  0.3071  0.0000
  22.  C 2 (py)    -0.1293 -0.1858  0.0000  0.1023  0.0000  0.0000  0.0000  0.0910
  23.  C 2 (pz)    -0.1648  0.2019  0.0000 -0.1790  0.0000  0.0000  0.0000 -0.1657
  24.  C 2 (s)     -0.0285  0.0252  0.0000 -0.1088  0.0000  0.0000  0.0000 -1.0396
  25.  C 2 (px)     0.0000  0.0000  0.1484  0.0000 -0.0268  0.3132  0.5598  0.0000
  26.  C 2 (py)    -0.0743 -0.1285  0.0000  0.0877  0.0000  0.0000  0.0000  0.0941
  27.  C 2 (pz)    -0.0867  0.1093  0.0000 -0.0899  0.0000  0.0000  0.0000 -0.4278
  28.  C 2 (d5)     0.0121  0.0094  0.0000  0.0053  0.0000  0.0000  0.0000  0.0146
  29.  C 2 (d2)     0.0000  0.0000 -0.0021  0.0000  0.0237 -0.0079  0.0044  0.0000
  30.  C 2 (d3)    -0.0089 -0.0215  0.0000  0.0173  0.0000  0.0000  0.0000  0.0045
  31.  C 2 (d4)     0.0111  0.0050  0.0000  0.0074  0.0000  0.0000  0.0000  0.0103
  32.  C 2 (d1)     0.0000  0.0000 -0.0149  0.0000 -0.0036 -0.0090  0.0058  0.0000
  33.  C 3 (s)      0.0041 -0.0122  0.0000  0.0179  0.0000  0.0000  0.0000 -0.0727
  34.  C 3 (s)     -0.0042  0.0295  0.0000 -0.0307  0.0000  0.0000  0.0000  0.0824
  35.  C 3 (px)     0.0000  0.0000  0.2176  0.0000 -0.0326 -0.3336  0.3071  0.0000
  36.  C 3 (py)     0.1293 -0.1858  0.0000 -0.1023  0.0000  0.0000  0.0000  0.0910
  37.  C 3 (pz)    -0.1648 -0.2019  0.0000 -0.1790  0.0000  0.0000  0.0000  0.1657
  38.  C 3 (s)     -0.0285 -0.0252  0.0000 -0.1088  0.0000  0.0000  0.0000  1.0396
  39.  C 3 (px)     0.0000  0.0000  0.1484  0.0000 -0.0268 -0.3132  0.5598  0.0000
  40.  C 3 (py)     0.0743 -0.1285  0.0000 -0.0877  0.0000  0.0000  0.0000  0.0941
  41.  C 3 (pz)    -0.0867 -0.1093  0.0000 -0.0899  0.0000  0.0000  0.0000  0.4278
  42.  C 3 (d5)     0.0121 -0.0094  0.0000  0.0053  0.0000  0.0000  0.0000 -0.0146
  43.  C 3 (d2)     0.0000  0.0000 -0.0021  0.0000  0.0237  0.0079  0.0044  0.0000
  44.  C 3 (d3)     0.0089 -0.0215  0.0000 -0.0173  0.0000  0.0000  0.0000  0.0045
  45.  C 3 (d4)     0.0111 -0.0050  0.0000  0.0074  0.0000  0.0000  0.0000 -0.0103
  46.  C 3 (d1)     0.0000  0.0000  0.0149  0.0000  0.0036 -0.0090 -0.0058  0.0000
  47.  C 4 (s)      0.0069 -0.0147  0.0000 -0.0224  0.0000  0.0000  0.0000 -0.0150
  48.  C 4 (s)     -0.0163  0.0298  0.0000  0.0486  0.0000  0.0000  0.0000  0.0355
  49.  C 4 (px)     0.0000  0.0000  0.2056  0.0000 -0.2574  0.2058 -0.1794  0.0000
  50.  C 4 (py)     0.3643  0.0088  0.0000 -0.0407  0.0000  0.0000  0.0000  0.0636
  51.  C 4 (pz)     0.0375 -0.1667  0.0000  0.1461  0.0000  0.0000  0.0000  0.0537
  52.  C 4 (s)     -0.0257  0.0176  0.0000  0.0669  0.0000  0.0000  0.0000 -0.0163
  53.  C 4 (px)     0.0000  0.0000  0.1249  0.0000 -0.2201  0.1749 -0.3116  0.0000
  54.  C 4 (py)     0.1556  0.0482  0.0000 -0.0233  0.0000  0.0000  0.0000  0.1684
  55.  C 4 (pz)    -0.0048 -0.1054  0.0000  0.0771  0.0000  0.0000  0.0000  0.0188
  56.  C 4 (d5)     0.0194  0.0064  0.0000 -0.0075  0.0000  0.0000  0.0000 -0.0085
  57.  C 4 (d2)     0.0000  0.0000  0.0128  0.0000 -0.0047  0.0170  0.0199  0.0000
  58.  C 4 (d3)    -0.0055 -0.0204  0.0000  0.0085  0.0000  0.0000  0.0000  0.0062
  59.  C 4 (d4)     0.0100  0.0007  0.0000 -0.0028  0.0000  0.0000  0.0000 -0.0036
  60.  C 4 (d1)     0.0000  0.0000 -0.0058  0.0000  0.0106  0.0154  0.0203  0.0000
  61.  C 5 (s)      0.0069  0.0147  0.0000 -0.0224  0.0000  0.0000  0.0000  0.0150
  62.  C 5 (s)     -0.0163 -0.0298  0.0000  0.0486  0.0000  0.0000  0.0000 -0.0355
  63.  C 5 (px)     0.0000  0.0000  0.2056  0.0000 -0.2574 -0.2058 -0.1794  0.0000
  64.  C 5 (py)    -0.3643  0.0088  0.0000  0.0407  0.0000  0.0000  0.0000  0.0636
  65.  C 5 (pz)     0.0375  0.1667  0.0000  0.1461  0.0000  0.0000  0.0000 -0.0537
  66.  C 5 (s)     -0.0257 -0.0176  0.0000  0.0669  0.0000  0.0000  0.0000  0.0163
  67.  C 5 (px)     0.0000  0.0000  0.1249  0.0000 -0.2201 -0.1749 -0.3116  0.0000
  68.  C 5 (py)    -0.1556  0.0482  0.0000  0.0233  0.0000  0.0000  0.0000  0.1684
  69.  C 5 (pz)    -0.0048  0.1054  0.0000  0.0771  0.0000  0.0000  0.0000 -0.0188
  70.  C 5 (d5)     0.0194 -0.0064  0.0000 -0.0075  0.0000  0.0000  0.0000  0.0085
  71.  C 5 (d2)     0.0000  0.0000  0.0128  0.0000 -0.0047 -0.0170  0.0199  0.0000
  72.  C 5 (d3)     0.0055 -0.0204  0.0000 -0.0085  0.0000  0.0000  0.0000  0.0062
  73.  C 5 (d4)     0.0100 -0.0007  0.0000 -0.0028  0.0000  0.0000  0.0000  0.0036
  74.  C 5 (d1)     0.0000  0.0000  0.0058  0.0000 -0.0106  0.0154 -0.0203  0.0000
  75.  H 6 (s)     -0.1218 -0.1063  0.0000  0.0163  0.0000  0.0000  0.0000 -0.0199
  76.  H 6 (s)     -0.0912 -0.0811  0.0000  0.0062  0.0000  0.0000  0.0000  0.2701
  77.  H 7 (s)     -0.1218  0.1063  0.0000  0.0163  0.0000  0.0000  0.0000  0.0199
  78.  H 7 (s)     -0.0912  0.0811  0.0000  0.0062  0.0000  0.0000  0.0000 -0.2701
  79.  H 8 (s)      0.1091  0.1213  0.0000 -0.0797  0.0000  0.0000  0.0000 -0.0374
  80.  H 8 (s)      0.0849  0.0868  0.0000 -0.0794  0.0000  0.0000  0.0000 -0.1995
  81.  H 9 (s)      0.1091 -0.1213  0.0000 -0.0797  0.0000  0.0000  0.0000  0.0374
  82.  H 9 (s)      0.0849 -0.0868  0.0000 -0.0794  0.0000  0.0000  0.0000  0.1995

           AO         25      26      27      28      29      30      31      32
      ------------ ------- ------- ------- ------- ------- ------- ------- -------
   1.  S 1 (s)      0.0000 -0.0044  0.0266  0.0000  0.0033  0.0000  0.0163  0.0000
   2.  S 1 (s)      0.0000  0.0258 -0.1580  0.0000 -0.0453  0.0000 -0.0048  0.0000
   3.  S 1 (px)     0.0000  0.0000  0.0000  0.0000  0.0000  0.0000  0.0000  0.0000
   4.  S 1 (py)     0.0000  0.0000  0.0000  0.0309  0.0000 -0.0321  0.0000  0.1419
   5.  S 1 (pz)     0.0000  0.0064  0.0667  0.0000 -0.0370  0.0000  0.0482  0.0000
   6.  S 1 (s)      0.0000 -0.0345  0.1874  0.0000 -0.0601  0.0000  0.4415  0.0000
   7.  S 1 (px)     0.0000  0.0000  0.0000  0.0000  0.0000  0.0000  0.0000  0.0000
   8.  S 1 (py)     0.0000  0.0000  0.0000 -0.1057  0.0000  0.1290  0.0000 -0.5442
   9.  S 1 (pz)     0.0000 -0.0401 -0.1607  0.0000  0.1265  0.0000 -0.1955  0.0000
  10.  S 1 (s)      0.0000 -0.3757  1.8796  0.0000  1.5663  0.0000 -1.0215  0.0000
  11.  S 1 (px)     0.0000  0.0000  0.0000  0.0000  0.0000  0.0000  0.0000  0.0000
  12.  S 1 (py)     0.0000  0.0000  0.0000  0.0379  0.0000  0.2528  0.0000  0.8118
  13.  S 1 (pz)     0.0000  0.5612 -1.5405  0.0000 -1.2103  0.0000  1.0651  0.0000
  14.  S 1 (d5)     0.0000  0.0678 -0.0257  0.0000 -0.0364  0.0000  0.1309  0.0000
  15.  S 1 (d2)     0.0000  0.0000  0.0000  0.0000  0.0000  0.0000  0.0000  0.0000
  16.  S 1 (d3)     0.0000  0.0000  0.0000 -0.0429  0.0000  0.0210  0.0000  0.0605
  17.  S 1 (d4)     0.0000  0.0217  0.1094  0.0000  0.0424  0.0000  0.0585  0.0000
  18.  S 1 (d1)    -0.0933  0.0000  0.0000  0.0000  0.0000  0.0000  0.0000  0.0000
  19.  C 2 (s)      0.0000  0.0345  0.0831  0.0281 -0.0180 -0.0233 -0.0674 -0.0108
  20.  C 2 (s)      0.0000 -0.0707 -0.0791 -0.0113  0.0545  0.0430  0.0119  0.0956
  21.  C 2 (px)    -0.1748  0.0000  0.0000  0.0000  0.0000  0.0000  0.0000  0.0000
  22.  C 2 (py)     0.0000 -0.1222  0.0619 -0.2336  0.1198  0.0898  0.0465  0.0249
  23.  C 2 (pz)     0.0000 -0.0211 -0.1422 -0.0170 -0.0267 -0.0497 -0.1264 -0.0432
  24.  C 2 (s)      0.0000 -0.3096 -1.3721 -0.8370  0.0356 -0.1289  2.2529 -0.4517
  25.  C 2 (px)    -0.4876  0.0000  0.0000  0.0000  0.0000  0.0000  0.0000  0.0000
  26.  C 2 (py)     0.0000 -0.6229  0.2639 -0.8829  1.1435  0.8455 -0.8285  0.9050
  27.  C 2 (pz)     0.0000 -0.2337 -0.7236 -0.2732 -0.3437  0.0909 -1.2291  0.2854
  28.  C 2 (d5)     0.0000 -0.0128 -0.0136 -0.0039 -0.0070 -0.0030 -0.0138 -0.0164
  29.  C 2 (d2)    -0.0327  0.0000  0.0000  0.0000  0.0000  0.0000  0.0000  0.0000
  30.  C 2 (d3)     0.0000  0.0086 -0.0091  0.0037  0.0075 -0.0133 -0.0176  0.0403
  31.  C 2 (d4)     0.0000 -0.0158  0.0048 -0.0011  0.0098  0.0011 -0.0334  0.0078
  32.  C 2 (d1)    -0.0012  0.0000  0.0000  0.0000  0.0000  0.0000  0.0000  0.0000
  33.  C 3 (s)      0.0000  0.0345  0.0831 -0.0281 -0.0180  0.0233 -0.0674  0.0108
  34.  C 3 (s)      0.0000 -0.0707 -0.0791  0.0113  0.0545 -0.0430  0.0119 -0.0956
  35.  C 3 (px)     0.1748  0.0000  0.0000  0.0000  0.0000  0.0000  0.0000  0.0000
  36.  C 3 (py)     0.0000  0.1222 -0.0619 -0.2336 -0.1198  0.0898 -0.0465  0.0249
  37.  C 3 (pz)     0.0000 -0.0211 -0.1422  0.0170 -0.0267  0.0497 -0.1264  0.0432
  38.  C 3 (s)      0.0000 -0.3096 -1.3721  0.8370  0.0356  0.1289  2.2529  0.4517
  39.  C 3 (px)     0.4876  0.0000  0.0000  0.0000  0.0000  0.0000  0.0000  0.0000
  40.  C 3 (py)     0.0000  0.6229 -0.2639 -0.8829 -1.1435  0.8455  0.8285  0.9050
  41.  C 3 (pz)     0.0000 -0.2337 -0.7236  0.2732 -0.3437 -0.0909 -1.2291 -0.2854
  42.  C 3 (d5)     0.0000 -0.0128 -0.0136  0.0039 -0.0070  0.0030 -0.0138  0.0164
  43.  C 3 (d2)     0.0327  0.0000  0.0000  0.0000  0.0000  0.0000  0.0000  0.0000
  44.  C 3 (d3)     0.0000 -0.0086  0.0091  0.0037 -0.0075 -0.0133  0.0176  0.0403
  45.  C 3 (d4)     0.0000 -0.0158  0.0048  0.0011  0.0098 -0.0011 -0.0334 -0.0078
  46.  C 3 (d1)    -0.0012  0.0000  0.0000  0.0000  0.0000  0.0000  0.0000  0.0000
  47.  C 4 (s)      0.0000  0.0396 -0.0051  0.0210  0.0478  0.0816  0.0483 -0.0730
  48.  C 4 (s)      0.0000 -0.0372  0.0121 -0.0049 -0.0568 -0.1435 -0.0126 -0.0070
  49.  C 4 (px)     0.3249  0.0000  0.0000  0.0000  0.0000  0.0000  0.0000  0.0000
  50.  C 4 (py)     0.0000 -0.0729 -0.0113 -0.0839 -0.1226 -0.0042 -0.0198 -0.1439
  51.  C 4 (pz)     0.0000  0.1128 -0.0516  0.0970  0.0957  0.1121 -0.1344  0.0422
  52.  C 4 (s)      0.0000 -0.8737 -0.0251 -0.7432 -1.0387 -0.6844 -1.7411  2.9786
  53.  C 4 (px)     0.7827  0.0000  0.0000  0.0000  0.0000  0.0000  0.0000  0.0000
  54.  C 4 (py)     0.0000 -0.2526  0.0664 -0.1459 -0.6741 -0.4358 -0.5168 -2.4778
  55.  C 4 (pz)     0.0000  0.2437 -0.2182  0.3892  0.4446  1.3037 -1.1727  0.7985
  56.  C 4 (d5)     0.0000  0.0055 -0.0107  0.0093 -0.0058 -0.0067  0.0043  0.0198
  57.  C 4 (d2)    -0.0065  0.0000  0.0000  0.0000  0.0000  0.0000  0.0000  0.0000
  58.  C 4 (d3)     0.0000 -0.0193  0.0054 -0.0004  0.0059  0.0105  0.0202  0.0009
  59.  C 4 (d4)     0.0000 -0.0003 -0.0004  0.0081  0.0043 -0.0122  0.0026 -0.0041
  60.  C 4 (d1)     0.0168  0.0000  0.0000  0.0000  0.0000  0.0000  0.0000  0.0000
  61.  C 5 (s)      0.0000  0.0396 -0.0051 -0.0210  0.0478 -0.0816  0.0483  0.0730
  62.  C 5 (s)      0.0000 -0.0372  0.0121  0.0049 -0.0568  0.1435 -0.0126  0.0070
  63.  C 5 (px)    -0.3249  0.0000  0.0000  0.0000  0.0000  0.0000  0.0000  0.0000
  64.  C 5 (py)     0.0000  0.0729  0.0113 -0.0839  0.1226 -0.0042  0.0198 -0.1439
  65.  C 5 (pz)     0.0000  0.1128 -0.0516 -0.0970  0.0957 -0.1121 -0.1344 -0.0422
  66.  C 5 (s)      0.0000 -0.8737 -0.0251  0.7432 -1.0387  0.6844 -1.7411 -2.9786
  67.  C 5 (px)    -0.7827  0.0000  0.0000  0.0000  0.0000  0.0000  0.0000  0.0000
  68.  C 5 (py)     0.0000  0.2526 -0.0664 -0.1459  0.6741 -0.4358  0.5168 -2.4778
  69.  C 5 (pz)     0.0000  0.2437 -0.2182 -0.3892  0.4446 -1.3037 -1.1727 -0.7985
  70.  C 5 (d5)     0.0000  0.0055 -0.0107 -0.0093 -0.0058  0.0067  0.0043 -0.0198
  71.  C 5 (d2)     0.0065  0.0000  0.0000  0.0000  0.0000  0.0000  0.0000  0.0000
  72.  C 5 (d3)     0.0000  0.0193 -0.0054 -0.0004 -0.0059  0.0105 -0.0202  0.0009
  73.  C 5 (d4)     0.0000 -0.0003 -0.0004 -0.0081  0.0043  0.0122  0.0026  0.0041
  74.  C 5 (d1)     0.0168  0.0000  0.0000  0.0000  0.0000  0.0000  0.0000  0.0000
  75.  H 6 (s)      0.0000  0.0491  0.0370  0.0061 -0.0034 -0.0351  0.0696  0.0645
  76.  H 6 (s)      0.0000  1.0622  0.5715  1.4963 -1.1542 -0.9327  0.1828 -0.7163
  77.  H 7 (s)      0.0000  0.0491  0.0370 -0.0061 -0.0034  0.0351  0.0696 -0.0645
  78.  H 7 (s)      0.0000  1.0622  0.5715 -1.4963 -1.1542  0.9327  0.1828  0.7163
  79.  H 8 (s)      0.0000  0.0429 -0.0371  0.0066 -0.0309 -0.0051 -0.0500  0.0342
  80.  H 8 (s)      0.0000  0.9602 -0.3714  0.8477  1.2407  1.6875 -0.2524  0.8809
  81.  H 9 (s)      0.0000  0.0429 -0.0371 -0.0066 -0.0309  0.0051 -0.0500 -0.0342
  82.  H 9 (s)      0.0000  0.9602 -0.3714 -0.8477  1.2407 -1.6875 -0.2524 -0.8809

           AO         33      34      35      36      37      38      39      40
      ------------ ------- ------- ------- ------- ------- ------- ------- -------
   1.  S 1 (s)     -0.0688  0.0000 -0.0088  0.0000  0.0000 -0.0099 -0.0008  0.0000
   2.  S 1 (s)      0.0762  0.0000  0.0120  0.0000  0.0000  0.0428 -0.0349  0.0000
   3.  S 1 (px)     0.0000  0.2826  0.0000  0.0000  0.0000  0.0000  0.0000  0.0176
   4.  S 1 (py)     0.0000  0.0000  0.0000  0.0534 -0.2771  0.0000  0.0000  0.0000
   5.  S 1 (pz)     0.0558  0.0000 -0.2268  0.0000  0.0000 -0.1855  0.0236  0.0000
   6.  S 1 (s)     -1.6898  0.0000 -0.2080  0.0000  0.0000 -0.1231 -0.1574  0.0000
   7.  S 1 (px)     0.0000 -1.1708  0.0000  0.0000  0.0000  0.0000  0.0000 -0.0823
   8.  S 1 (py)     0.0000  0.0000  0.0000 -0.1994  1.1219  0.0000  0.0000  0.0000
   9.  S 1 (pz)    -0.2261  0.0000  0.9466  0.0000  0.0000  0.7029 -0.0218  0.0000
  10.  S 1 (s)      2.8656  0.0000 -0.0175  0.0000  0.0000  0.2562 -0.1321  0.0000
  11.  S 1 (px)     0.0000  1.3794  0.0000  0.0000  0.0000  0.0000  0.0000  0.3258
  12.  S 1 (py)     0.0000  0.0000  0.0000 -1.0640 -1.2957  0.0000  0.0000  0.0000
  13.  S 1 (pz)    -0.4980  0.0000 -0.9223  0.0000  0.0000 -0.4465  0.0657  0.0000
  14.  S 1 (d5)    -0.0141  0.0000 -0.0513  0.0000  0.0000  0.2886  0.0629  0.0000
  15.  S 1 (d2)     0.0000  0.0992  0.0000  0.0000  0.0000  0.0000  0.0000  0.1710
  16.  S 1 (d3)     0.0000  0.0000  0.0000  0.0101  0.1332  0.0000  0.0000  0.0000
  17.  S 1 (d4)     0.1028  0.0000 -0.0389  0.0000  0.0000  0.0182  0.2846  0.0000
  18.  S 1 (d1)     0.0000  0.0000  0.0000  0.0000  0.0000  0.0000  0.0000  0.0000
  19.  C 2 (s)     -0.0053  0.0000 -0.0289  0.0624  0.0430 -0.0298  0.0251  0.0000
  20.  C 2 (s)     -0.0290  0.0000  0.1317  0.0581 -0.0003 -0.0286  0.0406  0.0000
  21.  C 2 (px)     0.0000 -0.0463  0.0000  0.0000  0.0000  0.0000  0.0000  0.4104
  22.  C 2 (py)    -0.0540  0.0000 -0.2046  0.0216  0.1197 -0.0634  0.3070  0.0000
  23.  C 2 (pz)    -0.0063  0.0000 -0.1287  0.1050 -0.1957  0.3856 -0.1509  0.0000
  24.  C 2 (s)     -0.2597  0.0000  0.2193 -2.9379 -0.3123 -0.0480 -0.1761  0.0000
  25.  C 2 (px)     0.0000 -0.1564  0.0000  0.0000  0.0000  0.0000  0.0000 -0.3359
  26.  C 2 (py)     0.2929  0.0000 -0.2944  0.8938  0.5116 -0.2062 -0.3562  0.0000
  27.  C 2 (pz)    -0.5221  0.0000  0.0036  2.7989  0.5331 -0.5694  0.3313  0.0000
  28.  C 2 (d5)    -0.0227  0.0000  0.0194  0.0214  0.0237 -0.0698 -0.0383  0.0000
  29.  C 2 (d2)     0.0000 -0.0150  0.0000  0.0000  0.0000  0.0000  0.0000 -0.0400
  30.  C 2 (d3)     0.0216  0.0000  0.0394  0.0181 -0.0105  0.0162  0.0590  0.0000
  31.  C 2 (d4)     0.0378  0.0000  0.0408  0.0038 -0.0365 -0.0039 -0.0590  0.0000
  32.  C 2 (d1)     0.0000  0.0286  0.0000  0.0000  0.0000  0.0000  0.0000  0.0040
  33.  C 3 (s)     -0.0053  0.0000 -0.0289 -0.0624 -0.0430 -0.0298  0.0251  0.0000
  34.  C 3 (s)     -0.0290  0.0000  0.1317 -0.0581  0.0003 -0.0286  0.0406  0.0000
  35.  C 3 (px)     0.0000 -0.0463  0.0000  0.0000  0.0000  0.0000  0.0000  0.4104
  36.  C 3 (py)     0.0540  0.0000  0.2046  0.0216  0.1197  0.0634 -0.3070  0.0000
  37.  C 3 (pz)    -0.0063  0.0000 -0.1287 -0.1050  0.1957  0.3856 -0.1509  0.0000
  38.  C 3 (s)     -0.2597  0.0000  0.2193  2.9379  0.3123 -0.0480 -0.1761  0.0000
  39.  C 3 (px)     0.0000 -0.1564  0.0000  0.0000  0.0000  0.0000  0.0000 -0.3359
  40.  C 3 (py)    -0.2929  0.0000  0.2944  0.8938  0.5116  0.2062  0.3562  0.0000
  41.  C 3 (pz)    -0.5221  0.0000  0.0036 -2.7989 -0.5331 -0.5694  0.3313  0.0000
  42.  C 3 (d5)    -0.0227  0.0000  0.0194 -0.0214 -0.0237 -0.0698 -0.0383  0.0000
  43.  C 3 (d2)     0.0000 -0.0150  0.0000  0.0000  0.0000  0.0000  0.0000 -0.0400
  44.  C 3 (d3)    -0.0216  0.0000 -0.0394  0.0181 -0.0105 -0.0162 -0.0590  0.0000
  45.  C 3 (d4)     0.0378  0.0000  0.0408 -0.0038  0.0365 -0.0039 -0.0590  0.0000
  46.  C 3 (d1)     0.0000 -0.0286  0.0000  0.0000  0.0000  0.0000  0.0000 -0.0040
  47.  C 4 (s)      0.0162  0.0000  0.0224 -0.0546 -0.0511  0.0086 -0.0053  0.0000
  48.  C 4 (s)     -0.1237  0.0000 -0.0638  0.0305  0.1196 -0.1979  0.2210  0.0000
  49.  C 4 (px)     0.0000 -0.0511  0.0000  0.0000  0.0000  0.0000  0.0000  0.6097
  50.  C 4 (py)     0.0577  0.0000  0.2109  0.1932 -0.0503 -0.0974  0.1949  0.0000
  51.  C 4 (pz)    -0.0891  0.0000  0.1039  0.2006  0.1159 -0.2911  0.0377  0.0000
  52.  C 4 (s)     -0.2612  0.0000 -0.3525  2.4889  1.7584 -0.0500 -0.1691  0.0000
  53.  C 4 (px)     0.0000  0.0149  0.0000  0.0000  0.0000  0.0000  0.0000 -0.4945
  54.  C 4 (py)    -0.2030  0.0000 -0.3118  1.2403 -1.2428  0.1895 -0.2126  0.0000
  55.  C 4 (pz)    -0.2535  0.0000 -0.7169  2.9990  0.5892  0.1724  0.1499  0.0000
  56.  C 4 (d5)     0.0084  0.0000  0.0406 -0.0032  0.0107 -0.0034  0.0352  0.0000
  57.  C 4 (d2)     0.0000  0.0045  0.0000  0.0000  0.0000  0.0000  0.0000  0.0397
  58.  C 4 (d3)     0.0026  0.0000  0.0071  0.0069  0.0127 -0.0550 -0.0627  0.0000
  59.  C 4 (d4)     0.0178  0.0000  0.0326 -0.0163 -0.0019  0.0094 -0.0070  0.0000
  60.  C 4 (d1)     0.0000 -0.0001  0.0000  0.0000  0.0000  0.0000  0.0000 -0.0252
  61.  C 5 (s)      0.0162  0.0000  0.0224  0.0546  0.0511  0.0086 -0.0053  0.0000
  62.  C 5 (s)     -0.1237  0.0000 -0.0638 -0.0305 -0.1196 -0.1979  0.2210  0.0000
  63.  C 5 (px)     0.0000 -0.0511  0.0000  0.0000  0.0000  0.0000  0.0000  0.6097
  64.  C 5 (py)    -0.0577  0.0000 -0.2109  0.1932 -0.0503  0.0974 -0.1949  0.0000
  65.  C 5 (pz)    -0.0891  0.0000  0.1039 -0.2006 -0.1159 -0.2911  0.0377  0.0000
  66.  C 5 (s)     -0.2612  0.0000 -0.3525 -2.4889 -1.7584 -0.0500 -0.1691  0.0000
  67.  C 5 (px)     0.0000  0.0149  0.0000  0.0000  0.0000  0.0000  0.0000 -0.4945
  68.  C 5 (py)     0.2030  0.0000  0.3118  1.2403 -1.2428 -0.1895  0.2126  0.0000
  69.  C 5 (pz)    -0.2535  0.0000 -0.7169 -2.9990 -0.5892  0.1724  0.1499  0.0000
  70.  C 5 (d5)     0.0084  0.0000  0.0406  0.0032 -0.0107 -0.0034  0.0352  0.0000
  71.  C 5 (d2)     0.0000  0.0045  0.0000  0.0000  0.0000  0.0000  0.0000  0.0397
  72.  C 5 (d3)    -0.0026  0.0000 -0.0071  0.0069  0.0127  0.0550  0.0627  0.0000
  73.  C 5 (d4)     0.0178  0.0000  0.0326  0.0163  0.0019  0.0094 -0.0070  0.0000
  74.  C 5 (d1)     0.0000  0.0001  0.0000  0.0000  0.0000  0.0000  0.0000  0.0252
  75.  H 6 (s)     -0.0762  0.0000 -0.0494  0.0239  0.1784  0.0698  0.3914  0.0000
  76.  H 6 (s)     -0.0836  0.0000  0.4147 -0.3936 -0.1543  0.0862 -0.1858  0.0000
  77.  H 7 (s)     -0.0762  0.0000 -0.0494 -0.0239 -0.1784  0.0698  0.3914  0.0000
  78.  H 7 (s)     -0.0836  0.0000  0.4147  0.3936  0.1543  0.0862 -0.1858  0.0000
  79.  H 8 (s)     -0.0037  0.0000 -0.0095 -0.0386 -0.0189  0.1712  0.3257  0.0000
  80.  H 8 (s)     -0.1659  0.0000 -0.2863  0.6690  0.5510 -0.2215 -0.0258  0.0000
  81.  H 9 (s)     -0.0037  0.0000 -0.0095  0.0386  0.0189  0.1712  0.3257  0.0000
  82.  H 9 (s)     -0.1659  0.0000 -0.2863 -0.6690 -0.5510 -0.2215 -0.0258  0.0000

           AO         41      42      43      44      45      46      47      48
      ------------ ------- ------- ------- ------- ------- ------- ------- -------
   1.  S 1 (s)      0.0000  0.0000  0.0090  0.0000  0.0000  0.0000  0.0000  0.0000
   2.  S 1 (s)      0.0000  0.0000 -0.0023  0.0000  0.0000  0.0000  0.0000  0.0000
   3.  S 1 (px)     0.0000  0.0000  0.0000 -0.0015  0.0000  0.0000 -0.0503  0.0000
   4.  S 1 (py)     0.0000 -0.0261  0.0000  0.0000  0.0000  0.0121  0.0000  0.0000
   5.  S 1 (pz)     0.0000  0.0000  0.0393  0.0000  0.0000  0.0000  0.0000  0.0000
   6.  S 1 (s)      0.0000  0.0000  0.2488  0.0000  0.0000  0.0000  0.0000  0.0000
   7.  S 1 (px)     0.0000  0.0000  0.0000 -0.0068  0.0000  0.0000  0.2084  0.0000
   8.  S 1 (py)     0.0000  0.1545  0.0000  0.0000  0.0000  0.0613  0.0000  0.0000
   9.  S 1 (pz)     0.0000  0.0000 -0.1810  0.0000  0.0000  0.0000  0.0000  0.0000
  10.  S 1 (s)      0.0000  0.0000 -0.2905  0.0000  0.0000  0.0000  0.0000  0.0000
  11.  S 1 (px)     0.0000  0.0000  0.0000 -0.3871  0.0000  0.0000 -0.4528  0.0000
  12.  S 1 (py)     0.0000 -0.0746  0.0000  0.0000  0.0000  1.3928  0.0000  0.0000
  13.  S 1 (pz)     0.0000  0.0000  0.2851  0.0000  0.0000  0.0000  0.0000  0.0000
  14.  S 1 (d5)     0.0000  0.0000  0.0979  0.0000  0.0000  0.0000  0.0000  0.0000
  15.  S 1 (d2)     0.0000  0.0000  0.0000 -0.1552  0.0000  0.0000  0.9191  0.0000
  16.  S 1 (d3)     0.0000 -0.0183  0.0000  0.0000  0.0000 -0.2501  0.0000  0.0000
  17.  S 1 (d4)     0.0000  0.0000 -0.0240  0.0000  0.0000  0.0000  0.0000  0.0000
  18.  S 1 (d1)    -0.1298  0.0000  0.0000  0.0000 -0.3090  0.0000  0.0000  0.8986
  19.  C 2 (s)      0.0000  0.0206  0.0461  0.0000  0.0000  0.0546  0.0000  0.0000
  20.  C 2 (s)      0.0000 -0.4326 -0.2802  0.0000  0.0000  0.5292  0.0000  0.0000
  21.  C 2 (px)     0.7003  0.0000  0.0000 -0.6548  0.2929  0.0000 -0.1769  0.1917
  22.  C 2 (py)     0.0000  0.0030  0.1356  0.0000  0.0000 -0.3299  0.0000  0.0000
  23.  C 2 (pz)     0.0000  0.3374  0.2844  0.0000  0.0000  0.3772  0.0000  0.0000
  24.  C 2 (s)      0.0000 -0.4334 -0.0777  0.0000  0.0000 -0.9086  0.0000  0.0000
  25.  C 2 (px)    -0.6998  0.0000  0.0000  0.9142 -0.4934  0.0000  0.4548 -0.5592
  26.  C 2 (py)     0.0000  0.6838  0.1588  0.0000  0.0000  0.8054  0.0000  0.0000
  27.  C 2 (pz)     0.0000  0.0921  0.0684  0.0000  0.0000 -1.1162  0.0000  0.0000
  28.  C 2 (d5)     0.0000 -0.0191  0.0160  0.0000  0.0000 -0.0046  0.0000  0.0000
  29.  C 2 (d2)    -0.0378  0.0000  0.0000 -0.0077 -0.0041  0.0000 -0.0695  0.1057
  30.  C 2 (d3)     0.0000 -0.0057  0.0189  0.0000  0.0000  0.0358  0.0000  0.0000
  31.  C 2 (d4)     0.0000  0.0251 -0.0242  0.0000  0.0000 -0.1486  0.0000  0.0000
  32.  C 2 (d1)    -0.0333  0.0000  0.0000 -0.0122  0.0448  0.0000  0.1329 -0.0967
  33.  C 3 (s)      0.0000 -0.0206  0.0461  0.0000  0.0000 -0.0546  0.0000  0.0000
  34.  C 3 (s)      0.0000  0.4326 -0.2802  0.0000  0.0000 -0.5292  0.0000  0.0000
  35.  C 3 (px)    -0.7003  0.0000  0.0000 -0.6548 -0.2929  0.0000 -0.1769 -0.1917
  36.  C 3 (py)     0.0000  0.0030 -0.1356  0.0000  0.0000 -0.3299  0.0000  0.0000
  37.  C 3 (pz)     0.0000 -0.3374  0.2844  0.0000  0.0000 -0.3772  0.0000  0.0000
  38.  C 3 (s)      0.0000  0.4334 -0.0777  0.0000  0.0000  0.9086  0.0000  0.0000
  39.  C 3 (px)     0.6998  0.0000  0.0000  0.9142  0.4934  0.0000  0.4548  0.5592
  40.  C 3 (py)     0.0000  0.6838 -0.1588  0.0000  0.0000  0.8054  0.0000  0.0000
  41.  C 3 (pz)     0.0000 -0.0921  0.0684  0.0000  0.0000  1.1162  0.0000  0.0000
  42.  C 3 (d5)     0.0000  0.0191  0.0160  0.0000  0.0000  0.0046  0.0000  0.0000
  43.  C 3 (d2)     0.0378  0.0000  0.0000 -0.0077  0.0041  0.0000 -0.0695 -0.1057
  44.  C 3 (d3)     0.0000 -0.0057 -0.0189  0.0000  0.0000  0.0358  0.0000  0.0000
  45.  C 3 (d4)     0.0000 -0.0251 -0.0242  0.0000  0.0000  0.1486  0.0000  0.0000
  46.  C 3 (d1)    -0.0333  0.0000  0.0000  0.0122  0.0448  0.0000 -0.1329 -0.0967
  47.  C 4 (s)      0.0000 -0.1002 -0.0504  0.0000  0.0000 -0.0049  0.0000  0.0000
  48.  C 4 (s)      0.0000 -0.0954 -0.6387  0.0000  0.0000  0.3351  0.0000  0.0000
  49.  C 4 (px)     0.2743  0.0000  0.0000  0.4499 -0.7254  0.0000 -0.0440 -0.1943
  50.  C 4 (py)     0.0000 -0.4485  0.3820  0.0000  0.0000 -0.0545  0.0000  0.0000
  51.  C 4 (pz)     0.0000 -0.1147  0.2084  0.0000  0.0000  0.2127  0.0000  0.0000
  52.  C 4 (s)      0.0000  1.6466  0.9845  0.0000  0.0000 -0.9525  0.0000  0.0000
  53.  C 4 (px)    -0.2991  0.0000  0.0000 -0.6068  1.1594  0.0000 -0.0646  0.6034
  54.  C 4 (py)     0.0000 -0.3535 -0.2930  0.0000  0.0000  0.1785  0.0000  0.0000
  55.  C 4 (pz)     0.0000  1.2002  0.1260  0.0000  0.0000 -0.4492  0.0000  0.0000
  56.  C 4 (d5)     0.0000 -0.0289 -0.0643  0.0000  0.0000  0.0239  0.0000  0.0000
  57.  C 4 (d2)     0.0570  0.0000  0.0000 -0.0056  0.0044  0.0000  0.0064 -0.0204
  58.  C 4 (d3)     0.0000 -0.0002 -0.0247  0.0000  0.0000 -0.0493  0.0000  0.0000
  59.  C 4 (d4)     0.0000  0.0963  0.1014  0.0000  0.0000  0.0119  0.0000  0.0000
  60.  C 4 (d1)     0.0121  0.0000  0.0000 -0.0519 -0.0090  0.0000  0.0406 -0.0088
  61.  C 5 (s)      0.0000  0.1002 -0.0504  0.0000  0.0000  0.0049  0.0000  0.0000
  62.  C 5 (s)      0.0000  0.0954 -0.6387  0.0000  0.0000 -0.3351  0.0000  0.0000
  63.  C 5 (px)    -0.2743  0.0000  0.0000  0.4499  0.7254  0.0000 -0.0440  0.1943
  64.  C 5 (py)     0.0000 -0.4485 -0.3820  0.0000  0.0000 -0.0545  0.0000  0.0000
  65.  C 5 (pz)     0.0000  0.1147  0.2084  0.0000  0.0000 -0.2127  0.0000  0.0000
  66.  C 5 (s)      0.0000 -1.6466  0.9845  0.0000  0.0000  0.9525  0.0000  0.0000
  67.  C 5 (px)     0.2991  0.0000  0.0000 -0.6068 -1.1594  0.0000 -0.0646 -0.6034
  68.  C 5 (py)     0.0000 -0.3535  0.2930  0.0000  0.0000  0.1785  0.0000  0.0000
  69.  C 5 (pz)     0.0000 -1.2002  0.1260  0.0000  0.0000  0.4492  0.0000  0.0000
  70.  C 5 (d5)     0.0000  0.0289 -0.0643  0.0000  0.0000 -0.0239  0.0000  0.0000
  71.  C 5 (d2)    -0.0570  0.0000  0.0000 -0.0056 -0.0044  0.0000  0.0064  0.0204
  72.  C 5 (d3)     0.0000 -0.0002  0.0247  0.0000  0.0000 -0.0493  0.0000  0.0000
  73.  C 5 (d4)     0.0000 -0.0963  0.1014  0.0000  0.0000 -0.0119  0.0000  0.0000
  74.  C 5 (d1)     0.0121  0.0000  0.0000  0.0519 -0.0090  0.0000 -0.0406 -0.0088
  75.  H 6 (s)      0.0000 -0.0888  0.1539  0.0000  0.0000  0.4885  0.0000  0.0000
  76.  H 6 (s)      0.0000 -0.3596 -0.2414  0.0000  0.0000 -0.6826  0.0000  0.0000
  77.  H 7 (s)      0.0000  0.0888  0.1539  0.0000  0.0000 -0.4885  0.0000  0.0000
  78.  H 7 (s)      0.0000  0.3596 -0.2414  0.0000  0.0000  0.6826  0.0000  0.0000
  79.  H 8 (s)      0.0000 -0.3648 -0.3016  0.0000  0.0000  0.0547  0.0000  0.0000
  80.  H 8 (s)      0.0000  0.6066  0.0638  0.0000  0.0000 -0.2269  0.0000  0.0000
  81.  H 9 (s)      0.0000  0.3648 -0.3016  0.0000  0.0000 -0.0547  0.0000  0.0000
  82.  H 9 (s)      0.0000 -0.6066  0.0638  0.0000  0.0000  0.2269  0.0000  0.0000

           AO         49      50      51      52      53      54      55      56
      ------------ ------- ------- ------- ------- ------- ------- ------- -------
   1.  S 1 (s)      0.0108  0.0000 -0.0050  0.0000  0.0000 -0.0029 -0.0029  0.0000
   2.  S 1 (s)      0.0041  0.0000  0.0089  0.0000  0.0000  0.0070  0.0132  0.0000
   3.  S 1 (px)     0.0000  0.0000  0.0000  0.0000  0.0000  0.0000  0.0000  0.0000
   4.  S 1 (py)     0.0000  0.0133  0.0000 -0.0167 -0.0076  0.0000  0.0000  0.0041
   5.  S 1 (pz)     0.0155  0.0000  0.0119  0.0000  0.0000 -0.0430 -0.0179  0.0000
   6.  S 1 (s)      0.3143  0.0000 -0.0918  0.0000  0.0000 -0.0588 -0.0360  0.0000
   7.  S 1 (px)     0.0000  0.0000  0.0000  0.0000  0.0000  0.0000  0.0000  0.0000
   8.  S 1 (py)     0.0000 -0.1334  0.0000  0.1406  0.0441  0.0000  0.0000 -0.0375
   9.  S 1 (pz)    -0.0421  0.0000 -0.1887  0.0000  0.0000  0.2331  0.0649  0.0000
  10.  S 1 (s)     -1.3954  0.0000  2.1573  0.0000  0.0000 -0.6680 -0.5201  0.0000
  11.  S 1 (px)     0.0000  0.0000  0.0000  0.0000  0.0000  0.0000  0.0000  0.0000
  12.  S 1 (py)     0.0000 -0.7641  0.0000 -0.3412  0.1532  0.0000  0.0000 -0.1127
  13.  S 1 (pz)     0.3927  0.0000 -1.0115  0.0000  0.0000  0.2253  0.0169  0.0000
  14.  S 1 (d5)     0.2951  0.0000  0.1820  0.0000  0.0000 -0.0125  0.2410  0.0000
  15.  S 1 (d2)     0.0000  0.0000  0.0000  0.0000  0.0000  0.0000  0.0000  0.0000
  16.  S 1 (d3)     0.0000  0.2447  0.0000 -0.1460 -0.0492  0.0000  0.0000  0.7303
  17.  S 1 (d4)    -0.0421  0.0000 -0.1001  0.0000  0.0000  0.3512  0.6637  0.0000
  18.  S 1 (d1)     0.0000  0.0000  0.0000  0.0000  0.0000  0.0000  0.0000  0.0000
  19.  C 2 (s)     -0.0009 -0.0021  0.0388  0.0163  0.0102 -0.0199 -0.0037 -0.0413
  20.  C 2 (s)     -0.3098 -0.3010  0.1892 -0.3708 -0.8115  0.5655  0.2704 -0.3043
  21.  C 2 (px)     0.0000  0.0000  0.0000  0.0000  0.0000  0.0000  0.0000  0.0000
  22.  C 2 (py)     0.0073 -0.2527 -0.4857 -0.6119 -0.1924  0.4506 -0.3450 -0.0289
  23.  C 2 (pz)    -0.5557 -0.3040  0.1373 -0.3089  0.1930  0.1435 -0.0589  0.3376
  24.  C 2 (s)     -0.3314  1.1139 -0.8461 -0.5106  2.8137 -1.1767 -0.7957  0.2694
  25.  C 2 (px)     0.0000  0.0000  0.0000  0.0000  0.0000  0.0000  0.0000  0.0000
  26.  C 2 (py)     0.6312  0.0502  1.6861  2.5108  0.5185 -1.0943  0.0516 -0.8739
  27.  C 2 (pz)     1.6340  1.0088 -0.4325  1.2209 -1.1479  0.1975  1.1040 -0.4924
  28.  C 2 (d5)    -0.1031 -0.0718  0.0299 -0.0594  0.0557  0.0312 -0.0718 -0.0946
  29.  C 2 (d2)     0.0000  0.0000  0.0000  0.0000  0.0000  0.0000  0.0000  0.0000
  30.  C 2 (d3)    -0.0496  0.0766 -0.0047 -0.0656  0.0222 -0.0182  0.0500  0.1045
  31.  C 2 (d4)     0.0062 -0.0251 -0.0523 -0.0204  0.0293  0.0843 -0.0468  0.0584
  32.  C 2 (d1)     0.0000  0.0000  0.0000  0.0000  0.0000  0.0000  0.0000  0.0000
  33.  C 3 (s)     -0.0009  0.0021  0.0388 -0.0163 -0.0102 -0.0199 -0.0037  0.0413
  34.  C 3 (s)     -0.3098  0.3010  0.1892  0.3708  0.8115  0.5655  0.2704  0.3043
  35.  C 3 (px)     0.0000  0.0000  0.0000  0.0000  0.0000  0.0000  0.0000  0.0000
  36.  C 3 (py)    -0.0073 -0.2527  0.4857 -0.6119 -0.1924 -0.4506  0.3450 -0.0289
  37.  C 3 (pz)    -0.5557  0.3040  0.1373  0.3089 -0.1930  0.1435 -0.0589 -0.3376
  38.  C 3 (s)     -0.3314 -1.1139 -0.8461  0.5106 -2.8137 -1.1767 -0.7957 -0.2694
  39.  C 3 (px)     0.0000  0.0000  0.0000  0.0000  0.0000  0.0000  0.0000  0.0000
  40.  C 3 (py)    -0.6312  0.0502 -1.6861  2.5108  0.5185  1.0943 -0.0516 -0.8739
  41.  C 3 (pz)     1.6340 -1.0088 -0.4325 -1.2209  1.1479  0.1975  1.1040  0.4924
  42.  C 3 (d5)    -0.1031  0.0718  0.0299  0.0594 -0.0557  0.0312 -0.0718  0.0946
  43.  C 3 (d2)     0.0000  0.0000  0.0000  0.0000  0.0000  0.0000  0.0000  0.0000
  44.  C 3 (d3)     0.0496  0.0766  0.0047 -0.0656  0.0222  0.0182 -0.0500  0.1045
  45.  C 3 (d4)     0.0062  0.0251 -0.0523  0.0204 -0.0293  0.0843 -0.0468 -0.0584
  46.  C 3 (d1)     0.0000  0.0000  0.0000  0.0000  0.0000  0.0000  0.0000  0.0000
  47.  C 4 (s)     -0.0100  0.0394 -0.0272 -0.0032 -0.0036 -0.0179 -0.0075  0.0091
  48.  C 4 (s)     -0.4923 -0.1986  0.7246  0.0749 -0.5572  0.3193 -0.3372  0.0162
  49.  C 4 (px)     0.0000  0.0000  0.0000  0.0000  0.0000  0.0000  0.0000  0.0000
  50.  C 4 (py)     0.0552 -0.5520  0.3519  0.1920  0.4329  0.1365 -0.3089  0.1902
  51.  C 4 (pz)    -0.4793  0.3216 -0.2605 -0.5002  0.4918 -0.2321  0.1858 -0.2310
  52.  C 4 (s)      1.5108 -0.8664 -1.2912  2.1551  1.6174 -0.2389  2.1086 -1.0273
  53.  C 4 (px)     0.0000  0.0000  0.0000  0.0000  0.0000  0.0000  0.0000  0.0000
  54.  C 4 (py)    -0.0319  2.4302 -1.0485 -1.3989 -2.3478  0.1713  1.2278 -0.1171
  55.  C 4 (pz)     1.4338 -1.3267  0.9177  2.5251 -2.1738  0.3675 -0.1594  1.1579
  56.  C 4 (d5)     0.0302  0.0969 -0.0019  0.0473 -0.1118 -0.0741  0.0110 -0.0174
  57.  C 4 (d2)     0.0000  0.0000  0.0000  0.0000  0.0000  0.0000  0.0000  0.0000
  58.  C 4 (d3)     0.1138 -0.0277  0.0697  0.0008 -0.0165  0.1158  0.0666 -0.0818
  59.  C 4 (d4)     0.0395  0.0471 -0.0010 -0.0377 -0.0405  0.0126 -0.0127  0.0058
  60.  C 4 (d1)     0.0000  0.0000  0.0000  0.0000  0.0000  0.0000  0.0000  0.0000
  61.  C 5 (s)     -0.0100 -0.0394 -0.0272  0.0032  0.0036 -0.0179 -0.0075 -0.0091
  62.  C 5 (s)     -0.4923  0.1986  0.7246 -0.0749  0.5572  0.3193 -0.3372 -0.0162
  63.  C 5 (px)     0.0000  0.0000  0.0000  0.0000  0.0000  0.0000  0.0000  0.0000
  64.  C 5 (py)    -0.0552 -0.5520 -0.3519  0.1920  0.4329 -0.1365  0.3089  0.1902
  65.  C 5 (pz)    -0.4793 -0.3216 -0.2605  0.5002 -0.4918 -0.2321  0.1858  0.2310
  66.  C 5 (s)      1.5108  0.8664 -1.2912 -2.1551 -1.6174 -0.2389  2.1086  1.0273
  67.  C 5 (px)     0.0000  0.0000  0.0000  0.0000  0.0000  0.0000  0.0000  0.0000
  68.  C 5 (py)     0.0319  2.4302  1.0485 -1.3989 -2.3478 -0.1713 -1.2278 -0.1171
  69.  C 5 (pz)     1.4338  1.3267  0.9177 -2.5251  2.1738  0.3675 -0.1594 -1.1579
  70.  C 5 (d5)     0.0302 -0.0969 -0.0019 -0.0473  0.1118 -0.0741  0.0110  0.0174
  71.  C 5 (d2)     0.0000  0.0000  0.0000  0.0000  0.0000  0.0000  0.0000  0.0000
  72.  C 5 (d3)    -0.1138 -0.0277 -0.0697  0.0008 -0.0165 -0.1158 -0.0666 -0.0818
  73.  C 5 (d4)     0.0395 -0.0471 -0.0010  0.0377  0.0405  0.0126 -0.0127 -0.0058
  74.  C 5 (d1)     0.0000  0.0000  0.0000  0.0000  0.0000  0.0000  0.0000  0.0000
  75.  H 6 (s)     -0.0452  0.0838  0.2998  0.1212  0.0314 -0.3157  0.2756  0.2670
  76.  H 6 (s)     -0.5996 -0.5634 -0.9749 -1.6553 -0.6067  1.1954 -0.3341  0.3344
  77.  H 7 (s)     -0.0452 -0.0838  0.2998 -0.1212 -0.0314 -0.3157  0.2756 -0.2670
  78.  H 7 (s)     -0.5996  0.5634 -0.9749  1.6553  0.6067  1.1954 -0.3341 -0.3344
  79.  H 8 (s)     -0.1217  0.2888 -0.2487 -0.0397 -0.0497 -0.3937 -0.2320  0.2583
  80.  H 8 (s)      0.6987 -1.5886  1.2865  1.2972 -0.5151  0.6477 -0.6839  0.5692
  81.  H 9 (s)     -0.1217 -0.2888 -0.2487  0.0397  0.0497 -0.3937 -0.2320 -0.2583
  82.  H 9 (s)      0.6987  1.5886  1.2865 -1.2972  0.5151  0.6477 -0.6839 -0.5692

           AO         57      58      59      60      61      62      63      64
      ------------ ------- ------- ------- ------- ------- ------- ------- -------
   1.  S 1 (s)      0.0180 -0.0105  0.0000  0.0000 -0.0184  0.0000  0.0000  0.0000
   2.  S 1 (s)      0.0539 -0.0406  0.0000  0.0000  0.0017  0.0000  0.0000  0.0000
   3.  S 1 (px)     0.0000  0.0000  0.0000  0.0000  0.0000 -0.0091 -0.0010  0.0000
   4.  S 1 (py)     0.0000  0.0000  0.0089  0.0107  0.0000  0.0000  0.0000 -0.0834
   5.  S 1 (pz)    -0.0020  0.0074  0.0000  0.0000 -0.1002  0.0000  0.0000  0.0000
   6.  S 1 (s)      0.6887 -0.4559  0.0000  0.0000 -0.5745  0.0000  0.0000  0.0000
   7.  S 1 (px)     0.0000  0.0000  0.0000  0.0000  0.0000  0.0207 -0.0106  0.0000
   8.  S 1 (py)     0.0000  0.0000 -0.1339  0.1150  0.0000  0.0000  0.0000  0.6216
   9.  S 1 (pz)     0.0474  0.0747  0.0000  0.0000  0.6894  0.0000  0.0000  0.0000
  10.  S 1 (s)     -2.6793  0.7743  0.0000  0.0000 -2.2052  0.0000  0.0000  0.0000
  11.  S 1 (px)     0.0000  0.0000  0.0000  0.0000  0.0000  0.1018  0.0903  0.0000
  12.  S 1 (py)     0.0000  0.0000 -0.0001 -0.3043  0.0000  0.0000  0.0000  0.0049
  13.  S 1 (pz)     1.3640 -0.6901  0.0000  0.0000  1.0673  0.0000  0.0000  0.0000
  14.  S 1 (d5)    -0.1202  0.8509  0.0000  0.0000 -0.3218  0.0000  0.0000  0.0000
  15.  S 1 (d2)     0.0000  0.0000  0.0000  0.0000  0.0000 -0.1012 -0.1414  0.0000
  16.  S 1 (d3)     0.0000  0.0000 -0.0941  0.5236  0.0000  0.0000  0.0000 -0.2498
  17.  S 1 (d4)     0.5697 -0.1518  0.0000  0.0000 -0.2132  0.0000  0.0000  0.0000
  18.  S 1 (d1)     0.0000  0.0000  0.0000  0.0000  0.0000  0.0000  0.0000  0.0000
  19.  C 2 (s)     -0.0510  0.0187  0.0118 -0.0146 -0.0278  0.0000  0.0000  0.0359
  20.  C 2 (s)     -1.1538 -0.2722  0.2210  0.8653 -0.8964  0.0000  0.0000  0.6308
  21.  C 2 (px)     0.0000  0.0000  0.0000  0.0000  0.0000 -0.0841  0.0227  0.0000
  22.  C 2 (py)    -0.1436  0.2214  0.1310 -0.4481  0.2224  0.0000  0.0000 -0.1129
  23.  C 2 (pz)     0.0947 -0.0391 -0.2389  0.0725 -0.1030  0.0000  0.0000  0.2359
  24.  C 2 (s)      3.8773  0.4629 -1.9640 -0.9014  2.8837  0.0000  0.0000 -5.0910
  25.  C 2 (px)     0.0000  0.0000  0.0000  0.0000  0.0000 -0.0977 -0.0321  0.0000
  26.  C 2 (py)    -0.0236 -0.0158 -0.9622  1.3070 -2.6680  0.0000  0.0000  3.4050
  27.  C 2 (pz)    -0.1435  0.0010  0.9091  0.5232 -0.2691  0.0000  0.0000  1.5927
  28.  C 2 (d5)    -0.0221  0.0317 -0.1102  0.0447 -0.0183  0.0000  0.0000 -0.0150
  29.  C 2 (d2)     0.0000  0.0000  0.0000  0.0000  0.0000 -0.3401  0.0571  0.0000
  30.  C 2 (d3)     0.0493  0.0022 -0.0465  0.0205  0.0747  0.0000  0.0000 -0.1361
  31.  C 2 (d4)     0.0969 -0.0422 -0.0414  0.0073  0.0068  0.0000  0.0000  0.0067
  32.  C 2 (d1)     0.0000  0.0000  0.0000  0.0000  0.0000 -0.1670  0.2404  0.0000
  33.  C 3 (s)     -0.0510  0.0187 -0.0118  0.0146 -0.0278  0.0000  0.0000 -0.0359
  34.  C 3 (s)     -1.1538 -0.2722 -0.2210 -0.8653 -0.8964  0.0000  0.0000 -0.6308
  35.  C 3 (px)     0.0000  0.0000  0.0000  0.0000  0.0000 -0.0841  0.0227  0.0000
  36.  C 3 (py)     0.1436 -0.2214  0.1310 -0.4481 -0.2224  0.0000  0.0000 -0.1129
  37.  C 3 (pz)     0.0947 -0.0391  0.2389 -0.0725 -0.1030  0.0000  0.0000 -0.2359
  38.  C 3 (s)      3.8773  0.4629  1.9640  0.9014  2.8837  0.0000  0.0000  5.0910
  39.  C 3 (px)     0.0000  0.0000  0.0000  0.0000  0.0000 -0.0977 -0.0321  0.0000
  40.  C 3 (py)     0.0236  0.0158 -0.9622  1.3070  2.6680  0.0000  0.0000  3.4050
  41.  C 3 (pz)    -0.1435  0.0010 -0.9091 -0.5232 -0.2691  0.0000  0.0000 -1.5927
  42.  C 3 (d5)    -0.0221  0.0317  0.1102 -0.0447 -0.0183  0.0000  0.0000  0.0150
  43.  C 3 (d2)     0.0000  0.0000  0.0000  0.0000  0.0000 -0.3401  0.0571  0.0000
  44.  C 3 (d3)    -0.0493 -0.0022 -0.0465  0.0205 -0.0747  0.0000  0.0000 -0.1361
  45.  C 3 (d4)     0.0969 -0.0422  0.0414 -0.0073  0.0068  0.0000  0.0000 -0.0067
  46.  C 3 (d1)     0.0000  0.0000  0.0000  0.0000  0.0000  0.1670 -0.2404  0.0000
  47.  C 4 (s)      0.0017  0.0051 -0.0206 -0.0010  0.0209  0.0000  0.0000 -0.0757
  48.  C 4 (s)      0.4224  0.4337 -1.1403 -0.3821  0.4355  0.0000  0.0000 -1.1929
  49.  C 4 (px)     0.0000  0.0000  0.0000  0.0000  0.0000 -0.0166  0.1507  0.0000
  50.  C 4 (py)     0.1504 -0.0256  0.0196  0.0973 -0.2462  0.0000  0.0000 -0.0597
  51.  C 4 (pz)    -0.0174  0.3579 -0.2016  0.0008 -0.0558  0.0000  0.0000 -0.0937
  52.  C 4 (s)     -1.7196 -0.4404  3.0048  2.2202 -1.1546  0.0000  0.0000  8.9038
  53.  C 4 (px)     0.0000  0.0000  0.0000  0.0000  0.0000  0.0435 -0.0193  0.0000
  54.  C 4 (py)    -0.7271  0.1938  0.5387 -0.3562  1.1870  0.0000  0.0000 -3.4042
  55.  C 4 (pz)    -0.3219 -0.7561  0.8391 -0.6249 -1.6049  0.0000  0.0000  5.1516
  56.  C 4 (d5)    -0.0217 -0.0351 -0.0554  0.0265 -0.0489  0.0000  0.0000 -0.0062
  57.  C 4 (d2)     0.0000  0.0000  0.0000  0.0000  0.0000  0.3099 -0.3656  0.0000
  58.  C 4 (d3)    -0.0788 -0.0174  0.0369  0.0627  0.0049  0.0000  0.0000 -0.0662
  59.  C 4 (d4)     0.0021 -0.0931  0.0104 -0.0152 -0.1108  0.0000  0.0000 -0.0098
  60.  C 4 (d1)     0.0000  0.0000  0.0000  0.0000  0.0000  0.3627  0.4590  0.0000
  61.  C 5 (s)      0.0017  0.0051  0.0206  0.0010  0.0209  0.0000  0.0000  0.0757
  62.  C 5 (s)      0.4224  0.4337  1.1403  0.3821  0.4355  0.0000  0.0000  1.1929
  63.  C 5 (px)     0.0000  0.0000  0.0000  0.0000  0.0000 -0.0166  0.1507  0.0000
  64.  C 5 (py)    -0.1504  0.0256  0.0196  0.0973  0.2462  0.0000  0.0000 -0.0597
  65.  C 5 (pz)    -0.0174  0.3579  0.2016 -0.0008 -0.0558  0.0000  0.0000  0.0937
  66.  C 5 (s)     -1.7196 -0.4404 -3.0048 -2.2202 -1.1546  0.0000  0.0000 -8.9038
  67.  C 5 (px)     0.0000  0.0000  0.0000  0.0000  0.0000  0.0435 -0.0193  0.0000
  68.  C 5 (py)     0.7271 -0.1938  0.5387 -0.3562 -1.1870  0.0000  0.0000 -3.4042
  69.  C 5 (pz)    -0.3219 -0.7561 -0.8391  0.6249 -1.6049  0.0000  0.0000 -5.1516
  70.  C 5 (d5)    -0.0217 -0.0351  0.0554 -0.0265 -0.0489  0.0000  0.0000  0.0062
  71.  C 5 (d2)     0.0000  0.0000  0.0000  0.0000  0.0000  0.3099 -0.3656  0.0000
  72.  C 5 (d3)     0.0788  0.0174  0.0369  0.0627 -0.0049  0.0000  0.0000 -0.0662
  73.  C 5 (d4)     0.0021 -0.0931 -0.0104  0.0152 -0.1108  0.0000  0.0000  0.0098
  74.  C 5 (d1)     0.0000  0.0000  0.0000  0.0000  0.0000 -0.3627 -0.4590  0.0000
  75.  H 6 (s)     -0.2864 -0.2444  0.5426 -0.2515  0.4510  0.0000  0.0000 -0.3703
  76.  H 6 (s)     -0.5279  0.0012  0.4123 -0.3606  0.6941  0.0000  0.0000 -0.8792
  77.  H 7 (s)     -0.2864 -0.2444 -0.5426  0.2515  0.4510  0.0000  0.0000  0.3703
  78.  H 7 (s)     -0.5279  0.0012 -0.4123  0.3606  0.6941  0.0000  0.0000  0.8792
  79.  H 8 (s)      0.0654 -0.0150 -0.2727 -0.4594 -0.4897  0.0000  0.0000  0.6726
  80.  H 8 (s)      0.3101 -0.3636 -0.2007 -0.3159 -0.6046  0.0000  0.0000  1.4025
  81.  H 9 (s)      0.0654 -0.0150  0.2727  0.4594 -0.4897  0.0000  0.0000 -0.6726
  82.  H 9 (s)      0.3101 -0.3636  0.2007  0.3159 -0.6046  0.0000  0.0000 -1.4025

           AO         65      66      67      68      69      70      71      72
      ------------ ------- ------- ------- ------- ------- ------- ------- -------
   1.  S 1 (s)      0.0000  0.0000  0.0033  0.0000  0.0093  0.0078  0.0000  0.0000
   2.  S 1 (s)      0.0000  0.0000 -0.0055  0.0000 -0.0778 -0.0200  0.0000  0.0000
   3.  S 1 (px)     0.0000  0.0000  0.0000 -0.0410  0.0000  0.0000  0.0000  0.0000
   4.  S 1 (py)     0.0000  0.0000  0.0000  0.0000  0.0000  0.0000  0.0442 -0.0289
   5.  S 1 (pz)     0.0000  0.0000  0.0076  0.0000  0.0717  0.0349  0.0000  0.0000
   6.  S 1 (s)      0.0000  0.0000  0.0844  0.0000  0.0145  0.1596  0.0000  0.0000
   7.  S 1 (px)     0.0000  0.0000  0.0000  0.1256  0.0000  0.0000  0.0000  0.0000
   8.  S 1 (py)     0.0000  0.0000  0.0000  0.0000  0.0000  0.0000 -0.1772  0.1307
   9.  S 1 (pz)     0.0000  0.0000 -0.0770  0.0000 -0.2988 -0.1358  0.0000  0.0000
  10.  S 1 (s)      0.0000  0.0000  0.2362  0.0000  0.8538 -0.0551  0.0000  0.0000
  11.  S 1 (px)     0.0000  0.0000  0.0000  0.1667  0.0000  0.0000  0.0000  0.0000
  12.  S 1 (py)     0.0000  0.0000  0.0000  0.0000  0.0000  0.0000  0.2675  0.1674
  13.  S 1 (pz)     0.0000  0.0000 -0.1857  0.0000 -0.3668  0.1251  0.0000  0.0000
  14.  S 1 (d5)     0.0000  0.0000 -0.0313  0.0000  0.1483  0.0510  0.0000  0.0000
  15.  S 1 (d2)     0.0000  0.0000  0.0000 -0.3523  0.0000  0.0000  0.0000  0.0000
  16.  S 1 (d3)     0.0000  0.0000  0.0000  0.0000  0.0000  0.0000  0.1120 -0.1699
  17.  S 1 (d4)     0.0000  0.0000  0.0065  0.0000 -0.2747 -0.0417  0.0000  0.0000
  18.  S 1 (d1)     0.0755  0.3489  0.0000  0.0000  0.0000  0.0000  0.0000  0.0000
  19.  C 2 (s)      0.0000  0.0000 -0.0074  0.0000  0.0197  0.0075  0.0014 -0.0153
  20.  C 2 (s)      0.0000  0.0000  0.1484  0.0000  0.2213 -0.3907 -0.0261 -0.3831
  21.  C 2 (px)    -0.1397  0.0263  0.0000  0.0302  0.0000  0.0000  0.0000  0.0000
  22.  C 2 (py)     0.0000  0.0000  0.0663  0.0000  0.0573  0.1647 -0.1603  0.1850
  23.  C 2 (pz)     0.0000  0.0000 -0.0226  0.0000 -0.0797  0.2814  0.0629  0.1643
  24.  C 2 (s)      0.0000  0.0000 -0.3838  0.0000 -0.3959  0.1465 -0.0246 -0.1876
  25.  C 2 (px)     0.0843 -0.0933  0.0000 -0.1731  0.0000  0.0000  0.0000  0.0000
  26.  C 2 (py)     0.0000  0.0000  0.4211  0.0000 -0.0835 -0.0826 -0.3683 -0.1951
  27.  C 2 (pz)     0.0000  0.0000  0.2262  0.0000 -0.3116 -0.2915 -0.3793 -0.4181
  28.  C 2 (d5)     0.0000  0.0000 -0.0956  0.0000 -0.2580  0.2367  0.4491  0.3634
  29.  C 2 (d2)    -0.3666 -0.3631  0.0000 -0.3260  0.0000  0.0000  0.0000  0.0000
[...]
                                         0.0000 -0.2023  0.0304  0.0776
  62. (0.00284) RY ( 2) C  4            s(  0.17%)p99.99( 99.14%)d 4.12(  0.69%)
                                         0.0000  0.0018  0.0409  0.0000  0.0000
                                         0.0465 -0.7666  0.0303 -0.6330  0.0000
                                         0.0000  0.0215  0.0566  0.0570
  63. (0.00093) RY ( 3) C  4            s(  0.00%)p 1.00( 68.67%)d 0.46( 31.33%)
                                         0.0000  0.0000  0.0000  0.0279  0.8282
                                         0.0000  0.0000  0.0000  0.0000 -0.5532
                                        -0.0853  0.0000  0.0000  0.0000
  64. (0.00077) RY ( 4) C  4            s(  0.00%)p 1.00( 26.57%)d 2.76( 73.43%)
                                         0.0000  0.0000  0.0000 -0.0049  0.5154
                                         0.0000  0.0000  0.0000  0.0000  0.6939
                                         0.5028  0.0000  0.0000  0.0000
  65. (0.00019) RY ( 5) C  4            s( 60.55%)p 0.13(  7.72%)d 0.52( 31.73%)
                                         0.0000 -0.0156  0.7780  0.0000  0.0000
                                        -0.0160  0.2187 -0.0235 -0.1690  0.0000
                                         0.0000 -0.1815  0.0731  0.5282
  66. (0.00007) RY ( 6) C  4            s(  1.59%)p 1.60(  2.53%)d60.49( 95.88%)
  67. (0.00002) RY ( 7) C  4            s( 32.46%)p 0.01(  0.22%)d 2.07( 67.32%)
  68. (0.00001) RY ( 8) C  4            s(  0.26%)p 2.42(  0.62%)d99.99( 99.12%)
  69. (0.00000) RY ( 9) C  4            s(  0.00%)p 1.00(  4.89%)d19.46( 95.11%)
  70. (0.00542) RY ( 1) C  5            s(  5.10%)p17.66( 90.11%)d 0.94(  4.79%)
                                         0.0000  0.0123  0.2256  0.0000  0.0000
                                         0.0203  0.5957  0.0222  0.7384  0.0000
                                         0.0000  0.2023  0.0304  0.0776
  71. (0.00284) RY ( 2) C  5            s(  0.17%)p99.99( 99.14%)d 4.12(  0.69%)
                                         0.0000  0.0018  0.0409  0.0000  0.0000
                                        -0.0465  0.7666  0.0303 -0.6330  0.0000
                                         0.0000 -0.0215  0.0566  0.0570
  72. (0.00093) RY ( 3) C  5            s(  0.00%)p 1.00( 68.67%)d 0.46( 31.33%)
                                         0.0000  0.0000  0.0000  0.0279  0.8282
                                         0.0000  0.0000  0.0000  0.0000  0.5532
                                        -0.0853  0.0000  0.0000  0.0000
  73. (0.00077) RY ( 4) C  5            s(  0.00%)p 1.00( 26.57%)d 2.76( 73.43%)
                                         0.0000  0.0000  0.0000  0.0049 -0.5154
                                         0.0000  0.0000  0.0000  0.0000  0.6939
                                        -0.5028  0.0000  0.0000  0.0000
  74. (0.00019) RY ( 5) C  5            s( 60.55%)p 0.13(  7.72%)d 0.52( 31.73%)
                                         0.0000 -0.0156  0.7780  0.0000  0.0000
                                         0.0160 -0.2187 -0.0235 -0.1690  0.0000
                                         0.0000  0.1815  0.0731  0.5282
  75. (0.00007) RY ( 6) C  5            s(  1.59%)p 1.60(  2.53%)d60.49( 95.88%)
  76. (0.00002) RY ( 7) C  5            s( 32.46%)p 0.01(  0.22%)d 2.07( 67.32%)
  77. (0.00001) RY ( 8) C  5            s(  0.26%)p 2.42(  0.62%)d99.99( 99.12%)
  78. (0.00000) RY ( 9) C  5            s(  0.00%)p 1.00(  4.89%)d19.46( 95.11%)
  79. (0.00035) RY ( 1) H  6            s(100.00%)
                                        -0.0019  1.0000
  80. (0.00035) RY ( 1) H  7            s(100.00%)
                                        -0.0019  1.0000
  81. (0.00039) RY ( 1) H  8            s(100.00%)
                                        -0.0009  1.0000
  82. (0.00039) RY ( 1) H  9            s(100.00%)
                                        -0.0009  1.0000


 NHO DIRECTIONALITY AND BOND BENDING (deviation from line of nuclear centers at
                                      the position of maximum hybrid amplitude)

         [Thresholds for printing:  angular deviation  >  1.0 degree]
                                    p- or d-character  > 25.0%
                                    orbital occupancy  >  0.10e

                        Line of Centers        Hybrid 1             Hybrid 2
                        ---------------  -------------------  ------------------
           NBO            Theta   Phi    Theta   Phi    Dev   Theta   Phi    Dev
 ===============================================================================
  10. LP ( 1) S  1          --     --      0.0    0.0   --      --     --    --
  11. LP ( 2) S  1          --     --     93.7  180.0   --      --     --    --
  12. BD ( 1) S  1- C  2  134.0   90.0   127.5   90.0   6.5    41.5  270.0   4.5
  13. BD ( 1) S  1- C  3  134.0  270.0   127.5  270.0   6.5    41.5   90.0   4.5
  14. BD ( 1) C  2- C  4  157.6  270.0   160.6  270.0   3.1    25.7   90.0   3.2
  15. BD ( 2) C  2- C  4  157.6  270.0    90.9  181.0  88.8    88.6  179.8  88.6
  17. BD ( 1) C  3- C  5  157.6   90.0   160.6   90.0   3.1    25.7  270.0   3.2
  18. BD ( 2) C  3- C  5  157.6   90.0    90.9    1.0  88.8    88.6  359.8  88.6
  20. BD ( 1) C  4- C  5   90.0  270.0    94.2  270.0   4.2    94.2   90.0   4.2


 SECOND ORDER PERTURBATION THEORY ANALYSIS OF FOCK MATRIX IN NBO BASIS

     Threshold for printing:   0.50 kcal/mol
                                                          E(2) E(NL)-E(L) F(L,NL)
      Donor (L) NBO              Acceptor (NL) NBO      kcal/mol   a.u.    a.u.
 ===============================================================================

 within unit  1
   10. LP ( 1) S  1            25. BD*( 1) C  2- C  4      2.24    1.53   0.052
   10. LP ( 1) S  1            28. BD*( 1) C  3- C  5      2.24    1.53   0.052
   11. LP ( 2) S  1            26. BD*( 2) C  2- C  4     41.89    0.48   0.127
   11. LP ( 2) S  1            29. BD*( 2) C  3- C  5     41.89    0.48   0.127
   11. LP ( 2) S  1            35. RY ( 2) S  1            1.61    0.96   0.035
   11. LP ( 2) S  1            46. RY ( 4) C  2            2.17    1.67   0.054
   11. LP ( 2) S  1            55. RY ( 4) C  3            2.17    1.67   0.054
   12. BD ( 1) S  1- C  2      24. BD*( 1) S  1- C  3      0.65    1.24   0.025
   12. BD ( 1) S  1- C  2      28. BD*( 1) C  3- C  5      0.94    1.64   0.035
   12. BD ( 1) S  1- C  2      30. BD*( 1) C  3- H  7      2.95    1.53   0.060
   12. BD ( 1) S  1- C  2      31. BD*( 1) C  4- C  5      0.61    1.59   0.028
   12. BD ( 1) S  1- C  2      32. BD*( 1) C  4- H  8      4.38    1.52   0.073
   12. BD ( 1) S  1- C  2      52. RY ( 1) C  3            1.25    2.22   0.047
   12. BD ( 1) S  1- C  2      54. RY ( 3) C  3            0.71    1.64   0.030
   12. BD ( 1) S  1- C  2      61. RY ( 1) C  4            1.63    2.16   0.053
   12. BD ( 1) S  1- C  2      62. RY ( 2) C  4            1.41    1.63   0.043
   13. BD ( 1) S  1- C  3      23. BD*( 1) S  1- C  2      0.65    1.24   0.025
   13. BD ( 1) S  1- C  3      25. BD*( 1) C  2- C  4      0.94    1.64   0.035
   13. BD ( 1) S  1- C  3      27. BD*( 1) C  2- H  6      2.95    1.53   0.060
   13. BD ( 1) S  1- C  3      31. BD*( 1) C  4- C  5      0.61    1.59   0.028
   13. BD ( 1) S  1- C  3      33. BD*( 1) C  5- H  9      4.38    1.52   0.073
   13. BD ( 1) S  1- C  3      43. RY ( 1) C  2            1.25    2.22   0.047
   13. BD ( 1) S  1- C  3      45. RY ( 3) C  2            0.71    1.64   0.030
   13. BD ( 1) S  1- C  3      70. RY ( 1) C  5            1.63    2.16   0.053
   13. BD ( 1) S  1- C  3      71. RY ( 2) C  5            1.41    1.63   0.043
   14. BD ( 1) C  2- C  4      24. BD*( 1) S  1- C  3      0.58    1.32   0.025
   14. BD ( 1) C  2- C  4      27. BD*( 1) C  2- H  6      2.77    1.61   0.060
   14. BD ( 1) C  2- C  4      31. BD*( 1) C  4- C  5      2.30    1.67   0.055
   14. BD ( 1) C  2- C  4      32. BD*( 1) C  4- H  8      2.37    1.60   0.055
   14. BD ( 1) C  2- C  4      33. BD*( 1) C  5- H  9      2.80    1.60   0.060
   14. BD ( 1) C  2- C  4      36. RY ( 3) S  1            0.60    1.61   0.028
   14. BD ( 1) C  2- C  4      70. RY ( 1) C  5            1.59    2.23   0.053
   14. BD ( 1) C  2- C  4      71. RY ( 2) C  5            1.41    1.70   0.044
   15. BD ( 2) C  2- C  4      29. BD*( 2) C  3- C  5     31.40    0.53   0.116
   15. BD ( 2) C  2- C  4      34. RY ( 1) S  1            1.57    1.47   0.043
   15. BD ( 2) C  2- C  4      35. RY ( 2) S  1            2.84    1.01   0.048
   15. BD ( 2) C  2- C  4      72. RY ( 3) C  5            2.35    1.61   0.055
   16. BD ( 1) C  2- H  6      24. BD*( 1) S  1- C  3      0.83    1.18   0.028
   16. BD ( 1) C  2- H  6      25. BD*( 1) C  2- C  4      2.04    1.59   0.051
   16. BD ( 1) C  2- H  6      31. BD*( 1) C  4- C  5      2.69    1.54   0.057
   16. BD ( 1) C  2- H  6      61. RY ( 1) C  4            1.55    2.10   0.051
   17. BD ( 1) C  3- C  5      23. BD*( 1) S  1- C  2      0.58    1.32   0.025
   17. BD ( 1) C  3- C  5      30. BD*( 1) C  3- H  7      2.77    1.61   0.060
   17. BD ( 1) C  3- C  5      31. BD*( 1) C  4- C  5      2.30    1.67   0.055
   17. BD ( 1) C  3- C  5      32. BD*( 1) C  4- H  8      2.80    1.60   0.060
   17. BD ( 1) C  3- C  5      33. BD*( 1) C  5- H  9      2.37    1.60   0.055
   17. BD ( 1) C  3- C  5      36. RY ( 3) S  1            0.60    1.61   0.028
   17. BD ( 1) C  3- C  5      61. RY ( 1) C  4            1.59    2.23   0.053
   17. BD ( 1) C  3- C  5      62. RY ( 2) C  4            1.41    1.70   0.044
   18. BD ( 2) C  3- C  5      26. BD*( 2) C  2- C  4     31.40    0.53   0.116
   18. BD ( 2) C  3- C  5      34. RY ( 1) S  1            1.57    1.47   0.043
   18. BD ( 2) C  3- C  5      35. RY ( 2) S  1            2.84    1.01   0.048
   18. BD ( 2) C  3- C  5      63. RY ( 3) C  4            2.35    1.61   0.055
   19. BD ( 1) C  3- H  7      23. BD*( 1) S  1- C  2      0.83    1.18   0.028
   19. BD ( 1) C  3- H  7      28. BD*( 1) C  3- C  5      2.04    1.59   0.051
   19. BD ( 1) C  3- H  7      31. BD*( 1) C  4- C  5      2.69    1.54   0.057
   19. BD ( 1) C  3- H  7      70. RY ( 1) C  5            1.55    2.10   0.051
   20. BD ( 1) C  4- C  5      25. BD*( 1) C  2- C  4      1.99    1.67   0.051
   20. BD ( 1) C  4- C  5      27. BD*( 1) C  2- H  6      3.36    1.56   0.065
   20. BD ( 1) C  4- C  5      28. BD*( 1) C  3- C  5      1.99    1.67   0.051
   20. BD ( 1) C  4- C  5      30. BD*( 1) C  3- H  7      3.36    1.56   0.065
   20. BD ( 1) C  4- C  5      32. BD*( 1) C  4- H  8      1.57    1.55   0.044
   20. BD ( 1) C  4- C  5      33. BD*( 1) C  5- H  9      1.57    1.55   0.044
   20. BD ( 1) C  4- C  5      43. RY ( 1) C  2            2.01    2.25   0.060
   20. BD ( 1) C  4- C  5      52. RY ( 1) C  3            2.01    2.25   0.060
   21. BD ( 1) C  4- H  8      23. BD*( 1) S  1- C  2      4.30    1.16   0.063
   21. BD ( 1) C  4- H  8      25. BD*( 1) C  2- C  4      1.49    1.56   0.043
   21. BD ( 1) C  4- H  8      28. BD*( 1) C  3- C  5      2.18    1.56   0.052
   21. BD ( 1) C  4- H  8      31. BD*( 1) C  4- C  5      0.82    1.51   0.031
   21. BD ( 1) C  4- H  8      43. RY ( 1) C  2            1.24    2.14   0.046
   21. BD ( 1) C  4- H  8      70. RY ( 1) C  5            0.92    2.08   0.039
   22. BD ( 1) C  5- H  9      24. BD*( 1) S  1- C  3      4.30    1.16   0.063
   22. BD ( 1) C  5- H  9      25. BD*( 1) C  2- C  4      2.18    1.56   0.052
   22. BD ( 1) C  5- H  9      28. BD*( 1) C  3- C  5      1.49    1.56   0.043
   22. BD ( 1) C  5- H  9      31. BD*( 1) C  4- C  5      0.82    1.51   0.031
   22. BD ( 1) C  5- H  9      52. RY ( 1) C  3            1.24    2.14   0.046
   22. BD ( 1) C  5- H  9      61. RY ( 1) C  4            0.92    2.08   0.039


 NATURAL BOND ORBITALS (Summary):

                                                     Principal Delocalizations
           NBO                 Occupancy    Energy   (geminal,vicinal,remote)
 ===============================================================================
 Molecular unit  1  (C4H4S)
 ------ Lewis --------------------------------------
    1. CR ( 1) S  1             2.00000   -80.65449
    2. CR ( 2) S  1             2.00000   -20.28742
    3. CR ( 3) S  1             2.00000    -6.65827
    4. CR ( 4) S  1             1.99999    -6.66076
    5. CR ( 5) S  1             1.99999    -6.65986
    6. CR ( 1) C  2             1.99999   -11.25802
    7. CR ( 1) C  3             1.99999   -11.25802
    8. CR ( 1) C  4             1.99999   -11.23564
    9. CR ( 1) C  5             1.99999   -11.23564
   10. LP ( 1) S  1             1.98851    -0.64520  25(v),28(v)
   11. LP ( 2) S  1             1.67511    -0.31042  26(v),29(v),46(v),55(v)
                                                     35(g)
   12. BD ( 1) S  1- C  2       1.98353    -0.75429  32(v),30(v),61(v),62(v)
                                                     52(v),28(v),54(v),24(g)
                                                     31(v)
   13. BD ( 1) S  1- C  3       1.98353    -0.75429  33(v),27(v),70(v),71(v)
                                                     43(v),25(v),45(v),23(g)
                                                     31(v)
   14. BD ( 1) C  2- C  4       1.98693    -0.83006  33(v),27(g),32(g),31(g)
                                                     70(v),71(v),36(v),24(v)
   15. BD ( 2) C  2- C  4       1.89122    -0.36032  29(v),35(v),72(v),34(v)
   16. BD ( 1) C  2- H  6       1.98922    -0.69903  31(v),25(g),61(v),24(v)
   17. BD ( 1) C  3- C  5       1.98693    -0.83006  32(v),30(g),33(g),31(g)
                                                     61(v),62(v),36(v),23(v)
   18. BD ( 2) C  3- C  5       1.89122    -0.36032  26(v),35(v),63(v),34(v)
   19. BD ( 1) C  3- H  7       1.98922    -0.69903  31(v),28(g),70(v),23(v)
   20. BD ( 1) C  4- C  5       1.98205    -0.78222  27(v),30(v),43(v),52(v)
                                                     25(g),28(g),32(g),33(g)
   21. BD ( 1) C  4- H  8       1.98305    -0.67227  23(v),28(v),25(g),43(v)
                                                     70(v),31(g)
   22. BD ( 1) C  5- H  9       1.98305    -0.67227  24(v),25(v),28(g),52(v)
                                                     61(v),31(g)
 ------ non-Lewis ----------------------------------
   23. BD*( 1) S  1- C  2       0.01231     0.48513
   24. BD*( 1) S  1- C  3       0.01231     0.48513
   25. BD*( 1) C  2- C  4       0.01280     0.88765
   26. BD*( 2) C  2- C  4       0.26249     0.17451
   27. BD*( 1) C  2- H  6       0.01058     0.77629
   28. BD*( 1) C  3- C  5       0.01280     0.88765
   29. BD*( 2) C  3- C  5       0.26249     0.17451
   30. BD*( 1) C  3- H  7       0.01058     0.77629
   31. BD*( 1) C  4- C  5       0.01174     0.83959
   32. BD*( 1) C  4- H  8       0.01262     0.76912
   33. BD*( 1) C  5- H  9       0.01262     0.76912
   34. RY ( 1) S  1             0.00562     1.10611
   35. RY ( 2) S  1             0.00395     0.64613
   36. RY ( 3) S  1             0.00238     0.78431
   37. RY ( 4) S  1             0.00075     1.00908
   38. RY ( 5) S  1             0.00047     0.66949
   39. RY ( 6) S  1             0.00023     0.95273
   40. RY ( 7) S  1             0.00003     1.32917
   41. RY ( 8) S  1             0.00000     0.86194
   42. RY ( 9) S  1             0.00000     1.02133
   43. RY ( 1) C  2             0.00449     1.46883
   44. RY ( 2) C  2             0.00156     1.66608
   45. RY ( 3) C  2             0.00145     0.88345
   46. RY ( 4) C  2             0.00069     1.36264
   47. RY ( 5) C  2             0.00062     1.37346
   48. RY ( 6) C  2             0.00004     2.29125
   49. RY ( 7) C  2             0.00001     2.35118
   50. RY ( 8) C  2             0.00001     2.38554
   51. RY ( 9) C  2             0.00000     1.98904
   52. RY ( 1) C  3             0.00449     1.46883
   53. RY ( 2) C  3             0.00156     1.66608
   54. RY ( 3) C  3             0.00145     0.88345
   55. RY ( 4) C  3             0.00069     1.36264
   56. RY ( 5) C  3             0.00062     1.37346
   57. RY ( 6) C  3             0.00004     2.29125
   58. RY ( 7) C  3             0.00001     2.35118
   59. RY ( 8) C  3             0.00001     2.38554
   60. RY ( 9) C  3             0.00000     1.98904
   61. RY ( 1) C  4             0.00542     1.40455
   62. RY ( 2) C  4             0.00284     0.87227
   63. RY ( 3) C  4             0.00093     1.24542
   64. RY ( 4) C  4             0.00077     1.85703
   65. RY ( 5) C  4             0.00019     1.51931
   66. RY ( 6) C  4             0.00007     2.60687
   67. RY ( 7) C  4             0.00002     2.20655
   68. RY ( 8) C  4             0.00001     2.55812
   69. RY ( 9) C  4             0.00000     2.07253
   70. RY ( 1) C  5             0.00542     1.40455
   71. RY ( 2) C  5             0.00284     0.87227
   72. RY ( 3) C  5             0.00093     1.24542
   73. RY ( 4) C  5             0.00077     1.85703
   74. RY ( 5) C  5             0.00019     1.51931
   75. RY ( 6) C  5             0.00007     2.60687
   76. RY ( 7) C  5             0.00002     2.20655
   77. RY ( 8) C  5             0.00001     2.55812
   78. RY ( 9) C  5             0.00000     2.07253
   79. RY ( 1) H  6             0.00035     0.69482
   80. RY ( 1) H  7             0.00035     0.69482
   81. RY ( 1) H  8             0.00039     0.70455
   82. RY ( 1) H  9             0.00039     0.70455
          -------------------------------
                 Total Lewis   43.31352  ( 98.4398%)
           Valence non-Lewis    0.63333  (  1.4394%)
           Rydberg non-Lewis    0.05315  (  0.1208%)
          -------------------------------
               Total unit  1   44.00000  (100.0000%)
              Charge unit  1    0.00000

 $CHOOSE
   LONE 1 2 END
   BOND S 1 2 S 1 3 D 2 4 S 2 6 D 3 5 S 3 7 S 4 5 S 4 8 S 5 9 END
 $END

 NBO analysis completed in 1.43 CPU seconds (2 wall seconds)
 Maximum scratch memory used by NBO was 410004 words (3.13 MB)
 Maximum scratch memory used by G16NBO was 18871 words (0.14 MB)

 Opening RunExU unformatted file "/cluster/work/users/beto93/mol132/Gau-476362.EUF"
 Read unf file /cluster/work/users/beto93/mol132/Gau-476362.EUF:
 Label Gaussian matrix elements                                         IVers= 2 NLab= 2 Version=ES64L-G16RevC.01
 Title mol132-NBO                                                      
 NAtoms=     9 NBasis=    82 NBsUse=    82 ICharg=     0 Multip=     1 NE=    44 Len12L=8 Len4L=8 IOpCl= 0 ICGU=111
 GAUSSIAN SCALARS                    NI= 1 NR= 1 NTot=       1 LenBuf=    2 NRI=1 N=    1000
 NPA CHARGES                         NI= 0 NR= 1 NTot=       9 LenBuf= 4000 NRI=1 N=       9
 Recovered energy= -551.286285618     dipole=      0.000000000000      0.000000000000     -0.300944417848
 Unable to Open any file for archive entry.
 1\1\GINC-C1-39\SP\RHF\6-31G(d)\C4H4S1\BETO93\18-Nov-2024\0\\#RHF/6-31G
 * int=nobasistransform Symmetry=None 5D 7F Pop=NBO7Read\\mol132-NBO\\0
 ,1\S,0,0.,0.,1.189753\C,0,0.,1.233876,-0.001474\C,0,0.,-1.233876,-0.00
 1474\C,0,0.,0.709173,-1.272322\C,0,0.,-0.709173,-1.272322\H,0,0.,2.275
 343,0.291984\H,0,0.,-2.275343,0.291984\H,0,0.,1.321934,-2.167231\H,0,0
 .,-1.321934,-2.167231\\Version=ES64L-G16RevC.01\HF=-551.2862856\RMSD=9
 .275e-09\Dipole=0.,0.,-0.3009444\Quadrupole=-3.8405996,3.3095393,0.531
 0603,0.,0.,0.\PG=Unknown\\@
 The archive entry for this job was punched.


 Mondays are the potholes in the road of life.
                                -- Tom Wilson
 Job cpu time:       0 days  0 hours  0 minutes 13.9 seconds.
 Elapsed time:       0 days  0 hours  0 minutes  4.6 seconds.
 File lengths (MBytes):  RWF=     15 Int=      0 D2E=      0 Chk=      2 Scr=      1
 Normal termination of Gaussian 16 at Mon Nov 18 16:41:12 2024.
