 Entering Gaussian System, Link 0=g16
 Initial command:
 /cluster/software/Gaussian/g16_C.01/l1.exe "/cluster/work/users/beto93/mol99/Gau-1385175.inp" -scrdir="/cluster/work/users/beto93/mol99/"
 Entering Link 1 = /cluster/software/Gaussian/g16_C.01/l1.exe PID=   1385181.
  
 Copyright (c) 1988-2019, Gaussian, Inc.  All Rights Reserved.
  
 This is part of the Gaussian(R) 16 program.  It is based on
 the Gaussian(R) 09 system (copyright 2009, Gaussian, Inc.),
 the Gaussian(R) 03 system (copyright 2003, Gaussian, Inc.),
 the Gaussian(R) 98 system (copyright 1998, Gaussian, Inc.),
 the Gaussian(R) 94 system (copyright 1995, Gaussian, Inc.),
 the Gaussian 92(TM) system (copyright 1992, Gaussian, Inc.),
 the Gaussian 90(TM) system (copyright 1990, Gaussian, Inc.),
 the Gaussian 88(TM) system (copyright 1988, Gaussian, Inc.),
 the Gaussian 86(TM) system (copyright 1986, Carnegie Mellon
 University), and the Gaussian 82(TM) system (copyright 1983,
 Carnegie Mellon University). Gaussian is a federally registered
 trademark of Gaussian, Inc.
  
 This software contains proprietary and confidential information,
 including trade secrets, belonging to Gaussian, Inc.
  
 This software is provided under written license and may be
 used, copied, transmitted, or stored only in accord with that
 written license.
  
 The following legend is applicable only to US Government
 contracts under FAR:
  
                    RESTRICTED RIGHTS LEGEND
  
 Use, reproduction and disclosure by the US Government is
 subject to restrictions as set forth in subparagraphs (a)
 and (c) of the Commercial Computer Software - Restricted
 Rights clause in FAR 52.227-19.
  
 Gaussian, Inc.
 340 Quinnipiac St., Bldg. 40, Wallingford CT 06492
  
  
 ---------------------------------------------------------------
 Warning -- This program may not be used in any manner that
 competes with the business of Gaussian, Inc. or will provide
 assistance to any competitor of Gaussian, Inc.  The licensee
 of this program is prohibited from giving any competitor of
 Gaussian, Inc. access to this program.  By using this program,
 the user acknowledges that Gaussian, Inc. is engaged in the
 business of creating and licensing software in the field of
 computational chemistry and represents and warrants to the
 licensee that it is not a competitor of Gaussian, Inc. and that
 it will not use this program in any manner prohibited above.
 ---------------------------------------------------------------
  

 Cite this work as:
 Gaussian 16, Revision C.01,
 M. J. Frisch, G. W. Trucks, H. B. Schlegel, G. E. Scuseria, 
 M. A. Robb, J. R. Cheeseman, G. Scalmani, V. Barone, 
 G. A. Petersson, H. Nakatsuji, X. Li, M. Caricato, A. V. Marenich, 
 J. Bloino, B. G. Janesko, R. Gomperts, B. Mennucci, H. P. Hratchian, 
 J. V. Ortiz, A. F. Izmaylov, J. L. Sonnenberg, D. Williams-Young, 
 F. Ding, F. Lipparini, F. Egidi, J. Goings, B. Peng, A. Petrone, 
 T. Henderson, D. Ranasinghe, V. G. Zakrzewski, J. Gao, N. Rega, 
 G. Zheng, W. Liang, M. Hada, M. Ehara, K. Toyota, R. Fukuda, 
 J. Hasegawa, M. Ishida, T. Nakajima, Y. Honda, O. Kitao, H. Nakai, 
 T. Vreven, K. Throssell, J. A. Montgomery, Jr., J. E. Peralta, 
 F. Ogliaro, M. J. Bearpark, J. J. Heyd, E. N. Brothers, K. N. Kudin, 
 V. N. Staroverov, T. A. Keith, R. Kobayashi, J. Normand, 
 K. Raghavachari, A. P. Rendell, J. C. Burant, S. S. Iyengar, 
 J. Tomasi, M. Cossi, J. M. Millam, M. Klene, C. Adamo, R. Cammi, 
 J. W. Ochterski, R. L. Martin, K. Morokuma, O. Farkas, 
 J. B. Foresman, and D. J. Fox, Gaussian, Inc., Wallingford CT, 2019.
 
 ******************************************
 Gaussian 16:  ES64L-G16RevC.01  3-Jul-2019
                18-Nov-2024 
 ******************************************
 %LindaWorkers=c5-19-ib
 %NProcShared=4
 Will use up to    4 processors via shared memory.
 %mem=25GB
 %chk=mol99.chk
 SetLPE:    new flags="-opt 'Tsnet.Node.lindarsharg: ssh'  -nodelist 'c5-19-ib.saga' -env GAUSS_MDEF=3355443200 -env GAUSS_EXEDIR="/cluster/software/Gaussian/g16_C.01/bsd:/cluster/software/Gaussian/g16_C.01""
 Will use up to    1 processors via Linda.
 -----------------------------------------------------------------
 #RHF/STO-3G int=nobasistransform Symmetry=None 5D 7F Pop=NBO7Read
 -----------------------------------------------------------------
 1/38=1,163=2,172=1/1;
 2/12=2,15=3,17=6,18=5,40=1/2;
 3/6=3,8=11,11=1,25=1,30=1,60=-1,116=1/1,2,3;
 4//1;
 5/5=2,38=5/2;
 6/7=2,8=2,9=2,10=2,28=1,40=2,113=1,114=1,124=2103/1,12;
 99/5=1,9=1/99;
 ---------
 mol99-NBO
 ---------
 Symbolic Z-matrix:
 Charge =  0 Multiplicity = 1
 C                    -0.11428  -1.31456   0. 
 N                     0.        0.16648   0. 
 H                     0.89957  -1.71526   0. 
 H                    -0.64092  -1.60721   0.90496 
 H                    -0.64092  -1.60721  -0.90496 
 O                     0.06675   0.72823  -1.10377 
 O                     0.06675   0.72823   1.10377 
 
                          Input orientation:                          
 ---------------------------------------------------------------------
 Center     Atomic      Atomic             Coordinates (Angstroms)
 Number     Number       Type             X           Y           Z
 ---------------------------------------------------------------------
      1          6           0       -0.114282   -1.314565    0.000000
      2          7           0        0.000000    0.166480    0.000000
      3          1           0        0.899565   -1.715256    0.000000
      4          1           0       -0.640921   -1.607212    0.904956
      5          1           0       -0.640921   -1.607212   -0.904956
      6          8           0        0.066748    0.728232   -1.103775
      7          8           0        0.066748    0.728232    1.103775
 ---------------------------------------------------------------------
                    Distance matrix (angstroms):
                    1          2          3          4          5
     1  C    0.000000
     2  N    1.485448   0.000000
     3  H    1.090156   2.085701   0.000000
     4  H    1.087169   2.091819   1.789893   0.000000
     5  H    1.087169   2.091819   1.789893   1.809912   0.000000
     6  O    2.328972   1.240298   2.807586   3.160711   2.448392
     7  O    2.328972   1.240298   2.807586   2.448392   3.160711
                    6          7
     6  O    0.000000
     7  O    2.207550   0.000000
 Symmetry turned off by external request.
 Stoichiometry    CH3NO2
 Rotational constants (GHZ):          11.9672021          10.5702922           5.8203281
 Standard basis: STO-3G (5D, 7F)
    23 basis functions,    69 primitive gaussians,    23 cartesian basis functions
    16 alpha electrons       16 beta electrons
       nuclear repulsion energy       124.0088958092 Hartrees.
 NAtoms=    7 NActive=    7 NUniq=    7 SFac= 1.00D+00 NAtFMM=   60 NAOKFM=F Big=F
 Integral buffers will be    131072 words long.
 Raffenetti 1 integral format.
 Two-electron integral symmetry is turned off.
 One-electron integrals computed using PRISM.
 NBasis=    23 RedAO= T EigKep=  2.24D-01  NBF=    23
 NBsUse=    23 1.00D-06 EigRej= -1.00D+00 NBFU=    23
 ExpMin= 1.69D-01 ExpMax= 1.31D+02 ExpMxC= 1.31D+02 IAcc=3 IRadAn=         5 AccDes= 0.00D+00
 Harris functional with IExCor=  205 and IRadAn=       5 diagonalized for initial guess.
 HarFok:  IExCor=  205 AccDes= 0.00D+00 IRadAn=         5 IDoV= 1 UseB2=F ITyADJ=14
 ICtDFT=  3500011 ScaDFX=  1.000000  1.000000  1.000000  1.000000
 FoFCou: FMM=F IPFlag=           0 FMFlag=      100000 FMFlg1=           0
         NFxFlg=           0 DoJE=T BraDBF=F KetDBF=T FulRan=T
         wScrn=  0.000000 ICntrl=       500 IOpCl=  0 I1Cent=   200000004 NGrid=           0
         NMat0=    1 NMatS0=      1 NMatT0=    0 NMatD0=    1 NMtDS0=    0 NMtDT0=    0
 Symmetry not used in FoFCou.
 Keep R1 ints in memory in canonical form, NReq=848114.
 Requested convergence on RMS density matrix=1.00D-08 within 128 cycles.
 Requested convergence on MAX density matrix=1.00D-06.
 Requested convergence on             energy=1.00D-06.
 No special actions if energy rises.
 SCF Done:  E(RHF) =  -240.418612420     A.U. after   12 cycles
            NFock= 12  Conv=0.70D-08     -V/T= 2.0091

 **********************************************************************

            Population analysis using the SCF Density.

 **********************************************************************

 Alpha  occ. eigenvalues --  -20.26162 -20.26160 -15.64908 -11.13968  -1.50240
 Alpha  occ. eigenvalues --   -1.28852  -1.04066  -0.79103  -0.66984  -0.65180
 Alpha  occ. eigenvalues --   -0.63204  -0.54850  -0.54186  -0.36124  -0.35026
 Alpha  occ. eigenvalues --   -0.28013
 Alpha virt. eigenvalues --    0.21487   0.50877   0.63038   0.65470   0.66691
 Alpha virt. eigenvalues --    0.73495   0.88074
          Condensed to atoms (all electrons):
               1          2          3          4          5          6
     1  C    4.731205   0.285633   0.381888   0.383908   0.383908  -0.033444
     2  N    0.285633   6.055686  -0.018885  -0.018792  -0.018792   0.278163
     3  H    0.381888  -0.018885   0.566029  -0.018453  -0.018453  -0.000111
     4  H    0.383908  -0.018792  -0.018453   0.560573  -0.017481   0.000690
     5  H    0.383908  -0.018792  -0.018453  -0.017481   0.560573  -0.000721
     6  O   -0.033444   0.278163  -0.000111   0.000690  -0.000721   7.972845
     7  O   -0.033444   0.278163  -0.000111  -0.000721   0.000690  -0.023515
               7
     1  C   -0.033444
     2  N    0.278163
     3  H   -0.000111
     4  H   -0.000721
     5  H    0.000690
     6  O   -0.023515
     7  O    7.972845
 Mulliken charges:
               1
     1  C   -0.099656
     2  N    0.158824
     3  H    0.108095
     4  H    0.110276
     5  H    0.110276
     6  O   -0.193907
     7  O   -0.193907
 Sum of Mulliken charges =  -0.00000
 Mulliken charges with hydrogens summed into heavy atoms:
               1
     1  C    0.228991
     2  N    0.158824
     6  O   -0.193907
     7  O   -0.193907
 Electronic spatial extent (au):  <R**2>=            226.6677
 Charge=             -0.0000 electrons
 Dipole moment (field-independent basis, Debye):
    X=             -0.2600    Y=             -3.0693    Z=              0.0000  Tot=              3.0802
 Quadrupole moment (field-independent basis, Debye-Ang):
   XX=            -19.5735   YY=            -20.5424   ZZ=            -24.2758
   XY=             -0.1397   XZ=              0.0000   YZ=              0.0000
 Traceless Quadrupole moment (field-independent basis, Debye-Ang):
   XX=              1.8904   YY=              0.9215   ZZ=             -2.8119
   XY=             -0.1397   XZ=              0.0000   YZ=              0.0000
 Octapole moment (field-independent basis, Debye-Ang**2):
  XXX=              1.2522  YYY=              3.6015  ZZZ=              0.0000  XYY=             -0.0384
  XXY=              1.9579  XXZ=              0.0000  XZZ=             -0.7915  YZZ=             -1.2861
  YYZ=              0.0000  XYZ=              0.0000
 Hexadecapole moment (field-independent basis, Debye-Ang**3):
 XXXX=            -19.7594 YYYY=           -127.2108 ZZZZ=            -90.1975 XXXY=             -5.4665
 XXXZ=              0.0000 YYYX=             -5.0884 YYYZ=              0.0000 ZZZX=              0.0000
 ZZZY=              0.0000 XXYY=            -22.7607 XXZZ=            -16.7523 YYZZ=            -36.0921
 XXYZ=              0.0000 YYXZ=             -0.0000 ZZXY=             -0.4420
 N-N= 1.240088958092D+02 E-N=-8.151766360695D+02  KE= 2.382621104383D+02
 Running external command "gaunbo7 R"
         input file       "/cluster/work/users/beto93/mol99/Gau-1385181.EIn"
         output file      "/cluster/work/users/beto93/mol99/Gau-1385181.EOu"
         message file     "/cluster/work/users/beto93/mol99/Gau-1385181.EMs"
         fchk file        "/cluster/work/users/beto93/mol99/Gau-1385181.EFC"
         mat. el file     "/cluster/work/users/beto93/mol99/Gau-1385181.EUF"

 Writing WrtUnf unformatted file "/cluster/work/users/beto93/mol99/Gau-1385181.EUF"
 Gaussian matrix elements                                         Version   2 NLab=11 Len12L=8 Len4L=8
 Write SHELL TO ATOM MAP                   from file      0 offset           0 length                  11 to matrix element file.
 Write SHELL TYPES                         from file      0 offset           0 length                  11 to matrix element file.
 Write NUMBER OF PRIMITIVES PER SHELL      from file      0 offset           0 length                  11 to matrix element file.
 Write PRIMITIVE EXPONENTS                 from file      0 offset           0 length                  33 to matrix element file.
 Write CONTRACTION COEFFICIENTS            from file      0 offset           0 length                  33 to matrix element file.
 Write P(S=P) CONTRACTION COEFFICIENTS     from file      0 offset           0 length                  33 to matrix element file.
 Write COORDINATES OF EACH SHELL           from file      0 offset           0 length                  33 to matrix element file.
 Write BONDS PER ATOM                      from file      0 offset           0 length                   7 to matrix element file.
 Write BONDED ATOMS                        from file      0 offset           0 length                  12 to matrix element file.
 Write BOND TYPES                          from file      0 offset           0 length                  12 to matrix element file.
 Write ONIOM CHARGE/MULT                   from file      0 offset           0 length                  32 to matrix element file.
 Write ONIOM ATOM LAYERS                   from file      0 offset           0 length                   7 to matrix element file.
 Write ONIOM ATOM MODIFIERS                from file      0 offset           0 length                   7 to matrix element file.
 Write ONIOM ATOM TYPES                    from file      0 offset           0 length                   7 to matrix element file.
 Write ONIOM LINK ATOMS                    from file      0 offset           0 length                   7 to matrix element file.
 Write ONIOM LINK CHARGES                  from file      0 offset           0 length                   7 to matrix element file.
 Write ONIOM LINK DISTANCES                from file      0 offset           0 length                  28 to matrix element file.
 Write SYMINF INTS                         from file      0 offset           0 length                  26 to matrix element file.
 Write ROTTR TO SO                         from file      0 offset           0 length                  12 to matrix element file.
 Write GAUSSIAN SCALARS                    from file    501 offset           0 to matrix element file.
 Write OPTIMIZATION FLAGS                  from file      0 offset           0 length                   7 to matrix element file.
 Write INTEGER ISO                         from file      0 offset           0 length                   7 to matrix element file.
 Write INTEGER SPIN                        from file      0 offset           0 length                   7 to matrix element file.
 Write REAL ZEFFECTIVE                     from file      0 offset           0 length                   7 to matrix element file.
 Write REAL QUADRUPOLEMOMENT               from file      0 offset           0 length                   7 to matrix element file.
 Write REAL GFACTOR                        from file      0 offset           0 length                   7 to matrix element file.
 Write REAL ZNUCLEAR                       from file      0 offset           0 length                   7 to matrix element file.
 Write MULLIKEN CHARGES                    from file      0 offset           0 length                   7 to matrix element file.
 Write NUCLEAR GRADIENT                    from file  10584 offset           0 length                  21 to matrix element file.
 Array NUCLEAR FORCE CONSTANTS              on  file  10585 does not exist.
 Write ELECTRIC DIPOLE MOMENT              from file      0 offset           0 length                   3 to matrix element file.
 Write NON-ADIABATIC COUPLING              from file  10810 offset           0 length                  21 to matrix element file.
 Write FINITE EM FIELD                     from file  10521 offset           0 length                  35 to matrix element file.
 Write OVERLAP                             from file  10514 offset           0 length                 276 to matrix element file.
 Write CORE HAMILTONIAN ALPHA              from file  10515 offset           0 length                 276 to matrix element file.
 Write CORE HAMILTONIAN BETA               from file  10515 offset         276 length                 276 to matrix element file.
 Write KINETIC ENERGY                      from file  10516 offset           0 length                 276 to matrix element file.
 Write ORTHOGONAL BASIS                    from file  10685 offset           0 length                 529 to matrix element file.
 Write DIPOLE INTEGRALS                    from file  10518 offset           0 length                 828 to matrix element file.
 Array DIP VEL INTEGRALS                    on  file  10572 does not exist.
 Array R X DEL INTEGRALS                    on  file  10572 does not exist.
 Write ALPHA ORBITAL ENERGIES              from file      0 offset           0 length                  23 to matrix element file.
 Write ALPHA MO COEFFICIENTS               from file  10524 offset           0 length                 529 to matrix element file.
 Write ALPHA DENSITY MATRIX                from file      0 offset           0 length                 276 to matrix element file.
 Write ALPHA FOCK MATRIX                   from file  10536 offset           0 length                 276 to matrix element file.
 Write ENERGY-WEIGHTED DENSITY             from file  10571 offset           0 length                 276 to matrix element file.
 Write ALPHA SCF DENSITY MATRIX            from file      0 offset           0 length                 276 to matrix element file.
 No 2e integrals to process.
 Perform NBO analysis...executing G16NBO...

 *********************************** NBO 7.0 ***********************************
             N A T U R A L   A T O M I C   O R B I T A L   A N D
          N A T U R A L   B O N D   O R B I T A L   A N A L Y S I S
 **************************** Espen Tangen (S101595) ***************************
  (c) Copyright 1996-2021 Board of Regents of the University of Wisconsin System
      on behalf of the Theoretical Chemistry Institute.  All rights reserved.

          Cite this program [NBO 7.0.10 (8-Feb-2021)] as:

          NBO 7.0.  E. D. Glendening, J. K. Badenhoop, A. E. Reed,
          J. E. Carpenter, J. A. Bohmann, C. M. Morales, P. Karafiloglou,
          C. R. Landis, and F. Weinhold, Theoretical Chemistry Institute,
          University of Wisconsin, Madison, WI (2018)

       /NPA    / : Natural Population Analysis
       /AOPNAO / : Print the AO to PNAO transformation
       /AONAO  / : Print the AO to NAO transformation
       /AOMO   / : Print the MOs in the AO basis
       /BOAO   / : Print the AO bond-order matrix
       /DMAO   / : Print the AO density matrix
       /DMPNAO / : Print the PNAO density matrix
       /DMNAO  / : Print the NAO density matrix
       /DMMO   / : Print the MO density matrix
       /SAO    / : Print the AO overlap matrix
       /SPNAO  / : Print the PNAO overlap matrix
       /DETAIL / : Write details of NBO search
       /ARCHIVE/ : Write the archive file to lfn47
       /AOINFO / : Write AO information to lfn31
       /FILE   / : Set to mol99.gen*

 Filename set to mol99.gen1

 Job title: mol99-NBO


 MOs in the AO basis:

           AO          1       2       3       4       5       6       7       8
      ------------ ------- ------- ------- ------- ------- ------- ------- -------
   1.  C 1 (s)      0.0000  0.0000  0.0005  0.9921 -0.0315  0.0000 -0.1902  0.1026
   2.  C 1 (s)      0.0000  0.0002 -0.0049  0.0370  0.0680  0.0000  0.5345 -0.3253
   3.  C 1 (px)     0.0000 -0.0001 -0.0003  0.0002  0.0030  0.0000  0.0069  0.0162
   4.  C 1 (py)     0.0000 -0.0001 -0.0041  0.0003  0.0366  0.0000  0.0670  0.2671
   5.  C 1 (pz)    -0.0002  0.0000  0.0000  0.0000  0.0000 -0.0149  0.0000  0.0000
   6.  N 2 (s)      0.0000  0.0007  0.9937  0.0006 -0.1772  0.0000 -0.0590 -0.1307
   7.  N 2 (s)      0.0000 -0.0082  0.0292 -0.0055  0.5509  0.0000  0.2176  0.5494
   8.  N 2 (px)     0.0000 -0.0004  0.0002  0.0003  0.0104  0.0000 -0.0277 -0.0178
   9.  N 2 (py)     0.0000 -0.0033  0.0002  0.0037  0.0706  0.0000 -0.3163 -0.1548
  10.  N 2 (pz)     0.0064  0.0000  0.0000  0.0000  0.0000 -0.3364  0.0000  0.0000
  11.  H 3 (s)      0.0000  0.0000  0.0001 -0.0069  0.0075  0.0000  0.1262 -0.1663
  12.  H 4 (s)      0.0001 -0.0002  0.0002 -0.0069  0.0081 -0.0069  0.1230 -0.1695
  13.  H 5 (s)     -0.0001 -0.0002  0.0002 -0.0069  0.0081  0.0069  0.1230 -0.1695
  14.  O 6 (s)      0.7032  0.7032  0.0005  0.0000 -0.1168 -0.1598  0.0692  0.0976
  15.  O 6 (s)      0.0171  0.0173 -0.0051  0.0000  0.3791  0.5633 -0.2730 -0.4349
  16.  O 6 (px)    -0.0002 -0.0002  0.0001  0.0000 -0.0058 -0.0069 -0.0040 -0.0128
  17.  O 6 (py)    -0.0017 -0.0014  0.0013  0.0001 -0.0524 -0.0619 -0.0497 -0.1064
  18.  O 6 (pz)     0.0029  0.0032 -0.0028  0.0001  0.1044  0.0792 -0.0241  0.1232
  19.  O 7 (s)     -0.7032  0.7032  0.0005  0.0000 -0.1168  0.1598  0.0692  0.0976
  20.  O 7 (s)     -0.0171  0.0173 -0.0051  0.0000  0.3791 -0.5633 -0.2730 -0.4349
  21.  O 7 (px)     0.0002 -0.0002  0.0001  0.0000 -0.0058  0.0069 -0.0040 -0.0128
  22.  O 7 (py)     0.0017 -0.0014  0.0013  0.0001 -0.0524  0.0619 -0.0497 -0.1064
  23.  O 7 (pz)     0.0029 -0.0032  0.0028 -0.0001 -0.1044  0.0792  0.0241 -0.1232

           AO          9      10      11      12      13      14      15      16
      ------------ ------- ------- ------- ------- ------- ------- ------- -------
   1.  C 1 (s)     -0.0004 -0.0264  0.0000  0.0000 -0.0017  0.0000 -0.0359  0.0000
   2.  C 1 (s)      0.0013  0.0893  0.0000  0.0000  0.0063  0.0000  0.1577  0.0000
   3.  C 1 (px)     0.3770 -0.0410  0.0000  0.0000 -0.4518  0.0000  0.0087  0.0000
   4.  C 1 (py)    -0.0427 -0.2562  0.0000  0.0000  0.0254  0.0000  0.3326  0.0000
   5.  C 1 (pz)     0.0000  0.0000  0.4504 -0.3808  0.0000 -0.0523  0.0000 -0.0131
   6.  N 2 (s)     -0.0022 -0.0442  0.0000  0.0000 -0.0001  0.0000  0.0042  0.0000
   7.  N 2 (s)      0.0096  0.1936  0.0000  0.0000  0.0003  0.0000 -0.0206  0.0000
   8.  N 2 (px)     0.5534 -0.0056  0.0000  0.0000  0.4575  0.0000 -0.0216  0.0000
   9.  N 2 (py)    -0.0137  0.5112  0.0000  0.0000 -0.0305  0.0000 -0.1910  0.0000
  10.  N 2 (pz)     0.0000  0.0000  0.3314  0.4384  0.0000 -0.1026  0.0000  0.0025
  11.  H 3 (s)      0.2694  0.0861  0.0000  0.0000 -0.3946  0.0000 -0.0604  0.0000
  12.  H 4 (s)     -0.1260  0.0980  0.2866 -0.2879  0.1972 -0.0452 -0.0689  0.0053
  13.  H 5 (s)     -0.1260  0.0980 -0.2866  0.2879  0.1972  0.0452 -0.0689 -0.0053
  14.  O 6 (s)      0.0061  0.0772 -0.0679 -0.0609  0.0025  0.0098 -0.0104 -0.0001
  15.  O 6 (s)     -0.0295 -0.3725  0.3311  0.3139 -0.0126 -0.0570  0.0568  0.0010
  16.  O 6 (px)     0.2577 -0.0157  0.0254  0.0251  0.2849  0.0523  0.0675  0.7059
  17.  O 6 (py)    -0.0142  0.1314  0.2194  0.2375 -0.0297  0.5280  0.6461 -0.0747
  18.  O 6 (pz)     0.0304  0.3392 -0.1288 -0.2533  0.0142  0.4736  0.1026  0.0058
  19.  O 7 (s)      0.0061  0.0772  0.0679  0.0609  0.0025 -0.0098 -0.0104  0.0001
  20.  O 7 (s)     -0.0295 -0.3725 -0.3311 -0.3139 -0.0126  0.0570  0.0568 -0.0010
  21.  O 7 (px)     0.2577 -0.0157 -0.0254 -0.0251  0.2849 -0.0523  0.0675 -0.7059
  22.  O 7 (py)    -0.0142  0.1314 -0.2194 -0.2375 -0.0297 -0.5280  0.6461  0.0747
  23.  O 7 (pz)    -0.0304 -0.3392 -0.1288 -0.2533 -0.0142  0.4736 -0.1026  0.0058

           AO         17      18      19      20      21      22      23
      ------------ ------- ------- ------- ------- ------- ------- -------
   1.  C 1 (s)     -0.0012 -0.0729  0.0000 -0.0178 -0.2181 -0.0947  0.0000
   2.  C 1 (s)      0.0040  0.3735  0.0000  0.1123  1.3903  0.6046  0.0000
   3.  C 1 (px)     0.0514  0.0825  0.0000  1.0944 -0.1246  0.0513  0.0000
   4.  C 1 (py)     0.0162  1.0120  0.0000 -0.1234 -0.3525  0.1360  0.0000
   5.  C 1 (pz)     0.0000  0.0000  1.0102  0.0000  0.0000  0.0000 -0.4814
   6.  N 2 (s)      0.0033  0.1456  0.0000  0.0080  0.0683 -0.1027  0.0000
   7.  N 2 (s)     -0.0196 -0.9220  0.0000 -0.0528 -0.4336  0.6626  0.0000
   8.  N 2 (px)     0.7251  0.0281  0.0000 -0.2013  0.0068  0.0864  0.0000
   9.  N 2 (py)    -0.0638  0.5886  0.0000 -0.0245 -0.0627  0.8674  0.0000
  10.  N 2 (pz)     0.0000  0.0000  0.3092  0.0000  0.0000  0.0000  1.1060
  11.  H 3 (s)     -0.1777  0.0918  0.0000 -1.0490 -0.6106 -0.2608  0.0000
  12.  H 4 (s)      0.0903  0.0983 -0.8274  0.4283 -0.7633 -0.2033  0.2909
  13.  H 5 (s)      0.0903  0.0983  0.8274  0.4283 -0.7633 -0.2033 -0.2909
  14.  O 6 (s)      0.0000 -0.0202 -0.0229 -0.0030 -0.0256  0.0629 -0.0672
  15.  O 6 (s)     -0.0003  0.1186  0.1472  0.0212  0.1589 -0.4059  0.4595
  16.  O 6 (px)    -0.6074 -0.0127 -0.0081  0.0696 -0.0221  0.0177 -0.0508
  17.  O 6 (py)     0.0619 -0.2229 -0.1640 -0.0067 -0.1091  0.1171 -0.3886
  18.  O 6 (pz)     0.0031  0.1912  0.1975  0.0483  0.2226 -0.6523  0.5252
  19.  O 7 (s)      0.0000 -0.0202  0.0229 -0.0030 -0.0256  0.0629  0.0672
  20.  O 7 (s)     -0.0003  0.1186 -0.1472  0.0212  0.1589 -0.4059 -0.4595
  21.  O 7 (px)    -0.6074 -0.0127  0.0081  0.0696 -0.0221  0.0177  0.0508
  22.  O 7 (py)     0.0619 -0.2229  0.1640 -0.0067 -0.1091  0.1171  0.3886
  23.  O 7 (pz)    -0.0031 -0.1912  0.1975 -0.0483 -0.2226  0.6523  0.5252


 AO overlap matrix:

           AO          1       2       3       4       5       6       7       8
      ------------ ------- ------- ------- ------- ------- ------- ------- -------
   1.  C 1 (s)      1.0000  0.2484  0.0000  0.0000  0.0000  0.0000  0.0224 -0.0030
   2.  C 1 (s)      0.2484  1.0000  0.0000  0.0000  0.0000  0.0237  0.2796 -0.0228
   3.  C 1 (px)     0.0000  0.0000  1.0000  0.0000  0.0000  0.0030  0.0263  0.1480
   4.  C 1 (py)     0.0000  0.0000  0.0000  1.0000  0.0000  0.0394  0.3408 -0.0349
   5.  C 1 (pz)     0.0000  0.0000  0.0000  0.0000  1.0000  0.0000  0.0000  0.0000
   6.  N 2 (s)      0.0000  0.0237  0.0030  0.0394  0.0000  1.0000  0.2350  0.0000
   7.  N 2 (s)      0.0224  0.2796  0.0263  0.3408  0.0000  0.2350  1.0000  0.0000
   8.  N 2 (px)    -0.0030 -0.0228  0.1480 -0.0349  0.0000  0.0000  0.0000  1.0000
   9.  N 2 (py)    -0.0384 -0.2959 -0.0349 -0.3018  0.0000  0.0000  0.0000  0.0000
  10.  N 2 (pz)     0.0000  0.0000  0.0000  0.0000  0.1507  0.0000  0.0000  0.0000
  11.  H 3 (s)      0.0623  0.4907  0.4345 -0.1717  0.0000  0.0050  0.0857  0.0449
  12.  H 4 (s)      0.0627  0.4924 -0.2268 -0.1260  0.3898  0.0049  0.0847 -0.0315
  13.  H 5 (s)      0.0627  0.4924 -0.2268 -0.1260 -0.3898  0.0049  0.0847 -0.0315
  14.  O 6 (s)      0.0000  0.0015  0.0003  0.0030 -0.0016  0.0000  0.0282  0.0025
  15.  O 6 (s)      0.0002  0.0374  0.0049  0.0553 -0.0299  0.0255  0.3103  0.0201
  16.  O 6 (px)    -0.0001 -0.0039  0.0138 -0.0063  0.0034 -0.0023 -0.0170  0.1706
  17.  O 6 (py)    -0.0006 -0.0440 -0.0063 -0.0565  0.0383 -0.0196 -0.1433 -0.0119
  18.  O 6 (pz)     0.0003  0.0238  0.0034  0.0383 -0.0064  0.0385  0.2817  0.0233
  19.  O 7 (s)      0.0000  0.0015  0.0003  0.0030  0.0016  0.0000  0.0282  0.0025
  20.  O 7 (s)      0.0002  0.0374  0.0049  0.0553  0.0299  0.0255  0.3103  0.0201
  21.  O 7 (px)    -0.0001 -0.0039  0.0138 -0.0063 -0.0034 -0.0023 -0.0170  0.1706
  22.  O 7 (py)    -0.0006 -0.0440 -0.0063 -0.0565 -0.0383 -0.0196 -0.1433 -0.0119
  23.  O 7 (pz)    -0.0003 -0.0238 -0.0034 -0.0383 -0.0064 -0.0385 -0.2817 -0.0233

           AO          9      10      11      12      13      14      15      16
      ------------ ------- ------- ------- ------- ------- ------- ------- -------
   1.  C 1 (s)     -0.0384  0.0000  0.0623  0.0627  0.0627  0.0000  0.0002 -0.0001
   2.  C 1 (s)     -0.2959  0.0000  0.4907  0.4924  0.4924  0.0015  0.0374 -0.0039
   3.  C 1 (px)    -0.0349  0.0000  0.4345 -0.2268 -0.2268  0.0003  0.0049  0.0138
   4.  C 1 (py)    -0.3018  0.0000 -0.1717 -0.1260 -0.1260  0.0030  0.0553 -0.0063
   5.  C 1 (pz)     0.0000  0.1507  0.0000  0.3898 -0.3898 -0.0016 -0.0299  0.0034
   6.  N 2 (s)      0.0000  0.0000  0.0050  0.0049  0.0049  0.0000  0.0255 -0.0023
   7.  N 2 (s)      0.0000  0.0000  0.0857  0.0847  0.0847  0.0282  0.3103 -0.0170
   8.  N 2 (px)     0.0000  0.0000  0.0449 -0.0315 -0.0315  0.0025  0.0201  0.1706
   9.  N 2 (py)     1.0000  0.0000 -0.0939 -0.0873 -0.0873  0.0212  0.1689 -0.0119
  10.  N 2 (pz)     0.0000  1.0000  0.0000  0.0445 -0.0445 -0.0417 -0.3319  0.0233
  11.  H 3 (s)     -0.0939  0.0000  1.0000  0.1667  0.1667  0.0005  0.0121  0.0048
  12.  H 4 (s)     -0.0873  0.0445  0.1667  1.0000  0.1616  0.0001  0.0048 -0.0015
  13.  H 5 (s)     -0.0873 -0.0445  0.1667  0.1616  1.0000  0.0015  0.0287 -0.0101
  14.  O 6 (s)      0.0212 -0.0417  0.0005  0.0001  0.0015  1.0000  0.2367  0.0000
  15.  O 6 (s)      0.1689 -0.3319  0.0121  0.0048  0.0287  0.2367  1.0000  0.0000
  16.  O 6 (px)    -0.0119  0.0233  0.0048 -0.0015 -0.0101  0.0000  0.0000  1.0000
  17.  O 6 (py)     0.0723  0.1961 -0.0140 -0.0051 -0.0335  0.0000  0.0000  0.0000
  18.  O 6 (pz)     0.1961 -0.2132  0.0063  0.0044  0.0029  0.0000  0.0000  0.0000
  19.  O 7 (s)      0.0212  0.0417  0.0005  0.0015  0.0001  0.0000  0.0003  0.0000
  20.  O 7 (s)      0.1689  0.3319  0.0121  0.0287  0.0048  0.0003  0.0208  0.0000
  21.  O 7 (px)    -0.0119 -0.0233  0.0048 -0.0101 -0.0015  0.0000  0.0000  0.0079
  22.  O 7 (py)     0.0723 -0.1961 -0.0140 -0.0335 -0.0051  0.0000  0.0000  0.0000
  23.  O 7 (pz)    -0.1961 -0.2132 -0.0063 -0.0029 -0.0044 -0.0007 -0.0342  0.0000

           AO         17      18      19      20      21      22      23
      ------------ ------- ------- ------- ------- ------- ------- -------
   1.  C 1 (s)     -0.0006  0.0003  0.0000  0.0002 -0.0001 -0.0006 -0.0003
   2.  C 1 (s)     -0.0440  0.0238  0.0015  0.0374 -0.0039 -0.0440 -0.0238
   3.  C 1 (px)    -0.0063  0.0034  0.0003  0.0049  0.0138 -0.0063 -0.0034
   4.  C 1 (py)    -0.0565  0.0383  0.0030  0.0553 -0.0063 -0.0565 -0.0383
   5.  C 1 (pz)     0.0383 -0.0064  0.0016  0.0299 -0.0034 -0.0383 -0.0064
   6.  N 2 (s)     -0.0196  0.0385  0.0000  0.0255 -0.0023 -0.0196 -0.0385
   7.  N 2 (s)     -0.1433  0.2817  0.0282  0.3103 -0.0170 -0.1433 -0.2817
   8.  N 2 (px)    -0.0119  0.0233  0.0025  0.0201  0.1706 -0.0119 -0.0233
   9.  N 2 (py)     0.0723  0.1961  0.0212  0.1689 -0.0119  0.0723 -0.1961
  10.  N 2 (pz)     0.1961 -0.2132  0.0417  0.3319 -0.0233 -0.1961 -0.2132
  11.  H 3 (s)     -0.0140  0.0063  0.0005  0.0121  0.0048 -0.0140 -0.0063
  12.  H 4 (s)     -0.0051  0.0044  0.0015  0.0287 -0.0101 -0.0335 -0.0029
  13.  H 5 (s)     -0.0335  0.0029  0.0001  0.0048 -0.0015 -0.0051 -0.0044
  14.  O 6 (s)      0.0000  0.0000  0.0000  0.0003  0.0000  0.0000 -0.0007
  15.  O 6 (s)      0.0000  0.0000  0.0003  0.0208  0.0000  0.0000 -0.0342
  16.  O 6 (px)     0.0000  0.0000  0.0000  0.0000  0.0079  0.0000  0.0000
  17.  O 6 (py)     1.0000  0.0000  0.0000  0.0000  0.0000  0.0079  0.0000
  18.  O 6 (pz)     0.0000  1.0000  0.0007  0.0342  0.0000  0.0000 -0.0523
  19.  O 7 (s)      0.0000  0.0007  1.0000  0.2367  0.0000  0.0000  0.0000
  20.  O 7 (s)      0.0000  0.0342  0.2367  1.0000  0.0000  0.0000  0.0000
  21.  O 7 (px)     0.0000  0.0000  0.0000  0.0000  1.0000  0.0000  0.0000
  22.  O 7 (py)     0.0079  0.0000  0.0000  0.0000  0.0000  1.0000  0.0000
  23.  O 7 (pz)     0.0000 -0.0523  0.0000  0.0000  0.0000  0.0000  1.0000


 AO bond-order matrix:

           AO          1       2       3       4       5       6       7       8
      ------------ ------- ------- ------- ------- ------- ------- ------- -------
   1.  C 1 (s)      2.0677 -0.2169  0.0036  0.0173  0.0000  0.0109 -0.0243  0.0066
   2.  C 1 (s)     -0.2169  0.8608 -0.0120 -0.0377  0.0000 -0.0183 -0.0224 -0.0172
   3.  C 1 (px)     0.0036 -0.0120  0.6966 -0.0185  0.0000 -0.0046  0.0150  0.0031
   4.  C 1 (py)     0.0173 -0.0377 -0.0185  0.5119  0.0000 -0.0734  0.2490 -0.0479
   5.  C 1 (pz)     0.0000  0.0000  0.0000  0.0000  0.7020  0.0000  0.0000  0.0000
   6.  N 2 (s)      0.0109 -0.0183 -0.0046 -0.0734  0.0000  2.0828 -0.3238  0.0023
   7.  N 2 (s)     -0.0243 -0.0224  0.0150  0.2490  0.0000 -0.3238  1.3833 -0.0104
   8.  N 2 (px)     0.0066 -0.0172  0.0031 -0.0479  0.0000  0.0023 -0.0104  1.0345
   9.  N 2 (py)     0.0782 -0.1969 -0.0369 -0.5094  0.0000  0.0066 -0.0245 -0.0160
  10.  N 2 (pz)     0.0000  0.0000  0.0000  0.0000 -0.0147  0.0000  0.0000  0.0000
  11.  H 3 (s)     -0.0955  0.2356  0.5479 -0.1987  0.0000  0.0168 -0.0787 -0.0621
  12.  H 4 (s)     -0.0966  0.2403 -0.2862 -0.1487  0.4823  0.0185 -0.0852  0.0422
  13.  H 5 (s)     -0.0966  0.2403 -0.2862 -0.1487 -0.4823  0.0185 -0.0852  0.0422
  14.  O 6 (s)     -0.0022  0.0055 -0.0009  0.0059 -0.0113  0.0026  0.0277 -0.0016
  15.  O 6 (s)      0.0065 -0.0062  0.0051 -0.0105  0.0483  0.0349 -0.3268 -0.0041
  16.  O 6 (px)    -0.0059  0.0260 -0.0612  0.0377 -0.0200  0.0069 -0.0260  0.5437
  17.  O 6 (py)    -0.0526  0.2358  0.0121  0.2948 -0.0346  0.0486 -0.1721 -0.0669
  18.  O 6 (pz)     0.0026  0.0015 -0.0116 -0.0373  0.0248 -0.1012  0.3674  0.0376
  19.  O 7 (s)     -0.0022  0.0055 -0.0009  0.0059  0.0113  0.0026  0.0277 -0.0016
  20.  O 7 (s)      0.0065 -0.0062  0.0051 -0.0105 -0.0483  0.0349 -0.3268 -0.0041
  21.  O 7 (px)    -0.0059  0.0260 -0.0612  0.0377  0.0200  0.0069 -0.0260  0.5437
  22.  O 7 (py)    -0.0526  0.2358  0.0121  0.2948  0.0346  0.0486 -0.1721 -0.0669
  23.  O 7 (pz)    -0.0026 -0.0015  0.0116  0.0373  0.0248  0.1012 -0.3674 -0.0376

           AO          9      10      11      12      13      14      15      16
      ------------ ------- ------- ------- ------- ------- ------- ------- -------
   1.  C 1 (s)      0.0782  0.0000 -0.0955 -0.0966 -0.0966 -0.0022  0.0065 -0.0059
   2.  C 1 (s)     -0.1969  0.0000  0.2356  0.2403  0.2403  0.0055 -0.0062  0.0260
   3.  C 1 (px)    -0.0369  0.0000  0.5479 -0.2862 -0.2862 -0.0009  0.0051 -0.0612
   4.  C 1 (py)    -0.5094  0.0000 -0.1987 -0.1487 -0.1487  0.0059 -0.0105  0.0377
   5.  C 1 (pz)     0.0000 -0.0147  0.0000  0.4823 -0.4823 -0.0113  0.0483 -0.0200
   6.  N 2 (s)      0.0066  0.0000  0.0168  0.0185  0.0185  0.0026  0.0349  0.0069
   7.  N 2 (s)     -0.0245  0.0000 -0.0787 -0.0852 -0.0852  0.0277 -0.3268 -0.0260
   8.  N 2 (px)    -0.0160  0.0000 -0.0621  0.0422  0.0422 -0.0016 -0.0041  0.5437
   9.  N 2 (py)     0.8559  0.0000  0.1005  0.0936  0.0936 -0.0126 -0.0403 -0.0606
  10.  N 2 (pz)     0.0000  0.8515  0.0000 -0.0485  0.0485  0.0161  0.1275  0.0363
  11.  H 3 (s)      0.1005  0.0000  0.5660 -0.1107 -0.1107 -0.0009  0.0045 -0.0937
  12.  H 4 (s)      0.0936 -0.0485 -0.1107  0.5606 -0.1082 -0.0046  0.0144  0.0412
  13.  H 5 (s)      0.0936  0.0485 -0.1107 -0.1082  0.5606  0.0001  0.0016  0.0354
  14.  O 6 (s)     -0.0126  0.0161 -0.0009 -0.0046  0.0001  2.1138 -0.4864 -0.0049
  15.  O 6 (s)     -0.0403  0.1275  0.0045  0.0144  0.0016 -0.4864  2.1597  0.0261
  16.  O 6 (px)    -0.0606  0.0363 -0.0937  0.0412  0.0354 -0.0049  0.0261  1.3098
  17.  O 6 (py)    -0.0533  0.2866 -0.0175 -0.1071  0.0102 -0.0417  0.2212  0.0363
  18.  O 6 (pz)     0.2978 -0.4578  0.0057  0.0324 -0.0239  0.0879 -0.4670  0.0602
  19.  O 7 (s)     -0.0126 -0.0161 -0.0009  0.0001 -0.0046  0.0003 -0.0059  0.0026
  20.  O 7 (s)     -0.0403 -0.1275  0.0045  0.0016  0.0144 -0.0059  0.0434 -0.0142
  21.  O 7 (px)    -0.0606 -0.0363 -0.0937  0.0354  0.0412  0.0026 -0.0142 -0.6994
  22.  O 7 (py)    -0.0533 -0.2866 -0.0175  0.0102 -0.1071  0.0201 -0.1072  0.0888
  23.  O 7 (pz)    -0.2978 -0.4578 -0.0057  0.0239 -0.0324 -0.0151  0.0490  0.0147

           AO         17      18      19      20      21      22      23
      ------------ ------- ------- ------- ------- ------- ------- -------
   1.  C 1 (s)     -0.0526  0.0026 -0.0022  0.0065 -0.0059 -0.0526 -0.0026
   2.  C 1 (s)      0.2358  0.0015  0.0055 -0.0062  0.0260  0.2358 -0.0015
   3.  C 1 (px)     0.0121 -0.0116 -0.0009  0.0051 -0.0612  0.0121  0.0116
   4.  C 1 (py)     0.2948 -0.0373  0.0059 -0.0105  0.0377  0.2948  0.0373
   5.  C 1 (pz)    -0.0346  0.0248  0.0113 -0.0483  0.0200  0.0346  0.0248
   6.  N 2 (s)      0.0486 -0.1012  0.0026  0.0349  0.0069  0.0486  0.1012
   7.  N 2 (s)     -0.1721  0.3674  0.0277 -0.3268 -0.0260 -0.1721 -0.3674
   8.  N 2 (px)    -0.0669  0.0376 -0.0016 -0.0041  0.5437 -0.0669 -0.0376
   9.  N 2 (py)    -0.0533  0.2978 -0.0126 -0.0403 -0.0606 -0.0533 -0.2978
  10.  N 2 (pz)     0.2866 -0.4578 -0.0161 -0.1275 -0.0363 -0.2866 -0.4578
  11.  H 3 (s)     -0.0175  0.0057 -0.0009  0.0045 -0.0937 -0.0175 -0.0057
  12.  H 4 (s)     -0.1071  0.0324  0.0001  0.0016  0.0354  0.0102  0.0239
  13.  H 5 (s)      0.0102 -0.0239 -0.0046  0.0144  0.0412 -0.1071 -0.0324
  14.  O 6 (s)     -0.0417  0.0879  0.0003 -0.0059  0.0026  0.0201 -0.0151
  15.  O 6 (s)      0.2212 -0.4670 -0.0059  0.0434 -0.0142 -0.1072  0.0490
  16.  O 6 (px)     0.0363  0.0602  0.0026 -0.0142 -0.6994  0.0888  0.0147
  17.  O 6 (py)     1.6903  0.4978  0.0201 -0.1072  0.0888  0.1193  0.1274
  18.  O 6 (pz)     0.4978  0.9295  0.0151 -0.0490 -0.0147 -0.1274  0.3159
  19.  O 7 (s)      0.0201  0.0151  2.1138 -0.4864 -0.0049 -0.0417 -0.0879
  20.  O 7 (s)     -0.1072 -0.0490 -0.4864  2.1597  0.0261  0.2212  0.4670
  21.  O 7 (px)     0.0888 -0.0147 -0.0049  0.0261  1.3098  0.0363 -0.0602
  22.  O 7 (py)     0.1193 -0.1274 -0.0417  0.2212  0.0363  1.6903 -0.4978
  23.  O 7 (pz)     0.1274  0.3159 -0.0879  0.4670 -0.0602 -0.4978  0.9295


 AO density matrix:

           AO          1       2       3       4       5       6       7       8
      ------------ ------- ------- ------- ------- ------- ------- ------- -------
   1.  C 1 (s)      1.9995  0.5049  0.0003  0.0025  0.0000  0.0001  0.0425 -0.0055
   2.  C 1 (s)      0.5049  1.8617 -0.0062 -0.0711  0.0000  0.0450  0.6008 -0.0546
   3.  C 1 (px)     0.0003 -0.0062  1.6428 -0.0220  0.0000  0.0056  0.0623  0.3392
   4.  C 1 (py)     0.0025 -0.0711 -0.0220  1.3680  0.0000  0.0714  0.8158 -0.1051
   5.  C 1 (pz)     0.0000  0.0000  0.0000  0.0000  1.6528  0.0000  0.0000  0.0000
   6.  N 2 (s)      0.0001  0.0450  0.0056  0.0714  0.0000  1.9997  0.4755  0.0001
   7.  N 2 (s)      0.0425  0.6008  0.0623  0.8158  0.0000  0.4755  1.8857 -0.0018
   8.  N 2 (px)    -0.0055 -0.0546  0.3392 -0.1051  0.0000  0.0001 -0.0018  1.4635
   9.  N 2 (py)    -0.0718 -0.6933 -0.0954 -0.9149  0.0000  0.0004 -0.0283  0.0187
  10.  N 2 (pz)     0.0000  0.0000  0.0000  0.0000  0.3063  0.0000  0.0000  0.0000
  11.  H 3 (s)      0.1175  1.0923  1.1570 -0.4680  0.0000  0.0104  0.1656  0.1322
  12.  H 4 (s)      0.1183  1.0973 -0.6067 -0.3503  1.0333  0.0103  0.1629 -0.0837
  13.  H 5 (s)      0.1183  1.0973 -0.6067 -0.3503 -1.0333  0.0103  0.1629 -0.0837
  14.  O 6 (s)      0.0000  0.0032  0.0005  0.0065 -0.0034  0.0001  0.0543  0.0047
  15.  O 6 (s)      0.0006  0.0737  0.0103  0.1079 -0.0573  0.0499  0.6437  0.0439
  16.  O 6 (px)    -0.0004 -0.0029  0.0156  0.0061  0.0031 -0.0042 -0.0466  0.8462
  17.  O 6 (py)    -0.0033 -0.0493 -0.0072  0.0020  0.0896 -0.0357 -0.3590 -0.0767
  18.  O 6 (pz)     0.0012  0.0406  0.0001  0.0388 -0.0210  0.0700  0.7193  0.0678
  19.  O 7 (s)      0.0000  0.0032  0.0005  0.0065  0.0034  0.0001  0.0543  0.0047
  20.  O 7 (s)      0.0006  0.0737  0.0103  0.1079  0.0573  0.0499  0.6437  0.0439
  21.  O 7 (px)    -0.0004 -0.0029  0.0156  0.0061 -0.0031 -0.0042 -0.0466  0.8462
  22.  O 7 (py)    -0.0033 -0.0493 -0.0072  0.0020 -0.0896 -0.0357 -0.3590 -0.0767
  23.  O 7 (pz)    -0.0012 -0.0406 -0.0001 -0.0388 -0.0210 -0.0700 -0.7193 -0.0678

           AO          9      10      11      12      13      14      15      16
      ------------ ------- ------- ------- ------- ------- ------- ------- -------
   1.  C 1 (s)     -0.0718  0.0000  0.1175  0.1183  0.1183  0.0000  0.0006 -0.0004
   2.  C 1 (s)     -0.6933  0.0000  1.0923  1.0973  1.0973  0.0032  0.0737 -0.0029
   3.  C 1 (px)    -0.0954  0.0000  1.1570 -0.6067 -0.6067  0.0005  0.0103  0.0156
   4.  C 1 (py)    -0.9149  0.0000 -0.4680 -0.3503 -0.3503  0.0065  0.1079  0.0061
   5.  C 1 (pz)     0.0000  0.3063  0.0000  1.0333 -1.0333 -0.0034 -0.0573  0.0031
   6.  N 2 (s)      0.0004  0.0000  0.0104  0.0103  0.0103  0.0001  0.0499 -0.0042
   7.  N 2 (s)     -0.0283  0.0000  0.1656  0.1629  0.1629  0.0543  0.6437 -0.0466
   8.  N 2 (px)     0.0187  0.0000  0.1322 -0.0837 -0.0837  0.0047  0.0439  0.8462
   9.  N 2 (py)     1.6622  0.0000 -0.1873 -0.1675 -0.1675  0.0400  0.3661 -0.0724
  10.  N 2 (pz)     0.0000  1.6683  0.0000  0.1092 -0.1092 -0.0794 -0.7123  0.0660
  11.  H 3 (s)     -0.1873  0.0000  1.6088  0.3253  0.3253  0.0009  0.0248 -0.0570
  12.  H 4 (s)     -0.1675  0.1092  0.3253  1.6116  0.3090 -0.0001  0.0131  0.0293
  13.  H 5 (s)     -0.1675 -0.1092  0.3253  0.3090  1.6116  0.0030  0.0576  0.0094
  14.  O 6 (s)      0.0400 -0.0794  0.0009 -0.0001  0.0030  1.9999  0.4746 -0.0004
  15.  O 6 (s)      0.3661 -0.7123  0.0248  0.0131  0.0576  0.4746  1.9867  0.0040
  16.  O 6 (px)    -0.0724  0.0660 -0.0570  0.0293  0.0094 -0.0004  0.0040  1.5171
  17.  O 6 (py)     0.1625  0.5534 -0.0240 -0.0439 -0.0585 -0.0031  0.0361  0.0351
  18.  O 6 (pz)     0.5697 -0.6479  0.0177  0.0331 -0.0137  0.0064 -0.0735  0.0242
  19.  O 7 (s)      0.0400  0.0794  0.0009  0.0030 -0.0001  0.0000  0.0005  0.0001
  20.  O 7 (s)      0.3661  0.7123  0.0248  0.0576  0.0131  0.0005  0.0425 -0.0017
  21.  O 7 (px)    -0.0724 -0.0660 -0.0570  0.0094  0.0293  0.0001 -0.0017 -0.4648
  22.  O 7 (py)     0.1625 -0.5534 -0.0240 -0.0585 -0.0439  0.0007 -0.0109  0.0537
  23.  O 7 (pz)    -0.5697 -0.6479 -0.0177  0.0137 -0.0331 -0.0025 -0.0595  0.0015

           AO         17      18      19      20      21      22      23
      ------------ ------- ------- ------- ------- ------- ------- -------
   1.  C 1 (s)     -0.0033  0.0012  0.0000  0.0006 -0.0004 -0.0033 -0.0012
   2.  C 1 (s)     -0.0493  0.0406  0.0032  0.0737 -0.0029 -0.0493 -0.0406
   3.  C 1 (px)    -0.0072  0.0001  0.0005  0.0103  0.0156 -0.0072 -0.0001
   4.  C 1 (py)     0.0020  0.0388  0.0065  0.1079  0.0061  0.0020 -0.0388
   5.  C 1 (pz)     0.0896 -0.0210  0.0034  0.0573 -0.0031 -0.0896 -0.0210
   6.  N 2 (s)     -0.0357  0.0700  0.0001  0.0499 -0.0042 -0.0357 -0.0700
   7.  N 2 (s)     -0.3590  0.7193  0.0543  0.6437 -0.0466 -0.3590 -0.7193
   8.  N 2 (px)    -0.0767  0.0678  0.0047  0.0439  0.8462 -0.0767 -0.0678
   9.  N 2 (py)     0.1625  0.5697  0.0400  0.3661 -0.0724  0.1625 -0.5697
  10.  N 2 (pz)     0.5534 -0.6479  0.0794  0.7123 -0.0660 -0.5534 -0.6479
  11.  H 3 (s)     -0.0240  0.0177  0.0009  0.0248 -0.0570 -0.0240 -0.0177
  12.  H 4 (s)     -0.0439  0.0331  0.0030  0.0576  0.0094 -0.0585  0.0137
  13.  H 5 (s)     -0.0585 -0.0137 -0.0001  0.0131  0.0293 -0.0439 -0.0331
  14.  O 6 (s)     -0.0031  0.0064  0.0000  0.0005  0.0001  0.0007 -0.0025
  15.  O 6 (s)      0.0361 -0.0735  0.0005  0.0425 -0.0017 -0.0109 -0.0595
  16.  O 6 (px)     0.0351  0.0242  0.0001 -0.0017 -0.4648  0.0537  0.0015
  17.  O 6 (py)     1.8665  0.1942  0.0007 -0.0109  0.0537  0.0404  0.0223
  18.  O 6 (pz)     0.1942  1.5792  0.0025  0.0595 -0.0015 -0.0223  0.0195
  19.  O 7 (s)      0.0007  0.0025  1.9999  0.4746 -0.0004 -0.0031 -0.0064
  20.  O 7 (s)     -0.0109  0.0595  0.4746  1.9867  0.0040  0.0361  0.0735
  21.  O 7 (px)     0.0537 -0.0015 -0.0004  0.0040  1.5171  0.0351 -0.0242
  22.  O 7 (py)     0.0404 -0.0223 -0.0031  0.0361  0.0351  1.8665 -0.1942
  23.  O 7 (pz)     0.0223  0.0195 -0.0064  0.0735 -0.0242 -0.1942  1.5792


 MO density matrix:

      MO     1       2       3       4       5       6       7       8       9
     ---- ------  ------  ------  ------  ------  ------  ------  ------  ------
   1.     2.0000  0.0000  0.0000  0.0000  0.0000  0.0000  0.0000  0.0000  0.0000
   2.     0.0000  2.0000  0.0000  0.0000  0.0000  0.0000  0.0000  0.0000  0.0000
   3.     0.0000  0.0000  2.0000  0.0000  0.0000  0.0000  0.0000  0.0000  0.0000
   4.     0.0000  0.0000  0.0000  2.0000  0.0000  0.0000  0.0000  0.0000  0.0000
   5.     0.0000  0.0000  0.0000  0.0000  2.0000  0.0000  0.0000  0.0000  0.0000
   6.     0.0000  0.0000  0.0000  0.0000  0.0000  2.0000  0.0000  0.0000  0.0000
   7.     0.0000  0.0000  0.0000  0.0000  0.0000  0.0000  2.0000  0.0000  0.0000
   8.     0.0000  0.0000  0.0000  0.0000  0.0000  0.0000  0.0000  2.0000  0.0000
   9.     0.0000  0.0000  0.0000  0.0000  0.0000  0.0000  0.0000  0.0000  2.0000
  10.     0.0000  0.0000  0.0000  0.0000  0.0000  0.0000  0.0000  0.0000  0.0000
  11.     0.0000  0.0000  0.0000  0.0000  0.0000  0.0000  0.0000  0.0000  0.0000
  12.     0.0000  0.0000  0.0000  0.0000  0.0000  0.0000  0.0000  0.0000  0.0000
  13.     0.0000  0.0000  0.0000  0.0000  0.0000  0.0000  0.0000  0.0000  0.0000
  14.     0.0000  0.0000  0.0000  0.0000  0.0000  0.0000  0.0000  0.0000  0.0000
  15.     0.0000  0.0000  0.0000  0.0000  0.0000  0.0000  0.0000  0.0000  0.0000
  16.     0.0000  0.0000  0.0000  0.0000  0.0000  0.0000  0.0000  0.0000  0.0000
  17.     0.0000  0.0000  0.0000  0.0000  0.0000  0.0000  0.0000  0.0000  0.0000
  18.     0.0000  0.0000  0.0000  0.0000  0.0000  0.0000  0.0000  0.0000  0.0000
  19.     0.0000  0.0000  0.0000  0.0000  0.0000  0.0000  0.0000  0.0000  0.0000
  20.     0.0000  0.0000  0.0000  0.0000  0.0000  0.0000  0.0000  0.0000  0.0000
  21.     0.0000  0.0000  0.0000  0.0000  0.0000  0.0000  0.0000  0.0000  0.0000
  22.     0.0000  0.0000  0.0000  0.0000  0.0000  0.0000  0.0000  0.0000  0.0000
  23.     0.0000  0.0000  0.0000  0.0000  0.0000  0.0000  0.0000  0.0000  0.0000

      MO    10      11      12      13      14      15      16      17      18
     ---- ------  ------  ------  ------  ------  ------  ------  ------  ------
   1.     0.0000  0.0000  0.0000  0.0000  0.0000  0.0000  0.0000  0.0000  0.0000
   2.     0.0000  0.0000  0.0000  0.0000  0.0000  0.0000  0.0000  0.0000  0.0000
   3.     0.0000  0.0000  0.0000  0.0000  0.0000  0.0000  0.0000  0.0000  0.0000
   4.     0.0000  0.0000  0.0000  0.0000  0.0000  0.0000  0.0000  0.0000  0.0000
   5.     0.0000  0.0000  0.0000  0.0000  0.0000  0.0000  0.0000  0.0000  0.0000
   6.     0.0000  0.0000  0.0000  0.0000  0.0000  0.0000  0.0000  0.0000  0.0000
   7.     0.0000  0.0000  0.0000  0.0000  0.0000  0.0000  0.0000  0.0000  0.0000
   8.     0.0000  0.0000  0.0000  0.0000  0.0000  0.0000  0.0000  0.0000  0.0000
   9.     0.0000  0.0000  0.0000  0.0000  0.0000  0.0000  0.0000  0.0000  0.0000
  10.     2.0000  0.0000  0.0000  0.0000  0.0000  0.0000  0.0000  0.0000  0.0000
  11.     0.0000  2.0000  0.0000  0.0000  0.0000  0.0000  0.0000  0.0000  0.0000
  12.     0.0000  0.0000  2.0000  0.0000  0.0000  0.0000  0.0000  0.0000  0.0000
  13.     0.0000  0.0000  0.0000  2.0000  0.0000  0.0000  0.0000  0.0000  0.0000
  14.     0.0000  0.0000  0.0000  0.0000  2.0000  0.0000  0.0000  0.0000  0.0000
  15.     0.0000  0.0000  0.0000  0.0000  0.0000  2.0000  0.0000  0.0000  0.0000
  16.     0.0000  0.0000  0.0000  0.0000  0.0000  0.0000  2.0000  0.0000  0.0000
  17.     0.0000  0.0000  0.0000  0.0000  0.0000  0.0000  0.0000  0.0000  0.0000
  18.     0.0000  0.0000  0.0000  0.0000  0.0000  0.0000  0.0000  0.0000  0.0000
  19.     0.0000  0.0000  0.0000  0.0000  0.0000  0.0000  0.0000  0.0000  0.0000
  20.     0.0000  0.0000  0.0000  0.0000  0.0000  0.0000  0.0000  0.0000  0.0000
  21.     0.0000  0.0000  0.0000  0.0000  0.0000  0.0000  0.0000  0.0000  0.0000
  22.     0.0000  0.0000  0.0000  0.0000  0.0000  0.0000  0.0000  0.0000  0.0000
  23.     0.0000  0.0000  0.0000  0.0000  0.0000  0.0000  0.0000  0.0000  0.0000

      MO    19      20      21      22      23
     ---- ------  ------  ------  ------  ------
   1.     0.0000  0.0000  0.0000  0.0000  0.0000
   2.     0.0000  0.0000  0.0000  0.0000  0.0000
   3.     0.0000  0.0000  0.0000  0.0000  0.0000
   4.     0.0000  0.0000  0.0000  0.0000  0.0000
   5.     0.0000  0.0000  0.0000  0.0000  0.0000
   6.     0.0000  0.0000  0.0000  0.0000  0.0000
   7.     0.0000  0.0000  0.0000  0.0000  0.0000
   8.     0.0000  0.0000  0.0000  0.0000  0.0000
   9.     0.0000  0.0000  0.0000  0.0000  0.0000
  10.     0.0000  0.0000  0.0000  0.0000  0.0000
  11.     0.0000  0.0000  0.0000  0.0000  0.0000
  12.     0.0000  0.0000  0.0000  0.0000  0.0000
  13.     0.0000  0.0000  0.0000  0.0000  0.0000
  14.     0.0000  0.0000  0.0000  0.0000  0.0000
  15.     0.0000  0.0000  0.0000  0.0000  0.0000
  16.     0.0000  0.0000  0.0000  0.0000  0.0000
  17.     0.0000  0.0000  0.0000  0.0000  0.0000
  18.     0.0000  0.0000  0.0000  0.0000  0.0000
  19.     0.0000  0.0000  0.0000  0.0000  0.0000
  20.     0.0000  0.0000  0.0000  0.0000  0.0000
  21.     0.0000  0.0000  0.0000  0.0000  0.0000
  22.     0.0000  0.0000  0.0000  0.0000  0.0000
  23.     0.0000  0.0000  0.0000  0.0000  0.0000


 NATURAL POPULATIONS:  Natural atomic orbital occupancies

  NAO Atom No lang   Type(AO)    Occupancy      Energy
 -------------------------------------------------------
   1    C  1  s      Cor( 1s)     2.00000     -11.12764
   2    C  1  s      Val( 2s)     1.09971      -0.25389
   3    C  1  px     Val( 2p)     1.06772      -0.01676
   4    C  1  py     Val( 2p)     0.82639       0.03456
   5    C  1  pz     Val( 2p)     1.07136      -0.01132

   6    N  2  s      Cor( 1s)     2.00000     -15.63926
   7    N  2  s      Val( 2s)     1.33348      -0.66761
   8    N  2  px     Val( 2p)     1.20829      -0.28465
   9    N  2  py     Val( 2p)     1.11980      -0.16245
  10    N  2  pz     Val( 2p)     1.04922      -0.09075

  11    H  3  s      Val( 1s)     0.91742       0.03316

  12    H  4  s      Val( 1s)     0.91681       0.03885

  13    H  5  s      Val( 1s)     0.91681       0.03885

  14    O  6  s      Cor( 1s)     2.00000     -20.18819
  15    O  6  s      Val( 2s)     1.85833      -1.04851
  16    O  6  px     Val( 2p)     1.40334      -0.19570
  17    O  6  py     Val( 2p)     1.75666      -0.29164
  18    O  6  pz     Val( 2p)     1.21817      -0.06098

  19    O  7  s      Cor( 1s)     2.00000     -20.18819
  20    O  7  s      Val( 2s)     1.85833      -1.04851
  21    O  7  px     Val( 2p)     1.40334      -0.19570
  22    O  7  py     Val( 2p)     1.75666      -0.29164
  23    O  7  pz     Val( 2p)     1.21817      -0.06098


 Summary of Natural Population Analysis:

                                     Natural Population
             Natural    ---------------------------------------------
  Atom No    Charge        Core      Valence    Rydberg      Total
 --------------------------------------------------------------------
    C  1   -0.06518      2.00000     4.06518    0.00000     6.06518
    N  2    0.28921      2.00000     4.71079    0.00000     6.71079
    H  3    0.08258      0.00000     0.91742    0.00000     0.91742
    H  4    0.08319      0.00000     0.91681    0.00000     0.91681
    H  5    0.08319      0.00000     0.91681    0.00000     0.91681
    O  6   -0.23650      2.00000     6.23650    0.00000     8.23650
    O  7   -0.23650      2.00000     6.23650    0.00000     8.23650
 ====================================================================
 * Total *  0.00000      7.99999    24.00001    0.00000    32.00000

                                 Natural Population
 ---------------------------------------------------------
   Core                       7.99999 ( 99.9999% of    8)
   Valence                   24.00001 (100.0000% of   24)
   Natural Minimal Basis     32.00000 (100.0000% of   32)
   Natural Rydberg Basis      0.00000 (  0.0000% of   32)
 ---------------------------------------------------------

    Atom No         Natural Electron Configuration
 ----------------------------------------------------------------------------
      C  1      [core]2s( 1.10)2p( 2.97)
      N  2      [core]2s( 1.33)2p( 3.38)
      H  3            1s( 0.92)
      H  4            1s( 0.92)
      H  5            1s( 0.92)
      O  6      [core]2s( 1.86)2p( 4.38)
      O  7      [core]2s( 1.86)2p( 4.38)


 PNAOs in the AO basis:

           AO          1       2       3       4       5       6       7       8
      ------------ ------- ------- ------- ------- ------- ------- ------- -------
   1.  C 1 (s)      0.9840 -0.3121  0.0000  0.0000  0.0000  0.0000  0.0000  0.0000
   2.  C 1 (s)      0.0579  1.0307  0.0000  0.0000  0.0000  0.0000  0.0000  0.0000
   3.  C 1 (px)     0.0000  0.0000  1.0000  0.0000  0.0000  0.0000  0.0000  0.0000
   4.  C 1 (py)     0.0000  0.0000  0.0000  1.0000  0.0000  0.0000  0.0000  0.0000
   5.  C 1 (pz)     0.0000  0.0000  0.0000  0.0000  1.0000  0.0000  0.0000  0.0000
   6.  N 2 (s)      0.0000  0.0000  0.0000  0.0000  0.0000  0.9879 -0.2874  0.0000
   7.  N 2 (s)      0.0000  0.0000  0.0000  0.0000  0.0000  0.0472  1.0277  0.0000
   8.  N 2 (px)     0.0000  0.0000  0.0000  0.0000  0.0000  0.0000  0.0000  1.0000
   9.  N 2 (py)     0.0000  0.0000  0.0000  0.0000  0.0000  0.0000  0.0000  0.0000
  10.  N 2 (pz)     0.0000  0.0000  0.0000  0.0000  0.0000  0.0000  0.0000  0.0000
  11.  H 3 (s)      0.0000  0.0000  0.0000  0.0000  0.0000  0.0000  0.0000  0.0000
  12.  H 4 (s)      0.0000  0.0000  0.0000  0.0000  0.0000  0.0000  0.0000  0.0000
  13.  H 5 (s)      0.0000  0.0000  0.0000  0.0000  0.0000  0.0000  0.0000  0.0000
  14.  O 6 (s)      0.0000  0.0000  0.0000  0.0000  0.0000  0.0000  0.0000  0.0000
  15.  O 6 (s)      0.0000  0.0000  0.0000  0.0000  0.0000  0.0000  0.0000  0.0000
  16.  O 6 (px)     0.0000  0.0000  0.0000  0.0000  0.0000  0.0000  0.0000  0.0000
  17.  O 6 (py)     0.0000  0.0000  0.0000  0.0000  0.0000  0.0000  0.0000  0.0000
  18.  O 6 (pz)     0.0000  0.0000  0.0000  0.0000  0.0000  0.0000  0.0000  0.0000
  19.  O 7 (s)      0.0000  0.0000  0.0000  0.0000  0.0000  0.0000  0.0000  0.0000
  20.  O 7 (s)      0.0000  0.0000  0.0000  0.0000  0.0000  0.0000  0.0000  0.0000
  21.  O 7 (px)     0.0000  0.0000  0.0000  0.0000  0.0000  0.0000  0.0000  0.0000
  22.  O 7 (py)     0.0000  0.0000  0.0000  0.0000  0.0000  0.0000  0.0000  0.0000
  23.  O 7 (pz)     0.0000  0.0000  0.0000  0.0000  0.0000  0.0000  0.0000  0.0000

           AO          9      10      11      12      13      14      15      16
      ------------ ------- ------- ------- ------- ------- ------- ------- -------
   1.  C 1 (s)      0.0000  0.0000  0.0000  0.0000  0.0000  0.0000  0.0000  0.0000
   2.  C 1 (s)      0.0000  0.0000  0.0000  0.0000  0.0000  0.0000  0.0000  0.0000
   3.  C 1 (px)     0.0000  0.0000  0.0000  0.0000  0.0000  0.0000  0.0000  0.0000
   4.  C 1 (py)     0.0000  0.0000  0.0000  0.0000  0.0000  0.0000  0.0000  0.0000
   5.  C 1 (pz)     0.0000  0.0000  0.0000  0.0000  0.0000  0.0000  0.0000  0.0000
   6.  N 2 (s)      0.0000  0.0000  0.0000  0.0000  0.0000  0.0000  0.0000  0.0000
   7.  N 2 (s)      0.0000  0.0000  0.0000  0.0000  0.0000  0.0000  0.0000  0.0000
   8.  N 2 (px)     0.0000  0.0000  0.0000  0.0000  0.0000  0.0000  0.0000  0.0000
   9.  N 2 (py)     1.0000  0.0000  0.0000  0.0000  0.0000  0.0000  0.0000  0.0000
  10.  N 2 (pz)     0.0000  1.0000  0.0000  0.0000  0.0000  0.0000  0.0000  0.0000
  11.  H 3 (s)      0.0000  0.0000  1.0000  0.0000  0.0000  0.0000  0.0000  0.0000
  12.  H 4 (s)      0.0000  0.0000  0.0000  1.0000  0.0000  0.0000  0.0000  0.0000
  13.  H 5 (s)      0.0000  0.0000  0.0000  0.0000  1.0000  0.0000  0.0000  0.0000
  14.  O 6 (s)      0.0000  0.0000  0.0000  0.0000  0.0000  0.9767 -0.3246  0.0000
  15.  O 6 (s)      0.0000  0.0000  0.0000  0.0000  0.0000  0.0842  1.0258  0.0000
  16.  O 6 (px)     0.0000  0.0000  0.0000  0.0000  0.0000  0.0000  0.0000  1.0000
  17.  O 6 (py)     0.0000  0.0000  0.0000  0.0000  0.0000  0.0000  0.0000  0.0000
  18.  O 6 (pz)     0.0000  0.0000  0.0000  0.0000  0.0000  0.0000  0.0000  0.0000
  19.  O 7 (s)      0.0000  0.0000  0.0000  0.0000  0.0000  0.0000  0.0000  0.0000
  20.  O 7 (s)      0.0000  0.0000  0.0000  0.0000  0.0000  0.0000  0.0000  0.0000
  21.  O 7 (px)     0.0000  0.0000  0.0000  0.0000  0.0000  0.0000  0.0000  0.0000
  22.  O 7 (py)     0.0000  0.0000  0.0000  0.0000  0.0000  0.0000  0.0000  0.0000
  23.  O 7 (pz)     0.0000  0.0000  0.0000  0.0000  0.0000  0.0000  0.0000  0.0000

           AO         17      18      19      20      21      22      23
      ------------ ------- ------- ------- ------- ------- ------- -------
   1.  C 1 (s)      0.0000  0.0000  0.0000  0.0000  0.0000  0.0000  0.0000
   2.  C 1 (s)      0.0000  0.0000  0.0000  0.0000  0.0000  0.0000  0.0000
   3.  C 1 (px)     0.0000  0.0000  0.0000  0.0000  0.0000  0.0000  0.0000
   4.  C 1 (py)     0.0000  0.0000  0.0000  0.0000  0.0000  0.0000  0.0000
   5.  C 1 (pz)     0.0000  0.0000  0.0000  0.0000  0.0000  0.0000  0.0000
   6.  N 2 (s)      0.0000  0.0000  0.0000  0.0000  0.0000  0.0000  0.0000
   7.  N 2 (s)      0.0000  0.0000  0.0000  0.0000  0.0000  0.0000  0.0000
   8.  N 2 (px)     0.0000  0.0000  0.0000  0.0000  0.0000  0.0000  0.0000
   9.  N 2 (py)     0.0000  0.0000  0.0000  0.0000  0.0000  0.0000  0.0000
  10.  N 2 (pz)     0.0000  0.0000  0.0000  0.0000  0.0000  0.0000  0.0000
  11.  H 3 (s)      0.0000  0.0000  0.0000  0.0000  0.0000  0.0000  0.0000
  12.  H 4 (s)      0.0000  0.0000  0.0000  0.0000  0.0000  0.0000  0.0000
  13.  H 5 (s)      0.0000  0.0000  0.0000  0.0000  0.0000  0.0000  0.0000
  14.  O 6 (s)      0.0000  0.0000  0.0000  0.0000  0.0000  0.0000  0.0000
  15.  O 6 (s)      0.0000  0.0000  0.0000  0.0000  0.0000  0.0000  0.0000
  16.  O 6 (px)     0.0000  0.0000  0.0000  0.0000  0.0000  0.0000  0.0000
  17.  O 6 (py)     1.0000  0.0000  0.0000  0.0000  0.0000  0.0000  0.0000
  18.  O 6 (pz)     0.0000  1.0000  0.0000  0.0000  0.0000  0.0000  0.0000
  19.  O 7 (s)      0.0000  0.0000  0.9767 -0.3246  0.0000  0.0000  0.0000
  20.  O 7 (s)      0.0000  0.0000  0.0842  1.0258  0.0000  0.0000  0.0000
  21.  O 7 (px)     0.0000  0.0000  0.0000  0.0000  1.0000  0.0000  0.0000
  22.  O 7 (py)     0.0000  0.0000  0.0000  0.0000  0.0000  1.0000  0.0000
  23.  O 7 (pz)     0.0000  0.0000  0.0000  0.0000  0.0000  0.0000  1.0000


 PNAO overlap matrix:

           NAO         1       2       3       4       5       6       7       8
      ------------ ------- ------- ------- ------- ------- ------- ------- -------
   1.  C 1( 1s )    1.0000  0.0000  0.0000  0.0000  0.0000  0.0032  0.0389 -0.0042
   2.  C 1( 2s )    0.0000  1.0000  0.0000  0.0000  0.0000  0.0374  0.2820 -0.0226
   3.  C 1( 2px)    0.0000  0.0000  1.0000  0.0000  0.0000  0.0042  0.0261  0.1480
   4.  C 1( 2py)    0.0000  0.0000  0.0000  1.0000  0.0000  0.0550  0.3389 -0.0349
   5.  C 1( 2pz)    0.0000  0.0000  0.0000  0.0000  1.0000  0.0000  0.0000  0.0000
   6.  N 2( 1s )    0.0032  0.0374  0.0042  0.0550  0.0000  1.0000  0.0000  0.0000
   7.  N 2( 2s )    0.0389  0.2820  0.0261  0.3389  0.0000  0.0000  1.0000  0.0000
   8.  N 2( 2px)   -0.0042 -0.0226  0.1480 -0.0349  0.0000  0.0000  0.0000  1.0000
   9.  N 2( 2py)   -0.0550 -0.2930 -0.0349 -0.3018  0.0000  0.0000  0.0000  0.0000
  10.  N 2( 2pz)    0.0000  0.0000  0.0000  0.0000  0.1507  0.0000  0.0000  0.0000
  11.  H 3( 1s )    0.0897  0.4863  0.4345 -0.1717  0.0000  0.0090  0.0867  0.0449
  12.  H 4( 1s )    0.0902  0.4879 -0.2268 -0.1260  0.3898  0.0089  0.0856 -0.0315
  13.  H 5( 1s )    0.0902  0.4879 -0.2268 -0.1260 -0.3898  0.0089  0.0856 -0.0315
  14.  O 6( 1s )    0.0003  0.0048  0.0007  0.0076 -0.0041  0.0047  0.0546  0.0042
  15.  O 6( 2s )    0.0024  0.0389  0.0049  0.0558 -0.0301  0.0404  0.3102  0.0198
  16.  O 6( 2px)   -0.0003 -0.0040  0.0138 -0.0063  0.0034 -0.0031 -0.0168  0.1706
  17.  O 6( 2py)   -0.0031 -0.0452 -0.0063 -0.0565  0.0383 -0.0261 -0.1417 -0.0119
  18.  O 6( 2pz)    0.0017  0.0244  0.0034  0.0383 -0.0064  0.0513  0.2784  0.0233
  19.  O 7( 1s )    0.0003  0.0048  0.0007  0.0076  0.0041  0.0047  0.0546  0.0042
  20.  O 7( 2s )    0.0024  0.0389  0.0049  0.0558  0.0301  0.0404  0.3102  0.0198
  21.  O 7( 2px)   -0.0003 -0.0040  0.0138 -0.0063 -0.0034 -0.0031 -0.0168  0.1706
  22.  O 7( 2py)   -0.0031 -0.0452 -0.0063 -0.0565 -0.0383 -0.0261 -0.1417 -0.0119
  23.  O 7( 2pz)   -0.0017 -0.0244 -0.0034 -0.0383 -0.0064 -0.0513 -0.2784 -0.0233

           NAO         9      10      11      12      13      14      15      16
      ------------ ------- ------- ------- ------- ------- ------- ------- -------
   1.  C 1( 1s )   -0.0550  0.0000  0.0897  0.0902  0.0902  0.0003  0.0024 -0.0003
   2.  C 1( 2s )   -0.2930  0.0000  0.4863  0.4879  0.4879  0.0048  0.0389 -0.0040
   3.  C 1( 2px)   -0.0349  0.0000  0.4345 -0.2268 -0.2268  0.0007  0.0049  0.0138
   4.  C 1( 2py)   -0.3018  0.0000 -0.1717 -0.1260 -0.1260  0.0076  0.0558 -0.0063
   5.  C 1( 2pz)    0.0000  0.1507  0.0000  0.3898 -0.3898 -0.0041 -0.0301  0.0034
   6.  N 2( 1s )    0.0000  0.0000  0.0090  0.0089  0.0089  0.0047  0.0404 -0.0031
   7.  N 2( 2s )    0.0000  0.0000  0.0867  0.0856  0.0856  0.0546  0.3102 -0.0168
   8.  N 2( 2px)    0.0000  0.0000  0.0449 -0.0315 -0.0315  0.0042  0.0198  0.1706
   9.  N 2( 2py)    1.0000  0.0000 -0.0939 -0.0873 -0.0873  0.0349  0.1664 -0.0119
  10.  N 2( 2pz)    0.0000  1.0000  0.0000  0.0445 -0.0445 -0.0687 -0.3269  0.0233
  11.  H 3( 1s )   -0.0939  0.0000  1.0000  0.1667  0.1667  0.0015  0.0123  0.0048
  12.  H 4( 1s )   -0.0873  0.0445  0.1667  1.0000  0.1616  0.0005  0.0049 -0.0015
  13.  H 5( 1s )   -0.0873 -0.0445  0.1667  0.1616  1.0000  0.0039  0.0290 -0.0101
  14.  O 6( 1s )    0.0349 -0.0687  0.0015  0.0005  0.0039  1.0000  0.0000  0.0000
  15.  O 6( 2s )    0.1664 -0.3269  0.0123  0.0049  0.0290  0.0000  1.0000  0.0000
  16.  O 6( 2px)   -0.0119  0.0233  0.0048 -0.0015 -0.0101  0.0000  0.0000  1.0000
  17.  O 6( 2py)    0.0723  0.1961 -0.0140 -0.0051 -0.0335  0.0000  0.0000  0.0000
  18.  O 6( 2pz)    0.1961 -0.2132  0.0063  0.0044  0.0029  0.0000  0.0000  0.0000
  19.  O 7( 1s )    0.0349  0.0687  0.0015  0.0039  0.0005  0.0002  0.0021  0.0000
  20.  O 7( 2s )    0.1664  0.3269  0.0123  0.0290  0.0049  0.0021  0.0217  0.0000
  21.  O 7( 2px)   -0.0119 -0.0233  0.0048 -0.0101 -0.0015  0.0000  0.0000  0.0079
  22.  O 7( 2py)    0.0723 -0.1961 -0.0140 -0.0335 -0.0051  0.0000  0.0000  0.0000
  23.  O 7( 2pz)   -0.1961 -0.2132 -0.0063 -0.0029 -0.0044 -0.0036 -0.0348  0.0000

           NAO        17      18      19      20      21      22      23
      ------------ ------- ------- ------- ------- ------- ------- -------
   1.  C 1( 1s )   -0.0031  0.0017  0.0003  0.0024 -0.0003 -0.0031 -0.0017
   2.  C 1( 2s )   -0.0452  0.0244  0.0048  0.0389 -0.0040 -0.0452 -0.0244
   3.  C 1( 2px)   -0.0063  0.0034  0.0007  0.0049  0.0138 -0.0063 -0.0034
   4.  C 1( 2py)   -0.0565  0.0383  0.0076  0.0558 -0.0063 -0.0565 -0.0383
   5.  C 1( 2pz)    0.0383 -0.0064  0.0041  0.0301 -0.0034 -0.0383 -0.0064
   6.  N 2( 1s )   -0.0261  0.0513  0.0047  0.0404 -0.0031 -0.0261 -0.0513
   7.  N 2( 2s )   -0.1417  0.2784  0.0546  0.3102 -0.0168 -0.1417 -0.2784
   8.  N 2( 2px)   -0.0119  0.0233  0.0042  0.0198  0.1706 -0.0119 -0.0233
   9.  N 2( 2py)    0.0723  0.1961  0.0349  0.1664 -0.0119  0.0723 -0.1961
  10.  N 2( 2pz)    0.1961 -0.2132  0.0687  0.3269 -0.0233 -0.1961 -0.2132
  11.  H 3( 1s )   -0.0140  0.0063  0.0015  0.0123  0.0048 -0.0140 -0.0063
  12.  H 4( 1s )   -0.0051  0.0044  0.0039  0.0290 -0.0101 -0.0335 -0.0029
  13.  H 5( 1s )   -0.0335  0.0029  0.0005  0.0049 -0.0015 -0.0051 -0.0044
  14.  O 6( 1s )    0.0000  0.0000  0.0002  0.0021  0.0000  0.0000 -0.0036
  15.  O 6( 2s )    0.0000  0.0000  0.0021  0.0217  0.0000  0.0000 -0.0348
  16.  O 6( 2px)    0.0000  0.0000  0.0000  0.0000  0.0079  0.0000  0.0000
  17.  O 6( 2py)    1.0000  0.0000  0.0000  0.0000  0.0000  0.0079  0.0000
  18.  O 6( 2pz)    0.0000  1.0000  0.0036  0.0348  0.0000  0.0000 -0.0523
  19.  O 7( 1s )    0.0000  0.0036  1.0000  0.0000  0.0000  0.0000  0.0000
  20.  O 7( 2s )    0.0000  0.0348  0.0000  1.0000  0.0000  0.0000  0.0000
  21.  O 7( 2px)    0.0000  0.0000  0.0000  0.0000  1.0000  0.0000  0.0000
  22.  O 7( 2py)    0.0079  0.0000  0.0000  0.0000  0.0000  1.0000  0.0000
  23.  O 7( 2pz)    0.0000 -0.0523  0.0000  0.0000  0.0000  0.0000  1.0000


 PNAO density matrix:

           NAO         1       2       3       4       5       6       7       8
      ------------ ------- ------- ------- ------- ------- ------- ------- -------
   1.  C 1( 1s )    2.0000  0.0000  0.0000 -0.0016  0.0000  0.0063  0.0780 -0.0086
   2.  C 1( 2s )    0.0000  1.8478 -0.0065 -0.0741  0.0000  0.0744  0.6094 -0.0545
   3.  C 1( 2px)    0.0000 -0.0065  1.6428 -0.0220  0.0000  0.0084  0.0624  0.3392
   4.  C 1( 2py)   -0.0016 -0.0741 -0.0220  1.3680  0.0000  0.1090  0.8179 -0.1051
   5.  C 1( 2pz)    0.0000  0.0000  0.0000  0.0000  1.6528  0.0000  0.0000  0.0000
   6.  N 2( 1s )    0.0063  0.0744  0.0084  0.1090  0.0000  2.0000  0.0000  0.0000
   7.  N 2( 2s )    0.0780  0.6094  0.0624  0.8179  0.0000  0.0000  1.8760 -0.0019
   8.  N 2( 2px)   -0.0086 -0.0545  0.3392 -0.1051  0.0000  0.0000 -0.0019  1.4635
   9.  N 2( 2py)   -0.1108 -0.6922 -0.0954 -0.9149  0.0000 -0.0010 -0.0292  0.0187
  10.  N 2( 2pz)    0.0000  0.0000  0.0000  0.0000  0.3063  0.0000  0.0000  0.0000
  11.  H 3( 1s )    0.1789  1.0892  1.1570 -0.4680  0.0000  0.0180  0.1672  0.1322
  12.  H 4( 1s )    0.1800  1.0940 -0.6067 -0.3503  1.0333  0.0178  0.1644 -0.0837
  13.  H 5( 1s )    0.1800  1.0940 -0.6067 -0.3503 -1.0333  0.0178  0.1644 -0.0837
  14.  O 6( 1s )    0.0006  0.0096  0.0014  0.0154 -0.0081  0.0093  0.1089  0.0083
  15.  O 6( 2s )    0.0049  0.0767  0.0104  0.1086 -0.0577  0.0809  0.6458  0.0435
  16.  O 6( 2px)   -0.0005 -0.0029  0.0156  0.0061  0.0031 -0.0063 -0.0467  0.8462
  17.  O 6( 2py)   -0.0061 -0.0497 -0.0072  0.0020  0.0896 -0.0522 -0.3587 -0.0767
  18.  O 6( 2pz)    0.0035  0.0415  0.0001  0.0388 -0.0210  0.1031  0.7191  0.0678
  19.  O 7( 1s )    0.0006  0.0096  0.0014  0.0154  0.0081  0.0093  0.1089  0.0083
  20.  O 7( 2s )    0.0049  0.0767  0.0104  0.1086  0.0577  0.0809  0.6458  0.0435
  21.  O 7( 2px)   -0.0005 -0.0029  0.0156  0.0061 -0.0031 -0.0063 -0.0467  0.8462
  22.  O 7( 2py)   -0.0061 -0.0497 -0.0072  0.0020 -0.0896 -0.0522 -0.3587 -0.0767
  23.  O 7( 2pz)   -0.0035 -0.0415 -0.0001 -0.0388 -0.0210 -0.1031 -0.7191 -0.0678

           NAO         9      10      11      12      13      14      15      16
      ------------ ------- ------- ------- ------- ------- ------- ------- -------
   1.  C 1( 1s )   -0.1108  0.0000  0.1789  0.1800  0.1800  0.0006  0.0049 -0.0005
   2.  C 1( 2s )   -0.6922  0.0000  1.0892  1.0940  1.0940  0.0096  0.0767 -0.0029
   3.  C 1( 2px)   -0.0954  0.0000  1.1570 -0.6067 -0.6067  0.0014  0.0104  0.0156
   4.  C 1( 2py)   -0.9149  0.0000 -0.4680 -0.3503 -0.3503  0.0154  0.1086  0.0061
   5.  C 1( 2pz)    0.0000  0.3063  0.0000  1.0333 -1.0333 -0.0081 -0.0577  0.0031
   6.  N 2( 1s )   -0.0010  0.0000  0.0180  0.0178  0.0178  0.0093  0.0809 -0.0063
   7.  N 2( 2s )   -0.0292  0.0000  0.1672  0.1644  0.1644  0.1089  0.6458 -0.0467
   8.  N 2( 2px)    0.0187  0.0000  0.1322 -0.0837 -0.0837  0.0083  0.0435  0.8462
   9.  N 2( 2py)    1.6622  0.0000 -0.1873 -0.1675 -0.1675  0.0699  0.3625 -0.0724
  10.  N 2( 2pz)    0.0000  1.6683  0.0000  0.1092 -0.1092 -0.1375 -0.7049  0.0660
  11.  H 3( 1s )   -0.1873  0.0000  1.6088  0.3253  0.3253  0.0030  0.0251 -0.0570
  12.  H 4( 1s )   -0.1675  0.1092  0.3253  1.6116  0.3090  0.0010  0.0135  0.0293
  13.  H 5( 1s )   -0.1675 -0.1092  0.3253  0.3090  1.6116  0.0078  0.0581  0.0094
  14.  O 6( 1s )    0.0699 -0.1375  0.0030  0.0010  0.0078  2.0000  0.0000  0.0000
  15.  O 6( 2s )    0.3625 -0.7049  0.0251  0.0135  0.0581  0.0000  1.9852  0.0042
  16.  O 6( 2px)   -0.0724  0.0660 -0.0570  0.0293  0.0094  0.0000  0.0042  1.5171
  17.  O 6( 2py)    0.1625  0.5534 -0.0240 -0.0439 -0.0585  0.0000  0.0381  0.0351
  18.  O 6( 2pz)    0.5697 -0.6479  0.0177  0.0331 -0.0137  0.0001 -0.0775  0.0242
  19.  O 7( 1s )    0.0699  0.1375  0.0030  0.0078  0.0010  0.0004  0.0042 -0.0001
  20.  O 7( 2s )    0.3625  0.7049  0.0251  0.0581  0.0135  0.0042  0.0444 -0.0018
  21.  O 7( 2px)   -0.0724 -0.0660 -0.0570  0.0094  0.0293 -0.0001 -0.0018 -0.4648
  22.  O 7( 2py)    0.1625 -0.5534 -0.0240 -0.0585 -0.0439 -0.0002 -0.0114  0.0537
  23.  O 7( 2pz)   -0.5697 -0.6479 -0.0177  0.0137 -0.0331 -0.0075 -0.0602  0.0015

           NAO        17      18      19      20      21      22      23
      ------------ ------- ------- ------- ------- ------- ------- -------
   1.  C 1( 1s )   -0.0061  0.0035  0.0006  0.0049 -0.0005 -0.0061 -0.0035
   2.  C 1( 2s )   -0.0497  0.0415  0.0096  0.0767 -0.0029 -0.0497 -0.0415
   3.  C 1( 2px)   -0.0072  0.0001  0.0014  0.0104  0.0156 -0.0072 -0.0001
   4.  C 1( 2py)    0.0020  0.0388  0.0154  0.1086  0.0061  0.0020 -0.0388
   5.  C 1( 2pz)    0.0896 -0.0210  0.0081  0.0577 -0.0031 -0.0896 -0.0210
   6.  N 2( 1s )   -0.0522  0.1031  0.0093  0.0809 -0.0063 -0.0522 -0.1031
   7.  N 2( 2s )   -0.3587  0.7191  0.1089  0.6458 -0.0467 -0.3587 -0.7191
   8.  N 2( 2px)   -0.0767  0.0678  0.0083  0.0435  0.8462 -0.0767 -0.0678
   9.  N 2( 2py)    0.1625  0.5697  0.0699  0.3625 -0.0724  0.1625 -0.5697
  10.  N 2( 2pz)    0.5534 -0.6479  0.1375  0.7049 -0.0660 -0.5534 -0.6479
  11.  H 3( 1s )   -0.0240  0.0177  0.0030  0.0251 -0.0570 -0.0240 -0.0177
  12.  H 4( 1s )   -0.0439  0.0331  0.0078  0.0581  0.0094 -0.0585  0.0137
  13.  H 5( 1s )   -0.0585 -0.0137  0.0010  0.0135  0.0293 -0.0439 -0.0331
  14.  O 6( 1s )    0.0000  0.0001  0.0004  0.0042 -0.0001 -0.0002 -0.0075
  15.  O 6( 2s )    0.0381 -0.0775  0.0042  0.0444 -0.0018 -0.0114 -0.0602
  16.  O 6( 2px)    0.0351  0.0242 -0.0001 -0.0018 -0.4648  0.0537  0.0015
  17.  O 6( 2py)    1.8665  0.1942 -0.0002 -0.0114  0.0537  0.0404  0.0223
  18.  O 6( 2pz)    0.1942  1.5792  0.0075  0.0602 -0.0015 -0.0223  0.0195
  19.  O 7( 1s )   -0.0002  0.0075  2.0000  0.0000  0.0000  0.0000 -0.0001
  20.  O 7( 2s )   -0.0114  0.0602  0.0000  1.9852  0.0042  0.0381  0.0775
  21.  O 7( 2px)    0.0537 -0.0015  0.0000  0.0042  1.5171  0.0351 -0.0242
  22.  O 7( 2py)    0.0404 -0.0223  0.0000  0.0381  0.0351  1.8665 -0.1942
  23.  O 7( 2pz)    0.0223  0.0195 -0.0001  0.0775 -0.0242 -0.1942  1.5792


 NAOs in the AO basis:

           AO          1       2       3       4       5       6       7       8
      ------------ ------- ------- ------- ------- ------- ------- ------- -------
   1.  C 1 (s)      0.9840 -0.3569 -0.0005 -0.0015  0.0000 -0.0016  0.0122 -0.0003
   2.  C 1 (s)      0.0579  1.5272  0.0021 -0.0150  0.0000 -0.0001 -0.1983  0.0181
   3.  C 1 (px)     0.0000  0.0017  1.1863 -0.0023  0.0000  0.0000 -0.0147 -0.0774
   4.  C 1 (py)     0.0000 -0.0120 -0.0023  1.1508  0.0000  0.0000 -0.2030  0.0219
   5.  C 1 (pz)     0.0000  0.0000  0.0000  0.0000  1.1949  0.0000  0.0000  0.0000
   6.  N 2 (s)     -0.0016  0.0098  0.0003  0.0067  0.0000  0.9879 -0.3187 -0.0006
   7.  N 2 (s)     -0.0001 -0.2001 -0.0184 -0.2548  0.0000  0.0472  1.3588  0.0068
   8.  N 2 (px)     0.0000  0.0149 -0.0796  0.0225  0.0000  0.0000  0.0056  1.0337
   9.  N 2 (py)     0.0000  0.1887  0.0228  0.2115  0.0000  0.0000  0.0148  0.0138
  10.  N 2 (pz)     0.0000  0.0000  0.0000  0.0000 -0.0910  0.0000  0.0000  0.0000
  11.  H 3 (s)      0.0000 -0.3217 -0.3326  0.1250  0.0000  0.0000 -0.0041  0.0011
  12.  H 4 (s)      0.0000 -0.3239  0.1737  0.0904 -0.2997  0.0000 -0.0009 -0.0012
  13.  H 5 (s)      0.0000 -0.3239  0.1737  0.0904  0.2997  0.0000 -0.0009 -0.0012
  14.  O 6 (s)     -0.0001 -0.0009  0.0002 -0.0005  0.0007 -0.0023  0.0057  0.0000
  15.  O 6 (s)      0.0000 -0.0001 -0.0024 -0.0081 -0.0099 -0.0002 -0.2373 -0.0167
  16.  O 6 (px)     0.0000 -0.0012  0.0041  0.0000  0.0015  0.0000  0.0104 -0.0899
  17.  O 6 (py)     0.0000 -0.0066  0.0018  0.0001 -0.0051  0.0000  0.0886  0.0074
  18.  O 6 (pz)     0.0000 -0.0042  0.0003 -0.0035 -0.0117  0.0000 -0.1867 -0.0161
  19.  O 7 (s)     -0.0001 -0.0009  0.0002 -0.0005 -0.0007 -0.0023  0.0057  0.0000
  20.  O 7 (s)      0.0000 -0.0001 -0.0024 -0.0081  0.0099 -0.0002 -0.2373 -0.0167
  21.  O 7 (px)     0.0000 -0.0012  0.0041  0.0000 -0.0015  0.0000  0.0104 -0.0899
  22.  O 7 (py)     0.0000 -0.0066  0.0018  0.0001  0.0051  0.0000  0.0886  0.0074
  23.  O 7 (pz)     0.0000  0.0042 -0.0003  0.0035 -0.0117  0.0000  0.1867  0.0161

           AO          9      10      11      12      13      14      15      16
      ------------ ------- ------- ------- ------- ------- ------- ------- -------
   1.  C 1 (s)     -0.0036  0.0000  0.0061  0.0058  0.0058 -0.0001  0.0003  0.0000
   2.  C 1 (s)      0.2287  0.0000 -0.3872 -0.3892 -0.3892  0.0000  0.0000 -0.0014
   3.  C 1 (px)     0.0222  0.0000 -0.3214  0.1675  0.1675  0.0000 -0.0018  0.0039
   4.  C 1 (py)     0.2057  0.0000  0.1208  0.0872  0.0872  0.0000 -0.0060  0.0000
   5.  C 1 (pz)     0.0000 -0.0885  0.0000 -0.2891  0.2891  0.0000 -0.0074  0.0014
   6.  N 2 (s)     -0.0010  0.0000 -0.0008 -0.0013 -0.0013 -0.0023  0.0106  0.0002
   7.  N 2 (s)      0.0180  0.0000 -0.0050 -0.0011 -0.0011 -0.0001 -0.2215  0.0123
   8.  N 2 (px)     0.0138  0.0000  0.0010 -0.0012 -0.0012  0.0000 -0.0128 -0.0869
   9.  N 2 (py)     1.1810  0.0000 -0.0019 -0.0010 -0.0010  0.0000 -0.1080  0.0073
  10.  N 2 (pz)     0.0000  1.2484  0.0000  0.0047 -0.0047  0.0000  0.2100 -0.0162
  11.  H 3 (s)     -0.0019  0.0000  1.2782 -0.0198 -0.0198  0.0000 -0.0005 -0.0013
  12.  H 4 (s)     -0.0010  0.0047 -0.0198  1.2808 -0.0203  0.0000 -0.0010 -0.0005
  13.  H 5 (s)     -0.0010 -0.0047 -0.0198 -0.0203  1.2808  0.0000 -0.0085  0.0047
  14.  O 6 (s)      0.0004 -0.0002 -0.0002  0.0001  0.0005  0.9767 -0.3358  0.0007
  15.  O 6 (s)     -0.1414  0.2748 -0.0007 -0.0013 -0.0110  0.0842  1.1568 -0.0075
  16.  O 6 (px)     0.0075 -0.0167 -0.0013 -0.0005  0.0048  0.0000 -0.0060  1.0117
  17.  O 6 (py)    -0.0285 -0.1398  0.0008  0.0029  0.0092  0.0000 -0.0499  0.0027
  18.  O 6 (pz)    -0.1358  0.1676  0.0008  0.0011  0.0022  0.0000  0.0980 -0.0050
  19.  O 7 (s)      0.0004  0.0002 -0.0002  0.0005  0.0001 -0.0001 -0.0004 -0.0001
  20.  O 7 (s)     -0.1414 -0.2748 -0.0007 -0.0110 -0.0013  0.0000 -0.0029  0.0021
  21.  O 7 (px)     0.0075  0.0167 -0.0013  0.0048 -0.0005  0.0000  0.0017  0.0071
  22.  O 7 (py)    -0.0285  0.1398  0.0008  0.0092  0.0029  0.0000  0.0141 -0.0024
  23.  O 7 (pz)     0.1358  0.1676 -0.0008 -0.0022 -0.0011  0.0000 -0.0048 -0.0010

           AO         17      18      19      20      21      22      23
      ------------ ------- ------- ------- ------- ------- ------- -------
   1.  C 1 (s)     -0.0009  0.0000 -0.0001  0.0003  0.0000 -0.0009  0.0000
   2.  C 1 (s)     -0.0078 -0.0049  0.0000  0.0000 -0.0014 -0.0078  0.0049
   3.  C 1 (px)     0.0017  0.0003  0.0000 -0.0018  0.0039  0.0017 -0.0003
   4.  C 1 (py)     0.0001 -0.0033  0.0000 -0.0060  0.0000  0.0001  0.0033
   5.  C 1 (pz)    -0.0048 -0.0110  0.0000  0.0074 -0.0014  0.0048 -0.0110
   6.  N 2 (s)      0.0011 -0.0007 -0.0023  0.0106  0.0002  0.0011  0.0007
   7.  N 2 (s)      0.1047 -0.2205 -0.0001 -0.2215  0.0123  0.1047  0.2205
   8.  N 2 (px)     0.0072 -0.0156  0.0000 -0.0128 -0.0869  0.0072  0.0156
   9.  N 2 (py)    -0.0275 -0.1312  0.0000 -0.1080  0.0073 -0.0275  0.1312
  10.  N 2 (pz)    -0.1351  0.1619  0.0000 -0.2100  0.0162  0.1351  0.1619
  11.  H 3 (s)      0.0008  0.0007  0.0000 -0.0005 -0.0013  0.0008 -0.0007
  12.  H 4 (s)      0.0028  0.0011  0.0000 -0.0085  0.0047  0.0089 -0.0022
  13.  H 5 (s)      0.0089  0.0022  0.0000 -0.0010 -0.0005  0.0028 -0.0011
  14.  O 6 (s)      0.0057 -0.0112 -0.0001 -0.0004 -0.0001 -0.0007  0.0006
  15.  O 6 (s)     -0.0627  0.1229  0.0000 -0.0029  0.0021  0.0178 -0.0060
  16.  O 6 (px)     0.0027 -0.0050  0.0000  0.0017  0.0071 -0.0024 -0.0010
  17.  O 6 (py)     1.0340 -0.0423  0.0000  0.0141 -0.0024 -0.0127 -0.0081
  18.  O 6 (pz)    -0.0423  1.0955  0.0000  0.0048  0.0010  0.0081 -0.0071
  19.  O 7 (s)     -0.0007 -0.0006  0.9767 -0.3358  0.0007  0.0057  0.0112
  20.  O 7 (s)      0.0178  0.0060  0.0842  1.1568 -0.0075 -0.0627 -0.1229
  21.  O 7 (px)    -0.0024  0.0010  0.0000 -0.0060  1.0117  0.0027  0.0050
  22.  O 7 (py)    -0.0127  0.0081  0.0000 -0.0499  0.0027  1.0340  0.0423
  23.  O 7 (pz)    -0.0081 -0.0071  0.0000 -0.0980  0.0050  0.0423  1.0955


 NAO density matrix:

           NAO         1       2       3       4       5       6       7       8
      ------------ ------- ------- ------- ------- ------- ------- ------- -------
   1.  C 1( 1s )    2.0000  0.0003  0.0000 -0.0022  0.0000  0.0000  0.0005 -0.0001
   2.  C 1( 2s )    0.0003  1.0997 -0.0107 -0.0671  0.0000 -0.0008  0.2201 -0.0295
   3.  C 1( 2px)    0.0000 -0.0107  1.0677 -0.0213  0.0000 -0.0001  0.0333  0.1294
   4.  C 1( 2py)   -0.0022 -0.0671 -0.0213  0.8264  0.0000 -0.0013  0.4675 -0.0718
   5.  C 1( 2pz)    0.0000  0.0000  0.0000  0.0000  1.0714  0.0000  0.0000  0.0000
   6.  N 2( 1s )    0.0000 -0.0008 -0.0001 -0.0013  0.0000  2.0000  0.0001  0.0000
   7.  N 2( 2s )    0.0005  0.2201  0.0333  0.4675  0.0000  0.0001  1.3335 -0.0118
   8.  N 2( 2px)   -0.0001 -0.0295  0.1294 -0.0718  0.0000  0.0000 -0.0118  1.2083
   9.  N 2( 2py)   -0.0014 -0.3556 -0.0604 -0.6854  0.0000 -0.0016 -0.0539 -0.0080
  10.  N 2( 2pz)    0.0000  0.0000  0.0000  0.0000  0.0906  0.0000  0.0000  0.0000
  11.  H 3( 1s )   -0.0008  0.5085  0.7906 -0.3077  0.0000  0.0001 -0.0172  0.0147
  12.  H 4( 1s )   -0.0007  0.5139 -0.4155 -0.2307  0.7019  0.0002 -0.0227 -0.0035
  13.  H 5( 1s )   -0.0007  0.5139 -0.4155 -0.2307 -0.7019  0.0002 -0.0227 -0.0035
  14.  O 6( 1s )    0.0000  0.0002  0.0000  0.0003  0.0002  0.0000 -0.0004  0.0000
  15.  O 6( 2s )    0.0001 -0.0045  0.0038  0.0018  0.0209  0.0002  0.1703  0.0187
  16.  O 6( 2px)    0.0000  0.0127 -0.0373  0.0263 -0.0106 -0.0001 -0.0320  0.6773
  17.  O 6( 2py)    0.0002  0.1062  0.0063  0.1830  0.0076  0.0001 -0.2247 -0.0722
  18.  O 6( 2pz)    0.0002 -0.0011 -0.0092 -0.0309  0.0109  0.0006  0.4771  0.0486
  19.  O 7( 1s )    0.0000  0.0002  0.0000  0.0003 -0.0002  0.0000 -0.0004  0.0000
  20.  O 7( 2s )    0.0001 -0.0045  0.0038  0.0018 -0.0209  0.0002  0.1703  0.0187
  21.  O 7( 2px)    0.0000  0.0127 -0.0373  0.0263  0.0106 -0.0001 -0.0320  0.6773
  22.  O 7( 2py)    0.0002  0.1062  0.0063  0.1830 -0.0076  0.0001 -0.2247 -0.0722
  23.  O 7( 2pz)   -0.0002  0.0011  0.0092  0.0309  0.0109 -0.0006 -0.4771 -0.0486

           NAO         9      10      11      12      13      14      15      16
      ------------ ------- ------- ------- ------- ------- ------- ------- -------
   1.  C 1( 1s )   -0.0014  0.0000 -0.0008 -0.0007 -0.0007  0.0000  0.0001  0.0000
   2.  C 1( 2s )   -0.3556  0.0000  0.5085  0.5139  0.5139  0.0002 -0.0045  0.0127
   3.  C 1( 2px)   -0.0604  0.0000  0.7906 -0.4155 -0.4155  0.0000  0.0038 -0.0373
   4.  C 1( 2py)   -0.6854  0.0000 -0.3077 -0.2307 -0.2307  0.0003  0.0018  0.0263
   5.  C 1( 2pz)    0.0000  0.0906  0.0000  0.7019 -0.7019  0.0002  0.0209 -0.0106
   6.  N 2( 1s )   -0.0016  0.0000  0.0001  0.0002  0.0002  0.0000  0.0002 -0.0001
   7.  N 2( 2s )   -0.0539  0.0000 -0.0172 -0.0227 -0.0227 -0.0004  0.1703 -0.0320
   8.  N 2( 2px)   -0.0080  0.0000  0.0147 -0.0035 -0.0035  0.0000  0.0187  0.6773
   9.  N 2( 2py)    1.1198  0.0000  0.0247  0.0275  0.0275  0.0000  0.1533 -0.0669
  10.  N 2( 2pz)    0.0000  1.0492  0.0000  0.0048 -0.0048 -0.0003 -0.2679  0.0467
  11.  H 3( 1s )    0.0247  0.0000  0.9174 -0.0057 -0.0057 -0.0001  0.0022 -0.0825
  12.  H 4( 1s )    0.0275  0.0048 -0.0057  0.9168 -0.0108 -0.0002  0.0142  0.0400
  13.  H 5( 1s )    0.0275 -0.0048 -0.0057 -0.0108  0.9168  0.0000  0.0044  0.0310
[...]
      Occupancy is 1.989 after deleting minor hybrid components
            0.0000 0.0000 0.0000 0.7348 0.0000 0.6783
           NBO accepted:   11. Label:BD ( 1)   1   3
      Occupancy is 0.004 for antibonding component
            0.0000 0.0000 0.0000-0.6783 0.0000 0.7348
           NBO accepted:   12. Label:BD*( 1)   1   3
        2 eigenvector(s) stashed in permanent list

 Search of NHO DM block for the following atom(s):   1   4
      Select eigenvectors with eigenvalue > 1.900
       1.994 0.005 0.000 0.000 0.000 0.000
      Eigenvector ( 1) has occupancy 1.99402
            0.0000 0.7359 0.0000 0.0000 0.0000 0.6771
      Occupancy is 1.994 after deleting minor hybrid components
            0.0000 0.7359 0.0000 0.0000 0.0000 0.6771
           NBO accepted:   13. Label:BD ( 1)   1   4
      Occupancy is 0.005 for antibonding component
            0.0000-0.6771 0.0000 0.0000 0.0000 0.7359
           NBO accepted:   14. Label:BD*( 1)   1   4
        2 eigenvector(s) stashed in permanent list

 Search of NHO DM block for the following atom(s):   1   5
      Select eigenvectors with eigenvalue > 1.900
       1.994 0.005 0.000 0.000 0.000 0.000
      Eigenvector ( 1) has occupancy 1.99402
            0.0000 0.0000 0.7359 0.0000 0.0000 0.6771
      Occupancy is 1.994 after deleting minor hybrid components
            0.0000 0.0000 0.7359 0.0000 0.0000 0.6771
           NBO accepted:   15. Label:BD ( 1)   1   5
      Occupancy is 0.005 for antibonding component
            0.0000 0.0000-0.6771 0.0000 0.0000 0.7359
           NBO accepted:   16. Label:BD*( 1)   1   5
        2 eigenvector(s) stashed in permanent list

 Search of NHO DM block for the following atom(s):   2   6
      Select eigenvectors with eigenvalue > 1.900
       1.988 0.046 0.000 0.000 0.000 0.000 0.000 0.000 0.000 0.000
      Eigenvector ( 1) has occupancy 1.98802
            0.0000 0.0000 0.7482 0.0000 0.0000 0.0000 0.0000 0.0000
            0.6634 0.0000
      Occupancy is 1.988 after deleting minor hybrid components
            0.0000 0.0000 0.7482 0.0000 0.0000 0.0000 0.0000 0.0000
            0.6634 0.0000
           NBO accepted:   17. Label:BD ( 1)   2   6
      Occupancy is 0.046 for antibonding component
            0.0000 0.0000-0.6634 0.0000 0.0000 0.0000 0.0000 0.0000
            0.7482 0.0000
           NBO accepted:   18. Label:BD*( 1)   2   6
        2 eigenvector(s) stashed in permanent list

 Search of NHO DM block for the following atom(s):   2   7
      Select eigenvectors with eigenvalue > 1.900
       1.990 1.207 0.043 0.000 0.000 0.000 0.000 0.000 0.000 0.000
      Eigenvector ( 1) has occupancy 1.99011
            0.0000 0.0000 0.0000 0.7463 0.0516 0.0000 0.0000 0.0000
            0.6636 0.0000
      Occupancy is 1.988 after deleting minor hybrid components
            0.0000 0.0000 0.0000 0.7482 0.0000 0.0000 0.0000 0.0000
            0.6634 0.0000
           NBO accepted:   19. Label:BD ( 1)   2   7
      Occupancy is 0.046 for antibonding component
            0.0000 0.0000 0.0000-0.6634 0.0000 0.0000 0.0000 0.0000
            0.7482 0.0000
           NBO accepted:   20. Label:BD*( 1)   2   7
        2 eigenvector(s) stashed in permanent list

 Search of NHO DM block for the following atom(s):   6   7
      Select eigenvectors with eigenvalue > 1.900
       1.996 0.801 0.000 0.000 0.000 0.000 0.000 0.000 0.000 0.000
      Eigenvector ( 1) has occupancy 1.99620
            0.0000 0.0000 0.0000 0.0000 0.7071 0.0000 0.0000 0.0000
            0.0000-0.7071
      Occupancy is 1.996 after deleting minor hybrid components
            0.0000 0.0000 0.0000 0.0000 0.7071 0.0000 0.0000 0.0000
            0.0000-0.7071
           NBO accepted:   21. Label:BD ( 1)   6   7
      Occupancy is 0.801 for antibonding component
            0.0000 0.0000 0.0000 0.0000 0.7071 0.0000 0.0000 0.0000
            0.0000 0.7071
           NBO accepted:   22. Label:BD*( 1)   6   7
        2 eigenvector(s) stashed in permanent list

  2-center NBOs projected from the NHO density matrix
       1.207 electrons remain in the fully projected matrix

                            Occupancies       Lewis Structure    Low   High
         Max    Occ     -------------------  -----------------   occ   occ
  Cycle  Ctr   Thresh    Lewis   non-Lewis     CR  BD  nC  LP    (L)   (NL)
 ============================================================================
    1     2     1.90    31.01829   0.98171      4   7   0   5     1      1
 ----------------------------------------------------------------------------

 Strongly delocalized structure accepted

 -------------------------------------------------------
   Core                      7.99999 (100.000% of   8)
   Valence Lewis            23.01830 ( 95.910% of  24)
  ==================      =============================
   Total Lewis              31.01829 ( 96.932% of  32)
  -----------------------------------------------------
   Valence non-Lewis         0.98171 (  3.068% of  32)
   Rydberg non-Lewis         0.00000 (  0.000% of  32)
  ==================      =============================
   Total non-Lewis           0.98171 (  3.068% of  32)
 -------------------------------------------------------


     (Occupancy)   Bond orbital / Coefficients / Hybrids
 ------------------ Lewis ------------------------------------------------------
   1. (2.00000) CR ( 1) C  1            s(100.00%)
                                         1.0000  0.0000  0.0000  0.0000  0.0000
   2. (2.00000) CR ( 1) N  2            s(100.00%)
                                         1.0000  0.0000  0.0000  0.0000  0.0000
   3. (2.00000) CR ( 1) O  6            s(100.00%)
                                         1.0000  0.0000  0.0000  0.0000  0.0000
   4. (2.00000) CR ( 1) O  7            s(100.00%)
                                         1.0000  0.0000  0.0000  0.0000  0.0000
   5. (1.20711) LP ( 1) N  2            s(  1.25%)p78.90( 98.75%)
                                         0.0000  0.1119  0.9937  0.0044  0.0000
   6. (1.99746) LP ( 1) O  6            s( 87.24%)p 0.15( 12.76%)
                                         0.0000  0.9340  0.0125  0.1291 -0.3328
   7. (1.93967) LP ( 2) O  6            s(  0.09%)p99.99( 99.91%)
                                         0.0000  0.0302  0.0938  0.8948  0.4354
   8. (1.99746) LP ( 1) O  7            s( 87.24%)p 0.15( 12.76%)
                                         0.0000  0.9340  0.0125  0.1291  0.3328
   9. (1.93967) LP ( 2) O  7            s(  0.09%)p99.99( 99.91%)
                                         0.0000  0.0302  0.0938  0.8948 -0.4354
  10. (1.98769) BD ( 1) C  1- N  2
               ( 39.23%)   0.6263* C  1 s( 19.92%)p 4.02( 80.08%)
                                         0.0000  0.4463  0.0608  0.8928  0.0000
               ( 60.77%)   0.7795* N  2 s( 31.46%)p 2.18( 68.54%)
                                         0.0000  0.5609 -0.0595 -0.8257  0.0000
  11. (1.98896) BD ( 1) C  1- H  3
               ( 53.99%)   0.7348* C  1 s( 26.23%)p 2.81( 73.77%)
                                         0.0000  0.5121  0.8008 -0.3105  0.0000
               ( 46.01%)   0.6783* H  3 s(100.00%)
                                         1.0000
  12. (1.99402) BD ( 1) C  1- H  4
               ( 54.15%)   0.7359* C  1 s( 26.93%)p 2.71( 73.07%)
                                         0.0000  0.5189 -0.4213 -0.2307  0.7071
               ( 45.85%)   0.6771* H  4 s(100.00%)
                                         1.0000
  13. (1.99402) BD ( 1) C  1- H  5
               ( 54.15%)   0.7359* C  1 s( 26.93%)p 2.71( 73.07%)
                                         0.0000  0.5189 -0.4213 -0.2307 -0.7071
               ( 45.85%)   0.6771* H  5 s(100.00%)
                                         1.0000
  14. (1.98802) BD ( 1) N  2- O  6
               ( 55.99%)   0.7482* N  2 s( 33.64%)p 1.97( 66.36%)
                                         0.0000  0.5800 -0.0671  0.3989 -0.7071
               ( 44.01%)   0.6634* O  6 s( 12.60%)p 6.93( 87.40%)
                                         0.0000  0.3550 -0.1096 -0.4066  0.8346
  15. (1.98802) BD ( 1) N  2- O  7
               ( 55.99%)   0.7482* N  2 s( 33.64%)p 1.97( 66.36%)
                                         0.0000  0.5800 -0.0671  0.3989  0.7071
               ( 44.01%)   0.6634* O  7 s( 12.60%)p 6.93( 87.40%)
                                         0.0000  0.3550 -0.1096 -0.4066 -0.8346
  16. (1.99620) BD ( 1) O  6- O  7
               ( 50.00%)   0.7071* O  6 s(  0.06%)p99.99( 99.94%)
                                         0.0000  0.0246  0.9895 -0.1315  0.0554
               ( 50.00%)   0.7071* O  7 s(  0.06%)p99.99( 99.94%)
                                         0.0000 -0.0246 -0.9895  0.1315  0.0554
 ---------------- non-Lewis ----------------------------------------------------
  17. (0.07503) BD*( 1) C  1- N  2
               ( 60.77%)   0.7795* C  1 s( 19.92%)p 4.02( 80.08%)
                                         0.0000 -0.4463 -0.0608 -0.8928  0.0000
               ( 39.23%)  -0.6263* N  2 s( 31.46%)p 2.18( 68.54%)
                                         0.0000 -0.5609  0.0595  0.8257  0.0000
  18. (0.00444) BD*( 1) C  1- H  3
               ( 46.01%)   0.6783* C  1 s( 26.23%)p 2.81( 73.77%)
                                         0.0000 -0.5121 -0.8008  0.3105  0.0000
               ( 53.99%)  -0.7348* H  3 s(100.00%)
                                        -1.0000
  19. (0.00470) BD*( 1) C  1- H  4
               ( 45.85%)   0.6771* C  1 s( 26.93%)p 2.71( 73.07%)
                                         0.0000 -0.5189  0.4213  0.2307 -0.7071
               ( 54.15%)  -0.7359* H  4 s(100.00%)
                                        -1.0000
  20. (0.00470) BD*( 1) C  1- H  5
               ( 45.85%)   0.6771* C  1 s( 26.93%)p 2.71( 73.07%)
                                         0.0000 -0.5189  0.4213  0.2307  0.7071
               ( 54.15%)  -0.7359* H  5 s(100.00%)
                                        -1.0000
  21. (0.04577) BD*( 1) N  2- O  6
               ( 44.01%)   0.6634* N  2 s( 33.64%)p 1.97( 66.36%)
                                         0.0000  0.5800 -0.0671  0.3989 -0.7071
               ( 55.99%)  -0.7482* O  6 s( 12.60%)p 6.93( 87.40%)
                                         0.0000  0.3550 -0.1096 -0.4066  0.8346
  22. (0.04577) BD*( 1) N  2- O  7
               ( 44.01%)   0.6634* N  2 s( 33.64%)p 1.97( 66.36%)
                                         0.0000  0.5800 -0.0671  0.3989  0.7071
               ( 55.99%)  -0.7482* O  7 s( 12.60%)p 6.93( 87.40%)
                                         0.0000  0.3550 -0.1096 -0.4066 -0.8346
  23. (0.80130) BD*( 1) O  6- O  7
               ( 50.00%)   0.7071* O  6 s(  0.06%)p99.99( 99.94%)
                                         0.0000  0.0246  0.9895 -0.1315  0.0554
               ( 50.00%)  -0.7071* O  7 s(  0.06%)p99.99( 99.94%)
                                         0.0000 -0.0246 -0.9895  0.1315  0.0554


 NHO DIRECTIONALITY AND BOND BENDING (deviation from line of nuclear centers at
                                      the position of maximum hybrid amplitude)

         [Thresholds for printing:  angular deviation  >  1.0 degree]
                                    p- or d-character  > 25.0%
                                    orbital occupancy  >  0.10e

                        Line of Centers        Hybrid 1             Hybrid 2
                        ---------------  -------------------  ------------------
           NBO            Theta   Phi    Theta   Phi    Dev   Theta   Phi    Dev
 ===============================================================================
   5. LP ( 1) N  2          --     --     90.0    0.9   --      --     --    --
   7. LP ( 2) O  6          --     --     64.2   84.0   --      --     --    --
   9. LP ( 2) O  7          --     --    115.8   84.0   --      --     --    --
  14. BD ( 1) N  2- O  6  152.9   83.2   150.8   99.6   7.9    26.8  255.4   3.6
  15. BD ( 1) N  2- O  7   27.1   83.2    29.2   99.6   7.9   153.2  255.4   3.6
  16. BD ( 1) O  6- O  7    0.0    0.0    86.5  352.3  86.5    93.5  352.3  86.5


 3-Center, 4-Electron A:-B-:C Hyperbonds (A-B :C <=> A: B-C)
              [threshold for detection: 33.3%]

                                                  NBOs       3-center hybrids
                                              -------------  ----------------
       Hyperbond A:-B-:C   %A-B/%B-C   occ    BD(A-B) LP(C)  h(A)  h(B)  h(C)
      -------------------  ---------  ------  ------- -----  ----  ----  ----
   1.  O  6:- O  7-: N  2  43.4/56.6  4.0046      16      5    22    23     5


 SECOND ORDER PERTURBATION THEORY ANALYSIS OF FOCK MATRIX IN NBO BASIS

     Threshold for printing:   0.50 kcal/mol
                                                          E(2) E(NL)-E(L) F(L,NL)
      Donor (L) NBO              Acceptor (NL) NBO      kcal/mol   a.u.    a.u.
 ===============================================================================

 within unit  1
    5. LP ( 1) N  2            17. BD*( 1) C  1- N  2      0.52    0.79   0.018
    5. LP ( 1) N  2            18. BD*( 1) C  1- H  3      6.64    0.94   0.070
    5. LP ( 1) N  2            19. BD*( 1) C  1- H  4      1.80    0.94   0.037
    5. LP ( 1) N  2            20. BD*( 1) C  1- H  5      1.80    0.94   0.037
    5. LP ( 1) N  2            21. BD*( 1) N  2- O  6      3.58    1.03   0.054
    5. LP ( 1) N  2            22. BD*( 1) N  2- O  7      3.58    1.03   0.054
    5. LP ( 1) N  2            23. BD*( 1) O  6- O  7   1182.85    0.18   0.409
    7. LP ( 2) O  6            17. BD*( 1) C  1- N  2     19.89    0.87   0.117
    7. LP ( 2) O  6            19. BD*( 1) C  1- H  4      0.52    1.03   0.021
    7. LP ( 2) O  6            22. BD*( 1) N  2- O  7     22.03    1.12   0.140
    9. LP ( 2) O  7            17. BD*( 1) C  1- N  2     19.89    0.87   0.117
    9. LP ( 2) O  7            20. BD*( 1) C  1- H  5      0.52    1.03   0.021
    9. LP ( 2) O  7            21. BD*( 1) N  2- O  6     22.03    1.12   0.140
   10. BD ( 1) C  1- N  2      17. BD*( 1) C  1- N  2      0.61    1.38   0.026
   10. BD ( 1) C  1- N  2      18. BD*( 1) C  1- H  3      0.60    1.53   0.027
   10. BD ( 1) C  1- N  2      19. BD*( 1) C  1- H  4      0.61    1.54   0.027
   10. BD ( 1) C  1- N  2      20. BD*( 1) C  1- H  5      0.61    1.54   0.027
   10. BD ( 1) C  1- N  2      21. BD*( 1) N  2- O  6      4.09    1.62   0.073
   10. BD ( 1) C  1- N  2      22. BD*( 1) N  2- O  7      4.09    1.62   0.073
   11. BD ( 1) C  1- H  3      17. BD*( 1) C  1- N  2      0.58    1.19   0.024
   12. BD ( 1) C  1- H  4      17. BD*( 1) C  1- N  2      0.85    1.19   0.028
   12. BD ( 1) C  1- H  4      21. BD*( 1) N  2- O  6      1.35    1.44   0.039
   12. BD ( 1) C  1- H  4      22. BD*( 1) N  2- O  7      1.17    1.44   0.037
   13. BD ( 1) C  1- H  5      17. BD*( 1) C  1- N  2      0.85    1.19   0.028
   13. BD ( 1) C  1- H  5      21. BD*( 1) N  2- O  6      1.17    1.44   0.037
   13. BD ( 1) C  1- H  5      22. BD*( 1) N  2- O  7      1.35    1.44   0.039
   14. BD ( 1) N  2- O  6      17. BD*( 1) C  1- N  2      3.35    1.55   0.064
   14. BD ( 1) N  2- O  6      19. BD*( 1) C  1- H  4      0.75    1.71   0.032
   14. BD ( 1) N  2- O  6      22. BD*( 1) N  2- O  7      4.06    1.80   0.076
   15. BD ( 1) N  2- O  7      17. BD*( 1) C  1- N  2      3.35    1.55   0.064
   15. BD ( 1) N  2- O  7      20. BD*( 1) C  1- H  5      0.75    1.71   0.032
   15. BD ( 1) N  2- O  7      21. BD*( 1) N  2- O  6      4.06    1.80   0.076
   16. BD ( 1) O  6- O  7      21. BD*( 1) N  2- O  6      1.24    1.03   0.032
   16. BD ( 1) O  6- O  7      22. BD*( 1) N  2- O  7      1.24    1.03   0.032


 NATURAL BOND ORBITALS (Summary):

                                                     Principal Delocalizations
           NBO                 Occupancy    Energy   (geminal,vicinal,remote)
 ===============================================================================
 Molecular unit  1  (CH3NO2)
 ------ Lewis --------------------------------------
    1. CR ( 1) C  1             2.00000   -11.12764
    2. CR ( 1) N  2             2.00000   -15.63926
    3. CR ( 1) O  6             2.00000   -20.18819
    4. CR ( 1) O  7             2.00000   -20.18819
    5. LP ( 1) N  2             1.20711    -0.28761  23(v),18(v),21(g),22(g)
                                                     19(v),20(v),17(g)
    6. LP ( 1) O  6             1.99746    -1.00551
    7. LP ( 2) O  6             1.93967    -0.37020  22(v),17(v),19(r)
    8. LP ( 1) O  7             1.99746    -1.00551
    9. LP ( 2) O  7             1.93967    -0.37020  21(v),17(v),20(r)
   10. BD ( 1) C  1- N  2       1.98769    -0.87800  21(g),22(g),19(g),20(g)
                                                     17(g),18(g)
   11. BD ( 1) C  1- H  3       1.98896    -0.69401  17(g)
   12. BD ( 1) C  1- H  4       1.99402    -0.69549  21(v),22(v),17(g)
   13. BD ( 1) C  1- H  5       1.99402    -0.69549  22(v),21(v),17(g)
   14. BD ( 1) N  2- O  6       1.98802    -1.05023  22(g),17(g),19(v)
   15. BD ( 1) N  2- O  7       1.98802    -1.05023  21(g),17(g),20(v)
   16. BD ( 1) O  6- O  7       1.99620    -0.27930  21(g),22(g)
 ------ non-Lewis ----------------------------------
   17. BD*( 1) C  1- N  2       0.07503     0.49912
   18. BD*( 1) C  1- H  3       0.00444     0.65024
   19. BD*( 1) C  1- H  4       0.00470     0.65705
   20. BD*( 1) C  1- H  5       0.00470     0.65705
   21. BD*( 1) N  2- O  6       0.04577     0.74634
   22. BD*( 1) N  2- O  7       0.04577     0.74634
   23. BD*( 1) O  6- O  7       0.80130    -0.11001
          -------------------------------
                 Total Lewis   31.01829  ( 96.9322%)
           Valence non-Lewis    0.98171  (  3.0678%)
           Rydberg non-Lewis    0.00000  (  0.0000%)
          -------------------------------
               Total unit  1   32.00000  (100.0000%)
              Charge unit  1    0.00000

 $CHOOSE
   LONE 2 1 6 2 7 2 END
   BOND S 1 2 S 1 3 S 1 4 S 1 5 S 2 6 S 2 7 S 6 7 END
 $END

 NBO analysis completed in 0.28 CPU seconds (1 wall second)
 Maximum scratch memory used by NBO was 225806 words (1.72 MB)
 Maximum scratch memory used by G16NBO was 9076 words (0.07 MB)

 Opening RunExU unformatted file "/cluster/work/users/beto93/mol99/Gau-1385181.EUF"
 Read unf file /cluster/work/users/beto93/mol99/Gau-1385181.EUF:
 Label Gaussian matrix elements                                         IVers= 2 NLab= 2 Version=ES64L-G16RevC.01
 Title mol99-NBO                                                       
 NAtoms=     7 NBasis=    23 NBsUse=    23 ICharg=     0 Multip=     1 NE=    32 Len12L=8 Len4L=8 IOpCl= 0 ICGU=111
 GAUSSIAN SCALARS                    NI= 1 NR= 1 NTot=       1 LenBuf=    2 NRI=1 N=    1000
 NPA CHARGES                         NI= 0 NR= 1 NTot=       7 LenBuf= 4000 NRI=1 N=       7
 Recovered energy= -240.418612420     dipole=     -0.102279969164     -1.207537173437      0.000000000001
 Unable to Open any file for archive entry.
 1\1\GINC-C5-19\SP\RHF\STO-3G\C1H3N1O2\BETO93\18-Nov-2024\0\\#RHF/STO-3
 G int=nobasistransform Symmetry=None 5D 7F Pop=NBO7Read\\mol99-NBO\\0,
 1\C,0,-0.114282,-1.314565,0.\N,0,0.,0.16648,0.\H,0,0.899565,-1.715256,
 0.\H,0,-0.640921,-1.607212,0.904956\H,0,-0.640921,-1.607212,-0.904956\
 O,0,0.066748,0.728232,-1.103775\O,0,0.066748,0.728232,1.103775\\Versio
 n=ES64L-G16RevC.01\HF=-240.4186124\RMSD=6.969e-09\Dipole=-0.10228,-1.2
 075372,0.\Quadrupole=1.4054595,0.6851281,-2.0905876,-0.1038759,0.,0.\P
 G=Unknown\\@
 The archive entry for this job was punched.


 EDUCATION DOESN'T COST 
           ... IT PAYS!

 -- POSTMARK, UNIV. OF MISSISSIPPI, DEC 78
 Job cpu time:       0 days  0 hours  0 minutes  6.7 seconds.
 Elapsed time:       0 days  0 hours  0 minutes  2.6 seconds.
 File lengths (MBytes):  RWF=     10 Int=      0 D2E=      0 Chk=      1 Scr=      1
 Normal termination of Gaussian 16 at Mon Nov 18 15:41:26 2024.
