 Entering Gaussian System, Link 0=g16
 Initial command:
 /cluster/software/Gaussian/g16_C.01/l1.exe "/cluster/work/users/beto93/LiBH2/Gau-1553557.inp" -scrdir="/cluster/work/users/beto93/LiBH2/"
 Entering Link 1 = /cluster/software/Gaussian/g16_C.01/l1.exe PID=   1553559.
  
 Copyright (c) 1988-2019, Gaussian, Inc.  All Rights Reserved.
  
 This is part of the Gaussian(R) 16 program.  It is based on
 the Gaussian(R) 09 system (copyright 2009, Gaussian, Inc.),
 the Gaussian(R) 03 system (copyright 2003, Gaussian, Inc.),
 the Gaussian(R) 98 system (copyright 1998, Gaussian, Inc.),
 the Gaussian(R) 94 system (copyright 1995, Gaussian, Inc.),
 the Gaussian 92(TM) system (copyright 1992, Gaussian, Inc.),
 the Gaussian 90(TM) system (copyright 1990, Gaussian, Inc.),
 the Gaussian 88(TM) system (copyright 1988, Gaussian, Inc.),
 the Gaussian 86(TM) system (copyright 1986, Carnegie Mellon
 University), and the Gaussian 82(TM) system (copyright 1983,
 Carnegie Mellon University). Gaussian is a federally registered
 trademark of Gaussian, Inc.
  
 This software contains proprietary and confidential information,
 including trade secrets, belonging to Gaussian, Inc.
  
 This software is provided under written license and may be
 used, copied, transmitted, or stored only in accord with that
 written license.
  
 The following legend is applicable only to US Government
 contracts under FAR:
  
                    RESTRICTED RIGHTS LEGEND
  
 Use, reproduction and disclosure by the US Government is
 subject to restrictions as set forth in subparagraphs (a)
 and (c) of the Commercial Computer Software - Restricted
 Rights clause in FAR 52.227-19.
  
 Gaussian, Inc.
 340 Quinnipiac St., Bldg. 40, Wallingford CT 06492
  
  
 ---------------------------------------------------------------
 Warning -- This program may not be used in any manner that
 competes with the business of Gaussian, Inc. or will provide
 assistance to any competitor of Gaussian, Inc.  The licensee
 of this program is prohibited from giving any competitor of
 Gaussian, Inc. access to this program.  By using this program,
 the user acknowledges that Gaussian, Inc. is engaged in the
 business of creating and licensing software in the field of
 computational chemistry and represents and warrants to the
 licensee that it is not a competitor of Gaussian, Inc. and that
 it will not use this program in any manner prohibited above.
 ---------------------------------------------------------------
  

 Cite this work as:
 Gaussian 16, Revision C.01,
 M. J. Frisch, G. W. Trucks, H. B. Schlegel, G. E. Scuseria, 
 M. A. Robb, J. R. Cheeseman, G. Scalmani, V. Barone, 
 G. A. Petersson, H. Nakatsuji, X. Li, M. Caricato, A. V. Marenich, 
 J. Bloino, B. G. Janesko, R. Gomperts, B. Mennucci, H. P. Hratchian, 
 J. V. Ortiz, A. F. Izmaylov, J. L. Sonnenberg, D. Williams-Young, 
 F. Ding, F. Lipparini, F. Egidi, J. Goings, B. Peng, A. Petrone, 
 T. Henderson, D. Ranasinghe, V. G. Zakrzewski, J. Gao, N. Rega, 
 G. Zheng, W. Liang, M. Hada, M. Ehara, K. Toyota, R. Fukuda, 
 J. Hasegawa, M. Ishida, T. Nakajima, Y. Honda, O. Kitao, H. Nakai, 
 T. Vreven, K. Throssell, J. A. Montgomery, Jr., J. E. Peralta, 
 F. Ogliaro, M. J. Bearpark, J. J. Heyd, E. N. Brothers, K. N. Kudin, 
 V. N. Staroverov, T. A. Keith, R. Kobayashi, J. Normand, 
 K. Raghavachari, A. P. Rendell, J. C. Burant, S. S. Iyengar, 
 J. Tomasi, M. Cossi, J. M. Millam, M. Klene, C. Adamo, R. Cammi, 
 J. W. Ochterski, R. L. Martin, K. Morokuma, O. Farkas, 
 J. B. Foresman, and D. J. Fox, Gaussian, Inc., Wallingford CT, 2019.
 
 ******************************************
 Gaussian 16:  ES64L-G16RevC.01  3-Jul-2019
                24-Jul-2024 
 ******************************************
 %LindaWorkers=c1-1-ib
 %NProcShared=4
 Will use up to    4 processors via shared memory.
 %mem=25GB
 %chk=LiBH2.chk
 SetLPE:    new flags="-opt 'Tsnet.Node.lindarsharg: ssh'  -nodelist 'c1-1-ib.saga' -env GAUSS_MDEF=3355443200 -env GAUSS_EXEDIR="/cluster/software/Gaussian/g16_C.01/bsd:/cluster/software/Gaussian/g16_C.01""
 Will use up to    1 processors via Linda.
 ----------------------------------------------------
 #OPT=VeryTight Int=UltraFine RHF/STO-3G Pop=NBO7Read
 ----------------------------------------------------
 1/7=1,18=20,19=15,38=1,163=2/1,3;
 2/9=110,12=2,17=6,18=5,40=1/2;
 3/6=3,11=1,25=1,30=1,71=1,75=-5,116=1/1,2,3;
 4//1;
 5/5=2,38=5/2;
 6/7=2,8=2,9=2,10=2,28=1,40=2,113=1,114=1,124=2103/1,12;
 7//1,2,3,16;
 1/7=1,18=20,19=15/3(2);
 2/9=110/2;
 99//99;
 2/9=110/2;
 3/6=3,11=1,25=1,30=1,71=1,75=-5,116=1/1,2,3;
 4/5=5,16=3,69=1/1;
 5/5=2,38=5/2;
 7//1,2,3,16;
 1/7=1,18=20,19=15/3(-5);
 2/9=110/2;
 6/7=2,8=2,9=2,10=2,19=2,28=1,40=2,113=1,114=1,124=2103/1,12;
 99/9=1/99;
 ---------
 NBO-LiBH2
 ---------
 Symbolic Z-matrix:
 Charge =  0 Multiplicity = 1
 B                     0.        0.        0. 
 Li                   -1.82531   0.       -1.21733 
 H                     0.00203   0.        1.164 
 H                     1.0754    0.       -0.44544 
 

 GradGradGradGradGradGradGradGradGradGradGradGradGradGradGradGradGradGrad
 Berny optimization.
 Initialization pass.
                           ----------------------------
                           !    Initial Parameters    !
                           ! (Angstroms and Degrees)  !
 --------------------------                            --------------------------
 ! Name  Definition              Value          Derivative Info.                !
 --------------------------------------------------------------------------------
 ! R1    R(1,2)                  2.194          estimate D2E/DX2                !
 ! R2    R(1,3)                  1.164          estimate D2E/DX2                !
 ! R3    R(1,4)                  1.164          estimate D2E/DX2                !
 ! A1    A(2,1,3)              123.8            estimate D2E/DX2                !
 ! A2    A(2,1,4)              123.8            estimate D2E/DX2                !
 ! A3    A(3,1,4)              112.4            estimate D2E/DX2                !
 ! D1    D(2,1,4,3)            180.0            estimate D2E/DX2                !
 --------------------------------------------------------------------------------
 Trust Radius=3.00D-01 FncErr=1.00D-07 GrdErr=1.00D-07 EigMax=2.50D+02 EigMin=1.00D-04
 Number of steps in this run=     20 maximum allowed number of steps=    100.
 GradGradGradGradGradGradGradGradGradGradGradGradGradGradGradGradGradGrad

                          Input orientation:                          
 ---------------------------------------------------------------------
 Center     Atomic      Atomic             Coordinates (Angstroms)
 Number     Number       Type             X           Y           Z
 ---------------------------------------------------------------------
      1          5           0        0.000000    0.000000    0.000000
      2          3           0       -1.825307    0.000000   -1.217329
      3          1           0        0.002031    0.000000    1.163998
      4          1           0        1.075396    0.000000   -0.445443
 ---------------------------------------------------------------------
                    Distance matrix (angstroms):
                    1          2          3          4
     1  B    0.000000
     2  Li   2.194000   0.000000
     3  H    1.164000   3.001647   0.000000
     4  H    1.164000   3.001647   1.934532   0.000000
 Stoichiometry    BH2Li
 Framework group  C2V[C2(LiB),SGV(H2)]
 Deg. of freedom     3
 Full point group                 C2V     NOp   4
 Largest Abelian subgroup         C2V     NOp   4
 Largest concise Abelian subgroup C2      NOp   2
                         Standard orientation:                         
 ---------------------------------------------------------------------
 Center     Atomic      Atomic             Coordinates (Angstroms)
 Number     Number       Type             X           Y           Z
 ---------------------------------------------------------------------
      1          5           0       -0.000000    0.000000    0.528694
      2          3           0        0.000000    0.000000   -1.665306
      3          1           0       -0.000000    0.967266    1.176222
      4          1           0       -0.000000   -0.967266    1.176222
 ---------------------------------------------------------------------
 Rotational constants (GHZ):         267.9848647          20.4487370          18.9990070
 Standard basis: STO-3G (5D, 7F)
 There are     7 symmetry adapted cartesian basis functions of A1  symmetry.
 There are     0 symmetry adapted cartesian basis functions of A2  symmetry.
 There are     2 symmetry adapted cartesian basis functions of B1  symmetry.
 There are     3 symmetry adapted cartesian basis functions of B2  symmetry.
 There are     7 symmetry adapted basis functions of A1  symmetry.
 There are     0 symmetry adapted basis functions of A2  symmetry.
 There are     2 symmetry adapted basis functions of B1  symmetry.
 There are     3 symmetry adapted basis functions of B2  symmetry.
    12 basis functions,    36 primitive gaussians,    12 cartesian basis functions
     5 alpha electrons        5 beta electrons
       nuclear repulsion energy         9.4954070479 Hartrees.
 NAtoms=    4 NActive=    4 NUniq=    3 SFac= 1.78D+00 NAtFMM=   60 NAOKFM=F Big=F
 Integral buffers will be    131072 words long.
 Raffenetti 1 integral format.
 Two-electron integral symmetry is turned on.
 One-electron integrals computed using PRISM.
 NBasis=    12 RedAO= T EigKep=  2.43D-01  NBF=     7     0     2     3
 NBsUse=    12 1.00D-06 EigRej= -1.00D+00 NBFU=     7     0     2     3
 ExpMin= 4.81D-02 ExpMax= 4.88D+01 ExpMxC= 4.88D+01 IAcc=3 IRadAn=         5 AccDes= 0.00D+00
 Harris functional with IExCor=  205 and IRadAn=       5 diagonalized for initial guess.
 HarFok:  IExCor=  205 AccDes= 0.00D+00 IRadAn=         5 IDoV= 1 UseB2=F ITyADJ=14
 ICtDFT=  3500011 ScaDFX=  1.000000  1.000000  1.000000  1.000000
 FoFCou: FMM=F IPFlag=           0 FMFlag=      100000 FMFlg1=           0
         NFxFlg=           0 DoJE=T BraDBF=F KetDBF=T FulRan=T
         wScrn=  0.000000 ICntrl=       500 IOpCl=  0 I1Cent=   200000004 NGrid=           0
         NMat0=    1 NMatS0=      1 NMatT0=    0 NMatD0=    1 NMtDS0=    0 NMtDT0=    0
 Petite list used in FoFCou.
 Initial guess orbital symmetries:
       Occupied  (A1) (A1) (A1) (B2) (A1)
       Virtual   (B1) (A1) (B2) (B1) (A1) (B2) (A1)
 The electronic state of the initial guess is 1-A1.
 Keep R1 ints in memory in symmetry-blocked form, NReq=807815.
 Requested convergence on RMS density matrix=1.00D-08 within 128 cycles.
 Requested convergence on MAX density matrix=1.00D-06.
 Requested convergence on             energy=1.00D-06.
 No special actions if energy rises.
 SCF Done:  E(RHF) =  -32.7767069789     A.U. after   10 cycles
            NFock= 10  Conv=0.90D-08     -V/T= 1.9915

 **********************************************************************

            Population analysis using the SCF Density.

 **********************************************************************

 Orbital symmetries:
       Occupied  (A1) (A1) (A1) (B2) (A1)
       Virtual   (A1) (B1) (B2) (B1) (A1) (B2) (A1)
 The electronic state is 1-A1.
 Alpha  occ. eigenvalues --   -7.35809  -2.32926  -0.59510  -0.40729  -0.22253
 Alpha virt. eigenvalues --    0.09135   0.14523   0.17499   0.33553   0.46944
 Alpha virt. eigenvalues --    0.80975   0.83889
          Condensed to atoms (all electrons):
               1          2          3          4
     1  B    3.620679   0.342270   0.399192   0.399192
     2  Li   0.342270   2.794831  -0.030342  -0.030342
     3  H    0.399192  -0.030342   0.727976  -0.015699
     4  H    0.399192  -0.030342  -0.015699   0.727976
 Mulliken charges:
               1
     1  B    0.238668
     2  Li  -0.076416
     3  H   -0.081126
     4  H   -0.081126
 Sum of Mulliken charges =   0.00000
 Mulliken charges with hydrogens summed into heavy atoms:
               1
     1  B    0.076416
     2  Li  -0.076416
 Electronic spatial extent (au):  <R**2>=             69.4293
 Charge=              0.0000 electrons
 Dipole moment (field-independent basis, Debye):
    X=              0.0000    Y=              0.0000    Z=             -3.9195  Tot=              3.9195
 Quadrupole moment (field-independent basis, Debye-Ang):
   XX=            -10.5093   YY=            -12.7387   ZZ=             -1.1843
   XY=             -0.0000   XZ=              0.0000   YZ=              0.0000
 Traceless Quadrupole moment (field-independent basis, Debye-Ang):
   XX=             -2.3652   YY=             -4.5946   ZZ=              6.9598
   XY=             -0.0000   XZ=              0.0000   YZ=              0.0000
 Octapole moment (field-independent basis, Debye-Ang**2):
  XXX=              0.0000  YYY=              0.0000  ZZZ=            -25.4589  XYY=              0.0000
  XXY=              0.0000  XXZ=              0.8913  XZZ=              0.0000  YZZ=              0.0000
  YYZ=             -0.3878  XYZ=             -0.0000
 Hexadecapole moment (field-independent basis, Debye-Ang**3):
 XXXX=            -19.7609 YYYY=            -32.7306 ZZZZ=            -22.9508 XXXY=             -0.0000
 XXXZ=              0.0000 YYYX=             -0.0000 YYYZ=             -0.0000 ZZZX=              0.0000
 ZZZY=              0.0000 XXYY=             -8.8246 XXZZ=            -14.0453 YYZZ=            -16.9967
 XXYZ=             -0.0000 YYXZ=              0.0000 ZZXY=             -0.0000
 N-N= 9.495407047891D+00 E-N=-9.577574843118D+01  KE= 3.305605715330D+01
 Symmetry A1   KE= 3.148692841608D+01
 Symmetry A2   KE= 0.000000000000D+00
 Symmetry B1   KE= 4.130271803390D-33
 Symmetry B2   KE= 1.569128737214D+00
 Running external command "gaunbo7 R"
         input file       "/cluster/work/users/beto93/LiBH2/Gau-1553559.EIn"
         output file      "/cluster/work/users/beto93/LiBH2/Gau-1553559.EOu"
         message file     "/cluster/work/users/beto93/LiBH2/Gau-1553559.EMs"
         fchk file        "/cluster/work/users/beto93/LiBH2/Gau-1553559.EFC"
         mat. el file     "/cluster/work/users/beto93/LiBH2/Gau-1553559.EUF"

 Writing WrtUnf unformatted file "/cluster/work/users/beto93/LiBH2/Gau-1553559.EUF"
 Gaussian matrix elements                                         Version   2 NLab=11 Len12L=8 Len4L=8
 Write SHELL TO ATOM MAP                   from file      0 offset           0 length                   6 to matrix element file.
 Write SHELL TYPES                         from file      0 offset           0 length                   6 to matrix element file.
 Write NUMBER OF PRIMITIVES PER SHELL      from file      0 offset           0 length                   6 to matrix element file.
 Write PRIMITIVE EXPONENTS                 from file      0 offset           0 length                  18 to matrix element file.
 Write CONTRACTION COEFFICIENTS            from file      0 offset           0 length                  18 to matrix element file.
 Write P(S=P) CONTRACTION COEFFICIENTS     from file      0 offset           0 length                  18 to matrix element file.
 Write COORDINATES OF EACH SHELL           from file      0 offset           0 length                  18 to matrix element file.
 Write BONDS PER ATOM                      from file      0 offset           0 length                   4 to matrix element file.
 Write BONDED ATOMS                        from file      0 offset           0 length                   6 to matrix element file.
 Write BOND TYPES                          from file      0 offset           0 length                   6 to matrix element file.
 Write ONIOM CHARGE/MULT                   from file      0 offset           0 length                  32 to matrix element file.
 Write ONIOM ATOM LAYERS                   from file      0 offset           0 length                   4 to matrix element file.
 Write ONIOM ATOM MODIFIERS                from file      0 offset           0 length                   4 to matrix element file.
 Write ONIOM ATOM TYPES                    from file      0 offset           0 length                   4 to matrix element file.
 Write ONIOM LINK ATOMS                    from file      0 offset           0 length                   4 to matrix element file.
 Write ONIOM LINK CHARGES                  from file      0 offset           0 length                   4 to matrix element file.
 Write ONIOM LINK DISTANCES                from file      0 offset           0 length                  16 to matrix element file.
 Write SYMINF INTS                         from file      0 offset           0 length                  26 to matrix element file.
 Write ROTTR TO SO                         from file      0 offset           0 length                  12 to matrix element file.
 Write GAUSSIAN SCALARS                    from file    501 offset           0 to matrix element file.
 Write OPTIMIZATION FLAGS                  from file      0 offset           0 length                   4 to matrix element file.
 Write INTEGER ISO                         from file      0 offset           0 length                   4 to matrix element file.
 Write INTEGER SPIN                        from file      0 offset           0 length                   4 to matrix element file.
 Write REAL ZEFFECTIVE                     from file      0 offset           0 length                   4 to matrix element file.
 Write REAL QUADRUPOLEMOMENT               from file      0 offset           0 length                   4 to matrix element file.
 Write REAL GFACTOR                        from file      0 offset           0 length                   4 to matrix element file.
 Write REAL ZNUCLEAR                       from file      0 offset           0 length                   4 to matrix element file.
 Write MULLIKEN CHARGES                    from file      0 offset           0 length                   4 to matrix element file.
 Write NUCLEAR GRADIENT                    from file  10584 offset           0 length                  12 to matrix element file.
 Array NUCLEAR FORCE CONSTANTS              on  file  10585 does not exist.
 Write ELECTRIC DIPOLE MOMENT              from file      0 offset           0 length                   3 to matrix element file.
 Write NON-ADIABATIC COUPLING              from file  10810 offset           0 length                  12 to matrix element file.
 Write RED INT COORD DIMS                  from file      0 offset           0 length                   4 to matrix element file.
 Write RED INT COORD ATOMS                 from file      0 offset           0 length                  28 to matrix element file.
 Write RED INT COORD VALS                  from file      0 offset           0 length                   7 to matrix element file.
 Write RED INT COORD IFLAGS                from file      0 offset           0 length                   7 to matrix element file.
 Write RED INT COORD RFLAGS                from file      0 offset           0 length                   7 to matrix element file.
 Write RED INT COORD CONSTRAINT            from file      0 offset           0 length                  14 to matrix element file.
 Write FINITE EM FIELD                     from file  10521 offset           0 length                  35 to matrix element file.
 Write OVERLAP                             from file  10514 offset           0 length                  78 to matrix element file.
 Write CORE HAMILTONIAN ALPHA              from file  10515 offset           0 length                  78 to matrix element file.
 Write CORE HAMILTONIAN BETA               from file  10515 offset          78 length                  78 to matrix element file.
 Write KINETIC ENERGY                      from file  10516 offset           0 length                  78 to matrix element file.
 Write ORTHOGONAL BASIS                    from file  10685 offset           0 length                 144 to matrix element file.
 Write DIPOLE INTEGRALS                    from file  10518 offset           0 length                 234 to matrix element file.
 Array DIP VEL INTEGRALS                    on  file  10572 does not exist.
 Array R X DEL INTEGRALS                    on  file  10572 does not exist.
 Write ALPHA ORBITAL ENERGIES              from file      0 offset           0 length                  12 to matrix element file.
 Write ALPHA MO COEFFICIENTS               from file  10524 offset           0 length                 144 to matrix element file.
 Write ALPHA DENSITY MATRIX                from file      0 offset           0 length                  78 to matrix element file.
 Write ALPHA FOCK MATRIX                   from file  10536 offset           0 length                  78 to matrix element file.
 Write ENERGY-WEIGHTED DENSITY             from file  10571 offset           0 length                  78 to matrix element file.
 Write ALPHA SCF DENSITY MATRIX            from file      0 offset           0 length                  78 to matrix element file.
 No 2e integrals to process.
 Perform NBO analysis...executing G16NBO...

 *********************************** NBO 7.0 ***********************************
             N A T U R A L   A T O M I C   O R B I T A L   A N D
          N A T U R A L   B O N D   O R B I T A L   A N A L Y S I S
 **************************** Espen Tangen (S101595) ***************************
  (c) Copyright 1996-2021 Board of Regents of the University of Wisconsin System
      on behalf of the Theoretical Chemistry Institute.  All rights reserved.

          Cite this program [NBO 7.0.10 (8-Feb-2021)] as:

          NBO 7.0.  E. D. Glendening, J. K. Badenhoop, A. E. Reed,
          J. E. Carpenter, J. A. Bohmann, C. M. Morales, P. Karafiloglou,
          C. R. Landis, and F. Weinhold, Theoretical Chemistry Institute,
          University of Wisconsin, Madison, WI (2018)

       /NPA    / : Natural Population Analysis
       /AOPNAO / : Print the AO to PNAO transformation
       /AONAO  / : Print the AO to NAO transformation
       /AONO   / : Print the NOs in the AO basis
       /AOMO   / : Print the MOs in the AO basis
       /BOAO   / : Print the AO bond-order matrix
       /DMAO   / : Print the AO density matrix
       /DMPNAO / : Print the PNAO density matrix
       /DMNAO  / : Print the NAO density matrix
       /DMMO   / : Print the MO density matrix
       /SAO    / : Print the AO overlap matrix
       /SPNAO  / : Print the PNAO overlap matrix
       /DETAIL / : Write details of NBO search
       /ARCHIVE/ : Write the archive file to lfn47
       /AOINFO / : Write AO information to lfn31
       /FILE   / : Set to LiBH2

 Filename set to LiBH2

 Job title: NBO-LiBH2


 MOs in the AO basis:

           AO          1       2       3       4       5       6       7       8
      ------------ ------- ------- ------- ------- ------- ------- ------- -------
   1.  B 1 (s)      0.9907 -0.0007 -0.2142  0.0000 -0.0696  0.0424  0.0000  0.0000
   2.  B 1 (s)      0.0389 -0.0014  0.5152  0.0000  0.1838 -0.1198  0.0000  0.0000
   3.  B 1 (px)     0.0000  0.0000  0.0000  0.0000  0.0000  0.0000  0.2976  0.0000
   4.  B 1 (py)     0.0000  0.0000  0.0000  0.4935  0.0000  0.0000  0.0000 -0.0435
   5.  B 1 (pz)     0.0010 -0.0027  0.1584  0.0000 -0.5044  0.1864  0.0000  0.0000
   6. Li 2 (s)      0.0005  0.9911 -0.0295  0.0000 -0.1865 -0.1916  0.0000  0.0000
   7. Li 2 (s)     -0.0059  0.0342  0.0700  0.0000  0.5615  0.7446  0.0000  0.0000
   8. Li 2 (px)     0.0000  0.0000  0.0000  0.0000  0.0000  0.0000  0.9036  0.0000
   9. Li 2 (py)     0.0000  0.0000  0.0000  0.0439  0.0000  0.0000  0.0000  1.0043
  10. Li 2 (pz)    -0.0070 -0.0039  0.0563  0.0000  0.2967 -0.6430  0.0000  0.0000
  11.  H 3 (s)     -0.0061 -0.0008  0.3430  0.4600 -0.1863  0.0511  0.0000 -0.1243
  12.  H 4 (s)     -0.0061 -0.0008  0.3430 -0.4600 -0.1863  0.0511  0.0000  0.1243

           AO          9      10      11      12
      ------------ ------- ------- ------- -------
   1.  B 1 (s)      0.0000 -0.1983  0.0000 -0.1798
   2.  B 1 (s)      0.0000  1.0831  0.0000  1.0560
   3.  B 1 (px)     0.9714  0.0000  0.0000  0.0000
   4.  B 1 (py)     0.0000  0.0000  1.2004  0.0000
   5.  B 1 (pz)     0.0000 -0.6416  0.0000  0.9077
   6. Li 2 (s)      0.0000  0.1091  0.0000 -0.0110
   7. Li 2 (s)      0.0000 -0.6837  0.0000  0.1224
   8. Li 2 (px)    -0.4646  0.0000  0.0000  0.0000
   9. Li 2 (py)     0.0000  0.0000 -0.1486  0.0000
  10. Li 2 (pz)     0.0000 -0.9831  0.0000  0.1509
  11.  H 3 (s)      0.0000 -0.1208 -0.8503 -0.9232
  12.  H 4 (s)      0.0000 -0.1208  0.8503 -0.9232


 NOs in the AO basis:

           AO          1       2       3       4       5       6       7       8
      ------------ ------- ------- ------- ------- ------- ------- ------- -------
   1.  B 1 (s)      0.8473  0.4974 -0.2023 -0.1601 -0.0122 -0.0062 -0.0024  0.0064
   2.  B 1 (s)     -0.0164 -0.3319 -0.3076 -0.2179  0.2195  0.1106  0.0425 -0.0387
   3.  B 1 (px)     0.0000  0.0000  0.0000  0.0000  0.0000 -0.3794  0.0165 -0.1242
   4.  B 1 (py)     0.0586  0.0156 -0.0031  0.3355  0.3568 -0.0558  0.3084 -0.2149
   5.  B 1 (pz)     0.0537 -0.0052  0.3915 -0.2584  0.2378  0.0584 -0.3120  0.5149
   6. Li 2 (s)     -0.4924  0.7325 -0.1238 -0.3197  0.3483 -0.1125 -0.0435  0.0028
   7. Li 2 (s)     -0.0933 -0.1234 -0.5093  0.1501 -0.1249  0.4017  0.0745  0.1192
   8. Li 2 (px)     0.0000  0.0000  0.0000  0.0000  0.0000  0.5114 -0.7871 -0.3018
   9. Li 2 (py)     0.0052  0.0014 -0.0003  0.0299  0.0317  0.4449  0.0814  0.7444
  10. Li 2 (pz)    -0.0421 -0.0933 -0.2666  0.0761 -0.0629 -0.5695 -0.5872  0.6082
  11.  H 3 (s)      0.0536 -0.1615  0.0678  0.0685  0.5707 -0.0401 -0.0510 -0.2389
  12.  H 4 (s)     -0.0557 -0.1907  0.0736 -0.5570 -0.0944  0.0169  0.4232 -0.3204

           AO          9      10      11      12
      ------------ ------- ------- ------- -------
   1.  B 1 (s)     -0.0053  0.0140 -0.0826  0.2575
   2.  B 1 (s)      0.0787 -0.1323  0.3926 -1.4523
   3.  B 1 (px)     0.8971  0.2587  0.0291  0.0078
   4.  B 1 (py)    -0.2690  0.8149 -0.7003 -0.2676
   5.  B 1 (pz)     0.2481 -0.4132 -0.7479 -0.3357
   6. Li 2 (s)     -0.0720  0.0760  0.1333 -0.0739
   7. Li 2 (s)      0.3069 -0.3540 -0.7069  0.3697
   8. Li 2 (px)    -0.0812  0.2314  0.0057  0.0000
   9. Li 2 (py)     0.1849  0.3206  0.3555  0.0933
  10. Li 2 (pz)    -0.1389  0.0172 -0.4638  0.3591
  11.  H 3 (s)      0.0365 -0.3995  0.6499  0.9815
  12.  H 4 (s)     -0.2976  0.8859 -0.2587  0.6211


 AO overlap matrix:

           AO          1       2       3       4       5       6       7       8
      ------------ ------- ------- ------- ------- ------- ------- ------- -------
   1.  B 1 (s)      1.0000  0.2693  0.0000  0.0000  0.0000  0.0000  0.0378  0.0000
   2.  B 1 (s)      0.2693  1.0000  0.0000  0.0000  0.0000  0.0275  0.3265  0.0000
   3.  B 1 (px)     0.0000  0.0000  1.0000  0.0000  0.0000  0.0000  0.0000  0.1767
   4.  B 1 (py)     0.0000  0.0000  0.0000  1.0000  0.0000  0.0000  0.0000  0.0000
   5.  B 1 (pz)     0.0000  0.0000  0.0000  0.0000  1.0000 -0.0487 -0.2161  0.0000
   6. Li 2 (s)      0.0000  0.0275  0.0000  0.0000 -0.0487  1.0000  0.2411  0.0000
   7. Li 2 (s)      0.0378  0.3265  0.0000  0.0000 -0.2161  0.2411  1.0000  0.0000
   8. Li 2 (px)     0.0000  0.0000  0.1767  0.0000  0.0000  0.0000  0.0000  1.0000
   9. Li 2 (py)     0.0000  0.0000  0.0000  0.1767  0.0000  0.0000  0.0000  0.0000
  10. Li 2 (pz)     0.0655  0.4564  0.0000  0.0000 -0.2526  0.0000  0.0000  0.0000
  11.  H 3 (s)      0.0706  0.4894  0.0000  0.4128  0.2764  0.0019  0.1232  0.0000
  12.  H 4 (s)      0.0706  0.4894  0.0000 -0.4128  0.2764  0.0019  0.1232  0.0000

           AO          9      10      11      12
      ------------ ------- ------- ------- -------
   1.  B 1 (s)      0.0000  0.0655  0.0706  0.0706
   2.  B 1 (s)      0.0000  0.4564  0.4894  0.4894
   3.  B 1 (px)     0.0000  0.0000  0.0000  0.0000
   4.  B 1 (py)     0.1767  0.0000  0.4128 -0.4128
   5.  B 1 (pz)     0.0000 -0.2526  0.2764  0.2764
   6. Li 2 (s)      0.0000  0.0000  0.0019  0.0019
   7. Li 2 (s)      0.0000  0.0000  0.1232  0.1232
   8. Li 2 (px)     0.0000  0.0000  0.0000  0.0000
   9. Li 2 (py)     1.0000  0.0000  0.0619 -0.0619
  10. Li 2 (pz)     0.0000  1.0000  0.1817  0.1817
  11.  H 3 (s)      0.0619  0.1817  1.0000  0.1326
  12.  H 4 (s)     -0.0619  0.1817  0.1326  1.0000


 AO bond-order matrix:

           AO          1       2       3       4       5       6       7       8
      ------------ ------- ------- ------- ------- ------- ------- ------- -------
   1.  B 1 (s)      2.0643 -0.1691  0.0000  0.0000  0.0044  0.0382 -0.1199  0.0000
   2.  B 1 (s)     -0.1691  0.6015  0.0000  0.0000 -0.0222 -0.1017  0.2780  0.0000
   3.  B 1 (px)     0.0000  0.0000  0.0000  0.0000  0.0000  0.0000  0.0000  0.0000
   4.  B 1 (py)     0.0000  0.0000  0.0000  0.4870  0.0000  0.0000  0.0000  0.0000
   5.  B 1 (pz)     0.0044 -0.0222  0.0000  0.0000  0.5590  0.1735 -0.5445  0.0000
   6. Li 2 (s)      0.0382 -0.1017  0.0000  0.0000  0.1735  2.0359 -0.1458  0.0000
   7. Li 2 (s)     -0.1199  0.2780  0.0000  0.0000 -0.5445 -0.1458  0.6429  0.0000
   8. Li 2 (px)     0.0000  0.0000  0.0000  0.0000  0.0000  0.0000  0.0000  0.0000
   9. Li 2 (py)     0.0000  0.0000  0.0000  0.0433  0.0000  0.0000  0.0000  0.0000
  10. Li 2 (pz)    -0.0792  0.1666  0.0000  0.0000 -0.2815 -0.1218  0.3409  0.0000
  11.  H 3 (s)     -0.1331  0.2844  0.0000  0.4540  0.2966  0.0476 -0.1612  0.0000
  12.  H 4 (s)     -0.1331  0.2844  0.0000 -0.4540  0.2966  0.0476 -0.1612  0.0000

           AO          9      10      11      12
      ------------ ------- ------- ------- -------
   1.  B 1 (s)      0.0000 -0.0792 -0.1331 -0.1331
   2.  B 1 (s)      0.0000  0.1666  0.2844  0.2844
   3.  B 1 (px)     0.0000  0.0000  0.0000  0.0000
   4.  B 1 (py)     0.0433  0.0000  0.4540 -0.4540
   5.  B 1 (pz)     0.0000 -0.2815  0.2966  0.2966
   6. Li 2 (s)      0.0000 -0.1218  0.0476  0.0476
   7. Li 2 (s)      0.0000  0.3409 -0.1612 -0.1612
   8. Li 2 (px)     0.0000  0.0000  0.0000  0.0000
   9. Li 2 (py)     0.0039  0.0000  0.0404 -0.0404
  10. Li 2 (pz)     0.0000  0.1826 -0.0719 -0.0719
  11.  H 3 (s)      0.0404 -0.0719  0.7280 -0.1184
  12.  H 4 (s)     -0.0404 -0.0719 -0.1184  0.7280


 AO density matrix:

           AO          1       2       3       4       5       6       7       8
      ------------ ------- ------- ------- ------- ------- ------- ------- -------
   1.  B 1 (s)      1.9993  0.5509  0.0000  0.0000 -0.0029  0.0003  0.0665  0.0000
   2.  B 1 (s)      0.5509  1.7660  0.0000  0.0000  0.0637  0.0473  0.8810  0.0000
   3.  B 1 (px)     0.0000  0.0000  0.0000  0.0000  0.0000  0.0000  0.0000  0.0000
   4.  B 1 (py)     0.0000  0.0000  0.0000  1.5524  0.0000  0.0000  0.0000  0.0000
   5.  B 1 (pz)    -0.0029  0.0637  0.0000  0.0000  1.4744 -0.0833 -0.8690  0.0000
   6. Li 2 (s)      0.0003  0.0473  0.0000  0.0000 -0.0833  1.9988  0.5149  0.0000
   7. Li 2 (s)      0.0665  0.8810  0.0000  0.0000 -0.8690  0.5149  1.1138  0.0000
   8. Li 2 (px)     0.0000  0.0000  0.0000  0.0000  0.0000  0.0000  0.0000  0.0000
   9. Li 2 (py)     0.0000  0.0000  0.0000  0.3313  0.0000  0.0000  0.0000  0.0000
  10. Li 2 (pz)     0.1265  0.9100  0.0000  0.0000 -0.4602 -0.0313  0.7570  0.0000
  11.  H 3 (s)      0.1337  1.1202  0.0000  1.0668  0.6668  0.0058  0.2029  0.0000
  12.  H 4 (s)      0.1337  1.1202  0.0000 -1.0668  0.6668  0.0058  0.2029  0.0000

           AO          9      10      11      12
      ------------ ------- ------- ------- -------
   1.  B 1 (s)      0.0000  0.1265  0.1337  0.1337
   2.  B 1 (s)      0.0000  0.9100  1.1202  1.1202
   3.  B 1 (px)     0.0000  0.0000  0.0000  0.0000
   4.  B 1 (py)     0.3313  0.0000  1.0668 -1.0668
   5.  B 1 (pz)     0.0000 -0.4602  0.6668  0.6668
   6. Li 2 (s)      0.0000 -0.0313  0.0058  0.0058
   7. Li 2 (s)      0.0000  0.7570  0.2029  0.2029
   8. Li 2 (px)     0.0000  0.0000  0.0000  0.0000
   9. Li 2 (py)     0.0707  0.0000  0.2277 -0.2277
  10. Li 2 (pz)     0.0000  0.6527  0.3857  0.3857
  11.  H 3 (s)      0.2277  0.3857  1.7335  0.2673
  12.  H 4 (s)     -0.2277  0.3857  0.2673  1.7335


 MO density matrix:

      MO     1       2       3       4       5       6       7       8       9
     ---- ------  ------  ------  ------  ------  ------  ------  ------  ------
   1.     2.0000  0.0000  0.0000  0.0000  0.0000  0.0000  0.0000  0.0000  0.0000
   2.     0.0000  2.0000  0.0000  0.0000  0.0000  0.0000  0.0000  0.0000  0.0000
   3.     0.0000  0.0000  2.0000  0.0000  0.0000  0.0000  0.0000  0.0000  0.0000
   4.     0.0000  0.0000  0.0000  2.0000  0.0000  0.0000  0.0000  0.0000  0.0000
   5.     0.0000  0.0000  0.0000  0.0000  2.0000  0.0000  0.0000  0.0000  0.0000
   6.     0.0000  0.0000  0.0000  0.0000  0.0000  0.0000  0.0000  0.0000  0.0000
   7.     0.0000  0.0000  0.0000  0.0000  0.0000  0.0000  0.0000  0.0000  0.0000
   8.     0.0000  0.0000  0.0000  0.0000  0.0000  0.0000  0.0000  0.0000  0.0000
   9.     0.0000  0.0000  0.0000  0.0000  0.0000  0.0000  0.0000  0.0000  0.0000
  10.     0.0000  0.0000  0.0000  0.0000  0.0000  0.0000  0.0000  0.0000  0.0000
  11.     0.0000  0.0000  0.0000  0.0000  0.0000  0.0000  0.0000  0.0000  0.0000
  12.     0.0000  0.0000  0.0000  0.0000  0.0000  0.0000  0.0000  0.0000  0.0000

      MO    10      11      12
     ---- ------  ------  ------
   1.     0.0000  0.0000  0.0000
   2.     0.0000  0.0000  0.0000
   3.     0.0000  0.0000  0.0000
   4.     0.0000  0.0000  0.0000
   5.     0.0000  0.0000  0.0000
   6.     0.0000  0.0000  0.0000
   7.     0.0000  0.0000  0.0000
   8.     0.0000  0.0000  0.0000
   9.     0.0000  0.0000  0.0000
  10.     0.0000  0.0000  0.0000
  11.     0.0000  0.0000  0.0000
  12.     0.0000  0.0000  0.0000


 NATURAL POPULATIONS:  Natural atomic orbital occupancies

  NAO Atom No lang   Type(AO)    Occupancy      Energy
 -------------------------------------------------------
   1    B  1  s      Cor( 1s)     1.99998      -7.35380
   2    B  1  s      Val( 2s)     1.11329      -0.01011
   3    B  1  px     Val( 2p)     0.00000       0.29575
   4    B  1  py     Val( 2p)     0.75014       0.34819
   5    B  1  pz     Val( 2p)     0.98679       0.19912

   6   Li  2  s      Cor( 1s)     1.99998      -2.32919
   7   Li  2  s      Val( 2s)     0.64628       0.02326
   8   Li  2  px     Ryd( 2p)     0.00000       0.18502
   9   Li  2  py     Ryd( 2p)     0.00373       0.18748
  10   Li  2  pz     Ryd( 2p)     0.12219       0.32711

  11    H  3  s      Val( 1s)     1.18880       0.04005

  12    H  4  s      Val( 1s)     1.18880       0.04005


 Summary of Natural Population Analysis:

                                     Natural Population
             Natural    ---------------------------------------------
  Atom No    Charge        Core      Valence    Rydberg      Total
 --------------------------------------------------------------------
    B  1    0.14979      1.99998     2.85022    0.00000     4.85021
   Li  2    0.22781      1.99998     0.64628    0.12593     2.77219
    H  3   -0.18880      0.00000     1.18880    0.00000     1.18880
    H  4   -0.18880      0.00000     1.18880    0.00000     1.18880
 ====================================================================
 * Total *  0.00000      3.99997     5.87411    0.12593    10.00000

                                 Natural Population
 ---------------------------------------------------------
   Core                       3.99997 ( 99.9992% of    4)
   Valence                    5.87411 ( 97.9018% of    6)
   Natural Minimal Basis      9.87407 ( 98.7407% of   10)
   Natural Rydberg Basis      0.12593 (  1.2593% of   10)
 ---------------------------------------------------------

    Atom No         Natural Electron Configuration
 ----------------------------------------------------------------------------
      B  1      [core]2s( 1.11)2p( 1.74)
     Li  2      [core]2s( 0.65)2p( 0.13)
      H  3            1s( 1.19)
      H  4            1s( 1.19)


 PNAOs in the AO basis:

           AO          1       2       3       4       5       6       7       8
      ------------ ------- ------- ------- ------- ------- ------- ------- -------
   1.  B 1 (s)      0.9849 -0.3289  0.0000  0.0000  0.0000  0.0000  0.0000  0.0000
   2.  B 1 (s)      0.0515  1.0371  0.0000  0.0000  0.0000  0.0000  0.0000  0.0000
   3.  B 1 (px)     0.0000  0.0000  1.0000  0.0000  0.0000  0.0000  0.0000  0.0000
   4.  B 1 (py)     0.0000  0.0000  0.0000  1.0000  0.0000  0.0000  0.0000  0.0000
   5.  B 1 (pz)     0.0000  0.0000  0.0000  0.0000  1.0000  0.0000  0.0000  0.0000
   6. Li 2 (s)      0.0000  0.0000  0.0000  0.0000  0.0000  0.9906 -0.2837  0.0000
   7. Li 2 (s)      0.0000  0.0000  0.0000  0.0000  0.0000  0.0365  1.0298  0.0000
   8. Li 2 (px)     0.0000  0.0000  0.0000  0.0000  0.0000  0.0000  0.0000  1.0000
   9. Li 2 (py)     0.0000  0.0000  0.0000  0.0000  0.0000  0.0000  0.0000  0.0000
  10. Li 2 (pz)     0.0000  0.0000  0.0000  0.0000  0.0000  0.0000  0.0000  0.0000
  11.  H 3 (s)      0.0000  0.0000  0.0000  0.0000  0.0000  0.0000  0.0000  0.0000
  12.  H 4 (s)      0.0000  0.0000  0.0000  0.0000  0.0000  0.0000  0.0000  0.0000

           AO          9      10      11      12
      ------------ ------- ------- ------- -------
   1.  B 1 (s)      0.0000  0.0000  0.0000  0.0000
   2.  B 1 (s)      0.0000  0.0000  0.0000  0.0000
   3.  B 1 (px)     0.0000  0.0000  0.0000  0.0000
   4.  B 1 (py)     0.0000  0.0000  0.0000  0.0000
   5.  B 1 (pz)     0.0000  0.0000  0.0000  0.0000
   6. Li 2 (s)      0.0000  0.0000  0.0000  0.0000
   7. Li 2 (s)      0.0000  0.0000  0.0000  0.0000
   8. Li 2 (px)     0.0000  0.0000  0.0000  0.0000
   9. Li 2 (py)     1.0000  0.0000  0.0000  0.0000
  10. Li 2 (pz)     0.0000  1.0000  0.0000  0.0000
  11.  H 3 (s)      0.0000  0.0000  1.0000  0.0000
  12.  H 4 (s)      0.0000  0.0000  0.0000  1.0000


 PNAO overlap matrix:

           NAO         1       2       3       4       5       6       7       8
      ------------ ------- ------- ------- ------- ------- ------- ------- -------
   1.  B 1( 1s )    1.0000  0.0000  0.0000  0.0000  0.0000  0.0034  0.0552  0.0000
   2.  B 1( 2s )    0.0000  1.0000  0.0000  0.0000  0.0000  0.0402  0.3278  0.0000
   3.  B 1( 2px)    0.0000  0.0000  1.0000  0.0000  0.0000  0.0000  0.0000  0.1767
   4.  B 1( 2py)    0.0000  0.0000  0.0000  1.0000  0.0000  0.0000  0.0000  0.0000
   5.  B 1( 2pz)    0.0000  0.0000  0.0000  0.0000  1.0000 -0.0561 -0.2088  0.0000
   6. Li 2( 1s )    0.0034  0.0402  0.0000  0.0000 -0.0561  1.0000  0.0000  0.0000
   7. Li 2( 2s )    0.0552  0.3278  0.0000  0.0000 -0.2088  0.0000  1.0000  0.0000
   8. Li 2( 2px)    0.0000  0.0000  0.1767  0.0000  0.0000  0.0000  0.0000  1.0000
   9. Li 2( 2py)    0.0000  0.0000  0.0000  0.1767  0.0000  0.0000  0.0000  0.0000
  10. Li 2( 2pz)    0.0880  0.4517  0.0000  0.0000 -0.2526  0.0000  0.0000  0.0000
  11.  H 3( 1s )    0.0947  0.4843  0.0000  0.4128  0.2764  0.0064  0.1264  0.0000
  12.  H 4( 1s )    0.0947  0.4843  0.0000 -0.4128  0.2764  0.0064  0.1264  0.0000

           NAO         9      10      11      12
      ------------ ------- ------- ------- -------
   1.  B 1( 1s )    0.0000  0.0880  0.0947  0.0947
   2.  B 1( 2s )    0.0000  0.4517  0.4843  0.4843
   3.  B 1( 2px)    0.0000  0.0000  0.0000  0.0000
   4.  B 1( 2py)    0.1767  0.0000  0.4128 -0.4128
   5.  B 1( 2pz)    0.0000 -0.2526  0.2764  0.2764
   6. Li 2( 1s )    0.0000  0.0000  0.0064  0.0064
   7. Li 2( 2s )    0.0000  0.0000  0.1264  0.1264
   8. Li 2( 2px)    0.0000  0.0000  0.0000  0.0000
   9. Li 2( 2py)    1.0000  0.0000  0.0619 -0.0619
  10. Li 2( 2pz)    0.0000  1.0000  0.1817  0.1817
  11.  H 3( 1s )    0.0619  0.1817  1.0000  0.1326
  12.  H 4( 1s )   -0.0619  0.1817  0.1326  1.0000


 PNAO density matrix:

           NAO         1       2       3       4       5       6       7       8
      ------------ ------- ------- ------- ------- ------- ------- ------- -------
   1.  B 1( 1s )    2.0000  0.0000  0.0000  0.0000  0.0005  0.0068  0.1133  0.0000
   2.  B 1( 2s )    0.0000  1.7399  0.0000  0.0000  0.0670  0.0810  0.9045  0.0000
   3.  B 1( 2px)    0.0000  0.0000  0.0000  0.0000  0.0000  0.0000  0.0000  0.0000
   4.  B 1( 2py)    0.0000  0.0000  0.0000  1.5524  0.0000  0.0000  0.0000  0.0000
   5.  B 1( 2pz)    0.0005  0.0670  0.0000  0.0000  1.4744 -0.1142 -0.8712  0.0000
   6. Li 2( 1s )    0.0068  0.0810  0.0000  0.0000 -0.1142  2.0000  0.0000  0.0000
   7. Li 2( 2s )    0.1133  0.9045  0.0000  0.0000 -0.8712  0.0000  1.0411  0.0000
   8. Li 2( 2px)    0.0000  0.0000  0.0000  0.0000  0.0000  0.0000  0.0000  0.0000
   9. Li 2( 2py)    0.0000  0.0000  0.0000  0.3313  0.0000  0.0000  0.0000  0.0000
  10. Li 2( 2pz)    0.1714  0.9022  0.0000  0.0000 -0.4602 -0.0034  0.7884  0.0000
  11.  H 3( 1s )    0.1894  1.1178  0.0000  1.0668  0.6668  0.0131  0.2073  0.0000
  12.  H 4( 1s )    0.1894  1.1178  0.0000 -1.0668  0.6668  0.0131  0.2073  0.0000

           NAO         9      10      11      12
      ------------ ------- ------- ------- -------
   1.  B 1( 1s )    0.0000  0.1714  0.1894  0.1894
   2.  B 1( 2s )    0.0000  0.9022  1.1178  1.1178
   3.  B 1( 2px)    0.0000  0.0000  0.0000  0.0000
   4.  B 1( 2py)    0.3313  0.0000  1.0668 -1.0668
   5.  B 1( 2pz)    0.0000 -0.4602  0.6668  0.6668
   6. Li 2( 1s )    0.0000 -0.0034  0.0131  0.0131
   7. Li 2( 2s )    0.0000  0.7884  0.2073  0.2073
   8. Li 2( 2px)    0.0000  0.0000  0.0000  0.0000
   9. Li 2( 2py)    0.0707  0.0000  0.2277 -0.2277
  10. Li 2( 2pz)    0.0000  0.6527  0.3857  0.3857
  11.  H 3( 1s )    0.2277  0.3857  1.7335  0.2673
  12.  H 4( 1s )   -0.2277  0.3857  0.2673  1.7335


 NAOs in the AO basis:

           AO          1       2       3       4       5       6       7       8
      ------------ ------- ------- ------- ------- ------- ------- ------- -------
   1.  B 1 (s)      0.9849 -0.3580  0.0000  0.0000 -0.0190 -0.0017  0.0147  0.0000
   2.  B 1 (s)      0.0515  1.3630  0.0000  0.0000  0.2048 -0.0001 -0.2155  0.0000
   3.  B 1 (px)     0.0000  0.0000  1.0000  0.0000  0.0000  0.0000  0.0000 -0.1795
   4.  B 1 (py)     0.0000  0.0000  0.0000  1.2412  0.0000  0.0000  0.0000  0.0000
   5.  B 1 (pz)     0.0000  0.1132  0.0000  0.0000  1.1381  0.0000  0.1263  0.0000
   6. Li 2 (s)     -0.0017 -0.0068  0.0000  0.0000  0.0219  0.9906 -0.2889  0.0000
   7. Li 2 (s)     -0.0001 -0.1280  0.0000  0.0000  0.1364  0.0365  1.1061  0.0000
   8. Li 2 (px)     0.0000  0.0000  0.0000  0.0000  0.0000  0.0000  0.0000  1.0160
   9. Li 2 (py)     0.0000  0.0000  0.0000  0.0000  0.0000  0.0000  0.0000  0.0000
  10. Li 2 (pz)     0.0000  0.0000  0.0000  0.0000  0.0000  0.0000  0.0000  0.0000
  11.  H 3 (s)      0.0000 -0.3554  0.0000 -0.3973 -0.2812  0.0000 -0.0302  0.0000
  12.  H 4 (s)      0.0000 -0.3554  0.0000  0.3973 -0.2812  0.0000 -0.0302  0.0000

           AO          9      10      11      12
      ------------ ------- ------- ------- -------
   1.  B 1 (s)      0.0000  0.0826 -0.0004 -0.0004
   2.  B 1 (s)      0.0000 -0.6096 -0.3761 -0.3761
   3.  B 1 (px)     0.0000  0.0000  0.0000  0.0000
   4.  B 1 (py)    -0.1972  0.0000 -0.2312  0.2312
   5.  B 1 (pz)     0.0000  0.4149 -0.1636 -0.1636
   6. Li 2 (s)      0.0000 -0.0382  0.0025  0.0025
   7. Li 2 (s)      0.0000  0.3128 -0.0187 -0.0187
   8. Li 2 (px)     0.0000  0.0000  0.0000  0.0000
   9. Li 2 (py)     1.0162  0.0000  0.0000  0.0000
  10. Li 2 (pz)     0.0000  1.2223  0.0000  0.0000
  11.  H 3 (s)      0.0214 -0.0731  1.2657  0.0073
  12.  H 4 (s)     -0.0214 -0.0731  0.0073  1.2657


 NAO density matrix:

           NAO         1       2       3       4       5       6       7       8
      ------------ ------- ------- ------- ------- ------- ------- ------- -------
   1.  B 1( 1s )    2.0000 -0.0003  0.0000  0.0000  0.0009  0.0000  0.0032  0.0000
   2.  B 1( 2s )   -0.0003  1.1133  0.0000  0.0000 -0.2060  0.0004  0.5347  0.0000
   3.  B 1( 2px)    0.0000  0.0000  0.0000  0.0000  0.0000  0.0000  0.0000  0.0000
   4.  B 1( 2py)    0.0000  0.0000  0.0000  0.7501  0.0000  0.0000  0.0000  0.0000
   5.  B 1( 2pz)    0.0009 -0.2060  0.0000  0.0000  0.9868 -0.0023 -0.7067  0.0000
   6. Li 2( 1s )    0.0000  0.0004  0.0000  0.0000 -0.0023  2.0000 -0.0004  0.0000
   7. Li 2( 2s )    0.0032  0.5347  0.0000  0.0000 -0.7067 -0.0004  0.6463  0.0000
   8. Li 2( 2px)    0.0000  0.0000  0.0000  0.0000  0.0000  0.0000  0.0000  0.0000
   9. Li 2( 2py)    0.0000  0.0000  0.0000  0.0529  0.0000  0.0000  0.0000  0.0000
  10. Li 2( 2pz)   -0.0046  0.2247  0.0000  0.0000 -0.3115 -0.0054  0.2809  0.0000
  11.  H 3( 1s )   -0.0002  0.5515  0.0000  0.6837  0.4248  0.0004 -0.0726  0.0000
  12.  H 4( 1s )   -0.0002  0.5515  0.0000 -0.6837  0.4248  0.0004 -0.0726  0.0000

           NAO         9      10      11      12
      ------------ ------- ------- ------- -------
   1.  B 1( 1s )    0.0000 -0.0046 -0.0002 -0.0002
   2.  B 1( 2s )    0.0000  0.2247  0.5515  0.5515
   3.  B 1( 2px)    0.0000  0.0000  0.0000  0.0000
   4.  B 1( 2py)    0.0529  0.0000  0.6837 -0.6837
   5.  B 1( 2pz)    0.0000 -0.3115  0.4248  0.4248
   6. Li 2( 1s )    0.0000 -0.0054  0.0004  0.0004
   7. Li 2( 2s )    0.0000  0.2809 -0.0726 -0.0726
   8. Li 2( 2px)    0.0000  0.0000  0.0000  0.0000
   9. Li 2( 2py)    0.0037  0.0000  0.0482 -0.0482
  10. Li 2( 2pz)    0.0000  0.1222 -0.0386 -0.0386
  11.  H 3( 1s )    0.0482 -0.0386  1.1888 -0.0573
  12.  H 4( 1s )   -0.0482 -0.0386 -0.0573  1.1888


 NATURAL BOND ORBITAL ANALYSIS:

 Initiate 2-center NBO search using THRESH = 1.900 and PRJTHR = 0.300

 Search of NAO DM block for core orbitals on atom:   1
      Eigenvector ( 1) has occupancy 1.99998
            1.0000 0.0000 0.0000 0.0000 0.0000
        1 eigenvector(s) stashed in permanent list

 Search of NAO DM block for core orbitals on atom:   2
      Eigenvector ( 1) has occupancy 1.99998
            1.0000 0.0000 0.0000 0.0000 0.0000
        1 eigenvector(s) stashed in permanent list

 Core orbitals projected from the NAO density matrix
       6.000 electrons remain (>1.900); search continues

 Search of NAO DM block for the following atom(s):   1
      Select eigenvectors with eigenvalue > 1.900
       1.265 0.835 0.750 0.000 0.000

 No NHOs identified in the 1-center search of the NAO density matrix
       6.000 electrons remain (>1.900); search continues

 Search of NAO DM block for the following atom(s):   1   2
      Select eigenvectors with eigenvalue > 1.900
       2.000 0.869 0.754 0.000 0.000 0.000 0.000 0.000 0.000 0.000
      Eigenvector ( 1) has occupancy 2.00000
            0.0000-0.5365 0.0000 0.0000 0.5779 0.0000-0.5643 0.0000
            0.0000-0.2445
      1 hybrid on atom 1 stashed in prospective list
      1 hybrid on atom 2 stashed in prospective list

 Search of NAO DM block for the following atom(s):   1   3
      Select eigenvectors with eigenvalue > 1.900
       1.998 1.247 0.794 0.000 0.000 0.000
      Eigenvector ( 1) has occupancy 1.99820
            0.0000 0.4232 0.0000 0.4202 0.2360 0.7672
      1 hybrid on atom 1 stashed in prospective list
      1 hybrid on atom 3 stashed in prospective list

 Search of NAO DM block for the following atom(s):   1   4
      Select eigenvectors with eigenvalue > 1.900
       1.998 1.247 0.794 0.000 0.000 0.000
      Eigenvector ( 1) has occupancy 1.99820
            0.0000 0.4232 0.0000-0.4202 0.2360 0.7672
      1 hybrid on atom 1 stashed in prospective list
      1 hybrid on atom 4 stashed in prospective list

 Stash prospective hybrids having projection expectation value > 0.300
       0.956 0.956 0.956 0.956 0.944 0.944
      0 hybrids eliminated in 1 pass
      6 hybrids moved from prospective to permanent list

 NHOs of 2-center eigenvectors projected from the NAO density matrix
       0.004 electrons remain in the fully projected matrix

 Search of NHO DM block for the following atom(s):   1
      Select eigenvectors with eigenvalue > 1.900
       2.000 0.000 0.000 0.000 0.000
      Eigenvector ( 1) has occupancy 1.99998
            1.0000 0.0000 0.0000 0.0000 0.0000
           NBO accepted:    1. Label:CR ( 1)   1
        1 eigenvector(s) stashed in permanent list

 Search of NHO DM block for the following atom(s):   2
      Select eigenvectors with eigenvalue > 1.900
       2.000 0.004 0.000 0.000 0.000
      Eigenvector ( 1) has occupancy 1.99998
            1.0000 0.0000 0.0000 0.0000 0.0000
           NBO accepted:    2. Label:CR ( 1)   2
        1 eigenvector(s) stashed in permanent list

  1-center NBOs projected from the NHO density matrix
       6.000 electrons remain (>1.900); search continues

 Search of NHO DM block for the following atom(s):   1   2
      Select eigenvectors with eigenvalue > 1.900
       1.993 0.007 0.000 0.000 0.000 0.000 0.000 0.000 0.000 0.000
      Eigenvector ( 1) has occupancy 1.99296
            0.0000 0.0000 0.0000 0.7852 0.0000 0.0000 0.6193 0.0000
            0.0000 0.0000
      Occupancy is 1.993 after deleting minor hybrid components
            0.0000 0.0000 0.0000 0.7852 0.0000 0.0000 0.6193 0.0000
            0.0000 0.0000
           NBO accepted:    3. Label:BD ( 1)   1   2
      Occupancy is 0.007 for antibonding component
            0.0000 0.0000 0.0000-0.6193 0.0000 0.0000 0.7852 0.0000
            0.0000 0.0000
           NBO accepted:    4. Label:BD*( 1)   1   2
        2 eigenvector(s) stashed in permanent list

 Search of NHO DM block for the following atom(s):   1   3
      Select eigenvectors with eigenvalue > 1.900
       1.993 0.005 0.000 0.000 0.000 0.000
      Eigenvector ( 1) has occupancy 1.99306
            0.0000 0.6361 0.0000 0.0000 0.0000 0.7716
      Occupancy is 1.993 after deleting minor hybrid components
            0.0000 0.6361 0.0000 0.0000 0.0000 0.7716
           NBO accepted:    5. Label:BD ( 1)   1   3
      Occupancy is 0.005 for antibonding component
            0.0000 0.7716 0.0000 0.0000 0.0000-0.6361
           NBO accepted:    6. Label:BD*( 1)   1   3
        2 eigenvector(s) stashed in permanent list

 Search of NHO DM block for the following atom(s):   1   4
      Select eigenvectors with eigenvalue > 1.900
       1.993 0.005 0.000 0.000 0.000 0.000
      Eigenvector ( 1) has occupancy 1.99306
            0.0000 0.0000 0.6361 0.0000 0.0000 0.7716
      Occupancy is 1.993 after deleting minor hybrid components
            0.0000 0.0000 0.6361 0.0000 0.0000 0.7716
           NBO accepted:    7. Label:BD ( 1)   1   4
      Occupancy is 0.005 for antibonding component
            0.0000 0.0000 0.7716 0.0000 0.0000-0.6361
           NBO accepted:    8. Label:BD*( 1)   1   4
        2 eigenvector(s) stashed in permanent list

  2-center NBOs projected from the NHO density matrix
       0.004 electrons remain in the fully projected matrix

                            Occupancies       Lewis Structure    Low   High
         Max    Occ     -------------------  -----------------   occ   occ
  Cycle  Ctr   Thresh    Lewis   non-Lewis     CR  BD  nC  LP    (L)   (NL)
 ============================================================================
    1     2     1.90     9.97905   0.02095      2   3   0   0     0      0
 ----------------------------------------------------------------------------

 Structure accepted: No low occupancy Lewis orbitals

 -------------------------------------------------------
   Core                      3.99997 ( 99.999% of   4)
   Valence Lewis             5.97909 ( 99.651% of   6)
  ==================      =============================
   Total Lewis               9.97905 ( 99.791% of  10)
  -----------------------------------------------------
   Valence non-Lewis         0.01711 (  0.171% of  10)
   Rydberg non-Lewis         0.00384 (  0.038% of  10)
  ==================      =============================
   Total non-Lewis           0.02095 (  0.209% of  10)
 -------------------------------------------------------


     (Occupancy)   Bond orbital / Coefficients / Hybrids
 ------------------ Lewis ------------------------------------------------------
   1. (1.99998) CR ( 1) B  1            s(100.00%)
                                         1.0000  0.0000  0.0000  0.0000  0.0000
   2. (1.99998) CR ( 1)Li  2            s(100.00%)
                                         1.0000  0.0000  0.0000  0.0000  0.0000
   3. (1.99296) BD ( 1) B  1-Li  2
               ( 61.65%)   0.7852* B  1 s( 36.46%)p 1.74( 63.54%)
                                         0.0000  0.6038  0.0000  0.0000 -0.7971
               ( 38.35%)   0.6193*Li  2 s( 84.20%)p 0.19( 15.80%)
                                         0.0000  0.9176  0.0000  0.0000  0.3975
   4. (1.99306) BD ( 1) B  1- H  3
               ( 40.46%)   0.6361* B  1 s( 31.77%)p 2.15( 68.23%)
                                         0.0000  0.5636  0.0000  0.7071  0.4270
               ( 59.54%)   0.7716* H  3 s(100.00%)
                                         1.0000
   5. (1.99306) BD ( 1) B  1- H  4
               ( 40.46%)   0.6361* B  1 s( 31.77%)p 2.15( 68.23%)
                                         0.0000  0.5636  0.0000 -0.7071  0.4270
               ( 59.54%)   0.7716* H  4 s(100.00%)
                                         1.0000
 ---------------- non-Lewis ----------------------------------------------------
   6. (0.00000) LV ( 1) B  1            s(  0.00%)p 1.00(100.00%)
   7. (0.00658) BD*( 1) B  1-Li  2
               ( 38.35%)   0.6193* B  1 s( 36.46%)p 1.74( 63.54%)
                                         0.0000 -0.6038  0.0000  0.0000  0.7971
               ( 61.65%)  -0.7852*Li  2 s( 84.20%)p 0.19( 15.80%)
                                         0.0000 -0.9176  0.0000  0.0000 -0.3975
   8. (0.00527) BD*( 1) B  1- H  3
               ( 59.54%)   0.7716* B  1 s( 31.77%)p 2.15( 68.23%)
                                         0.0000 -0.5636  0.0000 -0.7071 -0.4270
               ( 40.46%)  -0.6361* H  3 s(100.00%)
                                        -1.0000
   9. (0.00527) BD*( 1) B  1- H  4
               ( 59.54%)   0.7716* B  1 s( 31.77%)p 2.15( 68.23%)
                                         0.0000 -0.5636  0.0000  0.7071 -0.4270
               ( 40.46%)  -0.6361* H  4 s(100.00%)
                                        -1.0000
  10. (0.00373) RY ( 1)Li  2            s(  0.00%)p 1.00(100.00%)
                                         0.0000  0.0000  0.0000  1.0000  0.0000
  11. (0.00010) RY ( 2)Li  2            s( 15.80%)p 5.33( 84.20%)
                                         0.0000  0.3975  0.0000  0.0000 -0.9176
  12. (0.00000) RY ( 3)Li  2            s(  0.00%)p 1.00(100.00%)


 NHO DIRECTIONALITY AND BOND BENDING (deviation from line of nuclear centers at
                                      the position of maximum hybrid amplitude)

         [Thresholds for printing:  angular deviation  >  1.0 degree]
                                    p- or d-character  > 25.0%
                                    orbital occupancy  >  0.10e

                        Line of Centers        Hybrid 1             Hybrid 2
                        ---------------  -------------------  ------------------
           NBO            Theta   Phi    Theta   Phi    Dev   Theta   Phi    Dev
 ===============================================================================
   4. BD ( 1) B  1- H  3   56.2   90.0    58.7   90.0   2.5     --     --    --
   5. BD ( 1) B  1- H  4   56.2  270.0    58.7  270.0   2.5     --     --    --


 SECOND ORDER PERTURBATION THEORY ANALYSIS OF FOCK MATRIX IN NBO BASIS

     Threshold for printing:   0.50 kcal/mol
                                                          E(2) E(NL)-E(L) F(L,NL)
      Donor (L) NBO              Acceptor (NL) NBO      kcal/mol   a.u.    a.u.
 ===============================================================================

 within unit  1
    3. BD ( 1) B  1-Li  2       8. BD*( 1) B  1- H  3      2.65    1.06   0.047
    3. BD ( 1) B  1-Li  2       9. BD*( 1) B  1- H  4      2.65    1.06   0.047
    4. BD ( 1) B  1- H  3       7. BD*( 1) B  1-Li  2      1.99    0.82   0.036
    4. BD ( 1) B  1- H  3       9. BD*( 1) B  1- H  4      1.66    1.29   0.041
    4. BD ( 1) B  1- H  3      10. RY ( 1)Li  2            0.75    0.67   0.020
    5. BD ( 1) B  1- H  4       7. BD*( 1) B  1-Li  2      1.99    0.82   0.036
    5. BD ( 1) B  1- H  4       8. BD*( 1) B  1- H  3      1.66    1.29   0.041
    5. BD ( 1) B  1- H  4      10. RY ( 1)Li  2            0.75    0.67   0.020


 NATURAL BOND ORBITALS (Summary):

                                                     Principal Delocalizations
           NBO                 Occupancy    Energy   (geminal,vicinal,remote)
 ===============================================================================
 Molecular unit  1  (H2BLi)
 ------ Lewis --------------------------------------
    1. CR ( 1) B  1             1.99998    -7.35380
    2. CR ( 1)Li  2             1.99998    -2.32919
    3. BD ( 1) B  1-Li  2       1.99296    -0.24954  8(g),9(g)
    4. BD ( 1) B  1- H  3       1.99306    -0.48449  7(g),9(g),10(v)
    5. BD ( 1) B  1- H  4       1.99306    -0.48449  7(g),8(g),10(v)
 ------ non-Lewis ----------------------------------
    6. LV ( 1) B  1             0.00000     0.29575
    7. BD*( 1) B  1-Li  2       0.00658     0.33132
    8. BD*( 1) B  1- H  3       0.00527     0.80744
    9. BD*( 1) B  1- H  4       0.00527     0.80744
   10. RY ( 1)Li  2             0.00373     0.18748
   11. RY ( 2)Li  2             0.00010     0.23998
   12. RY ( 3)Li  2             0.00000     0.18502
          -------------------------------
                 Total Lewis    9.97905  ( 99.7905%)
           Valence non-Lewis    0.01711  (  0.1711%)
           Rydberg non-Lewis    0.00384  (  0.0384%)
          -------------------------------
               Total unit  1   10.00000  (100.0000%)
              Charge unit  1    0.00000

 $CHOOSE
   BOND S 1 2 S 1 3 S 1 4 END
 $END

 NBO analysis completed in 0.15 CPU seconds (1 wall second)
 Maximum scratch memory used by NBO was 222062 words (1.69 MB)
 Maximum scratch memory used by G16NBO was 8368 words (0.06 MB)

 Opening RunExU unformatted file "/cluster/work/users/beto93/LiBH2/Gau-1553559.EUF"
 Read unf file /cluster/work/users/beto93/LiBH2/Gau-1553559.EUF:
 Label Gaussian matrix elements                                         IVers= 2 NLab= 2 Version=ES64L-G16RevC.01
 Title NBO-LiBH2                                                       
 NAtoms=     4 NBasis=    12 NBsUse=    12 ICharg=     0 Multip=     1 NE=    10 Len12L=8 Len4L=8 IOpCl= 0 ICGU=111
 GAUSSIAN SCALARS                    NI= 1 NR= 1 NTot=       1 LenBuf=    2 NRI=1 N=    1000
 NPA CHARGES                         NI= 0 NR= 1 NTot=       4 LenBuf= 4000 NRI=1 N=       4
 Recovered energy= -32.7767069789     dipole=      0.000000000000      0.000000000000     -1.542068512152
 Calling FoFJK, ICntrl=      2127 FMM=F ISym2X=1 I1Cent= 0 IOpClX= 0 NMat=1 NMatS=1 NMatT=0.
 ***** Axes restored to original set *****
 -------------------------------------------------------------------
 Center     Atomic                   Forces (Hartrees/Bohr)
 Number     Number              X              Y              Z
 -------------------------------------------------------------------
      1        5           0.000261035   -0.000000000    0.000174089
      2        3           0.000060661   -0.000000000    0.000040456
      3        1          -0.000023906    0.000000000   -0.000312608
      4        1          -0.000297790    0.000000000    0.000098064
 -------------------------------------------------------------------
 Cartesian Forces:  Max     0.000312608 RMS     0.000158207

 GradGradGradGradGradGradGradGradGradGradGradGradGradGradGradGradGradGrad
 Berny optimization.
 FormGI is forming the generalized inverse of G from B-inverse, IUseBI=4.
 Internal  Forces:  Max     0.000312649 RMS     0.000170116
 Search for a local minimum.
 Step number   1 out of a maximum of   20
 All quantities printed in internal units (Hartrees-Bohrs-Radians)
 Mixed Optimization -- En-DIIS/RFO-DIIS
 Second derivative matrix not updated -- first step.
 The second derivative matrix:
                          R1        R2        R3        A1        A2
           R1           0.06046
           R2           0.00000   0.27491
           R3           0.00000   0.00000   0.27491
           A1           0.00000   0.00000   0.00000   0.16000
           A2           0.00000   0.00000   0.00000   0.00000   0.16000
           A3           0.00000   0.00000   0.00000   0.00000   0.00000
           D1           0.00000   0.00000   0.00000   0.00000   0.00000
                          A3        D1
           A3           0.16000
           D1           0.00000   0.00230
 ITU=  0
     Eigenvalues ---    0.00230   0.06046   0.16000   0.16000   0.27491
     Eigenvalues ---    0.27491
 RFO step:  Lambda=-8.10069380D-07 EMin= 2.30000000D-03
 Linear search not attempted -- first point.
 Iteration  1 RMS(Cart)=  0.00076545 RMS(Int)=  0.00000005
 Iteration  2 RMS(Cart)=  0.00000005 RMS(Int)=  0.00000000
 ClnCor:  largest displacement from symmetrization is 2.17D-13 for atom     1.
 Variable       Old X    -DE/DX   Delta X   Delta X   Delta X     New X
                                 (Linear)    (Quad)   (Total)
    R1        4.14606  -0.00007   0.00000  -0.00121  -0.00121   4.14485
    R2        2.19964  -0.00031   0.00000  -0.00114  -0.00114   2.19850
    R3        2.19964  -0.00031   0.00000  -0.00114  -0.00114   2.19850
    A1        2.16072  -0.00002   0.00000  -0.00011  -0.00011   2.16061
    A2        2.16072  -0.00002   0.00000  -0.00011  -0.00011   2.16061
    A3        1.96175   0.00003   0.00000   0.00021   0.00021   1.96196
    D1        3.14159  -0.00000   0.00000  -0.00000   0.00000   3.14159
         Item               Value     Threshold  Converged?
 Maximum Force            0.000313     0.000002     NO 
 RMS     Force            0.000170     0.000001     NO 
 Maximum Displacement     0.001097     0.000006     NO 
 RMS     Displacement     0.000765     0.000004     NO 
 Predicted change in Energy=-4.050347D-07
 GradGradGradGradGradGradGradGradGradGradGradGradGradGradGradGradGradGrad

                          Input orientation:                          
 ---------------------------------------------------------------------
 Center     Atomic      Atomic             Coordinates (Angstroms)
 Number     Number       Type             X           Y           Z
 ---------------------------------------------------------------------
      1          5           0        0.000050   -0.000000    0.000033
      2          3           0       -1.824727    0.000000   -1.216942
      3          1           0        0.001955   -0.000000    1.163429
      4          1           0        1.074841   -0.000000   -0.445295
 ---------------------------------------------------------------------
                    Distance matrix (angstroms):
                    1          2          3          4
     1  B    0.000000
     2  Li   2.193362   0.000000
     3  H    1.163398   3.000489   0.000000
     4  H    1.163398   3.000489   1.933670   0.000000
 Stoichiometry    BH2Li
 Framework group  C2V[C2(LiB),SGV(H2)]
 Deg. of freedom     3
 Full point group                 C2V     NOp   4
 Largest Abelian subgroup         C2V     NOp   4
 Largest concise Abelian subgroup C2      NOp   2
                         Standard orientation:                         
 ---------------------------------------------------------------------
 Center     Atomic      Atomic             Coordinates (Angstroms)
 Number     Number       Type             X           Y           Z
 ---------------------------------------------------------------------
      1          5           0        0.000000   -0.000000    0.528591
      2          3           0       -0.000000    0.000000   -1.664771
      3          1           0       -0.000000    0.966835    1.175680
      4          1           0       -0.000000   -0.966835    1.175680
 ---------------------------------------------------------------------
 Rotational constants (GHZ):         268.2237449          20.4617657          19.0114544
 Standard basis: STO-3G (5D, 7F)
 There are     7 symmetry adapted cartesian basis functions of A1  symmetry.
 There are     0 symmetry adapted cartesian basis functions of A2  symmetry.
 There are     2 symmetry adapted cartesian basis functions of B1  symmetry.
 There are     3 symmetry adapted cartesian basis functions of B2  symmetry.
 There are     7 symmetry adapted basis functions of A1  symmetry.
 There are     0 symmetry adapted basis functions of A2  symmetry.
 There are     2 symmetry adapted basis functions of B1  symmetry.
 There are     3 symmetry adapted basis functions of B2  symmetry.
    12 basis functions,    36 primitive gaussians,    12 cartesian basis functions
     5 alpha electrons        5 beta electrons
       nuclear repulsion energy         9.4993415567 Hartrees.
 NAtoms=    4 NActive=    4 NUniq=    3 SFac= 1.78D+00 NAtFMM=   60 NAOKFM=F Big=F
 Integral buffers will be    131072 words long.
 Raffenetti 1 integral format.
 Two-electron integral symmetry is turned on.
 One-electron integrals computed using PRISM.
 NBasis=    12 RedAO= T EigKep=  2.43D-01  NBF=     7     0     2     3
 NBsUse=    12 1.00D-06 EigRej= -1.00D+00 NBFU=     7     0     2     3
 Initial guess from the checkpoint file:  "LiBH2.chk"
 B after Tr=     0.000000   -0.000000    0.000000
         Rot=    1.000000   -0.000000    0.000000   -0.000000 Ang=   0.00 deg.
 Initial guess orbital symmetries:
       Occupied  (A1) (A1) (A1) (B2) (A1)
       Virtual   (A1) (B1) (B2) (B1) (A1) (B2) (A1)
 Keep R1 ints in memory in symmetry-blocked form, NReq=807815.
 Requested convergence on RMS density matrix=1.00D-08 within 128 cycles.
 Requested convergence on MAX density matrix=1.00D-06.
 Requested convergence on             energy=1.00D-06.
 No special actions if energy rises.
 SCF Done:  E(RHF) =  -32.7767072730     A.U. after    7 cycles
            NFock=  7  Conv=0.10D-08     -V/T= 1.9915
 Calling FoFJK, ICntrl=      2127 FMM=F ISym2X=1 I1Cent= 0 IOpClX= 0 NMat=1 NMatS=1 NMatT=0.
 ***** Axes restored to original set *****
 -------------------------------------------------------------------
 Center     Atomic                   Forces (Hartrees/Bohr)
 Number     Number              X              Y              Z
 -------------------------------------------------------------------
      1        5          -0.000051118   -0.000000000   -0.000034091
      2        3          -0.000016634   -0.000000000   -0.000011094
      3        1          -0.000010649    0.000000000    0.000089355
      4        1           0.000078401    0.000000000   -0.000044170
 -------------------------------------------------------------------
 Cartesian Forces:  Max     0.000089355 RMS     0.000041201

 GradGradGradGradGradGradGradGradGradGradGradGradGradGradGradGradGradGrad
 Berny optimization.
 Using GEDIIS/GDIIS optimizer.
 FormGI is forming the generalized inverse of G from B-inverse, IUseBI=4.
 Internal  Forces:  Max     0.000089337 RMS     0.000048899
 Search for a local minimum.
 Step number   2 out of a maximum of   20
 All quantities printed in internal units (Hartrees-Bohrs-Radians)
 Mixed Optimization -- En-DIIS/RFO-DIIS
 Swapping is turned off.
 Update second derivatives using D2CorX and points    1    2
 DE= -2.94D-07 DEPred=-4.05D-07 R= 7.26D-01
 Trust test= 7.26D-01 RLast= 2.03D-03 DXMaxT set to 3.00D-01
 The second derivative matrix:
                          R1        R2        R3        A1        A2
           R1           0.06225
           R2           0.00804   0.31078
           R3           0.00804   0.03587   0.31078
           A1          -0.00071  -0.00302  -0.00302   0.15972
           A2          -0.00071  -0.00302  -0.00302  -0.00028   0.15972
           A3           0.00142   0.00604   0.00604   0.00056   0.00056
           D1           0.00000   0.00000   0.00000   0.00000   0.00000
                          A3        D1
           A3           0.15888
           D1          -0.00000   0.00230
 ITU=  0  0
     Eigenvalues ---    0.00230   0.06178   0.15775   0.16000   0.27491
     Eigenvalues ---    0.34769
 En-DIIS/RFO-DIIS/Sim-DIIS IScMMF=       -3 using points:     2    1
 RFO step:  Lambda=-4.41316816D-08.
 DidBck=T Rises=F RFO-DIIS coefs:    0.79339    0.20661
 Iteration  1 RMS(Cart)=  0.00016929 RMS(Int)=  0.00000000
 Iteration  2 RMS(Cart)=  0.00000000 RMS(Int)=  0.00000000
 ClnCor:  largest displacement from symmetrization is 1.86D-13 for atom     1.
 Variable       Old X    -DE/DX   Delta X   Delta X   Delta X     New X
                                 (Linear)    (Quad)   (Total)
    R1        4.14485   0.00002   0.00025   0.00000   0.00025   4.14511
    R2        2.19850   0.00009   0.00023   0.00001   0.00025   2.19875
    R3        2.19850   0.00009   0.00023   0.00001   0.00025   2.19875
    A1        2.16061  -0.00001   0.00002  -0.00006  -0.00004   2.16057
    A2        2.16061  -0.00001   0.00002  -0.00006  -0.00004   2.16057
    A3        1.96196   0.00002  -0.00004   0.00012   0.00008   1.96204
    D1        3.14159  -0.00000   0.00000  -0.00000   0.00000   3.14159
         Item               Value     Threshold  Converged?
 Maximum Force            0.000089     0.000002     NO 
 RMS     Force            0.000049     0.000001     NO 
 Maximum Displacement     0.000267     0.000006     NO 
 RMS     Displacement     0.000169     0.000004     NO 
 Predicted change in Energy=-2.578555D-08
 GradGradGradGradGradGradGradGradGradGradGradGradGradGradGradGradGradGrad

                          Input orientation:                          
 ---------------------------------------------------------------------
 Center     Atomic      Atomic             Coordinates (Angstroms)
 Number     Number       Type             X           Y           Z
 ---------------------------------------------------------------------
      1          5           0        0.000063   -0.000000    0.000042
      2          3           0       -1.824825    0.000000   -1.217008
      3          1           0        0.001923   -0.000000    1.163570
      4          1           0        1.074959   -0.000000   -0.445379
 ---------------------------------------------------------------------
                    Distance matrix (angstroms):
                    1          2          3          4
     1  B    0.000000
     2  Li   2.193496   0.000000
     3  H    1.163530   3.000693   0.000000
     4  H    1.163530   3.000693   1.933941   0.000000
 Stoichiometry    BH2Li
 Framework group  C2V[C2(LiB),SGV(H2)]
 Deg. of freedom     3
 Full point group                 C2V     NOp   4
 Largest Abelian subgroup         C2V     NOp   4
 Largest concise Abelian subgroup C2      NOp   2
                         Standard orientation:                         
 ---------------------------------------------------------------------
 Center     Atomic      Atomic             Coordinates (Angstroms)
 Number     Number       Type             X           Y           Z
 ---------------------------------------------------------------------
      1          5           0       -0.000000    0.000000    0.528624
      2          3           0        0.000000    0.000000   -1.664872
      3          1           0       -0.000000    0.966970    1.175749
      4          1           0       -0.000000   -0.966970    1.175749
 ---------------------------------------------------------------------
 Rotational constants (GHZ):         268.1487059          20.4592770          19.0089290
 Standard basis: STO-3G (5D, 7F)
 There are     7 symmetry adapted cartesian basis functions of A1  symmetry.
 There are     0 symmetry adapted cartesian basis functions of A2  symmetry.
 There are     2 symmetry adapted cartesian basis functions of B1  symmetry.
 There are     3 symmetry adapted cartesian basis functions of B2  symmetry.
 There are     7 symmetry adapted basis functions of A1  symmetry.
 There are     0 symmetry adapted basis functions of A2  symmetry.
 There are     2 symmetry adapted basis functions of B1  symmetry.
 There are     3 symmetry adapted basis functions of B2  symmetry.
    12 basis functions,    36 primitive gaussians,    12 cartesian basis functions
     5 alpha electrons        5 beta electrons
       nuclear repulsion energy         9.4984927403 Hartrees.
 NAtoms=    4 NActive=    4 NUniq=    3 SFac= 1.78D+00 NAtFMM=   60 NAOKFM=F Big=F
 Integral buffers will be    131072 words long.
 Raffenetti 1 integral format.
 Two-electron integral symmetry is turned on.
 One-electron integrals computed using PRISM.
 NBasis=    12 RedAO= T EigKep=  2.43D-01  NBF=     7     0     2     3
 NBsUse=    12 1.00D-06 EigRej= -1.00D+00 NBFU=     7     0     2     3
 Initial guess from the checkpoint file:  "LiBH2.chk"
 B after Tr=    -0.000000    0.000000    0.000000
         Rot=    1.000000    0.000000    0.000000   -0.000000 Ang=   0.00 deg.
 Initial guess orbital symmetries:
       Occupied  (A1) (A1) (A1) (B2) (A1)
       Virtual   (A1) (B1) (B2) (B1) (A1) (B2) (A1)
 Keep R1 ints in memory in symmetry-blocked form, NReq=807815.
 Requested convergence on RMS density matrix=1.00D-08 within 128 cycles.
 Requested convergence on MAX density matrix=1.00D-06.
 Requested convergence on             energy=1.00D-06.
 No special actions if energy rises.
 SCF Done:  E(RHF) =  -32.7767072991     A.U. after    6 cycles
            NFock=  6  Conv=0.55D-08     -V/T= 1.9915
 Calling FoFJK, ICntrl=      2127 FMM=F ISym2X=1 I1Cent= 0 IOpClX= 0 NMat=1 NMatS=1 NMatT=0.
 ***** Axes restored to original set *****
 -------------------------------------------------------------------
 Center     Atomic                   Forces (Hartrees/Bohr)
 Number     Number              X              Y              Z
 -------------------------------------------------------------------
      1        5           0.000006913   -0.000000000    0.000004610
      2        3          -0.000002338   -0.000000000   -0.000001559
      3        1          -0.000002611    0.000000000   -0.000001040
      4        1          -0.000001963    0.000000000   -0.000002011
 -------------------------------------------------------------------
 Cartesian Forces:  Max     0.000006913 RMS     0.000002780

 GradGradGradGradGradGradGradGradGradGradGradGradGradGradGradGradGradGrad
 Berny optimization.
 Using GEDIIS/GDIIS optimizer.
 FormGI is forming the generalized inverse of G from B-inverse, IUseBI=4.
 Internal  Forces:  Max     0.000003825 RMS     0.000002139
 Search for a local minimum.
 Step number   3 out of a maximum of   20
 All quantities printed in internal units (Hartrees-Bohrs-Radians)
 Mixed Optimization -- En-DIIS/RFO-DIIS
 Swapping is turned off.
 Update second derivatives using D2CorX and points    1    2    3
 DE= -2.61D-08 DEPred=-2.58D-08 R= 1.01D+00
 Trust test= 1.01D+00 RLast= 4.46D-04 DXMaxT set to 3.00D-01
 The second derivative matrix:
                          R1        R2        R3        A1        A2
           R1           0.06036
           R2           0.00394   0.31631
           R3           0.00394   0.04139   0.31631
           A1           0.00048  -0.00015  -0.00015   0.15897
           A2           0.00048  -0.00015  -0.00015  -0.00103   0.15897
           A3          -0.00097   0.00031   0.00031   0.00205   0.00205
           D1           0.00000   0.00000   0.00000  -0.00000  -0.00000
                          A3        D1
           A3           0.15589
           D1           0.00000   0.00230
 ITU=  0  0  0
     Eigenvalues ---    0.00230   0.06024   0.15385   0.16000   0.27491
     Eigenvalues ---    0.35781
 En-DIIS/RFO-DIIS/Sim-DIIS IScMMF=       -3 using points:     3    2    1
 RFO step:  Lambda=-1.90040128D-10.
 DIIS inversion failure, remove point   3.
 DIIS inversion failure, remove point   2.
 Use linear search instead of GDIIS.
 RFO step:  Lambda= 0.00000000D+00 EMin= 2.30000000D-03
 Quartic linear search produced a step of  0.01263.
 Iteration  1 RMS(Cart)=  0.00001438 RMS(Int)=  0.00000000
 Iteration  2 RMS(Cart)=  0.00000000 RMS(Int)=  0.00000000
 ClnCor:  largest displacement from symmetrization is 1.86D-13 for atom     1.
 Variable       Old X    -DE/DX   Delta X   Delta X   Delta X     New X
                                 (Linear)    (Quad)   (Total)
    R1        4.14511   0.00000   0.00000   0.00004   0.00005   4.14515
    R2        2.19875  -0.00000   0.00000  -0.00001  -0.00000   2.19875
    R3        2.19875  -0.00000   0.00000  -0.00001  -0.00000   2.19875
    A1        2.16057  -0.00000  -0.00000  -0.00001  -0.00001   2.16056
    A2        2.16057  -0.00000  -0.00000  -0.00001  -0.00001   2.16056
    A3        1.96204   0.00000   0.00000   0.00002   0.00003   1.96207
    D1        3.14159  -0.00000   0.00000  -0.00000   0.00000   3.14159
         Item               Value     Threshold  Converged?
 Maximum Force            0.000004     0.000002     NO 
 RMS     Force            0.000002     0.000001     NO 
 Maximum Displacement     0.000020     0.000006     NO 
 RMS     Displacement     0.000014     0.000004     NO 
 Predicted change in Energy=-1.427777D-10
 GradGradGradGradGradGradGradGradGradGradGradGradGradGradGradGradGradGrad

                          Input orientation:                          
 ---------------------------------------------------------------------
 Center     Atomic      Atomic             Coordinates (Angstroms)
 Number     Number       Type             X           Y           Z
 ---------------------------------------------------------------------
      1          5           0        0.000073   -0.000000    0.000049
      2          3           0       -1.824835    0.000000   -1.217014
      3          1           0        0.001919   -0.000000    1.163576
      4          1           0        1.074963   -0.000000   -0.445385
 ---------------------------------------------------------------------
                    Distance matrix (angstroms):
                    1          2          3          4
     1  B    0.000000
     2  Li   2.193521   0.000000
     3  H    1.163528   3.000707   0.000000
     4  H    1.163528   3.000707   1.933954   0.000000
 Stoichiometry    BH2Li
 Framework group  C2V[C2(LiB),SGV(H2)]
 Deg. of freedom     3
 Full point group                 C2V     NOp   4
 Largest Abelian subgroup         C2V     NOp   4
 Largest concise Abelian subgroup C2      NOp   2
                         Standard orientation:                         
 ---------------------------------------------------------------------
 Center     Atomic      Atomic             Coordinates (Angstroms)
 Number     Number       Type             X           Y           Z
 ---------------------------------------------------------------------
      1          5           0       -0.000000    0.000000    0.528634
      2          3           0        0.000000   -0.000000   -1.664887
      3          1           0       -0.000000    0.966977    1.175746
      4          1           0       -0.000000   -0.966977    1.175746
 ---------------------------------------------------------------------
 Rotational constants (GHZ):         268.1450348          20.4588999          19.0085850
 Standard basis: STO-3G (5D, 7F)
 There are     7 symmetry adapted cartesian basis functions of A1  symmetry.
 There are     0 symmetry adapted cartesian basis functions of A2  symmetry.
 There are     2 symmetry adapted cartesian basis functions of B1  symmetry.
 There are     3 symmetry adapted cartesian basis functions of B2  symmetry.
 There are     7 symmetry adapted basis functions of A1  symmetry.
 There are     0 symmetry adapted basis functions of A2  symmetry.
 There are     2 symmetry adapted basis functions of B1  symmetry.
 There are     3 symmetry adapted basis functions of B2  symmetry.
[...]


 PNAO density matrix:

           NAO         1       2       3       4       5       6       7       8
      ------------ ------- ------- ------- ------- ------- ------- ------- -------
   1.  B 1( 1s )    2.0000  0.0000  0.0000  0.0000  0.0005  0.0068  0.1134  0.0000
   2.  B 1( 2s )    0.0000  1.7400  0.0000  0.0000  0.0671  0.0811  0.9047  0.0000
   3.  B 1( 2px)    0.0000  0.0000  0.0000  0.0000  0.0000  0.0000  0.0000  0.0000
   4.  B 1( 2py)    0.0000  0.0000  0.0000  1.5529  0.0000  0.0000  0.0000  0.0000
   5.  B 1( 2pz)    0.0005  0.0671  0.0000  0.0000  1.4746 -0.1143 -0.8713  0.0000
   6. Li 2( 1s )    0.0068  0.0811  0.0000  0.0000 -0.1143  2.0000  0.0000  0.0000
   7. Li 2( 2s )    0.1134  0.9047  0.0000  0.0000 -0.8713  0.0000  1.0412  0.0000
   8. Li 2( 2px)    0.0000  0.0000  0.0000  0.0000  0.0000  0.0000  0.0000  0.0000
   9. Li 2( 2py)    0.0000  0.0000  0.0000  0.3315  0.0000  0.0000  0.0000  0.0000
  10. Li 2( 2pz)    0.1715  0.9023  0.0000  0.0000 -0.4601 -0.0034  0.7885  0.0000
  11.  H 3( 1s )    0.1896  1.1181  0.0000  1.0669  0.6667  0.0131  0.2076  0.0000
  12.  H 4( 1s )    0.1896  1.1181  0.0000 -1.0669  0.6667  0.0131  0.2076  0.0000

           NAO         9      10      11      12
      ------------ ------- ------- ------- -------
   1.  B 1( 1s )    0.0000  0.1715  0.1896  0.1896
   2.  B 1( 2s )    0.0000  0.9023  1.1181  1.1181
   3.  B 1( 2px)    0.0000  0.0000  0.0000  0.0000
   4.  B 1( 2py)    0.3315  0.0000  1.0669 -1.0669
   5.  B 1( 2pz)    0.0000 -0.4601  0.6667  0.6667
   6. Li 2( 1s )    0.0000 -0.0034  0.0131  0.0131
   7. Li 2( 2s )    0.0000  0.7885  0.2076  0.2076
   8. Li 2( 2px)    0.0000  0.0000  0.0000  0.0000
   9. Li 2( 2py)    0.0708  0.0000  0.2277 -0.2277
  10. Li 2( 2pz)    0.0000  0.6527  0.3860  0.3860
  11.  H 3( 1s )    0.2277  0.3860  1.7337  0.2676
  12.  H 4( 1s )   -0.2277  0.3860  0.2676  1.7337


 NAOs in the AO basis:

           AO          1       2       3       4       5       6       7       8
      ------------ ------- ------- ------- ------- ------- ------- ------- -------
   1.  B 1 (s)      0.9849 -0.3580  0.0000  0.0000 -0.0190 -0.0017  0.0147  0.0000
   2.  B 1 (s)      0.0515  1.3635  0.0000  0.0000  0.2050 -0.0001 -0.2156  0.0000
   3.  B 1 (px)     0.0000  0.0000  1.0000  0.0000  0.0000  0.0000  0.0000 -0.1796
   4.  B 1 (py)     0.0000  0.0000  0.0000  1.2415  0.0000  0.0000  0.0000  0.0000
   5.  B 1 (pz)     0.0000  0.1133  0.0000  0.0000  1.1382  0.0000  0.1263  0.0000
   6. Li 2 (s)     -0.0017 -0.0068  0.0000  0.0000  0.0220  0.9906 -0.2889  0.0000
   7. Li 2 (s)     -0.0001 -0.1280  0.0000  0.0000  0.1364  0.0365  1.1062  0.0000
   8. Li 2 (px)     0.0000  0.0000  0.0000  0.0000  0.0000  0.0000  0.0000  1.0160
   9. Li 2 (py)     0.0000  0.0000  0.0000  0.0000  0.0000  0.0000  0.0000  0.0000
  10. Li 2 (pz)     0.0000  0.0000  0.0000  0.0000  0.0000  0.0000  0.0000  0.0000
  11.  H 3 (s)      0.0000 -0.3557  0.0000 -0.3976 -0.2813  0.0000 -0.0302  0.0000
  12.  H 4 (s)      0.0000 -0.3557  0.0000  0.3976 -0.2813  0.0000 -0.0302  0.0000

           AO          9      10      11      12
      ------------ ------- ------- ------- -------
   1.  B 1 (s)      0.0000  0.0826 -0.0005 -0.0005
   2.  B 1 (s)      0.0000 -0.6099 -0.3764 -0.3764
   3.  B 1 (px)     0.0000  0.0000  0.0000  0.0000
   4.  B 1 (py)    -0.1974  0.0000 -0.2315  0.2315
   5.  B 1 (pz)     0.0000  0.4150 -0.1637 -0.1637
   6. Li 2 (s)      0.0000 -0.0382  0.0025  0.0025
   7. Li 2 (s)      0.0000  0.3130 -0.0188 -0.0188
   8. Li 2 (px)     0.0000  0.0000  0.0000  0.0000
   9. Li 2 (py)     1.0162  0.0000  0.0000  0.0000
  10. Li 2 (pz)     0.0000  1.2225  0.0000  0.0000
  11.  H 3 (s)      0.0214 -0.0731  1.2661  0.0073
  12.  H 4 (s)     -0.0214 -0.0731  0.0073  1.2661


 NAO density matrix:

           NAO         1       2       3       4       5       6       7       8
      ------------ ------- ------- ------- ------- ------- ------- ------- -------
   1.  B 1( 1s )    2.0000 -0.0003  0.0000  0.0000  0.0009  0.0000  0.0032  0.0000
   2.  B 1( 2s )   -0.0003  1.1131  0.0000  0.0000 -0.2060  0.0004  0.5347  0.0000
   3.  B 1( 2px)    0.0000  0.0000  0.0000  0.0000  0.0000  0.0000  0.0000  0.0000
   4.  B 1( 2py)    0.0000  0.0000  0.0000  0.7502  0.0000  0.0000  0.0000  0.0000
   5.  B 1( 2pz)    0.0009 -0.2060  0.0000  0.0000  0.9870 -0.0023 -0.7068  0.0000
   6. Li 2( 1s )    0.0000  0.0004  0.0000  0.0000 -0.0023  2.0000 -0.0004  0.0000
   7. Li 2( 2s )    0.0032  0.5347  0.0000  0.0000 -0.7068 -0.0004  0.6462  0.0000
   8. Li 2( 2px)    0.0000  0.0000  0.0000  0.0000  0.0000  0.0000  0.0000  0.0000
   9. Li 2( 2py)    0.0000  0.0000  0.0000  0.0529  0.0000  0.0000  0.0000  0.0000
  10. Li 2( 2pz)   -0.0046  0.2246  0.0000  0.0000 -0.3115 -0.0054  0.2808  0.0000
  11.  H 3( 1s )   -0.0002  0.5516  0.0000  0.6837  0.4247  0.0004 -0.0725  0.0000
  12.  H 4( 1s )   -0.0002  0.5516  0.0000 -0.6837  0.4247  0.0004 -0.0725  0.0000

           NAO         9      10      11      12
      ------------ ------- ------- ------- -------
   1.  B 1( 1s )    0.0000 -0.0046 -0.0002 -0.0002
   2.  B 1( 2s )    0.0000  0.2246  0.5516  0.5516
   3.  B 1( 2px)    0.0000  0.0000  0.0000  0.0000
   4.  B 1( 2py)    0.0529  0.0000  0.6837 -0.6837
   5.  B 1( 2pz)    0.0000 -0.3115  0.4247  0.4247
   6. Li 2( 1s )    0.0000 -0.0054  0.0004  0.0004
   7. Li 2( 2s )    0.0000  0.2808 -0.0725 -0.0725
   8. Li 2( 2px)    0.0000  0.0000  0.0000  0.0000
   9. Li 2( 2py)    0.0037  0.0000  0.0482 -0.0482
  10. Li 2( 2pz)    0.0000  0.1222 -0.0386 -0.0386
  11.  H 3( 1s )    0.0482 -0.0386  1.1888 -0.0572
  12.  H 4( 1s )   -0.0482 -0.0386 -0.0572  1.1888


 NATURAL BOND ORBITAL ANALYSIS:

 Initiate 2-center NBO search using THRESH = 1.900 and PRJTHR = 0.300

 Search of NAO DM block for core orbitals on atom:   1
      Eigenvector ( 1) has occupancy 1.99998
            1.0000 0.0000 0.0000 0.0000 0.0000
        1 eigenvector(s) stashed in permanent list

 Search of NAO DM block for core orbitals on atom:   2
      Eigenvector ( 1) has occupancy 1.99998
            1.0000 0.0000 0.0000 0.0000 0.0000
        1 eigenvector(s) stashed in permanent list

 Core orbitals projected from the NAO density matrix
       6.000 electrons remain (>1.900); search continues

 Search of NAO DM block for the following atom(s):   1
      Select eigenvectors with eigenvalue > 1.900
       1.265 0.835 0.750 0.000 0.000

 No NHOs identified in the 1-center search of the NAO density matrix
       6.000 electrons remain (>1.900); search continues

 Search of NAO DM block for the following atom(s):   1   2
      Select eigenvectors with eigenvalue > 1.900
       2.000 0.868 0.754 0.000 0.000 0.000 0.000 0.000 0.000 0.000
      Eigenvector ( 1) has occupancy 2.00000
            0.0000-0.5363 0.0000 0.0000 0.5780 0.0000-0.5643 0.0000
            0.0000-0.2445
      1 hybrid on atom 1 stashed in prospective list
      1 hybrid on atom 2 stashed in prospective list

 Search of NAO DM block for the following atom(s):   1   3
      Select eigenvectors with eigenvalue > 1.900
       1.998 1.247 0.794 0.000 0.000 0.000
      Eigenvector ( 1) has occupancy 1.99820
            0.0000 0.4231 0.0000 0.4203 0.2360 0.7672
      1 hybrid on atom 1 stashed in prospective list
      1 hybrid on atom 3 stashed in prospective list

 Search of NAO DM block for the following atom(s):   1   4
      Select eigenvectors with eigenvalue > 1.900
       1.998 1.247 0.794 0.000 0.000 0.000
      Eigenvector ( 1) has occupancy 1.99820
            0.0000 0.4231 0.0000-0.4203 0.2360 0.7672
      1 hybrid on atom 1 stashed in prospective list
      1 hybrid on atom 4 stashed in prospective list

 Stash prospective hybrids having projection expectation value > 0.300
       0.956 0.956 0.956 0.956 0.944 0.944
      0 hybrids eliminated in 1 pass
      6 hybrids moved from prospective to permanent list

 NHOs of 2-center eigenvectors projected from the NAO density matrix
       0.004 electrons remain in the fully projected matrix

 Search of NHO DM block for the following atom(s):   1
      Select eigenvectors with eigenvalue > 1.900
       2.000 0.000 0.000 0.000 0.000
      Eigenvector ( 1) has occupancy 1.99998
            1.0000 0.0000 0.0000 0.0000 0.0000
           NBO accepted:    1. Label:CR ( 1)   1
        1 eigenvector(s) stashed in permanent list

 Search of NHO DM block for the following atom(s):   2
      Select eigenvectors with eigenvalue > 1.900
       2.000 0.004 0.000 0.000 0.000
      Eigenvector ( 1) has occupancy 1.99998
            1.0000 0.0000 0.0000 0.0000 0.0000
           NBO accepted:    2. Label:CR ( 1)   2
        1 eigenvector(s) stashed in permanent list

  1-center NBOs projected from the NHO density matrix
       6.000 electrons remain (>1.900); search continues

 Search of NHO DM block for the following atom(s):   1   2
      Select eigenvectors with eigenvalue > 1.900
       1.993 0.007 0.000 0.000 0.000 0.000 0.000 0.000 0.000 0.000
      Eigenvector ( 1) has occupancy 1.99299
            0.0000 0.0000 0.0000 0.7852 0.0000 0.0000 0.6193 0.0000
            0.0000 0.0000
      Occupancy is 1.993 after deleting minor hybrid components
            0.0000 0.0000 0.0000 0.7852 0.0000 0.0000 0.6193 0.0000
            0.0000 0.0000
           NBO accepted:    3. Label:BD ( 1)   1   2
      Occupancy is 0.007 for antibonding component
            0.0000 0.0000 0.0000-0.6193 0.0000 0.0000 0.7852 0.0000
            0.0000 0.0000
           NBO accepted:    4. Label:BD*( 1)   1   2
        2 eigenvector(s) stashed in permanent list

 Search of NHO DM block for the following atom(s):   1   3
      Select eigenvectors with eigenvalue > 1.900
       1.993 0.005 0.000 0.000 0.000 0.000
      Eigenvector ( 1) has occupancy 1.99308
            0.0000 0.6361 0.0000 0.0000 0.0000 0.7716
      Occupancy is 1.993 after deleting minor hybrid components
            0.0000 0.6361 0.0000 0.0000 0.0000 0.7716
           NBO accepted:    5. Label:BD ( 1)   1   3
      Occupancy is 0.005 for antibonding component
            0.0000 0.7716 0.0000 0.0000 0.0000-0.6361
           NBO accepted:    6. Label:BD*( 1)   1   3
        2 eigenvector(s) stashed in permanent list

 Search of NHO DM block for the following atom(s):   1   4
      Select eigenvectors with eigenvalue > 1.900
       1.993 0.005 0.000 0.000 0.000 0.000
      Eigenvector ( 1) has occupancy 1.99308
            0.0000 0.0000 0.6361 0.0000 0.0000 0.7716
      Occupancy is 1.993 after deleting minor hybrid components
            0.0000 0.0000 0.6361 0.0000 0.0000 0.7716
           NBO accepted:    7. Label:BD ( 1)   1   4
      Occupancy is 0.005 for antibonding component
            0.0000 0.0000 0.7716 0.0000 0.0000-0.6361
           NBO accepted:    8. Label:BD*( 1)   1   4
        2 eigenvector(s) stashed in permanent list

  2-center NBOs projected from the NHO density matrix
       0.004 electrons remain in the fully projected matrix

                            Occupancies       Lewis Structure    Low   High
         Max    Occ     -------------------  -----------------   occ   occ
  Cycle  Ctr   Thresh    Lewis   non-Lewis     CR  BD  nC  LP    (L)   (NL)
 ============================================================================
    1     2     1.90     9.97911   0.02089      2   3   0   0     0      0
 ----------------------------------------------------------------------------

 Structure accepted: No low occupancy Lewis orbitals

 -------------------------------------------------------
   Core                      3.99997 ( 99.999% of   4)
   Valence Lewis             5.97914 ( 99.652% of   6)
  ==================      =============================
   Total Lewis               9.97911 ( 99.791% of  10)
  -----------------------------------------------------
   Valence non-Lewis         0.01706 (  0.171% of  10)
   Rydberg non-Lewis         0.00383 (  0.038% of  10)
  ==================      =============================
   Total non-Lewis           0.02089 (  0.209% of  10)
 -------------------------------------------------------


     (Occupancy)   Bond orbital / Coefficients / Hybrids
 ------------------ Lewis ------------------------------------------------------
   1. (1.99998) CR ( 1) B  1            s(100.00%)
                                         1.0000  0.0000  0.0000  0.0000  0.0000
   2. (1.99998) CR ( 1)Li  2            s(100.00%)
                                         1.0000  0.0000  0.0000  0.0000  0.0000
   3. (1.99299) BD ( 1) B  1-Li  2
               ( 61.65%)   0.7852* B  1 s( 36.45%)p 1.74( 63.55%)
                                         0.0000  0.6037  0.0000  0.0000 -0.7972
               ( 38.35%)   0.6193*Li  2 s( 84.20%)p 0.19( 15.80%)
                                         0.0000  0.9176  0.0000  0.0000  0.3975
   4. (1.99308) BD ( 1) B  1- H  3
               ( 40.46%)   0.6361* B  1 s( 31.77%)p 2.15( 68.23%)
                                         0.0000  0.5637  0.0000  0.7071  0.4269
               ( 59.54%)   0.7716* H  3 s(100.00%)
                                         1.0000
   5. (1.99308) BD ( 1) B  1- H  4
               ( 40.46%)   0.6361* B  1 s( 31.77%)p 2.15( 68.23%)
                                         0.0000  0.5637  0.0000 -0.7071  0.4269
               ( 59.54%)   0.7716* H  4 s(100.00%)
                                         1.0000
 ---------------- non-Lewis ----------------------------------------------------
   6. (0.00000) LV ( 1) B  1            s(  0.00%)p 1.00(100.00%)
   7. (0.00656) BD*( 1) B  1-Li  2
               ( 38.35%)   0.6193* B  1 s( 36.45%)p 1.74( 63.55%)
                                         0.0000 -0.6037  0.0000  0.0000  0.7972
               ( 61.65%)  -0.7852*Li  2 s( 84.20%)p 0.19( 15.80%)
                                         0.0000 -0.9176  0.0000  0.0000 -0.3975
   8. (0.00525) BD*( 1) B  1- H  3
               ( 59.54%)   0.7716* B  1 s( 31.77%)p 2.15( 68.23%)
                                         0.0000 -0.5637  0.0000 -0.7071 -0.4269
               ( 40.46%)  -0.6361* H  3 s(100.00%)
                                        -1.0000
   9. (0.00525) BD*( 1) B  1- H  4
               ( 59.54%)   0.7716* B  1 s( 31.77%)p 2.15( 68.23%)
                                         0.0000 -0.5637  0.0000  0.7071 -0.4269
               ( 40.46%)  -0.6361* H  4 s(100.00%)
                                        -1.0000
  10. (0.00373) RY ( 1)Li  2            s(  0.00%)p 1.00(100.00%)
                                         0.0000  0.0000  0.0000  1.0000  0.0000
  11. (0.00010) RY ( 2)Li  2            s( 15.80%)p 5.33( 84.20%)
                                         0.0000  0.3975  0.0000  0.0000 -0.9176
  12. (0.00000) RY ( 3)Li  2            s(  0.00%)p 1.00(100.00%)


 NHO DIRECTIONALITY AND BOND BENDING (deviation from line of nuclear centers at
                                      the position of maximum hybrid amplitude)

         [Thresholds for printing:  angular deviation  >  1.0 degree]
                                    p- or d-character  > 25.0%
                                    orbital occupancy  >  0.10e

                        Line of Centers        Hybrid 1             Hybrid 2
                        ---------------  -------------------  ------------------
           NBO            Theta   Phi    Theta   Phi    Dev   Theta   Phi    Dev
 ===============================================================================
   4. BD ( 1) B  1- H  3   56.2   90.0    58.7   90.0   2.5     --     --    --
   5. BD ( 1) B  1- H  4   56.2  270.0    58.7  270.0   2.5     --     --    --


 SECOND ORDER PERTURBATION THEORY ANALYSIS OF FOCK MATRIX IN NBO BASIS

     Threshold for printing:   0.50 kcal/mol
                                                          E(2) E(NL)-E(L) F(L,NL)
      Donor (L) NBO              Acceptor (NL) NBO      kcal/mol   a.u.    a.u.
 ===============================================================================

 within unit  1
    3. BD ( 1) B  1-Li  2       8. BD*( 1) B  1- H  3      2.65    1.06   0.047
    3. BD ( 1) B  1-Li  2       9. BD*( 1) B  1- H  4      2.65    1.06   0.047
    4. BD ( 1) B  1- H  3       7. BD*( 1) B  1-Li  2      1.99    0.82   0.036
    4. BD ( 1) B  1- H  3       9. BD*( 1) B  1- H  4      1.66    1.29   0.041
    4. BD ( 1) B  1- H  3      10. RY ( 1)Li  2            0.75    0.67   0.020
    5. BD ( 1) B  1- H  4       7. BD*( 1) B  1-Li  2      1.99    0.82   0.036
    5. BD ( 1) B  1- H  4       8. BD*( 1) B  1- H  3      1.66    1.29   0.041
    5. BD ( 1) B  1- H  4      10. RY ( 1)Li  2            0.75    0.67   0.020


 NATURAL BOND ORBITALS (Summary):

                                                     Principal Delocalizations
           NBO                 Occupancy    Energy   (geminal,vicinal,remote)
 ===============================================================================
 Molecular unit  1  (H2BLi)
 ------ Lewis --------------------------------------
    1. CR ( 1) B  1             1.99998    -7.35377
    2. CR ( 1)Li  2             1.99998    -2.32915
    3. BD ( 1) B  1-Li  2       1.99299    -0.24954  8(g),9(g)
    4. BD ( 1) B  1- H  3       1.99308    -0.48465  7(g),9(g),10(v)
    5. BD ( 1) B  1- H  4       1.99308    -0.48465  7(g),8(g),10(v)
 ------ non-Lewis ----------------------------------
    6. LV ( 1) B  1             0.00000     0.29573
    7. BD*( 1) B  1-Li  2       0.00656     0.33137
    8. BD*( 1) B  1- H  3       0.00525     0.80793
    9. BD*( 1) B  1- H  4       0.00525     0.80793
   10. RY ( 1)Li  2             0.00373     0.18751
   11. RY ( 2)Li  2             0.00010     0.24006
   12. RY ( 3)Li  2             0.00000     0.18505
          -------------------------------
                 Total Lewis    9.97911  ( 99.7911%)
           Valence non-Lewis    0.01706  (  0.1706%)
           Rydberg non-Lewis    0.00383  (  0.0383%)
          -------------------------------
               Total unit  1   10.00000  (100.0000%)
              Charge unit  1    0.00000

 $CHOOSE
   BOND S 1 2 S 1 3 S 1 4 END
 $END

 NBO analysis completed in 0.15 CPU seconds (0 wall seconds)
 Maximum scratch memory used by NBO was 222062 words (1.69 MB)
 Maximum scratch memory used by G16NBO was 8368 words (0.06 MB)

 Opening RunExU unformatted file "/cluster/work/users/beto93/LiBH2/Gau-1553559.EUF"
 Read unf file /cluster/work/users/beto93/LiBH2/Gau-1553559.EUF:
 Label Gaussian matrix elements                                         IVers= 2 NLab= 2 Version=ES64L-G16RevC.01
 Title NBO-LiBH2                                                       
 NAtoms=     4 NBasis=    12 NBsUse=    12 ICharg=     0 Multip=     1 NE=    10 Len12L=8 Len4L=8 IOpCl= 0 ICGU=111
 GAUSSIAN SCALARS                    NI= 1 NR= 1 NTot=       1 LenBuf=    2 NRI=1 N=    1000
 NPA CHARGES                         NI= 0 NR= 1 NTot=       4 LenBuf= 4000 NRI=1 N=       4
 Recovered energy= -32.7767072993     dipole=      0.000000000000     -0.000000000000     -1.541635612918
 Unable to Open any file for archive entry.
 1\1\GINC-C1-1\FOpt\RHF\STO-3G\B1H2Li1\BETO93\24-Jul-2024\0\\#OPT=VeryT
 ight Int=UltraFine RHF/STO-3G Pop=NBO7Read\\NBO-LiBH2\\0,1\B,0.0000755
 997,0.,0.00005041\Li,-1.8248322296,0.,-1.2170122629\H,0.0019142095,0.,
 1.1635769239\H,1.0749618838,0.,-0.445389603\\Version=ES64L-G16RevC.01\
 State=1-A1\HF=-32.7767073\RMSD=8.623e-09\RMSF=7.012e-08\Dipole=-1.2825
 7,0.,-0.8553681\Quadrupole=2.5289841,-1.7576901,-0.771294,0.,3.9642082
 ,0.\PG=C02V [C2(Li1B1),SGV(H2)]\\@
 The archive entry for this job was punched.


 THE FIRST AND LAST THING REQUIRED OF GENIUS IS THE LOVE OF TRUTH.

                          -- GOETHE
 Job cpu time:       0 days  0 hours  0 minutes 33.5 seconds.
 Elapsed time:       0 days  0 hours  0 minutes 11.6 seconds.
 File lengths (MBytes):  RWF=     10 Int=      0 D2E=      0 Chk=      1 Scr=      1
 Normal termination of Gaussian 16 at Wed Jul 24 10:54:22 2024.
