 Entering Gaussian System, Link 0=g16
 Initial command:
 /cluster/software/Gaussian/g16_C.01/l1.exe "/cluster/work/users/beto93/mol81/Gau-27303.inp" -scrdir="/cluster/work/users/beto93/mol81/"
 Entering Link 1 = /cluster/software/Gaussian/g16_C.01/l1.exe PID=     27308.
  
 Copyright (c) 1988-2019, Gaussian, Inc.  All Rights Reserved.
  
 This is part of the Gaussian(R) 16 program.  It is based on
 the Gaussian(R) 09 system (copyright 2009, Gaussian, Inc.),
 the Gaussian(R) 03 system (copyright 2003, Gaussian, Inc.),
 the Gaussian(R) 98 system (copyright 1998, Gaussian, Inc.),
 the Gaussian(R) 94 system (copyright 1995, Gaussian, Inc.),
 the Gaussian 92(TM) system (copyright 1992, Gaussian, Inc.),
 the Gaussian 90(TM) system (copyright 1990, Gaussian, Inc.),
 the Gaussian 88(TM) system (copyright 1988, Gaussian, Inc.),
 the Gaussian 86(TM) system (copyright 1986, Carnegie Mellon
 University), and the Gaussian 82(TM) system (copyright 1983,
 Carnegie Mellon University). Gaussian is a federally registered
 trademark of Gaussian, Inc.
  
 This software contains proprietary and confidential information,
 including trade secrets, belonging to Gaussian, Inc.
  
 This software is provided under written license and may be
 used, copied, transmitted, or stored only in accord with that
 written license.
  
 The following legend is applicable only to US Government
 contracts under FAR:
  
                    RESTRICTED RIGHTS LEGEND
  
 Use, reproduction and disclosure by the US Government is
 subject to restrictions as set forth in subparagraphs (a)
 and (c) of the Commercial Computer Software - Restricted
 Rights clause in FAR 52.227-19.
  
 Gaussian, Inc.
 340 Quinnipiac St., Bldg. 40, Wallingford CT 06492
  
  
 ---------------------------------------------------------------
 Warning -- This program may not be used in any manner that
 competes with the business of Gaussian, Inc. or will provide
 assistance to any competitor of Gaussian, Inc.  The licensee
 of this program is prohibited from giving any competitor of
 Gaussian, Inc. access to this program.  By using this program,
 the user acknowledges that Gaussian, Inc. is engaged in the
 business of creating and licensing software in the field of
 computational chemistry and represents and warrants to the
 licensee that it is not a competitor of Gaussian, Inc. and that
 it will not use this program in any manner prohibited above.
 ---------------------------------------------------------------
  

 Cite this work as:
 Gaussian 16, Revision C.01,
 M. J. Frisch, G. W. Trucks, H. B. Schlegel, G. E. Scuseria, 
 M. A. Robb, J. R. Cheeseman, G. Scalmani, V. Barone, 
 G. A. Petersson, H. Nakatsuji, X. Li, M. Caricato, A. V. Marenich, 
 J. Bloino, B. G. Janesko, R. Gomperts, B. Mennucci, H. P. Hratchian, 
 J. V. Ortiz, A. F. Izmaylov, J. L. Sonnenberg, D. Williams-Young, 
 F. Ding, F. Lipparini, F. Egidi, J. Goings, B. Peng, A. Petrone, 
 T. Henderson, D. Ranasinghe, V. G. Zakrzewski, J. Gao, N. Rega, 
 G. Zheng, W. Liang, M. Hada, M. Ehara, K. Toyota, R. Fukuda, 
 J. Hasegawa, M. Ishida, T. Nakajima, Y. Honda, O. Kitao, H. Nakai, 
 T. Vreven, K. Throssell, J. A. Montgomery, Jr., J. E. Peralta, 
 F. Ogliaro, M. J. Bearpark, J. J. Heyd, E. N. Brothers, K. N. Kudin, 
 V. N. Staroverov, T. A. Keith, R. Kobayashi, J. Normand, 
 K. Raghavachari, A. P. Rendell, J. C. Burant, S. S. Iyengar, 
 J. Tomasi, M. Cossi, J. M. Millam, M. Klene, C. Adamo, R. Cammi, 
 J. W. Ochterski, R. L. Martin, K. Morokuma, O. Farkas, 
 J. B. Foresman, and D. J. Fox, Gaussian, Inc., Wallingford CT, 2019.
 
 ******************************************
 Gaussian 16:  ES64L-G16RevC.01  3-Jul-2019
                18-Nov-2024 
 ******************************************
 %LindaWorkers=c5-5-ib
 %NProcShared=4
 Will use up to    4 processors via shared memory.
 %mem=25GB
 %chk=mol81.chk
 SetLPE:    new flags="-opt 'Tsnet.Node.lindarsharg: ssh'  -nodelist 'c5-5-ib.saga' -env GAUSS_MDEF=3355443200 -env GAUSS_EXEDIR="/cluster/software/Gaussian/g16_C.01/bsd:/cluster/software/Gaussian/g16_C.01""
 Will use up to    1 processors via Linda.
 -----------------------------------------------------------------
 #RHF/STO-3G int=nobasistransform Symmetry=None 5D 7F Pop=NBO7Read
 -----------------------------------------------------------------
 1/38=1,163=2,172=1/1;
 2/12=2,15=3,17=6,18=5,40=1/2;
 3/6=3,8=11,11=1,25=1,30=1,60=-1,116=1/1,2,3;
 4//1;
 5/5=2,38=5/2;
 6/7=2,8=2,9=2,10=2,28=1,40=2,113=1,114=1,124=2103/1,12;
 99/5=1,9=1/99;
 ---------
 mol81-NBO
 ---------
 Symbolic Z-matrix:
 Charge =  0 Multiplicity = 1
 C                     0.        0.        0.58772 
 C                     0.        1.26686  -0.26019 
 C                     0.       -1.26686  -0.26019 
 H                    -0.8769    0.        1.24471 
 H                     0.8769    0.        1.24471 
 H                     0.        2.16615   0.36207 
 H                     0.       -2.16615   0.36207 
 H                     0.88362   1.30423  -0.90441 
 H                    -0.88362   1.30423  -0.90441 
 H                    -0.88362  -1.30423  -0.90441 
 H                     0.88362  -1.30423  -0.90441 
 
                          Input orientation:                          
 ---------------------------------------------------------------------
 Center     Atomic      Atomic             Coordinates (Angstroms)
 Number     Number       Type             X           Y           Z
 ---------------------------------------------------------------------
      1          6           0        0.000000    0.000000    0.587716
      2          6           0        0.000000    1.266857   -0.260186
      3          6           0        0.000000   -1.266857   -0.260186
      4          1           0       -0.876898    0.000000    1.244713
      5          1           0        0.876898    0.000000    1.244713
      6          1           0        0.000000    2.166150    0.362066
      7          1           0        0.000000   -2.166150    0.362066
      8          1           0        0.883619    1.304234   -0.904405
      9          1           0       -0.883619    1.304234   -0.904405
     10          1           0       -0.883619   -1.304234   -0.904405
     11          1           0        0.883619   -1.304234   -0.904405
 ---------------------------------------------------------------------
                    Distance matrix (angstroms):
                    1          2          3          4          5
     1  C    0.000000
     2  C    1.524423   0.000000
     3  C    1.524423   2.533714   0.000000
     4  H    1.095717   2.153740   2.153740   0.000000
     5  H    1.095717   2.153740   2.153740   1.753796   0.000000
     6  H    2.177871   1.093584   3.488945   2.498044   2.498044
     7  H    2.177871   3.488945   1.093584   2.498044   2.498044
     8  H    2.169847   1.094165   2.793977   3.069064   2.513917
     9  H    2.169847   1.094165   2.793977   2.513917   3.069064
    10  H    2.169847   2.793977   1.094165   2.513917   3.069064
    11  H    2.169847   2.793977   1.094165   3.069064   2.513917
                    6          7          8          9         10
     6  H    0.000000
     7  H    4.332300   0.000000
     8  H    1.768511   3.798460   0.000000
     9  H    1.768511   3.798460   1.767238   0.000000
    10  H    3.798460   1.768511   3.150752   2.608468   0.000000
    11  H    3.798460   1.768511   2.608468   3.150752   1.767238
                   11
    11  H    0.000000
 Symmetry turned off by external request.
 Stoichiometry    C3H8
 Rotational constants (GHZ):          29.4716056           8.4893510           7.5111403
 Standard basis: STO-3G (5D, 7F)
    23 basis functions,    69 primitive gaussians,    23 cartesian basis functions
    13 alpha electrons       13 beta electrons
       nuclear repulsion energy        82.6505747516 Hartrees.
 NAtoms=   11 NActive=   11 NUniq=   11 SFac= 1.00D+00 NAtFMM=   60 NAOKFM=F Big=F
 Integral buffers will be    131072 words long.
 Raffenetti 1 integral format.
 Two-electron integral symmetry is turned off.
 One-electron integrals computed using PRISM.
 NBasis=    23 RedAO= T EigKep=  2.02D-01  NBF=    23
 NBsUse=    23 1.00D-06 EigRej= -1.00D+00 NBFU=    23
 ExpMin= 1.69D-01 ExpMax= 7.16D+01 ExpMxC= 7.16D+01 IAcc=3 IRadAn=         5 AccDes= 0.00D+00
 Harris functional with IExCor=  205 and IRadAn=       5 diagonalized for initial guess.
 HarFok:  IExCor=  205 AccDes= 0.00D+00 IRadAn=         5 IDoV= 1 UseB2=F ITyADJ=14
 ICtDFT=  3500011 ScaDFX=  1.000000  1.000000  1.000000  1.000000
 FoFCou: FMM=F IPFlag=           0 FMFlag=      100000 FMFlg1=           0
         NFxFlg=           0 DoJE=T BraDBF=F KetDBF=T FulRan=T
         wScrn=  0.000000 ICntrl=       500 IOpCl=  0 I1Cent=   200000004 NGrid=           0
         NMat0=    1 NMatS0=      1 NMatT0=    0 NMatD0=    1 NMtDS0=    0 NMtDT0=    0
 Symmetry not used in FoFCou.
 Keep R1 ints in memory in canonical form, NReq=853842.
 Requested convergence on RMS density matrix=1.00D-08 within 128 cycles.
 Requested convergence on MAX density matrix=1.00D-06.
 Requested convergence on             energy=1.00D-06.
 No special actions if energy rises.
 SCF Done:  E(RHF) =  -116.885567499     A.U. after    8 cycles
            NFock=  8  Conv=0.44D-08     -V/T= 2.0086

 **********************************************************************

            Population analysis using the SCF Density.

 **********************************************************************

 Alpha  occ. eigenvalues --  -11.04229 -11.03272 -11.03264  -1.01581  -0.88907
 Alpha  occ. eigenvalues --   -0.76711  -0.59665  -0.56825  -0.52063  -0.50193
 Alpha  occ. eigenvalues --   -0.44098  -0.43925  -0.43466
 Alpha virt. eigenvalues --    0.61828   0.62202   0.66700   0.71149   0.71532
 Alpha virt. eigenvalues --    0.76496   0.76554   0.78269   0.78915   0.81177
          Condensed to atoms (all electrons):
               1          2          3          4          5          6
     1  C    4.716598   0.366081   0.366081   0.382575   0.382575  -0.019669
     2  C    0.366081   4.729059  -0.023412  -0.022607  -0.022607   0.383245
     3  C    0.366081  -0.023412   4.729059  -0.022607  -0.022607   0.001265
     4  H    0.382575  -0.022607  -0.022607   0.639676  -0.023846  -0.002150
     5  H    0.382575  -0.022607  -0.022607  -0.023846   0.639676  -0.002150
     6  H   -0.019669   0.383245   0.001265  -0.002150  -0.002150   0.626928
     7  H   -0.019669   0.001265   0.383245  -0.002150  -0.002150  -0.000034
     8  H   -0.021048   0.382528  -0.002116   0.001909  -0.002272  -0.021728
     9  H   -0.021048   0.382528  -0.002116  -0.002272   0.001909  -0.021728
    10  H   -0.021048  -0.002116   0.382528  -0.002272   0.001909   0.000011
    11  H   -0.021048  -0.002116   0.382528   0.001909  -0.002272   0.000011
               7          8          9         10         11
     1  C   -0.019669  -0.021048  -0.021048  -0.021048  -0.021048
     2  C    0.001265   0.382528   0.382528  -0.002116  -0.002116
     3  C    0.383245  -0.002116  -0.002116   0.382528   0.382528
     4  H   -0.002150   0.001909  -0.002272  -0.002272   0.001909
     5  H   -0.002150  -0.002272   0.001909   0.001909  -0.002272
     6  H   -0.000034  -0.021728  -0.021728   0.000011   0.000011
     7  H    0.626928   0.000011   0.000011  -0.021728  -0.021728
     8  H    0.000011   0.629680  -0.021944  -0.000013   0.000390
     9  H    0.000011  -0.021944   0.629680   0.000390  -0.000013
    10  H   -0.021728  -0.000013   0.000390   0.629680  -0.021944
    11  H   -0.021728   0.000390  -0.000013  -0.021944   0.629680
 Mulliken charges:
               1
     1  C   -0.090383
     2  C   -0.171848
     3  C   -0.171848
     4  H    0.051834
     5  H    0.051834
     6  H    0.056000
     7  H    0.056000
     8  H    0.054603
     9  H    0.054603
    10  H    0.054603
    11  H    0.054603
 Sum of Mulliken charges =  -0.00000
 Mulliken charges with hydrogens summed into heavy atoms:
               1
     1  C    0.013284
     2  C   -0.006642
     3  C   -0.006642
 Electronic spatial extent (au):  <R**2>=            222.9948
 Charge=             -0.0000 electrons
 Dipole moment (field-independent basis, Debye):
    X=              0.0000    Y=             -0.0000    Z=              0.0225  Tot=              0.0225
 Quadrupole moment (field-independent basis, Debye-Ang):
   XX=            -20.2536   YY=            -20.8141   ZZ=            -20.5037
   XY=             -0.0000   XZ=             -0.0000   YZ=             -0.0000
 Traceless Quadrupole moment (field-independent basis, Debye-Ang):
   XX=              0.2702   YY=             -0.2903   ZZ=              0.0201
   XY=             -0.0000   XZ=             -0.0000   YZ=             -0.0000
 Octapole moment (field-independent basis, Debye-Ang**2):
  XXX=              0.0000  YYY=              0.0000  ZZZ=              0.0189  XYY=              0.0000
  XXY=              0.0000  XXZ=             -0.5004  XZZ=              0.0000  YZZ=              0.0000
  YYZ=              1.0265  XYZ=              0.0000
 Hexadecapole moment (field-independent basis, Debye-Ang**3):
 XXXX=            -37.0440 YYYY=           -183.9754 ZZZZ=            -61.8387 XXXY=             -0.0000
 XXXZ=             -0.0000 YYYX=             -0.0000 YYYZ=             -0.0000 ZZZX=             -0.0000
 ZZZY=             -0.0000 XXYY=            -37.6306 XXZZ=            -14.6242 YYZZ=            -40.9300
 XXYZ=             -0.0000 YYXZ=             -0.0000 ZZXY=             -0.0000
 N-N= 8.265057475164D+01 E-N=-4.363934735736D+02  KE= 1.158851925113D+02
 Running external command "gaunbo7 R"
         input file       "/cluster/work/users/beto93/mol81/Gau-27308.EIn"
         output file      "/cluster/work/users/beto93/mol81/Gau-27308.EOu"
         message file     "/cluster/work/users/beto93/mol81/Gau-27308.EMs"
         fchk file        "/cluster/work/users/beto93/mol81/Gau-27308.EFC"
         mat. el file     "/cluster/work/users/beto93/mol81/Gau-27308.EUF"

 Writing WrtUnf unformatted file "/cluster/work/users/beto93/mol81/Gau-27308.EUF"
 Gaussian matrix elements                                         Version   2 NLab=11 Len12L=8 Len4L=8
 Write SHELL TO ATOM MAP                   from file      0 offset           0 length                  14 to matrix element file.
 Write SHELL TYPES                         from file      0 offset           0 length                  14 to matrix element file.
 Write NUMBER OF PRIMITIVES PER SHELL      from file      0 offset           0 length                  14 to matrix element file.
 Write PRIMITIVE EXPONENTS                 from file      0 offset           0 length                  42 to matrix element file.
 Write CONTRACTION COEFFICIENTS            from file      0 offset           0 length                  42 to matrix element file.
 Write P(S=P) CONTRACTION COEFFICIENTS     from file      0 offset           0 length                  42 to matrix element file.
 Write COORDINATES OF EACH SHELL           from file      0 offset           0 length                  42 to matrix element file.
 Write BONDS PER ATOM                      from file      0 offset           0 length                  11 to matrix element file.
 Write BONDED ATOMS                        from file      0 offset           0 length                  20 to matrix element file.
 Write BOND TYPES                          from file      0 offset           0 length                  20 to matrix element file.
 Write ONIOM CHARGE/MULT                   from file      0 offset           0 length                  32 to matrix element file.
 Write ONIOM ATOM LAYERS                   from file      0 offset           0 length                  11 to matrix element file.
 Write ONIOM ATOM MODIFIERS                from file      0 offset           0 length                  11 to matrix element file.
 Write ONIOM ATOM TYPES                    from file      0 offset           0 length                  11 to matrix element file.
 Write ONIOM LINK ATOMS                    from file      0 offset           0 length                  11 to matrix element file.
 Write ONIOM LINK CHARGES                  from file      0 offset           0 length                  11 to matrix element file.
 Write ONIOM LINK DISTANCES                from file      0 offset           0 length                  44 to matrix element file.
 Write SYMINF INTS                         from file      0 offset           0 length                  26 to matrix element file.
 Write ROTTR TO SO                         from file      0 offset           0 length                  12 to matrix element file.
 Write GAUSSIAN SCALARS                    from file    501 offset           0 to matrix element file.
 Write OPTIMIZATION FLAGS                  from file      0 offset           0 length                  11 to matrix element file.
 Write INTEGER ISO                         from file      0 offset           0 length                  11 to matrix element file.
 Write INTEGER SPIN                        from file      0 offset           0 length                  11 to matrix element file.
 Write REAL ZEFFECTIVE                     from file      0 offset           0 length                  11 to matrix element file.
 Write REAL GFACTOR                        from file      0 offset           0 length                  11 to matrix element file.
 Write REAL ZNUCLEAR                       from file      0 offset           0 length                  11 to matrix element file.
 Write MULLIKEN CHARGES                    from file      0 offset           0 length                  11 to matrix element file.
 Write NUCLEAR GRADIENT                    from file  10584 offset           0 length                  33 to matrix element file.
 Array NUCLEAR FORCE CONSTANTS              on  file  10585 does not exist.
 Write ELECTRIC DIPOLE MOMENT              from file      0 offset           0 length                   3 to matrix element file.
 Write NON-ADIABATIC COUPLING              from file  10810 offset           0 length                  33 to matrix element file.
 Write FINITE EM FIELD                     from file  10521 offset           0 length                  35 to matrix element file.
 Write OVERLAP                             from file  10514 offset           0 length                 276 to matrix element file.
 Write CORE HAMILTONIAN ALPHA              from file  10515 offset           0 length                 276 to matrix element file.
 Write CORE HAMILTONIAN BETA               from file  10515 offset         276 length                 276 to matrix element file.
 Write KINETIC ENERGY                      from file  10516 offset           0 length                 276 to matrix element file.
 Write ORTHOGONAL BASIS                    from file  10685 offset           0 length                 529 to matrix element file.
 Write DIPOLE INTEGRALS                    from file  10518 offset           0 length                 828 to matrix element file.
 Array DIP VEL INTEGRALS                    on  file  10572 does not exist.
 Array R X DEL INTEGRALS                    on  file  10572 does not exist.
 Write ALPHA ORBITAL ENERGIES              from file      0 offset           0 length                  23 to matrix element file.
 Write ALPHA MO COEFFICIENTS               from file  10524 offset           0 length                 529 to matrix element file.
 Write ALPHA DENSITY MATRIX                from file      0 offset           0 length                 276 to matrix element file.
 Write ALPHA FOCK MATRIX                   from file  10536 offset           0 length                 276 to matrix element file.
 Write ENERGY-WEIGHTED DENSITY             from file  10571 offset           0 length                 276 to matrix element file.
 Write ALPHA SCF DENSITY MATRIX            from file      0 offset           0 length                 276 to matrix element file.
 No 2e integrals to process.
 Perform NBO analysis...executing G16NBO...

 *********************************** NBO 7.0 ***********************************
             N A T U R A L   A T O M I C   O R B I T A L   A N D
          N A T U R A L   B O N D   O R B I T A L   A N A L Y S I S
 **************************** Espen Tangen (S101595) ***************************
  (c) Copyright 1996-2021 Board of Regents of the University of Wisconsin System
      on behalf of the Theoretical Chemistry Institute.  All rights reserved.

          Cite this program [NBO 7.0.10 (8-Feb-2021)] as:

          NBO 7.0.  E. D. Glendening, J. K. Badenhoop, A. E. Reed,
          J. E. Carpenter, J. A. Bohmann, C. M. Morales, P. Karafiloglou,
          C. R. Landis, and F. Weinhold, Theoretical Chemistry Institute,
          University of Wisconsin, Madison, WI (2018)

       /NPA    / : Natural Population Analysis
       /AOPNAO / : Print the AO to PNAO transformation
       /AONAO  / : Print the AO to NAO transformation
       /AOMO   / : Print the MOs in the AO basis
       /BOAO   / : Print the AO bond-order matrix
       /DMAO   / : Print the AO density matrix
       /DMPNAO / : Print the PNAO density matrix
       /DMNAO  / : Print the NAO density matrix
       /DMMO   / : Print the MO density matrix
       /SAO    / : Print the AO overlap matrix
       /SPNAO  / : Print the PNAO overlap matrix
       /DETAIL / : Write details of NBO search
       /ARCHIVE/ : Write the archive file to lfn47
       /AOINFO / : Write AO information to lfn31
       /FILE   / : Set to mol81.gen*

 Filename set to mol81.gen1

 Job title: mol81-NBO


 MOs in the AO basis:

           AO          1       2       3       4       5       6       7       8
      ------------ ------- ------- ------- ------- ------- ------- ------- -------
   1.  C 1 (s)      0.9917  0.0000  0.0210 -0.1640  0.0000 -0.1457  0.0000  0.0268
   2.  C 1 (s)      0.0377  0.0000 -0.0073  0.4436  0.0000  0.4532  0.0000 -0.0974
   3.  C 1 (px)     0.0000  0.0000  0.0000  0.0000  0.0000  0.0000  0.3857  0.0000
   4.  C 1 (py)     0.0000 -0.0050  0.0000  0.0000  0.1645  0.0000  0.0000  0.0000
   5.  C 1 (pz)     0.0002  0.0000  0.0033 -0.0457  0.0000  0.1565  0.0000  0.2999
   6.  C 2 (s)     -0.0139  0.7014  0.7013 -0.1224 -0.1583  0.0904  0.0000 -0.0093
   7.  C 2 (s)     -0.0063  0.0266  0.0266  0.3307  0.4564 -0.2793  0.0000  0.0276
   8.  C 2 (px)     0.0000  0.0000  0.0000  0.0000  0.0000  0.0000  0.2878  0.0000
   9.  C 2 (py)     0.0036  0.0001  0.0003 -0.0562  0.0284 -0.1118  0.0000  0.3334
  10.  C 2 (pz)    -0.0024 -0.0002 -0.0001  0.0302 -0.0006  0.1188  0.0000  0.1648
  11.  C 3 (s)     -0.0139 -0.7014  0.7013 -0.1224  0.1583  0.0904  0.0000 -0.0093
  12.  C 3 (s)     -0.0063 -0.0266  0.0266  0.3307 -0.4564 -0.2793  0.0000  0.0276
  13.  C 3 (px)     0.0000  0.0000  0.0000  0.0000  0.0000  0.0000  0.2878  0.0000
  14.  C 3 (py)    -0.0036  0.0001 -0.0003  0.0562  0.0284  0.1118  0.0000 -0.3334
  15.  C 3 (pz)    -0.0024  0.0002 -0.0001  0.0302  0.0006  0.1188  0.0000  0.1648
  16.  H 4 (s)     -0.0070  0.0000 -0.0001  0.1005  0.0000  0.2065 -0.2476  0.1083
  17.  H 5 (s)     -0.0070  0.0000 -0.0001  0.1005  0.0000  0.2065  0.2476  0.1083
  18.  H 6 (s)      0.0002 -0.0048 -0.0050  0.0718  0.1452 -0.1069  0.0000  0.3181
  19.  H 7 (s)      0.0002  0.0048 -0.0050  0.0718 -0.1452 -0.1069  0.0000  0.3181
  20.  H 8 (s)      0.0001 -0.0049 -0.0049  0.0761  0.1323 -0.1389  0.1898 -0.0627
  21.  H 9 (s)      0.0001 -0.0049 -0.0049  0.0761  0.1323 -0.1389 -0.1898 -0.0627
  22.  H10 (s)      0.0001  0.0049 -0.0049  0.0761 -0.1323 -0.1389 -0.1898 -0.0627
  23.  H11 (s)      0.0001  0.0049 -0.0049  0.0761 -0.1323 -0.1389  0.1898 -0.0627

           AO          9      10      11      12      13      14      15      16
      ------------ ------- ------- ------- ------- ------- ------- ------- -------
   1.  C 1 (s)      0.0000  0.0000  0.0161  0.0000  0.0000  0.0000  0.0233  0.0000
   2.  C 1 (s)      0.0000  0.0000 -0.0709  0.0000  0.0000  0.0000 -0.1081  0.0000
   3.  C 1 (px)     0.0000  0.0000  0.0000  0.0000  0.4217  0.6859  0.0000  0.0000
   4.  C 1 (py)     0.2876  0.0000  0.0000  0.4522  0.0000  0.0000  0.0000  0.8157
   5.  C 1 (pz)     0.0000  0.0000  0.4495  0.0000  0.0000  0.0000  0.6667  0.0000
   6.  C 2 (s)      0.0030  0.0000  0.0199 -0.0230  0.0000  0.0000 -0.0509  0.0648
   7.  C 2 (s)     -0.0080  0.0000 -0.0815  0.0901  0.0000  0.0000  0.2960 -0.3760
   8.  C 2 (px)     0.0000  0.4131  0.0000  0.0000 -0.2688  0.4927  0.0000  0.0000
   9.  C 2 (py)     0.0176  0.0000  0.0981 -0.4282  0.0000  0.0000 -0.0121  0.6910
  10.  C 2 (pz)     0.4003  0.0000 -0.3476  0.0237  0.0000  0.0000  0.6223  0.0774
  11.  C 3 (s)     -0.0030  0.0000  0.0199  0.0230  0.0000  0.0000 -0.0509 -0.0648
  12.  C 3 (s)      0.0080  0.0000 -0.0815 -0.0901  0.0000  0.0000  0.2960  0.3760
  13.  C 3 (px)     0.0000 -0.4131  0.0000  0.0000 -0.2688  0.4927  0.0000  0.0000
  14.  C 3 (py)     0.0176  0.0000 -0.0981 -0.4282  0.0000  0.0000  0.0121  0.6910
  15.  C 3 (pz)    -0.4003  0.0000 -0.3476 -0.0237  0.0000  0.0000  0.6223 -0.0774
  16.  H 4 (s)      0.0000  0.0000  0.2481  0.0000 -0.3639  0.6233 -0.3582  0.0000
  17.  H 5 (s)      0.0000  0.0000  0.2481  0.0000  0.3639 -0.6233 -0.3582  0.0000
  18.  H 6 (s)      0.2209  0.0000 -0.1661 -0.3134  0.0000  0.0000 -0.5377 -0.4512
  19.  H 7 (s)     -0.2209  0.0000 -0.1661  0.3134  0.0000  0.0000 -0.5377  0.4512
  20.  H 8 (s)     -0.2096  0.3054  0.1867  0.0171 -0.2447 -0.4332  0.2482  0.2198
  21.  H 9 (s)     -0.2096 -0.3054  0.1867  0.0171  0.2447  0.4332  0.2482  0.2198
  22.  H10 (s)      0.2096  0.3054  0.1867 -0.0171  0.2447  0.4332  0.2482 -0.2198
  23.  H11 (s)      0.2096 -0.3054  0.1867 -0.0171 -0.2447 -0.4332  0.2482 -0.2198

           AO         17      18      19      20      21      22      23
      ------------ ------- ------- ------- ------- ------- ------- -------
   1.  C 1 (s)     -0.1542  0.0000  0.0000 -0.1691  0.0000 -0.1062  0.0000
   2.  C 1 (s)      0.9589  0.0000  0.0000  1.0287  0.0000  0.6908  0.0000
   3.  C 1 (px)     0.0000  0.0000  0.0000  0.0000  0.0000  0.0000  0.8856
   4.  C 1 (py)     0.0000  0.0000  0.1817  0.0000  0.7334  0.0000  0.0000
   5.  C 1 (pz)     0.0001  0.0000  0.0000 -0.3893  0.0000  0.8091  0.0000
   6.  C 2 (s)     -0.0716  0.0000 -0.1262  0.1553  0.1037  0.0271  0.0000
   7.  C 2 (s)      0.4708  0.0000  0.8153 -0.9744 -0.6568 -0.1686  0.0000
   8.  C 2 (px)     0.0000  0.7733  0.0000  0.0000  0.0000  0.0000 -0.6256
   9.  C 2 (py)     0.5816  0.0000  0.2839  0.3591 -0.1622 -0.4168  0.0000
  10.  C 2 (pz)    -0.3014  0.0000 -0.4854  0.1350 -0.6296 -0.3045  0.0000
  11.  C 3 (s)     -0.0716  0.0000  0.1262  0.1553 -0.1037  0.0271  0.0000
  12.  C 3 (s)      0.4708  0.0000 -0.8153 -0.9744  0.6568 -0.1686  0.0000
  13.  C 3 (px)     0.0000 -0.7733  0.0000  0.0000  0.0000  0.0000 -0.6256
  14.  C 3 (py)    -0.5816  0.0000  0.2839 -0.3591 -0.1622  0.4168  0.0000
  15.  C 3 (pz)    -0.3014  0.0000  0.4854  0.1350  0.6296 -0.3045  0.0000
  16.  H 4 (s)     -0.3867  0.0000  0.0000 -0.2673  0.0000 -0.6765  0.5779
  17.  H 5 (s)     -0.3867  0.0000  0.0000 -0.2673  0.0000 -0.6765 -0.5779
  18.  H 6 (s)     -0.4581  0.0000 -0.2807  0.0974  0.6923  0.5202  0.0000
  19.  H 7 (s)     -0.4581  0.0000  0.2807  0.0974 -0.6923  0.5202  0.0000
  20.  H 8 (s)     -0.3418 -0.6145 -0.6063  0.4556 -0.0445 -0.0607  0.4068
  21.  H 9 (s)     -0.3418  0.6145 -0.6063  0.4556 -0.0445 -0.0607 -0.4068
  22.  H10 (s)     -0.3418 -0.6145  0.6063  0.4556  0.0445 -0.0607 -0.4068
  23.  H11 (s)     -0.3418  0.6145  0.6063  0.4556  0.0445 -0.0607  0.4068


 AO overlap matrix:

           AO          1       2       3       4       5       6       7       8
      ------------ ------- ------- ------- ------- ------- ------- ------- -------
   1.  C 1 (s)      1.0000  0.2484  0.0000  0.0000  0.0000  0.0000  0.0277  0.0000
   2.  C 1 (s)      0.2484  1.0000  0.0000  0.0000  0.0000  0.0277  0.3055  0.0000
   3.  C 1 (px)     0.0000  0.0000  1.0000  0.0000  0.0000  0.0000  0.0000  0.1693
   4.  C 1 (py)     0.0000  0.0000  0.0000  1.0000  0.0000  0.0385  0.2844  0.0000
   5.  C 1 (pz)     0.0000  0.0000  0.0000  0.0000  1.0000 -0.0257 -0.1903  0.0000
   6.  C 2 (s)      0.0000  0.0277  0.0000  0.0385 -0.0257  1.0000  0.2484  0.0000
   7.  C 2 (s)      0.0277  0.3055  0.0000  0.2844 -0.1903  0.2484  1.0000  0.0000
   8.  C 2 (px)     0.0000  0.0000  0.1693  0.0000  0.0000  0.0000  0.0000  1.0000
   9.  C 2 (py)    -0.0385 -0.2844  0.0000 -0.1662  0.2245  0.0000  0.0000  0.0000
  10.  C 2 (pz)     0.0257  0.1903  0.0000  0.2245  0.0190  0.0000  0.0000  0.0000
  11.  C 3 (s)      0.0000  0.0277  0.0000 -0.0385 -0.0257  0.0000  0.0012  0.0000
  12.  C 3 (s)      0.0277  0.3055  0.0000 -0.2844 -0.1903  0.0012  0.0475  0.0000
  13.  C 3 (px)     0.0000  0.0000  0.1693  0.0000  0.0000  0.0000  0.0000  0.0194
  14.  C 3 (py)     0.0385  0.2844  0.0000 -0.1662 -0.2245  0.0029  0.0719  0.0000
  15.  C 3 (pz)     0.0257  0.1903  0.0000 -0.2245  0.0190  0.0000  0.0000  0.0000
  16.  H 4 (s)      0.0614  0.4875 -0.3724  0.0000  0.2790  0.0054  0.0977 -0.0513
  17.  H 5 (s)      0.0614  0.4875  0.3724  0.0000  0.2790  0.0054  0.0977  0.0513
  18.  H 6 (s)      0.0051  0.0934  0.0000  0.1205 -0.0126  0.0618  0.4887  0.0000
  19.  H 7 (s)      0.0051  0.0934  0.0000 -0.1205 -0.0126  0.0001  0.0053  0.0000
  20.  H 8 (s)      0.0052  0.0948  0.0500  0.0738 -0.0844  0.0617  0.4884  0.3762
  21.  H 9 (s)      0.0052  0.0948 -0.0500  0.0738 -0.0844  0.0617  0.4884 -0.3762
  22.  H10 (s)      0.0052  0.0948 -0.0500 -0.0738 -0.0844  0.0009  0.0272 -0.0128
  23.  H11 (s)      0.0052  0.0948  0.0500 -0.0738 -0.0844  0.0009  0.0272  0.0128

           AO          9      10      11      12      13      14      15      16
      ------------ ------- ------- ------- ------- ------- ------- ------- -------
   1.  C 1 (s)     -0.0385  0.0257  0.0000  0.0277  0.0000  0.0385  0.0257  0.0614
   2.  C 1 (s)     -0.2844  0.1903  0.0277  0.3055  0.0000  0.2844  0.1903  0.4875
   3.  C 1 (px)     0.0000  0.0000  0.0000  0.0000  0.1693  0.0000  0.0000 -0.3724
   4.  C 1 (py)    -0.1662  0.2245 -0.0385 -0.2844  0.0000 -0.1662 -0.2245  0.0000
   5.  C 1 (pz)     0.2245  0.0190 -0.0257 -0.1903  0.0000 -0.2245  0.0190  0.2790
   6.  C 2 (s)      0.0000  0.0000  0.0000  0.0012  0.0000  0.0029  0.0000  0.0054
   7.  C 2 (s)      0.0000  0.0000  0.0012  0.0475  0.0000  0.0719  0.0000  0.0977
   8.  C 2 (px)     0.0000  0.0000  0.0000  0.0000  0.0194  0.0000  0.0000 -0.0513
   9.  C 2 (py)     1.0000  0.0000 -0.0029 -0.0719  0.0000 -0.0999  0.0000 -0.0741
  10.  C 2 (pz)     0.0000  1.0000  0.0000  0.0000  0.0000  0.0000  0.0194  0.0880
  11.  C 3 (s)     -0.0029  0.0000  1.0000  0.2484  0.0000  0.0000  0.0000  0.0054
  12.  C 3 (s)     -0.0719  0.0000  0.2484  1.0000  0.0000  0.0000  0.0000  0.0977
  13.  C 3 (px)     0.0000  0.0000  0.0000  0.0000  1.0000  0.0000  0.0000 -0.0513
  14.  C 3 (py)    -0.0999  0.0000  0.0000  0.0000  0.0000  1.0000  0.0000  0.0741
  15.  C 3 (pz)     0.0000  0.0194  0.0000  0.0000  0.0000  0.0000  1.0000  0.0880
  16.  H 4 (s)     -0.0741  0.0880  0.0054  0.0977 -0.0513  0.0741  0.0880  1.0000
  17.  H 5 (s)     -0.0741  0.0880  0.0054  0.0977  0.0513  0.0741  0.0880  0.1762
  18.  H 6 (s)      0.3832  0.2652  0.0001  0.0053  0.0000  0.0088  0.0016  0.0497
  19.  H 7 (s)     -0.0088  0.0016  0.0618  0.4887  0.0000 -0.3832  0.2652  0.0497
  20.  H 8 (s)      0.0159 -0.2743  0.0009  0.0272  0.0128  0.0371 -0.0093  0.0158
  21.  H 9 (s)      0.0159 -0.2743  0.0009  0.0272 -0.0128  0.0371 -0.0093  0.0482
  22.  H10 (s)     -0.0371 -0.0093  0.0617  0.4884 -0.3762 -0.0159 -0.2743  0.0482
  23.  H11 (s)     -0.0371 -0.0093  0.0617  0.4884  0.3762 -0.0159 -0.2743  0.0158

           AO         17      18      19      20      21      22      23
      ------------ ------- ------- ------- ------- ------- ------- -------
   1.  C 1 (s)      0.0614  0.0051  0.0051  0.0052  0.0052  0.0052  0.0052
   2.  C 1 (s)      0.4875  0.0934  0.0934  0.0948  0.0948  0.0948  0.0948
   3.  C 1 (px)     0.3724  0.0000  0.0000  0.0500 -0.0500 -0.0500  0.0500
   4.  C 1 (py)     0.0000  0.1205 -0.1205  0.0738  0.0738 -0.0738 -0.0738
   5.  C 1 (pz)     0.2790 -0.0126 -0.0126 -0.0844 -0.0844 -0.0844 -0.0844
   6.  C 2 (s)      0.0054  0.0618  0.0001  0.0617  0.0617  0.0009  0.0009
   7.  C 2 (s)      0.0977  0.4887  0.0053  0.4884  0.4884  0.0272  0.0272
   8.  C 2 (px)     0.0513  0.0000  0.0000  0.3762 -0.3762 -0.0128  0.0128
   9.  C 2 (py)    -0.0741  0.3832 -0.0088  0.0159  0.0159 -0.0371 -0.0371
  10.  C 2 (pz)     0.0880  0.2652  0.0016 -0.2743 -0.2743 -0.0093 -0.0093
  11.  C 3 (s)      0.0054  0.0001  0.0618  0.0009  0.0009  0.0617  0.0617
  12.  C 3 (s)      0.0977  0.0053  0.4887  0.0272  0.0272  0.4884  0.4884
  13.  C 3 (px)     0.0513  0.0000  0.0000  0.0128 -0.0128 -0.3762  0.3762
  14.  C 3 (py)     0.0741  0.0088 -0.3832  0.0371  0.0371 -0.0159 -0.0159
  15.  C 3 (pz)     0.0880  0.0016  0.2652 -0.0093 -0.0093 -0.2743 -0.2743
  16.  H 4 (s)      0.1762  0.0497  0.0497  0.0158  0.0482  0.0482  0.0158
  17.  H 5 (s)      1.0000  0.0497  0.0497  0.0482  0.0158  0.0158  0.0482
  18.  H 6 (s)      0.0497  1.0000  0.0007  0.1723  0.1723  0.0029  0.0029
  19.  H 7 (s)      0.0497  0.0007  1.0000  0.0029  0.0029  0.1723  0.1723
  20.  H 8 (s)      0.0482  0.1723  0.0029  1.0000  0.1726  0.0132  0.0403
  21.  H 9 (s)      0.0158  0.1723  0.0029  0.1726  1.0000  0.0403  0.0132
  22.  H10 (s)      0.0158  0.0029  0.1723  0.0132  0.0403  1.0000  0.1726
  23.  H11 (s)      0.0482  0.0029  0.1723  0.0403  0.0132  0.1726  1.0000


 AO bond-order matrix:

           AO          1       2       3       4       5       6       7       8
      ------------ ------- ------- ------- ------- ------- ------- ------- -------
   1.  C 1 (s)      2.0661 -0.2107  0.0000  0.0000  0.0005  0.0159 -0.0397  0.0000
   2.  C 1 (s)     -0.2107  0.8363  0.0000  0.0000 -0.0208 -0.0390  0.0455  0.0000
   3.  C 1 (px)     0.0000  0.0000  0.6532  0.0000  0.0000  0.0000  0.0000 -0.0047
   4.  C 1 (py)     0.0000  0.0000  0.0000  0.6285  0.0000 -0.0783  0.2268  0.0000
   5.  C 1 (pz)     0.0005 -0.0208  0.0000  0.0000  0.6371  0.0565 -0.1742  0.0000
   6.  C 2 (s)      0.0159 -0.0390  0.0000 -0.0783  0.0565  2.0664 -0.2091  0.0000
   7.  C 2 (s)     -0.0397  0.0455  0.0000  0.2268 -0.1742 -0.2091  0.8255  0.0000
   8.  C 2 (px)     0.0000  0.0000 -0.0047  0.0000  0.0000  0.0000  0.0000  0.6514
   9.  C 2 (py)     0.0791 -0.2298  0.0000 -0.3677  0.2583  0.0026 -0.0238  0.0000
  10.  C 2 (pz)    -0.0517  0.1515  0.0000  0.2515 -0.1791 -0.0018  0.0167  0.0000
  11.  C 3 (s)      0.0159 -0.0390  0.0000  0.0783  0.0565 -0.0038  0.0137  0.0000
  12.  C 3 (s)     -0.0397  0.0455  0.0000 -0.2268 -0.1742  0.0137 -0.0433  0.0000
  13.  C 3 (px)     0.0000  0.0000 -0.0047  0.0000  0.0000  0.0000  0.0000 -0.0311
  14.  C 3 (py)    -0.0791  0.2298  0.0000 -0.3677 -0.2583  0.0194 -0.0792  0.0000
  15.  C 3 (pz)    -0.0517  0.1515  0.0000 -0.2515 -0.1791 -0.0040  0.0220  0.0000
  16.  H 4 (s)     -0.0932  0.2196 -0.4979  0.0000  0.3434  0.0207 -0.0832  0.0531
  17.  H 5 (s)     -0.0932  0.2196  0.4979  0.0000  0.3434  0.0207 -0.0832 -0.0531
  18.  H 6 (s)      0.0194 -0.0715  0.0000 -0.1084  0.0014 -0.0935  0.2238  0.0000
  19.  H 7 (s)      0.0194 -0.0715  0.0000  0.1084  0.0014 -0.0194  0.0793  0.0000
  20.  H 8 (s)      0.0183 -0.0726 -0.0600 -0.0615  0.0797 -0.0928  0.2207  0.4931
  21.  H 9 (s)      0.0183 -0.0726  0.0600 -0.0615  0.0797 -0.0928  0.2207 -0.4931
  22.  H10 (s)      0.0183 -0.0726  0.0600  0.0615  0.0797  0.0088 -0.0332  0.0115
  23.  H11 (s)      0.0183 -0.0726 -0.0600  0.0615  0.0797  0.0088 -0.0332 -0.0115

           AO          9      10      11      12      13      14      15      16
      ------------ ------- ------- ------- ------- ------- ------- ------- -------
   1.  C 1 (s)      0.0791 -0.0517  0.0159 -0.0397  0.0000 -0.0791 -0.0517 -0.0932
   2.  C 1 (s)     -0.2298  0.1515 -0.0390  0.0455  0.0000  0.2298  0.1515  0.2196
   3.  C 1 (px)     0.0000  0.0000  0.0000  0.0000 -0.0047  0.0000  0.0000 -0.4979
   4.  C 1 (py)    -0.3677  0.2515  0.0783 -0.2268  0.0000 -0.3677 -0.2515  0.0000
   5.  C 1 (pz)     0.2583 -0.1791  0.0565 -0.1742  0.0000 -0.2583 -0.1791  0.3434
   6.  C 2 (s)      0.0026 -0.0018 -0.0038  0.0137  0.0000  0.0194 -0.0040  0.0207
   7.  C 2 (s)     -0.0238  0.0167  0.0137 -0.0433  0.0000 -0.0792  0.0220 -0.0832
   8.  C 2 (px)     0.0000  0.0000  0.0000  0.0000 -0.0311  0.0000  0.0000  0.0531
   9.  C 2 (py)     0.6419  0.0055 -0.0194  0.0792  0.0000  0.0959  0.0179  0.0634
  10.  C 2 (pz)     0.0055  0.6477 -0.0040  0.0220  0.0000 -0.0179  0.0043 -0.0816
  11.  C 3 (s)     -0.0194 -0.0040  2.0664 -0.2091  0.0000 -0.0026 -0.0018  0.0207
  12.  C 3 (s)      0.0792  0.0220 -0.2091  0.8255  0.0000  0.0238  0.0167 -0.0832
  13.  C 3 (px)     0.0000  0.0000  0.0000  0.0000  0.6514  0.0000  0.0000  0.0531
  14.  C 3 (py)     0.0959 -0.0179 -0.0026  0.0238  0.0000  0.6419 -0.0055 -0.0634
  15.  C 3 (pz)     0.0179  0.0043 -0.0018  0.0167  0.0000 -0.0055  0.6477 -0.0816
  16.  H 4 (s)      0.0634 -0.0816  0.0207 -0.0832  0.0531 -0.0634 -0.0816  0.6397
  17.  H 5 (s)      0.0634 -0.0816  0.0207 -0.0832 -0.0531 -0.0634 -0.0816 -0.1353
  18.  H 6 (s)      0.4798  0.3611 -0.0194  0.0793  0.0000  0.0891  0.0373 -0.0433
  19.  H 7 (s)     -0.0891  0.0373 -0.0935  0.2238  0.0000 -0.4798  0.3611 -0.0433
  20.  H 8 (s)      0.0028 -0.3460  0.0088 -0.0332 -0.0115 -0.0319 -0.0117  0.1211
  21.  H 9 (s)      0.0028 -0.3460  0.0088 -0.0332  0.0115 -0.0319 -0.0117 -0.0471
  22.  H10 (s)      0.0319 -0.0117 -0.0928  0.2207 -0.4931 -0.0028 -0.3460 -0.0471
  23.  H11 (s)      0.0319 -0.0117 -0.0928  0.2207  0.4931 -0.0028 -0.3460  0.1211

           AO         17      18      19      20      21      22      23
      ------------ ------- ------- ------- ------- ------- ------- -------
   1.  C 1 (s)     -0.0932  0.0194  0.0194  0.0183  0.0183  0.0183  0.0183
   2.  C 1 (s)      0.2196 -0.0715 -0.0715 -0.0726 -0.0726 -0.0726 -0.0726
   3.  C 1 (px)     0.4979  0.0000  0.0000 -0.0600  0.0600  0.0600 -0.0600
   4.  C 1 (py)     0.0000 -0.1084  0.1084 -0.0615 -0.0615  0.0615  0.0615
   5.  C 1 (pz)     0.3434  0.0014  0.0014  0.0797  0.0797  0.0797  0.0797
   6.  C 2 (s)      0.0207 -0.0935 -0.0194 -0.0928 -0.0928  0.0088  0.0088
   7.  C 2 (s)     -0.0832  0.2238  0.0793  0.2207  0.2207 -0.0332 -0.0332
   8.  C 2 (px)    -0.0531  0.0000  0.0000  0.4931 -0.4931  0.0115 -0.0115
   9.  C 2 (py)     0.0634  0.4798 -0.0891  0.0028  0.0028  0.0319  0.0319
  10.  C 2 (pz)    -0.0816  0.3611  0.0373 -0.3460 -0.3460 -0.0117 -0.0117
  11.  C 3 (s)      0.0207 -0.0194 -0.0935  0.0088  0.0088 -0.0928 -0.0928
  12.  C 3 (s)     -0.0832  0.0793  0.2238 -0.0332 -0.0332  0.2207  0.2207
  13.  C 3 (px)    -0.0531  0.0000  0.0000 -0.0115  0.0115 -0.4931  0.4931
  14.  C 3 (py)    -0.0634  0.0891 -0.4798 -0.0319 -0.0319 -0.0028 -0.0028
  15.  C 3 (pz)    -0.0816  0.0373  0.3611 -0.0117 -0.0117 -0.3460 -0.3460
  16.  H 4 (s)     -0.1353 -0.0433 -0.0433  0.1211 -0.0471 -0.0471  0.1211
  17.  H 5 (s)      0.6397 -0.0433 -0.0433 -0.0471  0.1211  0.1211 -0.0471
  18.  H 6 (s)     -0.0433  0.6269 -0.0456 -0.1261 -0.1261  0.0036  0.0036
  19.  H 7 (s)     -0.0433 -0.0456  0.6269  0.0036  0.0036 -0.1261 -0.1261
  20.  H 8 (s)     -0.0471 -0.1261  0.0036  0.6297 -0.1271 -0.0010  0.0097
  21.  H 9 (s)      0.1211 -0.1261  0.0036 -0.1271  0.6297  0.0097 -0.0010
  22.  H10 (s)      0.1211  0.0036 -0.1261 -0.0010  0.0097  0.6297 -0.1271
  23.  H11 (s)     -0.0471  0.0036 -0.1261  0.0097 -0.0010 -0.1271  0.6297


 AO density matrix:

           AO          1       2       3       4       5       6       7       8
      ------------ ------- ------- ------- ------- ------- ------- ------- -------
   1.  C 1 (s)      1.9995  0.5051  0.0000  0.0000 -0.0007  0.0002  0.0528  0.0000
   2.  C 1 (s)      0.5051  1.8594  0.0000  0.0000  0.0256  0.0528  0.6535  0.0000
   3.  C 1 (px)     0.0000  0.0000  1.6067  0.0000  0.0000  0.0000  0.0000  0.3570
   4.  C 1 (py)     0.0000  0.0000  0.0000  1.5459  0.0000  0.0714  0.6699  0.0000
   5.  C 1 (pz)    -0.0007  0.0256  0.0000  0.0000  1.5753 -0.0475 -0.4530  0.0000
   6.  C 2 (s)      0.0002  0.0528  0.0000  0.0714 -0.0475  1.9995  0.5049  0.0000
   7.  C 2 (s)      0.0528  0.6535  0.0000  0.6699 -0.4530  0.5049  1.8669  0.0000
   8.  C 2 (px)     0.0000  0.0000  0.3570  0.0000  0.0000  0.0000  0.0000  1.6049
   9.  C 2 (py)    -0.0712 -0.6705  0.0000 -0.5462  0.6100 -0.0004  0.0176  0.0000
  10.  C 2 (pz)     0.0476  0.4497  0.0000  0.6049 -0.0543  0.0003 -0.0124  0.0000
  11.  C 3 (s)      0.0002  0.0528  0.0000 -0.0714 -0.0475  0.0000  0.0026  0.0000
  12.  C 3 (s)      0.0528  0.6535  0.0000 -0.6699 -0.4530  0.0026  0.0931  0.0000
  13.  C 3 (px)     0.0000  0.0000  0.3570  0.0000  0.0000  0.0000  0.0000  0.0321
  14.  C 3 (py)     0.0712  0.6705  0.0000 -0.5462 -0.6100  0.0058  0.1444  0.0000
  15.  C 3 (pz)     0.0476  0.4497  0.0000 -0.6049 -0.0543  0.0003 -0.0037  0.0000
  16.  H 4 (s)      0.1161  1.0822 -1.0065  0.0000  0.7456  0.0111  0.1938 -0.1202
  17.  H 5 (s)      0.1161  1.0822  1.0065  0.0000  0.7456  0.0111  0.1938  0.1202
  18.  H 6 (s)      0.0105  0.1830  0.0000  0.2452  0.0008  0.1166  1.0876  0.0000
  19.  H 7 (s)      0.0105  0.1830  0.0000 -0.2452  0.0008 -0.0008  0.0263  0.0000
  20.  H 8 (s)      0.0107  0.1882  0.1150  0.1320 -0.1681  0.1164  1.0858  1.0151
  21.  H 9 (s)      0.0107  0.1882 -0.1150  0.1320 -0.1681  0.1164  1.0858 -1.0151
  22.  H10 (s)      0.0107  0.1882 -0.1150 -0.1320 -0.1681  0.0020  0.0492 -0.0255
  23.  H11 (s)      0.0107  0.1882  0.1150 -0.1320 -0.1681  0.0020  0.0492  0.0255

           AO          9      10      11      12      13      14      15      16
      ------------ ------- ------- ------- ------- ------- ------- ------- -------
   1.  C 1 (s)     -0.0712  0.0476  0.0002  0.0528  0.0000  0.0712  0.0476  0.1161
   2.  C 1 (s)     -0.6705  0.4497  0.0528  0.6535  0.0000  0.6705  0.4497  1.0822
   3.  C 1 (px)     0.0000  0.0000  0.0000  0.0000  0.3570  0.0000  0.0000 -1.0065
   4.  C 1 (py)    -0.5462  0.6049 -0.0714 -0.6699  0.0000 -0.5462 -0.6049  0.0000
   5.  C 1 (pz)     0.6100 -0.0543 -0.0475 -0.4530  0.0000 -0.6100 -0.0543  0.7456
   6.  C 2 (s)     -0.0004  0.0003  0.0000  0.0026  0.0000  0.0058  0.0003  0.0111
   7.  C 2 (s)      0.0176 -0.0124  0.0026  0.0931  0.0000  0.1444 -0.0037  0.1938
   8.  C 2 (px)     0.0000  0.0000  0.0000  0.0000  0.0321  0.0000  0.0000 -0.1202
   9.  C 2 (py)     1.5743  0.0223 -0.0058 -0.1444  0.0000 -0.2057  0.0165 -0.1337
  10.  C 2 (pz)     0.0223  1.5899  0.0003 -0.0037  0.0000 -0.0165  0.0157  0.1781
  11.  C 3 (s)     -0.0058  0.0003  1.9995  0.5049  0.0000  0.0004  0.0003  0.0111
  12.  C 3 (s)     -0.1444 -0.0037  0.5049  1.8669  0.0000 -0.0176 -0.0124  0.1938
  13.  C 3 (px)     0.0000  0.0000  0.0000  0.0000  1.6049  0.0000  0.0000 -0.1202
  14.  C 3 (py)    -0.2057 -0.0165  0.0004 -0.0176  0.0000  1.5743 -0.0223  0.1337
  15.  C 3 (pz)     0.0165  0.0157  0.0003 -0.0124  0.0000 -0.0223  1.5899  0.1781
  16.  H 4 (s)     -0.1337  0.1781  0.0111  0.1938 -0.1202  0.1337  0.1781  1.6359
  17.  H 5 (s)     -0.1337  0.1781  0.0111  0.1938  0.1202  0.1337  0.1781  0.3457
  18.  H 6 (s)      1.0263  0.7200 -0.0008  0.0263  0.0000  0.0437  0.0266  0.0782
  19.  H 7 (s)     -0.0437  0.0266  0.1166  1.0876  0.0000 -1.0263  0.7200  0.0782
  20.  H 8 (s)      0.0381 -0.7362  0.0020  0.0492  0.0255  0.0590 -0.0316  0.0704
  21.  H 9 (s)      0.0381 -0.7362  0.0020  0.0492 -0.0255  0.0590 -0.0316  0.0758
  22.  H10 (s)     -0.0590 -0.0316  0.1164  1.0858 -1.0151 -0.0381 -0.7362  0.0758
  23.  H11 (s)     -0.0590 -0.0316  0.1164  1.0858  1.0151 -0.0381 -0.7362  0.0704

           AO         17      18      19      20      21      22      23
      ------------ ------- ------- ------- ------- ------- ------- -------
   1.  C 1 (s)      0.1161  0.0105  0.0105  0.0107  0.0107  0.0107  0.0107
   2.  C 1 (s)      1.0822  0.1830  0.1830  0.1882  0.1882  0.1882  0.1882
   3.  C 1 (px)     1.0065  0.0000  0.0000  0.1150 -0.1150 -0.1150  0.1150
   4.  C 1 (py)     0.0000  0.2452 -0.2452  0.1320  0.1320 -0.1320 -0.1320
   5.  C 1 (pz)     0.7456  0.0008  0.0008 -0.1681 -0.1681 -0.1681 -0.1681
   6.  C 2 (s)      0.0111  0.1166 -0.0008  0.1164  0.1164  0.0020  0.0020
   7.  C 2 (s)      0.1938  1.0876  0.0263  1.0858  1.0858  0.0492  0.0492
   8.  C 2 (px)     0.1202  0.0000  0.0000  1.0151 -1.0151 -0.0255  0.0255
   9.  C 2 (py)    -0.1337  1.0263 -0.0437  0.0381  0.0381 -0.0590 -0.0590
  10.  C 2 (pz)     0.1781  0.7200  0.0266 -0.7362 -0.7362 -0.0316 -0.0316
  11.  C 3 (s)      0.0111 -0.0008  0.1166  0.0020  0.0020  0.1164  0.1164
  12.  C 3 (s)      0.1938  0.0263  1.0876  0.0492  0.0492  1.0858  1.0858
  13.  C 3 (px)     0.1202  0.0000  0.0000  0.0255 -0.0255 -1.0151  1.0151
  14.  C 3 (py)     0.1337  0.0437 -1.0263  0.0590  0.0590 -0.0381 -0.0381
  15.  C 3 (pz)     0.1781  0.0266  0.7200 -0.0316 -0.0316 -0.7362 -0.7362
  16.  H 4 (s)      0.3457  0.0782  0.0782  0.0704  0.0758  0.0758  0.0704
  17.  H 5 (s)      1.6359  0.0782  0.0782  0.0758  0.0704  0.0704  0.0758
  18.  H 6 (s)      0.0782  1.6367 -0.0164  0.3352  0.3352  0.0067  0.0067
  19.  H 7 (s)      0.0782 -0.0164  1.6367  0.0067  0.0067  0.3352  0.3352
  20.  H 8 (s)      0.0758  0.3352  0.0067  1.6374  0.3359  0.0249  0.0812
  21.  H 9 (s)      0.0704  0.3352  0.0067  0.3359  1.6374  0.0812  0.0249
  22.  H10 (s)      0.0704  0.0067  0.3352  0.0249  0.0812  1.6374  0.3359
  23.  H11 (s)      0.0758  0.0067  0.3352  0.0812  0.0249  0.3359  1.6374


 MO density matrix:

      MO     1       2       3       4       5       6       7       8       9
     ---- ------  ------  ------  ------  ------  ------  ------  ------  ------
   1.     2.0000  0.0000  0.0000  0.0000  0.0000  0.0000  0.0000  0.0000  0.0000
   2.     0.0000  2.0000  0.0000  0.0000  0.0000  0.0000  0.0000  0.0000  0.0000
   3.     0.0000  0.0000  2.0000  0.0000  0.0000  0.0000  0.0000  0.0000  0.0000
   4.     0.0000  0.0000  0.0000  2.0000  0.0000  0.0000  0.0000  0.0000  0.0000
   5.     0.0000  0.0000  0.0000  0.0000  2.0000  0.0000  0.0000  0.0000  0.0000
   6.     0.0000  0.0000  0.0000  0.0000  0.0000  2.0000  0.0000  0.0000  0.0000
   7.     0.0000  0.0000  0.0000  0.0000  0.0000  0.0000  2.0000  0.0000  0.0000
   8.     0.0000  0.0000  0.0000  0.0000  0.0000  0.0000  0.0000  2.0000  0.0000
   9.     0.0000  0.0000  0.0000  0.0000  0.0000  0.0000  0.0000  0.0000  2.0000
  10.     0.0000  0.0000  0.0000  0.0000  0.0000  0.0000  0.0000  0.0000  0.0000
  11.     0.0000  0.0000  0.0000  0.0000  0.0000  0.0000  0.0000  0.0000  0.0000
  12.     0.0000  0.0000  0.0000  0.0000  0.0000  0.0000  0.0000  0.0000  0.0000
  13.     0.0000  0.0000  0.0000  0.0000  0.0000  0.0000  0.0000  0.0000  0.0000
  14.     0.0000  0.0000  0.0000  0.0000  0.0000  0.0000  0.0000  0.0000  0.0000
  15.     0.0000  0.0000  0.0000  0.0000  0.0000  0.0000  0.0000  0.0000  0.0000
  16.     0.0000  0.0000  0.0000  0.0000  0.0000  0.0000  0.0000  0.0000  0.0000
  17.     0.0000  0.0000  0.0000  0.0000  0.0000  0.0000  0.0000  0.0000  0.0000
  18.     0.0000  0.0000  0.0000  0.0000  0.0000  0.0000  0.0000  0.0000  0.0000
  19.     0.0000  0.0000  0.0000  0.0000  0.0000  0.0000  0.0000  0.0000  0.0000
  20.     0.0000  0.0000  0.0000  0.0000  0.0000  0.0000  0.0000  0.0000  0.0000
  21.     0.0000  0.0000  0.0000  0.0000  0.0000  0.0000  0.0000  0.0000  0.0000
  22.     0.0000  0.0000  0.0000  0.0000  0.0000  0.0000  0.0000  0.0000  0.0000
  23.     0.0000  0.0000  0.0000  0.0000  0.0000  0.0000  0.0000  0.0000  0.0000

      MO    10      11      12      13      14      15      16      17      18
     ---- ------  ------  ------  ------  ------  ------  ------  ------  ------
   1.     0.0000  0.0000  0.0000  0.0000  0.0000  0.0000  0.0000  0.0000  0.0000
   2.     0.0000  0.0000  0.0000  0.0000  0.0000  0.0000  0.0000  0.0000  0.0000
   3.     0.0000  0.0000  0.0000  0.0000  0.0000  0.0000  0.0000  0.0000  0.0000
   4.     0.0000  0.0000  0.0000  0.0000  0.0000  0.0000  0.0000  0.0000  0.0000
   5.     0.0000  0.0000  0.0000  0.0000  0.0000  0.0000  0.0000  0.0000  0.0000
   6.     0.0000  0.0000  0.0000  0.0000  0.0000  0.0000  0.0000  0.0000  0.0000
   7.     0.0000  0.0000  0.0000  0.0000  0.0000  0.0000  0.0000  0.0000  0.0000
   8.     0.0000  0.0000  0.0000  0.0000  0.0000  0.0000  0.0000  0.0000  0.0000
   9.     0.0000  0.0000  0.0000  0.0000  0.0000  0.0000  0.0000  0.0000  0.0000
  10.     2.0000  0.0000  0.0000  0.0000  0.0000  0.0000  0.0000  0.0000  0.0000
  11.     0.0000  2.0000  0.0000  0.0000  0.0000  0.0000  0.0000  0.0000  0.0000
  12.     0.0000  0.0000  2.0000  0.0000  0.0000  0.0000  0.0000  0.0000  0.0000
  13.     0.0000  0.0000  0.0000  2.0000  0.0000  0.0000  0.0000  0.0000  0.0000
  14.     0.0000  0.0000  0.0000  0.0000  0.0000  0.0000  0.0000  0.0000  0.0000
  15.     0.0000  0.0000  0.0000  0.0000  0.0000  0.0000  0.0000  0.0000  0.0000
  16.     0.0000  0.0000  0.0000  0.0000  0.0000  0.0000  0.0000  0.0000  0.0000
  17.     0.0000  0.0000  0.0000  0.0000  0.0000  0.0000  0.0000  0.0000  0.0000
  18.     0.0000  0.0000  0.0000  0.0000  0.0000  0.0000  0.0000  0.0000  0.0000
  19.     0.0000  0.0000  0.0000  0.0000  0.0000  0.0000  0.0000  0.0000  0.0000
  20.     0.0000  0.0000  0.0000  0.0000  0.0000  0.0000  0.0000  0.0000  0.0000
  21.     0.0000  0.0000  0.0000  0.0000  0.0000  0.0000  0.0000  0.0000  0.0000
  22.     0.0000  0.0000  0.0000  0.0000  0.0000  0.0000  0.0000  0.0000  0.0000
  23.     0.0000  0.0000  0.0000  0.0000  0.0000  0.0000  0.0000  0.0000  0.0000

      MO    19      20      21      22      23
     ---- ------  ------  ------  ------  ------
   1.     0.0000  0.0000  0.0000  0.0000  0.0000
   2.     0.0000  0.0000  0.0000  0.0000  0.0000
   3.     0.0000  0.0000  0.0000  0.0000  0.0000
   4.     0.0000  0.0000  0.0000  0.0000  0.0000
   5.     0.0000  0.0000  0.0000  0.0000  0.0000
   6.     0.0000  0.0000  0.0000  0.0000  0.0000
   7.     0.0000  0.0000  0.0000  0.0000  0.0000
   8.     0.0000  0.0000  0.0000  0.0000  0.0000
   9.     0.0000  0.0000  0.0000  0.0000  0.0000
  10.     0.0000  0.0000  0.0000  0.0000  0.0000
  11.     0.0000  0.0000  0.0000  0.0000  0.0000
  12.     0.0000  0.0000  0.0000  0.0000  0.0000
  13.     0.0000  0.0000  0.0000  0.0000  0.0000
  14.     0.0000  0.0000  0.0000  0.0000  0.0000
  15.     0.0000  0.0000  0.0000  0.0000  0.0000
  16.     0.0000  0.0000  0.0000  0.0000  0.0000
  17.     0.0000  0.0000  0.0000  0.0000  0.0000
  18.     0.0000  0.0000  0.0000  0.0000  0.0000
  19.     0.0000  0.0000  0.0000  0.0000  0.0000
  20.     0.0000  0.0000  0.0000  0.0000  0.0000
  21.     0.0000  0.0000  0.0000  0.0000  0.0000
  22.     0.0000  0.0000  0.0000  0.0000  0.0000
  23.     0.0000  0.0000  0.0000  0.0000  0.0000


 NATURAL POPULATIONS:  Natural atomic orbital occupancies

  NAO Atom No lang   Type(AO)    Occupancy      Energy
 -------------------------------------------------------
   1    C  1  s      Cor( 1s)     2.00000     -11.02985
   2    C  1  s      Val( 2s)     1.07584      -0.15504
   3    C  1  px     Val( 2p)     1.02160       0.09121
   4    C  1  py     Val( 2p)     0.95959       0.11201
   5    C  1  pz     Val( 2p)     0.98757       0.10148

   6    C  2  s      Cor( 1s)     2.00000     -11.01927
   7    C  2  s      Val( 2s)     1.08120      -0.15351
   8    C  2  px     Val( 2p)     1.03069       0.08334
   9    C  2  py     Val( 2p)     1.00000       0.09247
  10    C  2  pz     Val( 2p)     1.01707       0.08772

  11    C  3  s      Cor( 1s)     2.00000     -11.01927
  12    C  3  s      Val( 2s)     1.08120      -0.15351
  13    C  3  px     Val( 2p)     1.03069       0.08334
  14    C  3  py     Val( 2p)     1.00000       0.09247
  15    C  3  pz     Val( 2p)     1.01707       0.08772

  16    H  4  s      Val( 1s)     0.96737       0.08020

  17    H  5  s      Val( 1s)     0.96737       0.08020

  18    H  6  s      Val( 1s)     0.95946       0.08435

  19    H  7  s      Val( 1s)     0.95946       0.08435

  20    H  8  s      Val( 1s)     0.96096       0.08395

  21    H  9  s      Val( 1s)     0.96096       0.08395

  22    H 10  s      Val( 1s)     0.96096       0.08395

  23    H 11  s      Val( 1s)     0.96096       0.08395


 Summary of Natural Population Analysis:

                                     Natural Population
             Natural    ---------------------------------------------
  Atom No    Charge        Core      Valence    Rydberg      Total
 --------------------------------------------------------------------
    C  1   -0.04461      2.00000     4.04461    0.00000     6.04461
    C  2   -0.12895      2.00000     4.12896    0.00000     6.12895
    C  3   -0.12895      2.00000     4.12896    0.00000     6.12895
    H  4    0.03263      0.00000     0.96737    0.00000     0.96737
    H  5    0.03263      0.00000     0.96737    0.00000     0.96737
    H  6    0.04054      0.00000     0.95946    0.00000     0.95946
    H  7    0.04054      0.00000     0.95946    0.00000     0.95946
    H  8    0.03904      0.00000     0.96096    0.00000     0.96096
    H  9    0.03904      0.00000     0.96096    0.00000     0.96096
    H 10    0.03904      0.00000     0.96096    0.00000     0.96096
    H 11    0.03904      0.00000     0.96096    0.00000     0.96096
 ====================================================================
 * Total *  0.00000      5.99999    20.00001    0.00000    26.00000

                                 Natural Population
 ---------------------------------------------------------
   Core                       5.99999 ( 99.9999% of    6)
   Valence                   20.00001 (100.0000% of   20)
   Natural Minimal Basis     26.00000 (100.0000% of   26)
   Natural Rydberg Basis      0.00000 (  0.0000% of   26)
 ---------------------------------------------------------

    Atom No         Natural Electron Configuration
 ----------------------------------------------------------------------------
      C  1      [core]2s( 1.08)2p( 2.97)
      C  2      [core]2s( 1.08)2p( 3.05)
      C  3      [core]2s( 1.08)2p( 3.05)
      H  4            1s( 0.97)
      H  5            1s( 0.97)
      H  6            1s( 0.96)
      H  7            1s( 0.96)
      H  8            1s( 0.96)
      H  9            1s( 0.96)
      H 10            1s( 0.96)
      H 11            1s( 0.96)


 PNAOs in the AO basis:

           AO          1       2       3       4       5       6       7       8
      ------------ ------- ------- ------- ------- ------- ------- ------- -------
   1.  C 1 (s)      0.9838 -0.3128  0.0000  0.0000  0.0000  0.0000  0.0000  0.0000
   2.  C 1 (s)      0.0586  1.0307  0.0000  0.0000  0.0000  0.0000  0.0000  0.0000
   3.  C 1 (px)     0.0000  0.0000  1.0000  0.0000  0.0000  0.0000  0.0000  0.0000
   4.  C 1 (py)     0.0000  0.0000  0.0000  1.0000  0.0000  0.0000  0.0000  0.0000
   5.  C 1 (pz)     0.0000  0.0000  0.0000  0.0000  1.0000  0.0000  0.0000  0.0000
   6.  C 2 (s)      0.0000  0.0000  0.0000  0.0000  0.0000  0.9834 -0.3142  0.0000
   7.  C 2 (s)      0.0000  0.0000  0.0000  0.0000  0.0000  0.0601  1.0306  0.0000
   8.  C 2 (px)     0.0000  0.0000  0.0000  0.0000  0.0000  0.0000  0.0000  1.0000
   9.  C 2 (py)     0.0000  0.0000  0.0000  0.0000  0.0000  0.0000  0.0000  0.0000
  10.  C 2 (pz)     0.0000  0.0000  0.0000  0.0000  0.0000  0.0000  0.0000  0.0000
  11.  C 3 (s)      0.0000  0.0000  0.0000  0.0000  0.0000  0.0000  0.0000  0.0000
  12.  C 3 (s)      0.0000  0.0000  0.0000  0.0000  0.0000  0.0000  0.0000  0.0000
  13.  C 3 (px)     0.0000  0.0000  0.0000  0.0000  0.0000  0.0000  0.0000  0.0000
  14.  C 3 (py)     0.0000  0.0000  0.0000  0.0000  0.0000  0.0000  0.0000  0.0000
  15.  C 3 (pz)     0.0000  0.0000  0.0000  0.0000  0.0000  0.0000  0.0000  0.0000
  16.  H 4 (s)      0.0000  0.0000  0.0000  0.0000  0.0000  0.0000  0.0000  0.0000
  17.  H 5 (s)      0.0000  0.0000  0.0000  0.0000  0.0000  0.0000  0.0000  0.0000
  18.  H 6 (s)      0.0000  0.0000  0.0000  0.0000  0.0000  0.0000  0.0000  0.0000
  19.  H 7 (s)      0.0000  0.0000  0.0000  0.0000  0.0000  0.0000  0.0000  0.0000
  20.  H 8 (s)      0.0000  0.0000  0.0000  0.0000  0.0000  0.0000  0.0000  0.0000
  21.  H 9 (s)      0.0000  0.0000  0.0000  0.0000  0.0000  0.0000  0.0000  0.0000
  22.  H10 (s)      0.0000  0.0000  0.0000  0.0000  0.0000  0.0000  0.0000  0.0000
  23.  H11 (s)      0.0000  0.0000  0.0000  0.0000  0.0000  0.0000  0.0000  0.0000

           AO          9      10      11      12      13      14      15      16
      ------------ ------- ------- ------- ------- ------- ------- ------- -------
   1.  C 1 (s)      0.0000  0.0000  0.0000  0.0000  0.0000  0.0000  0.0000  0.0000
   2.  C 1 (s)      0.0000  0.0000  0.0000  0.0000  0.0000  0.0000  0.0000  0.0000
   3.  C 1 (px)     0.0000  0.0000  0.0000  0.0000  0.0000  0.0000  0.0000  0.0000
   4.  C 1 (py)     0.0000  0.0000  0.0000  0.0000  0.0000  0.0000  0.0000  0.0000
   5.  C 1 (pz)     0.0000  0.0000  0.0000  0.0000  0.0000  0.0000  0.0000  0.0000
   6.  C 2 (s)      0.0000  0.0000  0.0000  0.0000  0.0000  0.0000  0.0000  0.0000
   7.  C 2 (s)      0.0000  0.0000  0.0000  0.0000  0.0000  0.0000  0.0000  0.0000
   8.  C 2 (px)     0.0000  0.0000  0.0000  0.0000  0.0000  0.0000  0.0000  0.0000
   9.  C 2 (py)     1.0000  0.0000  0.0000  0.0000  0.0000  0.0000  0.0000  0.0000
  10.  C 2 (pz)     0.0000  1.0000  0.0000  0.0000  0.0000  0.0000  0.0000  0.0000
  11.  C 3 (s)      0.0000  0.0000  0.9834 -0.3142  0.0000  0.0000  0.0000  0.0000
  12.  C 3 (s)      0.0000  0.0000  0.0601  1.0306  0.0000  0.0000  0.0000  0.0000
  13.  C 3 (px)     0.0000  0.0000  0.0000  0.0000  1.0000  0.0000  0.0000  0.0000
  14.  C 3 (py)     0.0000  0.0000  0.0000  0.0000  0.0000  1.0000  0.0000  0.0000
  15.  C 3 (pz)     0.0000  0.0000  0.0000  0.0000  0.0000  0.0000  1.0000  0.0000
  16.  H 4 (s)      0.0000  0.0000  0.0000  0.0000  0.0000  0.0000  0.0000  1.0000
  17.  H 5 (s)      0.0000  0.0000  0.0000  0.0000  0.0000  0.0000  0.0000  0.0000
  18.  H 6 (s)      0.0000  0.0000  0.0000  0.0000  0.0000  0.0000  0.0000  0.0000
  19.  H 7 (s)      0.0000  0.0000  0.0000  0.0000  0.0000  0.0000  0.0000  0.0000
  20.  H 8 (s)      0.0000  0.0000  0.0000  0.0000  0.0000  0.0000  0.0000  0.0000
  21.  H 9 (s)      0.0000  0.0000  0.0000  0.0000  0.0000  0.0000  0.0000  0.0000
  22.  H10 (s)      0.0000  0.0000  0.0000  0.0000  0.0000  0.0000  0.0000  0.0000
  23.  H11 (s)      0.0000  0.0000  0.0000  0.0000  0.0000  0.0000  0.0000  0.0000

           AO         17      18      19      20      21      22      23
      ------------ ------- ------- ------- ------- ------- ------- -------
   1.  C 1 (s)      0.0000  0.0000  0.0000  0.0000  0.0000  0.0000  0.0000
   2.  C 1 (s)      0.0000  0.0000  0.0000  0.0000  0.0000  0.0000  0.0000
   3.  C 1 (px)     0.0000  0.0000  0.0000  0.0000  0.0000  0.0000  0.0000
   4.  C 1 (py)     0.0000  0.0000  0.0000  0.0000  0.0000  0.0000  0.0000
   5.  C 1 (pz)     0.0000  0.0000  0.0000  0.0000  0.0000  0.0000  0.0000
   6.  C 2 (s)      0.0000  0.0000  0.0000  0.0000  0.0000  0.0000  0.0000
   7.  C 2 (s)      0.0000  0.0000  0.0000  0.0000  0.0000  0.0000  0.0000
   8.  C 2 (px)     0.0000  0.0000  0.0000  0.0000  0.0000  0.0000  0.0000
   9.  C 2 (py)     0.0000  0.0000  0.0000  0.0000  0.0000  0.0000  0.0000
  10.  C 2 (pz)     0.0000  0.0000  0.0000  0.0000  0.0000  0.0000  0.0000
  11.  C 3 (s)      0.0000  0.0000  0.0000  0.0000  0.0000  0.0000  0.0000
  12.  C 3 (s)      0.0000  0.0000  0.0000  0.0000  0.0000  0.0000  0.0000
  13.  C 3 (px)     0.0000  0.0000  0.0000  0.0000  0.0000  0.0000  0.0000
  14.  C 3 (py)     0.0000  0.0000  0.0000  0.0000  0.0000  0.0000  0.0000
  15.  C 3 (pz)     0.0000  0.0000  0.0000  0.0000  0.0000  0.0000  0.0000
  16.  H 4 (s)      0.0000  0.0000  0.0000  0.0000  0.0000  0.0000  0.0000
  17.  H 5 (s)      1.0000  0.0000  0.0000  0.0000  0.0000  0.0000  0.0000
  18.  H 6 (s)      0.0000  1.0000  0.0000  0.0000  0.0000  0.0000  0.0000
  19.  H 7 (s)      0.0000  0.0000  1.0000  0.0000  0.0000  0.0000  0.0000
  20.  H 8 (s)      0.0000  0.0000  0.0000  1.0000  0.0000  0.0000  0.0000
  21.  H 9 (s)      0.0000  0.0000  0.0000  0.0000  1.0000  0.0000  0.0000
  22.  H10 (s)      0.0000  0.0000  0.0000  0.0000  0.0000  1.0000  0.0000
  23.  H11 (s)      0.0000  0.0000  0.0000  0.0000  0.0000  0.0000  1.0000


 PNAO overlap matrix:

           NAO         1       2       3       4       5       6       7       8
      ------------ ------- ------- ------- ------- ------- ------- ------- -------
   1.  C 1( 1s )    1.0000  0.0000  0.0000  0.0000  0.0000  0.0043  0.0460  0.0000
   2.  C 1( 2s )    0.0000  1.0000  0.0000  0.0000  0.0000  0.0464  0.3066  0.0000
   3.  C 1( 2px)    0.0000  0.0000  1.0000  0.0000  0.0000  0.0000  0.0000  0.1693
   4.  C 1( 2py)    0.0000  0.0000  0.0000  1.0000  0.0000  0.0549  0.2810  0.0000
   5.  C 1( 2pz)    0.0000  0.0000  0.0000  0.0000  1.0000 -0.0368 -0.1881  0.0000
   6.  C 2( 1s )    0.0043  0.0464  0.0000  0.0549 -0.0368  1.0000  0.0000  0.0000
   7.  C 2( 2s )    0.0460  0.3066  0.0000  0.2810 -0.1881  0.0000  1.0000  0.0000
   8.  C 2( 2px)    0.0000  0.0000  0.1693  0.0000  0.0000  0.0000  0.0000  1.0000
   9.  C 2( 2py)   -0.0545 -0.2811  0.0000 -0.1662  0.2245  0.0000  0.0000  0.0000
  10.  C 2( 2pz)    0.0365  0.1881  0.0000  0.2245  0.0190  0.0000  0.0000  0.0000
  11.  C 3( 1s )    0.0043  0.0464  0.0000 -0.0549 -0.0368  0.0003  0.0041  0.0000
  12.  C 3( 2s )    0.0460  0.3066  0.0000 -0.2810 -0.1881  0.0041  0.0497  0.0000
  13.  C 3( 2px)    0.0000  0.0000  0.1693  0.0000  0.0000  0.0000  0.0000  0.0194
  14.  C 3( 2py)    0.0545  0.2811  0.0000 -0.1662 -0.2245  0.0071  0.0732  0.0000
  15.  C 3( 2pz)    0.0365  0.1881  0.0000 -0.2245  0.0190  0.0000  0.0000  0.0000
  16.  H 4( 1s )    0.0890  0.4832 -0.3724  0.0000  0.2790  0.0112  0.0989 -0.0513
  17.  H 5( 1s )    0.0890  0.4832  0.3724  0.0000  0.2790  0.0112  0.0989  0.0513
  18.  H 6( 1s )    0.0105  0.0947  0.0000  0.1205 -0.0126  0.0901  0.4842  0.0000
  19.  H 7( 1s )    0.0105  0.0947  0.0000 -0.1205 -0.0126  0.0004  0.0055  0.0000
  20.  H 8( 1s )    0.0107  0.0961  0.0500  0.0738 -0.0844  0.0900  0.4839  0.3762
  21.  H 9( 1s )    0.0107  0.0961 -0.0500  0.0738 -0.0844  0.0900  0.4839 -0.3762
  22.  H10( 1s )    0.0107  0.0961 -0.0500 -0.0738 -0.0844  0.0025  0.0278 -0.0128
  23.  H11( 1s )    0.0107  0.0961  0.0500 -0.0738 -0.0844  0.0025  0.0278  0.0128

           NAO         9      10      11      12      13      14      15      16
      ------------ ------- ------- ------- ------- ------- ------- ------- -------
   1.  C 1( 1s )   -0.0545  0.0365  0.0043  0.0460  0.0000  0.0545  0.0365  0.0890
   2.  C 1( 2s )   -0.2811  0.1881  0.0464  0.3066  0.0000  0.2811  0.1881  0.4832
   3.  C 1( 2px)    0.0000  0.0000  0.0000  0.0000  0.1693  0.0000  0.0000 -0.3724
   4.  C 1( 2py)   -0.1662  0.2245 -0.0549 -0.2810  0.0000 -0.1662 -0.2245  0.0000
   5.  C 1( 2pz)    0.2245  0.0190 -0.0368 -0.1881  0.0000 -0.2245  0.0190  0.2790
   6.  C 2( 1s )    0.0000  0.0000  0.0003  0.0041  0.0000  0.0071  0.0000  0.0112
   7.  C 2( 2s )    0.0000  0.0000  0.0041  0.0497  0.0000  0.0732  0.0000  0.0989
   8.  C 2( 2px)    0.0000  0.0000  0.0000  0.0000  0.0194  0.0000  0.0000 -0.0513
   9.  C 2( 2py)    1.0000  0.0000 -0.0071 -0.0732  0.0000 -0.0999  0.0000 -0.0741
  10.  C 2( 2pz)    0.0000  1.0000  0.0000  0.0000  0.0000  0.0000  0.0194  0.0880
  11.  C 3( 1s )   -0.0071  0.0000  1.0000  0.0000  0.0000  0.0000  0.0000  0.0112
  12.  C 3( 2s )   -0.0732  0.0000  0.0000  1.0000  0.0000  0.0000  0.0000  0.0989
  13.  C 3( 2px)    0.0000  0.0000  0.0000  0.0000  1.0000  0.0000  0.0000 -0.0513
  14.  C 3( 2py)   -0.0999  0.0000  0.0000  0.0000  0.0000  1.0000  0.0000  0.0741
  15.  C 3( 2pz)    0.0000  0.0194  0.0000  0.0000  0.0000  0.0000  1.0000  0.0880
  16.  H 4( 1s )   -0.0741  0.0880  0.0112  0.0989 -0.0513  0.0741  0.0880  1.0000
  17.  H 5( 1s )   -0.0741  0.0880  0.0112  0.0989  0.0513  0.0741  0.0880  0.1762
  18.  H 6( 1s )    0.3832  0.2652  0.0004  0.0055  0.0000  0.0088  0.0016  0.0497
  19.  H 7( 1s )   -0.0088  0.0016  0.0901  0.4842  0.0000 -0.3832  0.2652  0.0497
  20.  H 8( 1s )    0.0159 -0.2743  0.0025  0.0278  0.0128  0.0371 -0.0093  0.0158
  21.  H 9( 1s )    0.0159 -0.2743  0.0025  0.0278 -0.0128  0.0371 -0.0093  0.0482
  22.  H10( 1s )   -0.0371 -0.0093  0.0900  0.4839 -0.3762 -0.0159 -0.2743  0.0482
  23.  H11( 1s )   -0.0371 -0.0093  0.0900  0.4839  0.3762 -0.0159 -0.2743  0.0158

           NAO        17      18      19      20      21      22      23
      ------------ ------- ------- ------- ------- ------- ------- -------
   1.  C 1( 1s )    0.0890  0.0105  0.0105  0.0107  0.0107  0.0107  0.0107
   2.  C 1( 2s )    0.4832  0.0947  0.0947  0.0961  0.0961  0.0961  0.0961
   3.  C 1( 2px)    0.3724  0.0000  0.0000  0.0500 -0.0500 -0.0500  0.0500
   4.  C 1( 2py)    0.0000  0.1205 -0.1205  0.0738  0.0738 -0.0738 -0.0738
   5.  C 1( 2pz)    0.2790 -0.0126 -0.0126 -0.0844 -0.0844 -0.0844 -0.0844
   6.  C 2( 1s )    0.0112  0.0901  0.0004  0.0900  0.0900  0.0025  0.0025
   7.  C 2( 2s )    0.0989  0.4842  0.0055  0.4839  0.4839  0.0278  0.0278
   8.  C 2( 2px)    0.0513  0.0000  0.0000  0.3762 -0.3762 -0.0128  0.0128
   9.  C 2( 2py)   -0.0741  0.3832 -0.0088  0.0159  0.0159 -0.0371 -0.0371
  10.  C 2( 2pz)    0.0880  0.2652  0.0016 -0.2743 -0.2743 -0.0093 -0.0093
  11.  C 3( 1s )    0.0112  0.0004  0.0901  0.0025  0.0025  0.0900  0.0900
  12.  C 3( 2s )    0.0989  0.0055  0.4842  0.0278  0.0278  0.4839  0.4839
  13.  C 3( 2px)    0.0513  0.0000  0.0000  0.0128 -0.0128 -0.3762  0.3762
  14.  C 3( 2py)    0.0741  0.0088 -0.3832  0.0371  0.0371 -0.0159 -0.0159
  15.  C 3( 2pz)    0.0880  0.0016  0.2652 -0.0093 -0.0093 -0.2743 -0.2743
  16.  H 4( 1s )    0.1762  0.0497  0.0497  0.0158  0.0482  0.0482  0.0158
  17.  H 5( 1s )    1.0000  0.0497  0.0497  0.0482  0.0158  0.0158  0.0482
  18.  H 6( 1s )    0.0497  1.0000  0.0007  0.1723  0.1723  0.0029  0.0029
  19.  H 7( 1s )    0.0497  0.0007  1.0000  0.0029  0.0029  0.1723  0.1723
  20.  H 8( 1s )    0.0482  0.1723  0.0029  1.0000  0.1726  0.0132  0.0403
  21.  H 9( 1s )    0.0158  0.1723  0.0029  0.1726  1.0000  0.0403  0.0132
  22.  H10( 1s )    0.0158  0.0029  0.1723  0.0132  0.0403  1.0000  0.1726
  23.  H11( 1s )    0.0482  0.0029  0.1723  0.0403  0.0132  0.1726  1.0000


 PNAO density matrix:

           NAO         1       2       3       4       5       6       7       8
      ------------ ------- ------- ------- ------- ------- ------- ------- -------
   1.  C 1( 1s )    2.0000  0.0000  0.0000  0.0000  0.0009  0.0086  0.0920  0.0000
   2.  C 1( 2s )    0.0000  1.8452  0.0000  0.0000  0.0266  0.0930  0.6601  0.0000
   3.  C 1( 2px)    0.0000  0.0000  1.6067  0.0000  0.0000  0.0000  0.0000  0.3570
   4.  C 1( 2py)    0.0000  0.0000  0.0000  1.5459  0.0000  0.1104  0.6679  0.0000
   5.  C 1( 2pz)    0.0009  0.0266  0.0000  0.0000  1.5753 -0.0739 -0.4519  0.0000
   6.  C 2( 1s )    0.0086  0.0930  0.0000  0.1104 -0.0739  2.0000  0.0000  0.0000
   7.  C 2( 2s )    0.0920  0.6601  0.0000  0.6679 -0.4519  0.0000  1.8533  0.0000
   8.  C 2( 2px)    0.0000  0.0000  0.3570  0.0000  0.0000  0.0000  0.0000  1.6049
   9.  C 2( 2py)   -0.1094 -0.6688  0.0000 -0.5462  0.6100  0.0007  0.0183  0.0000
  10.  C 2( 2pz)    0.0732  0.4486  0.0000  0.6049 -0.0543 -0.0005 -0.0129  0.0000
  11.  C 3( 1s )    0.0086  0.0930  0.0000 -0.1104 -0.0739  0.0006  0.0083  0.0000
  12.  C 3( 2s )    0.0920  0.6601  0.0000 -0.6679 -0.4519  0.0083  0.0973  0.0000
  13.  C 3( 2px)    0.0000  0.0000  0.3570  0.0000  0.0000  0.0000  0.0000  0.0321
  14.  C 3( 2py)    0.1094  0.6688  0.0000 -0.5462 -0.6100  0.0144  0.1470  0.0000
  15.  C 3( 2pz)    0.0732  0.4486  0.0000 -0.6049 -0.0543  0.0000 -0.0039  0.0000
  16.  H 4( 1s )    0.1777  1.0791 -1.0065  0.0000  0.7456  0.0226  0.1962 -0.1202
  17.  H 5( 1s )    0.1777  1.0791  1.0065  0.0000  0.7456  0.0226  0.1962  0.1202
  18.  H 6( 1s )    0.0211  0.1853  0.0000  0.2452  0.0008  0.1800  1.0843  0.0000
  19.  H 7( 1s )    0.0211  0.1853  0.0000 -0.2452  0.0008  0.0008  0.0273  0.0000
  20.  H 8( 1s )    0.0216  0.1906  0.1150  0.1320 -0.1681  0.1798  1.0824  1.0151
  21.  H 9( 1s )    0.0216  0.1906 -0.1150  0.1320 -0.1681  0.1798  1.0824 -1.0151
  22.  H10( 1s )    0.0216  0.1906 -0.1150 -0.1320 -0.1681  0.0049  0.0501 -0.0255
  23.  H11( 1s )    0.0216  0.1906  0.1150 -0.1320 -0.1681  0.0049  0.0501  0.0255

           NAO         9      10      11      12      13      14      15      16
      ------------ ------- ------- ------- ------- ------- ------- ------- -------
   1.  C 1( 1s )   -0.1094  0.0732  0.0086  0.0920  0.0000  0.1094  0.0732  0.1777
   2.  C 1( 2s )   -0.6688  0.4486  0.0930  0.6601  0.0000  0.6688  0.4486  1.0791
   3.  C 1( 2px)    0.0000  0.0000  0.0000  0.0000  0.3570  0.0000  0.0000 -1.0065
   4.  C 1( 2py)   -0.5462  0.6049 -0.1104 -0.6679  0.0000 -0.5462 -0.6049  0.0000
   5.  C 1( 2pz)    0.6100 -0.0543 -0.0739 -0.4519  0.0000 -0.6100 -0.0543  0.7456
   6.  C 2( 1s )    0.0007 -0.0005  0.0006  0.0083  0.0000  0.0144  0.0000  0.0226
   7.  C 2( 2s )    0.0183 -0.0129  0.0083  0.0973  0.0000  0.1470 -0.0039  0.1962
   8.  C 2( 2px)    0.0000  0.0000  0.0000  0.0000  0.0321  0.0000  0.0000 -0.1202
   9.  C 2( 2py)    1.5743  0.0223 -0.0144 -0.1470  0.0000 -0.2057  0.0165 -0.1337
  10.  C 2( 2pz)    0.0223  1.5899  0.0000 -0.0039  0.0000 -0.0165  0.0157  0.1781
  11.  C 3( 1s )   -0.0144  0.0000  2.0000  0.0000  0.0000 -0.0007 -0.0005  0.0226
  12.  C 3( 2s )   -0.1470 -0.0039  0.0000  1.8533  0.0000 -0.0183 -0.0129  0.1962
  13.  C 3( 2px)    0.0000  0.0000  0.0000  0.0000  1.6049  0.0000  0.0000 -0.1202
  14.  C 3( 2py)   -0.2057 -0.0165 -0.0007 -0.0183  0.0000  1.5743 -0.0223  0.1337
  15.  C 3( 2pz)    0.0165  0.0157 -0.0005 -0.0129  0.0000 -0.0223  1.5899  0.1781
  16.  H 4( 1s )   -0.1337  0.1781  0.0226  0.1962 -0.1202  0.1337  0.1781  1.6359
  17.  H 5( 1s )   -0.1337  0.1781  0.0226  0.1962  0.1202  0.1337  0.1781  0.3457
  18.  H 6( 1s )    1.0263  0.7200  0.0008  0.0273  0.0000  0.0437  0.0266  0.0782
  19.  H 7( 1s )   -0.0437  0.0266  0.1800  1.0843  0.0000 -1.0263  0.7200  0.0782
  20.  H 8( 1s )    0.0381 -0.7362  0.0049  0.0501  0.0255  0.0590 -0.0316  0.0704
  21.  H 9( 1s )    0.0381 -0.7362  0.0049  0.0501 -0.0255  0.0590 -0.0316  0.0758
  22.  H10( 1s )   -0.0590 -0.0316  0.1798  1.0824 -1.0151 -0.0381 -0.7362  0.0758
  23.  H11( 1s )   -0.0590 -0.0316  0.1798  1.0824  1.0151 -0.0381 -0.7362  0.0704

           NAO        17      18      19      20      21      22      23
      ------------ ------- ------- ------- ------- ------- ------- -------
   1.  C 1( 1s )    0.1777  0.0211  0.0211  0.0216  0.0216  0.0216  0.0216
   2.  C 1( 2s )    1.0791  0.1853  0.1853  0.1906  0.1906  0.1906  0.1906
   3.  C 1( 2px)    1.0065  0.0000  0.0000  0.1150 -0.1150 -0.1150  0.1150
   4.  C 1( 2py)    0.0000  0.2452 -0.2452  0.1320  0.1320 -0.1320 -0.1320
   5.  C 1( 2pz)    0.7456  0.0008  0.0008 -0.1681 -0.1681 -0.1681 -0.1681
   6.  C 2( 1s )    0.0226  0.1800  0.0008  0.1798  0.1798  0.0049  0.0049
   7.  C 2( 2s )    0.1962  1.0843  0.0273  1.0824  1.0824  0.0501  0.0501
   8.  C 2( 2px)    0.1202  0.0000  0.0000  1.0151 -1.0151 -0.0255  0.0255
   9.  C 2( 2py)   -0.1337  1.0263 -0.0437  0.0381  0.0381 -0.0590 -0.0590
  10.  C 2( 2pz)    0.1781  0.7200  0.0266 -0.7362 -0.7362 -0.0316 -0.0316
  11.  C 3( 1s )    0.0226  0.0008  0.1800  0.0049  0.0049  0.1798  0.1798
  12.  C 3( 2s )    0.1962  0.0273  1.0843  0.0501  0.0501  1.0824  1.0824
  13.  C 3( 2px)    0.1202  0.0000  0.0000  0.0255 -0.0255 -1.0151  1.0151
  14.  C 3( 2py)    0.1337  0.0437 -1.0263  0.0590  0.0590 -0.0381 -0.0381
  15.  C 3( 2pz)    0.1781  0.0266  0.7200 -0.0316 -0.0316 -0.7362 -0.7362
  16.  H 4( 1s )    0.3457  0.0782  0.0782  0.0704  0.0758  0.0758  0.0704
  17.  H 5( 1s )    1.6359  0.0782  0.0782  0.0758  0.0704  0.0704  0.0758
  18.  H 6( 1s )    0.0782  1.6367 -0.0164  0.3352  0.3352  0.0067  0.0067
  19.  H 7( 1s )    0.0782 -0.0164  1.6367  0.0067  0.0067  0.3352  0.3352
  20.  H 8( 1s )    0.0758  0.3352  0.0067  1.6374  0.3359  0.0249  0.0812
  21.  H 9( 1s )    0.0704  0.3352  0.0067  0.3359  1.6374  0.0812  0.0249
  22.  H10( 1s )    0.0704  0.0067  0.3352  0.0249  0.0812  1.6374  0.3359
  23.  H11( 1s )    0.0758  0.0067  0.3352  0.0812  0.0249  0.3359  1.6374


 NAOs in the AO basis:

           AO          1       2       3       4       5       6       7       8
      ------------ ------- ------- ------- ------- ------- ------- ------- -------
   1.  C 1 (s)      0.9838 -0.3593  0.0000  0.0000  0.0004 -0.0021  0.0101  0.0000
   2.  C 1 (s)      0.0586  1.5339  0.0000  0.0000  0.0192 -0.0001 -0.2235  0.0000
   3.  C 1 (px)     0.0000  0.0000  1.1899  0.0000  0.0000  0.0000  0.0000 -0.0910
   4.  C 1 (py)     0.0000  0.0000  0.0000  1.1857  0.0000  0.0000 -0.1790  0.0000
   5.  C 1 (pz)     0.0000  0.0156  0.0000  0.0000  1.1887  0.0000  0.1209  0.0000
   6.  C 2 (s)     -0.0021  0.0098  0.0000  0.0021 -0.0012  0.9834 -0.3598  0.0000
   7.  C 2 (s)     -0.0001 -0.2246  0.0000 -0.2208  0.1492  0.0601  1.5435  0.0000
   8.  C 2 (px)     0.0000  0.0000 -0.0918  0.0000  0.0000  0.0000  0.0000  1.1814
   9.  C 2 (py)     0.0000  0.1812  0.0000  0.1328 -0.1509  0.0000  0.0119  0.0000
  10.  C 2 (pz)     0.0000 -0.1210  0.0000 -0.1524  0.0114  0.0000 -0.0089  0.0000
  11.  C 3 (s)     -0.0021  0.0098  0.0000 -0.0021 -0.0012 -0.0001  0.0000  0.0000
  12.  C 3 (s)     -0.0001 -0.2246  0.0000  0.2208  0.1492  0.0000  0.0013  0.0000
  13.  C 3 (px)     0.0000  0.0000 -0.0918  0.0000  0.0000  0.0000  0.0000  0.0048
  14.  C 3 (py)     0.0000 -0.1812  0.0000  0.1328  0.1509  0.0000  0.0025  0.0000
  15.  C 3 (pz)     0.0000 -0.1210  0.0000  0.1524  0.0114  0.0000 -0.0038  0.0000
  16.  H 4 (s)      0.0000 -0.3206  0.2834  0.0000 -0.2095  0.0000 -0.0020 -0.0002
  17.  H 5 (s)      0.0000 -0.3206 -0.2834  0.0000 -0.2095  0.0000 -0.0020  0.0002
  18.  H 6 (s)      0.0000 -0.0016  0.0000 -0.0061  0.0081  0.0000 -0.3189  0.0000
  19.  H 7 (s)      0.0000 -0.0016  0.0000  0.0061  0.0081  0.0000 -0.0022  0.0000
  20.  H 8 (s)      0.0000 -0.0033  0.0024 -0.0075  0.0049  0.0000 -0.3186 -0.2856
  21.  H 9 (s)      0.0000 -0.0033 -0.0024 -0.0075  0.0049  0.0000 -0.3186  0.2856
  22.  H10 (s)      0.0000 -0.0033 -0.0024  0.0075  0.0049  0.0000  0.0012  0.0007
  23.  H11 (s)      0.0000 -0.0033  0.0024  0.0075  0.0049  0.0000  0.0012 -0.0007

           AO          9      10      11      12      13      14      15      16
      ------------ ------- ------- ------- ------- ------- ------- ------- -------
   1.  C 1 (s)     -0.0019  0.0013 -0.0021  0.0101  0.0000  0.0019  0.0013  0.0053
   2.  C 1 (s)      0.2205 -0.1473 -0.0001 -0.2235  0.0000 -0.2205 -0.1473 -0.3791
   3.  C 1 (px)     0.0000  0.0000  0.0000  0.0000 -0.0910  0.0000  0.0000  0.2730
   4.  C 1 (py)     0.1316 -0.1511  0.0000  0.1790  0.0000  0.1316  0.1511  0.0000
   5.  C 1 (pz)    -0.1496  0.0113  0.0000  0.1209  0.0000  0.1496  0.0113 -0.2018
   6.  C 2 (s)      0.0003  0.0000 -0.0001  0.0000  0.0000  0.0007 -0.0006 -0.0010
   7.  C 2 (s)      0.0146 -0.0109  0.0000  0.0013  0.0000  0.0032 -0.0047 -0.0024
   8.  C 2 (px)     0.0000  0.0000  0.0000  0.0000  0.0048  0.0000  0.0000 -0.0002
   9.  C 2 (py)     1.1806  0.0023  0.0000 -0.0025  0.0000  0.0110 -0.0058  0.0083
  10.  C 2 (pz)     0.0023  1.1804  0.0000 -0.0038  0.0000  0.0058 -0.0158 -0.0052
  11.  C 3 (s)     -0.0007 -0.0006  0.9834 -0.3598  0.0000 -0.0003  0.0000 -0.0010
  12.  C 3 (s)     -0.0032 -0.0047  0.0601  1.5435  0.0000 -0.0146 -0.0109 -0.0024
  13.  C 3 (px)     0.0000  0.0000  0.0000  0.0000  1.1814  0.0000  0.0000 -0.0002
  14.  C 3 (py)     0.0110  0.0058  0.0000 -0.0119  0.0000  1.1806 -0.0023 -0.0083
  15.  C 3 (pz)    -0.0058 -0.0158  0.0000 -0.0089  0.0000 -0.0023  1.1804 -0.0052
  16.  H 4 (s)      0.0086 -0.0054  0.0000 -0.0020 -0.0002 -0.0086 -0.0054  1.2732
  17.  H 5 (s)      0.0086 -0.0054  0.0000 -0.0020  0.0002 -0.0086 -0.0054 -0.0197
  18.  H 6 (s)     -0.2890 -0.2031  0.0000 -0.0022  0.0000 -0.0054  0.0025 -0.0112
  19.  H 7 (s)      0.0054  0.0025  0.0000 -0.3189  0.0000  0.2890 -0.2031 -0.0112
  20.  H 8 (s)     -0.0101  0.2065  0.0000  0.0012 -0.0007 -0.0069 -0.0005 -0.0050
  21.  H 9 (s)     -0.0101  0.2065  0.0000  0.0012  0.0007 -0.0069 -0.0005 -0.0100
  22.  H10 (s)      0.0069 -0.0005  0.0000 -0.3186  0.2856  0.0101  0.2065 -0.0100
  23.  H11 (s)      0.0069 -0.0005  0.0000 -0.3186 -0.2856  0.0101  0.2065 -0.0050

           AO         17      18      19      20      21      22      23
      ------------ ------- ------- ------- ------- ------- ------- -------
   1.  C 1 (s)      0.0053 -0.0011 -0.0011 -0.0009 -0.0009 -0.0009 -0.0009
   2.  C 1 (s)     -0.3791 -0.0019 -0.0019 -0.0039 -0.0039 -0.0039 -0.0039
   3.  C 1 (px)    -0.2730  0.0000  0.0000  0.0023 -0.0023 -0.0023  0.0023
   4.  C 1 (py)     0.0000 -0.0059  0.0059 -0.0072 -0.0072  0.0072  0.0072
   5.  C 1 (pz)    -0.2018  0.0078  0.0078  0.0047  0.0047  0.0047  0.0047
   6.  C 2 (s)     -0.0010  0.0049  0.0004  0.0049  0.0049 -0.0001 -0.0001
   7.  C 2 (s)     -0.0024 -0.3787 -0.0025 -0.3783 -0.3783  0.0014  0.0014
   8.  C 2 (px)     0.0002  0.0000  0.0000 -0.2773  0.2773  0.0007 -0.0007
   9.  C 2 (py)     0.0083 -0.2807  0.0053 -0.0098 -0.0098  0.0067  0.0067
  10.  C 2 (pz)    -0.0052 -0.1973  0.0024  0.2005  0.2005 -0.0005 -0.0005
  11.  C 3 (s)     -0.0010  0.0004  0.0049 -0.0001 -0.0001  0.0049  0.0049
  12.  C 3 (s)     -0.0024 -0.0025 -0.3787  0.0014  0.0014 -0.3783 -0.3783
  13.  C 3 (px)     0.0002  0.0000  0.0000 -0.0007  0.0007  0.2773 -0.2773
  14.  C 3 (py)    -0.0083 -0.0053  0.2807 -0.0067 -0.0067  0.0098  0.0098
  15.  C 3 (pz)    -0.0052  0.0024 -0.1973 -0.0005 -0.0005  0.2005  0.2005
  16.  H 4 (s)     -0.0197 -0.0112 -0.0112 -0.0050 -0.0100 -0.0100 -0.0050
  17.  H 5 (s)      1.2732 -0.0112 -0.0112 -0.0100 -0.0050 -0.0050 -0.0100
  18.  H 6 (s)     -0.0112  1.2753 -0.0012 -0.0197 -0.0197 -0.0007 -0.0007
  19.  H 7 (s)     -0.0112 -0.0012  1.2753 -0.0007 -0.0007 -0.0197 -0.0197
  20.  H 8 (s)     -0.0100 -0.0197 -0.0007  1.2751 -0.0197 -0.0014 -0.0185
  21.  H 9 (s)     -0.0050 -0.0197 -0.0007 -0.0197  1.2751 -0.0185 -0.0014
  22.  H10 (s)     -0.0050 -0.0007 -0.0197 -0.0014 -0.0185  1.2751 -0.0197
  23.  H11 (s)     -0.0100 -0.0007 -0.0197 -0.0185 -0.0014 -0.0197  1.2751


 NAO density matrix:

           NAO         1       2       3       4       5       6       7       8
      ------------ ------- ------- ------- ------- ------- ------- ------- -------
   1.  C 1( 1s )    2.0000  0.0001  0.0000  0.0000  0.0013  0.0000  0.0000  0.0000
   2.  C 1( 2s )    0.0001  1.0758  0.0000  0.0000  0.0099  0.0002  0.2379  0.0000
   3.  C 1( 2px)    0.0000  0.0000  1.0216  0.0000  0.0000  0.0000  0.0000  0.1105
   4.  C 1( 2py)    0.0000  0.0000  0.0000  0.9596  0.0000  0.0009  0.3622  0.0000
   5.  C 1( 2pz)    0.0013  0.0099  0.0000  0.0000  0.9876 -0.0006 -0.2580  0.0000
   6.  C 2( 1s )    0.0000  0.0002  0.0000  0.0009 -0.0006  2.0000  0.0001  0.0000
   7.  C 2( 2s )    0.0000  0.2379  0.0000  0.3622 -0.2580  0.0001  1.0812  0.0000
   8.  C 2( 2px)    0.0000  0.0000  0.1105  0.0000  0.0000  0.0000  0.0000  1.0307
   9.  C 2( 2py)   -0.0006 -0.3692  0.0000 -0.4631  0.3966  0.0010  0.0020  0.0000
  10.  C 2( 2pz)    0.0004  0.2454  0.0000  0.3909 -0.1593 -0.0008 -0.0005  0.0000
[...]
      Occupancy is 0.006 for antibonding component
            0.0000 0.0000 0.0000 0.0000 0.7104 0.0000 0.0000 0.0000
            0.0000-0.7038
           NBO accepted:    7. Label:BD*( 1)   1   3
        2 eigenvector(s) stashed in permanent list

 Search of NHO DM block for the following atom(s):   1   4
      Select eigenvectors with eigenvalue > 1.900
       1.990 0.008 0.000 0.000 0.000 0.000
      Eigenvector ( 1) has occupancy 1.99045
            0.0000 0.7184 0.0000 0.0000 0.0000 0.6956
      Occupancy is 1.990 after deleting minor hybrid components
            0.0000 0.7184 0.0000 0.0000 0.0000 0.6956
           NBO accepted:    8. Label:BD ( 1)   1   4
      Occupancy is 0.008 for antibonding component
            0.0000-0.6956 0.0000 0.0000 0.0000 0.7184
           NBO accepted:    9. Label:BD*( 1)   1   4
        2 eigenvector(s) stashed in permanent list

 Search of NHO DM block for the following atom(s):   1   5
      Select eigenvectors with eigenvalue > 1.900
       1.990 0.008 0.000 0.000 0.000 0.000
      Eigenvector ( 1) has occupancy 1.99045
            0.0000 0.0000 0.7184 0.0000 0.0000 0.6956
      Occupancy is 1.990 after deleting minor hybrid components
            0.0000 0.0000 0.7184 0.0000 0.0000 0.6956
           NBO accepted:   10. Label:BD ( 1)   1   5
      Occupancy is 0.008 for antibonding component
            0.0000 0.0000-0.6956 0.0000 0.0000 0.7184
           NBO accepted:   11. Label:BD*( 1)   1   5
        2 eigenvector(s) stashed in permanent list

 Search of NHO DM block for the following atom(s):   2   6
      Select eigenvectors with eigenvalue > 1.900
       1.995 0.004 0.000 0.000 0.000 0.000
      Eigenvector ( 1) has occupancy 1.99507
            0.0000 0.0000 0.0000 0.7213 0.0000 0.6926
      Occupancy is 1.995 after deleting minor hybrid components
            0.0000 0.0000 0.0000 0.7213 0.0000 0.6926
           NBO accepted:   12. Label:BD ( 1)   2   6
      Occupancy is 0.004 for antibonding component
            0.0000 0.0000 0.0000-0.6926 0.0000 0.7213
           NBO accepted:   13. Label:BD*( 1)   2   6
        2 eigenvector(s) stashed in permanent list

 Search of NHO DM block for the following atom(s):   2   8
      Select eigenvectors with eigenvalue > 1.900
       1.995 0.005 0.000 0.000 0.000 0.000
      Eigenvector ( 1) has occupancy 1.99546
            0.0000 0.7210 0.0000 0.0000 0.0000 0.6930
      Occupancy is 1.995 after deleting minor hybrid components
            0.0000 0.7210 0.0000 0.0000 0.0000 0.6930
           NBO accepted:   14. Label:BD ( 1)   2   8
      Occupancy is 0.005 for antibonding component
            0.0000-0.6930 0.0000 0.0000 0.0000 0.7210
           NBO accepted:   15. Label:BD*( 1)   2   8
        2 eigenvector(s) stashed in permanent list

 Search of NHO DM block for the following atom(s):   2   9
      Select eigenvectors with eigenvalue > 1.900
       1.995 0.005 0.000 0.000 0.000 0.000
      Eigenvector ( 1) has occupancy 1.99546
            0.0000 0.0000 0.7210 0.0000 0.0000 0.6930
      Occupancy is 1.995 after deleting minor hybrid components
            0.0000 0.0000 0.7210 0.0000 0.0000 0.6930
           NBO accepted:   16. Label:BD ( 1)   2   9
      Occupancy is 0.005 for antibonding component
            0.0000 0.0000-0.6930 0.0000 0.0000 0.7210
           NBO accepted:   17. Label:BD*( 1)   2   9
        2 eigenvector(s) stashed in permanent list

 Search of NHO DM block for the following atom(s):   3   7
      Select eigenvectors with eigenvalue > 1.900
       1.995 0.004 0.000 0.000 0.000 0.000
      Eigenvector ( 1) has occupancy 1.99507
            0.0000 0.0000 0.0000 0.7213 0.0000 0.6926
      Occupancy is 1.995 after deleting minor hybrid components
            0.0000 0.0000 0.0000 0.7213 0.0000 0.6926
           NBO accepted:   18. Label:BD ( 1)   3   7
      Occupancy is 0.004 for antibonding component
            0.0000 0.0000 0.0000-0.6926 0.0000 0.7213
           NBO accepted:   19. Label:BD*( 1)   3   7
        2 eigenvector(s) stashed in permanent list

 Search of NHO DM block for the following atom(s):   3  10
      Select eigenvectors with eigenvalue > 1.900
       1.995 0.005 0.000 0.000 0.000 0.000
      Eigenvector ( 1) has occupancy 1.99546
            0.0000 0.7210 0.0000 0.0000 0.0000 0.6930
      Occupancy is 1.995 after deleting minor hybrid components
            0.0000 0.7210 0.0000 0.0000 0.0000 0.6930
           NBO accepted:   20. Label:BD ( 1)   3  10
      Occupancy is 0.005 for antibonding component
            0.0000-0.6930 0.0000 0.0000 0.0000 0.7210
           NBO accepted:   21. Label:BD*( 1)   3  10
        2 eigenvector(s) stashed in permanent list

 Search of NHO DM block for the following atom(s):   3  11
      Select eigenvectors with eigenvalue > 1.900
       1.995 0.005 0.000 0.000 0.000 0.000
      Eigenvector ( 1) has occupancy 1.99546
            0.0000 0.0000 0.7210 0.0000 0.0000 0.6930
      Occupancy is 1.995 after deleting minor hybrid components
            0.0000 0.0000 0.7210 0.0000 0.0000 0.6930
           NBO accepted:   22. Label:BD ( 1)   3  11
      Occupancy is 0.005 for antibonding component
            0.0000 0.0000-0.6930 0.0000 0.0000 0.7210
           NBO accepted:   23. Label:BD*( 1)   3  11
        2 eigenvector(s) stashed in permanent list

  2-center NBOs projected from the NHO density matrix
       0.000 electrons remain in the fully projected matrix

                            Occupancies       Lewis Structure    Low   High
         Max    Occ     -------------------  -----------------   occ   occ
  Cycle  Ctr   Thresh    Lewis   non-Lewis     CR  BD  nC  LP    (L)   (NL)
 ============================================================================
    1     2     1.90    25.94145   0.05855      3  10   0   0     0      0
 ----------------------------------------------------------------------------

 Structure accepted: No low occupancy Lewis orbitals

 -------------------------------------------------------
   Core                      5.99999 (100.000% of   6)
   Valence Lewis            19.94146 ( 99.707% of  20)
  ==================      =============================
   Total Lewis              25.94145 ( 99.775% of  26)
  -----------------------------------------------------
   Valence non-Lewis         0.05855 (  0.225% of  26)
   Rydberg non-Lewis         0.00000 (  0.000% of  26)
  ==================      =============================
   Total non-Lewis           0.05855 (  0.225% of  26)
 -------------------------------------------------------


     (Occupancy)   Bond orbital / Coefficients / Hybrids
 ------------------ Lewis ------------------------------------------------------
   1. (2.00000) CR ( 1) C  1            s(100.00%)
                                         1.0000  0.0000  0.0000  0.0000  0.0000
   2. (2.00000) CR ( 1) C  2            s(100.00%)
                                         1.0000  0.0000  0.0000  0.0000  0.0000
   3. (2.00000) CR ( 1) C  3            s(100.00%)
                                         1.0000  0.0000  0.0000  0.0000  0.0000
   4. (1.99428) BD ( 1) C  1- C  2
               ( 49.54%)   0.7038* C  1 s( 25.42%)p 2.93( 74.58%)
                                         0.0000  0.5042  0.0000  0.7071 -0.4958
               ( 50.46%)   0.7104* C  2 s( 25.79%)p 2.88( 74.21%)
                                         0.0000  0.5079  0.0000 -0.7144  0.4814
   5. (1.99428) BD ( 1) C  1- C  3
               ( 49.54%)   0.7038* C  1 s( 25.42%)p 2.93( 74.58%)
                                         0.0000  0.5042  0.0000 -0.7071 -0.4958
               ( 50.46%)   0.7104* C  3 s( 25.79%)p 2.88( 74.21%)
                                         0.0000  0.5079  0.0000  0.7144  0.4814
   6. (1.99045) BD ( 1) C  1- H  4
               ( 51.61%)   0.7184* C  1 s( 24.58%)p 3.07( 75.42%)
                                         0.0000  0.4958 -0.7071  0.0000  0.5042
               ( 48.39%)   0.6956* H  4 s(100.00%)
                                         1.0000
   7. (1.99045) BD ( 1) C  1- H  5
               ( 51.61%)   0.7184* C  1 s( 24.58%)p 3.07( 75.42%)
                                         0.0000  0.4958  0.7071  0.0000  0.5042
               ( 48.39%)   0.6956* H  5 s(100.00%)
                                         1.0000
   8. (1.99507) BD ( 1) C  2- H  6
               ( 52.02%)   0.7213* C  2 s( 24.92%)p 3.01( 75.08%)
                                         0.0000  0.4992  0.0000  0.6995  0.5114
               ( 47.98%)   0.6926* H  6 s(100.00%)
                                         1.0000
   9. (1.99546) BD ( 1) C  2- H  8
               ( 51.98%)   0.7210* C  2 s( 24.65%)p 3.06( 75.35%)
                                         0.0000  0.4964  0.7071  0.0137 -0.5033
               ( 48.02%)   0.6930* H  8 s(100.00%)
                                         1.0000
  10. (1.99546) BD ( 1) C  2- H  9
               ( 51.98%)   0.7210* C  2 s( 24.65%)p 3.06( 75.35%)
                                         0.0000  0.4964 -0.7071  0.0137 -0.5033
               ( 48.02%)   0.6930* H  9 s(100.00%)
                                         1.0000
  11. (1.99507) BD ( 1) C  3- H  7
               ( 52.02%)   0.7213* C  3 s( 24.92%)p 3.01( 75.08%)
                                         0.0000  0.4992  0.0000 -0.6995  0.5114
               ( 47.98%)   0.6926* H  7 s(100.00%)
                                         1.0000
  12. (1.99546) BD ( 1) C  3- H 10
               ( 51.98%)   0.7210* C  3 s( 24.65%)p 3.06( 75.35%)
                                         0.0000  0.4964 -0.7071 -0.0137 -0.5033
               ( 48.02%)   0.6930* H 10 s(100.00%)
                                         1.0000
  13. (1.99546) BD ( 1) C  3- H 11
               ( 51.98%)   0.7210* C  3 s( 24.65%)p 3.06( 75.35%)
                                         0.0000  0.4964  0.7071 -0.0137 -0.5033
               ( 48.02%)   0.6930* H 11 s(100.00%)
                                         1.0000
 ---------------- non-Lewis ----------------------------------------------------
  14. (0.00628) BD*( 1) C  1- C  2
               ( 50.46%)   0.7104* C  1 s( 25.42%)p 2.93( 74.58%)
                                         0.0000  0.5042  0.0000  0.7071 -0.4958
               ( 49.54%)  -0.7038* C  2 s( 25.79%)p 2.88( 74.21%)
                                         0.0000  0.5079  0.0000 -0.7144  0.4814
  15. (0.00628) BD*( 1) C  1- C  3
               ( 50.46%)   0.7104* C  1 s( 25.42%)p 2.93( 74.58%)
                                         0.0000  0.5042  0.0000 -0.7071 -0.4958
               ( 49.54%)  -0.7038* C  3 s( 25.79%)p 2.88( 74.21%)
                                         0.0000  0.5079  0.0000  0.7144  0.4814
  16. (0.00813) BD*( 1) C  1- H  4
               ( 48.39%)   0.6956* C  1 s( 24.58%)p 3.07( 75.42%)
                                         0.0000 -0.4958  0.7071  0.0000 -0.5042
               ( 51.61%)  -0.7184* H  4 s(100.00%)
                                        -1.0000
  17. (0.00813) BD*( 1) C  1- H  5
               ( 48.39%)   0.6956* C  1 s( 24.58%)p 3.07( 75.42%)
                                         0.0000 -0.4958 -0.7071  0.0000 -0.5042
               ( 51.61%)  -0.7184* H  5 s(100.00%)
                                        -1.0000
  18. (0.00447) BD*( 1) C  2- H  6
               ( 47.98%)   0.6926* C  2 s( 24.92%)p 3.01( 75.08%)
                                         0.0000 -0.4992  0.0000 -0.6995 -0.5114
               ( 52.02%)  -0.7213* H  6 s(100.00%)
                                        -1.0000
  19. (0.00520) BD*( 1) C  2- H  8
               ( 48.02%)   0.6930* C  2 s( 24.65%)p 3.06( 75.35%)
                                         0.0000 -0.4964 -0.7071 -0.0137  0.5033
               ( 51.98%)  -0.7210* H  8 s(100.00%)
                                        -1.0000
  20. (0.00520) BD*( 1) C  2- H  9
               ( 48.02%)   0.6930* C  2 s( 24.65%)p 3.06( 75.35%)
                                         0.0000 -0.4964  0.7071 -0.0137  0.5033
               ( 51.98%)  -0.7210* H  9 s(100.00%)
                                        -1.0000
  21. (0.00447) BD*( 1) C  3- H  7
               ( 47.98%)   0.6926* C  3 s( 24.92%)p 3.01( 75.08%)
                                         0.0000 -0.4992  0.0000  0.6995 -0.5114
               ( 52.02%)  -0.7213* H  7 s(100.00%)
                                        -1.0000
  22. (0.00520) BD*( 1) C  3- H 10
               ( 48.02%)   0.6930* C  3 s( 24.65%)p 3.06( 75.35%)
                                         0.0000 -0.4964  0.7071  0.0137  0.5033
               ( 51.98%)  -0.7210* H 10 s(100.00%)
                                        -1.0000
  23. (0.00520) BD*( 1) C  3- H 11
               ( 48.02%)   0.6930* C  3 s( 24.65%)p 3.06( 75.35%)
                                         0.0000 -0.4964 -0.7071  0.0137  0.5033
               ( 51.98%)  -0.7210* H 11 s(100.00%)
                                        -1.0000


 NHO DIRECTIONALITY AND BOND BENDING (deviation from line of nuclear centers at
                                      the position of maximum hybrid amplitude)

         [Thresholds for printing:  angular deviation  >  1.0 degree]
                                    p- or d-character  > 25.0%
                                    orbital occupancy  >  0.10e

                        Line of Centers        Hybrid 1             Hybrid 2
                        ---------------  -------------------  ------------------
           NBO            Theta   Phi    Theta   Phi    Dev   Theta   Phi    Dev
 ===============================================================================
   4. BD ( 1) C  1- C  2  123.8   90.0   124.9   90.0   1.1     --     --    --
   5. BD ( 1) C  1- C  3  123.8  270.0   124.9  270.0   1.1     --     --    --
   6. BD ( 1) C  1- H  4   53.2  180.0    54.3  180.0   1.2     --     --    --
   7. BD ( 1) C  1- H  5   53.2    0.0    54.3    0.0   1.2     --     --    --
   8. BD ( 1) C  2- H  6   55.3   90.0    54.0   90.0   1.3     --     --    --
   9. BD ( 1) C  2- H  8  126.1    2.4   125.5    1.3   1.1     --     --    --
  10. BD ( 1) C  2- H  9  126.1  177.6   125.5  178.7   1.1     --     --    --
  11. BD ( 1) C  3- H  7   55.3  270.0    54.0  270.0   1.3     --     --    --
  12. BD ( 1) C  3- H 10  126.1  182.4   125.5  181.3   1.1     --     --    --
  13. BD ( 1) C  3- H 11  126.1  357.6   125.5  358.7   1.1     --     --    --


 SECOND ORDER PERTURBATION THEORY ANALYSIS OF FOCK MATRIX IN NBO BASIS

     Threshold for printing:   0.50 kcal/mol
                                                          E(2) E(NL)-E(L) F(L,NL)
      Donor (L) NBO              Acceptor (NL) NBO      kcal/mol   a.u.    a.u.
 ===============================================================================

 within unit  1
    4. BD ( 1) C  1- C  2      21. BD*( 1) C  3- H  7      2.21    1.36   0.049
    5. BD ( 1) C  1- C  3      18. BD*( 1) C  2- H  6      2.21    1.36   0.049
    6. BD ( 1) C  1- H  4      19. BD*( 1) C  2- H  8      2.62    1.33   0.053
    6. BD ( 1) C  1- H  4      23. BD*( 1) C  3- H 11      2.62    1.33   0.053
    7. BD ( 1) C  1- H  5      20. BD*( 1) C  2- H  9      2.62    1.33   0.053
    7. BD ( 1) C  1- H  5      22. BD*( 1) C  3- H 10      2.62    1.33   0.053
    8. BD ( 1) C  2- H  6      15. BD*( 1) C  1- C  3      2.41    1.32   0.050
    9. BD ( 1) C  2- H  8      16. BD*( 1) C  1- H  4      2.26    1.34   0.049
   10. BD ( 1) C  2- H  9      17. BD*( 1) C  1- H  5      2.26    1.34   0.049
   11. BD ( 1) C  3- H  7      14. BD*( 1) C  1- C  2      2.41    1.32   0.050
   12. BD ( 1) C  3- H 10      17. BD*( 1) C  1- H  5      2.26    1.34   0.049
   13. BD ( 1) C  3- H 11      16. BD*( 1) C  1- H  4      2.26    1.34   0.049


 NATURAL BOND ORBITALS (Summary):

                                                     Principal Delocalizations
           NBO                 Occupancy    Energy   (geminal,vicinal,remote)
 ===============================================================================
 Molecular unit  1  (C3H8)
 ------ Lewis --------------------------------------
    1. CR ( 1) C  1             2.00000   -11.02985
    2. CR ( 1) C  2             2.00000   -11.01927
    3. CR ( 1) C  3             2.00000   -11.01927
    4. BD ( 1) C  1- C  2       1.99428    -0.63797  21(v)
    5. BD ( 1) C  1- C  3       1.99428    -0.63797  18(v)
    6. BD ( 1) C  1- H  4       1.99045    -0.61086  19(v),23(v)
    7. BD ( 1) C  1- H  5       1.99045    -0.61086  20(v),22(v)
    8. BD ( 1) C  2- H  6       1.99507    -0.61367  15(v)
    9. BD ( 1) C  2- H  8       1.99546    -0.61294  16(v)
   10. BD ( 1) C  2- H  9       1.99546    -0.61294  17(v)
   11. BD ( 1) C  3- H  7       1.99507    -0.61367  14(v)
   12. BD ( 1) C  3- H 10       1.99546    -0.61294  17(v)
   13. BD ( 1) C  3- H 11       1.99546    -0.61294  16(v)
 ------ non-Lewis ----------------------------------
   14. BD*( 1) C  1- C  2       0.00628     0.70798
   15. BD*( 1) C  1- C  3       0.00628     0.70798
   16. BD*( 1) C  1- H  4       0.00813     0.72464
   17. BD*( 1) C  1- H  5       0.00813     0.72464
   18. BD*( 1) C  2- H  6       0.00447     0.72517
   19. BD*( 1) C  2- H  8       0.00520     0.72394
   20. BD*( 1) C  2- H  9       0.00520     0.72394
   21. BD*( 1) C  3- H  7       0.00447     0.72517
   22. BD*( 1) C  3- H 10       0.00520     0.72394
   23. BD*( 1) C  3- H 11       0.00520     0.72394
          -------------------------------
                 Total Lewis   25.94145  ( 99.7748%)
           Valence non-Lewis    0.05855  (  0.2252%)
           Rydberg non-Lewis    0.00000  (  0.0000%)
          -------------------------------
               Total unit  1   26.00000  (100.0000%)
              Charge unit  1    0.00000

 $CHOOSE
   BOND S 1 2 S 1 3 S 1 4 S 1 5 S 2 6 S 2 8 S 2 9 S 3 7 S 3 10 S 3 11 END
 $END

 NBO analysis completed in 0.23 CPU seconds (0 wall seconds)
 Maximum scratch memory used by NBO was 226134 words (1.73 MB)
 Maximum scratch memory used by G16NBO was 9129 words (0.07 MB)

 Opening RunExU unformatted file "/cluster/work/users/beto93/mol81/Gau-27308.EUF"
 Read unf file /cluster/work/users/beto93/mol81/Gau-27308.EUF:
 Label Gaussian matrix elements                                         IVers= 2 NLab= 2 Version=ES64L-G16RevC.01
 Title mol81-NBO                                                       
 NAtoms=    11 NBasis=    23 NBsUse=    23 ICharg=     0 Multip=     1 NE=    26 Len12L=8 Len4L=8 IOpCl= 0 ICGU=111
 GAUSSIAN SCALARS                    NI= 1 NR= 1 NTot=       1 LenBuf=    2 NRI=1 N=    1000
 NPA CHARGES                         NI= 0 NR= 1 NTot=      11 LenBuf= 4000 NRI=1 N=      11
 Recovered energy= -116.885567499     dipole=      0.000000000000     -0.000000000000      0.008869515471
 Unable to Open any file for archive entry.
 1\1\GINC-C5-5\SP\RHF\STO-3G\C3H8\BETO93\18-Nov-2024\0\\#RHF/STO-3G int
 =nobasistransform Symmetry=None 5D 7F Pop=NBO7Read\\mol81-NBO\\0,1\C,0
 ,0.,0.,0.587716\C,0,0.,1.266857,-0.260186\C,0,0.,-1.266857,-0.260186\H
 ,0,-0.876898,0.,1.244713\H,0,0.876898,0.,1.244713\H,0,0.,2.16615,0.362
 066\H,0,0.,-2.16615,0.362066\H,0,0.883619,1.304234,-0.904405\H,0,-0.88
 3619,1.304234,-0.904405\H,0,-0.883619,-1.304234,-0.904405\H,0,0.883619
 ,-1.304234,-0.904405\\Version=ES64L-G16RevC.01\HF=-116.8855675\RMSD=4.
 394e-09\Dipole=0.,0.,0.0088695\Quadrupole=0.2008709,-0.2158145,0.01494
 36,0.,0.,0.\PG=Unknown\\@
 The archive entry for this job was punched.


 NOTHING WILL BE ATTEMPTED IF ALL POSSIBLE OBJECTIONS
 MUST FIRST BE OVERCOME.

                               -- THE GOLDEN PRINCIPLE,
                    PAUL DICKSON'S "THE OFFICIAL RULES"
 Job cpu time:       0 days  0 hours  0 minutes  7.8 seconds.
 Elapsed time:       0 days  0 hours  0 minutes  2.5 seconds.
 File lengths (MBytes):  RWF=     10 Int=      0 D2E=      0 Chk=      1 Scr=      1
 Normal termination of Gaussian 16 at Mon Nov 18 15:41:33 2024.
