 Entering Gaussian System, Link 0=g16
 Initial command:
 /cluster/software/Gaussian/g16_C.01/l1.exe "/cluster/work/users/beto93/mol27/Gau-1175803.inp" -scrdir="/cluster/work/users/beto93/mol27/"
 Entering Link 1 = /cluster/software/Gaussian/g16_C.01/l1.exe PID=   1175804.
  
 Copyright (c) 1988-2019, Gaussian, Inc.  All Rights Reserved.
  
 This is part of the Gaussian(R) 16 program.  It is based on
 the Gaussian(R) 09 system (copyright 2009, Gaussian, Inc.),
 the Gaussian(R) 03 system (copyright 2003, Gaussian, Inc.),
 the Gaussian(R) 98 system (copyright 1998, Gaussian, Inc.),
 the Gaussian(R) 94 system (copyright 1995, Gaussian, Inc.),
 the Gaussian 92(TM) system (copyright 1992, Gaussian, Inc.),
 the Gaussian 90(TM) system (copyright 1990, Gaussian, Inc.),
 the Gaussian 88(TM) system (copyright 1988, Gaussian, Inc.),
 the Gaussian 86(TM) system (copyright 1986, Carnegie Mellon
 University), and the Gaussian 82(TM) system (copyright 1983,
 Carnegie Mellon University). Gaussian is a federally registered
 trademark of Gaussian, Inc.
  
 This software contains proprietary and confidential information,
 including trade secrets, belonging to Gaussian, Inc.
  
 This software is provided under written license and may be
 used, copied, transmitted, or stored only in accord with that
 written license.
  
 The following legend is applicable only to US Government
 contracts under FAR:
  
                    RESTRICTED RIGHTS LEGEND
  
 Use, reproduction and disclosure by the US Government is
 subject to restrictions as set forth in subparagraphs (a)
 and (c) of the Commercial Computer Software - Restricted
 Rights clause in FAR 52.227-19.
  
 Gaussian, Inc.
 340 Quinnipiac St., Bldg. 40, Wallingford CT 06492
  
  
 ---------------------------------------------------------------
 Warning -- This program may not be used in any manner that
 competes with the business of Gaussian, Inc. or will provide
 assistance to any competitor of Gaussian, Inc.  The licensee
 of this program is prohibited from giving any competitor of
 Gaussian, Inc. access to this program.  By using this program,
 the user acknowledges that Gaussian, Inc. is engaged in the
 business of creating and licensing software in the field of
 computational chemistry and represents and warrants to the
 licensee that it is not a competitor of Gaussian, Inc. and that
 it will not use this program in any manner prohibited above.
 ---------------------------------------------------------------
  

 Cite this work as:
 Gaussian 16, Revision C.01,
 M. J. Frisch, G. W. Trucks, H. B. Schlegel, G. E. Scuseria, 
 M. A. Robb, J. R. Cheeseman, G. Scalmani, V. Barone, 
 G. A. Petersson, H. Nakatsuji, X. Li, M. Caricato, A. V. Marenich, 
 J. Bloino, B. G. Janesko, R. Gomperts, B. Mennucci, H. P. Hratchian, 
 J. V. Ortiz, A. F. Izmaylov, J. L. Sonnenberg, D. Williams-Young, 
 F. Ding, F. Lipparini, F. Egidi, J. Goings, B. Peng, A. Petrone, 
 T. Henderson, D. Ranasinghe, V. G. Zakrzewski, J. Gao, N. Rega, 
 G. Zheng, W. Liang, M. Hada, M. Ehara, K. Toyota, R. Fukuda, 
 J. Hasegawa, M. Ishida, T. Nakajima, Y. Honda, O. Kitao, H. Nakai, 
 T. Vreven, K. Throssell, J. A. Montgomery, Jr., J. E. Peralta, 
 F. Ogliaro, M. J. Bearpark, J. J. Heyd, E. N. Brothers, K. N. Kudin, 
 V. N. Staroverov, T. A. Keith, R. Kobayashi, J. Normand, 
 K. Raghavachari, A. P. Rendell, J. C. Burant, S. S. Iyengar, 
 J. Tomasi, M. Cossi, J. M. Millam, M. Klene, C. Adamo, R. Cammi, 
 J. W. Ochterski, R. L. Martin, K. Morokuma, O. Farkas, 
 J. B. Foresman, and D. J. Fox, Gaussian, Inc., Wallingford CT, 2019.
 
 ******************************************
 Gaussian 16:  ES64L-G16RevC.01  3-Jul-2019
                18-Nov-2024 
 ******************************************
 %LindaWorkers=c3-20-ib
 %NProcShared=4
 Will use up to    4 processors via shared memory.
 %mem=25GB
 %chk=mol27.chk
 SetLPE:    new flags="-opt 'Tsnet.Node.lindarsharg: ssh'  -nodelist 'c3-20-ib.saga' -env GAUSS_MDEF=3355443200 -env GAUSS_EXEDIR="/cluster/software/Gaussian/g16_C.01/bsd:/cluster/software/Gaussian/g16_C.01""
 Will use up to    1 processors via Linda.
 -----------------------------------------------------------------
 #RHF/6-31G* int=nobasistransform Symmetry=None 5D 7F Pop=NBO7Read
 -----------------------------------------------------------------
 1/38=1,163=2,172=1/1;
 2/12=2,15=3,17=6,18=5,40=1/2;
 3/5=1,6=6,7=1,8=11,11=1,25=1,30=1,60=-1,116=1/1,2,3;
 4//1;
 5/5=2,38=5/2;
 6/7=2,8=2,9=2,10=2,28=1,40=2,113=1,114=1,124=2103/1,12;
 99/5=1,9=1/99;
 ---------
 mol27-NBO
 ---------
 Symbolic Z-matrix:
 Charge =  0 Multiplicity = 1
 C                     0.        0.       -0.51175 
 N                     0.        0.        0.66446 
 H                     0.        0.       -1.58075 
 
                          Input orientation:                          
 ---------------------------------------------------------------------
 Center     Atomic      Atomic             Coordinates (Angstroms)
 Number     Number       Type             X           Y           Z
 ---------------------------------------------------------------------
      1          6           0        0.000000    0.000000   -0.511747
      2          7           0        0.000000    0.000000    0.664461
      3          1           0        0.000000    0.000000   -1.580746
 ---------------------------------------------------------------------
                    Distance matrix (angstroms):
                    1          2          3
     1  C    0.000000
     2  N    1.176208   0.000000
     3  H    1.068999   2.245207   0.000000
 Symmetry turned off by external request.
 Stoichiometry    CHN
 Rotational constants (GHZ):           0.0000000          43.0032882          43.0032882
 Standard basis: 6-31G(d) (5D, 7F)
    30 basis functions,    60 primitive gaussians,    32 cartesian basis functions
     7 alpha electrons        7 beta electrons
       nuclear repulsion energy        23.5158150586 Hartrees.
 NAtoms=    3 NActive=    3 NUniq=    3 SFac= 1.00D+00 NAtFMM=   60 NAOKFM=F Big=F
 Integral buffers will be    131072 words long.
 Raffenetti 1 integral format.
 Two-electron integral symmetry is turned off.
 One-electron integrals computed using PRISM.
 NBasis=    30 RedAO= T EigKep=  4.60D-03  NBF=    30
 NBsUse=    30 1.00D-06 EigRej= -1.00D+00 NBFU=    30
 ExpMin= 1.61D-01 ExpMax= 4.17D+03 ExpMxC= 6.27D+02 IAcc=3 IRadAn=         5 AccDes= 0.00D+00
 Harris functional with IExCor=  205 and IRadAn=       5 diagonalized for initial guess.
 HarFok:  IExCor=  205 AccDes= 0.00D+00 IRadAn=         5 IDoV= 1 UseB2=F ITyADJ=14
 ICtDFT=  3500011 ScaDFX=  1.000000  1.000000  1.000000  1.000000
 FoFCou: FMM=F IPFlag=           0 FMFlag=      100000 FMFlg1=           0
         NFxFlg=           0 DoJE=T BraDBF=F KetDBF=T FulRan=T
         wScrn=  0.000000 ICntrl=       500 IOpCl=  0 I1Cent=   200000004 NGrid=           0
         NMat0=    1 NMatS0=      1 NMatT0=    0 NMatD0=    1 NMtDS0=    0 NMtDT0=    0
 Symmetry not used in FoFCou.
 Keep R1 ints in memory in canonical form, NReq=937278.
 Requested convergence on RMS density matrix=1.00D-08 within 128 cycles.
 Requested convergence on MAX density matrix=1.00D-06.
 Requested convergence on             energy=1.00D-06.
 No special actions if energy rises.
 SCF Done:  E(RHF) =  -92.8695257069     A.U. after   10 cycles
            NFock= 10  Conv=0.30D-08     -V/T= 2.0040

 **********************************************************************

            Population analysis using the SCF Density.

 **********************************************************************

 Alpha  occ. eigenvalues --  -15.61206 -11.30058  -1.22174  -0.81072  -0.57531
 Alpha  occ. eigenvalues --   -0.48353  -0.48353
 Alpha virt. eigenvalues --    0.18737   0.18737   0.22617   0.42917   0.74161
 Alpha virt. eigenvalues --    0.74161   0.84782   0.90327   1.03478   1.03478
 Alpha virt. eigenvalues --    1.03766   1.39515   1.70883   1.78163   1.78163
 Alpha virt. eigenvalues --    1.80522   1.80522   2.25020   2.25020   2.87181
 Alpha virt. eigenvalues --    2.87181   2.94372   3.34201
          Condensed to atoms (all electrons):
               1          2          3
     1  C    4.707495   0.916267   0.347756
     2  N    0.916267   6.453607  -0.023168
     3  H    0.347756  -0.023168   0.357189
 Mulliken charges:
               1
     1  C    0.028482
     2  N   -0.346705
     3  H    0.318223
 Sum of Mulliken charges =  -0.00000
 Mulliken charges with hydrogens summed into heavy atoms:
               1
     1  C    0.346705
     2  N   -0.346705
 Electronic spatial extent (au):  <R**2>=             50.0641
 Charge=             -0.0000 electrons
 Dipole moment (field-independent basis, Debye):
    X=             -0.0000    Y=             -0.0000    Z=             -3.2522  Tot=              3.2522
 Quadrupole moment (field-independent basis, Debye-Ang):
   XX=            -11.7468   YY=            -11.7468   ZZ=             -9.4504
   XY=              0.0000   XZ=              0.0000   YZ=              0.0000
 Traceless Quadrupole moment (field-independent basis, Debye-Ang):
   XX=             -0.7655   YY=             -0.7655   ZZ=              1.5310
   XY=              0.0000   XZ=              0.0000   YZ=              0.0000
 Octapole moment (field-independent basis, Debye-Ang**2):
  XXX=              0.0000  YYY=             -0.0000  ZZZ=             -7.8273  XYY=              0.0000
  XXY=             -0.0000  XXZ=             -0.2863  XZZ=             -0.0000  YZZ=             -0.0000
  YYZ=             -0.2863  XYZ=              0.0000
 Hexadecapole moment (field-independent basis, Debye-Ang**3):
 XXXX=            -10.9746 YYYY=            -10.9746 ZZZZ=            -34.9212 XXXY=              0.0000
 XXXZ=              0.0000 YYYX=              0.0000 YYYZ=              0.0000 ZZZX=              0.0000
 ZZZY=             -0.0000 XXYY=             -3.6582 XXZZ=             -8.9108 YYZZ=             -8.9108
 XXYZ=              0.0000 YYXZ=              0.0000 ZZXY=              0.0000
 N-N= 2.351581505857D+01 E-N=-2.642927770849D+02  KE= 9.249704196868D+01
 Running external command "gaunbo7 R"
         input file       "/cluster/work/users/beto93/mol27/Gau-1175804.EIn"
         output file      "/cluster/work/users/beto93/mol27/Gau-1175804.EOu"
         message file     "/cluster/work/users/beto93/mol27/Gau-1175804.EMs"
         fchk file        "/cluster/work/users/beto93/mol27/Gau-1175804.EFC"
         mat. el file     "/cluster/work/users/beto93/mol27/Gau-1175804.EUF"

 Writing WrtUnf unformatted file "/cluster/work/users/beto93/mol27/Gau-1175804.EUF"
 Gaussian matrix elements                                         Version   2 NLab=11 Len12L=8 Len4L=8
 Write SHELL TO ATOM MAP                   from file      0 offset           0 length                  10 to matrix element file.
 Write SHELL TYPES                         from file      0 offset           0 length                  10 to matrix element file.
 Write NUMBER OF PRIMITIVES PER SHELL      from file      0 offset           0 length                  10 to matrix element file.
 Write PRIMITIVE EXPONENTS                 from file      0 offset           0 length                  26 to matrix element file.
 Write CONTRACTION COEFFICIENTS            from file      0 offset           0 length                  26 to matrix element file.
 Write P(S=P) CONTRACTION COEFFICIENTS     from file      0 offset           0 length                  26 to matrix element file.
 Write COORDINATES OF EACH SHELL           from file      0 offset           0 length                  30 to matrix element file.
 Write BONDS PER ATOM                      from file      0 offset           0 length                   3 to matrix element file.
 Write BONDED ATOMS                        from file      0 offset           0 length                   4 to matrix element file.
 Write BOND TYPES                          from file      0 offset           0 length                   4 to matrix element file.
 Write ONIOM CHARGE/MULT                   from file      0 offset           0 length                  32 to matrix element file.
 Write ONIOM ATOM LAYERS                   from file      0 offset           0 length                   3 to matrix element file.
 Write ONIOM ATOM MODIFIERS                from file      0 offset           0 length                   3 to matrix element file.
 Write ONIOM ATOM TYPES                    from file      0 offset           0 length                   3 to matrix element file.
 Write ONIOM LINK ATOMS                    from file      0 offset           0 length                   3 to matrix element file.
 Write ONIOM LINK CHARGES                  from file      0 offset           0 length                   3 to matrix element file.
 Write ONIOM LINK DISTANCES                from file      0 offset           0 length                  12 to matrix element file.
 Write SYMINF INTS                         from file      0 offset           0 length                  26 to matrix element file.
 Write ROTTR TO SO                         from file      0 offset           0 length                  12 to matrix element file.
 Write GAUSSIAN SCALARS                    from file    501 offset           0 to matrix element file.
 Write OPTIMIZATION FLAGS                  from file      0 offset           0 length                   3 to matrix element file.
 Write INTEGER ISO                         from file      0 offset           0 length                   3 to matrix element file.
 Write INTEGER SPIN                        from file      0 offset           0 length                   3 to matrix element file.
 Write REAL ZEFFECTIVE                     from file      0 offset           0 length                   3 to matrix element file.
 Write REAL QUADRUPOLEMOMENT               from file      0 offset           0 length                   3 to matrix element file.
 Write REAL GFACTOR                        from file      0 offset           0 length                   3 to matrix element file.
 Write REAL ZNUCLEAR                       from file      0 offset           0 length                   3 to matrix element file.
 Write MULLIKEN CHARGES                    from file      0 offset           0 length                   3 to matrix element file.
 Write NUCLEAR GRADIENT                    from file  10584 offset           0 length                   9 to matrix element file.
 Array NUCLEAR FORCE CONSTANTS              on  file  10585 does not exist.
 Write ELECTRIC DIPOLE MOMENT              from file      0 offset           0 length                   3 to matrix element file.
 Write NON-ADIABATIC COUPLING              from file  10810 offset           0 length                   9 to matrix element file.
 Write FINITE EM FIELD                     from file  10521 offset           0 length                  35 to matrix element file.
 Write OVERLAP                             from file  10514 offset           0 length                 465 to matrix element file.
 Write CORE HAMILTONIAN ALPHA              from file  10515 offset           0 length                 465 to matrix element file.
 Write CORE HAMILTONIAN BETA               from file  10515 offset         465 length                 465 to matrix element file.
 Write KINETIC ENERGY                      from file  10516 offset           0 length                 465 to matrix element file.
 Write ORTHOGONAL BASIS                    from file  10685 offset           0 length                 900 to matrix element file.
 Write DIPOLE INTEGRALS                    from file  10518 offset           0 length                1395 to matrix element file.
 Array DIP VEL INTEGRALS                    on  file  10572 does not exist.
 Array R X DEL INTEGRALS                    on  file  10572 does not exist.
 Write ALPHA ORBITAL ENERGIES              from file      0 offset           0 length                  30 to matrix element file.
 Write ALPHA MO COEFFICIENTS               from file  10524 offset           0 length                 900 to matrix element file.
 Write ALPHA DENSITY MATRIX                from file      0 offset           0 length                 465 to matrix element file.
 Write ALPHA FOCK MATRIX                   from file  10536 offset           0 length                 465 to matrix element file.
 Write ENERGY-WEIGHTED DENSITY             from file  10571 offset           0 length                 465 to matrix element file.
 Write ALPHA SCF DENSITY MATRIX            from file      0 offset           0 length                 465 to matrix element file.
 No 2e integrals to process.
 Perform NBO analysis...executing G16NBO...

 *********************************** NBO 7.0 ***********************************
             N A T U R A L   A T O M I C   O R B I T A L   A N D
          N A T U R A L   B O N D   O R B I T A L   A N A L Y S I S
 **************************** Espen Tangen (S101595) ***************************
  (c) Copyright 1996-2021 Board of Regents of the University of Wisconsin System
      on behalf of the Theoretical Chemistry Institute.  All rights reserved.

          Cite this program [NBO 7.0.10 (8-Feb-2021)] as:

          NBO 7.0.  E. D. Glendening, J. K. Badenhoop, A. E. Reed,
          J. E. Carpenter, J. A. Bohmann, C. M. Morales, P. Karafiloglou,
          C. R. Landis, and F. Weinhold, Theoretical Chemistry Institute,
          University of Wisconsin, Madison, WI (2018)

       /NPA    / : Natural Population Analysis
       /AOPNAO / : Print the AO to PNAO transformation
       /AONAO  / : Print the AO to NAO transformation
       /AOMO   / : Print the MOs in the AO basis
       /BOAO   / : Print the AO bond-order matrix
       /DMAO   / : Print the AO density matrix
       /DMPNAO / : Print the PNAO density matrix
       /DMNAO  / : Print the NAO density matrix
       /DMMO   / : Print the MO density matrix
       /SAO    / : Print the AO overlap matrix
       /SPNAO  / : Print the PNAO overlap matrix
       /DETAIL / : Write details of NBO search
       /ARCHIVE/ : Write the archive file to lfn47
       /AOINFO / : Write AO information to lfn31
       /FILE   / : Set to mol27.gen*

 Filename set to mol27.gen1

 Job title: mol27-NBO


 MOs in the AO basis:

           AO          1       2       3       4       5       6       7       8
      ------------ ------- ------- ------- ------- ------- ------- ------- -------
   1.  C 1 (s)      0.0002  0.9960 -0.1472  0.1283  0.0597  0.0000  0.0000  0.0000
   2.  C 1 (s)     -0.0008  0.0233  0.2780 -0.2702 -0.1320  0.0000  0.0000  0.0000
   3.  C 1 (px)     0.0000  0.0000  0.0000  0.0000  0.0000 -0.0096  0.3897 -0.1048
   4.  C 1 (py)     0.0000  0.0000  0.0000  0.0000  0.0000  0.3897  0.0096  0.3393
   5.  C 1 (pz)    -0.0014  0.0001  0.2004  0.3347 -0.2673  0.0000  0.0000  0.0000
   6.  C 1 (s)      0.0087 -0.0057  0.1051 -0.2589 -0.0367  0.0000  0.0000  0.0000
   7.  C 1 (px)     0.0000  0.0000  0.0000  0.0000  0.0000 -0.0061  0.2490 -0.2292
   8.  C 1 (py)     0.0000  0.0000  0.0000  0.0000  0.0000  0.2490  0.0061  0.7420
   9.  C 1 (pz)     0.0095  0.0051 -0.0592  0.1509 -0.0118  0.0000  0.0000  0.0000
  10.  C 1 (d5)    -0.0011  0.0018  0.0286 -0.0307  0.0035  0.0000  0.0000  0.0000
  11.  C 1 (d2)     0.0000  0.0000  0.0000  0.0000  0.0000 -0.0008  0.0306  0.0124
  12.  C 1 (d3)     0.0000  0.0000  0.0000  0.0000  0.0000  0.0306  0.0008 -0.0402
  13.  C 1 (d4)     0.0000  0.0000  0.0000  0.0000  0.0000  0.0000  0.0000  0.0000
  14.  C 1 (d1)     0.0000  0.0000  0.0000  0.0000  0.0000  0.0000  0.0000  0.0000
  15.  N 2 (s)      0.9962 -0.0008 -0.1799 -0.0721 -0.1048  0.0000  0.0000  0.0000
  16.  N 2 (s)      0.0235 -0.0002  0.3670  0.1674  0.2387  0.0000  0.0000  0.0000
  17.  N 2 (px)     0.0000  0.0000  0.0000  0.0000  0.0000 -0.0108  0.4384  0.1182
  18.  N 2 (py)     0.0000  0.0000  0.0000  0.0000  0.0000  0.4384  0.0108 -0.3827
  19.  N 2 (pz)    -0.0030  0.0004 -0.1809  0.0122  0.5063  0.0000  0.0000  0.0000
  20.  N 2 (s)     -0.0180 -0.0039  0.3649  0.1236  0.4056  0.0000  0.0000  0.0000
  21.  N 2 (px)     0.0000  0.0000  0.0000  0.0000  0.0000 -0.0069  0.2826  0.2008
  22.  N 2 (py)     0.0000  0.0000  0.0000  0.0000  0.0000  0.2826  0.0069 -0.6499
  23.  N 2 (pz)     0.0060  0.0020 -0.0665  0.0309  0.2843  0.0000  0.0000  0.0000
  24.  N 2 (d5)     0.0009 -0.0001  0.0206  0.0078 -0.0295  0.0000  0.0000  0.0000
  25.  N 2 (d2)     0.0000  0.0000  0.0000  0.0000  0.0000  0.0010 -0.0424  0.0010
  26.  N 2 (d3)     0.0000  0.0000  0.0000  0.0000  0.0000 -0.0424 -0.0010 -0.0032
  27.  N 2 (d4)     0.0000  0.0000  0.0000  0.0000  0.0000  0.0000  0.0000  0.0000
  28.  N 2 (d1)     0.0000  0.0000  0.0000  0.0000  0.0000  0.0000  0.0000  0.0000
  29.  H 3 (s)      0.0007 -0.0009  0.0328 -0.2945  0.0908  0.0000  0.0000  0.0000
  30.  H 3 (s)      0.0034  0.0048 -0.0323 -0.1184  0.1030  0.0000  0.0000  0.0000

           AO          9      10      11      12      13      14      15      16
      ------------ ------- ------- ------- ------- ------- ------- ------- -------
   1.  C 1 (s)      0.0000  0.1117  0.0244  0.0000  0.0000  0.0134  0.0407  0.0000
   2.  C 1 (s)      0.0000 -0.0952  0.2764  0.0000  0.0000  0.9010  0.0492  0.0000
   3.  C 1 (px)     0.3393  0.0000  0.0000 -0.0758 -1.0247  0.0000  0.0000 -0.1381
   4.  C 1 (py)     0.1048  0.0000  0.0000 -1.0247  0.0758  0.0000  0.0000  0.2697
   5.  C 1 (pz)     0.0000  0.2392 -0.1023  0.0000  0.0000  0.2627 -0.7564  0.0000
   6.  C 1 (s)      0.0000 -1.5840 -2.8761  0.0000  0.0000  0.9297 -0.3371  0.0000
   7.  C 1 (px)     0.7420  0.0000  0.0000  0.0782  1.0573  0.0000  0.0000  0.3164
   8.  C 1 (py)     0.2292  0.0000  0.0000  1.0573 -0.0782  0.0000  0.0000 -0.6183
   9.  C 1 (pz)     0.0000  1.0968 -3.7088  0.0000  0.0000  1.4169  2.9697  0.0000
  10.  C 1 (d5)     0.0000  0.0160  0.0098  0.0000  0.0000  0.1162  0.1417  0.0000
  11.  C 1 (d2)    -0.0402  0.0000  0.0000 -0.0021 -0.0278  0.0000  0.0000  0.0451
  12.  C 1 (d3)    -0.0124  0.0000  0.0000 -0.0278  0.0021  0.0000  0.0000 -0.0882
  13.  C 1 (d4)     0.0000  0.0000  0.0000  0.0000  0.0000  0.0000  0.0000  0.0000
  14.  C 1 (d1)     0.0000  0.0000  0.0000  0.0000  0.0000  0.0000  0.0000  0.0000
  15.  N 2 (s)      0.0000 -0.0269 -0.1167  0.0000  0.0000  0.0803  0.0005  0.0000
  16.  N 2 (s)      0.0000  0.1277  0.0929  0.0000  0.0000 -0.1741 -0.1911  0.0000
  17.  N 2 (px)    -0.3827  0.0000  0.0000 -0.0110 -0.1491  0.0000  0.0000  0.4487
  18.  N 2 (py)    -0.1182  0.0000  0.0000 -0.1491  0.0110  0.0000  0.0000 -0.8767
  19.  N 2 (pz)     0.0000 -0.1503 -0.0901  0.0000  0.0000 -0.5205 -0.1509  0.0000
  20.  N 2 (s)      0.0000 -0.3440  4.1937  0.0000  0.0000 -1.8671 -1.4997  0.0000
  21.  N 2 (px)    -0.6499  0.0000  0.0000  0.0042  0.0568  0.0000  0.0000 -0.5901
  22.  N 2 (py)    -0.2008  0.0000  0.0000  0.0568 -0.0042  0.0000  0.0000  1.1530
  23.  N 2 (pz)     0.0000 -0.0364 -1.8297  0.0000  0.0000  1.9867  0.0914  0.0000
  24.  N 2 (d5)     0.0000  0.0054  0.0658  0.0000  0.0000 -0.0031 -0.1446  0.0000
  25.  N 2 (d2)    -0.0032  0.0000  0.0000  0.0071  0.0954  0.0000  0.0000 -0.0050
  26.  N 2 (d3)    -0.0010  0.0000  0.0000  0.0954 -0.0071  0.0000  0.0000  0.0097
  27.  N 2 (d4)     0.0000  0.0000  0.0000  0.0000  0.0000  0.0000  0.0000  0.0000
  28.  N 2 (d1)     0.0000  0.0000  0.0000  0.0000  0.0000  0.0000  0.0000  0.0000
  29.  H 3 (s)      0.0000  0.0982  0.3010  0.0000  0.0000  0.3361  0.5908  0.0000
  30.  H 3 (s)      0.0000  2.2591 -2.0732  0.0000  0.0000  0.4130  1.4448  0.0000

           AO         17      18      19      20      21      22      23      24
      ------------ ------- ------- ------- ------- ------- ------- ------- -------
   1.  C 1 (s)      0.0000  0.0758 -0.0267 -0.0312  0.0000  0.0000  0.0000  0.0000
   2.  C 1 (s)      0.0000 -1.5669 -0.0411 -0.0923  0.0000  0.0000  0.0000  0.0000
   3.  C 1 (px)     0.2697  0.0000  0.0000  0.0000  0.0000  0.0000 -0.2328 -0.0328
   4.  C 1 (py)     0.1381  0.0000  0.0000  0.0000  0.0000  0.0000  0.0328 -0.2328
   5.  C 1 (pz)     0.0000  0.3088  0.7526  0.1037  0.0000  0.0000  0.0000  0.0000
   6.  C 1 (s)      0.0000  2.3467  0.6028 -4.2246  0.0000  0.0000  0.0000  0.0000
   7.  C 1 (px)    -0.6183  0.0000  0.0000  0.0000  0.0000  0.0000  0.1163  0.0164
   8.  C 1 (py)    -0.3164  0.0000  0.0000  0.0000  0.0000  0.0000 -0.0164  0.1163
   9.  C 1 (pz)     0.0000 -1.6273  0.8477 -4.9880  0.0000  0.0000  0.0000  0.0000
  10.  C 1 (d5)     0.0000  0.1506 -0.0923 -0.3433  0.0000  0.0000  0.0000  0.0000
  11.  C 1 (d2)    -0.0882  0.0000  0.0000  0.0000  0.0000  0.0000  0.6569  0.0925
  12.  C 1 (d3)    -0.0451  0.0000  0.0000  0.0000  0.0000  0.0000 -0.0925  0.6569
  13.  C 1 (d4)     0.0000  0.0000  0.0000  0.0000  0.1129  0.7158  0.0000  0.0000
  14.  C 1 (d1)     0.0000  0.0000  0.0000  0.0000  0.7158 -0.1129  0.0000  0.0000
  15.  N 2 (s)      0.0000 -0.0182  0.0464 -0.0215  0.0000  0.0000  0.0000  0.0000
  16.  N 2 (s)      0.0000 -0.0815 -0.2143 -1.9699  0.0000  0.0000  0.0000  0.0000
  17.  N 2 (px)    -0.8767  0.0000  0.0000  0.0000  0.0000  0.0000 -0.2569 -0.0362
  18.  N 2 (py)    -0.4487  0.0000  0.0000  0.0000  0.0000  0.0000  0.0362 -0.2569
  19.  N 2 (pz)     0.0000 -0.4183  0.6842 -0.0275  0.0000  0.0000  0.0000  0.0000
  20.  N 2 (s)      0.0000  0.6096 -0.9798  7.9010  0.0000  0.0000  0.0000  0.0000
  21.  N 2 (px)     1.1530  0.0000  0.0000  0.0000  0.0000  0.0000  0.0031  0.0004
  22.  N 2 (py)     0.5901  0.0000  0.0000  0.0000  0.0000  0.0000 -0.0004  0.0031
  23.  N 2 (pz)     0.0000  0.1834 -0.0085 -2.7697  0.0000  0.0000  0.0000  0.0000
  24.  N 2 (d5)     0.0000 -0.1054  0.1861 -0.0414  0.0000  0.0000  0.0000  0.0000
  25.  N 2 (d2)     0.0097  0.0000  0.0000  0.0000  0.0000  0.0000 -0.5329 -0.0750
  26.  N 2 (d3)     0.0050  0.0000  0.0000  0.0000  0.0000  0.0000  0.0750 -0.5329
  27.  N 2 (d4)     0.0000  0.0000  0.0000  0.0000  0.0929  0.5887  0.0000  0.0000
  28.  N 2 (d1)     0.0000  0.0000  0.0000  0.0000  0.5887 -0.0929  0.0000  0.0000
  29.  H 3 (s)      0.0000  0.3691  1.0756 -0.2074  0.0000  0.0000  0.0000  0.0000
  30.  H 3 (s)      0.0000 -2.0701 -0.2417 -1.8401  0.0000  0.0000  0.0000  0.0000

           AO         25      26      27      28      29      30
      ------------ ------- ------- ------- ------- ------- -------
   1.  C 1 (s)      0.0000  0.0000  0.0000  0.0000 -0.0900  0.0001
   2.  C 1 (s)      0.0000  0.0000  0.0000  0.0000 -0.7473 -1.1581
   3.  C 1 (px)     0.0000  0.0000  0.3140  0.0004  0.0000  0.0000
   4.  C 1 (py)     0.0000  0.0000 -0.0004  0.3140  0.0000  0.0000
   5.  C 1 (pz)     0.0000  0.0000  0.0000  0.0000 -0.5459 -1.1555
   6.  C 1 (s)      0.0000  0.0000  0.0000  0.0000 -1.6666 -1.6778
   7.  C 1 (px)     0.0000  0.0000  0.2950  0.0004  0.0000  0.0000
   8.  C 1 (py)     0.0000  0.0000 -0.0004  0.2950  0.0000  0.0000
   9.  C 1 (pz)     0.0000  0.0000  0.0000  0.0000 -1.7093 -1.0854
  10.  C 1 (d5)     0.0000  0.0000  0.0000  0.0000  0.6962 -1.2799
  11.  C 1 (d2)     0.0000  0.0000  0.9928  0.0014  0.0000  0.0000
  12.  C 1 (d3)     0.0000  0.0000 -0.0014  0.9928  0.0000  0.0000
  13.  C 1 (d4)    -0.6734 -0.2024  0.0000  0.0000  0.0000  0.0000
  14.  C 1 (d1)     0.2024 -0.6734  0.0000  0.0000  0.0000  0.0000
  15.  N 2 (s)      0.0000  0.0000  0.0000  0.0000 -0.0519 -0.0600
  16.  N 2 (s)      0.0000  0.0000  0.0000  0.0000 -1.1196  0.3271
  17.  N 2 (px)     0.0000  0.0000 -0.1489 -0.0002  0.0000  0.0000
  18.  N 2 (py)     0.0000  0.0000  0.0002 -0.1489  0.0000  0.0000
  19.  N 2 (pz)     0.0000  0.0000  0.0000  0.0000  0.2713 -0.9635
  20.  N 2 (s)      0.0000  0.0000  0.0000  0.0000  3.5344  2.5765
  21.  N 2 (px)     0.0000  0.0000 -0.4120 -0.0006  0.0000  0.0000
  22.  N 2 (py)     0.0000  0.0000  0.0006 -0.4120  0.0000  0.0000
  23.  N 2 (pz)     0.0000  0.0000  0.0000  0.0000 -1.8015 -1.2917
  24.  N 2 (d5)     0.0000  0.0000  0.0000  0.0000  0.8840  1.1958
  25.  N 2 (d2)     0.0000  0.0000  1.0675  0.0015  0.0000  0.0000
  26.  N 2 (d3)     0.0000  0.0000 -0.0015  1.0675  0.0000  0.0000
  27.  N 2 (d4)     0.7806  0.2346  0.0000  0.0000  0.0000  0.0000
  28.  N 2 (d1)    -0.2346  0.7806  0.0000  0.0000  0.0000  0.0000
  29.  H 3 (s)      0.0000  0.0000  0.0000  0.0000 -0.6256  0.4655
  30.  H 3 (s)      0.0000  0.0000  0.0000  0.0000 -0.4143 -0.4324


 AO overlap matrix:

           AO          1       2       3       4       5       6       7       8
      ------------ ------- ------- ------- ------- ------- ------- ------- -------
   1.  C 1 (s)      1.0000  0.2191  0.0000  0.0000  0.0000  0.1843  0.0000  0.0000
   2.  C 1 (s)      0.2191  1.0000  0.0000  0.0000  0.0000  0.8123  0.0000  0.0000
   3.  C 1 (px)     0.0000  0.0000  1.0000  0.0000  0.0000  0.0000  0.5698  0.0000
   4.  C 1 (py)     0.0000  0.0000  0.0000  1.0000  0.0000  0.0000  0.0000  0.5698
   5.  C 1 (pz)     0.0000  0.0000  0.0000  0.0000  1.0000  0.0000  0.0000  0.0000
   6.  C 1 (s)      0.1843  0.8123  0.0000  0.0000  0.0000  1.0000  0.0000  0.0000
   7.  C 1 (px)     0.0000  0.0000  0.5698  0.0000  0.0000  0.0000  1.0000  0.0000
   8.  C 1 (py)     0.0000  0.0000  0.0000  0.5698  0.0000  0.0000  0.0000  1.0000
   9.  C 1 (pz)     0.0000  0.0000  0.0000  0.0000  0.5698  0.0000  0.0000  0.0000
  10.  C 1 (d5)     0.0000  0.0000  0.0000  0.0000  0.0000  0.0000  0.0000  0.0000
  11.  C 1 (d2)     0.0000  0.0000  0.0000  0.0000  0.0000  0.0000  0.0000  0.0000
  12.  C 1 (d3)     0.0000  0.0000  0.0000  0.0000  0.0000  0.0000  0.0000  0.0000
  13.  C 1 (d4)     0.0000  0.0000  0.0000  0.0000  0.0000  0.0000  0.0000  0.0000
  14.  C 1 (d1)     0.0000  0.0000  0.0000  0.0000  0.0000  0.0000  0.0000  0.0000
  15.  N 2 (s)      0.0000  0.0310  0.0000  0.0000  0.0618  0.0649  0.0000  0.0000
  16.  N 2 (s)      0.0211  0.2362  0.0000  0.0000  0.3398  0.3579  0.0000  0.0000
  17.  N 2 (px)     0.0000  0.0000  0.1355  0.0000  0.0000  0.0000  0.2158  0.0000
  18.  N 2 (py)     0.0000  0.0000  0.0000  0.1355  0.0000  0.0000  0.0000  0.2158
  19.  N 2 (pz)    -0.0457 -0.2844  0.0000  0.0000 -0.3417 -0.1971  0.0000  0.0000
  20.  N 2 (s)      0.0793  0.4210  0.0000  0.0000  0.3114  0.6225  0.0000  0.0000
  21.  N 2 (px)     0.0000  0.0000  0.3043  0.0000  0.0000  0.0000  0.6185  0.0000
  22.  N 2 (py)     0.0000  0.0000  0.0000  0.3043  0.0000  0.0000  0.0000  0.6185
  23.  N 2 (pz)    -0.1551 -0.6053  0.0000  0.0000 -0.1683 -0.5647  0.0000  0.0000
  24.  N 2 (d5)     0.1112  0.2855  0.0000  0.0000  0.2558  0.0919  0.0000  0.0000
  25.  N 2 (d2)     0.0000  0.0000 -0.2769  0.0000  0.0000  0.0000 -0.1743  0.0000
  26.  N 2 (d3)     0.0000  0.0000  0.0000 -0.2769  0.0000  0.0000  0.0000 -0.1743
  27.  N 2 (d4)     0.0000  0.0000  0.0000  0.0000  0.0000  0.0000  0.0000  0.0000
  28.  N 2 (d1)     0.0000  0.0000  0.0000  0.0000  0.0000  0.0000  0.0000  0.0000
  29.  H 3 (s)      0.0359  0.2871  0.0000  0.0000 -0.3827  0.3854  0.0000  0.0000
  30.  H 3 (s)      0.0946  0.4856  0.0000  0.0000 -0.2661  0.7140  0.0000  0.0000

           AO          9      10      11      12      13      14      15      16
      ------------ ------- ------- ------- ------- ------- ------- ------- -------
   1.  C 1 (s)      0.0000  0.0000  0.0000  0.0000  0.0000  0.0000  0.0000  0.0211
   2.  C 1 (s)      0.0000  0.0000  0.0000  0.0000  0.0000  0.0000  0.0310  0.2362
   3.  C 1 (px)     0.0000  0.0000  0.0000  0.0000  0.0000  0.0000  0.0000  0.0000
   4.  C 1 (py)     0.0000  0.0000  0.0000  0.0000  0.0000  0.0000  0.0000  0.0000
   5.  C 1 (pz)     0.5698  0.0000  0.0000  0.0000  0.0000  0.0000  0.0618  0.3398
   6.  C 1 (s)      0.0000  0.0000  0.0000  0.0000  0.0000  0.0000  0.0649  0.3579
   7.  C 1 (px)     0.0000  0.0000  0.0000  0.0000  0.0000  0.0000  0.0000  0.0000
   8.  C 1 (py)     0.0000  0.0000  0.0000  0.0000  0.0000  0.0000  0.0000  0.0000
   9.  C 1 (pz)     1.0000  0.0000  0.0000  0.0000  0.0000  0.0000  0.1155  0.5290
  10.  C 1 (d5)     0.0000  1.0000  0.0000  0.0000  0.0000  0.0000  0.0876  0.3208
  11.  C 1 (d2)     0.0000  0.0000  1.0000  0.0000  0.0000  0.0000  0.0000  0.0000
  12.  C 1 (d3)     0.0000  0.0000  0.0000  1.0000  0.0000  0.0000  0.0000  0.0000
  13.  C 1 (d4)     0.0000  0.0000  0.0000  0.0000  1.0000  0.0000  0.0000  0.0000
  14.  C 1 (d1)     0.0000  0.0000  0.0000  0.0000  0.0000  1.0000  0.0000  0.0000
  15.  N 2 (s)      0.1155  0.0876  0.0000  0.0000  0.0000  0.0000  1.0000  0.2222
  16.  N 2 (s)      0.5290  0.3208  0.0000  0.0000  0.0000  0.0000  0.2222  1.0000
  17.  N 2 (px)     0.0000  0.0000  0.2389  0.0000  0.0000  0.0000  0.0000  0.0000
  18.  N 2 (py)     0.0000  0.0000  0.0000  0.2389  0.0000  0.0000  0.0000  0.0000
  19.  N 2 (pz)    -0.0842 -0.3006  0.0000  0.0000  0.0000  0.0000  0.0000  0.0000
  20.  N 2 (s)      0.6330  0.1285  0.0000  0.0000  0.0000  0.0000  0.1719  0.7755
  21.  N 2 (px)     0.0000  0.0000  0.2175  0.0000  0.0000  0.0000  0.0000  0.0000
  22.  N 2 (py)     0.0000  0.0000  0.0000  0.2175  0.0000  0.0000  0.0000  0.0000
  23.  N 2 (pz)     0.0443  0.0432  0.0000  0.0000  0.0000  0.0000  0.0000  0.0000
  24.  N 2 (d5)    -0.0627  0.1299  0.0000  0.0000  0.0000  0.0000  0.0000  0.0000
  25.  N 2 (d2)     0.0000  0.0000 -0.4092  0.0000  0.0000  0.0000  0.0000  0.0000
  26.  N 2 (d3)     0.0000  0.0000  0.0000 -0.4092  0.0000  0.0000  0.0000  0.0000
  27.  N 2 (d4)     0.0000  0.0000  0.0000  0.0000  0.1386  0.0000  0.0000  0.0000
  28.  N 2 (d1)     0.0000  0.0000  0.0000  0.0000  0.0000  0.1386  0.0000  0.0000
  29.  H 3 (s)     -0.5164  0.3477  0.0000  0.0000  0.0000  0.0000  0.0000  0.0017
  30.  H 3 (s)     -0.5791  0.0793  0.0000  0.0000  0.0000  0.0000  0.0084  0.0641

           AO         17      18      19      20      21      22      23      24
      ------------ ------- ------- ------- ------- ------- ------- ------- -------
   1.  C 1 (s)      0.0000  0.0000 -0.0457  0.0793  0.0000  0.0000 -0.1551  0.1112
   2.  C 1 (s)      0.0000  0.0000 -0.2844  0.4210  0.0000  0.0000 -0.6053  0.2855
   3.  C 1 (px)     0.1355  0.0000  0.0000  0.0000  0.3043  0.0000  0.0000  0.0000
   4.  C 1 (py)     0.0000  0.1355  0.0000  0.0000  0.0000  0.3043  0.0000  0.0000
   5.  C 1 (pz)     0.0000  0.0000 -0.3417  0.3114  0.0000  0.0000 -0.1683  0.2558
   6.  C 1 (s)      0.0000  0.0000 -0.1971  0.6225  0.0000  0.0000 -0.5647  0.0919
   7.  C 1 (px)     0.2158  0.0000  0.0000  0.0000  0.6185  0.0000  0.0000  0.0000
   8.  C 1 (py)     0.0000  0.2158  0.0000  0.0000  0.0000  0.6185  0.0000  0.0000
   9.  C 1 (pz)     0.0000  0.0000 -0.0842  0.6330  0.0000  0.0000  0.0443 -0.0627
  10.  C 1 (d5)     0.0000  0.0000 -0.3006  0.1285  0.0000  0.0000  0.0432  0.1299
  11.  C 1 (d2)     0.2389  0.0000  0.0000  0.0000  0.2175  0.0000  0.0000  0.0000
  12.  C 1 (d3)     0.0000  0.2389  0.0000  0.0000  0.0000  0.2175  0.0000  0.0000
  13.  C 1 (d4)     0.0000  0.0000  0.0000  0.0000  0.0000  0.0000  0.0000  0.0000
  14.  C 1 (d1)     0.0000  0.0000  0.0000  0.0000  0.0000  0.0000  0.0000  0.0000
  15.  N 2 (s)      0.0000  0.0000  0.0000  0.1719  0.0000  0.0000  0.0000  0.0000
  16.  N 2 (s)      0.0000  0.0000  0.0000  0.7755  0.0000  0.0000  0.0000  0.0000
  17.  N 2 (px)     1.0000  0.0000  0.0000  0.0000  0.5193  0.0000  0.0000  0.0000
  18.  N 2 (py)     0.0000  1.0000  0.0000  0.0000  0.0000  0.5193  0.0000  0.0000
  19.  N 2 (pz)     0.0000  0.0000  1.0000  0.0000  0.0000  0.0000  0.5193  0.0000
  20.  N 2 (s)      0.0000  0.0000  0.0000  1.0000  0.0000  0.0000  0.0000  0.0000
  21.  N 2 (px)     0.5193  0.0000  0.0000  0.0000  1.0000  0.0000  0.0000  0.0000
  22.  N 2 (py)     0.0000  0.5193  0.0000  0.0000  0.0000  1.0000  0.0000  0.0000
  23.  N 2 (pz)     0.0000  0.0000  0.5193  0.0000  0.0000  0.0000  1.0000  0.0000
  24.  N 2 (d5)     0.0000  0.0000  0.0000  0.0000  0.0000  0.0000  0.0000  1.0000
  25.  N 2 (d2)     0.0000  0.0000  0.0000  0.0000  0.0000  0.0000  0.0000  0.0000
  26.  N 2 (d3)     0.0000  0.0000  0.0000  0.0000  0.0000  0.0000  0.0000  0.0000
  27.  N 2 (d4)     0.0000  0.0000  0.0000  0.0000  0.0000  0.0000  0.0000  0.0000
  28.  N 2 (d1)     0.0000  0.0000  0.0000  0.0000  0.0000  0.0000  0.0000  0.0000
  29.  H 3 (s)      0.0000  0.0000 -0.0038  0.0397  0.0000  0.0000 -0.1184  0.0088
  30.  H 3 (s)      0.0000  0.0000 -0.0621  0.1896  0.0000  0.0000 -0.3200  0.0540

           AO         25      26      27      28      29      30
      ------------ ------- ------- ------- ------- ------- -------
   1.  C 1 (s)      0.0000  0.0000  0.0000  0.0000  0.0359  0.0946
   2.  C 1 (s)      0.0000  0.0000  0.0000  0.0000  0.2871  0.4856
   3.  C 1 (px)    -0.2769  0.0000  0.0000  0.0000  0.0000  0.0000
   4.  C 1 (py)     0.0000 -0.2769  0.0000  0.0000  0.0000  0.0000
   5.  C 1 (pz)     0.0000  0.0000  0.0000  0.0000 -0.3827 -0.2661
   6.  C 1 (s)      0.0000  0.0000  0.0000  0.0000  0.3854  0.7140
   7.  C 1 (px)    -0.1743  0.0000  0.0000  0.0000  0.0000  0.0000
   8.  C 1 (py)     0.0000 -0.1743  0.0000  0.0000  0.0000  0.0000
   9.  C 1 (pz)     0.0000  0.0000  0.0000  0.0000 -0.5164 -0.5791
  10.  C 1 (d5)     0.0000  0.0000  0.0000  0.0000  0.3477  0.0793
  11.  C 1 (d2)    -0.4092  0.0000  0.0000  0.0000  0.0000  0.0000
  12.  C 1 (d3)     0.0000 -0.4092  0.0000  0.0000  0.0000  0.0000
  13.  C 1 (d4)     0.0000  0.0000  0.1386  0.0000  0.0000  0.0000
  14.  C 1 (d1)     0.0000  0.0000  0.0000  0.1386  0.0000  0.0000
  15.  N 2 (s)      0.0000  0.0000  0.0000  0.0000  0.0000  0.0084
  16.  N 2 (s)      0.0000  0.0000  0.0000  0.0000  0.0017  0.0641
  17.  N 2 (px)     0.0000  0.0000  0.0000  0.0000  0.0000  0.0000
  18.  N 2 (py)     0.0000  0.0000  0.0000  0.0000  0.0000  0.0000
  19.  N 2 (pz)     0.0000  0.0000  0.0000  0.0000 -0.0038 -0.0621
  20.  N 2 (s)      0.0000  0.0000  0.0000  0.0000  0.0397  0.1896
  21.  N 2 (px)     0.0000  0.0000  0.0000  0.0000  0.0000  0.0000
  22.  N 2 (py)     0.0000  0.0000  0.0000  0.0000  0.0000  0.0000
  23.  N 2 (pz)     0.0000  0.0000  0.0000  0.0000 -0.1184 -0.3200
  24.  N 2 (d5)     0.0000  0.0000  0.0000  0.0000  0.0088  0.0540
  25.  N 2 (d2)     1.0000  0.0000  0.0000  0.0000  0.0000  0.0000
  26.  N 2 (d3)     0.0000  1.0000  0.0000  0.0000  0.0000  0.0000
  27.  N 2 (d4)     0.0000  0.0000  1.0000  0.0000  0.0000  0.0000
  28.  N 2 (d1)     0.0000  0.0000  0.0000  1.0000  0.0000  0.0000
  29.  H 3 (s)      0.0000  0.0000  0.0000  0.0000  1.0000  0.6583
  30.  H 3 (s)      0.0000  0.0000  0.0000  0.0000  0.6583  1.0000


 AO bond-order matrix:

           AO          1       2       3       4       5       6       7       8
      ------------ ------- ------- ------- ------- ------- ------- ------- -------
   1.  C 1 (s)      2.0674 -0.1205  0.0000  0.0000 -0.0048 -0.1131  0.0000  0.0000
   2.  C 1 (s)     -0.1205  0.3365  0.0000  0.0000  0.0011  0.2078  0.0000  0.0000
   3.  C 1 (px)     0.0000  0.0000  0.3039  0.0000  0.0000  0.0000  0.1942  0.0000
   4.  C 1 (py)     0.0000  0.0000  0.0000  0.3039  0.0000  0.0000  0.0000  0.1942
   5.  C 1 (pz)    -0.0048  0.0011  0.0000  0.0000  0.4473 -0.1116  0.0000  0.0000
   6.  C 1 (s)     -0.1131  0.2078  0.0000  0.0000 -0.1116  0.1591  0.0000  0.0000
   7.  C 1 (px)     0.0000  0.0000  0.1942  0.0000  0.0000  0.0000  0.1241  0.0000
   8.  C 1 (py)     0.0000  0.0000  0.0000  0.1942  0.0000  0.0000  0.0000  0.1241
   9.  C 1 (pz)     0.0650 -0.1112  0.0000  0.0000  0.0836 -0.0896  0.0000  0.0000
  10.  C 1 (d5)    -0.0123  0.0317  0.0000  0.0000 -0.0109  0.0216  0.0000  0.0000
  11.  C 1 (d2)     0.0000  0.0000  0.0238  0.0000  0.0000  0.0000  0.0152  0.0000
  12.  C 1 (d3)     0.0000  0.0000  0.0000  0.0238  0.0000  0.0000  0.0000  0.0152
  13.  C 1 (d4)     0.0000  0.0000  0.0000  0.0000  0.0000  0.0000  0.0000  0.0000
  14.  C 1 (d1)     0.0000  0.0000  0.0000  0.0000  0.0000  0.0000  0.0000  0.0000
  15.  N 2 (s)      0.0206 -0.0350  0.0000  0.0000 -0.0671  0.0246  0.0000  0.0000
  16.  N 2 (s)     -0.0369  0.0505  0.0000  0.0000  0.1316 -0.0267  0.0000  0.0000
  17.  N 2 (px)     0.0000  0.0000  0.3419  0.0000  0.0000  0.0000  0.2184  0.0000
  18.  N 2 (py)     0.0000  0.0000  0.0000  0.3419  0.0000  0.0000  0.0000  0.2184
  19.  N 2 (pz)     0.1176 -0.2408  0.0000  0.0000 -0.3350 -0.0816  0.0000  0.0000
  20.  N 2 (s)     -0.0350  0.0288  0.0000  0.0000  0.0122 -0.0174  0.0000  0.0000
  21.  N 2 (px)     0.0000  0.0000  0.2204  0.0000  0.0000  0.0000  0.1408  0.0000
  22.  N 2 (py)     0.0000  0.0000  0.0000  0.2204  0.0000  0.0000  0.0000  0.1408
  23.  N 2 (pz)     0.0653 -0.1286  0.0000  0.0000 -0.1579 -0.0508  0.0000  0.0000
  24.  N 2 (d5)    -0.0078  0.0150  0.0000  0.0000  0.0292  0.0025  0.0000  0.0000
  25.  N 2 (d2)     0.0000  0.0000 -0.0331  0.0000  0.0000  0.0000 -0.0211  0.0000
  26.  N 2 (d3)     0.0000  0.0000  0.0000 -0.0331  0.0000  0.0000  0.0000 -0.0211
  27.  N 2 (d4)     0.0000  0.0000  0.0000  0.0000  0.0000  0.0000  0.0000  0.0000
  28.  N 2 (d1)     0.0000  0.0000  0.0000  0.0000  0.0000  0.0000  0.0000  0.0000
  29.  H 3 (s)     -0.0762  0.1534  0.0000  0.0000 -0.2325  0.1528  0.0000  0.0000
  30.  H 3 (s)      0.0010  0.0191  0.0000  0.0000 -0.1473  0.0470  0.0000  0.0000

           AO          9      10      11      12      13      14      15      16
      ------------ ------- ------- ------- ------- ------- ------- ------- -------
   1.  C 1 (s)      0.0650 -0.0123  0.0000  0.0000  0.0000  0.0000  0.0206 -0.0369
   2.  C 1 (s)     -0.1112  0.0317  0.0000  0.0000  0.0000  0.0000 -0.0350  0.0505
   3.  C 1 (px)     0.0000  0.0000  0.0238  0.0000  0.0000  0.0000  0.0000  0.0000
   4.  C 1 (py)     0.0000  0.0000  0.0000  0.0238  0.0000  0.0000  0.0000  0.0000
   5.  C 1 (pz)     0.0836 -0.0109  0.0000  0.0000  0.0000  0.0000 -0.0671  0.1316
   6.  C 1 (s)     -0.0896  0.0216  0.0000  0.0000  0.0000  0.0000  0.0246 -0.0267
   7.  C 1 (px)     0.0000  0.0000  0.0152  0.0000  0.0000  0.0000  0.0000  0.0000
   8.  C 1 (py)     0.0000  0.0000  0.0000  0.0152  0.0000  0.0000  0.0000  0.0000
   9.  C 1 (pz)     0.0531 -0.0127  0.0000  0.0000  0.0000  0.0000  0.0209  0.0019
  10.  C 1 (d5)    -0.0127  0.0036  0.0000  0.0000  0.0000  0.0000 -0.0089  0.0123
  11.  C 1 (d2)     0.0000  0.0000  0.0019  0.0000  0.0000  0.0000  0.0000  0.0000
  12.  C 1 (d3)     0.0000  0.0000  0.0000  0.0019  0.0000  0.0000  0.0000  0.0000
  13.  C 1 (d4)     0.0000  0.0000  0.0000  0.0000  0.0000  0.0000  0.0000  0.0000
  14.  C 1 (d1)     0.0000  0.0000  0.0000  0.0000  0.0000  0.0000  0.0000  0.0000
  15.  N 2 (s)      0.0209 -0.0089  0.0000  0.0000  0.0000  0.0000  2.0821 -0.1593
  16.  N 2 (s)      0.0019  0.0123  0.0000  0.0000  0.0000  0.0000 -0.1593  0.4405
  17.  N 2 (px)     0.0000  0.0000  0.0268  0.0000  0.0000  0.0000  0.0000  0.0000
  18.  N 2 (py)     0.0000  0.0000  0.0000  0.0268  0.0000  0.0000  0.0000  0.0000
  19.  N 2 (pz)     0.0131 -0.0076  0.0000  0.0000  0.0000  0.0000 -0.0487  0.1128
  20.  N 2 (s)     -0.0159  0.0161  0.0000  0.0000  0.0000  0.0000 -0.2700  0.5020
  21.  N 2 (px)     0.0000  0.0000  0.0173  0.0000  0.0000  0.0000  0.0000  0.0000
  22.  N 2 (py)     0.0000  0.0000  0.0000  0.0173  0.0000  0.0000  0.0000  0.0000
  23.  N 2 (pz)     0.0106 -0.0037  0.0000  0.0000  0.0000  0.0000 -0.0282  0.0975
  24.  N 2 (d5)     0.0006  0.0005  0.0000  0.0000  0.0000  0.0000 -0.0005  0.0037
  25.  N 2 (d2)     0.0000  0.0000 -0.0026  0.0000  0.0000  0.0000  0.0000  0.0000
  26.  N 2 (d3)     0.0000  0.0000  0.0000 -0.0026  0.0000  0.0000  0.0000  0.0000
  27.  N 2 (d4)     0.0000  0.0000  0.0000  0.0000  0.0000  0.0000  0.0000  0.0000
  28.  N 2 (d1)     0.0000  0.0000  0.0000  0.0000  0.0000  0.0000  0.0000  0.0000
  29.  H 3 (s)     -0.0949  0.0206  0.0000  0.0000  0.0000  0.0000  0.0131 -0.0312
  30.  H 3 (s)     -0.0342  0.0061  0.0000  0.0000  0.0000  0.0000  0.0139 -0.0140

           AO         17      18      19      20      21      22      23      24
      ------------ ------- ------- ------- ------- ------- ------- ------- -------
   1.  C 1 (s)      0.0000  0.0000  0.1176 -0.0350  0.0000  0.0000  0.0653 -0.0078
   2.  C 1 (s)      0.0000  0.0000 -0.2408  0.0288  0.0000  0.0000 -0.1286  0.0150
   3.  C 1 (px)     0.3419  0.0000  0.0000  0.0000  0.2204  0.0000  0.0000  0.0000
   4.  C 1 (py)     0.0000  0.3419  0.0000  0.0000  0.0000  0.2204  0.0000  0.0000
   5.  C 1 (pz)     0.0000  0.0000 -0.3350  0.0122  0.0000  0.0000 -0.1579  0.0292
   6.  C 1 (s)      0.0000  0.0000 -0.0816 -0.0174  0.0000  0.0000 -0.0508  0.0025
   7.  C 1 (px)     0.2184  0.0000  0.0000  0.0000  0.1408  0.0000  0.0000  0.0000
   8.  C 1 (py)     0.0000  0.2184  0.0000  0.0000  0.0000  0.1408  0.0000  0.0000
   9.  C 1 (pz)     0.0000  0.0000  0.0131 -0.0159  0.0000  0.0000  0.0106  0.0006
  10.  C 1 (d5)     0.0000  0.0000 -0.0076  0.0161  0.0000  0.0000 -0.0037  0.0005
  11.  C 1 (d2)     0.0268  0.0000  0.0000  0.0000  0.0173  0.0000  0.0000  0.0000
  12.  C 1 (d3)     0.0000  0.0268  0.0000  0.0000  0.0000  0.0173  0.0000  0.0000
  13.  C 1 (d4)     0.0000  0.0000  0.0000  0.0000  0.0000  0.0000  0.0000  0.0000
  14.  C 1 (d1)     0.0000  0.0000  0.0000  0.0000  0.0000  0.0000  0.0000  0.0000
  15.  N 2 (s)      0.0000  0.0000 -0.0487 -0.2700  0.0000  0.0000 -0.0282 -0.0005
  16.  N 2 (s)      0.0000  0.0000  0.1128  0.5020  0.0000  0.0000  0.0975  0.0037
  17.  N 2 (px)     0.3846  0.0000  0.0000  0.0000  0.2479  0.0000  0.0000  0.0000
  18.  N 2 (py)     0.0000  0.3846  0.0000  0.0000  0.0000  0.2479  0.0000  0.0000
  19.  N 2 (pz)     0.0000  0.0000  0.5785  0.2819  0.0000  0.0000  0.3126 -0.0371
  20.  N 2 (s)      0.0000  0.0000  0.2819  0.6266  0.0000  0.0000  0.1895 -0.0070
  21.  N 2 (px)     0.2479  0.0000  0.0000  0.0000  0.1598  0.0000  0.0000  0.0000
  22.  N 2 (py)     0.0000  0.2479  0.0000  0.0000  0.0000  0.1598  0.0000  0.0000
  23.  N 2 (pz)     0.0000  0.0000  0.3126  0.1895  0.0000  0.0000  0.1725 -0.0190
  24.  N 2 (d5)     0.0000  0.0000 -0.0371 -0.0070  0.0000  0.0000 -0.0190  0.0027
  25.  N 2 (d2)    -0.0372  0.0000  0.0000  0.0000 -0.0240  0.0000  0.0000  0.0000
  26.  N 2 (d3)     0.0000 -0.0372  0.0000  0.0000  0.0000 -0.0240  0.0000  0.0000
  27.  N 2 (d4)     0.0000  0.0000  0.0000  0.0000  0.0000  0.0000  0.0000  0.0000
  28.  N 2 (d1)     0.0000  0.0000  0.0000  0.0000  0.0000  0.0000  0.0000  0.0000
  29.  H 3 (s)      0.0000  0.0000  0.0728  0.0248  0.0000  0.0000  0.0290 -0.0086
  30.  H 3 (s)      0.0000  0.0000  0.1131  0.0306  0.0000  0.0000  0.0556 -0.0092

           AO         25      26      27      28      29      30
      ------------ ------- ------- ------- ------- ------- -------
   1.  C 1 (s)      0.0000  0.0000  0.0000  0.0000 -0.0762  0.0010
   2.  C 1 (s)      0.0000  0.0000  0.0000  0.0000  0.1534  0.0191
   3.  C 1 (px)    -0.0331  0.0000  0.0000  0.0000  0.0000  0.0000
   4.  C 1 (py)     0.0000 -0.0331  0.0000  0.0000  0.0000  0.0000
   5.  C 1 (pz)     0.0000  0.0000  0.0000  0.0000 -0.2325 -0.1473
   6.  C 1 (s)      0.0000  0.0000  0.0000  0.0000  0.1528  0.0470
   7.  C 1 (px)    -0.0211  0.0000  0.0000  0.0000  0.0000  0.0000
   8.  C 1 (py)     0.0000 -0.0211  0.0000  0.0000  0.0000  0.0000
   9.  C 1 (pz)     0.0000  0.0000  0.0000  0.0000 -0.0949 -0.0342
  10.  C 1 (d5)     0.0000  0.0000  0.0000  0.0000  0.0206  0.0061
  11.  C 1 (d2)    -0.0026  0.0000  0.0000  0.0000  0.0000  0.0000
  12.  C 1 (d3)     0.0000 -0.0026  0.0000  0.0000  0.0000  0.0000
  13.  C 1 (d4)     0.0000  0.0000  0.0000  0.0000  0.0000  0.0000
  14.  C 1 (d1)     0.0000  0.0000  0.0000  0.0000  0.0000  0.0000
  15.  N 2 (s)      0.0000  0.0000  0.0000  0.0000  0.0131  0.0139
  16.  N 2 (s)      0.0000  0.0000  0.0000  0.0000 -0.0312 -0.0140
  17.  N 2 (px)    -0.0372  0.0000  0.0000  0.0000  0.0000  0.0000
  18.  N 2 (py)     0.0000 -0.0372  0.0000  0.0000  0.0000  0.0000
  19.  N 2 (pz)     0.0000  0.0000  0.0000  0.0000  0.0728  0.1131
  20.  N 2 (s)      0.0000  0.0000  0.0000  0.0000  0.0248  0.0306
  21.  N 2 (px)    -0.0240  0.0000  0.0000  0.0000  0.0000  0.0000
  22.  N 2 (py)     0.0000 -0.0240  0.0000  0.0000  0.0000  0.0000
  23.  N 2 (pz)     0.0000  0.0000  0.0000  0.0000  0.0290  0.0556
  24.  N 2 (d5)     0.0000  0.0000  0.0000  0.0000 -0.0086 -0.0092
  25.  N 2 (d2)     0.0036  0.0000  0.0000  0.0000  0.0000  0.0000
  26.  N 2 (d3)     0.0000  0.0036  0.0000  0.0000  0.0000  0.0000
  27.  N 2 (d4)     0.0000  0.0000  0.0000  0.0000  0.0000  0.0000
  28.  N 2 (d1)     0.0000  0.0000  0.0000  0.0000  0.0000  0.0000
  29.  H 3 (s)      0.0000  0.0000  0.0000  0.0000  0.1921  0.0863
  30.  H 3 (s)      0.0000  0.0000  0.0000  0.0000  0.0863  0.0514


 AO density matrix:

           AO          1       2       3       4       5       6       7       8
      ------------ ------- ------- ------- ------- ------- ------- ------- -------
   1.  C 1 (s)      1.9998  0.4468  0.0000  0.0000 -0.0016  0.3672  0.0000  0.0000
   2.  C 1 (s)      0.4468  1.5888  0.0000  0.0000  0.0650  1.5891  0.0000  0.0000
   3.  C 1 (px)     0.0000  0.0000  0.9491  0.0000  0.0000  0.0000  1.0306  0.0000
   4.  C 1 (py)     0.0000  0.0000  0.0000  0.9491  0.0000  0.0000  0.0000  1.0306
   5.  C 1 (pz)    -0.0016  0.0650  0.0000  0.0000  1.5529 -0.0526  0.0000  0.0000
   6.  C 1 (s)      0.3672  1.5891  0.0000  0.0000 -0.0526  1.6965  0.0000  0.0000
   7.  C 1 (px)     0.0000  0.0000  1.0306  0.0000  0.0000  0.0000  1.1191  0.0000
   8.  C 1 (py)     0.0000  0.0000  0.0000  1.0306  0.0000  0.0000  0.0000  1.1191
   9.  C 1 (pz)     0.0027 -0.1528  0.0000  0.0000  1.3407 -0.0791  0.0000  0.0000
  10.  C 1 (d5)    -0.0042  0.4011  0.0000  0.0000  0.1195  0.4462  0.0000  0.0000
  11.  C 1 (d2)     0.0000  0.0000  0.2951  0.0000  0.0000  0.0000  0.3204  0.0000
  12.  C 1 (d3)     0.0000  0.0000  0.0000  0.2951  0.0000  0.0000  0.0000  0.3204
  13.  C 1 (d4)     0.0000  0.0000  0.0000  0.0000  0.0000  0.0000  0.0000  0.0000
  14.  C 1 (d1)     0.0000  0.0000  0.0000  0.0000  0.0000  0.0000  0.0000  0.0000
  15.  N 2 (s)      0.0001  0.0590  0.0000  0.0000  0.1206  0.1264  0.0000  0.0000
  16.  N 2 (s)      0.0401  0.5987  0.0000  0.0000  0.7980  0.8660  0.0000  0.0000
  17.  N 2 (px)     0.0000  0.0000  0.9634  0.0000  0.0000  0.0000  1.0461  0.0000
  18.  N 2 (py)     0.0000  0.0000  0.0000  0.9634  0.0000  0.0000  0.0000  1.0461
  19.  N 2 (pz)    -0.0868 -0.8352  0.0000  0.0000 -0.8695 -0.5378  0.0000  0.0000
  20.  N 2 (s)      0.1582  0.8270  0.0000  0.0000  0.6508  1.1110  0.0000  0.0000
  21.  N 2 (px)     0.0000  0.0000  1.0880  0.0000  0.0000  0.0000  1.1815  0.0000
  22.  N 2 (py)     0.0000  0.0000  0.0000  1.0880  0.0000  0.0000  0.0000  1.1815
  23.  N 2 (pz)    -0.3090 -1.1832  0.0000  0.0000 -0.3815 -0.9487  0.0000  0.0000
  24.  N 2 (d5)     0.2294  0.3127  0.0000  0.0000  0.2113  0.2673  0.0000  0.0000
  25.  N 2 (d2)     0.0000  0.0000 -0.2842  0.0000  0.0000  0.0000 -0.3086  0.0000
  26.  N 2 (d3)     0.0000  0.0000  0.0000 -0.2842  0.0000  0.0000  0.0000 -0.3086
  27.  N 2 (d4)     0.0000  0.0000  0.0000  0.0000  0.0000  0.0000  0.0000  0.0000
  28.  N 2 (d1)     0.0000  0.0000  0.0000  0.0000  0.0000  0.0000  0.0000  0.0000
  29.  H 3 (s)      0.0661  0.8987  0.0000  0.0000 -1.0239  1.0175  0.0000  0.0000
  30.  H 3 (s)      0.1839  1.2019  0.0000  0.0000 -0.8148  1.3049  0.0000  0.0000

           AO          9      10      11      12      13      14      15      16
      ------------ ------- ------- ------- ------- ------- ------- ------- -------
   1.  C 1 (s)      0.0027 -0.0042  0.0000  0.0000  0.0000  0.0000  0.0001  0.0401
   2.  C 1 (s)     -0.1528  0.4011  0.0000  0.0000  0.0000  0.0000  0.0590  0.5987
   3.  C 1 (px)     0.0000  0.0000  0.2951  0.0000  0.0000  0.0000  0.0000  0.0000
   4.  C 1 (py)     0.0000  0.0000  0.0000  0.2951  0.0000  0.0000  0.0000  0.0000
   5.  C 1 (pz)     1.3407  0.1195  0.0000  0.0000  0.0000  0.0000  0.1206  0.7980
   6.  C 1 (s)     -0.0791  0.4462  0.0000  0.0000  0.0000  0.0000  0.1264  0.8660
   7.  C 1 (px)     0.0000  0.0000  0.3204  0.0000  0.0000  0.0000  0.0000  0.0000
   8.  C 1 (py)     0.0000  0.0000  0.0000  0.3204  0.0000  0.0000  0.0000  0.0000
   9.  C 1 (pz)     1.5250  0.1367  0.0000  0.0000  0.0000  0.0000  0.2270  1.2159
  10.  C 1 (d5)     0.1367  0.1468  0.0000  0.0000  0.0000  0.0000  0.1808  0.3790
  11.  C 1 (d2)     0.0000  0.0000  0.0917  0.0000  0.0000  0.0000  0.0000  0.0000
  12.  C 1 (d3)     0.0000  0.0000  0.0000  0.0917  0.0000  0.0000  0.0000  0.0000
  13.  C 1 (d4)     0.0000  0.0000  0.0000  0.0000  0.0000  0.0000  0.0000  0.0000
  14.  C 1 (d1)     0.0000  0.0000  0.0000  0.0000  0.0000  0.0000  0.0000  0.0000
  15.  N 2 (s)      0.2270  0.1808  0.0000  0.0000  0.0000  0.0000  1.9998  0.4513
  16.  N 2 (s)      1.2159  0.3790  0.0000  0.0000  0.0000  0.0000  0.4513  1.7133
  17.  N 2 (px)     0.0000  0.0000  0.2995  0.0000  0.0000  0.0000  0.0000  0.0000
  18.  N 2 (py)     0.0000  0.0000  0.0000  0.2995  0.0000  0.0000  0.0000  0.0000
  19.  N 2 (pz)    -0.1864 -0.1596  0.0000  0.0000  0.0000  0.0000 -0.0022  0.0684
  20.  N 2 (s)      1.0738  0.4196  0.0000  0.0000  0.0000  0.0000  0.3393  1.7354
  21.  N 2 (px)     0.0000  0.0000  0.3383  0.0000  0.0000  0.0000  0.0000  0.0000
  22.  N 2 (py)     0.0000  0.0000  0.0000  0.3383  0.0000  0.0000  0.0000  0.0000
  23.  N 2 (pz)     0.2230 -0.2219  0.0000  0.0000  0.0000  0.0000 -0.0010  0.0940
  24.  N 2 (d5)     0.1017  0.0706  0.0000  0.0000  0.0000  0.0000 -0.0011  0.1254
  25.  N 2 (d2)     0.0000  0.0000 -0.0883  0.0000  0.0000  0.0000  0.0000  0.0000
  26.  N 2 (d3)     0.0000  0.0000  0.0000 -0.0883  0.0000  0.0000  0.0000  0.0000
  27.  N 2 (d4)     0.0000  0.0000  0.0000  0.0000  0.0000  0.0000  0.0000  0.0000
  28.  N 2 (d1)     0.0000  0.0000  0.0000  0.0000  0.0000  0.0000  0.0000  0.0000
  29.  H 3 (s)     -0.9594  0.1851  0.0000  0.0000  0.0000  0.0000  0.0017 -0.0767
  30.  H 3 (s)     -0.8152  0.2722  0.0000  0.0000  0.0000  0.0000  0.0166  0.1349

           AO         17      18      19      20      21      22      23      24
      ------------ ------- ------- ------- ------- ------- ------- ------- -------
   1.  C 1 (s)      0.0000  0.0000 -0.0868  0.1582  0.0000  0.0000 -0.3090  0.2294
   2.  C 1 (s)      0.0000  0.0000 -0.8352  0.8270  0.0000  0.0000 -1.1832  0.3127
   3.  C 1 (px)     0.9634  0.0000  0.0000  0.0000  1.0880  0.0000  0.0000  0.0000
   4.  C 1 (py)     0.0000  0.9634  0.0000  0.0000  0.0000  1.0880  0.0000  0.0000
   5.  C 1 (pz)     0.0000  0.0000 -0.8695  0.6508  0.0000  0.0000 -0.3815  0.2113
   6.  C 1 (s)      0.0000  0.0000 -0.5378  1.1110  0.0000  0.0000 -0.9487  0.2673
   7.  C 1 (px)     1.0461  0.0000  0.0000  0.0000  1.1815  0.0000  0.0000  0.0000
   8.  C 1 (py)     0.0000  1.0461  0.0000  0.0000  0.0000  1.1815  0.0000  0.0000
   9.  C 1 (pz)     0.0000  0.0000 -0.1864  1.0738  0.0000  0.0000  0.2230  0.1017
  10.  C 1 (d5)     0.0000  0.0000 -0.1596  0.4196  0.0000  0.0000 -0.2219  0.0706
  11.  C 1 (d2)     0.2995  0.0000  0.0000  0.0000  0.3383  0.0000  0.0000  0.0000
  12.  C 1 (d3)     0.0000  0.2995  0.0000  0.0000  0.0000  0.3383  0.0000  0.0000
  13.  C 1 (d4)     0.0000  0.0000  0.0000  0.0000  0.0000  0.0000  0.0000  0.0000
  14.  C 1 (d1)     0.0000  0.0000  0.0000  0.0000  0.0000  0.0000  0.0000  0.0000
  15.  N 2 (s)      0.0000  0.0000 -0.0022  0.3393  0.0000  0.0000 -0.0010 -0.0011
  16.  N 2 (s)      0.0000  0.0000  0.0684  1.7354  0.0000  0.0000  0.0940  0.1254
  17.  N 2 (px)     0.9778  0.0000  0.0000  0.0000  1.1044  0.0000  0.0000  0.0000
  18.  N 2 (py)     0.0000  0.9778  0.0000  0.0000  0.0000  1.1044  0.0000  0.0000
  19.  N 2 (pz)     0.0000  0.0000  1.5138  0.0604  0.0000  0.0000  1.3419 -0.3218
  20.  N 2 (s)      0.0000  0.0000  0.0604  1.8148  0.0000  0.0000 -0.0202  0.1529
  21.  N 2 (px)     1.1044  0.0000  0.0000  0.0000  1.2473  0.0000  0.0000  0.0000
  22.  N 2 (py)     0.0000  1.1044  0.0000  0.0000  0.0000  1.2473  0.0000  0.0000
  23.  N 2 (pz)     0.0000  0.0000  1.3419 -0.0202  0.0000  0.0000  1.4256 -0.3274
  24.  N 2 (d5)     0.0000  0.0000 -0.3218  0.1529  0.0000  0.0000 -0.3274  0.1043
  25.  N 2 (d2)    -0.2884  0.0000  0.0000  0.0000 -0.3258  0.0000  0.0000  0.0000
  26.  N 2 (d3)     0.0000 -0.2884  0.0000  0.0000  0.0000 -0.3258  0.0000  0.0000
  27.  N 2 (d4)     0.0000  0.0000  0.0000  0.0000  0.0000  0.0000  0.0000  0.0000
  28.  N 2 (d1)     0.0000  0.0000  0.0000  0.0000  0.0000  0.0000  0.0000  0.0000
  29.  H 3 (s)      0.0000  0.0000  0.1578  0.1547  0.0000  0.0000 -0.3793  0.0181
  30.  H 3 (s)      0.0000  0.0000 -0.1028  0.3918  0.0000  0.0000 -0.6450  0.1055

           AO         25      26      27      28      29      30
      ------------ ------- ------- ------- ------- ------- -------
   1.  C 1 (s)      0.0000  0.0000  0.0000  0.0000  0.0661  0.1839
   2.  C 1 (s)      0.0000  0.0000  0.0000  0.0000  0.8987  1.2019
   3.  C 1 (px)    -0.2842  0.0000  0.0000  0.0000  0.0000  0.0000
   4.  C 1 (py)     0.0000 -0.2842  0.0000  0.0000  0.0000  0.0000
   5.  C 1 (pz)     0.0000  0.0000  0.0000  0.0000 -1.0239 -0.8148
   6.  C 1 (s)      0.0000  0.0000  0.0000  0.0000  1.0175  1.3049
   7.  C 1 (px)    -0.3086  0.0000  0.0000  0.0000  0.0000  0.0000
   8.  C 1 (py)     0.0000 -0.3086  0.0000  0.0000  0.0000  0.0000
   9.  C 1 (pz)     0.0000  0.0000  0.0000  0.0000 -0.9594 -0.8152
  10.  C 1 (d5)     0.0000  0.0000  0.0000  0.0000  0.1851  0.2722
  11.  C 1 (d2)    -0.0883  0.0000  0.0000  0.0000  0.0000  0.0000
  12.  C 1 (d3)     0.0000 -0.0883  0.0000  0.0000  0.0000  0.0000
  13.  C 1 (d4)     0.0000  0.0000  0.0000  0.0000  0.0000  0.0000
  14.  C 1 (d1)     0.0000  0.0000  0.0000  0.0000  0.0000  0.0000
  15.  N 2 (s)      0.0000  0.0000  0.0000  0.0000  0.0017  0.0166
  16.  N 2 (s)      0.0000  0.0000  0.0000  0.0000 -0.0767  0.1349
  17.  N 2 (px)    -0.2884  0.0000  0.0000  0.0000  0.0000  0.0000
  18.  N 2 (py)     0.0000 -0.2884  0.0000  0.0000  0.0000  0.0000
  19.  N 2 (pz)     0.0000  0.0000  0.0000  0.0000  0.1578 -0.1028
  20.  N 2 (s)      0.0000  0.0000  0.0000  0.0000  0.1547  0.3918
  21.  N 2 (px)    -0.3258  0.0000  0.0000  0.0000  0.0000  0.0000
  22.  N 2 (py)     0.0000 -0.3258  0.0000  0.0000  0.0000  0.0000
  23.  N 2 (pz)     0.0000  0.0000  0.0000  0.0000 -0.3793 -0.6450
  24.  N 2 (d5)     0.0000  0.0000  0.0000  0.0000  0.0181  0.1055
  25.  N 2 (d2)     0.0851  0.0000  0.0000  0.0000  0.0000  0.0000
  26.  N 2 (d3)     0.0000  0.0851  0.0000  0.0000  0.0000  0.0000
  27.  N 2 (d4)     0.0000  0.0000  0.0000  0.0000  0.0000  0.0000
  28.  N 2 (d1)     0.0000  0.0000  0.0000  0.0000  0.0000  0.0000
  29.  H 3 (s)      0.0000  0.0000  0.0000  0.0000  1.2649  1.2982
  30.  H 3 (s)      0.0000  0.0000  0.0000  0.0000  1.2982  1.4150


 MO density matrix:

      MO     1       2       3       4       5       6       7       8       9
     ---- ------  ------  ------  ------  ------  ------  ------  ------  ------
   1.     2.0000  0.0000  0.0000  0.0000  0.0000  0.0000  0.0000  0.0000  0.0000
   2.     0.0000  2.0000  0.0000  0.0000  0.0000  0.0000  0.0000  0.0000  0.0000
   3.     0.0000  0.0000  2.0000  0.0000  0.0000  0.0000  0.0000  0.0000  0.0000
   4.     0.0000  0.0000  0.0000  2.0000  0.0000  0.0000  0.0000  0.0000  0.0000
   5.     0.0000  0.0000  0.0000  0.0000  2.0000  0.0000  0.0000  0.0000  0.0000
   6.     0.0000  0.0000  0.0000  0.0000  0.0000  2.0000  0.0000  0.0000  0.0000
   7.     0.0000  0.0000  0.0000  0.0000  0.0000  0.0000  2.0000  0.0000  0.0000
   8.     0.0000  0.0000  0.0000  0.0000  0.0000  0.0000  0.0000  0.0000  0.0000
   9.     0.0000  0.0000  0.0000  0.0000  0.0000  0.0000  0.0000  0.0000  0.0000
  10.     0.0000  0.0000  0.0000  0.0000  0.0000  0.0000  0.0000  0.0000  0.0000
  11.     0.0000  0.0000  0.0000  0.0000  0.0000  0.0000  0.0000  0.0000  0.0000
  12.     0.0000  0.0000  0.0000  0.0000  0.0000  0.0000  0.0000  0.0000  0.0000
  13.     0.0000  0.0000  0.0000  0.0000  0.0000  0.0000  0.0000  0.0000  0.0000
  14.     0.0000  0.0000  0.0000  0.0000  0.0000  0.0000  0.0000  0.0000  0.0000
  15.     0.0000  0.0000  0.0000  0.0000  0.0000  0.0000  0.0000  0.0000  0.0000
  16.     0.0000  0.0000  0.0000  0.0000  0.0000  0.0000  0.0000  0.0000  0.0000
  17.     0.0000  0.0000  0.0000  0.0000  0.0000  0.0000  0.0000  0.0000  0.0000
  18.     0.0000  0.0000  0.0000  0.0000  0.0000  0.0000  0.0000  0.0000  0.0000
  19.     0.0000  0.0000  0.0000  0.0000  0.0000  0.0000  0.0000  0.0000  0.0000
  20.     0.0000  0.0000  0.0000  0.0000  0.0000  0.0000  0.0000  0.0000  0.0000
  21.     0.0000  0.0000  0.0000  0.0000  0.0000  0.0000  0.0000  0.0000  0.0000
  22.     0.0000  0.0000  0.0000  0.0000  0.0000  0.0000  0.0000  0.0000  0.0000
  23.     0.0000  0.0000  0.0000  0.0000  0.0000  0.0000  0.0000  0.0000  0.0000
  24.     0.0000  0.0000  0.0000  0.0000  0.0000  0.0000  0.0000  0.0000  0.0000
  25.     0.0000  0.0000  0.0000  0.0000  0.0000  0.0000  0.0000  0.0000  0.0000
  26.     0.0000  0.0000  0.0000  0.0000  0.0000  0.0000  0.0000  0.0000  0.0000
  27.     0.0000  0.0000  0.0000  0.0000  0.0000  0.0000  0.0000  0.0000  0.0000
  28.     0.0000  0.0000  0.0000  0.0000  0.0000  0.0000  0.0000  0.0000  0.0000
  29.     0.0000  0.0000  0.0000  0.0000  0.0000  0.0000  0.0000  0.0000  0.0000
  30.     0.0000  0.0000  0.0000  0.0000  0.0000  0.0000  0.0000  0.0000  0.0000

      MO    10      11      12      13      14      15      16      17      18
     ---- ------  ------  ------  ------  ------  ------  ------  ------  ------
   1.     0.0000  0.0000  0.0000  0.0000  0.0000  0.0000  0.0000  0.0000  0.0000
   2.     0.0000  0.0000  0.0000  0.0000  0.0000  0.0000  0.0000  0.0000  0.0000
   3.     0.0000  0.0000  0.0000  0.0000  0.0000  0.0000  0.0000  0.0000  0.0000
   4.     0.0000  0.0000  0.0000  0.0000  0.0000  0.0000  0.0000  0.0000  0.0000
   5.     0.0000  0.0000  0.0000  0.0000  0.0000  0.0000  0.0000  0.0000  0.0000
   6.     0.0000  0.0000  0.0000  0.0000  0.0000  0.0000  0.0000  0.0000  0.0000
   7.     0.0000  0.0000  0.0000  0.0000  0.0000  0.0000  0.0000  0.0000  0.0000
   8.     0.0000  0.0000  0.0000  0.0000  0.0000  0.0000  0.0000  0.0000  0.0000
   9.     0.0000  0.0000  0.0000  0.0000  0.0000  0.0000  0.0000  0.0000  0.0000
  10.     0.0000  0.0000  0.0000  0.0000  0.0000  0.0000  0.0000  0.0000  0.0000
  11.     0.0000  0.0000  0.0000  0.0000  0.0000  0.0000  0.0000  0.0000  0.0000
  12.     0.0000  0.0000  0.0000  0.0000  0.0000  0.0000  0.0000  0.0000  0.0000
  13.     0.0000  0.0000  0.0000  0.0000  0.0000  0.0000  0.0000  0.0000  0.0000
  14.     0.0000  0.0000  0.0000  0.0000  0.0000  0.0000  0.0000  0.0000  0.0000
  15.     0.0000  0.0000  0.0000  0.0000  0.0000  0.0000  0.0000  0.0000  0.0000
  16.     0.0000  0.0000  0.0000  0.0000  0.0000  0.0000  0.0000  0.0000  0.0000
  17.     0.0000  0.0000  0.0000  0.0000  0.0000  0.0000  0.0000  0.0000  0.0000
  18.     0.0000  0.0000  0.0000  0.0000  0.0000  0.0000  0.0000  0.0000  0.0000
  19.     0.0000  0.0000  0.0000  0.0000  0.0000  0.0000  0.0000  0.0000  0.0000
  20.     0.0000  0.0000  0.0000  0.0000  0.0000  0.0000  0.0000  0.0000  0.0000
  21.     0.0000  0.0000  0.0000  0.0000  0.0000  0.0000  0.0000  0.0000  0.0000
  22.     0.0000  0.0000  0.0000  0.0000  0.0000  0.0000  0.0000  0.0000  0.0000
  23.     0.0000  0.0000  0.0000  0.0000  0.0000  0.0000  0.0000  0.0000  0.0000
  24.     0.0000  0.0000  0.0000  0.0000  0.0000  0.0000  0.0000  0.0000  0.0000
  25.     0.0000  0.0000  0.0000  0.0000  0.0000  0.0000  0.0000  0.0000  0.0000
  26.     0.0000  0.0000  0.0000  0.0000  0.0000  0.0000  0.0000  0.0000  0.0000
  27.     0.0000  0.0000  0.0000  0.0000  0.0000  0.0000  0.0000  0.0000  0.0000
  28.     0.0000  0.0000  0.0000  0.0000  0.0000  0.0000  0.0000  0.0000  0.0000
  29.     0.0000  0.0000  0.0000  0.0000  0.0000  0.0000  0.0000  0.0000  0.0000
  30.     0.0000  0.0000  0.0000  0.0000  0.0000  0.0000  0.0000  0.0000  0.0000

      MO    19      20      21      22      23      24      25      26      27
     ---- ------  ------  ------  ------  ------  ------  ------  ------  ------
   1.     0.0000  0.0000  0.0000  0.0000  0.0000  0.0000  0.0000  0.0000  0.0000
   2.     0.0000  0.0000  0.0000  0.0000  0.0000  0.0000  0.0000  0.0000  0.0000
   3.     0.0000  0.0000  0.0000  0.0000  0.0000  0.0000  0.0000  0.0000  0.0000
   4.     0.0000  0.0000  0.0000  0.0000  0.0000  0.0000  0.0000  0.0000  0.0000
   5.     0.0000  0.0000  0.0000  0.0000  0.0000  0.0000  0.0000  0.0000  0.0000
   6.     0.0000  0.0000  0.0000  0.0000  0.0000  0.0000  0.0000  0.0000  0.0000
   7.     0.0000  0.0000  0.0000  0.0000  0.0000  0.0000  0.0000  0.0000  0.0000
   8.     0.0000  0.0000  0.0000  0.0000  0.0000  0.0000  0.0000  0.0000  0.0000
   9.     0.0000  0.0000  0.0000  0.0000  0.0000  0.0000  0.0000  0.0000  0.0000
  10.     0.0000  0.0000  0.0000  0.0000  0.0000  0.0000  0.0000  0.0000  0.0000
  11.     0.0000  0.0000  0.0000  0.0000  0.0000  0.0000  0.0000  0.0000  0.0000
  12.     0.0000  0.0000  0.0000  0.0000  0.0000  0.0000  0.0000  0.0000  0.0000
  13.     0.0000  0.0000  0.0000  0.0000  0.0000  0.0000  0.0000  0.0000  0.0000
  14.     0.0000  0.0000  0.0000  0.0000  0.0000  0.0000  0.0000  0.0000  0.0000
  15.     0.0000  0.0000  0.0000  0.0000  0.0000  0.0000  0.0000  0.0000  0.0000
  16.     0.0000  0.0000  0.0000  0.0000  0.0000  0.0000  0.0000  0.0000  0.0000
  17.     0.0000  0.0000  0.0000  0.0000  0.0000  0.0000  0.0000  0.0000  0.0000
  18.     0.0000  0.0000  0.0000  0.0000  0.0000  0.0000  0.0000  0.0000  0.0000
  19.     0.0000  0.0000  0.0000  0.0000  0.0000  0.0000  0.0000  0.0000  0.0000
  20.     0.0000  0.0000  0.0000  0.0000  0.0000  0.0000  0.0000  0.0000  0.0000
  21.     0.0000  0.0000  0.0000  0.0000  0.0000  0.0000  0.0000  0.0000  0.0000
  22.     0.0000  0.0000  0.0000  0.0000  0.0000  0.0000  0.0000  0.0000  0.0000
  23.     0.0000  0.0000  0.0000  0.0000  0.0000  0.0000  0.0000  0.0000  0.0000
  24.     0.0000  0.0000  0.0000  0.0000  0.0000  0.0000  0.0000  0.0000  0.0000
  25.     0.0000  0.0000  0.0000  0.0000  0.0000  0.0000  0.0000  0.0000  0.0000
  26.     0.0000  0.0000  0.0000  0.0000  0.0000  0.0000  0.0000  0.0000  0.0000
  27.     0.0000  0.0000  0.0000  0.0000  0.0000  0.0000  0.0000  0.0000  0.0000
  28.     0.0000  0.0000  0.0000  0.0000  0.0000  0.0000  0.0000  0.0000  0.0000
  29.     0.0000  0.0000  0.0000  0.0000  0.0000  0.0000  0.0000  0.0000  0.0000
  30.     0.0000  0.0000  0.0000  0.0000  0.0000  0.0000  0.0000  0.0000  0.0000

      MO    28      29      30
     ---- ------  ------  ------
   1.     0.0000  0.0000  0.0000
   2.     0.0000  0.0000  0.0000
   3.     0.0000  0.0000  0.0000
   4.     0.0000  0.0000  0.0000
   5.     0.0000  0.0000  0.0000
   6.     0.0000  0.0000  0.0000
   7.     0.0000  0.0000  0.0000
   8.     0.0000  0.0000  0.0000
   9.     0.0000  0.0000  0.0000
  10.     0.0000  0.0000  0.0000
  11.     0.0000  0.0000  0.0000
  12.     0.0000  0.0000  0.0000
  13.     0.0000  0.0000  0.0000
  14.     0.0000  0.0000  0.0000
  15.     0.0000  0.0000  0.0000
  16.     0.0000  0.0000  0.0000
  17.     0.0000  0.0000  0.0000
  18.     0.0000  0.0000  0.0000
  19.     0.0000  0.0000  0.0000
  20.     0.0000  0.0000  0.0000
  21.     0.0000  0.0000  0.0000
  22.     0.0000  0.0000  0.0000
  23.     0.0000  0.0000  0.0000
  24.     0.0000  0.0000  0.0000
  25.     0.0000  0.0000  0.0000
  26.     0.0000  0.0000  0.0000
  27.     0.0000  0.0000  0.0000
  28.     0.0000  0.0000  0.0000
  29.     0.0000  0.0000  0.0000
  30.     0.0000  0.0000  0.0000


 NATURAL POPULATIONS:  Natural atomic orbital occupancies

  NAO Atom No lang   Type(AO)    Occupancy      Energy
 -------------------------------------------------------
   1    C  1  s      Cor( 1s)     1.99999     -11.30050
   2    C  1  s      Val( 2s)     0.97714      -0.16148
   3    C  1  s      Ryd( 3s)     0.00944       0.76384
   4    C  1  px     Val( 2p)     0.89438      -0.06964
   5    C  1  px     Ryd( 3p)     0.00034       0.73123
   6    C  1  py     Val( 2p)     0.89438      -0.06964
   7    C  1  py     Ryd( 3p)     0.00034       0.73123
   8    C  1  pz     Val( 2p)     1.09151       0.10579
   9    C  1  pz     Ryd( 3p)     0.01040       0.87248
  10    C  1  dxy    Ryd( 3d)     0.00000       1.98784
  11    C  1  dxz    Ryd( 3d)     0.00237       2.35605
  12    C  1  dyz    Ryd( 3d)     0.00237       2.35605
  13    C  1  dx2y2  Ryd( 3d)     0.00000       1.98784
  14    C  1  dz2    Ryd( 3d)     0.00260       3.04344

  15    N  2  s      Cor( 1s)     1.99999     -15.61140
  16    N  2  s      Val( 2s)     1.60354      -0.55885
  17    N  2  s      Ryd( 3s)     0.00709       1.76925
  18    N  2  px     Val( 2p)     1.09710      -0.14429
  19    N  2  px     Ryd( 3p)     0.00001       1.00335
  20    N  2  py     Val( 2p)     1.09710      -0.14429
  21    N  2  py     Ryd( 3p)     0.00001       1.00335
  22    N  2  pz     Val( 2p)     1.53120      -0.25083
  23    N  2  pz     Ryd( 3p)     0.00110       0.95651
  24    N  2  dxy    Ryd( 3d)     0.00000       2.04398
  25    N  2  dxz    Ryd( 3d)     0.00579       2.28056
  26    N  2  dyz    Ryd( 3d)     0.00579       2.28056
  27    N  2  dx2y2  Ryd( 3d)     0.00000       2.04398
  28    N  2  dz2    Ryd( 3d)     0.00649       2.90449

  29    H  3  s      Val( 1s)     0.75915       0.14761
  30    H  3  s      Ryd( 2s)     0.00035       0.63305


 Summary of Natural Population Analysis:

                                     Natural Population
             Natural    ---------------------------------------------
  Atom No    Charge        Core      Valence    Rydberg      Total
 --------------------------------------------------------------------
    C  1    0.11472      1.99999     3.85742    0.02787     5.88528
    N  2   -0.35522      1.99999     5.32895    0.02629     7.35522
    H  3    0.24050      0.00000     0.75915    0.00035     0.75950
 ====================================================================
 * Total *  0.00000      3.99998     9.94552    0.05450    14.00000

                                 Natural Population
 ---------------------------------------------------------
   Core                       3.99998 ( 99.9996% of    4)
   Valence                    9.94552 ( 99.4552% of   10)
   Natural Minimal Basis     13.94550 ( 99.6107% of   14)
   Natural Rydberg Basis      0.05450 (  0.3893% of   14)
 ---------------------------------------------------------

    Atom No         Natural Electron Configuration
 ----------------------------------------------------------------------------
      C  1      [core]2s( 0.98)2p( 2.88)3s( 0.01)3p( 0.01)3d( 0.01)
      N  2      [core]2s( 1.60)2p( 3.73)3s( 0.01)3d( 0.02)
      H  3            1s( 0.76)


 PNAOs in the AO basis:

           AO          1       2       3       4       5       6       7       8
      ------------ ------- ------- ------- ------- ------- ------- ------- -------
   1.  C 1 (s)      0.9964 -0.2253 -0.0835  0.0000  0.0000  0.0000  0.0000  0.0000
   2.  C 1 (s)      0.0215  0.4258  1.6737  0.0000  0.0000  0.0000  0.0000  0.0000
   3.  C 1 (px)     0.0000  0.0000  0.0000  0.5126  1.1036  0.0000  0.0000  0.0000
   4.  C 1 (py)     0.0000  0.0000  0.0000  0.0000  0.0000  0.5126  1.1036  0.0000
   5.  C 1 (pz)     0.0000  0.0000  0.0000  0.0000  0.0000  0.0000  0.0000  0.5126
   6.  C 1 (s)     -0.0067  0.6457 -1.5883  0.0000  0.0000  0.0000  0.0000  0.0000
   7.  C 1 (px)     0.0000  0.0000  0.0000  0.6149 -1.0500  0.0000  0.0000  0.0000
   8.  C 1 (py)     0.0000  0.0000  0.0000  0.0000  0.0000  0.6149 -1.0500  0.0000
   9.  C 1 (pz)     0.0000  0.0000  0.0000  0.0000  0.0000  0.0000  0.0000  0.6149
  10.  C 1 (d5)     0.0000  0.0000  0.0000  0.0000  0.0000  0.0000  0.0000  0.0000
  11.  C 1 (d2)     0.0000  0.0000  0.0000  0.0000  0.0000  0.0000  0.0000  0.0000
  12.  C 1 (d3)     0.0000  0.0000  0.0000  0.0000  0.0000  0.0000  0.0000  0.0000
  13.  C 1 (d4)     0.0000  0.0000  0.0000  0.0000  0.0000  0.0000  0.0000  0.0000
  14.  C 1 (d1)     0.0000  0.0000  0.0000  0.0000  0.0000  0.0000  0.0000  0.0000
  15.  N 2 (s)      0.0000  0.0000  0.0000  0.0000  0.0000  0.0000  0.0000  0.0000
  16.  N 2 (s)      0.0000  0.0000  0.0000  0.0000  0.0000  0.0000  0.0000  0.0000
  17.  N 2 (px)     0.0000  0.0000  0.0000  0.0000  0.0000  0.0000  0.0000  0.0000
  18.  N 2 (py)     0.0000  0.0000  0.0000  0.0000  0.0000  0.0000  0.0000  0.0000
  19.  N 2 (pz)     0.0000  0.0000  0.0000  0.0000  0.0000  0.0000  0.0000  0.0000
  20.  N 2 (s)      0.0000  0.0000  0.0000  0.0000  0.0000  0.0000  0.0000  0.0000
  21.  N 2 (px)     0.0000  0.0000  0.0000  0.0000  0.0000  0.0000  0.0000  0.0000
  22.  N 2 (py)     0.0000  0.0000  0.0000  0.0000  0.0000  0.0000  0.0000  0.0000
  23.  N 2 (pz)     0.0000  0.0000  0.0000  0.0000  0.0000  0.0000  0.0000  0.0000
  24.  N 2 (d5)     0.0000  0.0000  0.0000  0.0000  0.0000  0.0000  0.0000  0.0000
  25.  N 2 (d2)     0.0000  0.0000  0.0000  0.0000  0.0000  0.0000  0.0000  0.0000
  26.  N 2 (d3)     0.0000  0.0000  0.0000  0.0000  0.0000  0.0000  0.0000  0.0000
  27.  N 2 (d4)     0.0000  0.0000  0.0000  0.0000  0.0000  0.0000  0.0000  0.0000
  28.  N 2 (d1)     0.0000  0.0000  0.0000  0.0000  0.0000  0.0000  0.0000  0.0000
  29.  H 3 (s)      0.0000  0.0000  0.0000  0.0000  0.0000  0.0000  0.0000  0.0000
  30.  H 3 (s)      0.0000  0.0000  0.0000  0.0000  0.0000  0.0000  0.0000  0.0000

           AO          9      10      11      12      13      14      15      16
      ------------ ------- ------- ------- ------- ------- ------- ------- -------
   1.  C 1 (s)      0.0000  0.0000  0.0000  0.0000  0.0000  0.0000  0.0000  0.0000
   2.  C 1 (s)      0.0000  0.0000  0.0000  0.0000  0.0000  0.0000  0.0000  0.0000
   3.  C 1 (px)     0.0000  0.0000  0.0000  0.0000  0.0000  0.0000  0.0000  0.0000
   4.  C 1 (py)     0.0000  0.0000  0.0000  0.0000  0.0000  0.0000  0.0000  0.0000
   5.  C 1 (pz)     1.1036  0.0000  0.0000  0.0000  0.0000  0.0000  0.0000  0.0000
   6.  C 1 (s)      0.0000  0.0000  0.0000  0.0000  0.0000  0.0000  0.0000  0.0000
   7.  C 1 (px)     0.0000  0.0000  0.0000  0.0000  0.0000  0.0000  0.0000  0.0000
   8.  C 1 (py)     0.0000  0.0000  0.0000  0.0000  0.0000  0.0000  0.0000  0.0000
   9.  C 1 (pz)    -1.0500  0.0000  0.0000  0.0000  0.0000  0.0000  0.0000  0.0000
  10.  C 1 (d5)     0.0000  0.0000  0.0000  0.0000  0.0000  1.0000  0.0000  0.0000
  11.  C 1 (d2)     0.0000  0.0000  1.0000  0.0000  0.0000  0.0000  0.0000  0.0000
  12.  C 1 (d3)     0.0000  0.0000  0.0000  1.0000  0.0000  0.0000  0.0000  0.0000
  13.  C 1 (d4)     0.0000  0.0000  0.0000  0.0000  1.0000  0.0000  0.0000  0.0000
  14.  C 1 (d1)     0.0000  1.0000  0.0000  0.0000  0.0000  0.0000  0.0000  0.0000
  15.  N 2 (s)      0.0000  0.0000  0.0000  0.0000  0.0000  0.0000  0.9947 -0.2301
  16.  N 2 (s)      0.0000  0.0000  0.0000  0.0000  0.0000  0.0000  0.0232  0.4717
  17.  N 2 (px)     0.0000  0.0000  0.0000  0.0000  0.0000  0.0000  0.0000  0.0000
  18.  N 2 (py)     0.0000  0.0000  0.0000  0.0000  0.0000  0.0000  0.0000  0.0000
  19.  N 2 (pz)     0.0000  0.0000  0.0000  0.0000  0.0000  0.0000  0.0000  0.0000
  20.  N 2 (s)      0.0000  0.0000  0.0000  0.0000  0.0000  0.0000 -0.0007  0.6114
  21.  N 2 (px)     0.0000  0.0000  0.0000  0.0000  0.0000  0.0000  0.0000  0.0000
  22.  N 2 (py)     0.0000  0.0000  0.0000  0.0000  0.0000  0.0000  0.0000  0.0000
  23.  N 2 (pz)     0.0000  0.0000  0.0000  0.0000  0.0000  0.0000  0.0000  0.0000
  24.  N 2 (d5)     0.0000  0.0000  0.0000  0.0000  0.0000  0.0000  0.0000  0.0000
  25.  N 2 (d2)     0.0000  0.0000  0.0000  0.0000  0.0000  0.0000  0.0000  0.0000
  26.  N 2 (d3)     0.0000  0.0000  0.0000  0.0000  0.0000  0.0000  0.0000  0.0000
  27.  N 2 (d4)     0.0000  0.0000  0.0000  0.0000  0.0000  0.0000  0.0000  0.0000
  28.  N 2 (d1)     0.0000  0.0000  0.0000  0.0000  0.0000  0.0000  0.0000  0.0000
  29.  H 3 (s)      0.0000  0.0000  0.0000  0.0000  0.0000  0.0000  0.0000  0.0000
  30.  H 3 (s)      0.0000  0.0000  0.0000  0.0000  0.0000  0.0000  0.0000  0.0000

           AO         17      18      19      20      21      22      23      24
      ------------ ------- ------- ------- ------- ------- ------- ------- -------
   1.  C 1 (s)      0.0000  0.0000  0.0000  0.0000  0.0000  0.0000  0.0000  0.0000
   2.  C 1 (s)      0.0000  0.0000  0.0000  0.0000  0.0000  0.0000  0.0000  0.0000
   3.  C 1 (px)     0.0000  0.0000  0.0000  0.0000  0.0000  0.0000  0.0000  0.0000
   4.  C 1 (py)     0.0000  0.0000  0.0000  0.0000  0.0000  0.0000  0.0000  0.0000
   5.  C 1 (pz)     0.0000  0.0000  0.0000  0.0000  0.0000  0.0000  0.0000  0.0000
   6.  C 1 (s)      0.0000  0.0000  0.0000  0.0000  0.0000  0.0000  0.0000  0.0000
   7.  C 1 (px)     0.0000  0.0000  0.0000  0.0000  0.0000  0.0000  0.0000  0.0000
   8.  C 1 (py)     0.0000  0.0000  0.0000  0.0000  0.0000  0.0000  0.0000  0.0000
   9.  C 1 (pz)     0.0000  0.0000  0.0000  0.0000  0.0000  0.0000  0.0000  0.0000
  10.  C 1 (d5)     0.0000  0.0000  0.0000  0.0000  0.0000  0.0000  0.0000  0.0000
  11.  C 1 (d2)     0.0000  0.0000  0.0000  0.0000  0.0000  0.0000  0.0000  0.0000
  12.  C 1 (d3)     0.0000  0.0000  0.0000  0.0000  0.0000  0.0000  0.0000  0.0000
  13.  C 1 (d4)     0.0000  0.0000  0.0000  0.0000  0.0000  0.0000  0.0000  0.0000
  14.  C 1 (d1)     0.0000  0.0000  0.0000  0.0000  0.0000  0.0000  0.0000  0.0000
  15.  N 2 (s)     -0.0976  0.0000  0.0000  0.0000  0.0000  0.0000  0.0000  0.0000
  16.  N 2 (s)      1.5291  0.0000  0.0000  0.0000  0.0000  0.0000  0.0000  0.0000
  17.  N 2 (px)     0.0000  0.5128  1.0518  0.0000  0.0000  0.0000  0.0000  0.0000
  18.  N 2 (py)     0.0000  0.0000  0.0000  0.5128  1.0518  0.0000  0.0000  0.0000
  19.  N 2 (pz)     0.0000  0.0000  0.0000  0.0000  0.0000  0.5128  1.0518  0.0000
  20.  N 2 (s)     -1.4612  0.0000  0.0000  0.0000  0.0000  0.0000  0.0000  0.0000
  21.  N 2 (px)     0.0000  0.6326 -0.9844  0.0000  0.0000  0.0000  0.0000  0.0000
  22.  N 2 (py)     0.0000  0.0000  0.0000  0.6326 -0.9844  0.0000  0.0000  0.0000
  23.  N 2 (pz)     0.0000  0.0000  0.0000  0.0000  0.0000  0.6326 -0.9844  0.0000
  24.  N 2 (d5)     0.0000  0.0000  0.0000  0.0000  0.0000  0.0000  0.0000  0.0000
  25.  N 2 (d2)     0.0000  0.0000  0.0000  0.0000  0.0000  0.0000  0.0000  0.0000
  26.  N 2 (d3)     0.0000  0.0000  0.0000  0.0000  0.0000  0.0000  0.0000  0.0000
  27.  N 2 (d4)     0.0000  0.0000  0.0000  0.0000  0.0000  0.0000  0.0000  0.0000
  28.  N 2 (d1)     0.0000  0.0000  0.0000  0.0000  0.0000  0.0000  0.0000  1.0000
  29.  H 3 (s)      0.0000  0.0000  0.0000  0.0000  0.0000  0.0000  0.0000  0.0000
  30.  H 3 (s)      0.0000  0.0000  0.0000  0.0000  0.0000  0.0000  0.0000  0.0000

           AO         25      26      27      28      29      30
      ------------ ------- ------- ------- ------- ------- -------
   1.  C 1 (s)      0.0000  0.0000  0.0000  0.0000  0.0000  0.0000
   2.  C 1 (s)      0.0000  0.0000  0.0000  0.0000  0.0000  0.0000
   3.  C 1 (px)     0.0000  0.0000  0.0000  0.0000  0.0000  0.0000
   4.  C 1 (py)     0.0000  0.0000  0.0000  0.0000  0.0000  0.0000
   5.  C 1 (pz)     0.0000  0.0000  0.0000  0.0000  0.0000  0.0000
   6.  C 1 (s)      0.0000  0.0000  0.0000  0.0000  0.0000  0.0000
   7.  C 1 (px)     0.0000  0.0000  0.0000  0.0000  0.0000  0.0000
   8.  C 1 (py)     0.0000  0.0000  0.0000  0.0000  0.0000  0.0000
   9.  C 1 (pz)     0.0000  0.0000  0.0000  0.0000  0.0000  0.0000
  10.  C 1 (d5)     0.0000  0.0000  0.0000  0.0000  0.0000  0.0000
  11.  C 1 (d2)     0.0000  0.0000  0.0000  0.0000  0.0000  0.0000
  12.  C 1 (d3)     0.0000  0.0000  0.0000  0.0000  0.0000  0.0000
  13.  C 1 (d4)     0.0000  0.0000  0.0000  0.0000  0.0000  0.0000
  14.  C 1 (d1)     0.0000  0.0000  0.0000  0.0000  0.0000  0.0000
  15.  N 2 (s)      0.0000  0.0000  0.0000  0.0000  0.0000  0.0000
[...]
      0 hybrids eliminated in 1 pass
      8 hybrids moved from prospective to permanent list

 NHOs of 2-center eigenvectors projected from the NAO density matrix
       0.012 electrons remain in the fully projected matrix

 Search of NHO DM block for the following atom(s):   1
      Select eigenvectors with eigenvalue > 1.900
       2.000 0.009 0.000 0.000 0.000 0.000 0.000 0.000 0.000 0.000 0.000 0.000
       0.000 0.000
      Eigenvector ( 1) has occupancy 1.99999
            1.0000 0.0000 0.0000 0.0000 0.0000 0.0000 0.0000 0.0000
            0.0000 0.0000 0.0000 0.0000 0.0000 0.0000
           NBO accepted:    1. Label:CR ( 1)   1
        1 eigenvector(s) stashed in permanent list

 Search of NHO DM block for the following atom(s):   2
      Select eigenvectors with eigenvalue > 1.900
       2.000 1.985 0.002 0.000 0.000 0.000 0.000 0.000 0.000 0.000 0.000 0.000
       0.000 0.000
      Eigenvector ( 1) has occupancy 1.99999
            1.0000 0.0000 0.0000 0.0000 0.0000 0.0000 0.0000 0.0000
            0.0000 0.0000 0.0000 0.0000 0.0000 0.0000
           NBO accepted:    2. Label:CR ( 1)   2
      Eigenvector ( 2) has occupancy 1.98469
            0.0000 1.0000 0.0000 0.0000 0.0000 0.0000 0.0000 0.0000
            0.0000 0.0000 0.0000 0.0000 0.0000 0.0000
           NBO accepted:    3. Label:LP ( 1)   2
        2 eigenvector(s) stashed in permanent list

  1-center NBOs projected from the NHO density matrix
       8.015 electrons remain (>1.900); search continues

 Search of NHO DM block for the following atom(s):   1   2
      Select eigenvectors with eigenvalue > 1.900
       2.000 2.000 1.998 0.002 0.000 0.000 0.000 0.000 0.000 0.000 0.000 0.000
       0.000 0.000 0.000 0.000 0.000 0.000 0.000 0.000 0.000 0.000 0.000 0.000
       0.000 0.000 0.000 0.000
      Eigenvector ( 1) has occupancy 2.00000
            0.0000 0.6689 0.0333 0.0000 0.0000 0.0000 0.0000 0.0000
            0.0000 0.0000 0.0000 0.0000 0.0000 0.0000 0.0000 0.0000
            0.7417 0.0370 0.0000 0.0000 0.0000 0.0000 0.0000 0.0000
            0.0000 0.0000 0.0000 0.0000
      Occupancy is 2.000 after deleting minor hybrid components
            0.0000 0.6697 0.0000 0.0000 0.0000 0.0000 0.0000 0.0000
            0.0000 0.0000 0.0000 0.0000 0.0000 0.0000 0.0000 0.0000
            0.7426 0.0000 0.0000 0.0000 0.0000 0.0000 0.0000 0.0000
            0.0000 0.0000 0.0000 0.0000
           NBO accepted:    4. Label:BD ( 1)   1   2
      Occupancy is 0.000 for antibonding component
            0.0000 0.7426 0.0000 0.0000 0.0000 0.0000 0.0000 0.0000
            0.0000 0.0000 0.0000 0.0000 0.0000 0.0000 0.0000 0.0000
           -0.6697 0.0000 0.0000 0.0000 0.0000 0.0000 0.0000 0.0000
            0.0000 0.0000 0.0000 0.0000
           NBO accepted:    5. Label:BD*( 1)   1   2
      Eigenvector ( 2) has occupancy 2.00000
            0.0000-0.0333 0.6689 0.0000 0.0000 0.0000 0.0000 0.0000
            0.0000 0.0000 0.0000 0.0000 0.0000 0.0000 0.0000 0.0000
           -0.0370 0.7417 0.0000 0.0000 0.0000 0.0000 0.0000 0.0000
            0.0000 0.0000 0.0000 0.0000
      Occupancy is 2.000 after deleting minor hybrid components
            0.0000 0.0000 0.6697 0.0000 0.0000 0.0000 0.0000 0.0000
            0.0000 0.0000 0.0000 0.0000 0.0000 0.0000 0.0000 0.0000
            0.0000 0.7426 0.0000 0.0000 0.0000 0.0000 0.0000 0.0000
            0.0000 0.0000 0.0000 0.0000
           NBO accepted:    6. Label:BD ( 2)   1   2
      Occupancy is 0.000 for antibonding component
            0.0000 0.0000 0.7426 0.0000 0.0000 0.0000 0.0000 0.0000
            0.0000 0.0000 0.0000 0.0000 0.0000 0.0000 0.0000 0.0000
            0.0000-0.6697 0.0000 0.0000 0.0000 0.0000 0.0000 0.0000
            0.0000 0.0000 0.0000 0.0000
           NBO accepted:    7. Label:BD*( 2)   1   2
      Eigenvector ( 3) has occupancy 1.99774
            0.0000 0.0000 0.0000 0.6470 0.0000 0.0000 0.0000 0.0000
            0.0000 0.0000 0.0000 0.0000 0.0000 0.0000 0.0000 0.0000
            0.0000 0.0000 0.7625 0.0000 0.0000 0.0000 0.0000 0.0000
            0.0000 0.0000 0.0000 0.0000
      Occupancy is 1.998 after deleting minor hybrid components
            0.0000 0.0000 0.0000 0.6470 0.0000 0.0000 0.0000 0.0000
            0.0000 0.0000 0.0000 0.0000 0.0000 0.0000 0.0000 0.0000
            0.0000 0.0000 0.7625 0.0000 0.0000 0.0000 0.0000 0.0000
            0.0000 0.0000 0.0000 0.0000
           NBO accepted:    8. Label:BD ( 3)   1   2
      Occupancy is 0.002 for antibonding component
            0.0000 0.0000 0.0000 0.7625 0.0000 0.0000 0.0000 0.0000
            0.0000 0.0000 0.0000 0.0000 0.0000 0.0000 0.0000 0.0000
            0.0000 0.0000-0.6470 0.0000 0.0000 0.0000 0.0000 0.0000
            0.0000 0.0000 0.0000 0.0000
           NBO accepted:    9. Label:BD*( 3)   1   2
        6 eigenvector(s) stashed in permanent list

 Search of NHO DM block for the following atom(s):   1   3
      Select eigenvectors with eigenvalue > 1.900
       1.995 0.008 0.000 0.000 0.000 0.000 0.000 0.000 0.000 0.000 0.000 0.000
       0.000 0.000 0.000 0.000
      Eigenvector ( 1) has occupancy 1.99540
            0.0000 0.0000 0.0000 0.0000 0.7887 0.0000 0.0000 0.0000
            0.0000 0.0000 0.0000 0.0000 0.0000 0.0000 0.6148 0.0000
      Occupancy is 1.995 after deleting minor hybrid components
            0.0000 0.0000 0.0000 0.0000 0.7887 0.0000 0.0000 0.0000
            0.0000 0.0000 0.0000 0.0000 0.0000 0.0000 0.6148 0.0000
           NBO accepted:   10. Label:BD ( 1)   1   3
      Occupancy is 0.008 for antibonding component
            0.0000 0.0000 0.0000 0.0000-0.6148 0.0000 0.0000 0.0000
            0.0000 0.0000 0.0000 0.0000 0.0000 0.0000 0.7887 0.0000
           NBO accepted:   11. Label:BD*( 1)   1   3
        2 eigenvector(s) stashed in permanent list

  2-center NBOs projected from the NHO density matrix
       0.012 electrons remain in the fully projected matrix

                            Occupancies       Lewis Structure    Low   High
         Max    Occ     -------------------  -----------------   occ   occ
  Cycle  Ctr   Thresh    Lewis   non-Lewis     CR  BD  nC  LP    (L)   (NL)
 ============================================================================
    1     2     1.90    13.97782   0.02218      2   4   0   1     0      0
 ----------------------------------------------------------------------------

 Structure accepted: No low occupancy Lewis orbitals

 -------------------------------------------------------
   Core                      3.99998 (100.000% of   4)
   Valence Lewis             9.97784 ( 99.778% of  10)
  ==================      =============================
   Total Lewis              13.97782 ( 99.842% of  14)
  -----------------------------------------------------
   Valence non-Lewis         0.01008 (  0.072% of  14)
   Rydberg non-Lewis         0.01210 (  0.086% of  14)
  ==================      =============================
   Total non-Lewis           0.02218 (  0.158% of  14)
 -------------------------------------------------------


     (Occupancy)   Bond orbital / Coefficients / Hybrids
 ------------------ Lewis ------------------------------------------------------
   1. (1.99999) CR ( 1) C  1            s(100.00%)
                                         1.0000  0.0000  0.0000  0.0000  0.0000
                                         0.0000  0.0000  0.0000  0.0000  0.0000
                                         0.0000  0.0000  0.0000  0.0000
   2. (1.99999) CR ( 1) N  2            s(100.00%)
                                         1.0000  0.0000  0.0000  0.0000  0.0000
                                         0.0000  0.0000  0.0000  0.0000  0.0000
                                         0.0000  0.0000  0.0000  0.0000
   3. (1.98469) LP ( 1) N  2            s( 53.94%)p 0.85( 46.00%)d 0.00(  0.06%)
                                         0.0000  0.7339 -0.0295  0.0000  0.0000
                                         0.0000  0.0000  0.6781 -0.0091  0.0000
                                         0.0000  0.0000  0.0000 -0.0250
   4. (2.00000) BD ( 1) C  1- N  2
               ( 44.85%)   0.6697* C  1 s(  0.00%)p 1.00( 99.74%)d 0.00(  0.26%)
                                         0.0000  0.0000  0.0000  0.8895 -0.0175
                                         0.4536 -0.0089  0.0000  0.0000  0.0000
                                         0.0458  0.0234  0.0000  0.0000
               ( 55.15%)   0.7426* N  2 s(  0.00%)p 1.00( 99.47%)d 0.01(  0.53%)
                                         0.0000  0.0000  0.0000  0.8885 -0.0025
                                         0.4531 -0.0013  0.0000  0.0000  0.0000
                                        -0.0645 -0.0329  0.0000  0.0000
   5. (2.00000) BD ( 2) C  1- N  2
               ( 44.85%)   0.6697* C  1 s(  0.00%)p 1.00( 99.74%)d 0.00(  0.26%)
                                         0.0000  0.0000  0.0000 -0.4536  0.0089
                                         0.8895 -0.0175  0.0000  0.0000  0.0000
                                        -0.0234  0.0458  0.0000  0.0000
               ( 55.15%)   0.7426* N  2 s(  0.00%)p 1.00( 99.47%)d 0.01(  0.53%)
                                         0.0000  0.0000  0.0000 -0.4531  0.0013
                                         0.8885 -0.0025  0.0000  0.0000  0.0000
                                         0.0329 -0.0645  0.0000  0.0000
   6. (1.99774) BD ( 3) C  1- N  2
               ( 41.87%)   0.6470* C  1 s( 48.34%)p 1.07( 51.52%)d 0.00(  0.14%)
                                         0.0000  0.6921  0.0661  0.0000  0.0000
                                         0.0000  0.0000  0.7142  0.0719  0.0000
                                         0.0000  0.0000  0.0000  0.0376
               ( 58.13%)   0.7625* N  2 s( 46.32%)p 1.15( 53.23%)d 0.01(  0.45%)
                                         0.0000  0.6782  0.0574  0.0000  0.0000
                                         0.0000  0.0000 -0.7292 -0.0231  0.0000
                                         0.0000  0.0000  0.0000  0.0671
   7. (1.99540) BD ( 1) C  1- H  3
               ( 62.20%)   0.7887* C  1 s( 51.68%)p 0.93( 48.19%)d 0.00(  0.13%)
                                         0.0000  0.7176 -0.0437  0.0000  0.0000
                                         0.0000  0.0000 -0.6941  0.0090  0.0000
                                         0.0000  0.0000  0.0000  0.0356
               ( 37.80%)   0.6148* H  3 s(100.00%)
                                         1.0000  0.0021
 ---------------- non-Lewis ----------------------------------------------------
   8. (0.00000) BD*( 1) C  1- N  2
               ( 55.15%)   0.7426* C  1 s(  0.00%)p 1.00( 99.74%)d 0.00(  0.26%)
               ( 44.85%)  -0.6697* N  2 s(  0.00%)p 1.00( 99.47%)d 0.01(  0.53%)
   9. (0.00000) BD*( 2) C  1- N  2
               ( 55.15%)   0.7426* C  1 s(  0.00%)p 1.00( 99.74%)d 0.00(  0.26%)
               ( 44.85%)  -0.6697* N  2 s(  0.00%)p 1.00( 99.47%)d 0.01(  0.53%)
  10. (0.00216) BD*( 3) C  1- N  2
               ( 58.13%)   0.7625* C  1 s( 48.34%)p 1.07( 51.52%)d 0.00(  0.14%)
                                         0.0000  0.6921  0.0661  0.0000  0.0000
                                         0.0000  0.0000  0.7142  0.0719  0.0000
                                         0.0000  0.0000  0.0000  0.0376
               ( 41.87%)  -0.6470* N  2 s( 46.32%)p 1.15( 53.23%)d 0.01(  0.45%)
                                         0.0000  0.6782  0.0574  0.0000  0.0000
                                         0.0000  0.0000 -0.7292 -0.0231  0.0000
                                         0.0000  0.0000  0.0000  0.0671
  11. (0.00792) BD*( 1) C  1- H  3
               ( 37.80%)   0.6148* C  1 s( 51.68%)p 0.93( 48.19%)d 0.00(  0.13%)
                                         0.0000 -0.7176  0.0437  0.0000  0.0000
                                         0.0000  0.0000  0.6941 -0.0090  0.0000
                                         0.0000  0.0000  0.0000 -0.0356
               ( 62.20%)  -0.7887* H  3 s(100.00%)
                                        -1.0000 -0.0021
  12. (0.00929) RY ( 1) C  1            s( 35.27%)p 1.83( 64.70%)d 0.00(  0.03%)
                                         0.0000 -0.0550  0.5913  0.0000  0.0000
                                         0.0000  0.0000 -0.0828  0.8001  0.0000
                                         0.0000  0.0000  0.0000  0.0170
  13. (0.00000) RY ( 2) C  1            s(  8.73%)p 0.66(  5.79%)d 9.80( 85.49%)
  14. (0.00000) RY ( 3) C  1            s(  0.00%)p 1.00( 86.23%)d 0.16( 13.77%)
  15. (0.00000) RY ( 4) C  1            s(  0.00%)p 1.00( 14.04%)d 6.12( 85.96%)
  16. (0.00000) RY ( 5) C  1            s(  0.00%)p 0.00(  0.00%)d 1.00(100.00%)
  17. (0.00000) RY ( 6) C  1            s(  0.00%)p 0.00(  0.00%)d 1.00(100.00%)
  18. (0.00000) RY ( 7) C  1            s(  0.00%)p 1.00(  1.21%)d81.64( 98.79%)
  19. (0.00000) RY ( 8) C  1            s( 55.99%)p 0.53( 29.80%)d 0.25( 14.22%)
  20. (0.00000) RY ( 9) C  1            s(  0.00%)p 1.00( 99.05%)d 0.01(  0.95%)
  21. (0.00246) RY ( 1) N  2            s( 78.23%)p 0.21( 16.04%)d 0.07(  5.72%)
                                         0.0000 -0.0308  0.8840  0.0000  0.0000
                                         0.0000  0.0000  0.0753 -0.3934  0.0000
                                         0.0000  0.0000  0.0000  0.2392
  22. (0.00000) RY ( 2) N  2            s( 21.13%)p 3.14( 66.37%)d 0.59( 12.50%)
  23. (0.00000) RY ( 3) N  2            s(  0.00%)p 0.00(  0.00%)d 1.00(100.00%)
  24. (0.00000) RY ( 4) N  2            s(  0.00%)p 1.00(  0.12%)d99.99( 99.88%)
  25. (0.00000) RY ( 5) N  2            s(  0.00%)p 1.00(  6.83%)d13.65( 93.17%)
  26. (0.00000) RY ( 6) N  2            s(  0.00%)p 1.00( 71.79%)d 0.39( 28.21%)
  27. (0.00000) RY ( 7) N  2            s(  0.00%)p 1.00( 93.58%)d 0.07(  6.42%)
  28. (0.00000) RY ( 8) N  2            s(  0.37%)p48.98( 18.36%)d99.99( 81.27%)
  29. (0.00000) RY ( 9) N  2            s(  0.00%)p 1.00( 28.73%)d 2.48( 71.27%)
  30. (0.00035) RY ( 1) H  3            s(100.00%)
                                        -0.0021  1.0000


 NHO DIRECTIONALITY AND BOND BENDING (deviation from line of nuclear centers at
                                      the position of maximum hybrid amplitude)

         [Thresholds for printing:  angular deviation  >  1.0 degree]
                                    p- or d-character  > 25.0%
                                    orbital occupancy  >  0.10e

                        Line of Centers        Hybrid 1             Hybrid 2
                        ---------------  -------------------  ------------------
           NBO            Theta   Phi    Theta   Phi    Dev   Theta   Phi    Dev
 ===============================================================================
   3. LP ( 1) N  2          --     --      0.0    0.0   --      --     --    --
   4. BD ( 1) C  1- N  2    0.0    0.0    88.1   27.0  88.1    91.5   27.0  88.5
   5. BD ( 2) C  1- N  2    0.0    0.0    88.1  117.0  88.1    91.5  117.0  88.5


 SECOND ORDER PERTURBATION THEORY ANALYSIS OF FOCK MATRIX IN NBO BASIS

     Threshold for printing:   0.50 kcal/mol
                                                          E(2) E(NL)-E(L) F(L,NL)
      Donor (L) NBO              Acceptor (NL) NBO      kcal/mol   a.u.    a.u.
 ===============================================================================

 within unit  1
    3. LP ( 1) N  2            11. BD*( 1) C  1- H  3      6.91    1.35   0.086
    3. LP ( 1) N  2            12. RY ( 1) C  1            9.30    1.34   0.100
    6. BD ( 3) C  1- N  2      11. BD*( 1) C  1- H  3      2.92    1.87   0.066
    7. BD ( 1) C  1- H  3      10. BD*( 3) C  1- N  2      1.96    2.02   0.056
    7. BD ( 1) C  1- H  3      21. RY ( 1) N  2            2.87    2.37   0.074


 NATURAL BOND ORBITALS (Summary):

                                                     Principal Delocalizations
           NBO                 Occupancy    Energy   (geminal,vicinal,remote)
 ===============================================================================
 Molecular unit  1  (CHN)
 ------ Lewis --------------------------------------
    1. CR ( 1) C  1             1.99999   -11.30050
    2. CR ( 1) N  2             1.99999   -15.61140
    3. LP ( 1) N  2             1.98469    -0.63253  12(v),11(v)
    4. BD ( 1) C  1- N  2       2.00000    -0.48353
    5. BD ( 2) C  1- N  2       2.00000    -0.48353
    6. BD ( 3) C  1- N  2       1.99774    -1.14820  11(g)
    7. BD ( 1) C  1- H  3       1.99540    -0.80968  21(v),10(g)
 ------ non-Lewis ----------------------------------
    8. BD*( 1) C  1- N  2       0.00000     0.27370
    9. BD*( 2) C  1- N  2       0.00000     0.27370
   10. BD*( 3) C  1- N  2       0.00216     1.21145
   11. BD*( 1) C  1- H  3       0.00792     0.71939
   12. RY ( 1) C  1             0.00929     0.71136
   13. RY ( 2) C  1             0.00000     2.67482
   14. RY ( 3) C  1             0.00000     0.97337
   15. RY ( 4) C  1             0.00000     2.11020
   16. RY ( 5) C  1             0.00000     1.98784
   17. RY ( 6) C  1             0.00000     1.98784
   18. RY ( 7) C  1             0.00000     2.33642
   19. RY ( 8) C  1             0.00000     1.25951
   20. RY ( 9) C  1             0.00000     0.74720
   21. RY ( 1) N  2             0.00246     1.56334
   22. RY ( 2) N  2             0.00000     1.36927
   23. RY ( 3) N  2             0.00000     2.04398
   24. RY ( 4) N  2             0.00000     2.04600
   25. RY ( 5) N  2             0.00000     2.15744
   26. RY ( 6) N  2             0.00000     1.43481
   27. RY ( 7) N  2             0.00000     1.12402
   28. RY ( 8) N  2             0.00000     2.67483
   29. RY ( 9) N  2             0.00000     1.84870
   30. RY ( 1) H  3             0.00035     0.63173
          -------------------------------
                 Total Lewis   13.97782  ( 99.8416%)
           Valence non-Lewis    0.01008  (  0.0720%)
           Rydberg non-Lewis    0.01210  (  0.0864%)
          -------------------------------
               Total unit  1   14.00000  (100.0000%)
              Charge unit  1    0.00000

 $CHOOSE
   LONE 2 1 END
   BOND T 1 2 S 1 3 END
 $END

 NBO analysis completed in 0.27 CPU seconds (0 wall seconds)
 Maximum scratch memory used by NBO was 319610 words (2.44 MB)
 Maximum scratch memory used by G16NBO was 9628 words (0.07 MB)

 Opening RunExU unformatted file "/cluster/work/users/beto93/mol27/Gau-1175804.EUF"
 Read unf file /cluster/work/users/beto93/mol27/Gau-1175804.EUF:
 Label Gaussian matrix elements                                         IVers= 2 NLab= 2 Version=ES64L-G16RevC.01
 Title mol27-NBO                                                       
 NAtoms=     3 NBasis=    30 NBsUse=    30 ICharg=     0 Multip=     1 NE=    14 Len12L=8 Len4L=8 IOpCl= 0 ICGU=111
 GAUSSIAN SCALARS                    NI= 1 NR= 1 NTot=       1 LenBuf=    2 NRI=1 N=    1000
 NPA CHARGES                         NI= 0 NR= 1 NTot=       3 LenBuf= 4000 NRI=1 N=       3
 Recovered energy= -92.8695257069     dipole=     -0.000000000000     -0.000000000000     -1.279510827776
 Unable to Open any file for archive entry.
 1\1\GINC-C3-20\SP\RHF\6-31G(d)\C1H1N1\BETO93\18-Nov-2024\0\\#RHF/6-31G
 * int=nobasistransform Symmetry=None 5D 7F Pop=NBO7Read\\mol27-NBO\\0,
 1\C,0,0.,0.,-0.511747\N,0,0.,0.,0.664461\H,0,0.,0.,-1.580746\\Version=
 ES64L-G16RevC.01\HF=-92.8695257\RMSD=2.984e-09\Dipole=0.,0.,-1.2795108
 \Quadrupole=-0.5691125,-0.5691125,1.1382249,0.,0.,0.\PG=Unknown\\@
 The archive entry for this job was punched.


 ART, GLORY, FREEDOM FAIL, BUT NATURE STILL IS FAIR.

                                           -- BYRON
 Job cpu time:       0 days  0 hours  0 minutes  7.5 seconds.
 Elapsed time:       0 days  0 hours  0 minutes  2.4 seconds.
 File lengths (MBytes):  RWF=     10 Int=      0 D2E=      0 Chk=      1 Scr=      1
 Normal termination of Gaussian 16 at Mon Nov 18 16:40:06 2024.
