 Entering Gaussian System, Link 0=g16
 Initial command:
 /cluster/software/Gaussian/g16_C.01/l1.exe "/cluster/work/users/beto93/mol89/Gau-1877047.inp" -scrdir="/cluster/work/users/beto93/mol89/"
 Entering Link 1 = /cluster/software/Gaussian/g16_C.01/l1.exe PID=   1877058.
  
 Copyright (c) 1988-2019, Gaussian, Inc.  All Rights Reserved.
  
 This is part of the Gaussian(R) 16 program.  It is based on
 the Gaussian(R) 09 system (copyright 2009, Gaussian, Inc.),
 the Gaussian(R) 03 system (copyright 2003, Gaussian, Inc.),
 the Gaussian(R) 98 system (copyright 1998, Gaussian, Inc.),
 the Gaussian(R) 94 system (copyright 1995, Gaussian, Inc.),
 the Gaussian 92(TM) system (copyright 1992, Gaussian, Inc.),
 the Gaussian 90(TM) system (copyright 1990, Gaussian, Inc.),
 the Gaussian 88(TM) system (copyright 1988, Gaussian, Inc.),
 the Gaussian 86(TM) system (copyright 1986, Carnegie Mellon
 University), and the Gaussian 82(TM) system (copyright 1983,
 Carnegie Mellon University). Gaussian is a federally registered
 trademark of Gaussian, Inc.
  
 This software contains proprietary and confidential information,
 including trade secrets, belonging to Gaussian, Inc.
  
 This software is provided under written license and may be
 used, copied, transmitted, or stored only in accord with that
 written license.
  
 The following legend is applicable only to US Government
 contracts under FAR:
  
                    RESTRICTED RIGHTS LEGEND
  
 Use, reproduction and disclosure by the US Government is
 subject to restrictions as set forth in subparagraphs (a)
 and (c) of the Commercial Computer Software - Restricted
 Rights clause in FAR 52.227-19.
  
 Gaussian, Inc.
 340 Quinnipiac St., Bldg. 40, Wallingford CT 06492
  
  
 ---------------------------------------------------------------
 Warning -- This program may not be used in any manner that
 competes with the business of Gaussian, Inc. or will provide
 assistance to any competitor of Gaussian, Inc.  The licensee
 of this program is prohibited from giving any competitor of
 Gaussian, Inc. access to this program.  By using this program,
 the user acknowledges that Gaussian, Inc. is engaged in the
 business of creating and licensing software in the field of
 computational chemistry and represents and warrants to the
 licensee that it is not a competitor of Gaussian, Inc. and that
 it will not use this program in any manner prohibited above.
 ---------------------------------------------------------------
  

 Cite this work as:
 Gaussian 16, Revision C.01,
 M. J. Frisch, G. W. Trucks, H. B. Schlegel, G. E. Scuseria, 
 M. A. Robb, J. R. Cheeseman, G. Scalmani, V. Barone, 
 G. A. Petersson, H. Nakatsuji, X. Li, M. Caricato, A. V. Marenich, 
 J. Bloino, B. G. Janesko, R. Gomperts, B. Mennucci, H. P. Hratchian, 
 J. V. Ortiz, A. F. Izmaylov, J. L. Sonnenberg, D. Williams-Young, 
 F. Ding, F. Lipparini, F. Egidi, J. Goings, B. Peng, A. Petrone, 
 T. Henderson, D. Ranasinghe, V. G. Zakrzewski, J. Gao, N. Rega, 
 G. Zheng, W. Liang, M. Hada, M. Ehara, K. Toyota, R. Fukuda, 
 J. Hasegawa, M. Ishida, T. Nakajima, Y. Honda, O. Kitao, H. Nakai, 
 T. Vreven, K. Throssell, J. A. Montgomery, Jr., J. E. Peralta, 
 F. Ogliaro, M. J. Bearpark, J. J. Heyd, E. N. Brothers, K. N. Kudin, 
 V. N. Staroverov, T. A. Keith, R. Kobayashi, J. Normand, 
 K. Raghavachari, A. P. Rendell, J. C. Burant, S. S. Iyengar, 
 J. Tomasi, M. Cossi, J. M. Millam, M. Klene, C. Adamo, R. Cammi, 
 J. W. Ochterski, R. L. Martin, K. Morokuma, O. Farkas, 
 J. B. Foresman, and D. J. Fox, Gaussian, Inc., Wallingford CT, 2019.
 
 ******************************************
 Gaussian 16:  ES64L-G16RevC.01  3-Jul-2019
                18-Nov-2024 
 ******************************************
 %LindaWorkers=c5-11-ib
 %NProcShared=4
 Will use up to    4 processors via shared memory.
 %mem=25GB
 %chk=mol89.chk
 SetLPE:    new flags="-opt 'Tsnet.Node.lindarsharg: ssh'  -nodelist 'c5-11-ib.saga' -env GAUSS_MDEF=3355443200 -env GAUSS_EXEDIR="/cluster/software/Gaussian/g16_C.01/bsd:/cluster/software/Gaussian/g16_C.01""
 Will use up to    1 processors via Linda.
 -----------------------------------------------------------------
 #RHF/STO-3G int=nobasistransform Symmetry=None 5D 7F Pop=NBO7Read
 -----------------------------------------------------------------
 1/38=1,163=2,172=1/1;
 2/12=2,15=3,17=6,18=5,40=1/2;
 3/6=3,8=11,11=1,25=1,30=1,60=-1,116=1/1,2,3;
 4//1;
 5/5=2,38=5/2;
 6/7=2,8=2,9=2,10=2,28=1,40=2,113=1,114=1,124=2103/1,12;
 99/5=1,9=1/99;
 ---------
 mol89-NBO
 ---------
 Symbolic Z-matrix:
 Charge =  0 Multiplicity = 1
 C                     0.70258   1.82087   0. 
 C                     0.70258   0.29633   0. 
 C                    -0.70258  -0.29633   0. 
 C                    -0.70258  -1.82087   0. 
 H                     1.71981   2.22234   0. 
 H                    -1.71981  -2.22234   0. 
 H                     0.18815   2.21036   0.88361 
 H                     0.18815   2.21036  -0.88361 
 H                    -0.18815  -2.21036   0.88361 
 H                    -0.18815  -2.21036  -0.88361 
 H                     1.24771  -0.07266  -0.87757 
 H                     1.24771  -0.07266   0.87757 
 H                    -1.24771   0.07266  -0.87757 
 H                    -1.24771   0.07266   0.87757 
 
                          Input orientation:                          
 ---------------------------------------------------------------------
 Center     Atomic      Atomic             Coordinates (Angstroms)
 Number     Number       Type             X           Y           Z
 ---------------------------------------------------------------------
      1          6           0        0.702581    1.820873    0.000000
      2          6           0        0.702581    0.296325    0.000000
      3          6           0       -0.702581   -0.296325    0.000000
      4          6           0       -0.702581   -1.820873    0.000000
      5          1           0        1.719809    2.222340    0.000000
      6          1           0       -1.719809   -2.222340    0.000000
      7          1           0        0.188154    2.210362    0.883614
      8          1           0        0.188154    2.210362   -0.883614
      9          1           0       -0.188154   -2.210362    0.883614
     10          1           0       -0.188154   -2.210362   -0.883614
     11          1           0        1.247707   -0.072660   -0.877569
     12          1           0        1.247707   -0.072660    0.877569
     13          1           0       -1.247707    0.072660   -0.877569
     14          1           0       -1.247707    0.072660    0.877569
 ---------------------------------------------------------------------
                    Distance matrix (angstroms):
                    1          2          3          4          5
     1  C    0.000000
     2  C    1.524548   0.000000
     3  C    2.541064   1.525029   0.000000
     4  C    3.903434   2.541064   1.524548   0.000000
     5  H    1.093585   2.178138   3.494517   4.713337   0.000000
     6  H    4.713337   3.494517   2.178138   1.093585   5.620156
     7  H    1.094125   2.170011   2.803152   4.221971   1.768300
     8  H    1.094125   2.170011   2.803152   4.221971   1.768300
     9  H    4.221971   2.803152   2.170011   1.094125   4.906113
    10  H    4.221971   2.803152   2.170011   1.094125   4.906113
    11  H    2.157025   1.097014   2.150297   2.762245   2.502006
    12  H    2.157025   1.097014   2.150297   2.762245   2.502006
    13  H    2.762245   2.150297   1.097014   2.157025   3.767944
    14  H    2.762245   2.150297   1.097014   2.157025   3.767944
                    6          7          8          9         10
     6  H    0.000000
     7  H    4.906113   0.000000
     8  H    4.906113   1.767228   0.000000
     9  H    1.768300   4.436711   4.775720   0.000000
    10  H    1.768300   4.775720   4.436711   1.767228   0.000000
    11  H    3.767944   3.071906   2.516918   3.119813   2.575171
    12  H    3.767944   2.516918   3.071906   2.575171   3.119813
    13  H    2.502006   3.119813   2.575171   3.071906   2.516918
    14  H    2.502006   2.575171   3.119813   2.516918   3.071906
                   11         12         13         14
    11  H    0.000000
    12  H    1.755138   0.000000
    13  H    2.499642   3.054295   0.000000
    14  H    3.054295   2.499642   1.755138   0.000000
 Symmetry turned off by external request.
 Stoichiometry    C4H10
 Rotational constants (GHZ):          23.4865627           3.6512197           3.4279891
 Standard basis: STO-3G (5D, 7F)
    30 basis functions,    90 primitive gaussians,    30 cartesian basis functions
    17 alpha electrons       17 beta electrons
       nuclear repulsion energy       130.8053167653 Hartrees.
 NAtoms=   14 NActive=   14 NUniq=   14 SFac= 1.00D+00 NAtFMM=   60 NAOKFM=F Big=F
 Integral buffers will be    131072 words long.
 Raffenetti 1 integral format.
 Two-electron integral symmetry is turned off.
 One-electron integrals computed using PRISM.
 NBasis=    30 RedAO= T EigKep=  2.00D-01  NBF=    30
 NBsUse=    30 1.00D-06 EigRej= -1.00D+00 NBFU=    30
 ExpMin= 1.69D-01 ExpMax= 7.16D+01 ExpMxC= 7.16D+01 IAcc=3 IRadAn=         5 AccDes= 0.00D+00
 Harris functional with IExCor=  205 and IRadAn=       5 diagonalized for initial guess.
 HarFok:  IExCor=  205 AccDes= 0.00D+00 IRadAn=         5 IDoV= 1 UseB2=F ITyADJ=14
 ICtDFT=  3500011 ScaDFX=  1.000000  1.000000  1.000000  1.000000
 FoFCou: FMM=F IPFlag=           0 FMFlag=      100000 FMFlg1=           0
         NFxFlg=           0 DoJE=T BraDBF=F KetDBF=T FulRan=T
         wScrn=  0.000000 ICntrl=       500 IOpCl=  0 I1Cent=   200000004 NGrid=           0
         NMat0=    1 NMatS0=      1 NMatT0=    0 NMatD0=    1 NMtDS0=    0 NMtDT0=    0
 Symmetry not used in FoFCou.
 Keep R1 ints in memory in canonical form, NReq=931800.
 Requested convergence on RMS density matrix=1.00D-08 within 128 cycles.
 Requested convergence on MAX density matrix=1.00D-06.
 Requested convergence on             energy=1.00D-06.
 No special actions if energy rises.
 SCF Done:  E(RHF) =  -155.465338763     A.U. after    8 cycles
            NFock=  8  Conv=0.63D-08     -V/T= 2.0088

 **********************************************************************

            Population analysis using the SCF Density.

 **********************************************************************

 Alpha  occ. eigenvalues --  -11.03899 -11.03872 -11.03250 -11.03248  -1.03258
 Alpha  occ. eigenvalues --   -0.94314  -0.82510  -0.75491  -0.61024  -0.55527
 Alpha  occ. eigenvalues --   -0.54309  -0.53873  -0.48399  -0.46438  -0.43214
 Alpha  occ. eigenvalues --   -0.42629  -0.41881
 Alpha virt. eigenvalues --    0.59922   0.60348   0.66647   0.67580   0.68225
 Alpha virt. eigenvalues --    0.73225   0.74737   0.75757   0.76937   0.77873
 Alpha virt. eigenvalues --    0.79186   0.80330   0.82514
          Condensed to atoms (all electrons):
               1          2          3          4          5          6
     1  C    4.728440   0.366373  -0.022319   0.000710   0.383262  -0.000015
     2  C    0.366373   4.729024   0.366321  -0.022319  -0.019586   0.001233
     3  C   -0.022319   0.366321   4.729024   0.366373   0.001233  -0.019586
     4  C    0.000710  -0.022319   0.366373   4.728440  -0.000015   0.383262
     5  H    0.383262  -0.019586   0.001233  -0.000015   0.626637   0.000000
     6  H   -0.000015   0.001233  -0.019586   0.383262   0.000000   0.626637
     7  H    0.382473  -0.021025  -0.002100   0.000007  -0.021738  -0.000000
     8  H    0.382473  -0.021025  -0.002100   0.000007  -0.021738  -0.000000
     9  H    0.000007  -0.002100  -0.021025   0.382473  -0.000000  -0.021738
    10  H    0.000007  -0.002100  -0.021025   0.382473  -0.000000  -0.021738
    11  H   -0.022384   0.381728  -0.023080  -0.002165  -0.002151   0.000009
    12  H   -0.022384   0.381728  -0.023080  -0.002165  -0.002151   0.000009
    13  H   -0.002165  -0.023080   0.381728  -0.022384   0.000009  -0.002151
    14  H   -0.002165  -0.023080   0.381728  -0.022384   0.000009  -0.002151
               7          8          9         10         11         12
     1  C    0.382473   0.382473   0.000007   0.000007  -0.022384  -0.022384
     2  C   -0.021025  -0.021025  -0.002100  -0.002100   0.381728   0.381728
     3  C   -0.002100  -0.002100  -0.021025  -0.021025  -0.023080  -0.023080
     4  C    0.000007   0.000007   0.382473   0.382473  -0.002165  -0.002165
     5  H   -0.021738  -0.021738  -0.000000  -0.000000  -0.002151  -0.002151
     6  H   -0.000000  -0.000000  -0.021738  -0.021738   0.000009   0.000009
     7  H    0.629766  -0.021949   0.000002  -0.000001   0.001898  -0.002246
     8  H   -0.021949   0.629766  -0.000001   0.000002  -0.002246   0.001898
     9  H    0.000002  -0.000001   0.629766  -0.021949  -0.000005   0.000382
    10  H   -0.000001   0.000002  -0.021949   0.629766   0.000382  -0.000005
    11  H    0.001898  -0.002246  -0.000005   0.000382   0.642730  -0.023860
    12  H   -0.002246   0.001898   0.000382  -0.000005  -0.023860   0.642730
    13  H   -0.000005   0.000382   0.001898  -0.002246  -0.002382   0.001971
    14  H    0.000382  -0.000005  -0.002246   0.001898   0.001971  -0.002382
              13         14
     1  C   -0.002165  -0.002165
     2  C   -0.023080  -0.023080
     3  C    0.381728   0.381728
     4  C   -0.022384  -0.022384
     5  H    0.000009   0.000009
     6  H   -0.002151  -0.002151
     7  H   -0.000005   0.000382
     8  H    0.000382  -0.000005
     9  H    0.001898  -0.002246
    10  H   -0.002246   0.001898
    11  H   -0.002382   0.001971
    12  H    0.001971  -0.002382
    13  H    0.642730  -0.023860
    14  H   -0.023860   0.642730
 Mulliken charges:
               1
     1  C   -0.172314
     2  C   -0.092093
     3  C   -0.092093
     4  C   -0.172314
     5  H    0.056230
     6  H    0.056230
     7  H    0.054534
     8  H    0.054534
     9  H    0.054534
    10  H    0.054534
    11  H    0.049554
    12  H    0.049554
    13  H    0.049554
    14  H    0.049554
 Sum of Mulliken charges =  -0.00000
 Mulliken charges with hydrogens summed into heavy atoms:
               1
     1  C   -0.007015
     2  C    0.007015
     3  C    0.007015
     4  C   -0.007015
 Electronic spatial extent (au):  <R**2>=            419.2644
 Charge=             -0.0000 electrons
 Dipole moment (field-independent basis, Debye):
    X=              0.0000    Y=             -0.0000    Z=             -0.0000  Tot=              0.0000
 Quadrupole moment (field-independent basis, Debye-Ang):
   XX=            -26.8121   YY=            -27.3606   ZZ=            -26.4691
   XY=             -0.1258   XZ=             -0.0000   YZ=             -0.0000
 Traceless Quadrupole moment (field-independent basis, Debye-Ang):
   XX=              0.0685   YY=             -0.4800   ZZ=              0.4115
   XY=             -0.1258   XZ=             -0.0000   YZ=             -0.0000
 Octapole moment (field-independent basis, Debye-Ang**2):
  XXX=              0.0000  YYY=             -0.0000  ZZZ=             -0.0000  XYY=              0.0000
  XXY=              0.0000  XXZ=             -0.0000  XZZ=              0.0000  YZZ=              0.0000
  YYZ=             -0.0000  XYZ=             -0.0000
 Hexadecapole moment (field-independent basis, Debye-Ang**3):
 XXXX=           -133.2090 YYYY=           -363.4964 ZZZZ=            -48.9975 XXXY=            -60.3501
 XXXZ=              0.0000 YYYX=            -64.5198 YYYZ=             -0.0000 ZZZX=             -0.0000
 ZZZY=             -0.0000 XXYY=            -79.8219 XXZZ=            -30.5224 YYZZ=            -65.6759
 XXYZ=             -0.0000 YYXZ=             -0.0000 ZZXY=            -23.1796
 N-N= 1.308053167653D+02 E-N=-6.223131911468D+02  KE= 1.541145798663D+02
 Running external command "gaunbo7 R"
         input file       "/cluster/work/users/beto93/mol89/Gau-1877058.EIn"
         output file      "/cluster/work/users/beto93/mol89/Gau-1877058.EOu"
         message file     "/cluster/work/users/beto93/mol89/Gau-1877058.EMs"
         fchk file        "/cluster/work/users/beto93/mol89/Gau-1877058.EFC"
         mat. el file     "/cluster/work/users/beto93/mol89/Gau-1877058.EUF"

 Writing WrtUnf unformatted file "/cluster/work/users/beto93/mol89/Gau-1877058.EUF"
 Gaussian matrix elements                                         Version   2 NLab=11 Len12L=8 Len4L=8
 Write SHELL TO ATOM MAP                   from file      0 offset           0 length                  18 to matrix element file.
 Write SHELL TYPES                         from file      0 offset           0 length                  18 to matrix element file.
 Write NUMBER OF PRIMITIVES PER SHELL      from file      0 offset           0 length                  18 to matrix element file.
 Write PRIMITIVE EXPONENTS                 from file      0 offset           0 length                  54 to matrix element file.
 Write CONTRACTION COEFFICIENTS            from file      0 offset           0 length                  54 to matrix element file.
 Write P(S=P) CONTRACTION COEFFICIENTS     from file      0 offset           0 length                  54 to matrix element file.
 Write COORDINATES OF EACH SHELL           from file      0 offset           0 length                  54 to matrix element file.
 Write BONDS PER ATOM                      from file      0 offset           0 length                  14 to matrix element file.
 Write BONDED ATOMS                        from file      0 offset           0 length                  26 to matrix element file.
 Write BOND TYPES                          from file      0 offset           0 length                  26 to matrix element file.
 Write ONIOM CHARGE/MULT                   from file      0 offset           0 length                  32 to matrix element file.
 Write ONIOM ATOM LAYERS                   from file      0 offset           0 length                  14 to matrix element file.
 Write ONIOM ATOM MODIFIERS                from file      0 offset           0 length                  14 to matrix element file.
 Write ONIOM ATOM TYPES                    from file      0 offset           0 length                  14 to matrix element file.
 Write ONIOM LINK ATOMS                    from file      0 offset           0 length                  14 to matrix element file.
 Write ONIOM LINK CHARGES                  from file      0 offset           0 length                  14 to matrix element file.
 Write ONIOM LINK DISTANCES                from file      0 offset           0 length                  56 to matrix element file.
 Write SYMINF INTS                         from file      0 offset           0 length                  26 to matrix element file.
 Write ROTTR TO SO                         from file      0 offset           0 length                  12 to matrix element file.
 Write GAUSSIAN SCALARS                    from file    501 offset           0 to matrix element file.
 Write OPTIMIZATION FLAGS                  from file      0 offset           0 length                  14 to matrix element file.
 Write INTEGER ISO                         from file      0 offset           0 length                  14 to matrix element file.
 Write INTEGER SPIN                        from file      0 offset           0 length                  14 to matrix element file.
 Write REAL ZEFFECTIVE                     from file      0 offset           0 length                  14 to matrix element file.
 Write REAL GFACTOR                        from file      0 offset           0 length                  14 to matrix element file.
 Write REAL ZNUCLEAR                       from file      0 offset           0 length                  14 to matrix element file.
 Write MULLIKEN CHARGES                    from file      0 offset           0 length                  14 to matrix element file.
 Write NUCLEAR GRADIENT                    from file  10584 offset           0 length                  42 to matrix element file.
 Array NUCLEAR FORCE CONSTANTS              on  file  10585 does not exist.
 Write ELECTRIC DIPOLE MOMENT              from file      0 offset           0 length                   3 to matrix element file.
 Write NON-ADIABATIC COUPLING              from file  10810 offset           0 length                  42 to matrix element file.
 Write FINITE EM FIELD                     from file  10521 offset           0 length                  35 to matrix element file.
 Write OVERLAP                             from file  10514 offset           0 length                 465 to matrix element file.
 Write CORE HAMILTONIAN ALPHA              from file  10515 offset           0 length                 465 to matrix element file.
 Write CORE HAMILTONIAN BETA               from file  10515 offset         465 length                 465 to matrix element file.
 Write KINETIC ENERGY                      from file  10516 offset           0 length                 465 to matrix element file.
 Write ORTHOGONAL BASIS                    from file  10685 offset           0 length                 900 to matrix element file.
 Write DIPOLE INTEGRALS                    from file  10518 offset           0 length                1395 to matrix element file.
 Array DIP VEL INTEGRALS                    on  file  10572 does not exist.
 Array R X DEL INTEGRALS                    on  file  10572 does not exist.
 Write ALPHA ORBITAL ENERGIES              from file      0 offset           0 length                  30 to matrix element file.
 Write ALPHA MO COEFFICIENTS               from file  10524 offset           0 length                 900 to matrix element file.
 Write ALPHA DENSITY MATRIX                from file      0 offset           0 length                 465 to matrix element file.
 Write ALPHA FOCK MATRIX                   from file  10536 offset           0 length                 465 to matrix element file.
 Write ENERGY-WEIGHTED DENSITY             from file  10571 offset           0 length                 465 to matrix element file.
 Write ALPHA SCF DENSITY MATRIX            from file      0 offset           0 length                 465 to matrix element file.
 No 2e integrals to process.
 Perform NBO analysis...executing G16NBO...

 *********************************** NBO 7.0 ***********************************
             N A T U R A L   A T O M I C   O R B I T A L   A N D
          N A T U R A L   B O N D   O R B I T A L   A N A L Y S I S
 **************************** Espen Tangen (S101595) ***************************
  (c) Copyright 1996-2021 Board of Regents of the University of Wisconsin System
      on behalf of the Theoretical Chemistry Institute.  All rights reserved.

          Cite this program [NBO 7.0.10 (8-Feb-2021)] as:

          NBO 7.0.  E. D. Glendening, J. K. Badenhoop, A. E. Reed,
          J. E. Carpenter, J. A. Bohmann, C. M. Morales, P. Karafiloglou,
          C. R. Landis, and F. Weinhold, Theoretical Chemistry Institute,
          University of Wisconsin, Madison, WI (2018)

       /NPA    / : Natural Population Analysis
       /AOPNAO / : Print the AO to PNAO transformation
       /AONAO  / : Print the AO to NAO transformation
       /AOMO   / : Print the MOs in the AO basis
       /BOAO   / : Print the AO bond-order matrix
       /DMAO   / : Print the AO density matrix
       /DMPNAO / : Print the PNAO density matrix
       /DMNAO  / : Print the NAO density matrix
       /DMMO   / : Print the MO density matrix
       /SAO    / : Print the AO overlap matrix
       /SPNAO  / : Print the PNAO overlap matrix
       /DETAIL / : Write details of NBO search
       /ARCHIVE/ : Write the archive file to lfn47
       /AOINFO / : Write AO information to lfn31
       /FILE   / : Set to mol89.gen*

 Filename set to mol89.gen1

 Job title: mol89-NBO


 MOs in the AO basis:

           AO          1       2       3       4       5       6       7       8
      ------------ ------- ------- ------- ------- ------- ------- ------- -------
   1.  C 1 (s)     -0.0113 -0.0191  0.7013  0.7012 -0.0921 -0.1435 -0.1266  0.0566
   2.  C 1 (s)     -0.0046 -0.0048  0.0267  0.0265  0.2469  0.4022  0.3775 -0.1764
   3.  C 1 (px)    -0.0001  0.0001 -0.0001  0.0000 -0.0062  0.0043  0.0136  0.0511
   4.  C 1 (py)     0.0031  0.0030  0.0002  0.0004 -0.0533 -0.0280  0.0969 -0.1206
   5.  C 1 (pz)     0.0000  0.0000  0.0000  0.0000  0.0000  0.0000  0.0000  0.0000
   6.  C 2 (s)      0.7010  0.7015  0.0119  0.0199 -0.1425 -0.0791  0.0854 -0.1171
   7.  C 2 (s)      0.0306  0.0225 -0.0036 -0.0033  0.3822  0.2215 -0.2567  0.3666
   8.  C 2 (px)    -0.0026  0.0030  0.0000  0.0000 -0.0463  0.0440  0.0525  0.1613
   9.  C 2 (py)    -0.0013  0.0011 -0.0031 -0.0029  0.0042  0.0964  0.1156 -0.0681
  10.  C 2 (pz)     0.0000  0.0000  0.0000  0.0000  0.0000  0.0000  0.0000  0.0000
  11.  C 3 (s)     -0.7010  0.7015 -0.0119  0.0199 -0.1425  0.0791  0.0854  0.1171
  12.  C 3 (s)     -0.0306  0.0225  0.0036 -0.0033  0.3822 -0.2215 -0.2567 -0.3666
  13.  C 3 (px)    -0.0026 -0.0030  0.0000  0.0000  0.0463  0.0440 -0.0525  0.1613
  14.  C 3 (py)    -0.0013 -0.0011 -0.0031  0.0029 -0.0042  0.0964 -0.1156 -0.0681
  15.  C 3 (pz)     0.0000  0.0000  0.0000  0.0000  0.0000  0.0000  0.0000  0.0000
  16.  C 4 (s)      0.0113 -0.0191 -0.7013  0.7012 -0.0921  0.1435 -0.1266 -0.0566
  17.  C 4 (s)      0.0046 -0.0048 -0.0267  0.0265  0.2469 -0.4022  0.3775  0.1764
  18.  C 4 (px)    -0.0001 -0.0001 -0.0001  0.0000  0.0062  0.0043 -0.0136  0.0511
  19.  C 4 (py)     0.0031 -0.0030  0.0002 -0.0004  0.0533 -0.0280 -0.0969 -0.1206
  20.  C 4 (pz)     0.0000  0.0000  0.0000  0.0000  0.0000  0.0000  0.0000  0.0000
  21.  H 5 (s)      0.0002  0.0001 -0.0049 -0.0049  0.0510  0.1081  0.1447 -0.0567
  22.  H 6 (s)     -0.0002  0.0001  0.0049 -0.0049  0.0510 -0.1081  0.1447  0.0567
  23.  H 7 (s)      0.0001  0.0002 -0.0049 -0.0049  0.0553  0.1046  0.1320 -0.1032
  24.  H 8 (s)      0.0001  0.0002 -0.0049 -0.0049  0.0553  0.1046  0.1320 -0.1032
  25.  H 9 (s)     -0.0001  0.0002  0.0049 -0.0049  0.0553 -0.1046  0.1320  0.1032
  26.  H10 (s)     -0.0001  0.0002  0.0049 -0.0049  0.0553 -0.1046  0.1320  0.1032
  27.  H11 (s)     -0.0049 -0.0049  0.0000 -0.0001  0.0849  0.0549 -0.0850  0.1877
  28.  H12 (s)     -0.0049 -0.0049  0.0000 -0.0001  0.0849  0.0549 -0.0850  0.1877
  29.  H13 (s)      0.0049 -0.0049  0.0000 -0.0001  0.0849 -0.0549 -0.0850 -0.1877
  30.  H14 (s)      0.0049 -0.0049  0.0000 -0.0001  0.0849 -0.0549 -0.0850 -0.1877

           AO          9      10      11      12      13      14      15      16
      ------------ ------- ------- ------- ------- ------- ------- ------- -------
   1.  C 1 (s)      0.0000  0.0031 -0.0054  0.0000 -0.0050  0.0000  0.0259  0.0000
   2.  C 1 (s)      0.0000 -0.0118  0.0141  0.0000  0.0229  0.0000 -0.1040  0.0000
   3.  C 1 (px)     0.0000  0.3286  0.2576  0.0000  0.3074  0.0000 -0.0863  0.0000
   4.  C 1 (py)     0.0000 -0.0501  0.2763  0.0000 -0.2231  0.0000  0.3387  0.0000
   5.  C 1 (pz)     0.2155  0.0000  0.0000  0.3596  0.0000  0.3423  0.0000 -0.1808
   6.  C 2 (s)      0.0000 -0.0014  0.0351  0.0000  0.0040  0.0000  0.0166  0.0000
   7.  C 2 (s)      0.0000  0.0016 -0.1251  0.0000 -0.0124  0.0000 -0.0738  0.0000
   8.  C 2 (px)     0.0000  0.2807  0.0838  0.0000 -0.0722  0.0000  0.2302  0.0000
   9.  C 2 (py)     0.0000  0.0620 -0.2552  0.0000  0.2494  0.0000 -0.3097  0.0000
  10.  C 2 (pz)     0.3284  0.0000  0.0000  0.1970  0.0000 -0.2337  0.0000  0.3534
  11.  C 3 (s)      0.0000 -0.0014 -0.0351  0.0000 -0.0040  0.0000  0.0166  0.0000
  12.  C 3 (s)      0.0000  0.0016  0.1251  0.0000  0.0124  0.0000 -0.0738  0.0000
  13.  C 3 (px)     0.0000 -0.2807  0.0838  0.0000 -0.0722  0.0000 -0.2302  0.0000
  14.  C 3 (py)     0.0000 -0.0620 -0.2552  0.0000  0.2494  0.0000  0.3097  0.0000
  15.  C 3 (pz)     0.3284  0.0000  0.0000 -0.1970  0.0000 -0.2337  0.0000 -0.3534
  16.  C 4 (s)      0.0000  0.0031  0.0054  0.0000  0.0050  0.0000  0.0259  0.0000
  17.  C 4 (s)      0.0000 -0.0118 -0.0141  0.0000 -0.0229  0.0000 -0.1040  0.0000
  18.  C 4 (px)     0.0000 -0.3286  0.2576  0.0000  0.3074  0.0000  0.0863  0.0000
  19.  C 4 (py)     0.0000  0.0501  0.2763  0.0000 -0.2231  0.0000 -0.3387  0.0000
  20.  C 4 (pz)     0.2155  0.0000  0.0000 -0.3596  0.0000  0.3423  0.0000  0.1808
  21.  H 5 (s)      0.0000  0.2421  0.3020  0.0000  0.2134  0.0000 -0.0061  0.0000
  22.  H 6 (s)      0.0000  0.2421 -0.3020  0.0000 -0.2134  0.0000 -0.0061  0.0000
  23.  H 7 (s)      0.1406 -0.1492 -0.0170  0.2522 -0.2021  0.2749  0.1284 -0.1742
  24.  H 8 (s)     -0.1406 -0.1492 -0.0170 -0.2522 -0.2021 -0.2749  0.1284  0.1742
  25.  H 9 (s)      0.1406 -0.1492  0.0170 -0.2522  0.2021  0.2749  0.1284  0.1742
  26.  H10 (s)     -0.1406 -0.1492  0.0170  0.2522  0.2021 -0.2749  0.1284 -0.1742
  27.  H11 (s)     -0.2097  0.0967  0.0570 -0.1317 -0.1128  0.1794  0.2030 -0.3179
  28.  H12 (s)      0.2097  0.0967  0.0570  0.1317 -0.1128 -0.1794  0.2030  0.3179
  29.  H13 (s)     -0.2097  0.0967 -0.0570  0.1317  0.1128  0.1794  0.2030  0.3179
  30.  H14 (s)      0.2097  0.0967 -0.0570 -0.1317  0.1128 -0.1794  0.2030 -0.3179

           AO         17      18      19      20      21      22      23      24
      ------------ ------- ------- ------- ------- ------- ------- ------- -------
   1.  C 1 (s)     -0.0141 -0.0405  0.0000  0.0757  0.0000 -0.0130  0.0682 -0.1368
   2.  C 1 (s)      0.0542  0.2323  0.0000 -0.4444  0.0000  0.0979 -0.4438  0.8788
   3.  C 1 (px)    -0.2153  0.4027  0.0000  0.2470  0.0000  0.4734  0.5572  0.0729
   4.  C 1 (py)    -0.2201 -0.3204  0.0000  0.5087  0.0000  0.4346 -0.4585  0.4769
   5.  C 1 (pz)     0.0000  0.0000  0.3742  0.0000  0.6207  0.0000  0.0000  0.0000
   6.  C 2 (s)      0.0163  0.0458  0.0000  0.0090  0.0000 -0.1035  0.0449 -0.0455
   7.  C 2 (s)     -0.0649 -0.2438  0.0000 -0.0585  0.0000  0.6381 -0.2866  0.2910
   8.  C 2 (px)     0.3786  0.5846  0.0000  0.3269  0.0000  0.2278 -0.1475 -0.0461
   9.  C 2 (py)     0.2468 -0.2365  0.0000  0.7068  0.0000  0.0913 -0.1462 -0.0564
  10.  C 2 (pz)     0.0000  0.0000  0.5700  0.0000  0.3890  0.0000  0.0000  0.0000
  11.  C 3 (s)      0.0163 -0.0458  0.0000 -0.0090  0.0000 -0.1035  0.0449  0.0455
  12.  C 3 (s)     -0.0649  0.2438  0.0000  0.0585  0.0000  0.6381 -0.2866 -0.2910
  13.  C 3 (px)    -0.3786  0.5846  0.0000  0.3269  0.0000 -0.2278  0.1475 -0.0461
  14.  C 3 (py)    -0.2468 -0.2365  0.0000  0.7068  0.0000 -0.0913  0.1462 -0.0564
  15.  C 3 (pz)     0.0000  0.0000  0.5700  0.0000 -0.3890  0.0000  0.0000  0.0000
  16.  C 4 (s)     -0.0141  0.0405  0.0000 -0.0757  0.0000 -0.0130  0.0682  0.1368
  17.  C 4 (s)      0.0542 -0.2323  0.0000  0.4444  0.0000  0.0979 -0.4438 -0.8788
  18.  C 4 (px)     0.2153  0.4027  0.0000  0.2470  0.0000 -0.4734 -0.5572  0.0729
  19.  C 4 (py)     0.2201 -0.3204  0.0000  0.5087  0.0000 -0.4346  0.4585  0.4769
  20.  C 4 (pz)     0.0000  0.0000  0.3742  0.0000 -0.6207  0.0000  0.0000  0.0000
  21.  H 5 (s)     -0.2818 -0.4316  0.0000 -0.2210  0.0000 -0.6198 -0.1546 -0.5664
  22.  H 6 (s)     -0.2818  0.4316  0.0000  0.2210  0.0000 -0.6198 -0.1546  0.5664
  23.  H 7 (s)      0.0604  0.2131 -0.3280  0.1530 -0.5242  0.0689  0.5597 -0.4772
  24.  H 8 (s)      0.0604  0.2131  0.3280  0.1530  0.5242  0.0689  0.5597 -0.4772
  25.  H 9 (s)      0.0604 -0.2131 -0.3280 -0.1530  0.5242  0.0689  0.5597  0.4772
  26.  H10 (s)      0.0604 -0.2131  0.3280 -0.1530 -0.5242  0.0689  0.5597  0.4772
  27.  H11 (s)      0.0866 -0.2710  0.5204  0.1019  0.3348 -0.3473  0.1007 -0.1248
  28.  H12 (s)      0.0866 -0.2710 -0.5204  0.1019 -0.3348 -0.3473  0.1007 -0.1248
  29.  H13 (s)      0.0866  0.2710  0.5204 -0.1019 -0.3348 -0.3473  0.1007  0.1248
  30.  H14 (s)      0.0866  0.2710 -0.5204 -0.1019  0.3348 -0.3473  0.1007  0.1248

           AO         25      26      27      28      29      30
      ------------ ------- ------- ------- ------- ------- -------
   1.  C 1 (s)      0.0000  0.0801 -0.1263 -0.1005 -0.0109  0.0000
   2.  C 1 (s)      0.0000 -0.4946  0.7959  0.6415  0.0723  0.0000
   3.  C 1 (px)     0.0000  0.0304  0.0330  0.2870 -0.6233  0.0000
   4.  C 1 (py)     0.0000  0.1969 -0.3885  0.1927  0.0430  0.0000
   5.  C 1 (pz)     0.6889  0.0000  0.0000  0.0000  0.0000 -0.4821
   6.  C 2 (s)      0.0000 -0.1915  0.0302  0.0933  0.0258  0.0000
   7.  C 2 (s)      0.0000  1.1879 -0.1627 -0.6020 -0.1488  0.0000
   8.  C 2 (px)     0.0000 -0.0352  0.2029 -0.4025  0.7148  0.0000
   9.  C 2 (py)     0.0000 -0.1311 -0.7733  0.1725  0.1081  0.0000
  10.  C 2 (pz)    -0.4400  0.0000  0.0000  0.0000  0.0000  0.7634
  11.  C 3 (s)      0.0000  0.1915  0.0302  0.0933 -0.0258  0.0000
  12.  C 3 (s)      0.0000 -1.1879 -0.1627 -0.6020  0.1488  0.0000
  13.  C 3 (px)     0.0000 -0.0352 -0.2029  0.4025  0.7148  0.0000
  14.  C 3 (py)     0.0000 -0.1311  0.7733 -0.1725  0.1081  0.0000
  15.  C 3 (pz)    -0.4400  0.0000  0.0000  0.0000  0.0000 -0.7634
  16.  C 4 (s)      0.0000 -0.0801 -0.1263 -0.1005  0.0109  0.0000
  17.  C 4 (s)      0.0000  0.4946  0.7959  0.6415 -0.0723  0.0000
  18.  C 4 (px)     0.0000  0.0304 -0.0330 -0.2870 -0.6233  0.0000
  19.  C 4 (py)     0.0000  0.1969  0.3885 -0.1927  0.0430  0.0000
  20.  C 4 (pz)     0.6889  0.0000  0.0000  0.0000  0.0000  0.4821
  21.  H 5 (s)      0.0000  0.1452 -0.2351 -0.5500  0.4449  0.0000
  22.  H 6 (s)      0.0000 -0.1452 -0.2351 -0.5500 -0.4449  0.0000
  23.  H 7 (s)     -0.5070  0.1498 -0.1876 -0.2261 -0.2905  0.3026
  24.  H 8 (s)      0.5070  0.1498 -0.1876 -0.2261 -0.2905 -0.3026
  25.  H 9 (s)     -0.5070 -0.1498 -0.1876 -0.2261  0.2905 -0.3026
  26.  H10 (s)      0.5070 -0.1498 -0.1876 -0.2261  0.2905  0.3026
  27.  H11 (s)     -0.3282 -0.5302 -0.2019  0.4608 -0.2017  0.4794
  28.  H12 (s)      0.3282 -0.5302 -0.2019  0.4608 -0.2017 -0.4794
  29.  H13 (s)     -0.3282  0.5302 -0.2019  0.4608  0.2017 -0.4794
  30.  H14 (s)      0.3282  0.5302 -0.2019  0.4608  0.2017  0.4794


 AO overlap matrix:

           AO          1       2       3       4       5       6       7       8
      ------------ ------- ------- ------- ------- ------- ------- ------- -------
   1.  C 1 (s)      1.0000  0.2484  0.0000  0.0000  0.0000  0.0000  0.0276  0.0000
   2.  C 1 (s)      0.2484  1.0000  0.0000  0.0000  0.0000  0.0276  0.3055  0.0000
   3.  C 1 (px)     0.0000  0.0000  1.0000  0.0000  0.0000  0.0000  0.0000  0.1692
   4.  C 1 (py)     0.0000  0.0000  0.0000  1.0000  0.0000 -0.0463 -0.3421  0.0000
   5.  C 1 (pz)     0.0000  0.0000  0.0000  0.0000  1.0000  0.0000  0.0000  0.0000
   6.  C 2 (s)      0.0000  0.0276  0.0000 -0.0463  0.0000  1.0000  0.2484  0.0000
   7.  C 2 (s)      0.0276  0.3055  0.0000 -0.3421  0.0000  0.2484  1.0000  0.0000
   8.  C 2 (px)     0.0000  0.0000  0.1692  0.0000  0.0000  0.0000  0.0000  1.0000
   9.  C 2 (py)     0.0463  0.3421  0.0000 -0.3164  0.0000  0.0000  0.0000  0.0000
  10.  C 2 (pz)     0.0000  0.0000  0.0000  0.0000  0.1692  0.0000  0.0000  0.0000
  11.  C 3 (s)      0.0000  0.0012 -0.0015 -0.0023  0.0000  0.0000  0.0276 -0.0426
  12.  C 3 (s)      0.0012  0.0467 -0.0392 -0.0591  0.0000  0.0276  0.3052 -0.3151
  13.  C 3 (px)     0.0015  0.0392 -0.0170 -0.0542  0.0000  0.0426  0.3151 -0.2430
  14.  C 3 (py)     0.0023  0.0591 -0.0542 -0.0627  0.0000  0.0180  0.1329 -0.1738
  15.  C 3 (pz)     0.0000  0.0000  0.0000  0.0000  0.0190  0.0000  0.0000  0.0000
  16.  C 4 (s)      0.0000  0.0000  0.0000  0.0000  0.0000  0.0000  0.0012 -0.0015
  17.  C 4 (s)      0.0000  0.0012 -0.0009 -0.0023  0.0000  0.0012  0.0467 -0.0392
  18.  C 4 (px)     0.0000  0.0009 -0.0003 -0.0017  0.0000  0.0015  0.0392 -0.0170
  19.  C 4 (py)     0.0000  0.0023 -0.0017 -0.0040  0.0000  0.0023  0.0591 -0.0542
  20.  C 4 (pz)     0.0000  0.0000  0.0000  0.0000  0.0004  0.0000  0.0000  0.0000
  21.  H 5 (s)      0.0618  0.4887  0.4335  0.1711  0.0000  0.0051  0.0934  0.0566
  22.  H 6 (s)      0.0000  0.0002 -0.0002 -0.0003  0.0000  0.0001  0.0053 -0.0061
  23.  H 7 (s)      0.0617  0.4884 -0.2190  0.1658  0.3762  0.0052  0.0948 -0.0291
  24.  H 8 (s)      0.0617  0.4884 -0.2190  0.1658 -0.3762  0.0052  0.0948 -0.0291
  25.  H 9 (s)      0.0000  0.0007 -0.0003 -0.0013  0.0003  0.0008  0.0267 -0.0126
  26.  H10 (s)      0.0000  0.0007 -0.0003 -0.0013 -0.0003  0.0008  0.0267 -0.0126
  27.  H11 (s)      0.0054  0.0971  0.0317 -0.1100 -0.0510  0.0613  0.4867  0.2310
  28.  H12 (s)      0.0054  0.0971  0.0317 -0.1100  0.0510  0.0613  0.4867  0.2310
  29.  H13 (s)      0.0010  0.0292 -0.0303 -0.0272 -0.0136  0.0055  0.0983 -0.1148
  30.  H14 (s)      0.0010  0.0292 -0.0303 -0.0272  0.0136  0.0055  0.0983 -0.1148

           AO          9      10      11      12      13      14      15      16
      ------------ ------- ------- ------- ------- ------- ------- ------- -------
   1.  C 1 (s)      0.0463  0.0000  0.0000  0.0012  0.0015  0.0023  0.0000  0.0000
   2.  C 1 (s)      0.3421  0.0000  0.0012  0.0467  0.0392  0.0591  0.0000  0.0000
   3.  C 1 (px)     0.0000  0.0000 -0.0015 -0.0392 -0.0170 -0.0542  0.0000  0.0000
   4.  C 1 (py)    -0.3164  0.0000 -0.0023 -0.0591 -0.0542 -0.0627  0.0000  0.0000
   5.  C 1 (pz)     0.0000  0.1692  0.0000  0.0000  0.0000  0.0000  0.0190  0.0000
   6.  C 2 (s)      0.0000  0.0000  0.0000  0.0276  0.0426  0.0180  0.0000  0.0000
   7.  C 2 (s)      0.0000  0.0000  0.0276  0.3052  0.3151  0.1329  0.0000  0.0012
   8.  C 2 (px)     0.0000  0.0000 -0.0426 -0.3151 -0.2430 -0.1738  0.0000 -0.0015
   9.  C 2 (py)     1.0000  0.0000 -0.0180 -0.1329 -0.1738  0.0958  0.0000 -0.0023
  10.  C 2 (pz)     0.0000  1.0000  0.0000  0.0000  0.0000  0.0000  0.1691  0.0000
  11.  C 3 (s)     -0.0180  0.0000  1.0000  0.2484  0.0000  0.0000  0.0000  0.0000
  12.  C 3 (s)     -0.1329  0.0000  0.2484  1.0000  0.0000  0.0000  0.0000  0.0276
  13.  C 3 (px)    -0.1738  0.0000  0.0000  0.0000  1.0000  0.0000  0.0000  0.0000
  14.  C 3 (py)     0.0958  0.0000  0.0000  0.0000  0.0000  1.0000  0.0000 -0.0463
  15.  C 3 (pz)     0.0000  0.1691  0.0000  0.0000  0.0000  0.0000  1.0000  0.0000
  16.  C 4 (s)     -0.0023  0.0000  0.0000  0.0276  0.0000 -0.0463  0.0000  1.0000
  17.  C 4 (s)     -0.0591  0.0000  0.0276  0.3055  0.0000 -0.3421  0.0000  0.2484
  18.  C 4 (px)    -0.0542  0.0000  0.0000  0.0000  0.1692  0.0000  0.0000  0.0000
  19.  C 4 (py)    -0.0627  0.0000  0.0463  0.3421  0.0000 -0.3164  0.0000  0.0000
  20.  C 4 (pz)     0.0000  0.0190  0.0000  0.0000  0.0000  0.0000  0.1692  0.0000
  21.  H 5 (s)      0.1071  0.0000  0.0001  0.0053  0.0061  0.0064  0.0000  0.0000
  22.  H 6 (s)     -0.0064  0.0000  0.0051  0.0934 -0.0566 -0.1071  0.0000  0.0618
  23.  H 7 (s)      0.1082  0.0500  0.0008  0.0267  0.0126  0.0354  0.0125  0.0000
  24.  H 8 (s)      0.1082 -0.0500  0.0008  0.0267  0.0126  0.0354 -0.0125  0.0000
  25.  H 9 (s)     -0.0354  0.0125  0.0052  0.0948  0.0291 -0.1082  0.0500  0.0617
  26.  H10 (s)     -0.0354 -0.0125  0.0052  0.0948  0.0291 -0.1082 -0.0500  0.0617
  27.  H11 (s)     -0.1564 -0.3719  0.0055  0.0983  0.1148  0.0132 -0.0517  0.0010
  28.  H12 (s)     -0.1564  0.3719  0.0055  0.0983  0.1148  0.0132  0.0517  0.0010
  29.  H13 (s)     -0.0132 -0.0517  0.0613  0.4867 -0.2310  0.1564 -0.3719  0.0054
  30.  H14 (s)     -0.0132  0.0517  0.0613  0.4867 -0.2310  0.1564  0.3719  0.0054

           AO         17      18      19      20      21      22      23      24
      ------------ ------- ------- ------- ------- ------- ------- ------- -------
   1.  C 1 (s)      0.0000  0.0000  0.0000  0.0000  0.0618  0.0000  0.0617  0.0617
   2.  C 1 (s)      0.0012  0.0009  0.0023  0.0000  0.4887  0.0002  0.4884  0.4884
   3.  C 1 (px)    -0.0009 -0.0003 -0.0017  0.0000  0.4335 -0.0002 -0.2190 -0.2190
   4.  C 1 (py)    -0.0023 -0.0017 -0.0040  0.0000  0.1711 -0.0003  0.1658  0.1658
   5.  C 1 (pz)     0.0000  0.0000  0.0000  0.0004  0.0000  0.0000  0.3762 -0.3762
   6.  C 2 (s)      0.0012  0.0015  0.0023  0.0000  0.0051  0.0001  0.0052  0.0052
   7.  C 2 (s)      0.0467  0.0392  0.0591  0.0000  0.0934  0.0053  0.0948  0.0948
   8.  C 2 (px)    -0.0392 -0.0170 -0.0542  0.0000  0.0566 -0.0061 -0.0291 -0.0291
   9.  C 2 (py)    -0.0591 -0.0542 -0.0627  0.0000  0.1071 -0.0064  0.1082  0.1082
  10.  C 2 (pz)     0.0000  0.0000  0.0000  0.0190  0.0000  0.0000  0.0500 -0.0500
  11.  C 3 (s)      0.0276  0.0000  0.0463  0.0000  0.0001  0.0051  0.0008  0.0008
  12.  C 3 (s)      0.3055  0.0000  0.3421  0.0000  0.0053  0.0934  0.0267  0.0267
  13.  C 3 (px)     0.0000  0.1692  0.0000  0.0000  0.0061 -0.0566  0.0126  0.0126
  14.  C 3 (py)    -0.3421  0.0000 -0.3164  0.0000  0.0064 -0.1071  0.0354  0.0354
  15.  C 3 (pz)     0.0000  0.0000  0.0000  0.1692  0.0000  0.0000  0.0125 -0.0125
  16.  C 4 (s)      0.2484  0.0000  0.0000  0.0000  0.0000  0.0618  0.0000  0.0000
  17.  C 4 (s)      1.0000  0.0000  0.0000  0.0000  0.0002  0.4887  0.0007  0.0007
  18.  C 4 (px)     0.0000  1.0000  0.0000  0.0000  0.0002 -0.4335  0.0003  0.0003
  19.  C 4 (py)     0.0000  0.0000  1.0000  0.0000  0.0003 -0.1711  0.0013  0.0013
  20.  C 4 (pz)     0.0000  0.0000  0.0000  1.0000  0.0000  0.0000  0.0003 -0.0003
  21.  H 5 (s)      0.0002  0.0002  0.0003  0.0000  1.0000  0.0000  0.1723  0.1723
  22.  H 6 (s)      0.4887 -0.4335 -0.1711  0.0000  0.0000  1.0000  0.0001  0.0001
  23.  H 7 (s)      0.0007  0.0003  0.0013  0.0003  0.1723  0.0001  1.0000  0.1726
  24.  H 8 (s)      0.0007  0.0003  0.0013 -0.0003  0.1723  0.0001  0.1726  1.0000
  25.  H 9 (s)      0.4884  0.2190 -0.1658  0.3762  0.0001  0.1723  0.0006  0.0002
  26.  H10 (s)      0.4884  0.2190 -0.1658 -0.3762  0.0001  0.1723  0.0002  0.0006
  27.  H11 (s)      0.0292  0.0303  0.0272 -0.0136  0.0493  0.0032  0.0157  0.0480
  28.  H12 (s)      0.0292  0.0303  0.0272  0.0136  0.0493  0.0032  0.0480  0.0157
  29.  H13 (s)      0.0971 -0.0317  0.1100 -0.0510  0.0032  0.0493  0.0141  0.0429
  30.  H14 (s)      0.0971 -0.0317  0.1100  0.0510  0.0032  0.0493  0.0429  0.0141

           AO         25      26      27      28      29      30
      ------------ ------- ------- ------- ------- ------- -------
   1.  C 1 (s)      0.0000  0.0000  0.0054  0.0054  0.0010  0.0010
   2.  C 1 (s)      0.0007  0.0007  0.0971  0.0971  0.0292  0.0292
   3.  C 1 (px)    -0.0003 -0.0003  0.0317  0.0317 -0.0303 -0.0303
   4.  C 1 (py)    -0.0013 -0.0013 -0.1100 -0.1100 -0.0272 -0.0272
   5.  C 1 (pz)     0.0003 -0.0003 -0.0510  0.0510 -0.0136  0.0136
   6.  C 2 (s)      0.0008  0.0008  0.0613  0.0613  0.0055  0.0055
   7.  C 2 (s)      0.0267  0.0267  0.4867  0.4867  0.0983  0.0983
   8.  C 2 (px)    -0.0126 -0.0126  0.2310  0.2310 -0.1148 -0.1148
   9.  C 2 (py)    -0.0354 -0.0354 -0.1564 -0.1564 -0.0132 -0.0132
  10.  C 2 (pz)     0.0125 -0.0125 -0.3719  0.3719 -0.0517  0.0517
  11.  C 3 (s)      0.0052  0.0052  0.0055  0.0055  0.0613  0.0613
  12.  C 3 (s)      0.0948  0.0948  0.0983  0.0983  0.4867  0.4867
  13.  C 3 (px)     0.0291  0.0291  0.1148  0.1148 -0.2310 -0.2310
  14.  C 3 (py)    -0.1082 -0.1082  0.0132  0.0132  0.1564  0.1564
  15.  C 3 (pz)     0.0500 -0.0500 -0.0517  0.0517 -0.3719  0.3719
  16.  C 4 (s)      0.0617  0.0617  0.0010  0.0010  0.0054  0.0054
  17.  C 4 (s)      0.4884  0.4884  0.0292  0.0292  0.0971  0.0971
  18.  C 4 (px)     0.2190  0.2190  0.0303  0.0303 -0.0317 -0.0317
  19.  C 4 (py)    -0.1658 -0.1658  0.0272  0.0272  0.1100  0.1100
  20.  C 4 (pz)     0.3762 -0.3762 -0.0136  0.0136 -0.0510  0.0510
  21.  H 5 (s)      0.0001  0.0001  0.0493  0.0493  0.0032  0.0032
  22.  H 6 (s)      0.1723  0.1723  0.0032  0.0032  0.0493  0.0493
  23.  H 7 (s)      0.0006  0.0002  0.0157  0.0480  0.0141  0.0429
  24.  H 8 (s)      0.0002  0.0006  0.0480  0.0157  0.0429  0.0141
  25.  H 9 (s)      1.0000  0.1726  0.0141  0.0429  0.0157  0.0480
  26.  H10 (s)      0.1726  1.0000  0.0429  0.0141  0.0480  0.0157
  27.  H11 (s)      0.0141  0.0429  1.0000  0.1759  0.0496  0.0163
  28.  H12 (s)      0.0429  0.0141  0.1759  1.0000  0.0163  0.0496
  29.  H13 (s)      0.0157  0.0480  0.0496  0.0163  1.0000  0.1759
  30.  H14 (s)      0.0480  0.0157  0.0163  0.0496  0.1759  1.0000


 AO bond-order matrix:

           AO          1       2       3       4       5       6       7       8
      ------------ ------- ------- ------- ------- ------- ------- ------- -------
   1.  C 1 (s)      2.0664 -0.2090 -0.0001  0.0030  0.0000  0.0160 -0.0393  0.0036
   2.  C 1 (s)     -0.2090  0.8249  0.0008 -0.0288  0.0000 -0.0400  0.0471 -0.0192
   3.  C 1 (px)    -0.0001  0.0008  0.6510 -0.0007  0.0000  0.0012 -0.0027 -0.0006
   4.  C 1 (py)     0.0030 -0.0288 -0.0007  0.6387  0.0000  0.0947 -0.2761  0.0134
   5.  C 1 (pz)     0.0000  0.0000  0.0000  0.0000  0.6512  0.0000  0.0000  0.0000
   6.  C 2 (s)      0.0160 -0.0400  0.0012  0.0947  0.0000  2.0666 -0.2127  0.0025
   7.  C 2 (s)     -0.0393  0.0471 -0.0027 -0.2761  0.0000 -0.2127  0.8447 -0.0261
   8.  C 2 (px)     0.0036 -0.0192 -0.0006  0.0134  0.0000  0.0025 -0.0261  0.6405
   9.  C 2 (py)    -0.0962  0.2845  0.0067 -0.5440  0.0000  0.0005  0.0082 -0.0014
  10.  C 2 (pz)     0.0000  0.0000  0.0000  0.0000 -0.0046  0.0000  0.0000  0.0000
  11.  C 3 (s)     -0.0039  0.0138 -0.0144 -0.0144  0.0000  0.0158 -0.0390  0.0886
  12.  C 3 (s)      0.0133 -0.0413  0.0626  0.0523  0.0000 -0.0390  0.0440 -0.2629
  13.  C 3 (px)     0.0074 -0.0257  0.0319  0.0608  0.0000 -0.0886  0.2629 -0.4797
  14.  C 3 (py)     0.0173 -0.0732  0.0247  0.0614  0.0000 -0.0347  0.0926 -0.1831
  15.  C 3 (pz)     0.0000  0.0000  0.0000  0.0000 -0.0323  0.0000  0.0000  0.0000
  16.  C 4 (s)      0.0031 -0.0125  0.0028  0.0153  0.0000 -0.0039  0.0133 -0.0074
  17.  C 4 (s)     -0.0125  0.0475 -0.0127 -0.0639  0.0000  0.0138 -0.0413  0.0257
  18.  C 4 (px)    -0.0028  0.0127  0.0031 -0.0140  0.0000  0.0144 -0.0626  0.0319
  19.  C 4 (py)    -0.0153  0.0639 -0.0140 -0.0730  0.0000  0.0144 -0.0523  0.0608
  20.  C 4 (pz)     0.0000  0.0000  0.0000  0.0000  0.0031  0.0000  0.0000  0.0000
  21.  H 5 (s)     -0.0935  0.2242  0.5668  0.1975  0.0000  0.0194 -0.0714 -0.0588
  22.  H 6 (s)      0.0059 -0.0259  0.0029  0.0389  0.0000 -0.0193  0.0775 -0.0808
  23.  H 7 (s)     -0.0928  0.2206 -0.2860  0.1949  0.4931  0.0183 -0.0727  0.0321
  24.  H 8 (s)     -0.0928  0.2206 -0.2860  0.1949 -0.4931  0.0183 -0.0727  0.0321
  25.  H 9 (s)     -0.0001 -0.0004 -0.0006 -0.0048  0.0044  0.0087 -0.0326  0.0276
  26.  H10 (s)     -0.0001 -0.0004 -0.0006 -0.0048 -0.0044  0.0087 -0.0326  0.0276
  27.  H11 (s)      0.0206 -0.0829 -0.0325  0.0976  0.0527 -0.0928  0.2176  0.2877
  28.  H12 (s)      0.0206 -0.0829 -0.0325  0.0976 -0.0527 -0.0928  0.2176  0.2877
  29.  H13 (s)      0.0085 -0.0317  0.0082  0.0307  0.0122  0.0201 -0.0827  0.1052
  30.  H14 (s)      0.0085 -0.0317  0.0082  0.0307 -0.0122  0.0201 -0.0827  0.1052

           AO          9      10      11      12      13      14      15      16
      ------------ ------- ------- ------- ------- ------- ------- ------- -------
   1.  C 1 (s)     -0.0962  0.0000 -0.0039  0.0133  0.0074  0.0173  0.0000  0.0031
   2.  C 1 (s)      0.2845  0.0000  0.0138 -0.0413 -0.0257 -0.0732  0.0000 -0.0125
   3.  C 1 (px)     0.0067  0.0000 -0.0144  0.0626  0.0319  0.0247  0.0000  0.0028
   4.  C 1 (py)    -0.5440  0.0000 -0.0144  0.0523  0.0608  0.0614  0.0000  0.0153
   5.  C 1 (pz)     0.0000 -0.0046  0.0000  0.0000  0.0000  0.0000 -0.0323  0.0000
   6.  C 2 (s)      0.0005  0.0000  0.0158 -0.0390 -0.0886 -0.0347  0.0000 -0.0039
   7.  C 2 (s)      0.0082  0.0000 -0.0390  0.0440  0.2629  0.0926  0.0000  0.0133
   8.  C 2 (px)    -0.0014  0.0000  0.0886 -0.2629 -0.4797 -0.1831  0.0000 -0.0074
   9.  C 2 (py)     0.6306  0.0000  0.0347 -0.0926 -0.1831 -0.0655  0.0000 -0.0173
  10.  C 2 (pz)     0.0000  0.6524  0.0000  0.0000  0.0000  0.0000 -0.0024  0.0000
  11.  C 3 (s)      0.0347  0.0000  2.0666 -0.2127 -0.0025 -0.0005  0.0000  0.0160
  12.  C 3 (s)     -0.0926  0.0000 -0.2127  0.8447  0.0261 -0.0082  0.0000 -0.0393
  13.  C 3 (px)    -0.1831  0.0000 -0.0025  0.0261  0.6405 -0.0014  0.0000 -0.0036
  14.  C 3 (py)    -0.0655  0.0000 -0.0005 -0.0082 -0.0014  0.6306  0.0000  0.0962
  15.  C 3 (pz)     0.0000 -0.0024  0.0000  0.0000  0.0000  0.0000  0.6524  0.0000
  16.  C 4 (s)     -0.0173  0.0000  0.0160 -0.0393 -0.0036  0.0962  0.0000  2.0664
  17.  C 4 (s)      0.0732  0.0000 -0.0400  0.0471  0.0192 -0.2845  0.0000 -0.2090
  18.  C 4 (px)     0.0247  0.0000 -0.0012  0.0027 -0.0006  0.0067  0.0000  0.0001
  19.  C 4 (py)     0.0614  0.0000 -0.0947  0.2761  0.0134 -0.5440  0.0000 -0.0030
  20.  C 4 (pz)     0.0000 -0.0323  0.0000  0.0000  0.0000  0.0000 -0.0046  0.0000
  21.  H 5 (s)     -0.0905  0.0000 -0.0193  0.0775  0.0808  0.0523  0.0000  0.0059
  22.  H 6 (s)     -0.0523  0.0000  0.0194 -0.0714  0.0588  0.0905  0.0000 -0.0935
  23.  H 7 (s)     -0.0952 -0.0599  0.0087 -0.0326 -0.0276 -0.0207 -0.0124 -0.0001
  24.  H 8 (s)     -0.0952  0.0599  0.0087 -0.0326 -0.0276 -0.0207  0.0124 -0.0001
  25.  H 9 (s)      0.0207 -0.0124  0.0183 -0.0727 -0.0321  0.0952 -0.0599 -0.0928
  26.  H10 (s)      0.0207  0.0124  0.0183 -0.0727 -0.0321  0.0952  0.0599 -0.0928
  27.  H11 (s)     -0.1903 -0.4982  0.0201 -0.0827 -0.1052 -0.0104  0.0550  0.0085
  28.  H12 (s)     -0.1903  0.4982  0.0201 -0.0827 -0.1052 -0.0104 -0.0550  0.0085
  29.  H13 (s)      0.0104  0.0550 -0.0928  0.2176 -0.2877  0.1903 -0.4982  0.0206
  30.  H14 (s)      0.0104 -0.0550 -0.0928  0.2176 -0.2877  0.1903  0.4982  0.0206

           AO         17      18      19      20      21      22      23      24
      ------------ ------- ------- ------- ------- ------- ------- ------- -------
   1.  C 1 (s)     -0.0125 -0.0028 -0.0153  0.0000 -0.0935  0.0059 -0.0928 -0.0928
   2.  C 1 (s)      0.0475  0.0127  0.0639  0.0000  0.2242 -0.0259  0.2206  0.2206
   3.  C 1 (px)    -0.0127  0.0031 -0.0140  0.0000  0.5668  0.0029 -0.2860 -0.2860
   4.  C 1 (py)    -0.0639 -0.0140 -0.0730  0.0000  0.1975  0.0389  0.1949  0.1949
   5.  C 1 (pz)     0.0000  0.0000  0.0000  0.0031  0.0000  0.0000  0.4931 -0.4931
   6.  C 2 (s)      0.0138  0.0144  0.0144  0.0000  0.0194 -0.0193  0.0183  0.0183
   7.  C 2 (s)     -0.0413 -0.0626 -0.0523  0.0000 -0.0714  0.0775 -0.0727 -0.0727
   8.  C 2 (px)     0.0257  0.0319  0.0608  0.0000 -0.0588 -0.0808  0.0321  0.0321
   9.  C 2 (py)     0.0732  0.0247  0.0614  0.0000 -0.0905 -0.0523 -0.0952 -0.0952
  10.  C 2 (pz)     0.0000  0.0000  0.0000 -0.0323  0.0000  0.0000 -0.0599  0.0599
  11.  C 3 (s)     -0.0400 -0.0012 -0.0947  0.0000 -0.0193  0.0194  0.0087  0.0087
  12.  C 3 (s)      0.0471  0.0027  0.2761  0.0000  0.0775 -0.0714 -0.0326 -0.0326
  13.  C 3 (px)     0.0192 -0.0006  0.0134  0.0000  0.0808  0.0588 -0.0276 -0.0276
  14.  C 3 (py)    -0.2845  0.0067 -0.5440  0.0000  0.0523  0.0905 -0.0207 -0.0207
  15.  C 3 (pz)     0.0000  0.0000  0.0000 -0.0046  0.0000  0.0000 -0.0124  0.0124
  16.  C 4 (s)     -0.2090  0.0001 -0.0030  0.0000  0.0059 -0.0935 -0.0001 -0.0001
  17.  C 4 (s)      0.8249 -0.0008  0.0288  0.0000 -0.0259  0.2242 -0.0004 -0.0004
  18.  C 4 (px)    -0.0008  0.6510 -0.0007  0.0000 -0.0029 -0.5668  0.0006  0.0006
  19.  C 4 (py)     0.0288 -0.0007  0.6387  0.0000 -0.0389 -0.1975  0.0048  0.0048
  20.  C 4 (pz)     0.0000  0.0000  0.0000  0.6512  0.0000  0.0000  0.0044 -0.0044
  21.  H 5 (s)     -0.0259 -0.0029 -0.0389  0.0000  0.6266  0.0200 -0.1261 -0.1261
  22.  H 6 (s)      0.2242 -0.5668 -0.1975  0.0000  0.0200  0.6266 -0.0018 -0.0018
  23.  H 7 (s)     -0.0004  0.0006  0.0048  0.0044 -0.1261 -0.0018  0.6298 -0.1271
  24.  H 8 (s)     -0.0004  0.0006  0.0048 -0.0044 -0.1261 -0.0018 -0.1271  0.6298
  25.  H 9 (s)      0.2206  0.2860 -0.1949  0.4931 -0.0018 -0.1261  0.0031 -0.0025
  26.  H10 (s)      0.2206  0.2860 -0.1949 -0.4931 -0.0018 -0.1261 -0.0025  0.0031
  27.  H11 (s)     -0.0317 -0.0082 -0.0307  0.0122 -0.0436  0.0028  0.1211 -0.0468
  28.  H12 (s)     -0.0317 -0.0082 -0.0307 -0.0122 -0.0436  0.0028 -0.0468  0.1211
  29.  H13 (s)     -0.0829  0.0325 -0.0976  0.0527  0.0028 -0.0436 -0.0003  0.0089
  30.  H14 (s)     -0.0829  0.0325 -0.0976 -0.0527  0.0028 -0.0436  0.0089 -0.0003

           AO         25      26      27      28      29      30
      ------------ ------- ------- ------- ------- ------- -------
   1.  C 1 (s)     -0.0001 -0.0001  0.0206  0.0206  0.0085  0.0085
   2.  C 1 (s)     -0.0004 -0.0004 -0.0829 -0.0829 -0.0317 -0.0317
   3.  C 1 (px)    -0.0006 -0.0006 -0.0325 -0.0325  0.0082  0.0082
   4.  C 1 (py)    -0.0048 -0.0048  0.0976  0.0976  0.0307  0.0307
   5.  C 1 (pz)     0.0044 -0.0044  0.0527 -0.0527  0.0122 -0.0122
   6.  C 2 (s)      0.0087  0.0087 -0.0928 -0.0928  0.0201  0.0201
   7.  C 2 (s)     -0.0326 -0.0326  0.2176  0.2176 -0.0827 -0.0827
   8.  C 2 (px)     0.0276  0.0276  0.2877  0.2877  0.1052  0.1052
   9.  C 2 (py)     0.0207  0.0207 -0.1903 -0.1903  0.0104  0.0104
  10.  C 2 (pz)    -0.0124  0.0124 -0.4982  0.4982  0.0550 -0.0550
  11.  C 3 (s)      0.0183  0.0183  0.0201  0.0201 -0.0928 -0.0928
  12.  C 3 (s)     -0.0727 -0.0727 -0.0827 -0.0827  0.2176  0.2176
  13.  C 3 (px)    -0.0321 -0.0321 -0.1052 -0.1052 -0.2877 -0.2877
  14.  C 3 (py)     0.0952  0.0952 -0.0104 -0.0104  0.1903  0.1903
  15.  C 3 (pz)    -0.0599  0.0599  0.0550 -0.0550 -0.4982  0.4982
  16.  C 4 (s)     -0.0928 -0.0928  0.0085  0.0085  0.0206  0.0206
  17.  C 4 (s)      0.2206  0.2206 -0.0317 -0.0317 -0.0829 -0.0829
  18.  C 4 (px)     0.2860  0.2860 -0.0082 -0.0082  0.0325  0.0325
  19.  C 4 (py)    -0.1949 -0.1949 -0.0307 -0.0307 -0.0976 -0.0976
  20.  C 4 (pz)     0.4931 -0.4931  0.0122 -0.0122  0.0527 -0.0527
  21.  H 5 (s)     -0.0018 -0.0018 -0.0436 -0.0436  0.0028  0.0028
  22.  H 6 (s)     -0.1261 -0.1261  0.0028  0.0028 -0.0436 -0.0436
  23.  H 7 (s)      0.0031 -0.0025  0.1211 -0.0468 -0.0003  0.0089
  24.  H 8 (s)     -0.0025  0.0031 -0.0468  0.1211  0.0089 -0.0003
  25.  H 9 (s)      0.6298 -0.1271 -0.0003  0.0089  0.1211 -0.0468
  26.  H10 (s)     -0.1271  0.6298  0.0089 -0.0003 -0.0468  0.1211
  27.  H11 (s)     -0.0003  0.0089  0.6427 -0.1357 -0.0481  0.1211
  28.  H12 (s)      0.0089 -0.0003 -0.1357  0.6427  0.1211 -0.0481
  29.  H13 (s)      0.1211 -0.0468 -0.0481  0.1211  0.6427 -0.1357
  30.  H14 (s)     -0.0468  0.1211  0.1211 -0.0481 -0.1357  0.6427


 AO density matrix:

           AO          1       2       3       4       5       6       7       8
      ------------ ------- ------- ------- ------- ------- ------- ------- -------
   1.  C 1 (s)      1.9995  0.5049  0.0000 -0.0005  0.0000  0.0002  0.0528  0.0003
   2.  C 1 (s)      0.5049  1.8669 -0.0005  0.0215  0.0000  0.0528  0.6538 -0.0042
   3.  C 1 (px)     0.0000 -0.0005  1.6057  0.0013  0.0000  0.0000  0.0007  0.3552
   4.  C 1 (py)    -0.0005  0.0215  0.0013  1.5588  0.0000 -0.0857 -0.8081  0.0074
   5.  C 1 (pz)     0.0000  0.0000  0.0000  0.0000  1.6048  0.0000  0.0000  0.0000
   6.  C 2 (s)      0.0002  0.0528  0.0000 -0.0857  0.0000  1.9995  0.5051 -0.0004
   7.  C 2 (s)      0.0528  0.6538  0.0007 -0.8081  0.0000  0.5051  1.8597  0.0199
   8.  C 2 (px)     0.0003 -0.0042  0.3552  0.0074  0.0000 -0.0004  0.0199  1.5648
   9.  C 2 (py)     0.0857  0.8083  0.0016 -0.9548  0.0000  0.0004 -0.0154 -0.0125
  10.  C 2 (pz)     0.0000  0.0000  0.0000  0.0000  0.3567  0.0000  0.0000  0.0000
  11.  C 3 (s)      0.0000  0.0025 -0.0029 -0.0049  0.0000  0.0001  0.0527 -0.0788
  12.  C 3 (s)      0.0025  0.0908 -0.0816 -0.1149  0.0000  0.0527  0.6522 -0.7439
  13.  C 3 (px)     0.0033  0.0759 -0.0517 -0.0840  0.0000  0.0788  0.7439 -0.7628
  14.  C 3 (py)     0.0045  0.1224 -0.1165 -0.1417  0.0000  0.0336  0.3083 -0.4620
  15.  C 3 (pz)     0.0000  0.0000  0.0000  0.0000  0.0306  0.0000  0.0000  0.0000
  16.  C 4 (s)      0.0000 -0.0003  0.0000  0.0008  0.0000  0.0000  0.0025 -0.0033
  17.  C 4 (s)     -0.0003  0.0084 -0.0004 -0.0186  0.0000  0.0025  0.0908 -0.0759
  18.  C 4 (px)     0.0000  0.0004  0.0011  0.0015  0.0000  0.0029  0.0816 -0.0517
  19.  C 4 (py)    -0.0008  0.0186  0.0015 -0.0389  0.0000  0.0049  0.1149 -0.0840
  20.  C 4 (pz)     0.0000  0.0000  0.0000  0.0000 -0.0011  0.0000  0.0000  0.0000
  21.  H 5 (s)      0.1165  1.0877  1.1691  0.4523  0.0000  0.0105  0.1828  0.1376
  22.  H 6 (s)      0.0003 -0.0055 -0.0025  0.0169  0.0000 -0.0008  0.0268 -0.0460
  23.  H 7 (s)      0.1164  1.0858 -0.5906  0.4413  1.0152  0.0107  0.1879 -0.0663
  24.  H 8 (s)      0.1164  1.0858 -0.5906  0.4413 -1.0152  0.0107  0.1879 -0.0663
  25.  H 9 (s)      0.0000  0.0012 -0.0008 -0.0039  0.0018  0.0019  0.0484 -0.0057
  26.  H10 (s)      0.0000  0.0012 -0.0008 -0.0039 -0.0018  0.0019  0.0484 -0.0057
  27.  H11 (s)      0.0110  0.1925  0.0732 -0.2090 -0.1197  0.1157  1.0803  0.6196
  28.  H12 (s)      0.0110  0.1925  0.0732 -0.2090  0.1197  0.1157  1.0803  0.6196
  29.  H13 (s)      0.0021  0.0533 -0.0630 -0.0341 -0.0280  0.0112  0.1954 -0.2232
  30.  H14 (s)      0.0021  0.0533 -0.0630 -0.0341  0.0280  0.0112  0.1954 -0.2232

           AO          9      10      11      12      13      14      15      16
      ------------ ------- ------- ------- ------- ------- ------- ------- -------
   1.  C 1 (s)      0.0857  0.0000  0.0000  0.0025  0.0033  0.0045  0.0000  0.0000
   2.  C 1 (s)      0.8083  0.0000  0.0025  0.0908  0.0759  0.1224  0.0000 -0.0003
   3.  C 1 (px)     0.0016  0.0000 -0.0029 -0.0816 -0.0517 -0.1165  0.0000  0.0000
   4.  C 1 (py)    -0.9548  0.0000 -0.0049 -0.1149 -0.0840 -0.1417  0.0000  0.0008
   5.  C 1 (pz)     0.0000  0.3567  0.0000  0.0000  0.0000  0.0000  0.0306  0.0000
   6.  C 2 (s)      0.0004  0.0000  0.0001  0.0527  0.0788  0.0336  0.0000  0.0000
   7.  C 2 (s)     -0.0154  0.0000  0.0527  0.6522  0.7439  0.3083  0.0000  0.0025
   8.  C 2 (px)    -0.0125  0.0000 -0.0788 -0.7439 -0.7628 -0.4620  0.0000 -0.0033
   9.  C 2 (py)     1.5555  0.0000 -0.0336 -0.3083 -0.4620  0.1621  0.0000 -0.0045
  10.  C 2 (pz)     0.0000  1.6050  0.0000  0.0000  0.0000  0.0000  0.3574  0.0000
  11.  C 3 (s)     -0.0336  0.0000  1.9995  0.5051  0.0004 -0.0004  0.0000  0.0002
  12.  C 3 (s)     -0.3083  0.0000  0.5051  1.8597 -0.0199  0.0154  0.0000  0.0528
  13.  C 3 (px)    -0.4620  0.0000  0.0004 -0.0199  1.5648 -0.0125  0.0000 -0.0003
  14.  C 3 (py)     0.1621  0.0000 -0.0004  0.0154 -0.0125  1.5555  0.0000 -0.0857
  15.  C 3 (pz)     0.0000  0.3574  0.0000  0.0000  0.0000  0.0000  1.6050  0.0000
  16.  C 4 (s)     -0.0045  0.0000  0.0002  0.0528 -0.0003 -0.0857  0.0000  1.9995
  17.  C 4 (s)     -0.1224  0.0000  0.0528  0.6538  0.0042 -0.8083  0.0000  0.5049
  18.  C 4 (px)    -0.1165  0.0000  0.0000 -0.0007  0.3552  0.0016  0.0000  0.0000
  19.  C 4 (py)    -0.1417  0.0000  0.0857  0.8081  0.0074 -0.9548  0.0000  0.0005
  20.  C 4 (pz)     0.0000  0.0306  0.0000  0.0000  0.0000  0.0000  0.3567  0.0000
  21.  H 5 (s)      0.2034  0.0000 -0.0008  0.0268  0.0460  0.0202  0.0000  0.0003
  22.  H 6 (s)     -0.0202  0.0000  0.0105  0.1828 -0.1376 -0.2034  0.0000  0.1165
  23.  H 7 (s)      0.2033  0.1151  0.0019  0.0484  0.0057  0.0656  0.0251  0.0000
  24.  H 8 (s)      0.2033 -0.1151  0.0019  0.0484  0.0057  0.0656 -0.0251  0.0000
  25.  H 9 (s)     -0.0656  0.0251  0.0107  0.1879  0.0663 -0.2033  0.1151  0.1164
  26.  H10 (s)     -0.0656 -0.0251  0.0107  0.1879  0.0663 -0.2033 -0.1151  0.1164
  27.  H11 (s)     -0.4166 -1.0059  0.0112  0.1954  0.2232  0.0145 -0.1197  0.0021
  28.  H12 (s)     -0.4166  1.0059  0.0112  0.1954  0.2232  0.0145  0.1197  0.0021
  29.  H13 (s)     -0.0145 -0.1197  0.1157  1.0803 -0.6196  0.4166 -1.0059  0.0110
  30.  H14 (s)     -0.0145  0.1197  0.1157  1.0803 -0.6196  0.4166  1.0059  0.0110

           AO         17      18      19      20      21      22      23      24
      ------------ ------- ------- ------- ------- ------- ------- ------- -------
   1.  C 1 (s)     -0.0003  0.0000 -0.0008  0.0000  0.1165  0.0003  0.1164  0.1164
   2.  C 1 (s)      0.0084  0.0004  0.0186  0.0000  1.0877 -0.0055  1.0858  1.0858
   3.  C 1 (px)    -0.0004  0.0011  0.0015  0.0000  1.1691 -0.0025 -0.5906 -0.5906
   4.  C 1 (py)    -0.0186  0.0015 -0.0389  0.0000  0.4523  0.0169  0.4413  0.4413
   5.  C 1 (pz)     0.0000  0.0000  0.0000 -0.0011  0.0000  0.0000  1.0152 -1.0152
   6.  C 2 (s)      0.0025  0.0029  0.0049  0.0000  0.0105 -0.0008  0.0107  0.0107
   7.  C 2 (s)      0.0908  0.0816  0.1149  0.0000  0.1828  0.0268  0.1879  0.1879
   8.  C 2 (px)    -0.0759 -0.0517 -0.0840  0.0000  0.1376 -0.0460 -0.0663 -0.0663
   9.  C 2 (py)    -0.1224 -0.1165 -0.1417  0.0000  0.2034 -0.0202  0.2033  0.2033
  10.  C 2 (pz)     0.0000  0.0000  0.0000  0.0306  0.0000  0.0000  0.1151 -0.1151
  11.  C 3 (s)      0.0528  0.0000  0.0857  0.0000 -0.0008  0.0105  0.0019  0.0019
  12.  C 3 (s)      0.6538 -0.0007  0.8081  0.0000  0.0268  0.1828  0.0484  0.0484
  13.  C 3 (px)     0.0042  0.3552  0.0074  0.0000  0.0460 -0.1376  0.0057  0.0057
  14.  C 3 (py)    -0.8083  0.0016 -0.9548  0.0000  0.0202 -0.2034  0.0656  0.0656
  15.  C 3 (pz)     0.0000  0.0000  0.0000  0.3567  0.0000  0.0000  0.0251 -0.0251
  16.  C 4 (s)      0.5049  0.0000  0.0005  0.0000  0.0003  0.1165  0.0000  0.0000
  17.  C 4 (s)      1.8669  0.0005 -0.0215  0.0000 -0.0055  1.0877  0.0012  0.0012
  18.  C 4 (px)     0.0005  1.6057  0.0013  0.0000  0.0025 -1.1691  0.0008  0.0008
  19.  C 4 (py)    -0.0215  0.0013  1.5588  0.0000 -0.0169 -0.4523  0.0039  0.0039
  20.  C 4 (pz)     0.0000  0.0000  0.0000  1.6048  0.0000  0.0000  0.0018 -0.0018
  21.  H 5 (s)     -0.0055  0.0025 -0.0169  0.0000  1.6365  0.0067  0.3353  0.3353
  22.  H 6 (s)      1.0877 -1.1691 -0.4523  0.0000  0.0067  1.6365 -0.0010 -0.0010
  23.  H 7 (s)      0.0012  0.0008  0.0039  0.0018  0.3353 -0.0010  1.6375  0.3359
  24.  H 8 (s)      0.0012  0.0008  0.0039 -0.0018  0.3353 -0.0010  0.3359  1.6375
  25.  H 9 (s)      1.0858  0.5906 -0.4413  1.0152 -0.0010  0.3353  0.0021  0.0019
  26.  H10 (s)      1.0858  0.5906 -0.4413 -1.0152 -0.0010  0.3353  0.0019  0.0021
  27.  H11 (s)      0.0533  0.0630  0.0341 -0.0280  0.0775  0.0069  0.0704  0.0754
  28.  H12 (s)      0.0533  0.0630  0.0341  0.0280  0.0775  0.0069  0.0754  0.0704
  29.  H13 (s)      0.1925 -0.0732  0.2090 -0.1197  0.0069  0.0775  0.0268  0.0860
  30.  H14 (s)      0.1925 -0.0732  0.2090  0.1197  0.0069  0.0775  0.0860  0.0268

           AO         25      26      27      28      29      30
      ------------ ------- ------- ------- ------- ------- -------
   1.  C 1 (s)      0.0000  0.0000  0.0110  0.0110  0.0021  0.0021
   2.  C 1 (s)      0.0012  0.0012  0.1925  0.1925  0.0533  0.0533
   3.  C 1 (px)    -0.0008 -0.0008  0.0732  0.0732 -0.0630 -0.0630
   4.  C 1 (py)    -0.0039 -0.0039 -0.2090 -0.2090 -0.0341 -0.0341
   5.  C 1 (pz)     0.0018 -0.0018 -0.1197  0.1197 -0.0280  0.0280
   6.  C 2 (s)      0.0019  0.0019  0.1157  0.1157  0.0112  0.0112
   7.  C 2 (s)      0.0484  0.0484  1.0803  1.0803  0.1954  0.1954
   8.  C 2 (px)    -0.0057 -0.0057  0.6196  0.6196 -0.2232 -0.2232
   9.  C 2 (py)    -0.0656 -0.0656 -0.4166 -0.4166 -0.0145 -0.0145
  10.  C 2 (pz)     0.0251 -0.0251 -1.0059  1.0059 -0.1197  0.1197
  11.  C 3 (s)      0.0107  0.0107  0.0112  0.0112  0.1157  0.1157
  12.  C 3 (s)      0.1879  0.1879  0.1954  0.1954  1.0803  1.0803
  13.  C 3 (px)     0.0663  0.0663  0.2232  0.2232 -0.6196 -0.6196
  14.  C 3 (py)    -0.2033 -0.2033  0.0145  0.0145  0.4166  0.4166
  15.  C 3 (pz)     0.1151 -0.1151 -0.1197  0.1197 -1.0059  1.0059
  16.  C 4 (s)      0.1164  0.1164  0.0021  0.0021  0.0110  0.0110
  17.  C 4 (s)      1.0858  1.0858  0.0533  0.0533  0.1925  0.1925
  18.  C 4 (px)     0.5906  0.5906  0.0630  0.0630 -0.0732 -0.0732
  19.  C 4 (py)    -0.4413 -0.4413  0.0341  0.0341  0.2090  0.2090
  20.  C 4 (pz)     1.0152 -1.0152 -0.0280  0.0280 -0.1197  0.1197
  21.  H 5 (s)     -0.0010 -0.0010  0.0775  0.0775  0.0069  0.0069
  22.  H 6 (s)      0.3353  0.3353  0.0069  0.0069  0.0775  0.0775
  23.  H 7 (s)      0.0021  0.0019  0.0704  0.0754  0.0268  0.0860
  24.  H 8 (s)      0.0019  0.0021  0.0754  0.0704  0.0860  0.0268
  25.  H 9 (s)      1.6375  0.3359  0.0268  0.0860  0.0704  0.0754
  26.  H10 (s)      0.3359  1.6375  0.0860  0.0268  0.0754  0.0704
  27.  H11 (s)      0.0268  0.0860  1.6366  0.3450  0.0786  0.0718
  28.  H12 (s)      0.0860  0.0268  0.3450  1.6366  0.0718  0.0786
  29.  H13 (s)      0.0704  0.0754  0.0786  0.0718  1.6366  0.3450
  30.  H14 (s)      0.0754  0.0704  0.0718  0.0786  0.3450  1.6366


 MO density matrix:

      MO     1       2       3       4       5       6       7       8       9
     ---- ------  ------  ------  ------  ------  ------  ------  ------  ------
   1.     2.0000  0.0000  0.0000  0.0000  0.0000  0.0000  0.0000  0.0000  0.0000
   2.     0.0000  2.0000  0.0000  0.0000  0.0000  0.0000  0.0000  0.0000  0.0000
   3.     0.0000  0.0000  2.0000  0.0000  0.0000  0.0000  0.0000  0.0000  0.0000
   4.     0.0000  0.0000  0.0000  2.0000  0.0000  0.0000  0.0000  0.0000  0.0000
   5.     0.0000  0.0000  0.0000  0.0000  2.0000  0.0000  0.0000  0.0000  0.0000
   6.     0.0000  0.0000  0.0000  0.0000  0.0000  2.0000  0.0000  0.0000  0.0000
   7.     0.0000  0.0000  0.0000  0.0000  0.0000  0.0000  2.0000  0.0000  0.0000
   8.     0.0000  0.0000  0.0000  0.0000  0.0000  0.0000  0.0000  2.0000  0.0000
   9.     0.0000  0.0000  0.0000  0.0000  0.0000  0.0000  0.0000  0.0000  2.0000
  10.     0.0000  0.0000  0.0000  0.0000  0.0000  0.0000  0.0000  0.0000  0.0000
  11.     0.0000  0.0000  0.0000  0.0000  0.0000  0.0000  0.0000  0.0000  0.0000
  12.     0.0000  0.0000  0.0000  0.0000  0.0000  0.0000  0.0000  0.0000  0.0000
  13.     0.0000  0.0000  0.0000  0.0000  0.0000  0.0000  0.0000  0.0000  0.0000
  14.     0.0000  0.0000  0.0000  0.0000  0.0000  0.0000  0.0000  0.0000  0.0000
  15.     0.0000  0.0000  0.0000  0.0000  0.0000  0.0000  0.0000  0.0000  0.0000
  16.     0.0000  0.0000  0.0000  0.0000  0.0000  0.0000  0.0000  0.0000  0.0000
  17.     0.0000  0.0000  0.0000  0.0000  0.0000  0.0000  0.0000  0.0000  0.0000
  18.     0.0000  0.0000  0.0000  0.0000  0.0000  0.0000  0.0000  0.0000  0.0000
  19.     0.0000  0.0000  0.0000  0.0000  0.0000  0.0000  0.0000  0.0000  0.0000
  20.     0.0000  0.0000  0.0000  0.0000  0.0000  0.0000  0.0000  0.0000  0.0000
  21.     0.0000  0.0000  0.0000  0.0000  0.0000  0.0000  0.0000  0.0000  0.0000
  22.     0.0000  0.0000  0.0000  0.0000  0.0000  0.0000  0.0000  0.0000  0.0000
  23.     0.0000  0.0000  0.0000  0.0000  0.0000  0.0000  0.0000  0.0000  0.0000
  24.     0.0000  0.0000  0.0000  0.0000  0.0000  0.0000  0.0000  0.0000  0.0000
  25.     0.0000  0.0000  0.0000  0.0000  0.0000  0.0000  0.0000  0.0000  0.0000
  26.     0.0000  0.0000  0.0000  0.0000  0.0000  0.0000  0.0000  0.0000  0.0000
  27.     0.0000  0.0000  0.0000  0.0000  0.0000  0.0000  0.0000  0.0000  0.0000
  28.     0.0000  0.0000  0.0000  0.0000  0.0000  0.0000  0.0000  0.0000  0.0000
  29.     0.0000  0.0000  0.0000  0.0000  0.0000  0.0000  0.0000  0.0000  0.0000
  30.     0.0000  0.0000  0.0000  0.0000  0.0000  0.0000  0.0000  0.0000  0.0000

      MO    10      11      12      13      14      15      16      17      18
     ---- ------  ------  ------  ------  ------  ------  ------  ------  ------
   1.     0.0000  0.0000  0.0000  0.0000  0.0000  0.0000  0.0000  0.0000  0.0000
   2.     0.0000  0.0000  0.0000  0.0000  0.0000  0.0000  0.0000  0.0000  0.0000
   3.     0.0000  0.0000  0.0000  0.0000  0.0000  0.0000  0.0000  0.0000  0.0000
   4.     0.0000  0.0000  0.0000  0.0000  0.0000  0.0000  0.0000  0.0000  0.0000
   5.     0.0000  0.0000  0.0000  0.0000  0.0000  0.0000  0.0000  0.0000  0.0000
   6.     0.0000  0.0000  0.0000  0.0000  0.0000  0.0000  0.0000  0.0000  0.0000
   7.     0.0000  0.0000  0.0000  0.0000  0.0000  0.0000  0.0000  0.0000  0.0000
   8.     0.0000  0.0000  0.0000  0.0000  0.0000  0.0000  0.0000  0.0000  0.0000
   9.     0.0000  0.0000  0.0000  0.0000  0.0000  0.0000  0.0000  0.0000  0.0000
  10.     2.0000  0.0000  0.0000  0.0000  0.0000  0.0000  0.0000  0.0000  0.0000
  11.     0.0000  2.0000  0.0000  0.0000  0.0000  0.0000  0.0000  0.0000  0.0000
  12.     0.0000  0.0000  2.0000  0.0000  0.0000  0.0000  0.0000  0.0000  0.0000
  13.     0.0000  0.0000  0.0000  2.0000  0.0000  0.0000  0.0000  0.0000  0.0000
  14.     0.0000  0.0000  0.0000  0.0000  2.0000  0.0000  0.0000  0.0000  0.0000
  15.     0.0000  0.0000  0.0000  0.0000  0.0000  2.0000  0.0000  0.0000  0.0000
  16.     0.0000  0.0000  0.0000  0.0000  0.0000  0.0000  2.0000  0.0000  0.0000
  17.     0.0000  0.0000  0.0000  0.0000  0.0000  0.0000  0.0000  2.0000  0.0000
  18.     0.0000  0.0000  0.0000  0.0000  0.0000  0.0000  0.0000  0.0000  0.0000
  19.     0.0000  0.0000  0.0000  0.0000  0.0000  0.0000  0.0000  0.0000  0.0000
  20.     0.0000  0.0000  0.0000  0.0000  0.0000  0.0000  0.0000  0.0000  0.0000
  21.     0.0000  0.0000  0.0000  0.0000  0.0000  0.0000  0.0000  0.0000  0.0000
  22.     0.0000  0.0000  0.0000  0.0000  0.0000  0.0000  0.0000  0.0000  0.0000
  23.     0.0000  0.0000  0.0000  0.0000  0.0000  0.0000  0.0000  0.0000  0.0000
  24.     0.0000  0.0000  0.0000  0.0000  0.0000  0.0000  0.0000  0.0000  0.0000
  25.     0.0000  0.0000  0.0000  0.0000  0.0000  0.0000  0.0000  0.0000  0.0000
  26.     0.0000  0.0000  0.0000  0.0000  0.0000  0.0000  0.0000  0.0000  0.0000
  27.     0.0000  0.0000  0.0000  0.0000  0.0000  0.0000  0.0000  0.0000  0.0000
  28.     0.0000  0.0000  0.0000  0.0000  0.0000  0.0000  0.0000  0.0000  0.0000
  29.     0.0000  0.0000  0.0000  0.0000  0.0000  0.0000  0.0000  0.0000  0.0000
  30.     0.0000  0.0000  0.0000  0.0000  0.0000  0.0000  0.0000  0.0000  0.0000

      MO    19      20      21      22      23      24      25      26      27
     ---- ------  ------  ------  ------  ------  ------  ------  ------  ------
   1.     0.0000  0.0000  0.0000  0.0000  0.0000  0.0000  0.0000  0.0000  0.0000
   2.     0.0000  0.0000  0.0000  0.0000  0.0000  0.0000  0.0000  0.0000  0.0000
   3.     0.0000  0.0000  0.0000  0.0000  0.0000  0.0000  0.0000  0.0000  0.0000
   4.     0.0000  0.0000  0.0000  0.0000  0.0000  0.0000  0.0000  0.0000  0.0000
   5.     0.0000  0.0000  0.0000  0.0000  0.0000  0.0000  0.0000  0.0000  0.0000
   6.     0.0000  0.0000  0.0000  0.0000  0.0000  0.0000  0.0000  0.0000  0.0000
   7.     0.0000  0.0000  0.0000  0.0000  0.0000  0.0000  0.0000  0.0000  0.0000
   8.     0.0000  0.0000  0.0000  0.0000  0.0000  0.0000  0.0000  0.0000  0.0000
   9.     0.0000  0.0000  0.0000  0.0000  0.0000  0.0000  0.0000  0.0000  0.0000
  10.     0.0000  0.0000  0.0000  0.0000  0.0000  0.0000  0.0000  0.0000  0.0000
  11.     0.0000  0.0000  0.0000  0.0000  0.0000  0.0000  0.0000  0.0000  0.0000
  12.     0.0000  0.0000  0.0000  0.0000  0.0000  0.0000  0.0000  0.0000  0.0000
  13.     0.0000  0.0000  0.0000  0.0000  0.0000  0.0000  0.0000  0.0000  0.0000
  14.     0.0000  0.0000  0.0000  0.0000  0.0000  0.0000  0.0000  0.0000  0.0000
  15.     0.0000  0.0000  0.0000  0.0000  0.0000  0.0000  0.0000  0.0000  0.0000
  16.     0.0000  0.0000  0.0000  0.0000  0.0000  0.0000  0.0000  0.0000  0.0000
  17.     0.0000  0.0000  0.0000  0.0000  0.0000  0.0000  0.0000  0.0000  0.0000
  18.     0.0000  0.0000  0.0000  0.0000  0.0000  0.0000  0.0000  0.0000  0.0000
  19.     0.0000  0.0000  0.0000  0.0000  0.0000  0.0000  0.0000  0.0000  0.0000
  20.     0.0000  0.0000  0.0000  0.0000  0.0000  0.0000  0.0000  0.0000  0.0000
  21.     0.0000  0.0000  0.0000  0.0000  0.0000  0.0000  0.0000  0.0000  0.0000
  22.     0.0000  0.0000  0.0000  0.0000  0.0000  0.0000  0.0000  0.0000  0.0000
  23.     0.0000  0.0000  0.0000  0.0000  0.0000  0.0000  0.0000  0.0000  0.0000
  24.     0.0000  0.0000  0.0000  0.0000  0.0000  0.0000  0.0000  0.0000  0.0000
  25.     0.0000  0.0000  0.0000  0.0000  0.0000  0.0000  0.0000  0.0000  0.0000
  26.     0.0000  0.0000  0.0000  0.0000  0.0000  0.0000  0.0000  0.0000  0.0000
  27.     0.0000  0.0000  0.0000  0.0000  0.0000  0.0000  0.0000  0.0000  0.0000
  28.     0.0000  0.0000  0.0000  0.0000  0.0000  0.0000  0.0000  0.0000  0.0000
  29.     0.0000  0.0000  0.0000  0.0000  0.0000  0.0000  0.0000  0.0000  0.0000
  30.     0.0000  0.0000  0.0000  0.0000  0.0000  0.0000  0.0000  0.0000  0.0000

      MO    28      29      30
     ---- ------  ------  ------
   1.     0.0000  0.0000  0.0000
   2.     0.0000  0.0000  0.0000
   3.     0.0000  0.0000  0.0000
   4.     0.0000  0.0000  0.0000
   5.     0.0000  0.0000  0.0000
   6.     0.0000  0.0000  0.0000
   7.     0.0000  0.0000  0.0000
   8.     0.0000  0.0000  0.0000
   9.     0.0000  0.0000  0.0000
  10.     0.0000  0.0000  0.0000
  11.     0.0000  0.0000  0.0000
  12.     0.0000  0.0000  0.0000
  13.     0.0000  0.0000  0.0000
  14.     0.0000  0.0000  0.0000
  15.     0.0000  0.0000  0.0000
  16.     0.0000  0.0000  0.0000
  17.     0.0000  0.0000  0.0000
  18.     0.0000  0.0000  0.0000
  19.     0.0000  0.0000  0.0000
  20.     0.0000  0.0000  0.0000
  21.     0.0000  0.0000  0.0000
  22.     0.0000  0.0000  0.0000
  23.     0.0000  0.0000  0.0000
  24.     0.0000  0.0000  0.0000
  25.     0.0000  0.0000  0.0000
  26.     0.0000  0.0000  0.0000
  27.     0.0000  0.0000  0.0000
  28.     0.0000  0.0000  0.0000
  29.     0.0000  0.0000  0.0000
  30.     0.0000  0.0000  0.0000


 NATURAL POPULATIONS:  Natural atomic orbital occupancies

  NAO Atom No lang   Type(AO)    Occupancy      Energy
 -------------------------------------------------------
   1    C  1  s      Cor( 1s)     2.00000     -11.01907
   2    C  1  s      Val( 2s)     1.08114      -0.15319
   3    C  1  px     Val( 2p)     1.03031       0.08427
   4    C  1  py     Val( 2p)     0.98724       0.09634
   5    C  1  pz     Val( 2p)     1.03058       0.08369

   6    C  2  s      Cor( 1s)     2.00000     -11.02647
   7    C  2  s      Val( 2s)     1.08016      -0.15573
   8    C  2  px     Val( 2p)     0.98301       0.10407
   9    C  2  py     Val( 2p)     0.96712       0.11085
  10    C  2  pz     Val( 2p)     1.02034       0.09274

  11    C  3  s      Cor( 1s)     2.00000     -11.02647
  12    C  3  s      Val( 2s)     1.08016      -0.15573
  13    C  3  px     Val( 2p)     0.98301       0.10407
  14    C  3  py     Val( 2p)     0.96712       0.11085
  15    C  3  pz     Val( 2p)     1.02034       0.09274

  16    C  4  s      Cor( 1s)     2.00000     -11.01907
  17    C  4  s      Val( 2s)     1.08114      -0.15319
  18    C  4  px     Val( 2p)     1.03031       0.08427
  19    C  4  py     Val( 2p)     0.98724       0.09634
  20    C  4  pz     Val( 2p)     1.03058       0.08369

  21    H  5  s      Val( 1s)     0.95920       0.08461

  22    H  6  s      Val( 1s)     0.95920       0.08461

  23    H  7  s      Val( 1s)     0.96099       0.08415

  24    H  8  s      Val( 1s)     0.96099       0.08415

  25    H  9  s      Val( 1s)     0.96099       0.08415

  26    H 10  s      Val( 1s)     0.96099       0.08415

  27    H 11  s      Val( 1s)     0.96946       0.08016

  28    H 12  s      Val( 1s)     0.96946       0.08016

  29    H 13  s      Val( 1s)     0.96946       0.08016

  30    H 14  s      Val( 1s)     0.96946       0.08016


 Summary of Natural Population Analysis:

                                     Natural Population
             Natural    ---------------------------------------------
  Atom No    Charge        Core      Valence    Rydberg      Total
 --------------------------------------------------------------------
    C  1   -0.12927      2.00000     4.12927    0.00000     6.12927
    C  2   -0.05063      2.00000     4.05063    0.00000     6.05063
    C  3   -0.05063      2.00000     4.05063    0.00000     6.05063
    C  4   -0.12927      2.00000     4.12927    0.00000     6.12927
    H  5    0.04080      0.00000     0.95920    0.00000     0.95920
    H  6    0.04080      0.00000     0.95920    0.00000     0.95920
    H  7    0.03901      0.00000     0.96099    0.00000     0.96099
    H  8    0.03901      0.00000     0.96099    0.00000     0.96099
    H  9    0.03901      0.00000     0.96099    0.00000     0.96099
    H 10    0.03901      0.00000     0.96099    0.00000     0.96099
    H 11    0.03054      0.00000     0.96946    0.00000     0.96946
    H 12    0.03054      0.00000     0.96946    0.00000     0.96946
    H 13    0.03054      0.00000     0.96946    0.00000     0.96946
    H 14    0.03054      0.00000     0.96946    0.00000     0.96946
 ====================================================================
 * Total *  0.00000      7.99999    26.00001    0.00000    34.00000

                                 Natural Population
 ---------------------------------------------------------
   Core                       7.99999 ( 99.9999% of    8)
   Valence                   26.00001 (100.0000% of   26)
   Natural Minimal Basis     34.00000 (100.0000% of   34)
   Natural Rydberg Basis      0.00000 (  0.0000% of   34)
 ---------------------------------------------------------

    Atom No         Natural Electron Configuration
 ----------------------------------------------------------------------------
      C  1      [core]2s( 1.08)2p( 3.05)
      C  2      [core]2s( 1.08)2p( 2.97)
      C  3      [core]2s( 1.08)2p( 2.97)
      C  4      [core]2s( 1.08)2p( 3.05)
      H  5            1s( 0.96)
      H  6            1s( 0.96)
      H  7            1s( 0.96)
      H  8            1s( 0.96)
      H  9            1s( 0.96)
      H 10            1s( 0.96)
      H 11            1s( 0.97)
      H 12            1s( 0.97)
      H 13            1s( 0.97)
      H 14            1s( 0.97)


 PNAOs in the AO basis:

           AO          1       2       3       4       5       6       7       8
      ------------ ------- ------- ------- ------- ------- ------- ------- -------
   1.  C 1 (s)      0.9834 -0.3142  0.0000  0.0000  0.0000  0.0000  0.0000  0.0000
   2.  C 1 (s)      0.0601  1.0306  0.0000  0.0000  0.0000  0.0000  0.0000  0.0000
   3.  C 1 (px)     0.0000  0.0000  1.0000  0.0000  0.0000  0.0000  0.0000  0.0000
   4.  C 1 (py)     0.0000  0.0000  0.0000  1.0000  0.0000  0.0000  0.0000  0.0000
   5.  C 1 (pz)     0.0000  0.0000  0.0000  0.0000  1.0000  0.0000  0.0000  0.0000
   6.  C 2 (s)      0.0000  0.0000  0.0000  0.0000  0.0000  0.9838 -0.3127  0.0000
   7.  C 2 (s)      0.0000  0.0000  0.0000  0.0000  0.0000  0.0586  1.0307  0.0000
   8.  C 2 (px)     0.0000  0.0000  0.0000  0.0000  0.0000  0.0000  0.0000  1.0000
   9.  C 2 (py)     0.0000  0.0000  0.0000  0.0000  0.0000  0.0000  0.0000  0.0000
  10.  C 2 (pz)     0.0000  0.0000  0.0000  0.0000  0.0000  0.0000  0.0000  0.0000
  11.  C 3 (s)      0.0000  0.0000  0.0000  0.0000  0.0000  0.0000  0.0000  0.0000
  12.  C 3 (s)      0.0000  0.0000  0.0000  0.0000  0.0000  0.0000  0.0000  0.0000
  13.  C 3 (px)     0.0000  0.0000  0.0000  0.0000  0.0000  0.0000  0.0000  0.0000
  14.  C 3 (py)     0.0000  0.0000  0.0000  0.0000  0.0000  0.0000  0.0000  0.0000
  15.  C 3 (pz)     0.0000  0.0000  0.0000  0.0000  0.0000  0.0000  0.0000  0.0000
  16.  C 4 (s)      0.0000  0.0000  0.0000  0.0000  0.0000  0.0000  0.0000  0.0000
  17.  C 4 (s)      0.0000  0.0000  0.0000  0.0000  0.0000  0.0000  0.0000  0.0000
  18.  C 4 (px)     0.0000  0.0000  0.0000  0.0000  0.0000  0.0000  0.0000  0.0000
  19.  C 4 (py)     0.0000  0.0000  0.0000  0.0000  0.0000  0.0000  0.0000  0.0000
  20.  C 4 (pz)     0.0000  0.0000  0.0000  0.0000  0.0000  0.0000  0.0000  0.0000
  21.  H 5 (s)      0.0000  0.0000  0.0000  0.0000  0.0000  0.0000  0.0000  0.0000
  22.  H 6 (s)      0.0000  0.0000  0.0000  0.0000  0.0000  0.0000  0.0000  0.0000
  23.  H 7 (s)      0.0000  0.0000  0.0000  0.0000  0.0000  0.0000  0.0000  0.0000
  24.  H 8 (s)      0.0000  0.0000  0.0000  0.0000  0.0000  0.0000  0.0000  0.0000
  25.  H 9 (s)      0.0000  0.0000  0.0000  0.0000  0.0000  0.0000  0.0000  0.0000
  26.  H10 (s)      0.0000  0.0000  0.0000  0.0000  0.0000  0.0000  0.0000  0.0000
  27.  H11 (s)      0.0000  0.0000  0.0000  0.0000  0.0000  0.0000  0.0000  0.0000
[...]
      Select eigenvectors with eigenvalue > 1.900
       1.995 0.004 0.000 0.000 0.000 0.000
      Eigenvector ( 1) has occupancy 1.99495
            0.0000 0.0000 0.0000 0.7214 0.0000 0.6926
      Occupancy is 1.995 after deleting minor hybrid components
            0.0000 0.0000 0.0000 0.7214 0.0000 0.6926
           NBO accepted:   25. Label:BD ( 1)   4   6
      Occupancy is 0.004 for antibonding component
            0.0000 0.0000 0.0000-0.6926 0.0000 0.7214
           NBO accepted:   26. Label:BD*( 1)   4   6
        2 eigenvector(s) stashed in permanent list

 Search of NHO DM block for the following atom(s):   4   9
      Select eigenvectors with eigenvalue > 1.900
       1.995 0.005 0.000 0.000 0.000 0.000
      Eigenvector ( 1) has occupancy 1.99540
            0.0000 0.7209 0.0000 0.0000 0.0000 0.6930
      Occupancy is 1.995 after deleting minor hybrid components
            0.0000 0.7209 0.0000 0.0000 0.0000 0.6930
           NBO accepted:   27. Label:BD ( 1)   4   9
      Occupancy is 0.005 for antibonding component
            0.0000-0.6930 0.0000 0.0000 0.0000 0.7209
           NBO accepted:   28. Label:BD*( 1)   4   9
        2 eigenvector(s) stashed in permanent list

 Search of NHO DM block for the following atom(s):   4  10
      Select eigenvectors with eigenvalue > 1.900
       1.995 0.005 0.000 0.000 0.000 0.000
      Eigenvector ( 1) has occupancy 1.99540
            0.0000 0.0000 0.7209 0.0000 0.0000 0.6930
      Occupancy is 1.995 after deleting minor hybrid components
            0.0000 0.0000 0.7209 0.0000 0.0000 0.6930
           NBO accepted:   29. Label:BD ( 1)   4  10
      Occupancy is 0.005 for antibonding component
            0.0000 0.0000-0.6930 0.0000 0.0000 0.7209
           NBO accepted:   30. Label:BD*( 1)   4  10
        2 eigenvector(s) stashed in permanent list

  2-center NBOs projected from the NHO density matrix
       0.000 electrons remain in the fully projected matrix

                            Occupancies       Lewis Structure    Low   High
         Max    Occ     -------------------  -----------------   occ   occ
  Cycle  Ctr   Thresh    Lewis   non-Lewis     CR  BD  nC  LP    (L)   (NL)
 ============================================================================
    1     2     1.90    33.91071   0.08929      4  13   0   0     0      0
 ----------------------------------------------------------------------------

 Structure accepted: No low occupancy Lewis orbitals

 -------------------------------------------------------
   Core                      7.99999 (100.000% of   8)
   Valence Lewis            25.91072 ( 99.657% of  26)
  ==================      =============================
   Total Lewis              33.91071 ( 99.737% of  34)
  -----------------------------------------------------
   Valence non-Lewis         0.08929 (  0.263% of  34)
   Rydberg non-Lewis         0.00000 (  0.000% of  34)
  ==================      =============================
   Total non-Lewis           0.08929 (  0.263% of  34)
 -------------------------------------------------------


     (Occupancy)   Bond orbital / Coefficients / Hybrids
 ------------------ Lewis ------------------------------------------------------
   1. (2.00000) CR ( 1) C  1            s(100.00%)
                                         1.0000  0.0000  0.0000  0.0000  0.0000
   2. (2.00000) CR ( 1) C  2            s(100.00%)
                                         1.0000  0.0000  0.0000  0.0000  0.0000
   3. (2.00000) CR ( 1) C  3            s(100.00%)
                                         1.0000  0.0000  0.0000  0.0000  0.0000
   4. (2.00000) CR ( 1) C  4            s(100.00%)
                                         1.0000  0.0000  0.0000  0.0000  0.0000
   5. (1.99382) BD ( 1) C  1- C  2
               ( 50.49%)   0.7106* C  1 s( 25.79%)p 2.88( 74.21%)
                                         0.0000  0.5079  0.0023 -0.8614  0.0000
               ( 49.51%)   0.7036* C  2 s( 25.63%)p 2.90( 74.37%)
                                         0.0000  0.5062 -0.0202  0.8622  0.0000
   6. (1.99495) BD ( 1) C  1- H  5
               ( 52.03%)   0.7214* C  1 s( 24.93%)p 3.01( 75.07%)
                                         0.0000  0.4993  0.8141  0.2966  0.0000
               ( 47.97%)   0.6926* H  5 s(100.00%)
                                         1.0000
   7. (1.99540) BD ( 1) C  1- H  7
               ( 51.98%)   0.7209* C  1 s( 24.64%)p 3.06( 75.36%)
                                         0.0000  0.4963 -0.4107  0.2915  0.7071
               ( 48.02%)   0.6930* H  7 s(100.00%)
                                         1.0000
   8. (1.99540) BD ( 1) C  1- H  8
               ( 51.98%)   0.7209* C  1 s( 24.64%)p 3.06( 75.36%)
                                         0.0000  0.4963 -0.4107  0.2915 -0.7071
               ( 48.02%)   0.6930* H  8 s(100.00%)
                                         1.0000
   9. (1.99004) BD ( 1) C  2- C  3
               ( 50.00%)   0.7071* C  2 s( 25.46%)p 2.93( 74.54%)
                                         0.0000  0.5046 -0.8038 -0.3151  0.0000
               ( 50.00%)   0.7071* C  3 s( 25.46%)p 2.93( 74.54%)
                                         0.0000  0.5046  0.8038  0.3151  0.0000
  10. (1.99038) BD ( 1) C  2- H 11
               ( 51.52%)   0.7178* C  2 s( 24.46%)p 3.09( 75.54%)
                                         0.0000  0.4945  0.4204 -0.2806 -0.7071
               ( 48.48%)   0.6963* H 11 s(100.00%)
                                         1.0000
  11. (1.99038) BD ( 1) C  2- H 12
               ( 51.52%)   0.7178* C  2 s( 24.46%)p 3.09( 75.54%)
                                         0.0000  0.4945  0.4204 -0.2806  0.7071
               ( 48.48%)   0.6963* H 12 s(100.00%)
                                         1.0000
  12. (1.99382) BD ( 1) C  3- C  4
               ( 49.51%)   0.7036* C  3 s( 25.63%)p 2.90( 74.37%)
                                         0.0000  0.5062  0.0202 -0.8622  0.0000
               ( 50.49%)   0.7106* C  4 s( 25.79%)p 2.88( 74.21%)
                                         0.0000  0.5079 -0.0023  0.8614  0.0000
  13. (1.99038) BD ( 1) C  3- H 13
               ( 51.52%)   0.7178* C  3 s( 24.46%)p 3.09( 75.54%)
                                         0.0000  0.4945 -0.4204  0.2806 -0.7071
               ( 48.48%)   0.6963* H 13 s(100.00%)
                                         1.0000
  14. (1.99038) BD ( 1) C  3- H 14
               ( 51.52%)   0.7178* C  3 s( 24.46%)p 3.09( 75.54%)
                                         0.0000  0.4945 -0.4204  0.2806  0.7071
               ( 48.48%)   0.6963* H 14 s(100.00%)
                                         1.0000
  15. (1.99495) BD ( 1) C  4- H  6
               ( 52.03%)   0.7214* C  4 s( 24.93%)p 3.01( 75.07%)
                                         0.0000  0.4993 -0.8141 -0.2966  0.0000
               ( 47.97%)   0.6926* H  6 s(100.00%)
                                         1.0000
  16. (1.99540) BD ( 1) C  4- H  9
               ( 51.98%)   0.7209* C  4 s( 24.64%)p 3.06( 75.36%)
                                         0.0000  0.4963  0.4107 -0.2915  0.7071
               ( 48.02%)   0.6930* H  9 s(100.00%)
                                         1.0000
  17. (1.99540) BD ( 1) C  4- H 10
               ( 51.98%)   0.7209* C  4 s( 24.64%)p 3.06( 75.36%)
                                         0.0000  0.4963  0.4107 -0.2915 -0.7071
               ( 48.02%)   0.6930* H 10 s(100.00%)
                                         1.0000
 ---------------- non-Lewis ----------------------------------------------------
  18. (0.00623) BD*( 1) C  1- C  2
               ( 49.51%)   0.7036* C  1 s( 25.79%)p 2.88( 74.21%)
                                         0.0000 -0.5079 -0.0023  0.8614  0.0000
               ( 50.49%)  -0.7106* C  2 s( 25.63%)p 2.90( 74.37%)
                                         0.0000 -0.5062  0.0202 -0.8622  0.0000
  19. (0.00445) BD*( 1) C  1- H  5
               ( 47.97%)   0.6926* C  1 s( 24.93%)p 3.01( 75.07%)
                                         0.0000 -0.4993 -0.8141 -0.2966  0.0000
               ( 52.03%)  -0.7214* H  5 s(100.00%)
                                        -1.0000
  20. (0.00522) BD*( 1) C  1- H  7
               ( 48.02%)   0.6930* C  1 s( 24.64%)p 3.06( 75.36%)
                                         0.0000 -0.4963  0.4107 -0.2915 -0.7071
               ( 51.98%)  -0.7209* H  7 s(100.00%)
                                        -1.0000
  21. (0.00522) BD*( 1) C  1- H  8
               ( 48.02%)   0.6930* C  1 s( 24.64%)p 3.06( 75.36%)
                                         0.0000 -0.4963  0.4107 -0.2915  0.7071
               ( 51.98%)  -0.7209* H  8 s(100.00%)
                                        -1.0000
  22. (0.01141) BD*( 1) C  2- C  3
               ( 50.00%)   0.7071* C  2 s( 25.46%)p 2.93( 74.54%)
                                         0.0000  0.5046 -0.8038 -0.3151  0.0000
               ( 50.00%)  -0.7071* C  3 s( 25.46%)p 2.93( 74.54%)
                                         0.0000  0.5046  0.8038  0.3151  0.0000
  23. (0.00891) BD*( 1) C  2- H 11
               ( 48.48%)   0.6963* C  2 s( 24.46%)p 3.09( 75.54%)
                                         0.0000 -0.4945 -0.4204  0.2806  0.7071
               ( 51.52%)  -0.7178* H 11 s(100.00%)
                                        -1.0000
  24. (0.00891) BD*( 1) C  2- H 12
               ( 48.48%)   0.6963* C  2 s( 24.46%)p 3.09( 75.54%)
                                         0.0000 -0.4945 -0.4204  0.2806 -0.7071
               ( 51.52%)  -0.7178* H 12 s(100.00%)
                                        -1.0000
  25. (0.00623) BD*( 1) C  3- C  4
               ( 50.49%)   0.7106* C  3 s( 25.63%)p 2.90( 74.37%)
                                         0.0000  0.5062  0.0202 -0.8622  0.0000
               ( 49.51%)  -0.7036* C  4 s( 25.79%)p 2.88( 74.21%)
                                         0.0000  0.5079 -0.0023  0.8614  0.0000
  26. (0.00891) BD*( 1) C  3- H 13
               ( 48.48%)   0.6963* C  3 s( 24.46%)p 3.09( 75.54%)
                                         0.0000 -0.4945  0.4204 -0.2806  0.7071
               ( 51.52%)  -0.7178* H 13 s(100.00%)
                                        -1.0000
  27. (0.00891) BD*( 1) C  3- H 14
               ( 48.48%)   0.6963* C  3 s( 24.46%)p 3.09( 75.54%)
                                         0.0000 -0.4945  0.4204 -0.2806 -0.7071
               ( 51.52%)  -0.7178* H 14 s(100.00%)
                                        -1.0000
  28. (0.00445) BD*( 1) C  4- H  6
               ( 47.97%)   0.6926* C  4 s( 24.93%)p 3.01( 75.07%)
                                         0.0000 -0.4993  0.8141  0.2966  0.0000
               ( 52.03%)  -0.7214* H  6 s(100.00%)
                                        -1.0000
  29. (0.00522) BD*( 1) C  4- H  9
               ( 48.02%)   0.6930* C  4 s( 24.64%)p 3.06( 75.36%)
                                         0.0000 -0.4963 -0.4107  0.2915 -0.7071
               ( 51.98%)  -0.7209* H  9 s(100.00%)
                                        -1.0000
  30. (0.00522) BD*( 1) C  4- H 10
               ( 48.02%)   0.6930* C  4 s( 24.64%)p 3.06( 75.36%)
                                         0.0000 -0.4963 -0.4107  0.2915  0.7071
               ( 51.98%)  -0.7209* H 10 s(100.00%)
                                        -1.0000


 NHO DIRECTIONALITY AND BOND BENDING (deviation from line of nuclear centers at
                                      the position of maximum hybrid amplitude)

         [Thresholds for printing:  angular deviation  >  1.0 degree]
                                    p- or d-character  > 25.0%
                                    orbital occupancy  >  0.10e

                        Line of Centers        Hybrid 1             Hybrid 2
                        ---------------  -------------------  ------------------
           NBO            Theta   Phi    Theta   Phi    Dev   Theta   Phi    Dev
 ===============================================================================
   5. BD ( 1) C  1- C  2   90.0  270.0     --     --    --     90.0   91.2   1.2
   6. BD ( 1) C  1- H  5   90.0   21.5    90.0   20.2   1.3     --     --    --
   7. BD ( 1) C  1- H  7   36.1  142.9    35.6  144.4   1.1     --     --    --
   8. BD ( 1) C  1- H  8  143.9  142.9   144.4  144.4   1.1     --     --    --
   9. BD ( 1) C  2- C  3   90.0  202.9    90.0  201.6   1.2    90.0   21.6   1.2
  10. BD ( 1) C  2- H 11  143.1  325.9   144.3  326.2   1.2     --     --    --
  11. BD ( 1) C  2- H 12   36.9  325.9    35.7  326.2   1.2     --     --    --
  12. BD ( 1) C  3- C  4   90.0  270.0    90.0  271.2   1.2     --     --    --
  13. BD ( 1) C  3- H 13  143.1  145.9   144.3  146.2   1.2     --     --    --
  14. BD ( 1) C  3- H 14   36.9  145.9    35.7  146.2   1.2     --     --    --
  15. BD ( 1) C  4- H  6   90.0  201.5    90.0  200.2   1.3     --     --    --
  16. BD ( 1) C  4- H  9   36.1  322.9    35.6  324.4   1.1     --     --    --
  17. BD ( 1) C  4- H 10  143.9  322.9   144.4  324.4   1.1     --     --    --


 SECOND ORDER PERTURBATION THEORY ANALYSIS OF FOCK MATRIX IN NBO BASIS

     Threshold for printing:   0.50 kcal/mol
                                                          E(2) E(NL)-E(L) F(L,NL)
      Donor (L) NBO              Acceptor (NL) NBO      kcal/mol   a.u.    a.u.
 ===============================================================================

 within unit  1
    5. BD ( 1) C  1- C  2      25. BD*( 1) C  3- C  4      2.18    1.35   0.048
    6. BD ( 1) C  1- H  5      22. BD*( 1) C  2- C  3      2.45    1.33   0.051
    7. BD ( 1) C  1- H  7      23. BD*( 1) C  2- H 11      2.28    1.34   0.049
    8. BD ( 1) C  1- H  8      24. BD*( 1) C  2- H 12      2.28    1.34   0.049
    9. BD ( 1) C  2- C  3      18. BD*( 1) C  1- C  2      0.53    1.34   0.024
    9. BD ( 1) C  2- C  3      19. BD*( 1) C  1- H  5      2.18    1.36   0.049
    9. BD ( 1) C  2- C  3      25. BD*( 1) C  3- C  4      0.53    1.34   0.024
    9. BD ( 1) C  2- C  3      28. BD*( 1) C  4- H  6      2.18    1.36   0.049
   10. BD ( 1) C  2- H 11      20. BD*( 1) C  1- H  7      2.62    1.33   0.053
   10. BD ( 1) C  2- H 11      27. BD*( 1) C  3- H 14      2.45    1.33   0.051
   11. BD ( 1) C  2- H 12      21. BD*( 1) C  1- H  8      2.62    1.33   0.053
   11. BD ( 1) C  2- H 12      26. BD*( 1) C  3- H 13      2.45    1.33   0.051
   12. BD ( 1) C  3- C  4      18. BD*( 1) C  1- C  2      2.18    1.35   0.048
   13. BD ( 1) C  3- H 13      24. BD*( 1) C  2- H 12      2.45    1.33   0.051
   13. BD ( 1) C  3- H 13      29. BD*( 1) C  4- H  9      2.62    1.33   0.053
   14. BD ( 1) C  3- H 14      23. BD*( 1) C  2- H 11      2.45    1.33   0.051
   14. BD ( 1) C  3- H 14      30. BD*( 1) C  4- H 10      2.62    1.33   0.053
   15. BD ( 1) C  4- H  6      22. BD*( 1) C  2- C  3      2.45    1.33   0.051
   16. BD ( 1) C  4- H  9      26. BD*( 1) C  3- H 13      2.28    1.34   0.049
   17. BD ( 1) C  4- H 10      27. BD*( 1) C  3- H 14      2.28    1.34   0.049


 NATURAL BOND ORBITALS (Summary):

                                                     Principal Delocalizations
           NBO                 Occupancy    Energy   (geminal,vicinal,remote)
 ===============================================================================
 Molecular unit  1  (C4H10)
 ------ Lewis --------------------------------------
    1. CR ( 1) C  1             2.00000   -11.01907
    2. CR ( 1) C  2             2.00000   -11.02647
    3. CR ( 1) C  3             2.00000   -11.02647
    4. CR ( 1) C  4             2.00000   -11.01907
    5. BD ( 1) C  1- C  2       1.99382    -0.63744  25(v)
    6. BD ( 1) C  1- H  5       1.99495    -0.61346  22(v)
    7. BD ( 1) C  1- H  7       1.99540    -0.61271  23(v)
    8. BD ( 1) C  1- H  8       1.99540    -0.61271  24(v)
    9. BD ( 1) C  2- C  3       1.99004    -0.63524  19(v),28(v),18(g),25(g)
   10. BD ( 1) C  2- H 11       1.99038    -0.60907  20(v),27(v)
   11. BD ( 1) C  2- H 12       1.99038    -0.60907  21(v),26(v)
   12. BD ( 1) C  3- C  4       1.99382    -0.63744  18(v)
   13. BD ( 1) C  3- H 13       1.99038    -0.60907  29(v),24(v)
   14. BD ( 1) C  3- H 14       1.99038    -0.60907  30(v),23(v)
   15. BD ( 1) C  4- H  6       1.99495    -0.61346  22(v)
   16. BD ( 1) C  4- H  9       1.99540    -0.61271  26(v)
   17. BD ( 1) C  4- H 10       1.99540    -0.61271  27(v)
 ------ non-Lewis ----------------------------------
   18. BD*( 1) C  1- C  2       0.00623     0.70943
   19. BD*( 1) C  1- H  5       0.00445     0.72536
   20. BD*( 1) C  1- H  7       0.00522     0.72422
   21. BD*( 1) C  1- H  8       0.00522     0.72422
   22. BD*( 1) C  2- C  3       0.01141     0.71185
   23. BD*( 1) C  2- H 11       0.00891     0.72459
   24. BD*( 1) C  2- H 12       0.00891     0.72459
   25. BD*( 1) C  3- C  4       0.00623     0.70943
   26. BD*( 1) C  3- H 13       0.00891     0.72459
   27. BD*( 1) C  3- H 14       0.00891     0.72459
   28. BD*( 1) C  4- H  6       0.00445     0.72536
   29. BD*( 1) C  4- H  9       0.00522     0.72422
   30. BD*( 1) C  4- H 10       0.00522     0.72422
          -------------------------------
                 Total Lewis   33.91071  ( 99.7374%)
           Valence non-Lewis    0.08929  (  0.2626%)
           Rydberg non-Lewis    0.00000  (  0.0000%)
          -------------------------------
               Total unit  1   34.00000  (100.0000%)
              Charge unit  1    0.00000

 $CHOOSE
   BOND S 1 2 S 1 5 S 1 7 S 1 8 S 2 3 S 2 11 S 2 12 S 3 4 S 3 13 S 3 14 S 4 6
        S 4 9 S 4 10 END
 $END

 NBO analysis completed in 0.32 CPU seconds (1 wall second)
 Maximum scratch memory used by NBO was 229750 words (1.75 MB)
 Maximum scratch memory used by G16NBO was 9783 words (0.07 MB)

 Opening RunExU unformatted file "/cluster/work/users/beto93/mol89/Gau-1877058.EUF"
 Read unf file /cluster/work/users/beto93/mol89/Gau-1877058.EUF:
 Label Gaussian matrix elements                                         IVers= 2 NLab= 2 Version=ES64L-G16RevC.01
 Title mol89-NBO                                                       
 NAtoms=    14 NBasis=    30 NBsUse=    30 ICharg=     0 Multip=     1 NE=    34 Len12L=8 Len4L=8 IOpCl= 0 ICGU=111
 GAUSSIAN SCALARS                    NI= 1 NR= 1 NTot=       1 LenBuf=    2 NRI=1 N=    1000
 NPA CHARGES                         NI= 0 NR= 1 NTot=      14 LenBuf= 4000 NRI=1 N=      14
 Recovered energy= -155.465338763     dipole=      0.000000000000     -0.000000000000     -0.000000000000
 Unable to Open any file for archive entry.
 1\1\GINC-C5-11\SP\RHF\STO-3G\C4H10\BETO93\18-Nov-2024\0\\#RHF/STO-3G i
 nt=nobasistransform Symmetry=None 5D 7F Pop=NBO7Read\\mol89-NBO\\0,1\C
 ,0,0.702581,1.820873,0.\C,0,0.702581,0.296325,0.\C,0,-0.702581,-0.2963
 25,0.\C,0,-0.702581,-1.820873,0.\H,0,1.719809,2.22234,0.\H,0,-1.719809
 ,-2.22234,0.\H,0,0.188154,2.210362,0.883614\H,0,0.188154,2.210362,-0.8
 83614\H,0,-0.188154,-2.210362,0.883614\H,0,-0.188154,-2.210362,-0.8836
 14\H,0,1.247707,-0.07266,-0.877569\H,0,1.247707,-0.07266,0.877569\H,0,
 -1.247707,0.07266,-0.877569\H,0,-1.247707,0.07266,0.877569\\Version=ES
 64L-G16RevC.01\HF=-155.4653388\RMSD=6.281e-09\Dipole=0.,0.,0.\Quadrupo
 le=0.0509212,-0.3568783,0.3059571,-0.0935597,0.,0.\PG=Unknown\\@
 The archive entry for this job was punched.


 I think that all right-thinking people in this
 country are sick and tired of being told that
 ordinary, decent people are fed up in this country
 with being sick and tired.  I'm certainly not!
 But I'm sick and tired of being told that I am!
                               -- Monty Python
 Job cpu time:       0 days  0 hours  0 minutes 10.9 seconds.
 Elapsed time:       0 days  0 hours  0 minutes  3.5 seconds.
 File lengths (MBytes):  RWF=     10 Int=      0 D2E=      0 Chk=      1 Scr=      1
 Normal termination of Gaussian 16 at Mon Nov 18 15:41:43 2024.
