 Entering Gaussian System, Link 0=g16
 Initial command:
 /cluster/software/Gaussian/g16_C.01/l1.exe "/cluster/work/users/beto93/LiOH/Gau-2613553.inp" -scrdir="/cluster/work/users/beto93/LiOH/"
 Entering Link 1 = /cluster/software/Gaussian/g16_C.01/l1.exe PID=   2613554.
  
 Copyright (c) 1988-2019, Gaussian, Inc.  All Rights Reserved.
  
 This is part of the Gaussian(R) 16 program.  It is based on
 the Gaussian(R) 09 system (copyright 2009, Gaussian, Inc.),
 the Gaussian(R) 03 system (copyright 2003, Gaussian, Inc.),
 the Gaussian(R) 98 system (copyright 1998, Gaussian, Inc.),
 the Gaussian(R) 94 system (copyright 1995, Gaussian, Inc.),
 the Gaussian 92(TM) system (copyright 1992, Gaussian, Inc.),
 the Gaussian 90(TM) system (copyright 1990, Gaussian, Inc.),
 the Gaussian 88(TM) system (copyright 1988, Gaussian, Inc.),
 the Gaussian 86(TM) system (copyright 1986, Carnegie Mellon
 University), and the Gaussian 82(TM) system (copyright 1983,
 Carnegie Mellon University). Gaussian is a federally registered
 trademark of Gaussian, Inc.
  
 This software contains proprietary and confidential information,
 including trade secrets, belonging to Gaussian, Inc.
  
 This software is provided under written license and may be
 used, copied, transmitted, or stored only in accord with that
 written license.
  
 The following legend is applicable only to US Government
 contracts under FAR:
  
                    RESTRICTED RIGHTS LEGEND
  
 Use, reproduction and disclosure by the US Government is
 subject to restrictions as set forth in subparagraphs (a)
 and (c) of the Commercial Computer Software - Restricted
 Rights clause in FAR 52.227-19.
  
 Gaussian, Inc.
 340 Quinnipiac St., Bldg. 40, Wallingford CT 06492
  
  
 ---------------------------------------------------------------
 Warning -- This program may not be used in any manner that
 competes with the business of Gaussian, Inc. or will provide
 assistance to any competitor of Gaussian, Inc.  The licensee
 of this program is prohibited from giving any competitor of
 Gaussian, Inc. access to this program.  By using this program,
 the user acknowledges that Gaussian, Inc. is engaged in the
 business of creating and licensing software in the field of
 computational chemistry and represents and warrants to the
 licensee that it is not a competitor of Gaussian, Inc. and that
 it will not use this program in any manner prohibited above.
 ---------------------------------------------------------------
  

 Cite this work as:
 Gaussian 16, Revision C.01,
 M. J. Frisch, G. W. Trucks, H. B. Schlegel, G. E. Scuseria, 
 M. A. Robb, J. R. Cheeseman, G. Scalmani, V. Barone, 
 G. A. Petersson, H. Nakatsuji, X. Li, M. Caricato, A. V. Marenich, 
 J. Bloino, B. G. Janesko, R. Gomperts, B. Mennucci, H. P. Hratchian, 
 J. V. Ortiz, A. F. Izmaylov, J. L. Sonnenberg, D. Williams-Young, 
 F. Ding, F. Lipparini, F. Egidi, J. Goings, B. Peng, A. Petrone, 
 T. Henderson, D. Ranasinghe, V. G. Zakrzewski, J. Gao, N. Rega, 
 G. Zheng, W. Liang, M. Hada, M. Ehara, K. Toyota, R. Fukuda, 
 J. Hasegawa, M. Ishida, T. Nakajima, Y. Honda, O. Kitao, H. Nakai, 
 T. Vreven, K. Throssell, J. A. Montgomery, Jr., J. E. Peralta, 
 F. Ogliaro, M. J. Bearpark, J. J. Heyd, E. N. Brothers, K. N. Kudin, 
 V. N. Staroverov, T. A. Keith, R. Kobayashi, J. Normand, 
 K. Raghavachari, A. P. Rendell, J. C. Burant, S. S. Iyengar, 
 J. Tomasi, M. Cossi, J. M. Millam, M. Klene, C. Adamo, R. Cammi, 
 J. W. Ochterski, R. L. Martin, K. Morokuma, O. Farkas, 
 J. B. Foresman, and D. J. Fox, Gaussian, Inc., Wallingford CT, 2019.
 
 ******************************************
 Gaussian 16:  ES64L-G16RevC.01  3-Jul-2019
                24-Jul-2024 
 ******************************************
 %LindaWorkers=c1-42-ib
 %NProcShared=4
 Will use up to    4 processors via shared memory.
 %mem=25GB
 %chk=a.chk
 SetLPE:    new flags="-opt 'Tsnet.Node.lindarsharg: ssh'  -nodelist 'c1-42-ib.saga' -env GAUSS_MDEF=3355443200 -env GAUSS_EXEDIR="/cluster/software/Gaussian/g16_C.01/bsd:/cluster/software/Gaussian/g16_C.01""
 Will use up to    1 processors via Linda.
 ------------------------
 #RHF/6-31G* Pop=NBO7Read
 ------------------------
 1/38=1,163=2,172=1/1;
 2/12=2,17=6,18=5,40=1/2;
 3/5=1,6=6,7=1,11=1,25=1,30=1,116=1/1,2,3;
 4//1;
 5/5=2,38=5/2;
 6/7=2,8=2,9=2,10=2,28=1,40=2,113=1,114=1,124=2103/1,12;
 99/5=1,9=1/99;
 -----
 NBO-a
 -----
 Symbolic Z-matrix:
 Charge =  0 Multiplicity = 1
 O                     0.        0.       -0.0001 
 Li                    0.        0.        1.43216 
 H                     0.        0.       -0.97106 
 
                          Input orientation:                          
 ---------------------------------------------------------------------
 Center     Atomic      Atomic             Coordinates (Angstroms)
 Number     Number       Type             X           Y           Z
 ---------------------------------------------------------------------
      1          8           0        0.000000    0.000000   -0.000101
      2          3           0        0.000000    0.000000    1.432159
      3          1           0        0.000000    0.000000   -0.971058
 ---------------------------------------------------------------------
                    Distance matrix (angstroms):
                    1          2          3
     1  O    0.000000
     2  Li   1.432260   0.000000
     3  H    0.970957   2.403217   0.000000
 Stoichiometry    HLiO
 Framework group  C*V[C*(LiOH)]
 Deg. of freedom     2
 Full point group                 C*V     NOp   4
 Largest Abelian subgroup         C2V     NOp   4
 Largest concise Abelian subgroup C1      NOp   1
                         Standard orientation:                         
 ---------------------------------------------------------------------
 Center     Atomic      Atomic             Coordinates (Angstroms)
 Number     Number       Type             X           Y           Z
 ---------------------------------------------------------------------
      1          8           0        0.000000    0.000000    0.277152
      2          3           0        0.000000    0.000000   -1.155108
      3          1           0        0.000000    0.000000    1.248109
 ---------------------------------------------------------------------
 Rotational constants (GHZ):           0.0000000          42.4069044          42.4069044
 Standard basis: 6-31G(d) (6D, 7F)
 There are    18 symmetry adapted cartesian basis functions of A1  symmetry.
 There are     2 symmetry adapted cartesian basis functions of A2  symmetry.
 There are     6 symmetry adapted cartesian basis functions of B1  symmetry.
 There are     6 symmetry adapted cartesian basis functions of B2  symmetry.
 There are    18 symmetry adapted basis functions of A1  symmetry.
 There are     2 symmetry adapted basis functions of A2  symmetry.
 There are     6 symmetry adapted basis functions of B1  symmetry.
 There are     6 symmetry adapted basis functions of B2  symmetry.
    32 basis functions,    60 primitive gaussians,    32 cartesian basis functions
     6 alpha electrons        6 beta electrons
       nuclear repulsion energy        13.8879143933 Hartrees.
 NAtoms=    3 NActive=    3 NUniq=    3 SFac= 1.00D+00 NAtFMM=   60 NAOKFM=F Big=F
 Integral buffers will be    131072 words long.
 Raffenetti 1 integral format.
 Two-electron integral symmetry is turned on.
 One-electron integrals computed using PRISM.
 NBasis=    32 RedAO= T EigKep=  6.04D-03  NBF=    18     2     6     6
 NBsUse=    32 1.00D-06 EigRej= -1.00D+00 NBFU=    18     2     6     6
 ExpMin= 3.60D-02 ExpMax= 5.48D+03 ExpMxC= 8.25D+02 IAcc=3 IRadAn=         5 AccDes= 0.00D+00
 Harris functional with IExCor=  205 and IRadAn=       5 diagonalized for initial guess.
 HarFok:  IExCor=  205 AccDes= 0.00D+00 IRadAn=         5 IDoV= 1 UseB2=F ITyADJ=14
 ICtDFT=  3500011 ScaDFX=  1.000000  1.000000  1.000000  1.000000
 FoFCou: FMM=F IPFlag=           0 FMFlag=      100000 FMFlg1=           0
         NFxFlg=           0 DoJE=T BraDBF=F KetDBF=T FulRan=T
         wScrn=  0.000000 ICntrl=       500 IOpCl=  0 I1Cent=   200000004 NGrid=           0
         NMat0=    1 NMatS0=      1 NMatT0=    0 NMatD0=    1 NMtDS0=    0 NMtDT0=    0
 Petite list used in FoFCou.
 Initial guess orbital symmetries:
       Occupied  (SG) (SG) (SG) (SG) (PI) (PI)
       Virtual   (SG) (SG) (PI) (PI) (SG) (PI) (PI) (SG) (SG) (DLTA)
                 (DLTA) (PI) (PI) (SG) (SG) (PI) (PI) (SG) (SG)
                 (SG) (DLTA) (DLTA) (PI) (PI) (SG) (SG)
 The electronic state of the initial guess is 1-SG.
 Keep R1 ints in memory in symmetry-blocked form, NReq=971207.
 Requested convergence on RMS density matrix=1.00D-08 within 128 cycles.
 Requested convergence on MAX density matrix=1.00D-06.
 Requested convergence on             energy=1.00D-06.
 No special actions if energy rises.
 SCF Done:  E(RHF) =  -82.8907751207     A.U. after   10 cycles
            NFock= 10  Conv=0.28D-08     -V/T= 2.0002

 **********************************************************************

            Population analysis using the SCF Density.

 **********************************************************************

 Orbital symmetries:
       Occupied  (SG) (SG) (SG) (SG) (PI) (PI)
       Virtual   (SG) (PI) (PI) (SG) (SG) (PI) (PI) (SG) (SG) (DLTA)
                 (DLTA) (PI) (PI) (SG) (SG) (SG) (PI) (PI) (SG)
                 (SG) (DLTA) (DLTA) (PI) (PI) (SG) (SG)
 The electronic state is 1-SG.
 Alpha  occ. eigenvalues --  -20.43941  -2.39596  -1.17270  -0.54937  -0.38450
 Alpha  occ. eigenvalues --   -0.38450
 Alpha virt. eigenvalues --    0.02071   0.08690   0.08690   0.11252   0.21441
 Alpha virt. eigenvalues --    0.27045   0.27045   0.35776   0.42422   0.60813
 Alpha virt. eigenvalues --    0.60813   0.71244   0.71244   0.75543   1.17048
 Alpha virt. eigenvalues --    1.28485   1.40474   1.40474   1.67710   1.72011
 Alpha virt. eigenvalues --    2.24055   2.24055   2.29891   2.29891   2.90127
 Alpha virt. eigenvalues --    4.28178
          Condensed to atoms (all electrons):
               1          2          3
     1  O    8.404067   0.279424   0.288356
     2  Li   0.279424   2.185841  -0.039104
     3  H    0.288356  -0.039104   0.352741
 Mulliken charges:
               1
     1  O   -0.971847
     2  Li   0.573839
     3  H    0.398008
 Sum of Mulliken charges =   0.00000
 Mulliken charges with hydrogens summed into heavy atoms:
               1
     1  O   -0.573839
     2  Li   0.573839
 Electronic spatial extent (au):  <R**2>=             35.3767
 Charge=              0.0000 electrons
 Dipole moment (field-independent basis, Debye):
    X=              0.0000    Y=              0.0000    Z=             -3.6684  Tot=              3.6684
 Quadrupole moment (field-independent basis, Debye-Ang):
   XX=             -9.2468   YY=             -9.2468   ZZ=              0.5711
   XY=              0.0000   XZ=              0.0000   YZ=              0.0000
 Traceless Quadrupole moment (field-independent basis, Debye-Ang):
   XX=             -3.2726   YY=             -3.2726   ZZ=              6.5453
   XY=              0.0000   XZ=              0.0000   YZ=              0.0000
 Octapole moment (field-independent basis, Debye-Ang**2):
  XXX=              0.0000  YYY=              0.0000  ZZZ=             -7.1125  XYY=              0.0000
  XXY=              0.0000  XXZ=             -0.9881  XZZ=              0.0000  YZZ=              0.0000
  YYZ=             -0.9881  XYZ=              0.0000
 Hexadecapole moment (field-independent basis, Debye-Ang**3):
 XXXX=            -10.2483 YYYY=            -10.2483 ZZZZ=             -9.1319 XXXY=              0.0000
 XXXZ=              0.0000 YYYX=              0.0000 YYYZ=              0.0000 ZZZX=              0.0000
 ZZZY=              0.0000 XXYY=             -3.4161 XXZZ=             -5.5466 YYZZ=             -5.5466
 XXYZ=              0.0000 YYXZ=              0.0000 ZZXY=              0.0000
 N-N= 1.388791439328D+01 E-N=-2.257809878224D+02  KE= 8.287649068843D+01
 Symmetry A1   KE= 7.480823045791D+01
 Symmetry A2   KE= 1.131387982009D-51
 Symmetry B1   KE= 4.034130115259D+00
 Symmetry B2   KE= 4.034130115259D+00
 Running external command "gaunbo7 R"
         input file       "/cluster/work/users/beto93/LiOH/Gau-2613554.EIn"
         output file      "/cluster/work/users/beto93/LiOH/Gau-2613554.EOu"
         message file     "/cluster/work/users/beto93/LiOH/Gau-2613554.EMs"
         fchk file        "/cluster/work/users/beto93/LiOH/Gau-2613554.EFC"
         mat. el file     "/cluster/work/users/beto93/LiOH/Gau-2613554.EUF"

 Writing WrtUnf unformatted file "/cluster/work/users/beto93/LiOH/Gau-2613554.EUF"
 Gaussian matrix elements                                         Version   2 NLab=11 Len12L=8 Len4L=8
 Write SHELL TO ATOM MAP                   from file      0 offset           0 length                  10 to matrix element file.
 Write SHELL TYPES                         from file      0 offset           0 length                  10 to matrix element file.
 Write NUMBER OF PRIMITIVES PER SHELL      from file      0 offset           0 length                  10 to matrix element file.
 Write PRIMITIVE EXPONENTS                 from file      0 offset           0 length                  26 to matrix element file.
 Write CONTRACTION COEFFICIENTS            from file      0 offset           0 length                  26 to matrix element file.
 Write P(S=P) CONTRACTION COEFFICIENTS     from file      0 offset           0 length                  26 to matrix element file.
 Write COORDINATES OF EACH SHELL           from file      0 offset           0 length                  30 to matrix element file.
 Write BONDS PER ATOM                      from file      0 offset           0 length                   3 to matrix element file.
 Write BONDED ATOMS                        from file      0 offset           0 length                   4 to matrix element file.
 Write BOND TYPES                          from file      0 offset           0 length                   4 to matrix element file.
 Write ONIOM CHARGE/MULT                   from file      0 offset           0 length                  32 to matrix element file.
 Write ONIOM ATOM LAYERS                   from file      0 offset           0 length                   3 to matrix element file.
 Write ONIOM ATOM MODIFIERS                from file      0 offset           0 length                   3 to matrix element file.
 Write ONIOM ATOM TYPES                    from file      0 offset           0 length                   3 to matrix element file.
 Write ONIOM LINK ATOMS                    from file      0 offset           0 length                   3 to matrix element file.
 Write ONIOM LINK CHARGES                  from file      0 offset           0 length                   3 to matrix element file.
 Write ONIOM LINK DISTANCES                from file      0 offset           0 length                  12 to matrix element file.
 Write SYMINF INTS                         from file      0 offset           0 length                  26 to matrix element file.
 Write ROTTR TO SO                         from file      0 offset           0 length                  12 to matrix element file.
 Write GAUSSIAN SCALARS                    from file    501 offset           0 to matrix element file.
 Write OPTIMIZATION FLAGS                  from file      0 offset           0 length                   3 to matrix element file.
 Write INTEGER ISO                         from file      0 offset           0 length                   3 to matrix element file.
 Write INTEGER SPIN                        from file      0 offset           0 length                   3 to matrix element file.
 Write REAL ZEFFECTIVE                     from file      0 offset           0 length                   3 to matrix element file.
 Write REAL QUADRUPOLEMOMENT               from file      0 offset           0 length                   3 to matrix element file.
 Write REAL GFACTOR                        from file      0 offset           0 length                   3 to matrix element file.
 Write REAL ZNUCLEAR                       from file      0 offset           0 length                   3 to matrix element file.
 Write MULLIKEN CHARGES                    from file      0 offset           0 length                   3 to matrix element file.
 Write NUCLEAR GRADIENT                    from file  10584 offset           0 length                   9 to matrix element file.
 Array NUCLEAR FORCE CONSTANTS              on  file  10585 does not exist.
 Write ELECTRIC DIPOLE MOMENT              from file      0 offset           0 length                   3 to matrix element file.
 Write NON-ADIABATIC COUPLING              from file  10810 offset           0 length                   9 to matrix element file.
 Write FINITE EM FIELD                     from file  10521 offset           0 length                  35 to matrix element file.
 Write OVERLAP                             from file  10514 offset           0 length                 528 to matrix element file.
 Write CORE HAMILTONIAN ALPHA              from file  10515 offset           0 length                 528 to matrix element file.
 Write CORE HAMILTONIAN BETA               from file  10515 offset         528 length                 528 to matrix element file.
 Write KINETIC ENERGY                      from file  10516 offset           0 length                 528 to matrix element file.
 Write ORTHOGONAL BASIS                    from file  10685 offset           0 length                1024 to matrix element file.
 Write DIPOLE INTEGRALS                    from file  10518 offset           0 length                1584 to matrix element file.
 Array DIP VEL INTEGRALS                    on  file  10572 does not exist.
 Array R X DEL INTEGRALS                    on  file  10572 does not exist.
 Write ALPHA ORBITAL ENERGIES              from file      0 offset           0 length                  32 to matrix element file.
 Write ALPHA MO COEFFICIENTS               from file  10524 offset           0 length                1024 to matrix element file.
 Write ALPHA DENSITY MATRIX                from file      0 offset           0 length                 528 to matrix element file.
 Write ALPHA FOCK MATRIX                   from file  10536 offset           0 length                 528 to matrix element file.
 Write ENERGY-WEIGHTED DENSITY             from file  10571 offset           0 length                 528 to matrix element file.
 Write ALPHA SCF DENSITY MATRIX            from file      0 offset           0 length                 528 to matrix element file.
 No 2e integrals to process.
 Perform NBO analysis...executing G16NBO...

 *********************************** NBO 7.0 ***********************************
             N A T U R A L   A T O M I C   O R B I T A L   A N D
          N A T U R A L   B O N D   O R B I T A L   A N A L Y S I S
 **************************** Espen Tangen (S101595) ***************************
  (c) Copyright 1996-2021 Board of Regents of the University of Wisconsin System
      on behalf of the Theoretical Chemistry Institute.  All rights reserved.

          Cite this program [NBO 7.0.10 (8-Feb-2021)] as:

          NBO 7.0.  E. D. Glendening, J. K. Badenhoop, A. E. Reed,
          J. E. Carpenter, J. A. Bohmann, C. M. Morales, P. Karafiloglou,
          C. R. Landis, and F. Weinhold, Theoretical Chemistry Institute,
          University of Wisconsin, Madison, WI (2018)

       /NPA    / : Natural Population Analysis
       /AOPNAO / : Print the AO to PNAO transformation
       /AONAO  / : Print the AO to NAO transformation
       /AONO   / : Print the NOs in the AO basis
       /AOMO   / : Print the MOs in the AO basis
       /BOAO   / : Print the AO bond-order matrix
       /DMAO   / : Print the AO density matrix
       /DMPNAO / : Print the PNAO density matrix
       /DMNAO  / : Print the NAO density matrix
       /DMMO   / : Print the MO density matrix
       /SAO    / : Print the AO overlap matrix
       /SPNAO  / : Print the PNAO overlap matrix
       /DETAIL / : Write details of NBO search
       /ARCHIVE/ : Write the archive file to lfn47
       /AOINFO / : Write AO information to lfn31
       /FILE   / : Set to inpGenNbo

 Filename set to inpGenNbo

 Job title: NBO-a


 MOs in the AO basis:

           AO          1       2       3       4       5       6       7       8
      ------------ ------- ------- ------- ------- ------- ------- ------- -------
   1.  O 1 (s)      0.9946 -0.0087 -0.2159  0.0485  0.0000  0.0000  0.0136  0.0000
   2.  O 1 (s)      0.0209  0.0171  0.4830 -0.1258  0.0000  0.0000 -0.0036  0.0000
   3.  O 1 (px)     0.0000  0.0000  0.0000  0.0000  0.5944  0.0000  0.0000  0.0000
   4.  O 1 (py)     0.0000  0.0000  0.0000  0.0000  0.0000  0.5944  0.0000 -0.1151
   5.  O 1 (pz)     0.0008 -0.0144  0.0534  0.5197  0.0000  0.0000  0.0125  0.0000
   6.  O 1 (s)      0.0049  0.0176  0.4752 -0.1274  0.0000  0.0000 -0.1796  0.0000
   7.  O 1 (px)     0.0000  0.0000  0.0000  0.0000  0.4848  0.0000  0.0000  0.0000
   8.  O 1 (py)     0.0000  0.0000  0.0000  0.0000  0.0000  0.4848  0.0000 -0.1219
   9.  O 1 (pz)    -0.0006 -0.0039  0.0139  0.3363  0.0000  0.0000  0.0648  0.0000
  10.  O 1 (d1)    -0.0042 -0.0009  0.0006 -0.0141  0.0000  0.0000  0.0127  0.0000
  11.  O 1 (d4)    -0.0042 -0.0009  0.0006 -0.0141  0.0000  0.0000  0.0127  0.0000
  12.  O 1 (d6)    -0.0043  0.0016  0.0415  0.0156  0.0000  0.0000  0.0063  0.0000
  13.  O 1 (d2)     0.0000  0.0000  0.0000  0.0000  0.0000  0.0000  0.0000  0.0000
  14.  O 1 (d3)     0.0000  0.0000  0.0000  0.0000  0.0063  0.0000  0.0000  0.0000
  15.  O 1 (d5)     0.0000  0.0000  0.0000  0.0000  0.0000  0.0063  0.0000 -0.0076
  16. Li 2 (s)     -0.0003  0.9937 -0.1038  0.1612  0.0000  0.0000 -0.1354  0.0000
  17. Li 2 (s)     -0.0008 -0.0011 -0.0257 -0.0844  0.0000  0.0000 -0.4059  0.0000
  18. Li 2 (px)     0.0000  0.0000  0.0000  0.0000  0.1526  0.0000  0.0000  0.0000
  19. Li 2 (py)     0.0000  0.0000  0.0000  0.0000  0.0000  0.1526  0.0000 -0.2575
  20. Li 2 (pz)    -0.0003 -0.0125  0.0308 -0.1878  0.0000  0.0000 -0.0078  0.0000
  21. Li 2 (s)      0.0003 -0.0022  0.0188  0.0231  0.0000  0.0000  1.0936  0.0000
  22. Li 2 (px)     0.0000  0.0000  0.0000  0.0000 -0.0031  0.0000  0.0000  0.0000
  23. Li 2 (py)     0.0000  0.0000  0.0000  0.0000  0.0000 -0.0031  0.0000  1.1968
  24. Li 2 (pz)     0.0000  0.0071 -0.0084  0.0964  0.0000  0.0000 -0.5323  0.0000
  25. Li 2 (d1)     0.0000  0.0060  0.0096  0.0086  0.0000  0.0000  0.0555  0.0000
  26. Li 2 (d4)     0.0000  0.0060  0.0096  0.0086  0.0000  0.0000  0.0555  0.0000
  27. Li 2 (d6)     0.0002  0.0039  0.0147 -0.0395  0.0000  0.0000  0.1377  0.0000
  28. Li 2 (d2)     0.0000  0.0000  0.0000  0.0000  0.0000  0.0000  0.0000  0.0000
  29. Li 2 (d3)     0.0000  0.0000  0.0000  0.0000  0.0265  0.0000  0.0000  0.0000
  30. Li 2 (d5)     0.0000  0.0000  0.0000  0.0000  0.0000  0.0265  0.0000 -0.0516
  31.  H 3 (s)      0.0004 -0.0006  0.1413  0.2684  0.0000  0.0000 -0.0032  0.0000
  32.  H 3 (s)     -0.0001 -0.0007  0.0130  0.1594  0.0000  0.0000  0.0496  0.0000

           AO          9      10      11      12      13      14      15      16
      ------------ ------- ------- ------- ------- ------- ------- ------- -------
   1.  O 1 (s)      0.0000  0.0317 -0.0153  0.0000  0.0000  0.0553  0.0866  0.0000
   2.  O 1 (s)      0.0000 -0.0713 -0.0356  0.0000  0.0000 -0.0239 -0.0818  0.0000
   3.  O 1 (px)    -0.1151  0.0000  0.0000 -0.1363  0.0000  0.0000  0.0000  0.0000
   4.  O 1 (py)     0.0000  0.0000  0.0000  0.0000 -0.1363  0.0000  0.0000  0.0000
   5.  O 1 (pz)     0.0000 -0.0489  0.0373  0.0000  0.0000 -0.2940  0.0618  0.0000
   6.  O 1 (s)      0.0000 -0.1053  0.2088  0.0000  0.0000 -0.8915 -0.8726  0.0000
   7.  O 1 (px)    -0.1219  0.0000  0.0000 -0.1956  0.0000  0.0000  0.0000  0.0000
   8.  O 1 (py)     0.0000  0.0000  0.0000  0.0000 -0.1956  0.0000  0.0000  0.0000
   9.  O 1 (pz)     0.0000 -0.0752  0.0080  0.0000  0.0000 -0.8067  0.1784  0.0000
  10.  O 1 (d1)     0.0000  0.0085 -0.0295  0.0000  0.0000  0.0340  0.0505  0.0000
  11.  O 1 (d4)     0.0000  0.0085 -0.0295  0.0000  0.0000  0.0340  0.0505  0.0000
  12.  O 1 (d6)     0.0000  0.0115 -0.0195  0.0000  0.0000  0.0386  0.0002  0.0000
  13.  O 1 (d2)     0.0000  0.0000  0.0000  0.0000  0.0000  0.0000  0.0000  0.0166
  14.  O 1 (d3)    -0.0076  0.0000  0.0000 -0.0246  0.0000  0.0000  0.0000  0.0000
  15.  O 1 (d5)     0.0000  0.0000  0.0000  0.0000 -0.0246  0.0000  0.0000  0.0000
  16. Li 2 (s)      0.0000 -0.1273  0.0333  0.0000  0.0000 -0.1126  0.1346  0.0000
  17. Li 2 (s)      0.0000 -0.6527  2.5652  0.0000  0.0000 -0.6568  2.6309  0.0000
  18. Li 2 (px)    -0.2575  0.0000  0.0000  1.6673  0.0000  0.0000  0.0000  0.0000
  19. Li 2 (py)     0.0000  0.0000  0.0000  0.0000  1.6673  0.0000  0.0000  0.0000
  20. Li 2 (pz)     0.0000 -0.5113 -1.0382  0.0000  0.0000 -0.2315  1.5138  0.0000
  21. Li 2 (s)      0.0000  0.9991 -1.9650  0.0000  0.0000 -0.2010 -1.4142  0.0000
  22. Li 2 (px)     1.1968  0.0000  0.0000 -1.1690  0.0000  0.0000  0.0000  0.0000
  23. Li 2 (py)     0.0000  0.0000  0.0000  0.0000 -1.1690  0.0000  0.0000  0.0000
  24. Li 2 (pz)     0.0000  1.3001  0.6883  0.0000  0.0000 -0.3380 -0.9597  0.0000
  25. Li 2 (d1)     0.0000  0.1251 -0.2595  0.0000  0.0000  0.1813 -0.1495  0.0000
  26. Li 2 (d4)     0.0000  0.1251 -0.2595  0.0000  0.0000  0.1813 -0.1495  0.0000
  27. Li 2 (d6)     0.0000  0.0404 -0.1839  0.0000  0.0000  0.1878 -0.6307  0.0000
  28. Li 2 (d2)     0.0000  0.0000  0.0000  0.0000  0.0000  0.0000  0.0000  0.9975
  29. Li 2 (d3)    -0.0516  0.0000  0.0000 -0.1535  0.0000  0.0000  0.0000  0.0000
  30. Li 2 (d5)     0.0000  0.0000  0.0000  0.0000 -0.1535  0.0000  0.0000  0.0000
  31.  H 3 (s)      0.0000  0.0049 -0.0028  0.0000  0.0000  0.0656  0.0860  0.0000
  32.  H 3 (s)      0.0000 -0.2022  0.0301  0.0000  0.0000  1.9498  0.2523  0.0000

           AO         17      18      19      20      21      22      23      24
      ------------ ------- ------- ------- ------- ------- ------- ------- -------
   1.  O 1 (s)      0.0000  0.0000  0.0000  0.0513  0.0203 -0.0365  0.0000  0.0000
   2.  O 1 (s)      0.0000  0.0000  0.0000 -0.0500  0.0588  0.2375  0.0000  0.0000
   3.  O 1 (px)     0.0000 -0.1890  0.0000  0.0000  0.0000  0.0000  0.0000 -0.9742
   4.  O 1 (py)     0.0000  0.0000 -0.1890  0.0000  0.0000  0.0000 -0.9742  0.0000
   5.  O 1 (pz)     0.0000  0.0000  0.0000 -0.0528 -0.4231  0.2040  0.0000  0.0000
   6.  O 1 (s)      0.0000  0.0000  0.0000 -1.8826  0.3015  0.3780  0.0000  0.0000
   7.  O 1 (px)     0.0000 -0.6616  0.0000  0.0000  0.0000  0.0000  0.0000  1.3698
   8.  O 1 (py)     0.0000  0.0000 -0.6616  0.0000  0.0000  0.0000  1.3698  0.0000
   9.  O 1 (pz)     0.0000  0.0000  0.0000  0.8053  0.2498  0.2066  0.0000  0.0000
  10.  O 1 (d1)     0.0144  0.0000  0.0000  0.0301  0.0047  0.1438  0.0000  0.0000
  11.  O 1 (d4)    -0.0144  0.0000  0.0000  0.0301  0.0047  0.1438  0.0000  0.0000
  12.  O 1 (d6)     0.0000  0.0000  0.0000 -0.1167  0.0889 -0.2042  0.0000  0.0000
  13.  O 1 (d2)     0.0000  0.0000  0.0000  0.0000  0.0000  0.0000  0.0000  0.0000
  14.  O 1 (d3)     0.0000  0.0075  0.0000  0.0000  0.0000  0.0000  0.0000  0.1227
  15.  O 1 (d5)     0.0000  0.0000  0.0075  0.0000  0.0000  0.0000  0.1227  0.0000
  16. Li 2 (s)      0.0000  0.0000  0.0000  0.3782  0.0954  0.1329  0.0000  0.0000
  17. Li 2 (s)      0.0000  0.0000  0.0000  3.5565  7.3143  4.8566  0.0000  0.0000
  18. Li 2 (px)     0.0000  0.5993  0.0000  0.0000  0.0000  0.0000  0.0000 -0.5123
  19. Li 2 (py)     0.0000  0.0000  0.5993  0.0000  0.0000  0.0000 -0.5123  0.0000
  20. Li 2 (pz)     0.0000  0.0000  0.0000  2.1261 -0.3028 -0.4589  0.0000  0.0000
  21. Li 2 (s)      0.0000  0.0000  0.0000 -1.2482 -2.0597 -1.7069  0.0000  0.0000
  22. Li 2 (px)     0.0000 -0.2413  0.0000  0.0000  0.0000  0.0000  0.0000  0.1307
  23. Li 2 (py)     0.0000  0.0000 -0.2413  0.0000  0.0000  0.0000  0.1307  0.0000
  24. Li 2 (pz)     0.0000  0.0000  0.0000 -0.8308  0.3160 -0.0181  0.0000  0.0000
  25. Li 2 (d1)     0.8639  0.0000  0.0000 -1.2830 -2.4415 -1.4629  0.0000  0.0000
  26. Li 2 (d4)    -0.8639  0.0000  0.0000 -1.2830 -2.4415 -1.4629  0.0000  0.0000
  27. Li 2 (d6)     0.0000  0.0000  0.0000  0.9145 -2.6909 -2.1553  0.0000  0.0000
  28. Li 2 (d2)     0.0000  0.0000  0.0000  0.0000  0.0000  0.0000  0.0000  0.0000
  29. Li 2 (d3)     0.0000  1.2457  0.0000  0.0000  0.0000  0.0000  0.0000 -0.3832
  30. Li 2 (d5)     0.0000  0.0000  1.2457  0.0000  0.0000  0.0000 -0.3832  0.0000
  31.  H 3 (s)      0.0000  0.0000  0.0000 -0.1246  0.5348 -1.0892  0.0000  0.0000
  32.  H 3 (s)      0.0000  0.0000  0.0000 -0.2670 -0.7493  0.8033  0.0000  0.0000

           AO         25      26      27      28      29      30      31      32
      ------------ ------- ------- ------- ------- ------- ------- ------- -------
   1.  O 1 (s)      0.0290 -0.1016  0.0000  0.0000  0.0000  0.0000  0.0315 -0.5117
   2.  O 1 (s)      0.0953 -1.8997  0.0000  0.0000  0.0000  0.0000  0.4430  0.0281
   3.  O 1 (px)     0.0000  0.0000  0.0000  0.0000  0.0000  0.1832  0.0000  0.0000
   4.  O 1 (py)     0.0000  0.0000  0.0000  0.0000  0.1832  0.0000  0.0000  0.0000
   5.  O 1 (pz)     0.9526  0.0153  0.0000  0.0000  0.0000  0.0000  0.1011 -0.0146
   6.  O 1 (s)     -0.7968  5.1908  0.0000  0.0000  0.0000  0.0000 -1.2881  4.7800
   7.  O 1 (px)     0.0000  0.0000  0.0000  0.0000  0.0000 -0.5642  0.0000  0.0000
   8.  O 1 (py)     0.0000  0.0000  0.0000  0.0000 -0.5642  0.0000  0.0000  0.0000
   9.  O 1 (pz)    -1.5748 -0.2314  0.0000  0.0000  0.0000  0.0000 -0.8635 -0.0974
  10.  O 1 (d1)    -0.0194 -0.5062  0.0000  0.8748  0.0000  0.0000  0.6501 -1.7278
  11.  O 1 (d4)    -0.0194 -0.5062  0.0000 -0.8748  0.0000  0.0000  0.6501 -1.7278
  12.  O 1 (d6)     0.1774 -0.6211  0.0000  0.0000  0.0000  0.0000 -1.1634 -1.6040
  13.  O 1 (d2)     0.0000  0.0000  1.0101  0.0000  0.0000  0.0000  0.0000  0.0000
  14.  O 1 (d3)     0.0000  0.0000  0.0000  0.0000  0.0000  1.0492  0.0000  0.0000
  15.  O 1 (d5)     0.0000  0.0000  0.0000  0.0000  1.0492  0.0000  0.0000  0.0000
  16. Li 2 (s)     -0.3076 -0.4148  0.0000  0.0000  0.0000  0.0000  0.0483 -0.2686
  17. Li 2 (s)      2.0337 -1.4889  0.0000  0.0000  0.0000  0.0000  1.5231 -1.4316
  18. Li 2 (px)     0.0000  0.0000  0.0000  0.0000  0.0000  0.5164  0.0000  0.0000
  19. Li 2 (py)     0.0000  0.0000  0.0000  0.0000  0.5164  0.0000  0.0000  0.0000
  20. Li 2 (pz)     0.0250 -1.9554  0.0000  0.0000  0.0000  0.0000  0.2919 -0.9237
  21. Li 2 (s)     -0.5291  0.6380  0.0000  0.0000  0.0000  0.0000 -0.3681  0.5110
  22. Li 2 (px)     0.0000  0.0000  0.0000  0.0000  0.0000 -0.2527  0.0000  0.0000
  23. Li 2 (py)     0.0000  0.0000  0.0000  0.0000 -0.2527  0.0000  0.0000  0.0000
  24. Li 2 (pz)    -0.0069  0.8122  0.0000  0.0000  0.0000  0.0000 -0.0794  0.3579
  25. Li 2 (d1)    -0.9808  0.1034  0.0000 -0.1383  0.0000  0.0000 -0.5894  0.2023
  26. Li 2 (d4)    -0.9808  0.1034  0.0000  0.1383  0.0000  0.0000 -0.5894  0.2023
  27. Li 2 (d6)    -0.4446 -0.7339  0.0000  0.0000  0.0000  0.0000 -0.3439 -0.0503
  28. Li 2 (d2)     0.0000  0.0000 -0.1597  0.0000  0.0000  0.0000  0.0000  0.0000
  29. Li 2 (d3)     0.0000  0.0000  0.0000  0.0000  0.0000  0.4505  0.0000  0.0000
  30. Li 2 (d5)     0.0000  0.0000  0.0000  0.0000  0.4505  0.0000  0.0000  0.0000
  31.  H 3 (s)      0.2598 -0.0595  0.0000  0.0000  0.0000  0.0000  1.3157  0.1255
  32.  H 3 (s)      0.7063 -0.7561  0.0000  0.0000  0.0000  0.0000  0.0317 -0.6173


 NOs in the AO basis:

           AO          1       2       3       4       5       6       7       8
      ------------ ------- ------- ------- ------- ------- ------- ------- -------
   1.  O 1 (s)      1.0065  0.0551  0.1434  0.0237  0.0335 -0.0001  0.0026  0.0184
   2.  O 1 (s)     -0.0154 -0.0325 -0.4911 -0.0858 -0.0008 -0.0006 -0.0185 -0.1397
   3.  O 1 (px)    -0.0178 -0.0357  0.0014  0.0035  0.5853 -0.0956 -0.0402 -0.0088
   4.  O 1 (py)    -0.0029 -0.0031 -0.0003 -0.0017  0.0956  0.5866  0.0114  0.0422
   5.  O 1 (pz)     0.0050 -0.0561  0.1703 -0.4908 -0.0010 -0.0015 -0.0802 -0.2132
   6.  O 1 (s)     -0.0307 -0.0328 -0.4835 -0.0807 -0.0014 -0.0006  0.0130  0.1323
   7.  O 1 (px)    -0.0145 -0.0291  0.0012  0.0029  0.4774 -0.0780  0.4200 -0.0217
   8.  O 1 (py)    -0.0023 -0.0025 -0.0002 -0.0014  0.0780  0.4785 -0.0150 -0.0252
   9.  O 1 (pz)     0.0038 -0.0403  0.1290 -0.3083 -0.0010 -0.0009  0.0679  0.0104
  10.  O 1 (d1)    -0.0045  0.0024 -0.0062  0.0123  0.0000  0.0000 -0.0464 -0.1469
  11.  O 1 (d4)    -0.0045  0.0024 -0.0062  0.0123  0.0000  0.0000 -0.0038 -0.1916
  12.  O 1 (d6)    -0.0070 -0.0066 -0.0306 -0.0310 -0.0004 -0.0001  0.0391 -0.0514
  13.  O 1 (d2)     0.0000  0.0000  0.0000  0.0000  0.0000  0.0000  0.0000  0.0000
  14.  O 1 (d3)    -0.0002 -0.0004  0.0000  0.0000  0.0062 -0.0010 -0.1652  0.0220
  15.  O 1 (d5)     0.0000  0.0000  0.0000  0.0000  0.0010  0.0062 -0.0011  0.0066
  16. Li 2 (s)      0.0530 -0.9944  0.1656  0.0416 -0.0590  0.0049  0.0070 -0.1087
  17. Li 2 (s)     -0.0004  0.0136 -0.0122  0.0863  0.0004  0.0003  0.0507  0.5135
  18. Li 2 (px)    -0.0046 -0.0092  0.0004  0.0009  0.1503 -0.0246  0.3439 -0.0138
  19. Li 2 (py)    -0.0007 -0.0008 -0.0001 -0.0004  0.0245  0.1506 -0.0332 -0.0690
  20. Li 2 (pz)    -0.0062  0.0343 -0.1070  0.1540  0.0013  0.0003 -0.0411 -0.1937
  21. Li 2 (s)     -0.0008 -0.0020 -0.0073 -0.0289  0.0000 -0.0001 -0.0289  0.3724
  22. Li 2 (px)     0.0001  0.0002  0.0000  0.0000 -0.0031  0.0005 -1.2608  0.0992
  23. Li 2 (py)     0.0000  0.0000  0.0000  0.0000 -0.0005 -0.0031  0.1163  0.2200
  24. Li 2 (pz)     0.0026 -0.0189  0.0482 -0.0820 -0.0007 -0.0002  0.0494  0.6793
  25. Li 2 (d1)    -0.0003 -0.0076 -0.0050 -0.0108 -0.0004  0.0000  0.0646 -0.0997
  26. Li 2 (d4)    -0.0003 -0.0076 -0.0050 -0.0108 -0.0004  0.0000 -0.0468  0.0447
  27. Li 2 (d6)    -0.0014  0.0002 -0.0300  0.0299 -0.0001  0.0001 -0.0254 -0.4800
  28. Li 2 (d2)     0.0000  0.0000  0.0000  0.0000  0.0000  0.0000  0.0000  0.0000
  29. Li 2 (d3)    -0.0008 -0.0016  0.0001  0.0002  0.0261 -0.0043 -0.2690  0.0105
  30. Li 2 (d5)    -0.0001 -0.0001  0.0000 -0.0001  0.0043  0.0262 -0.0350 -0.1061
  31.  H 3 (s)     -0.0054 -0.0434 -0.0148 -0.2998 -0.0011 -0.0010 -0.0428 -0.0981
  32.  H 3 (s)      0.0015 -0.0207  0.0554 -0.1486 -0.0005 -0.0004  0.0564  0.2975

           AO          9      10      11      12      13      14      15      16
      ------------ ------- ------- ------- ------- ------- ------- ------- -------
   1.  O 1 (s)      0.0049 -0.0028 -0.0070  0.0000  0.0006 -0.0078 -0.0248  0.0221
   2.  O 1 (s)     -0.0217  0.0367 -0.0185  0.0000 -0.0456  0.1487  0.0101 -0.1379
   3.  O 1 (px)    -0.0258 -0.0706 -0.0893  0.0000 -0.0025  0.2268  0.3483  0.1893
   4.  O 1 (py)    -0.0323  0.0687  0.0738  0.0000 -0.1676  0.0590  0.4428  0.6695
   5.  O 1 (pz)    -0.0015  0.0201  0.1587  0.0000  0.0902 -0.0757 -0.1633 -0.0417
   6.  O 1 (s)      0.0143 -0.0237 -0.0056  0.0000  0.0384 -0.0825 -0.0126  0.1492
   7.  O 1 (px)     0.0127  0.2862  0.0746  0.0000  0.1535 -0.1268 -0.2607 -0.1420
   8.  O 1 (py)    -0.2135 -0.0847 -0.0472  0.0000  0.1544 -0.0833 -0.3356 -0.5094
   9.  O 1 (pz)     0.0121  0.0708 -0.5308  0.0000 -0.2443  0.2816 -0.3185  0.1767
  10.  O 1 (d1)     0.0567 -0.1539  0.3127  0.0000  0.3380 -0.5571  0.2259 -0.1092
  11.  O 1 (d4)     0.0064  0.0255 -0.3064  0.0000 -0.0457  0.0337 -0.3566  0.2644
  12.  O 1 (d6)    -0.0053  0.0688 -0.1984  0.0000 -0.2160  0.2969 -0.4589  0.3404
  13.  O 1 (d2)     0.0000  0.0000  0.0000 -0.1461  0.0000  0.0000  0.0000  0.0000
  14.  O 1 (d3)     0.0085 -0.1157  0.0025  0.0000 -0.0628 -0.0292 -0.0271 -0.0211
  15.  O 1 (d5)     0.1081  0.0054 -0.1035  0.0000  0.0065  0.0094 -0.0236 -0.0366
  16. Li 2 (s)      0.0005  0.0187 -0.0223  0.0000 -0.0674  0.0591 -0.0897  0.0511
  17. Li 2 (s)      0.0508  0.0051 -0.1288  0.0000 -0.0593 -0.0618 -0.5665  0.4940
  18. Li 2 (px)    -0.0154  0.6645  0.0751  0.0000  0.3132 -0.1499 -0.1584 -0.0636
  19. Li 2 (py)    -0.9783 -0.1187 -0.0582  0.0000  0.1677  0.0533 -0.2365 -0.2803
  20. Li 2 (pz)    -0.1228  0.2874  0.4220  0.0000 -0.5097  0.8956  0.4390 -0.8125
  21. Li 2 (s)     -0.0203 -0.0430  0.1791  0.0000  0.2110 -0.2395  0.7511 -0.6742
  22. Li 2 (px)    -0.0104 -0.3068 -0.0755  0.0000 -0.2375  0.0602  0.0999  0.0752
  23. Li 2 (py)     0.8197  0.1579  0.0667  0.0000 -0.2433 -0.1670  0.0903  0.1725
  24. Li 2 (pz)     0.1347 -0.1564  0.2437  0.0000  0.2295 -0.5765 -0.7605  0.7145
  25. Li 2 (d1)    -0.0458  0.3755 -0.5656  0.0000 -0.7799 -0.0049 -0.0453 -0.1964
  26. Li 2 (d4)     0.0335 -0.2489 -0.2433  0.0000  0.5413  0.7211 -0.0916 -0.0042
  27. Li 2 (d6)    -0.0267 -0.0406 -0.1678  0.0000  0.0942 -0.1183  0.0933 -0.0086
  28. Li 2 (d2)     0.0000  0.0000  0.0000  1.0102  0.0000  0.0000  0.0000  0.0000
  29. Li 2 (d3)     0.0459 -0.8349  0.0064  0.0000 -0.4311 -0.0929 -0.0849 -0.0792
  30. Li 2 (d5)     0.8597  0.0419 -0.0418  0.0000  0.0227  0.1027 -0.0449 -0.1569
  31.  H 3 (s)     -0.0624 -0.0091  0.3418  0.0000  0.0792  0.1354  0.5958 -0.4831
  32.  H 3 (s)      0.0343 -0.0902 -0.0832  0.0000  0.1061 -0.3339  0.2158  0.1482

           AO         17      18      19      20      21      22      23      24
      ------------ ------- ------- ------- ------- ------- ------- ------- -------
   1.  O 1 (s)      0.0002 -0.0006  0.0404 -0.0618  0.0008  0.0062 -0.0492  0.0023
   2.  O 1 (s)      0.0388  0.0045  0.0601  0.0294 -0.0388 -0.0331  0.1859  0.7817
   3.  O 1 (px)    -0.7751 -0.4529 -0.0027 -0.1111 -0.0257 -0.0478  0.0514 -0.0089
   4.  O 1 (py)     0.3762  0.0111  0.0372 -0.0269 -0.4626  0.0014 -0.0264  0.0036
   5.  O 1 (pz)    -0.0106 -0.0001 -0.5753 -0.2638 -0.3479 -0.0239  0.7371 -0.0499
   6.  O 1 (s)     -0.0655 -0.0106  0.0146  0.1989  0.0574  0.0180 -0.0405 -1.9155
   7.  O 1 (px)     0.5568  1.4029 -0.0004  0.0598  0.0202  0.0428 -0.0350  0.0090
   8.  O 1 (py)    -0.2713 -0.0147 -0.0400 -0.2323  1.3759  0.1285  0.4068  0.0024
   9.  O 1 (pz)     0.0064 -0.0122  1.2275 -0.2246  0.2588  0.0025 -0.7084 -0.6774
  10.  O 1 (d1)    -0.0162  0.0061  0.3026 -0.7572 -0.0829  0.0456 -0.3531  0.1136
  11.  O 1 (d4)    -0.0345  0.0059  0.3553  0.0400 -0.0566 -0.0363  0.2423  0.2754
  12.  O 1 (d6)    -0.0295 -0.0154 -0.0316  0.0244  0.1263 -0.0034 -0.3018 -0.1777
  13.  O 1 (d2)     0.0000  0.0000  0.0000  0.0000  0.0000  0.0000  0.0000  0.0000
  14.  O 1 (d3)     0.0653 -0.3020  0.0003  0.0100 -0.0042 -0.1714  0.0028 -0.0004
  15.  O 1 (d5)    -0.0254  0.0011  0.0010  0.0813 -0.2713  0.7116 -0.1137 -0.0007
  16. Li 2 (s)     -0.0071 -0.0003  0.2665 -0.0942  0.0665  0.0010 -0.2006 -0.0674
  17. Li 2 (s)     -0.0161  0.0492  1.8910  0.3576 -0.0715  0.0707  0.3833 -5.8393
  18. Li 2 (px)     0.3828 -1.6897  0.0074  0.0883  0.0122  0.0404 -0.0344  0.0004
  19. Li 2 (py)    -0.1853  0.0056  0.0050  0.3944 -1.4020  0.2380 -0.5815 -0.0110
  20. Li 2 (pz)     0.2530 -0.0079  0.1187 -0.1545 -0.0462 -0.0327  0.1677  0.0986
  21. Li 2 (s)      0.0082  0.0037  0.1786  0.4358 -0.2002 -0.0035  0.7935  1.8215
  22. Li 2 (px)    -0.2683  1.0248 -0.0008 -0.0193  0.0273 -0.0520 -0.0340  0.0012
  23. Li 2 (py)     0.1070 -0.0021 -0.0024 -0.2356  0.7230 -0.8435  0.2592  0.0004
  24. Li 2 (pz)    -0.3794  0.0039  0.5591 -0.0151 -0.1144  0.1565  0.1527  0.3407
  25. Li 2 (d1)    -0.0280 -0.0230 -0.7079 -0.6877  0.0160  0.0615 -0.4926  1.9731
  26. Li 2 (d4)     0.2626 -0.0467 -0.7137 -0.7228  0.0851 -0.1114 -0.5984  1.8799
  27. Li 2 (d6)    -0.0118 -0.0134 -0.6296  0.0108  0.0313 -0.0823 -0.0768  2.3551
  28. Li 2 (d2)     0.0000  0.0000  0.0000  0.0000  0.0000  0.0000  0.0000  0.0000
  29. Li 2 (d3)     0.2351 -0.9432 -0.0003  0.0300 -0.0176  0.0006  0.0212 -0.0015
  30. Li 2 (d5)    -0.0981  0.0033  0.0028  0.2895 -0.9463  0.0740 -0.3692 -0.0017
  31.  H 3 (s)      0.1560  0.0023  0.4570  0.1332 -0.0503 -0.0509  0.1921  0.9831
  32.  H 3 (s)     -0.0338  0.0149 -1.9613  0.3265  0.1871  0.0506 -0.3815  0.1950

           AO         25      26      27      28      29      30      31      32
      ------------ ------- ------- ------- ------- ------- ------- ------- -------
   1.  O 1 (s)     -0.3018 -0.0062 -0.0065 -0.0839  0.2560  0.1262  0.0000 -0.3180
   2.  O 1 (s)     -0.8984  0.0313  0.0317  0.3421  1.0161 -0.9080  0.0000  0.6232
   3.  O 1 (px)    -0.0063  0.0371  0.0290 -0.0045  0.0081  0.0017  0.0000  0.0074
   4.  O 1 (py)     0.0052 -0.0003  0.0060  0.0235  0.0021 -0.0446  0.0000 -0.0039
   5.  O 1 (pz)    -0.0644  0.0467  0.0424 -0.1750  0.0759  0.0515  0.0000  0.0285
   6.  O 1 (s)      5.9890 -0.0206 -0.0227  0.1311 -3.5535  0.9549  0.0000  2.0773
   7.  O 1 (px)     0.0068 -0.0887  0.0007 -0.0053 -0.0091 -0.0011  0.0000 -0.0067
   8.  O 1 (py)    -0.0063 -0.0970 -0.0966 -0.0401 -0.0046  0.0429  0.0000  0.0066
   9.  O 1 (pz)    -0.3215 -0.0524 -0.0568  0.2297 -0.5758 -1.0030  0.0000 -0.2944
  10.  O 1 (d1)    -1.0024 -0.0059 -0.0005 -0.1828  1.1371  0.2467  0.0000 -0.7853
  11.  O 1 (d4)    -1.0214  0.0041 -0.0020  0.4498  1.0889  0.6943  0.0000 -0.9711
  12.  O 1 (d6)    -0.5604 -0.0203 -0.0158 -0.9789  0.9920 -0.3711  0.0000 -1.1675
  13.  O 1 (d2)     0.0000  0.0000  0.0000  0.0000  0.0000  0.0000  0.9996  0.0000
  14.  O 1 (d3)    -0.0001 -0.7820  0.5771  0.0039  0.0003 -0.0005  0.0000 -0.0003
  15.  O 1 (d5)     0.0001  0.3094  0.6294  0.0034  0.0003  0.0028  0.0000 -0.0001
  16. Li 2 (s)     -0.5690 -0.0034  0.0010  0.1914  0.0918 -0.2174  0.0000 -0.0272
  17. Li 2 (s)     -6.0155 -0.0806 -0.0915 -0.3756  2.8351  2.2408  0.0000  5.1730
  18. Li 2 (px)    -0.0015 -0.0770 -0.0024  0.0190  0.0020 -0.0016  0.0000 -0.0011
  19. Li 2 (py)     0.0024 -0.1421 -0.1288  0.0326  0.0047  0.0013  0.0000 -0.0053
  20. Li 2 (pz)    -2.9897  0.0772  0.0932  0.4402 -0.1496 -1.0279  0.0000 -0.8195
  21. Li 2 (s)      2.4832  0.0291  0.0163 -0.0011 -0.7066 -1.0265  0.0000 -2.1608
  22. Li 2 (px)    -0.0002  0.1856 -0.0385 -0.0106 -0.0007 -0.0001  0.0000  0.0004
  23. Li 2 (py)     0.0001  0.5958  0.5715 -0.0063 -0.0002 -0.0032  0.0000 -0.0001
  24. Li 2 (pz)     1.2712 -0.1169 -0.1240 -0.5185 -0.0751  0.4871  0.0000  0.4866
  25. Li 2 (d1)     1.5441 -0.0980 -0.1029  0.1660 -0.7309 -0.6533  0.0000 -1.5429
  26. Li 2 (d4)     1.5362  0.0785  0.0611  0.1895 -0.7408 -0.7788  0.0000 -1.5783
  27. Li 2 (d6)    -0.4255  0.0558  0.0602 -0.1936 -1.6405 -1.2822  0.0000 -1.8047
  28. Li 2 (d2)     0.0000  0.0000  0.0000  0.0000  0.0000  0.0000  0.0028  0.0000
  29. Li 2 (d3)     0.0004  0.0349 -0.0165  0.0083  0.0006  0.0002  0.0000 -0.0006
  30. Li 2 (d5)     0.0000 -0.0448 -0.0464  0.0065  0.0006  0.0039  0.0000 -0.0002
  31.  H 3 (s)     -0.3003  0.0725  0.0803 -0.1427 -0.0462  0.9960  0.0000  0.4432
  32.  H 3 (s)     -0.6354 -0.0584 -0.0615  0.5035  1.1824 -0.0220  0.0000 -0.3202


 AO overlap matrix:

           AO          1       2       3       4       5       6       7       8
      ------------ ------- ------- ------- ------- ------- ------- ------- -------
   1.  O 1 (s)      1.0000  0.2337  0.0000  0.0000  0.0000  0.1673  0.0000  0.0000
   2.  O 1 (s)      0.2337  1.0000  0.0000  0.0000  0.0000  0.7636  0.0000  0.0000
   3.  O 1 (px)     0.0000  0.0000  1.0000  0.0000  0.0000  0.0000  0.5015  0.0000
   4.  O 1 (py)     0.0000  0.0000  0.0000  1.0000  0.0000  0.0000  0.0000  0.5015
   5.  O 1 (pz)     0.0000  0.0000  0.0000  0.0000  1.0000  0.0000  0.0000  0.0000
   6.  O 1 (s)      0.1673  0.7636  0.0000  0.0000  0.0000  1.0000  0.0000  0.0000
   7.  O 1 (px)     0.0000  0.0000  0.5015  0.0000  0.0000  0.0000  1.0000  0.0000
   8.  O 1 (py)     0.0000  0.0000  0.0000  0.5015  0.0000  0.0000  0.0000  1.0000
   9.  O 1 (pz)     0.0000  0.0000  0.0000  0.0000  0.5015  0.0000  0.0000  0.0000
  10.  O 1 (d1)     0.0335  0.5471  0.0000  0.0000  0.0000  0.6990  0.0000  0.0000
  11.  O 1 (d4)     0.0335  0.5471  0.0000  0.0000  0.0000  0.6990  0.0000  0.0000
  12.  O 1 (d6)     0.0335  0.5471  0.0000  0.0000  0.0000  0.6990  0.0000  0.0000
  13.  O 1 (d2)     0.0000  0.0000  0.0000  0.0000  0.0000  0.0000  0.0000  0.0000
  14.  O 1 (d3)     0.0000  0.0000  0.0000  0.0000  0.0000  0.0000  0.0000  0.0000
  15.  O 1 (d5)     0.0000  0.0000  0.0000  0.0000  0.0000  0.0000  0.0000  0.0000
  16. Li 2 (s)      0.0014  0.0247  0.0000  0.0000 -0.0406  0.1299  0.0000  0.0000
  17. Li 2 (s)      0.0413  0.2375  0.0000  0.0000 -0.0574  0.4857  0.0000  0.0000
  18. Li 2 (px)     0.0000  0.0000  0.0921  0.0000  0.0000  0.0000  0.4160  0.0000
  19. Li 2 (py)     0.0000  0.0000  0.0000  0.0921  0.0000  0.0000  0.0000  0.4160
  20. Li 2 (pz)     0.0576  0.3281  0.0000  0.0000 -0.0360  0.5851  0.0000  0.0000
  21. Li 2 (s)      0.0296  0.1798  0.0000  0.0000 -0.0255  0.4097  0.0000  0.0000
  22. Li 2 (px)     0.0000  0.0000  0.0497  0.0000  0.0000  0.0000  0.2639  0.0000
  23. Li 2 (py)     0.0000  0.0000  0.0000  0.0497  0.0000  0.0000  0.0000  0.2639
  24. Li 2 (pz)     0.0302  0.1779  0.0000  0.0000  0.0244  0.3712  0.0000  0.0000
  25. Li 2 (d1)     0.0009  0.0397  0.0000  0.0000 -0.0242  0.2082  0.0000  0.0000
  26. Li 2 (d4)     0.0009  0.0397  0.0000  0.0000 -0.0242  0.2082  0.0000  0.0000
  27. Li 2 (d6)     0.1052  0.4989  0.0000  0.0000 -0.0893  0.6815  0.0000  0.0000
  28. Li 2 (d2)     0.0000  0.0000  0.0000  0.0000  0.0000  0.0000  0.0000  0.0000
  29. Li 2 (d3)     0.0000  0.0000  0.2319  0.0000  0.0000  0.0000  0.5828  0.0000
  30. Li 2 (d5)     0.0000  0.0000  0.0000  0.2319  0.0000  0.0000  0.0000  0.5828
  31.  H 3 (s)      0.0331  0.2397  0.0000  0.0000  0.2797  0.4199  0.0000  0.0000
  32.  H 3 (s)      0.0680  0.3756  0.0000  0.0000  0.1479  0.6776  0.0000  0.0000

           AO          9      10      11      12      13      14      15      16
      ------------ ------- ------- ------- ------- ------- ------- ------- -------
   1.  O 1 (s)      0.0000  0.0335  0.0335  0.0335  0.0000  0.0000  0.0000  0.0014
   2.  O 1 (s)      0.0000  0.5471  0.5471  0.5471  0.0000  0.0000  0.0000  0.0247
   3.  O 1 (px)     0.0000  0.0000  0.0000  0.0000  0.0000  0.0000  0.0000  0.0000
   4.  O 1 (py)     0.0000  0.0000  0.0000  0.0000  0.0000  0.0000  0.0000  0.0000
   5.  O 1 (pz)     0.5015  0.0000  0.0000  0.0000  0.0000  0.0000  0.0000 -0.0406
   6.  O 1 (s)      0.0000  0.6990  0.6990  0.6990  0.0000  0.0000  0.0000  0.1299
   7.  O 1 (px)     0.0000  0.0000  0.0000  0.0000  0.0000  0.0000  0.0000  0.0000
   8.  O 1 (py)     0.0000  0.0000  0.0000  0.0000  0.0000  0.0000  0.0000  0.0000
   9.  O 1 (pz)     1.0000  0.0000  0.0000  0.0000  0.0000  0.0000  0.0000 -0.2859
  10.  O 1 (d1)     0.0000  1.0000  0.3333  0.3333  0.0000  0.0000  0.0000  0.0187
  11.  O 1 (d4)     0.0000  0.3333  1.0000  0.3333  0.0000  0.0000  0.0000  0.0187
  12.  O 1 (d6)     0.0000  0.3333  0.3333  1.0000  0.0000  0.0000  0.0000  0.1383
  13.  O 1 (d2)     0.0000  0.0000  0.0000  0.0000  1.0000  0.0000  0.0000  0.0000
  14.  O 1 (d3)     0.0000  0.0000  0.0000  0.0000  0.0000  1.0000  0.0000  0.0000
  15.  O 1 (d5)     0.0000  0.0000  0.0000  0.0000  0.0000  0.0000  1.0000  0.0000
  16. Li 2 (s)     -0.2859  0.0187  0.0187  0.1383  0.0000  0.0000  0.0000  1.0000
  17. Li 2 (s)     -0.2481  0.2818  0.2818  0.2718  0.0000  0.0000  0.0000  0.1453
  18. Li 2 (px)     0.0000  0.0000  0.0000  0.0000  0.0000 -0.0828  0.0000  0.0000
  19. Li 2 (py)     0.0000  0.0000  0.0000  0.0000  0.0000  0.0000 -0.0828  0.0000
  20. Li 2 (pz)    -0.0110  0.3679  0.3679  0.3770  0.0000  0.0000  0.0000  0.0000
  21. Li 2 (s)     -0.1355  0.2220  0.2220  0.2270  0.0000  0.0000  0.0000  0.1857
  22. Li 2 (px)     0.0000  0.0000  0.0000  0.0000  0.0000 -0.0170  0.0000  0.0000
  23. Li 2 (py)     0.0000  0.0000  0.0000  0.0000  0.0000  0.0000 -0.0170  0.0000
  24. Li 2 (pz)     0.1412  0.2181  0.2181  0.2034  0.0000  0.0000  0.0000  0.0000
  25. Li 2 (d1)    -0.2492  0.1418  0.0473  0.0750  0.0000  0.0000  0.0000  0.0996
  26. Li 2 (d4)    -0.2492  0.0473  0.1418  0.0750  0.0000  0.0000  0.0000  0.0996
  27. Li 2 (d6)    -0.1427  0.4906  0.4906  0.4293  0.0000  0.0000  0.0000  0.0996
  28. Li 2 (d2)     0.0000  0.0000  0.0000  0.0000  0.1418  0.0000  0.0000  0.0000
  29. Li 2 (d3)     0.0000  0.0000  0.0000  0.0000  0.0000 -0.1907  0.0000  0.0000
  30. Li 2 (d5)     0.0000  0.0000  0.0000  0.0000  0.0000  0.0000 -0.1907  0.0000
  31.  H 3 (s)      0.5813  0.1618  0.1618  0.5467  0.0000  0.0000  0.0000  0.0004
  32.  H 3 (s)      0.4832  0.3951  0.3951  0.4671  0.0000  0.0000  0.0000  0.0279

           AO         17      18      19      20      21      22      23      24
      ------------ ------- ------- ------- ------- ------- ------- ------- -------
   1.  O 1 (s)      0.0413  0.0000  0.0000  0.0576  0.0296  0.0000  0.0000  0.0302
   2.  O 1 (s)      0.2375  0.0000  0.0000  0.3281  0.1798  0.0000  0.0000  0.1779
   3.  O 1 (px)     0.0000  0.0921  0.0000  0.0000  0.0000  0.0497  0.0000  0.0000
   4.  O 1 (py)     0.0000  0.0000  0.0921  0.0000  0.0000  0.0000  0.0497  0.0000
   5.  O 1 (pz)    -0.0574  0.0000  0.0000 -0.0360 -0.0255  0.0000  0.0000  0.0244
   6.  O 1 (s)      0.4857  0.0000  0.0000  0.5851  0.4097  0.0000  0.0000  0.3712
   7.  O 1 (px)     0.0000  0.4160  0.0000  0.0000  0.0000  0.2639  0.0000  0.0000
   8.  O 1 (py)     0.0000  0.0000  0.4160  0.0000  0.0000  0.0000  0.2639  0.0000
   9.  O 1 (pz)    -0.2481  0.0000  0.0000 -0.0110 -0.1355  0.0000  0.0000  0.1412
  10.  O 1 (d1)     0.2818  0.0000  0.0000  0.3679  0.2220  0.0000  0.0000  0.2181
  11.  O 1 (d4)     0.2818  0.0000  0.0000  0.3679  0.2220  0.0000  0.0000  0.2181
  12.  O 1 (d6)     0.2718  0.0000  0.0000  0.3770  0.2270  0.0000  0.0000  0.2034
  13.  O 1 (d2)     0.0000  0.0000  0.0000  0.0000  0.0000  0.0000  0.0000  0.0000
  14.  O 1 (d3)     0.0000 -0.0828  0.0000  0.0000  0.0000 -0.0170  0.0000  0.0000
  15.  O 1 (d5)     0.0000  0.0000 -0.0828  0.0000  0.0000  0.0000 -0.0170  0.0000
  16. Li 2 (s)      0.1453  0.0000  0.0000  0.0000  0.1857  0.0000  0.0000  0.0000
  17. Li 2 (s)      1.0000  0.0000  0.0000  0.0000  0.9055  0.0000  0.0000  0.0000
  18. Li 2 (px)     0.0000  1.0000  0.0000  0.0000  0.0000  0.8021  0.0000  0.0000
  19. Li 2 (py)     0.0000  0.0000  1.0000  0.0000  0.0000  0.0000  0.8021  0.0000
  20. Li 2 (pz)     0.0000  0.0000  0.0000  1.0000  0.0000  0.0000  0.0000  0.8021
  21. Li 2 (s)      0.9055  0.0000  0.0000  0.0000  1.0000  0.0000  0.0000  0.0000
  22. Li 2 (px)     0.0000  0.8021  0.0000  0.0000  0.0000  1.0000  0.0000  0.0000
  23. Li 2 (py)     0.0000  0.0000  0.8021  0.0000  0.0000  0.0000  1.0000  0.0000
  24. Li 2 (pz)     0.0000  0.0000  0.0000  0.8021  0.0000  0.0000  0.0000  1.0000
  25. Li 2 (d1)     0.7243  0.0000  0.0000  0.0000  0.5965  0.0000  0.0000  0.0000
  26. Li 2 (d4)     0.7243  0.0000  0.0000  0.0000  0.5965  0.0000  0.0000  0.0000
  27. Li 2 (d6)     0.7243  0.0000  0.0000  0.0000  0.5965  0.0000  0.0000  0.0000
  28. Li 2 (d2)     0.0000  0.0000  0.0000  0.0000  0.0000  0.0000  0.0000  0.0000
  29. Li 2 (d3)     0.0000  0.0000  0.0000  0.0000  0.0000  0.0000  0.0000  0.0000
  30. Li 2 (d5)     0.0000  0.0000  0.0000  0.0000  0.0000  0.0000  0.0000  0.0000
  31.  H 3 (s)      0.1120  0.0000  0.0000  0.2250  0.1335  0.0000  0.0000  0.2186
  32.  H 3 (s)      0.3203  0.0000  0.0000  0.5048  0.3700  0.0000  0.0000  0.5211

           AO         25      26      27      28      29      30      31      32
      ------------ ------- ------- ------- ------- ------- ------- ------- -------
   1.  O 1 (s)      0.0009  0.0009  0.1052  0.0000  0.0000  0.0000  0.0331  0.0680
   2.  O 1 (s)      0.0397  0.0397  0.4989  0.0000  0.0000  0.0000  0.2397  0.3756
   3.  O 1 (px)     0.0000  0.0000  0.0000  0.0000  0.2319  0.0000  0.0000  0.0000
   4.  O 1 (py)     0.0000  0.0000  0.0000  0.0000  0.0000  0.2319  0.0000  0.0000
   5.  O 1 (pz)    -0.0242 -0.0242 -0.0893  0.0000  0.0000  0.0000  0.2797  0.1479
   6.  O 1 (s)      0.2082  0.2082  0.6815  0.0000  0.0000  0.0000  0.4199  0.6776
   7.  O 1 (px)     0.0000  0.0000  0.0000  0.0000  0.5828  0.0000  0.0000  0.0000
   8.  O 1 (py)     0.0000  0.0000  0.0000  0.0000  0.0000  0.5828  0.0000  0.0000
   9.  O 1 (pz)    -0.2492 -0.2492 -0.1427  0.0000  0.0000  0.0000  0.5813  0.4832
  10.  O 1 (d1)     0.1418  0.0473  0.4906  0.0000  0.0000  0.0000  0.1618  0.3951
  11.  O 1 (d4)     0.0473  0.1418  0.4906  0.0000  0.0000  0.0000  0.1618  0.3951
  12.  O 1 (d6)     0.0750  0.0750  0.4293  0.0000  0.0000  0.0000  0.5467  0.4671
  13.  O 1 (d2)     0.0000  0.0000  0.0000  0.1418  0.0000  0.0000  0.0000  0.0000
  14.  O 1 (d3)     0.0000  0.0000  0.0000  0.0000 -0.1907  0.0000  0.0000  0.0000
  15.  O 1 (d5)     0.0000  0.0000  0.0000  0.0000  0.0000 -0.1907  0.0000  0.0000
  16. Li 2 (s)      0.0996  0.0996  0.0996  0.0000  0.0000  0.0000  0.0004  0.0279
  17. Li 2 (s)      0.7243  0.7243  0.7243  0.0000  0.0000  0.0000  0.1120  0.3203
  18. Li 2 (px)     0.0000  0.0000  0.0000  0.0000  0.0000  0.0000  0.0000  0.0000
  19. Li 2 (py)     0.0000  0.0000  0.0000  0.0000  0.0000  0.0000  0.0000  0.0000
  20. Li 2 (pz)     0.0000  0.0000  0.0000  0.0000  0.0000  0.0000  0.2250  0.5048
  21. Li 2 (s)      0.5965  0.5965  0.5965  0.0000  0.0000  0.0000  0.1335  0.3700
  22. Li 2 (px)     0.0000  0.0000  0.0000  0.0000  0.0000  0.0000  0.0000  0.0000
  23. Li 2 (py)     0.0000  0.0000  0.0000  0.0000  0.0000  0.0000  0.0000  0.0000
  24. Li 2 (pz)     0.0000  0.0000  0.0000  0.0000  0.0000  0.0000  0.2186  0.5211
  25. Li 2 (d1)     1.0000  0.3333  0.3333  0.0000  0.0000  0.0000  0.0077  0.1005
  26. Li 2 (d4)     0.3333  1.0000  0.3333  0.0000  0.0000  0.0000  0.0077  0.1005
  27. Li 2 (d6)     0.3333  0.3333  1.0000  0.0000  0.0000  0.0000  0.1754  0.3990
  28. Li 2 (d2)     0.0000  0.0000  0.0000  1.0000  0.0000  0.0000  0.0000  0.0000
  29. Li 2 (d3)     0.0000  0.0000  0.0000  0.0000  1.0000  0.0000  0.0000  0.0000
  30. Li 2 (d5)     0.0000  0.0000  0.0000  0.0000  0.0000  1.0000  0.0000  0.0000
  31.  H 3 (s)      0.0077  0.0077  0.1754  0.0000  0.0000  0.0000  1.0000  0.6583
  32.  H 3 (s)      0.1005  0.1005  0.3990  0.0000  0.0000  0.0000  0.6583  1.0000


 AO bond-order matrix:

           AO          1       2       3       4       5       6       7       8
      ------------ ------- ------- ------- ------- ------- ------- ------- -------
   1.  O 1 (s)      2.0765 -0.1795  0.0000  0.0000  0.0292 -0.2080  0.0000  0.0000
   2.  O 1 (s)     -0.1795  0.4998  0.0000  0.0000 -0.0795  0.4919  0.0000  0.0000
   3.  O 1 (px)     0.0000  0.0000  0.7066  0.0000  0.0000  0.0000  0.5763  0.0000
   4.  O 1 (py)     0.0000  0.0000  0.0000  0.7066  0.0000  0.0000  0.0000  0.5763
   5.  O 1 (pz)     0.0292 -0.0795  0.0000  0.0000  0.5462 -0.0821  0.0000  0.0000
   6.  O 1 (s)     -0.2080  0.4919  0.0000  0.0000 -0.0821  0.4847  0.0000  0.0000
   7.  O 1 (px)     0.0000  0.0000  0.5763  0.0000  0.0000  0.0000  0.4700  0.0000
   8.  O 1 (py)     0.0000  0.0000  0.0000  0.5763  0.0000  0.0000  0.0000  0.4700
   9.  O 1 (pz)     0.0254 -0.0713  0.0000  0.0000  0.3512 -0.0726  0.0000  0.0000
  10.  O 1 (d1)    -0.0100  0.0039  0.0000  0.0000 -0.0145  0.0041  0.0000  0.0000
  11.  O 1 (d4)    -0.0100  0.0039  0.0000  0.0000 -0.0145  0.0041  0.0000  0.0000
  12.  O 1 (d6)    -0.0250  0.0361  0.0000  0.0000  0.0206  0.0355  0.0000  0.0000
  13.  O 1 (d2)     0.0000  0.0000  0.0000  0.0000  0.0000  0.0000  0.0000  0.0000
  14.  O 1 (d3)     0.0000  0.0000  0.0075  0.0000  0.0000  0.0000  0.0061  0.0000
  15.  O 1 (d5)     0.0000  0.0000  0.0000  0.0075  0.0000  0.0000  0.0000  0.0061
  16. Li 2 (s)      0.0426 -0.1068  0.0000  0.0000  0.1278 -0.1047  0.0000  0.0000
  17. Li 2 (s)      0.0014 -0.0037  0.0000  0.0000 -0.0905 -0.0030  0.0000  0.0000
  18. Li 2 (px)     0.0000  0.0000  0.1814  0.0000  0.0000  0.0000  0.1480  0.0000
  19. Li 2 (py)     0.0000  0.0000  0.0000  0.1814  0.0000  0.0000  0.0000  0.1480
  20. Li 2 (pz)    -0.0319  0.0766  0.0000  0.0000 -0.1915  0.0767  0.0000  0.0000
  21. Li 2 (s)     -0.0053  0.0123  0.0000  0.0000  0.0261  0.0119  0.0000  0.0000
  22. Li 2 (px)     0.0000  0.0000 -0.0037  0.0000  0.0000  0.0000 -0.0030  0.0000
  23. Li 2 (py)     0.0000  0.0000  0.0000 -0.0037  0.0000  0.0000  0.0000 -0.0030
  24. Li 2 (pz)     0.0130 -0.0321  0.0000  0.0000  0.0991 -0.0323  0.0000  0.0000
  25. Li 2 (d1)    -0.0034  0.0073  0.0000  0.0000  0.0098  0.0071  0.0000  0.0000
  26. Li 2 (d4)    -0.0034  0.0073  0.0000  0.0000  0.0098  0.0071  0.0000  0.0000
  27. Li 2 (d6)    -0.0099  0.0243  0.0000  0.0000 -0.0396  0.0242  0.0000  0.0000
  28. Li 2 (d2)     0.0000  0.0000  0.0000  0.0000  0.0000  0.0000  0.0000  0.0000
  29. Li 2 (d3)     0.0000  0.0000  0.0316  0.0000  0.0000  0.0000  0.0257  0.0000
  30. Li 2 (d5)     0.0000  0.0000  0.0000  0.0316  0.0000  0.0000  0.0000  0.0257
  31.  H 3 (s)     -0.0342  0.0690  0.0000  0.0000  0.2941  0.0659  0.0000  0.0000
  32.  H 3 (s)      0.0096 -0.0276  0.0000  0.0000  0.1671 -0.0283  0.0000  0.0000

           AO          9      10      11      12      13      14      15      16
      ------------ ------- ------- ------- ------- ------- ------- ------- -------
   1.  O 1 (s)      0.0254 -0.0100 -0.0100 -0.0250  0.0000  0.0000  0.0000  0.0426
   2.  O 1 (s)     -0.0713  0.0039  0.0039  0.0361  0.0000  0.0000  0.0000 -0.1068
   3.  O 1 (px)     0.0000  0.0000  0.0000  0.0000  0.0000  0.0075  0.0000  0.0000
   4.  O 1 (py)     0.0000  0.0000  0.0000  0.0000  0.0000  0.0000  0.0075  0.0000
   5.  O 1 (pz)     0.3512 -0.0145 -0.0145  0.0206  0.0000  0.0000  0.0000  0.1278
   6.  O 1 (s)     -0.0726  0.0041  0.0041  0.0355  0.0000  0.0000  0.0000 -0.1047
   7.  O 1 (px)     0.0000  0.0000  0.0000  0.0000  0.0000  0.0061  0.0000  0.0000
   8.  O 1 (py)     0.0000  0.0000  0.0000  0.0000  0.0000  0.0000  0.0061  0.0000
   9.  O 1 (pz)     0.2267 -0.0094 -0.0094  0.0117  0.0000  0.0000  0.0000  0.0977
  10.  O 1 (d1)    -0.0094  0.0004  0.0004 -0.0004  0.0000  0.0000  0.0000 -0.0064
  11.  O 1 (d4)    -0.0094  0.0004  0.0004 -0.0004  0.0000  0.0000  0.0000 -0.0064
  12.  O 1 (d6)     0.0117 -0.0004 -0.0004  0.0040  0.0000  0.0000  0.0000 -0.0003
  13.  O 1 (d2)     0.0000  0.0000  0.0000  0.0000  0.0000  0.0000  0.0000  0.0000
  14.  O 1 (d3)     0.0000  0.0000  0.0000  0.0000  0.0000  0.0001  0.0000  0.0000
  15.  O 1 (d5)     0.0000  0.0000  0.0000  0.0000  0.0000  0.0000  0.0001  0.0000
  16. Li 2 (s)      0.0977 -0.0064 -0.0064 -0.0003  0.0000  0.0000  0.0000  2.0485
  17. Li 2 (s)     -0.0575  0.0024  0.0024 -0.0048  0.0000  0.0000  0.0000 -0.0241
  18. Li 2 (px)     0.0000  0.0000  0.0000  0.0000  0.0000  0.0019  0.0000  0.0000
  19. Li 2 (py)     0.0000  0.0000  0.0000  0.0000  0.0000  0.0000  0.0019  0.0000
  20. Li 2 (pz)    -0.1254  0.0053  0.0053 -0.0033  0.0000  0.0000  0.0000 -0.0917
  21. Li 2 (s)      0.0161 -0.0006 -0.0006  0.0023  0.0000  0.0000  0.0000 -0.0008
  22. Li 2 (px)     0.0000  0.0000  0.0000  0.0000  0.0000  0.0000  0.0000  0.0000
  23. Li 2 (py)     0.0000  0.0000  0.0000  0.0000  0.0000  0.0000  0.0000  0.0000
  24. Li 2 (pz)     0.0645 -0.0027 -0.0027  0.0023  0.0000  0.0000  0.0000  0.0470
  25. Li 2 (d1)     0.0060 -0.0002 -0.0002  0.0011  0.0000  0.0000  0.0000  0.0126
  26. Li 2 (d4)     0.0060 -0.0002 -0.0002  0.0011  0.0000  0.0000  0.0000  0.0126
  27. Li 2 (d6)    -0.0262  0.0011  0.0011  0.0000  0.0000  0.0000  0.0000 -0.0080
  28. Li 2 (d2)     0.0000  0.0000  0.0000  0.0000  0.0000  0.0000  0.0000  0.0000
  29. Li 2 (d3)     0.0000  0.0000  0.0000  0.0000  0.0000  0.0003  0.0000  0.0000
  30. Li 2 (d5)     0.0000  0.0000  0.0000  0.0000  0.0000  0.0000  0.0003  0.0000
  31.  H 3 (s)      0.1845 -0.0074 -0.0074  0.0201  0.0000  0.0000  0.0000  0.0560
  32.  H 3 (s)      0.1076 -0.0045 -0.0045  0.0061  0.0000  0.0000  0.0000  0.0474

           AO         17      18      19      20      21      22      23      24
      ------------ ------- ------- ------- ------- ------- ------- ------- -------
   1.  O 1 (s)      0.0014  0.0000  0.0000 -0.0319 -0.0053  0.0000  0.0000  0.0130
   2.  O 1 (s)     -0.0037  0.0000  0.0000  0.0766  0.0123  0.0000  0.0000 -0.0321
   3.  O 1 (px)     0.0000  0.1814  0.0000  0.0000  0.0000 -0.0037  0.0000  0.0000
   4.  O 1 (py)     0.0000  0.0000  0.1814  0.0000  0.0000  0.0000 -0.0037  0.0000
   5.  O 1 (pz)    -0.0905  0.0000  0.0000 -0.1915  0.0261  0.0000  0.0000  0.0991
   6.  O 1 (s)     -0.0030  0.0000  0.0000  0.0767  0.0119  0.0000  0.0000 -0.0323
   7.  O 1 (px)     0.0000  0.1480  0.0000  0.0000  0.0000 -0.0030  0.0000  0.0000
   8.  O 1 (py)     0.0000  0.0000  0.1480  0.0000  0.0000  0.0000 -0.0030  0.0000
   9.  O 1 (pz)    -0.0575  0.0000  0.0000 -0.1254  0.0161  0.0000  0.0000  0.0645
  10.  O 1 (d1)     0.0024  0.0000  0.0000  0.0053 -0.0006  0.0000  0.0000 -0.0027
  11.  O 1 (d4)     0.0024  0.0000  0.0000  0.0053 -0.0006  0.0000  0.0000 -0.0027
  12.  O 1 (d6)    -0.0048  0.0000  0.0000 -0.0033  0.0023  0.0000  0.0000  0.0023
  13.  O 1 (d2)     0.0000  0.0000  0.0000  0.0000  0.0000  0.0000  0.0000  0.0000
  14.  O 1 (d3)     0.0000  0.0019  0.0000  0.0000  0.0000  0.0000  0.0000  0.0000
  15.  O 1 (d5)     0.0000  0.0000  0.0019  0.0000  0.0000  0.0000  0.0000  0.0000
  16. Li 2 (s)     -0.0241  0.0000  0.0000 -0.0917 -0.0008  0.0000  0.0000  0.0470
  17. Li 2 (s)      0.0156  0.0000  0.0000  0.0301 -0.0049  0.0000  0.0000 -0.0159
  18. Li 2 (px)     0.0000  0.0466  0.0000  0.0000  0.0000 -0.0010  0.0000  0.0000
  19. Li 2 (py)     0.0000  0.0000  0.0466  0.0000  0.0000  0.0000 -0.0010  0.0000
  20. Li 2 (pz)     0.0301  0.0000  0.0000  0.0727 -0.0075  0.0000  0.0000 -0.0369
  21. Li 2 (s)     -0.0049  0.0000  0.0000 -0.0075  0.0018  0.0000  0.0000  0.0041
  22. Li 2 (px)     0.0000 -0.0010  0.0000  0.0000  0.0000  0.0000  0.0000  0.0000
  23. Li 2 (py)     0.0000  0.0000 -0.0010  0.0000  0.0000  0.0000  0.0000  0.0000
  24. Li 2 (pz)    -0.0159  0.0000  0.0000 -0.0369  0.0041  0.0000  0.0000  0.0188
  25. Li 2 (d1)    -0.0020  0.0000  0.0000 -0.0028  0.0007  0.0000  0.0000  0.0016
  26. Li 2 (d4)    -0.0020  0.0000  0.0000 -0.0028  0.0007  0.0000  0.0000  0.0016
  27. Li 2 (d6)     0.0059  0.0000  0.0000  0.0157 -0.0013  0.0000  0.0000 -0.0078
  28. Li 2 (d2)     0.0000  0.0000  0.0000  0.0000  0.0000  0.0000  0.0000  0.0000
  29. Li 2 (d3)     0.0000  0.0081  0.0000  0.0000  0.0000 -0.0002  0.0000  0.0000
  30. Li 2 (d5)     0.0000  0.0000  0.0081  0.0000  0.0000  0.0000 -0.0002  0.0000
  31.  H 3 (s)     -0.0526  0.0000  0.0000 -0.0921  0.0177  0.0000  0.0000  0.0494
  32.  H 3 (s)     -0.0276  0.0000  0.0000 -0.0591  0.0079  0.0000  0.0000  0.0305

           AO         25      26      27      28      29      30      31      32
      ------------ ------- ------- ------- ------- ------- ------- ------- -------
   1.  O 1 (s)     -0.0034 -0.0034 -0.0099  0.0000  0.0000  0.0000 -0.0342  0.0096
   2.  O 1 (s)      0.0073  0.0073  0.0243  0.0000  0.0000  0.0000  0.0690 -0.0276
   3.  O 1 (px)     0.0000  0.0000  0.0000  0.0000  0.0316  0.0000  0.0000  0.0000
   4.  O 1 (py)     0.0000  0.0000  0.0000  0.0000  0.0000  0.0316  0.0000  0.0000
   5.  O 1 (pz)     0.0098  0.0098 -0.0396  0.0000  0.0000  0.0000  0.2941  0.1671
   6.  O 1 (s)      0.0071  0.0071  0.0242  0.0000  0.0000  0.0000  0.0659 -0.0283
   7.  O 1 (px)     0.0000  0.0000  0.0000  0.0000  0.0257  0.0000  0.0000  0.0000
   8.  O 1 (py)     0.0000  0.0000  0.0000  0.0000  0.0000  0.0257  0.0000  0.0000
   9.  O 1 (pz)     0.0060  0.0060 -0.0262  0.0000  0.0000  0.0000  0.1845  0.1076
  10.  O 1 (d1)    -0.0002 -0.0002  0.0011  0.0000  0.0000  0.0000 -0.0074 -0.0045
  11.  O 1 (d4)    -0.0002 -0.0002  0.0011  0.0000  0.0000  0.0000 -0.0074 -0.0045
  12.  O 1 (d6)     0.0011  0.0011  0.0000  0.0000  0.0000  0.0000  0.0201  0.0061
  13.  O 1 (d2)     0.0000  0.0000  0.0000  0.0000  0.0000  0.0000  0.0000  0.0000
  14.  O 1 (d3)     0.0000  0.0000  0.0000  0.0000  0.0003  0.0000  0.0000  0.0000
  15.  O 1 (d5)     0.0000  0.0000  0.0000  0.0000  0.0000  0.0003  0.0000  0.0000
  16. Li 2 (s)      0.0126  0.0126 -0.0080  0.0000  0.0000  0.0000  0.0560  0.0474
  17. Li 2 (s)     -0.0020 -0.0020  0.0059  0.0000  0.0000  0.0000 -0.0526 -0.0276
  18. Li 2 (px)     0.0000  0.0000  0.0000  0.0000  0.0081  0.0000  0.0000  0.0000
  19. Li 2 (py)     0.0000  0.0000  0.0000  0.0000  0.0000  0.0081  0.0000  0.0000
  20. Li 2 (pz)    -0.0028 -0.0028  0.0157  0.0000  0.0000  0.0000 -0.0921 -0.0591
  21. Li 2 (s)      0.0007  0.0007 -0.0013  0.0000  0.0000  0.0000  0.0177  0.0079
  22. Li 2 (px)     0.0000  0.0000  0.0000  0.0000 -0.0002  0.0000  0.0000  0.0000
  23. Li 2 (py)     0.0000  0.0000  0.0000  0.0000  0.0000 -0.0002  0.0000  0.0000
  24. Li 2 (pz)     0.0016  0.0016 -0.0078  0.0000  0.0000  0.0000  0.0494  0.0305
  25. Li 2 (d1)     0.0004  0.0004 -0.0003  0.0000  0.0000  0.0000  0.0073  0.0030
  26. Li 2 (d4)     0.0004  0.0004 -0.0003  0.0000  0.0000  0.0000  0.0073  0.0030
  27. Li 2 (d6)    -0.0003 -0.0003  0.0036  0.0000  0.0000  0.0000 -0.0171 -0.0122
  28. Li 2 (d2)     0.0000  0.0000  0.0000  0.0000  0.0000  0.0000  0.0000  0.0000
  29. Li 2 (d3)     0.0000  0.0000  0.0000  0.0000  0.0014  0.0000  0.0000  0.0000
  30. Li 2 (d5)     0.0000  0.0000  0.0000  0.0000  0.0000  0.0014  0.0000  0.0000
  31.  H 3 (s)      0.0073  0.0073 -0.0171  0.0000  0.0000  0.0000  0.1840  0.0893
  32.  H 3 (s)      0.0030  0.0030 -0.0122  0.0000  0.0000  0.0000  0.0893  0.0512


 AO density matrix:

           AO          1       2       3       4       5       6       7       8
      ------------ ------- ------- ------- ------- ------- ------- ------- -------
   1.  O 1 (s)      1.9998  0.4745  0.0000  0.0000  0.0024  0.3295  0.0000  0.0000
   2.  O 1 (s)      0.4745  1.6983  0.0000  0.0000 -0.0953  1.7361  0.0000  0.0000
   3.  O 1 (px)     0.0000  0.0000  1.4709  0.0000  0.0000  0.0000  1.4768  0.0000
   4.  O 1 (py)     0.0000  0.0000  0.0000  1.4709  0.0000  0.0000  0.0000  1.4768
   5.  O 1 (pz)     0.0024 -0.0953  0.0000  0.0000  1.2983 -0.0044  0.0000  0.0000
   6.  O 1 (s)      0.3295  1.7361  0.0000  0.0000 -0.0044  1.8176  0.0000  0.0000
   7.  O 1 (px)     0.0000  0.0000  1.4768  0.0000  0.0000  0.0000  1.4827  0.0000
   8.  O 1 (py)     0.0000  0.0000  0.0000  1.4768  0.0000  0.0000  0.0000  1.4827
   9.  O 1 (pz)     0.0004 -0.0405  0.0000  0.0000  1.3711  0.0072  0.0000  0.0000
  10.  O 1 (d1)     0.0630  1.1952  0.0000  0.0000 -0.1009  1.2419  0.0000  0.0000
  11.  O 1 (d4)     0.0630  1.1952  0.0000  0.0000 -0.1009  1.2419  0.0000  0.0000
  12.  O 1 (d6)     0.0617  1.2765  0.0000  0.0000  0.1451  1.3728  0.0000  0.0000
  13.  O 1 (d2)     0.0000  0.0000  0.0000  0.0000  0.0000  0.0000  0.0000  0.0000
  14.  O 1 (d3)     0.0000  0.0000 -0.0194  0.0000  0.0000  0.0000 -0.0195  0.0000
  15.  O 1 (d5)     0.0000  0.0000  0.0000 -0.0194  0.0000  0.0000  0.0000 -0.0195
  16. Li 2 (s)      0.0027  0.0497  0.0000  0.0000 -0.0871  0.2591  0.0000  0.0000
  17. Li 2 (s)      0.0777  0.7312  0.0000  0.0000 -0.2333  0.7730  0.0000  0.0000
  18. Li 2 (px)     0.0000  0.0000  0.6964  0.0000  0.0000  0.0000  0.6992  0.0000
  19. Li 2 (py)     0.0000  0.0000  0.0000  0.6964  0.0000  0.0000  0.0000  0.6992
  20. Li 2 (pz)     0.1093  0.9390  0.0000  0.0000 -0.0713  0.9668  0.0000  0.0000
  21. Li 2 (s)      0.0548  0.5873  0.0000  0.0000 -0.0825  0.6447  0.0000  0.0000
  22. Li 2 (px)     0.0000  0.0000  0.4745  0.0000  0.0000  0.0000  0.4764  0.0000
  23. Li 2 (py)     0.0000  0.0000  0.0000  0.4745  0.0000  0.0000  0.0000  0.4764
  24. Li 2 (pz)     0.0566  0.5500  0.0000  0.0000  0.1884  0.5859  0.0000  0.0000
  25. Li 2 (d1)    -0.0015  0.2676  0.0000  0.0000 -0.2180  0.2853  0.0000  0.0000
  26. Li 2 (d4)    -0.0015  0.2676  0.0000  0.0000 -0.2180  0.2853  0.0000  0.0000
  27. Li 2 (d6)     0.2066  1.1574  0.0000  0.0000 -0.2114  1.2002  0.0000  0.0000
  28. Li 2 (d2)     0.0000  0.0000  0.0000  0.0000  0.0000  0.0000  0.0000  0.0000
  29. Li 2 (d3)     0.0000  0.0000  0.7645  0.0000  0.0000  0.0000  0.7676  0.0000
  30. Li 2 (d5)     0.0000  0.0000  0.0000  0.7645  0.0000  0.0000  0.0000  0.7676
  31.  H 3 (s)      0.0613  0.7031  0.0000  0.0000  1.0654  0.8177  0.0000  0.0000
  32.  H 3 (s)      0.1300  1.0348  0.0000  0.0000  0.7175  1.1370  0.0000  0.0000

           AO          9      10      11      12      13      14      15      16
      ------------ ------- ------- ------- ------- ------- ------- ------- -------
   1.  O 1 (s)      0.0004  0.0630  0.0630  0.0617  0.0000  0.0000  0.0000  0.0027
   2.  O 1 (s)     -0.0405  1.1952  1.1952  1.2765  0.0000  0.0000  0.0000  0.0497
   3.  O 1 (px)     0.0000  0.0000  0.0000  0.0000  0.0000 -0.0194  0.0000  0.0000
   4.  O 1 (py)     0.0000  0.0000  0.0000  0.0000  0.0000  0.0000 -0.0194  0.0000
   5.  O 1 (pz)     1.3711 -0.1009 -0.1009  0.1451  0.0000  0.0000  0.0000 -0.0871
   6.  O 1 (s)      0.0072  1.2419  1.2419  1.3728  0.0000  0.0000  0.0000  0.2591
   7.  O 1 (px)     0.0000  0.0000  0.0000  0.0000  0.0000 -0.0195  0.0000  0.0000
   8.  O 1 (py)     0.0000  0.0000  0.0000  0.0000  0.0000  0.0000 -0.0195  0.0000
   9.  O 1 (pz)     1.5658 -0.0608 -0.0608  0.1414  0.0000  0.0000  0.0000 -0.5703
  10.  O 1 (d1)    -0.0608  0.8812  0.8812  0.9357  0.0000  0.0000  0.0000  0.0354
  11.  O 1 (d4)    -0.0608  0.8812  0.8812  0.9357  0.0000  0.0000  0.0000  0.0354
  12.  O 1 (d6)     0.1414  0.9357  0.9357  1.0758  0.0000  0.0000  0.0000  0.2769
  13.  O 1 (d2)     0.0000  0.0000  0.0000  0.0000  0.0000  0.0000  0.0000  0.0000
  14.  O 1 (d3)     0.0000  0.0000  0.0000  0.0000  0.0000  0.0003  0.0000  0.0000
  15.  O 1 (d5)     0.0000  0.0000  0.0000  0.0000  0.0000  0.0000  0.0003  0.0000
  16. Li 2 (s)     -0.5703  0.0354  0.0354  0.2769  0.0000  0.0000  0.0000  1.9996
  17. Li 2 (s)     -0.2851  0.5369  0.5369  0.5713  0.0000  0.0000  0.0000  0.3058
  18. Li 2 (px)     0.0000  0.0000  0.0000  0.0000  0.0000 -0.0092  0.0000  0.0000
  19. Li 2 (py)     0.0000  0.0000  0.0000  0.0000  0.0000  0.0000 -0.0092  0.0000
  20. Li 2 (pz)    -0.0300  0.6835  0.6835  0.7217  0.0000  0.0000  0.0000 -0.0140
  21. Li 2 (s)     -0.1526  0.4297  0.4297  0.4963  0.0000  0.0000  0.0000  0.3832
  22. Li 2 (px)     0.0000  0.0000  0.0000  0.0000  0.0000 -0.0063  0.0000  0.0000
  23. Li 2 (py)     0.0000  0.0000  0.0000  0.0000  0.0000  0.0000 -0.0063  0.0000
  24. Li 2 (pz)     0.2216  0.3961  0.3961  0.4657  0.0000  0.0000  0.0000 -0.0042
  25. Li 2 (d1)    -0.2662  0.2037  0.2037  0.2026  0.0000  0.0000  0.0000  0.2110
  26. Li 2 (d4)    -0.2662  0.2037  0.2037  0.2026  0.0000  0.0000  0.0000  0.2110
  27. Li 2 (d6)    -0.2218  0.8346  0.8346  0.8848  0.0000  0.0000  0.0000  0.2116
  28. Li 2 (d2)     0.0000  0.0000  0.0000  0.0000  0.0000  0.0000  0.0000  0.0000
  29. Li 2 (d3)     0.0000  0.0000  0.0000  0.0000  0.0000 -0.0101  0.0000  0.0000
  30. Li 2 (d5)     0.0000  0.0000  0.0000  0.0000  0.0000  0.0000 -0.0101  0.0000
  31.  H 3 (s)      1.1412  0.4890  0.4890  0.7464  0.0000  0.0000  0.0000  0.0047
  32.  H 3 (s)      0.7792  0.7335  0.7335  0.9461  0.0000  0.0000  0.0000  0.0591

           AO         17      18      19      20      21      22      23      24
      ------------ ------- ------- ------- ------- ------- ------- ------- -------
   1.  O 1 (s)      0.0777  0.0000  0.0000  0.1093  0.0548  0.0000  0.0000  0.0566
   2.  O 1 (s)      0.7312  0.0000  0.0000  0.9390  0.5873  0.0000  0.0000  0.5500
   3.  O 1 (px)     0.0000  0.6964  0.0000  0.0000  0.0000  0.4745  0.0000  0.0000
   4.  O 1 (py)     0.0000  0.0000  0.6964  0.0000  0.0000  0.0000  0.4745  0.0000
   5.  O 1 (pz)    -0.2333  0.0000  0.0000 -0.0713 -0.0825  0.0000  0.0000  0.1884
   6.  O 1 (s)      0.7730  0.0000  0.0000  0.9668  0.6447  0.0000  0.0000  0.5859
   7.  O 1 (px)     0.0000  0.6992  0.0000  0.0000  0.0000  0.4764  0.0000  0.0000
   8.  O 1 (py)     0.0000  0.0000  0.6992  0.0000  0.0000  0.0000  0.4764  0.0000
   9.  O 1 (pz)    -0.2851  0.0000  0.0000 -0.0300 -0.1526  0.0000  0.0000  0.2216
  10.  O 1 (d1)     0.5369  0.0000  0.0000  0.6835  0.4297  0.0000  0.0000  0.3961
  11.  O 1 (d4)     0.5369  0.0000  0.0000  0.6835  0.4297  0.0000  0.0000  0.3961
  12.  O 1 (d6)     0.5713  0.0000  0.0000  0.7217  0.4963  0.0000  0.0000  0.4657
  13.  O 1 (d2)     0.0000  0.0000  0.0000  0.0000  0.0000  0.0000  0.0000  0.0000
  14.  O 1 (d3)     0.0000 -0.0092  0.0000  0.0000  0.0000 -0.0063  0.0000  0.0000
  15.  O 1 (d5)     0.0000  0.0000 -0.0092  0.0000  0.0000  0.0000 -0.0063  0.0000
  16. Li 2 (s)      0.3058  0.0000  0.0000 -0.0140  0.3832  0.0000  0.0000 -0.0042
  17. Li 2 (s)      0.3883  0.0000  0.0000  0.4111  0.3166  0.0000  0.0000  0.2100
  18. Li 2 (px)     0.0000  0.3297  0.0000  0.0000  0.0000  0.2247  0.0000  0.0000
  19. Li 2 (py)     0.0000  0.0000  0.3297  0.0000  0.0000  0.0000  0.2247  0.0000
  20. Li 2 (pz)     0.4111  0.0000  0.0000  0.5328  0.3263  0.0000  0.0000  0.3094
  21. Li 2 (s)      0.3166  0.0000  0.0000  0.3263  0.2771  0.0000  0.0000  0.1865
  22. Li 2 (px)     0.0000  0.2247  0.0000  0.0000  0.0000  0.1531  0.0000  0.0000
  23. Li 2 (py)     0.0000  0.0000  0.2247  0.0000  0.0000  0.0000  0.1531  0.0000
  24. Li 2 (pz)     0.2100  0.0000  0.0000  0.3094  0.1865  0.0000  0.0000  0.2209
  25. Li 2 (d1)     0.1759  0.0000  0.0000  0.1526  0.1389  0.0000  0.0000  0.0555
  26. Li 2 (d4)     0.1759  0.0000  0.0000  0.1526  0.1389  0.0000  0.0000  0.0555
  27. Li 2 (d6)     0.5503  0.0000  0.0000  0.6477  0.4429  0.0000  0.0000  0.3557
  28. Li 2 (d2)     0.0000  0.0000  0.0000  0.0000  0.0000  0.0000  0.0000  0.0000
  29. Li 2 (d3)     0.0000  0.3619  0.0000  0.0000  0.0000  0.2466  0.0000  0.0000
  30. Li 2 (d5)     0.0000  0.0000  0.3619  0.0000  0.0000  0.0000  0.2466  0.0000
  31.  H 3 (s)      0.1564  0.0000  0.0000  0.3847  0.2201  0.0000  0.0000  0.4236
  32.  H 3 (s)      0.3525  0.0000  0.0000  0.5737  0.3526  0.0000  0.0000  0.4761

           AO         25      26      27      28      29      30      31      32
      ------------ ------- ------- ------- ------- ------- ------- ------- -------
   1.  O 1 (s)     -0.0015 -0.0015  0.2066  0.0000  0.0000  0.0000  0.0613  0.1300
   2.  O 1 (s)      0.2676  0.2676  1.1574  0.0000  0.0000  0.0000  0.7031  1.0348
   3.  O 1 (px)     0.0000  0.0000  0.0000  0.0000  0.7645  0.0000  0.0000  0.0000
   4.  O 1 (py)     0.0000  0.0000  0.0000  0.0000  0.0000  0.7645  0.0000  0.0000
   5.  O 1 (pz)    -0.2180 -0.2180 -0.2114  0.0000  0.0000  0.0000  1.0654  0.7175
   6.  O 1 (s)      0.2853  0.2853  1.2002  0.0000  0.0000  0.0000  0.8177  1.1370
   7.  O 1 (px)     0.0000  0.0000  0.0000  0.0000  0.7676  0.0000  0.0000  0.0000
   8.  O 1 (py)     0.0000  0.0000  0.0000  0.0000  0.0000  0.7676  0.0000  0.0000
   9.  O 1 (pz)    -0.2662 -0.2662 -0.2218  0.0000  0.0000  0.0000  1.1412  0.7792
  10.  O 1 (d1)     0.2037  0.2037  0.8346  0.0000  0.0000  0.0000  0.4890  0.7335
  11.  O 1 (d4)     0.2037  0.2037  0.8346  0.0000  0.0000  0.0000  0.4890  0.7335
  12.  O 1 (d6)     0.2026  0.2026  0.8848  0.0000  0.0000  0.0000  0.7464  0.9461
  13.  O 1 (d2)     0.0000  0.0000  0.0000  0.0000  0.0000  0.0000  0.0000  0.0000
  14.  O 1 (d3)     0.0000  0.0000  0.0000  0.0000 -0.0101  0.0000  0.0000  0.0000
  15.  O 1 (d5)     0.0000  0.0000  0.0000  0.0000  0.0000 -0.0101  0.0000  0.0000
  16. Li 2 (s)      0.2110  0.2110  0.2116  0.0000  0.0000  0.0000  0.0047  0.0591
  17. Li 2 (s)      0.1759  0.1759  0.5503  0.0000  0.0000  0.0000  0.1564  0.3525
  18. Li 2 (px)     0.0000  0.0000  0.0000  0.0000  0.3619  0.0000  0.0000  0.0000
  19. Li 2 (py)     0.0000  0.0000  0.0000  0.0000  0.0000  0.3619  0.0000  0.0000
  20. Li 2 (pz)     0.1526  0.1526  0.6477  0.0000  0.0000  0.0000  0.3847  0.5737
  21. Li 2 (s)      0.1389  0.1389  0.4429  0.0000  0.0000  0.0000  0.2201  0.3526
  22. Li 2 (px)     0.0000  0.0000  0.0000  0.0000  0.2466  0.0000  0.0000  0.0000
  23. Li 2 (py)     0.0000  0.0000  0.0000  0.0000  0.0000  0.2466  0.0000  0.0000
  24. Li 2 (pz)     0.0555  0.0555  0.3557  0.0000  0.0000  0.0000  0.4236  0.4761
  25. Li 2 (d1)     0.0948  0.0948  0.2257  0.0000  0.0000  0.0000 -0.0513  0.0555
  26. Li 2 (d4)     0.0948  0.0948  0.2257  0.0000  0.0000  0.0000 -0.0513  0.0555
  27. Li 2 (d6)     0.2257  0.2257  0.8264  0.0000  0.0000  0.0000  0.3684  0.6348
  28. Li 2 (d2)     0.0000  0.0000  0.0000  0.0000  0.0000  0.0000  0.0000  0.0000
  29. Li 2 (d3)     0.0000  0.0000  0.0000  0.0000  0.3974  0.0000  0.0000  0.0000
  30. Li 2 (d5)     0.0000  0.0000  0.0000  0.0000  0.0000  0.3974  0.0000  0.0000
  31.  H 3 (s)     -0.0513 -0.0513  0.3684  0.0000  0.0000  0.0000  1.2504  1.1084
  32.  H 3 (s)      0.0555  0.0555  0.6348  0.0000  0.0000  0.0000  1.1084  1.1155


 MO density matrix:

      MO     1       2       3       4       5       6       7       8       9
     ---- ------  ------  ------  ------  ------  ------  ------  ------  ------
   1.     2.0000  0.0000  0.0000  0.0000  0.0000  0.0000  0.0000  0.0000  0.0000
   2.     0.0000  2.0000  0.0000  0.0000  0.0000  0.0000  0.0000  0.0000  0.0000
   3.     0.0000  0.0000  2.0000  0.0000  0.0000  0.0000  0.0000  0.0000  0.0000
   4.     0.0000  0.0000  0.0000  2.0000  0.0000  0.0000  0.0000  0.0000  0.0000
   5.     0.0000  0.0000  0.0000  0.0000  2.0000  0.0000  0.0000  0.0000  0.0000
   6.     0.0000  0.0000  0.0000  0.0000  0.0000  2.0000  0.0000  0.0000  0.0000
   7.     0.0000  0.0000  0.0000  0.0000  0.0000  0.0000  0.0000  0.0000  0.0000
   8.     0.0000  0.0000  0.0000  0.0000  0.0000  0.0000  0.0000  0.0000  0.0000
   9.     0.0000  0.0000  0.0000  0.0000  0.0000  0.0000  0.0000  0.0000  0.0000
  10.     0.0000  0.0000  0.0000  0.0000  0.0000  0.0000  0.0000  0.0000  0.0000
  11.     0.0000  0.0000  0.0000  0.0000  0.0000  0.0000  0.0000  0.0000  0.0000
  12.     0.0000  0.0000  0.0000  0.0000  0.0000  0.0000  0.0000  0.0000  0.0000
  13.     0.0000  0.0000  0.0000  0.0000  0.0000  0.0000  0.0000  0.0000  0.0000
  14.     0.0000  0.0000  0.0000  0.0000  0.0000  0.0000  0.0000  0.0000  0.0000
  15.     0.0000  0.0000  0.0000  0.0000  0.0000  0.0000  0.0000  0.0000  0.0000
  16.     0.0000  0.0000  0.0000  0.0000  0.0000  0.0000  0.0000  0.0000  0.0000
  17.     0.0000  0.0000  0.0000  0.0000  0.0000  0.0000  0.0000  0.0000  0.0000
  18.     0.0000  0.0000  0.0000  0.0000  0.0000  0.0000  0.0000  0.0000  0.0000
  19.     0.0000  0.0000  0.0000  0.0000  0.0000  0.0000  0.0000  0.0000  0.0000
  20.     0.0000  0.0000  0.0000  0.0000  0.0000  0.0000  0.0000  0.0000  0.0000
  21.     0.0000  0.0000  0.0000  0.0000  0.0000  0.0000  0.0000  0.0000  0.0000
  22.     0.0000  0.0000  0.0000  0.0000  0.0000  0.0000  0.0000  0.0000  0.0000
  23.     0.0000  0.0000  0.0000  0.0000  0.0000  0.0000  0.0000  0.0000  0.0000
  24.     0.0000  0.0000  0.0000  0.0000  0.0000  0.0000  0.0000  0.0000  0.0000
  25.     0.0000  0.0000  0.0000  0.0000  0.0000  0.0000  0.0000  0.0000  0.0000
  26.     0.0000  0.0000  0.0000  0.0000  0.0000  0.0000  0.0000  0.0000  0.0000
  27.     0.0000  0.0000  0.0000  0.0000  0.0000  0.0000  0.0000  0.0000  0.0000
  28.     0.0000  0.0000  0.0000  0.0000  0.0000  0.0000  0.0000  0.0000  0.0000
  29.     0.0000  0.0000  0.0000  0.0000  0.0000  0.0000  0.0000  0.0000  0.0000
  30.     0.0000  0.0000  0.0000  0.0000  0.0000  0.0000  0.0000  0.0000  0.0000
  31.     0.0000  0.0000  0.0000  0.0000  0.0000  0.0000  0.0000  0.0000  0.0000
  32.     0.0000  0.0000  0.0000  0.0000  0.0000  0.0000  0.0000  0.0000  0.0000

      MO    10      11      12      13      14      15      16      17      18
     ---- ------  ------  ------  ------  ------  ------  ------  ------  ------
   1.     0.0000  0.0000  0.0000  0.0000  0.0000  0.0000  0.0000  0.0000  0.0000
[...]
  25. Li 2( 3pz)    0.0030  0.0000  0.0000  0.0000  0.0000 -0.0005  0.0277  0.0008
  26. Li 2( 3d1)    0.0000  0.0000  0.0000  0.0000  0.0000  0.0000  0.0000  0.0000
  27. Li 2( 3d2)    0.0000  0.0000  0.0003  0.0000  0.0000  0.0000  0.0000  0.0000
  28. Li 2( 3d3)    0.0000  0.0000  0.0000  0.0003  0.0000  0.0000  0.0000  0.0000
  29. Li 2( 3d4)    0.0000  0.0000  0.0000  0.0000  0.0000  0.0000  0.0000  0.0000
  30. Li 2( 3d5)   -0.0005  0.0000  0.0000  0.0000  0.0000  0.0001 -0.0071  0.0000
  31.  H 3( 1s )    0.0277  0.0000  0.0000  0.0000  0.0000 -0.0071  0.5311  0.0000
  32.  H 3( 2s )    0.0008  0.0000  0.0000  0.0000  0.0000  0.0000  0.0000  0.0004


 NATURAL BOND ORBITAL ANALYSIS:

 Initiate 2-center NBO search using THRESH = 1.900 and PRJTHR = 0.300

 Search of NAO DM block for core orbitals on atom:   1
      Eigenvector ( 1) has occupancy 2.00000
            1.0000 0.0000 0.0000 0.0000 0.0000 0.0000 0.0000 0.0000
            0.0000 0.0000 0.0000 0.0000 0.0000 0.0000 0.0000
        1 eigenvector(s) stashed in permanent list

 Search of NAO DM block for core orbitals on atom:   2
      Eigenvector ( 1) has occupancy 1.99980
            1.0000 0.0000 0.0000 0.0000 0.0000 0.0000 0.0000 0.0000
            0.0000 0.0000 0.0000 0.0000 0.0000 0.0000 0.0000
        1 eigenvector(s) stashed in permanent list

 Core orbitals projected from the NAO density matrix
       8.000 electrons remain (>1.900); search continues

 Search of NAO DM block for the following atom(s):   1
      Select eigenvectors with eigenvalue > 1.900
       1.987 1.973 1.973 1.465 0.000 0.000 0.000 0.000 0.000 0.000 0.000 0.000
       0.000 0.000 0.000
      Eigenvector ( 1) has occupancy 1.98712
            0.0000 0.8586 0.0199 0.0000 0.0000 0.0000 0.0000 0.0000
           -0.5123 0.0016 0.0000 0.0000 0.0000 0.0000 0.0071
      Eigenvector ( 2) has occupancy 1.97335
            0.0000 0.0000 0.0000 0.0000-0.1380 0.0010 0.9904-0.0075
            0.0000 0.0000 0.0000-0.0001 0.0004 0.0000 0.0000
      Eigenvector ( 3) has occupancy 1.97335
            0.0000 0.0000 0.0000 0.0000 0.9904-0.0075 0.1380-0.0010
            0.0000 0.0000 0.0000 0.0004 0.0001 0.0000 0.0000
      3 hybrids on atom 1 stashed in prospective list

 Stash prospective hybrids having projection expectation value > 0.300
       1.000 1.000 1.000
      0 hybrids eliminated in 1 pass
      3 hybrids moved from prospective to permanent list

 NHOs of 1-center eigenvectors projected from the NAO density matrix
       2.066 electrons remain (>1.900); search continues

 Search of NAO DM block for the following atom(s):   1   3
      Select eigenvectors with eigenvalue > 1.900
       1.996 0.000 0.000 0.000 0.000 0.000 0.000 0.000 0.000 0.000 0.000 0.000
       0.000 0.000 0.000 0.000 0.000
      Eigenvector ( 1) has occupancy 1.99619
            0.0000 0.4385-0.0388 0.0000 0.0000 0.0000 0.0000 0.0000
            0.7339 0.0215 0.0000 0.0000 0.0000 0.0000 0.0338 0.5158
            0.0000
      1 hybrid on atom 1 stashed in prospective list
      1 hybrid on atom 3 stashed in prospective list

 Stash prospective hybrids having projection expectation value > 0.300
       1.000 1.000
      0 hybrids eliminated in 1 pass
      2 hybrids moved from prospective to permanent list

 NHOs of 2-center eigenvectors projected from the NAO density matrix
       0.070 electrons remain in the fully projected matrix

 Search of NHO DM block for the following atom(s):   1
      Select eigenvectors with eigenvalue > 1.900
       2.000 1.987 1.973 1.973 0.000 0.000 0.000 0.000 0.000 0.000 0.000 0.000
       0.000 0.000 0.000
      Eigenvector ( 1) has occupancy 2.00000
            1.0000 0.0000 0.0000 0.0000 0.0000 0.0000 0.0000 0.0000
            0.0000 0.0000 0.0000 0.0000 0.0000 0.0000 0.0000
           NBO accepted:    1. Label:CR ( 1)   1
      Eigenvector ( 2) has occupancy 1.98712
            0.0000 1.0000 0.0000 0.0000 0.0000 0.0000 0.0000 0.0000
            0.0000 0.0000 0.0000 0.0000 0.0000 0.0000 0.0000
           NBO accepted:    2. Label:LP ( 1)   1
      Eigenvector ( 3) has occupancy 1.97335
            0.0000 0.0000 1.0000 0.0000 0.0000 0.0000 0.0000 0.0000
            0.0000 0.0000 0.0000 0.0000 0.0000 0.0000 0.0000
           NBO accepted:    3. Label:LP ( 2)   1
      Eigenvector ( 4) has occupancy 1.97335
            0.0000 0.0000 0.0000 1.0000 0.0000 0.0000 0.0000 0.0000
            0.0000 0.0000 0.0000 0.0000 0.0000 0.0000 0.0000
           NBO accepted:    4. Label:LP ( 3)   1
        4 eigenvector(s) stashed in permanent list

 Search of NHO DM block for the following atom(s):   2
      Select eigenvectors with eigenvalue > 1.900
       2.000 0.027 0.027 0.013 0.003 0.000 0.000 0.000 0.000 0.000 0.000 0.000
       0.000 0.000 0.000
      Eigenvector ( 1) has occupancy 1.99980
            1.0000 0.0000 0.0000 0.0000 0.0000 0.0000 0.0000 0.0000
            0.0000 0.0000 0.0000 0.0000 0.0000 0.0000 0.0000
           NBO accepted:    5. Label:CR ( 1)   2
        1 eigenvector(s) stashed in permanent list

  1-center NBOs projected from the NHO density matrix
       2.066 electrons remain (>1.900); search continues

 Search of NHO DM block for the following atom(s):   1   3
      Select eigenvectors with eigenvalue > 1.900
       1.996 0.000 0.000 0.000 0.000 0.000 0.000 0.000 0.000 0.000 0.000 0.000
       0.000 0.000 0.000 0.000 0.000
      Eigenvector ( 1) has occupancy 1.99619
            0.0000 0.0000 0.0000 0.0000 0.8567 0.0000 0.0000 0.0000
            0.0000 0.0000 0.0000 0.0000 0.0000 0.0000 0.0000 0.5158
            0.0000
      Occupancy is 1.996 after deleting minor hybrid components
            0.0000 0.0000 0.0000 0.0000 0.8567 0.0000 0.0000 0.0000
            0.0000 0.0000 0.0000 0.0000 0.0000 0.0000 0.0000 0.5158
            0.0000
           NBO accepted:    6. Label:BD ( 1)   1   3
      Occupancy is 0.000 for antibonding component
            0.0000 0.0000 0.0000 0.0000-0.5158 0.0000 0.0000 0.0000
            0.0000 0.0000 0.0000 0.0000 0.0000 0.0000 0.0000 0.8567
            0.0000
           NBO accepted:    7. Label:BD*( 1)   1   3
        2 eigenvector(s) stashed in permanent list

  2-center NBOs projected from the NHO density matrix
       0.070 electrons remain in the fully projected matrix

                            Occupancies       Lewis Structure    Low   High
         Max    Occ     -------------------  -----------------   occ   occ
  Cycle  Ctr   Thresh    Lewis   non-Lewis     CR  BD  nC  LP    (L)   (NL)
 ============================================================================
    1     2     1.90    11.92982   0.07018      2   1   0   3     0      0
 ----------------------------------------------------------------------------

 Structure accepted: No low occupancy Lewis orbitals

 -------------------------------------------------------
   Core                      3.99980 ( 99.995% of   4)
   Valence Lewis             7.93002 ( 99.125% of   8)
  ==================      =============================
   Total Lewis              11.92982 ( 99.415% of  12)
  -----------------------------------------------------
   Valence non-Lewis         0.01332 (  0.111% of  12)
   Rydberg non-Lewis         0.05686 (  0.474% of  12)
  ==================      =============================
   Total non-Lewis           0.07018 (  0.585% of  12)
 -------------------------------------------------------


     (Occupancy)   Bond orbital / Coefficients / Hybrids
 ------------------ Lewis ------------------------------------------------------
   1. (2.00000) CR ( 1) O  1            s(100.00%)
                                         1.0000  0.0000  0.0000  0.0000  0.0000
                                         0.0000  0.0000  0.0000  0.0000  0.0000
                                         0.0000  0.0000  0.0000  0.0000  0.0000
   2. (1.99980) CR ( 1)Li  2            s(100.00%)
                                         1.0000  0.0000  0.0000  0.0000  0.0000
                                         0.0000  0.0000  0.0000  0.0000  0.0000
                                         0.0000  0.0000  0.0000  0.0000  0.0000
   3. (1.98712) LP ( 1) O  1            s( 73.75%)p 0.36( 26.24%)d 0.00(  0.01%)
                                         0.0000  0.8586  0.0199  0.0000  0.0000
                                         0.0000  0.0000  0.0000 -0.5123  0.0016
                                         0.0000  0.0000  0.0000  0.0000  0.0071
   4. (1.97335) LP ( 2) O  1            s(  0.00%)p 1.00(100.00%)d 0.00(  0.00%)
                                         0.0000  0.0000  0.0000  0.0000 -0.1380
                                         0.0010  0.9904 -0.0075  0.0000  0.0000
                                         0.0000 -0.0001  0.0004  0.0000  0.0000
   5. (1.97335) LP ( 3) O  1            s(  0.00%)p 1.00(100.00%)d 0.00(  0.00%)
                                         0.0000  0.0000  0.0000  0.0000  0.9904
                                        -0.0075  0.1380 -0.0010  0.0000  0.0000
                                         0.0000  0.0004  0.0001  0.0000  0.0000
   6. (1.99619) BD ( 1) O  1- H  3
               ( 73.40%)   0.8567* O  1 s( 26.40%)p 2.78( 73.44%)d 0.01(  0.16%)
                                         0.0000  0.5118 -0.0453  0.0000  0.0000
                                         0.0000  0.0000  0.0000  0.8566  0.0251
                                         0.0000  0.0000  0.0000  0.0000  0.0395
               ( 26.60%)   0.5158* H  3 s(100.00%)
                                         1.0000  0.0001
 ---------------- non-Lewis ----------------------------------------------------
   7. (0.01330) LV ( 1)Li  2            s( 64.17%)p 0.56( 35.67%)d 0.00(  0.17%)
                                         0.0000  0.8003  0.0357  0.0000  0.0000
                                         0.0000  0.0000  0.0000  0.4228 -0.4218
                                         0.0000  0.0000  0.0000  0.0000  0.0407
   8. (0.00003) BD*( 1) O  1- H  3
               ( 26.60%)   0.5158* O  1 s( 26.40%)p 2.78( 73.44%)d 0.01(  0.16%)
               ( 73.40%)  -0.8567* H  3 s(100.00%)
   9. (0.00007) RY ( 1) O  1            s( 58.72%)p 0.68( 39.92%)d 0.02(  1.36%)
  10. (0.00000) RY ( 2) O  1            s(  0.00%)p 1.00(  2.41%)d40.54( 97.59%)
  11. (0.00000) RY ( 3) O  1            s(  0.00%)p 1.00(  0.05%)d99.99( 99.95%)
  12. (0.00000) RY ( 4) O  1            s(  0.00%)p 0.00(  0.00%)d 1.00(100.00%)
  13. (0.00000) RY ( 5) O  1            s(  0.00%)p 1.00( 97.59%)d 0.02(  2.41%)
  14. (0.00000) RY ( 6) O  1            s( 32.17%)p 0.08(  2.70%)d 2.02( 65.13%)
  15. (0.00000) RY ( 7) O  1            s(  0.00%)p 1.00( 99.95%)d 0.00(  0.05%)
  16. (0.00000) RY ( 8) O  1            s( 57.36%)p 0.11(  6.30%)d 0.63( 36.34%)
  17. (0.00000) RY ( 9) O  1            s( 47.06%)p 1.09( 51.18%)d 0.04(  1.76%)
  18. (0.00000) RY (10) O  1            s(  4.54%)p 0.05(  0.21%)d20.98( 95.24%)
  19. (0.02665) RY ( 1)Li  2            s(  0.00%)p 1.00( 98.99%)d 0.01(  1.01%)
                                         0.0000  0.0000  0.0000  0.0000  0.9929
                                         0.0614  0.0157  0.0010  0.0000  0.0000
                                         0.0000  0.1005  0.0016  0.0000  0.0000
  20. (0.02665) RY ( 2)Li  2            s(  0.00%)p 1.00( 98.99%)d 0.01(  1.01%)
                                         0.0000  0.0000  0.0000  0.0000 -0.0157
                                        -0.0010  0.9929  0.0614  0.0000  0.0000
                                         0.0000 -0.0016  0.1005  0.0000  0.0000
  21. (0.00309) RY ( 3)Li  2            s( 38.65%)p 1.52( 58.94%)d 0.06(  2.41%)
                                         0.0000  0.5852 -0.2100  0.0001  0.0000
                                         0.0000  0.0000  0.0000 -0.6105  0.4655
                                         0.0000  0.0000  0.0000  0.0000 -0.1551
  22. (0.00001) RY ( 4)Li  2            s(  3.57%)p14.92( 53.33%)d12.06( 43.10%)
  23. (0.00000) RY ( 5)Li  2            s(  0.00%)p 0.00(  0.00%)d 1.00(100.00%)
  24. (0.00000) RY ( 6)Li  2            s(  0.08%)p 1.66(  0.14%)d99.99( 99.78%)
  25. (0.00000) RY ( 7)Li  2            s(  0.00%)p 1.00( 32.37%)d 2.09( 67.63%)
  26. (0.00000) RY ( 8)Li  2            s( 99.70%)p 0.00(  0.15%)d 0.00(  0.16%)
  27. (0.00000) RY ( 9)Li  2            s( 68.88%)p 0.09(  5.94%)d 0.37( 25.19%)
  28. (0.00000) RY (10)Li  2            s( 24.95%)p 1.84( 45.84%)d 1.17( 29.21%)
  29. (0.00000) RY (11)Li  2            s(  0.00%)p 1.00( 68.65%)d 0.46( 31.35%)
  30. (0.00000) RY (12)Li  2            s(  0.00%)p 1.00( 24.54%)d 3.08( 75.46%)
  31. (0.00000) RY (13)Li  2            s(  0.00%)p 1.00( 76.47%)d 0.31( 23.53%)
  32. (0.00040) RY ( 1) H  3            s(100.00%)
                                        -0.0001  1.0000


 NHO DIRECTIONALITY AND BOND BENDING (deviation from line of nuclear centers at
                                      the position of maximum hybrid amplitude)

         [Thresholds for printing:  angular deviation  >  1.0 degree]
                                    p- or d-character  > 25.0%
                                    orbital occupancy  >  0.10e

                        Line of Centers        Hybrid 1             Hybrid 2
                        ---------------  -------------------  ------------------
           NBO            Theta   Phi    Theta   Phi    Dev   Theta   Phi    Dev
 ===============================================================================
   4. LP ( 2) O  1          --     --     90.0   97.9   --      --     --    --
   5. LP ( 3) O  1          --     --     90.0    7.9   --      --     --    --


 SECOND ORDER PERTURBATION THEORY ANALYSIS OF FOCK MATRIX IN NBO BASIS

     Threshold for printing:   0.50 kcal/mol
    (Intermolecular threshold: 0.05 kcal/mol)
                                                          E(2) E(NL)-E(L) F(L,NL)
      Donor (L) NBO              Acceptor (NL) NBO      kcal/mol   a.u.    a.u.
 ===============================================================================

 within unit  1
       None above threshold

 from unit  1 to unit  2
    3. LP ( 1) O  1             7. LV ( 1)Li  2            9.17    1.46   0.103
    3. LP ( 1) O  1            22. RY ( 4)Li  2            0.07    1.55   0.010
    3. LP ( 1) O  1            27. RY ( 9)Li  2            0.28    1.72   0.020
    4. LP ( 2) O  1            19. RY ( 1)Li  2            0.15    0.57   0.008
    4. LP ( 2) O  1            20. RY ( 2)Li  2            9.86    0.57   0.067
    4. LP ( 2) O  1            30. RY (12)Li  2            0.40    1.10   0.019
    5. LP ( 3) O  1            19. RY ( 1)Li  2            9.86    0.57   0.067
    5. LP ( 3) O  1            20. RY ( 2)Li  2            0.15    0.57   0.008
    5. LP ( 3) O  1            29. RY (11)Li  2            0.52    0.86   0.019
    6. BD ( 1) O  1- H  3       7. LV ( 1)Li  2            0.35    1.37   0.019
    6. BD ( 1) O  1- H  3      21. RY ( 3)Li  2            3.49    1.33   0.061
    6. BD ( 1) O  1- H  3      22. RY ( 4)Li  2            0.28    1.46   0.018

 from unit  2 to unit  1
    2. CR ( 1)Li  2             9. RY ( 1) O  1            0.14    4.05   0.022

 within unit  2
       None above threshold


 NATURAL BOND ORBITALS (Summary):

                                                     Principal Delocalizations
           NBO                 Occupancy    Energy   (geminal,vicinal,remote)
 ===============================================================================
 Molecular unit  1  (HO)
 ------ Lewis --------------------------------------
    1. CR ( 1) O  1             2.00000   -20.43936
    3. LP ( 1) O  1             1.98712    -0.89973  7(r),27(r),22(r)
    4. LP ( 2) O  1             1.97335    -0.37664  20(r),30(r),19(r)
    5. LP ( 3) O  1             1.97335    -0.37664  19(r),29(r),20(r)
    6. BD ( 1) O  1- H  3       1.99619    -0.81248  21(r),7(r),22(r)
 ------ non-Lewis ----------------------------------
    8. BD*( 1) O  1- H  3       0.00003     0.82999
    9. RY ( 1) O  1             0.00007     1.65135
   10. RY ( 2) O  1             0.00000     2.20041
   11. RY ( 3) O  1             0.00000     2.19644
   12. RY ( 4) O  1             0.00000     2.22225
   13. RY ( 5) O  1             0.00000     1.37229
   14. RY ( 6) O  1             0.00000     2.77121
   15. RY ( 7) O  1             0.00000     1.37626
   16. RY ( 8) O  1             0.00000     3.36639
   17. RY ( 9) O  1             0.00000     1.71715
   18. RY (10) O  1             0.00000     2.43643
   32. RY ( 1) H  3             0.00040     0.80265
          -------------------------------
                 Total Lewis    9.93001  ( 99.9950%)
           Valence non-Lewis    0.00003  (  0.0003%)
           Rydberg non-Lewis    0.00047  (  0.0047%)
          -------------------------------
               Total unit  1    9.93051  (100.0000%)
              Charge unit  1   -0.93051

 Molecular unit  2  (Li)
 ------ Lewis --------------------------------------
    2. CR ( 1)Li  2             1.99980    -2.39440  9(r)
 ------ non-Lewis ----------------------------------
    7. LV ( 1)Li  2             0.01330     0.56251
   19. RY ( 1)Li  2             0.02665     0.19790
   20. RY ( 2)Li  2             0.02665     0.19790
   21. RY ( 3)Li  2             0.00309     0.51950
   22. RY ( 4)Li  2             0.00001     0.64534
   23. RY ( 5)Li  2             0.00000     0.62643
   24. RY ( 6)Li  2             0.00000     0.62583
   25. RY ( 7)Li  2             0.00000     0.51142
   26. RY ( 8)Li  2             0.00000     0.51243
   27. RY ( 9)Li  2             0.00000     0.82159
   28. RY (10)Li  2             0.00000     0.49548
   29. RY (11)Li  2             0.00000     0.48354
   30. RY (12)Li  2             0.00000     0.72808
   31. RY (13)Li  2             0.00000     0.26691
          -------------------------------
                 Total Lewis    1.99980  ( 96.6326%)
           Valence non-Lewis    0.01330  (  0.6424%)
           Rydberg non-Lewis    0.05639  (  2.7249%)
          -------------------------------
               Total unit  2    2.06949  (100.0000%)
              Charge unit  2    0.93051

 $CHOOSE
   LONE 1 3 END
   BOND S 1 3 END
 $END

 NBO analysis completed in 0.27 CPU seconds (0 wall seconds)
 Maximum scratch memory used by NBO was 330809 words (2.52 MB)
 Maximum scratch memory used by G16NBO was 9825 words (0.07 MB)

 Opening RunExU unformatted file "/cluster/work/users/beto93/LiOH/Gau-2613554.EUF"
 Read unf file /cluster/work/users/beto93/LiOH/Gau-2613554.EUF:
 Label Gaussian matrix elements                                         IVers= 2 NLab= 2 Version=ES64L-G16RevC.01
 Title NBO-a                                                           
 NAtoms=     3 NBasis=    32 NBsUse=    32 ICharg=     0 Multip=     1 NE=    12 Len12L=8 Len4L=8 IOpCl= 0 ICGU=111
 GAUSSIAN SCALARS                    NI= 1 NR= 1 NTot=       1 LenBuf=    2 NRI=1 N=    1000
 NPA CHARGES                         NI= 0 NR= 1 NTot=       3 LenBuf= 4000 NRI=1 N=       3
 Recovered energy= -82.8907751207     dipole=      0.000000000000      0.000000000000     -1.443246090491
 Unable to Open any file for archive entry.
 1\1\GINC-C1-42\SP\RHF\6-31G(d)\H1Li1O1\BETO93\24-Jul-2024\0\\#RHF/6-31
 G* Pop=NBO7Read\\NBO-a\\0,1\O,0,0.,0.,-0.000101\Li,0,0.,0.,1.432159\H,
 0,0.,0.,-0.971058\\Version=ES64L-G16RevC.01\State=1-SG\HF=-82.8907751\
 RMSD=2.783e-09\Dipole=0.,0.,1.4432461\Quadrupole=-2.4331244,-2.4331244
 ,4.8662487,0.,0.,0.\PG=C*V [C*(Li1O1H1)]\\@
 The archive entry for this job was punched.


 In the race for quality, there is no finish line.
                               -- David T. Kearns
 Job cpu time:       0 days  0 hours  0 minutes 11.0 seconds.
 Elapsed time:       0 days  0 hours  0 minutes  3.6 seconds.
 File lengths (MBytes):  RWF=     10 Int=      0 D2E=      0 Chk=      1 Scr=      1
 Normal termination of Gaussian 16 at Wed Jul 24 12:08:04 2024.
