 Entering Gaussian System, Link 0=g16
 Initial command:
 /cluster/software/Gaussian/g16_C.01/l1.exe "/cluster/work/users/beto93/mol41/Gau-475814.inp" -scrdir="/cluster/work/users/beto93/mol41/"
 Entering Link 1 = /cluster/software/Gaussian/g16_C.01/l1.exe PID=    475818.
  
 Copyright (c) 1988-2019, Gaussian, Inc.  All Rights Reserved.
  
 This is part of the Gaussian(R) 16 program.  It is based on
 the Gaussian(R) 09 system (copyright 2009, Gaussian, Inc.),
 the Gaussian(R) 03 system (copyright 2003, Gaussian, Inc.),
 the Gaussian(R) 98 system (copyright 1998, Gaussian, Inc.),
 the Gaussian(R) 94 system (copyright 1995, Gaussian, Inc.),
 the Gaussian 92(TM) system (copyright 1992, Gaussian, Inc.),
 the Gaussian 90(TM) system (copyright 1990, Gaussian, Inc.),
 the Gaussian 88(TM) system (copyright 1988, Gaussian, Inc.),
 the Gaussian 86(TM) system (copyright 1986, Carnegie Mellon
 University), and the Gaussian 82(TM) system (copyright 1983,
 Carnegie Mellon University). Gaussian is a federally registered
 trademark of Gaussian, Inc.
  
 This software contains proprietary and confidential information,
 including trade secrets, belonging to Gaussian, Inc.
  
 This software is provided under written license and may be
 used, copied, transmitted, or stored only in accord with that
 written license.
  
 The following legend is applicable only to US Government
 contracts under FAR:
  
                    RESTRICTED RIGHTS LEGEND
  
 Use, reproduction and disclosure by the US Government is
 subject to restrictions as set forth in subparagraphs (a)
 and (c) of the Commercial Computer Software - Restricted
 Rights clause in FAR 52.227-19.
  
 Gaussian, Inc.
 340 Quinnipiac St., Bldg. 40, Wallingford CT 06492
  
  
 ---------------------------------------------------------------
 Warning -- This program may not be used in any manner that
 competes with the business of Gaussian, Inc. or will provide
 assistance to any competitor of Gaussian, Inc.  The licensee
 of this program is prohibited from giving any competitor of
 Gaussian, Inc. access to this program.  By using this program,
 the user acknowledges that Gaussian, Inc. is engaged in the
 business of creating and licensing software in the field of
 computational chemistry and represents and warrants to the
 licensee that it is not a competitor of Gaussian, Inc. and that
 it will not use this program in any manner prohibited above.
 ---------------------------------------------------------------
  

 Cite this work as:
 Gaussian 16, Revision C.01,
 M. J. Frisch, G. W. Trucks, H. B. Schlegel, G. E. Scuseria, 
 M. A. Robb, J. R. Cheeseman, G. Scalmani, V. Barone, 
 G. A. Petersson, H. Nakatsuji, X. Li, M. Caricato, A. V. Marenich, 
 J. Bloino, B. G. Janesko, R. Gomperts, B. Mennucci, H. P. Hratchian, 
 J. V. Ortiz, A. F. Izmaylov, J. L. Sonnenberg, D. Williams-Young, 
 F. Ding, F. Lipparini, F. Egidi, J. Goings, B. Peng, A. Petrone, 
 T. Henderson, D. Ranasinghe, V. G. Zakrzewski, J. Gao, N. Rega, 
 G. Zheng, W. Liang, M. Hada, M. Ehara, K. Toyota, R. Fukuda, 
 J. Hasegawa, M. Ishida, T. Nakajima, Y. Honda, O. Kitao, H. Nakai, 
 T. Vreven, K. Throssell, J. A. Montgomery, Jr., J. E. Peralta, 
 F. Ogliaro, M. J. Bearpark, J. J. Heyd, E. N. Brothers, K. N. Kudin, 
 V. N. Staroverov, T. A. Keith, R. Kobayashi, J. Normand, 
 K. Raghavachari, A. P. Rendell, J. C. Burant, S. S. Iyengar, 
 J. Tomasi, M. Cossi, J. M. Millam, M. Klene, C. Adamo, R. Cammi, 
 J. W. Ochterski, R. L. Martin, K. Morokuma, O. Farkas, 
 J. B. Foresman, and D. J. Fox, Gaussian, Inc., Wallingford CT, 2019.
 
 ******************************************
 Gaussian 16:  ES64L-G16RevC.01  3-Jul-2019
                18-Nov-2024 
 ******************************************
 %LindaWorkers=c1-39-ib
 %NProcShared=4
 Will use up to    4 processors via shared memory.
 %mem=25GB
 %chk=mol41.chk
 SetLPE:    new flags="-opt 'Tsnet.Node.lindarsharg: ssh'  -nodelist 'c1-39-ib.saga' -env GAUSS_MDEF=3355443200 -env GAUSS_EXEDIR="/cluster/software/Gaussian/g16_C.01/bsd:/cluster/software/Gaussian/g16_C.01""
 Will use up to    1 processors via Linda.
 -----------------------------------------------------------------
 #RHF/6-31G* int=nobasistransform Symmetry=None 5D 7F Pop=NBO7Read
 -----------------------------------------------------------------
 1/38=1,163=2,172=1/1;
 2/12=2,15=3,17=6,18=5,40=1/2;
 3/5=1,6=6,7=1,8=11,11=1,25=1,30=1,60=-1,116=1/1,2,3;
 4//1;
 5/5=2,38=5/2;
 6/7=2,8=2,9=2,10=2,28=1,40=2,113=1,114=1,124=2103/1,12;
 99/5=1,9=1/99;
 ---------
 mol41-NBO
 ---------
 Symbolic Z-matrix:
 Charge =  0 Multiplicity = 1
 P                     0.        0.        0.96614 
 P                     0.        0.       -0.96614 
 
                          Input orientation:                          
 ---------------------------------------------------------------------
 Center     Atomic      Atomic             Coordinates (Angstroms)
 Number     Number       Type             X           Y           Z
 ---------------------------------------------------------------------
      1         15           0        0.000000    0.000000    0.966144
      2         15           0        0.000000    0.000000   -0.966144
 ---------------------------------------------------------------------
 Symmetry turned off by external request.
 Stoichiometry    P2
 Rotational constants (GHZ):           0.0000000           8.7399612           8.7399612
 Standard basis: 6-31G(d) (5D, 7F)
    36 basis functions,   104 primitive gaussians,    38 cartesian basis functions
    15 alpha electrons       15 beta electrons
       nuclear repulsion energy        61.6185953942 Hartrees.
 NAtoms=    2 NActive=    2 NUniq=    2 SFac= 1.00D+00 NAtFMM=   60 NAOKFM=F Big=F
 Integral buffers will be    131072 words long.
 Raffenetti 1 integral format.
 Two-electron integral symmetry is turned off.
 One-electron integrals computed using PRISM.
 NBasis=    36 RedAO= T EigKep=  1.43D-02  NBF=    36
 NBsUse=    36 1.00D-06 EigRej= -1.00D+00 NBFU=    36
 ExpMin= 9.98D-02 ExpMax= 1.94D+04 ExpMxC= 2.91D+03 IAcc=3 IRadAn=         5 AccDes= 0.00D+00
 Harris functional with IExCor=  205 and IRadAn=       5 diagonalized for initial guess.
 HarFok:  IExCor=  205 AccDes= 0.00D+00 IRadAn=         5 IDoV= 1 UseB2=F ITyADJ=14
 ICtDFT=  3500011 ScaDFX=  1.000000  1.000000  1.000000  1.000000
 FoFCou: FMM=F IPFlag=           0 FMFlag=      100000 FMFlg1=           0
         NFxFlg=           0 DoJE=T BraDBF=F KetDBF=T FulRan=T
         wScrn=  0.000000 ICntrl=       500 IOpCl=  0 I1Cent=   200000004 NGrid=           0
         NMat0=    1 NMatS0=      1 NMatT0=    0 NMatD0=    1 NMtDS0=    0 NMtDT0=    0
 Symmetry not used in FoFCou.
 Keep R1 ints in memory in canonical form, NReq=1054479.
 Requested convergence on RMS density matrix=1.00D-08 within 128 cycles.
 Requested convergence on MAX density matrix=1.00D-06.
 Requested convergence on             energy=1.00D-06.
 No special actions if energy rises.
 SCF Done:  E(RHF) =  -681.418262424     A.U. after    9 cycles
            NFock=  9  Conv=0.49D-08     -V/T= 2.0000

 **********************************************************************

            Population analysis using the SCF Density.

 **********************************************************************

 Alpha  occ. eigenvalues --  -79.97048 -79.97043  -7.52462  -7.52404  -5.41620
 Alpha  occ. eigenvalues --   -5.41536  -5.41536  -5.41516  -5.41516  -5.41433
 Alpha  occ. eigenvalues --   -0.90324  -0.61313  -0.40932  -0.36754  -0.36754
 Alpha virt. eigenvalues --    0.01435   0.01435   0.18536   0.31273   0.39228
 Alpha virt. eigenvalues --    0.44145   0.44145   0.47869   0.51994   0.51994
 Alpha virt. eigenvalues --    0.64868   0.74174   0.74174   0.85801   0.85801
 Alpha virt. eigenvalues --    0.96051   0.96051   0.97896   1.18193   1.18193
 Alpha virt. eigenvalues --    1.56724
          Condensed to atoms (all electrons):
               1          2
     1  P   14.351084   0.648916
     2  P    0.648916  14.351084
 Mulliken charges:
               1
     1  P   -0.000000
     2  P    0.000000
 Sum of Mulliken charges =  -0.00000
 Mulliken charges with hydrogens summed into heavy atoms:
               1
     1  P   -0.000000
     2  P    0.000000
 Electronic spatial extent (au):  <R**2>=            159.5689
 Charge=             -0.0000 electrons
 Dipole moment (field-independent basis, Debye):
    X=             -0.0000    Y=              0.0000    Z=             -0.0000  Tot=              0.0000
 Quadrupole moment (field-independent basis, Debye-Ang):
   XX=            -26.6173   YY=            -26.6173   ZZ=            -26.8868
   XY=             -0.0000   XZ=             -0.0000   YZ=              0.0000
 Traceless Quadrupole moment (field-independent basis, Debye-Ang):
   XX=              0.0898   YY=              0.0898   ZZ=             -0.1797
   XY=             -0.0000   XZ=             -0.0000   YZ=              0.0000
 Octapole moment (field-independent basis, Debye-Ang**2):
  XXX=              0.0000  YYY=              0.0000  ZZZ=             -0.0000  XYY=              0.0000
  XXY=              0.0000  XXZ=             -0.0000  XZZ=             -0.0000  YZZ=              0.0000
  YYZ=             -0.0000  XYZ=             -0.0000
 Hexadecapole moment (field-independent basis, Debye-Ang**3):
 XXXX=            -42.2026 YYYY=            -42.2026 ZZZZ=           -195.8220 XXXY=             -0.0000
 XXXZ=             -0.0000 YYYX=             -0.0000 YYYZ=              0.0000 ZZZX=             -0.0000
 ZZZY=              0.0000 XXYY=            -14.0675 XXZZ=            -38.0781 YYZZ=            -38.0781
 XXYZ=              0.0000 YYXZ=             -0.0000 ZZXY=             -0.0000
 N-N= 6.161859539416D+01 E-N=-1.747184934280D+03  KE= 6.813950065322D+02
 Running external command "gaunbo7 R"
         input file       "/cluster/work/users/beto93/mol41/Gau-475818.EIn"
         output file      "/cluster/work/users/beto93/mol41/Gau-475818.EOu"
         message file     "/cluster/work/users/beto93/mol41/Gau-475818.EMs"
         fchk file        "/cluster/work/users/beto93/mol41/Gau-475818.EFC"
         mat. el file     "/cluster/work/users/beto93/mol41/Gau-475818.EUF"

 Writing WrtUnf unformatted file "/cluster/work/users/beto93/mol41/Gau-475818.EUF"
 Gaussian matrix elements                                         Version   2 NLab=11 Len12L=8 Len4L=8
 Write SHELL TO ATOM MAP                   from file      0 offset           0 length                  10 to matrix element file.
 Write SHELL TYPES                         from file      0 offset           0 length                  10 to matrix element file.
 Write NUMBER OF PRIMITIVES PER SHELL      from file      0 offset           0 length                  10 to matrix element file.
 Write PRIMITIVE EXPONENTS                 from file      0 offset           0 length                  34 to matrix element file.
 Write CONTRACTION COEFFICIENTS            from file      0 offset           0 length                  34 to matrix element file.
 Write P(S=P) CONTRACTION COEFFICIENTS     from file      0 offset           0 length                  34 to matrix element file.
 Write COORDINATES OF EACH SHELL           from file      0 offset           0 length                  30 to matrix element file.
 Write BONDS PER ATOM                      from file      0 offset           0 length                   2 to matrix element file.
 Write BONDED ATOMS                        from file      0 offset           0 length                   2 to matrix element file.
 Write BOND TYPES                          from file      0 offset           0 length                   2 to matrix element file.
 Write ONIOM CHARGE/MULT                   from file      0 offset           0 length                  32 to matrix element file.
 Write ONIOM ATOM LAYERS                   from file      0 offset           0 length                   2 to matrix element file.
 Write ONIOM ATOM MODIFIERS                from file      0 offset           0 length                   2 to matrix element file.
 Write ONIOM ATOM TYPES                    from file      0 offset           0 length                   2 to matrix element file.
 Write ONIOM LINK ATOMS                    from file      0 offset           0 length                   2 to matrix element file.
 Write ONIOM LINK CHARGES                  from file      0 offset           0 length                   2 to matrix element file.
 Write ONIOM LINK DISTANCES                from file      0 offset           0 length                   8 to matrix element file.
 Write SYMINF INTS                         from file      0 offset           0 length                  26 to matrix element file.
 Write ROTTR TO SO                         from file      0 offset           0 length                  12 to matrix element file.
 Write GAUSSIAN SCALARS                    from file    501 offset           0 to matrix element file.
 Write OPTIMIZATION FLAGS                  from file      0 offset           0 length                   2 to matrix element file.
 Write INTEGER ISO                         from file      0 offset           0 length                   2 to matrix element file.
 Write INTEGER SPIN                        from file      0 offset           0 length                   2 to matrix element file.
 Write REAL ZEFFECTIVE                     from file      0 offset           0 length                   2 to matrix element file.
 Write REAL GFACTOR                        from file      0 offset           0 length                   2 to matrix element file.
 Write REAL ZNUCLEAR                       from file      0 offset           0 length                   2 to matrix element file.
 Write MULLIKEN CHARGES                    from file      0 offset           0 length                   2 to matrix element file.
 Write NUCLEAR GRADIENT                    from file  10584 offset           0 length                   6 to matrix element file.
 Array NUCLEAR FORCE CONSTANTS              on  file  10585 does not exist.
 Write ELECTRIC DIPOLE MOMENT              from file      0 offset           0 length                   3 to matrix element file.
 Write NON-ADIABATIC COUPLING              from file  10810 offset           0 length                   6 to matrix element file.
 Write FINITE EM FIELD                     from file  10521 offset           0 length                  35 to matrix element file.
 Write OVERLAP                             from file  10514 offset           0 length                 666 to matrix element file.
 Write CORE HAMILTONIAN ALPHA              from file  10515 offset           0 length                 666 to matrix element file.
 Write CORE HAMILTONIAN BETA               from file  10515 offset         666 length                 666 to matrix element file.
 Write KINETIC ENERGY                      from file  10516 offset           0 length                 666 to matrix element file.
 Write ORTHOGONAL BASIS                    from file  10685 offset           0 length                1296 to matrix element file.
 Write DIPOLE INTEGRALS                    from file  10518 offset           0 length                1998 to matrix element file.
 Array DIP VEL INTEGRALS                    on  file  10572 does not exist.
 Array R X DEL INTEGRALS                    on  file  10572 does not exist.
 Write ALPHA ORBITAL ENERGIES              from file      0 offset           0 length                  36 to matrix element file.
 Write ALPHA MO COEFFICIENTS               from file  10524 offset           0 length                1296 to matrix element file.
 Write ALPHA DENSITY MATRIX                from file      0 offset           0 length                 666 to matrix element file.
 Write ALPHA FOCK MATRIX                   from file  10536 offset           0 length                 666 to matrix element file.
 Write ENERGY-WEIGHTED DENSITY             from file  10571 offset           0 length                 666 to matrix element file.
 Write ALPHA SCF DENSITY MATRIX            from file      0 offset           0 length                 666 to matrix element file.
 No 2e integrals to process.
 Perform NBO analysis...executing G16NBO...

 *********************************** NBO 7.0 ***********************************
             N A T U R A L   A T O M I C   O R B I T A L   A N D
          N A T U R A L   B O N D   O R B I T A L   A N A L Y S I S
 **************************** Espen Tangen (S101595) ***************************
  (c) Copyright 1996-2021 Board of Regents of the University of Wisconsin System
      on behalf of the Theoretical Chemistry Institute.  All rights reserved.

          Cite this program [NBO 7.0.10 (8-Feb-2021)] as:

          NBO 7.0.  E. D. Glendening, J. K. Badenhoop, A. E. Reed,
          J. E. Carpenter, J. A. Bohmann, C. M. Morales, P. Karafiloglou,
          C. R. Landis, and F. Weinhold, Theoretical Chemistry Institute,
          University of Wisconsin, Madison, WI (2018)

       /NPA    / : Natural Population Analysis
       /AOPNAO / : Print the AO to PNAO transformation
       /AONAO  / : Print the AO to NAO transformation
       /AOMO   / : Print the MOs in the AO basis
       /BOAO   / : Print the AO bond-order matrix
       /DMAO   / : Print the AO density matrix
       /DMPNAO / : Print the PNAO density matrix
       /DMNAO  / : Print the NAO density matrix
       /DMMO   / : Print the MO density matrix
       /SAO    / : Print the AO overlap matrix
       /SPNAO  / : Print the PNAO overlap matrix
       /DETAIL / : Write details of NBO search
       /ARCHIVE/ : Write the archive file to lfn47
       /AOINFO / : Write AO information to lfn31
       /FILE   / : Set to mol41.gen*

 Filename set to mol41.gen1

 Job title: mol41-NBO


 MOs in the AO basis:

           AO          1       2       3       4       5       6       7       8
      ------------ ------- ------- ------- ------- ------- ------- ------- -------
   1.  P 1 (s)      0.7049  0.7049 -0.1953 -0.1953 -0.0005  0.0000  0.0000  0.0000
   2.  P 1 (s)      0.0084  0.0083  0.7290  0.7294  0.0022  0.0000  0.0000  0.0000
   3.  P 1 (px)     0.0000  0.0000  0.0000  0.0000  0.0000  0.6846 -0.1605  0.5748
   4.  P 1 (py)     0.0000  0.0000  0.0000  0.0000  0.0000  0.1605  0.6846 -0.4050
   5.  P 1 (pz)    -0.0001  0.0000 -0.0011 -0.0011  0.7028  0.0000  0.0000  0.0000
   6.  P 1 (s)     -0.0030 -0.0024  0.0098  0.0104 -0.0011  0.0000  0.0000  0.0000
   7.  P 1 (px)     0.0000  0.0000  0.0000  0.0000  0.0000  0.0133 -0.0031  0.0116
   8.  P 1 (py)     0.0000  0.0000  0.0000  0.0000  0.0000  0.0031  0.0133 -0.0082
   9.  P 1 (pz)     0.0005  0.0000 -0.0006 -0.0007  0.0134  0.0000  0.0000  0.0000
  10.  P 1 (s)      0.0030  0.0011 -0.0021 -0.0061 -0.0005  0.0000  0.0000  0.0000
  11.  P 1 (px)     0.0000  0.0000  0.0000  0.0000  0.0000 -0.0029  0.0007 -0.0035
  12.  P 1 (py)     0.0000  0.0000  0.0000  0.0000  0.0000 -0.0007 -0.0029  0.0024
  13.  P 1 (pz)    -0.0011 -0.0001  0.0003  0.0022 -0.0033  0.0000  0.0000  0.0000
  14.  P 1 (d5)    -0.0003  0.0001  0.0000  0.0001 -0.0005  0.0000  0.0000  0.0000
  15.  P 1 (d2)     0.0000  0.0000  0.0000  0.0000  0.0000  0.0001  0.0000 -0.0002
  16.  P 1 (d3)     0.0000  0.0000  0.0000  0.0000  0.0000  0.0000  0.0001  0.0001
  17.  P 1 (d4)     0.0000  0.0000  0.0000  0.0000  0.0000  0.0000  0.0000  0.0000
  18.  P 1 (d1)     0.0000  0.0000  0.0000  0.0000  0.0000  0.0000  0.0000  0.0000
  19.  P 2 (s)     -0.7049  0.7049 -0.1953  0.1953 -0.0005  0.0000  0.0000  0.0000
  20.  P 2 (s)     -0.0084  0.0083  0.7290 -0.7294  0.0022  0.0000  0.0000  0.0000
  21.  P 2 (px)     0.0000  0.0000  0.0000  0.0000  0.0000  0.6846 -0.1605 -0.5748
  22.  P 2 (py)     0.0000  0.0000  0.0000  0.0000  0.0000  0.1605  0.6846  0.4050
  23.  P 2 (pz)    -0.0001  0.0000  0.0011 -0.0011 -0.7028  0.0000  0.0000  0.0000
  24.  P 2 (s)      0.0030 -0.0024  0.0098 -0.0104 -0.0011  0.0000  0.0000  0.0000
  25.  P 2 (px)     0.0000  0.0000  0.0000  0.0000  0.0000  0.0133 -0.0031 -0.0116
  26.  P 2 (py)     0.0000  0.0000  0.0000  0.0000  0.0000  0.0031  0.0133  0.0082
  27.  P 2 (pz)     0.0005  0.0000  0.0006 -0.0007 -0.0134  0.0000  0.0000  0.0000
  28.  P 2 (s)     -0.0030  0.0011 -0.0021  0.0061 -0.0005  0.0000  0.0000  0.0000
  29.  P 2 (px)     0.0000  0.0000  0.0000  0.0000  0.0000 -0.0029  0.0007  0.0035
  30.  P 2 (py)     0.0000  0.0000  0.0000  0.0000  0.0000 -0.0007 -0.0029 -0.0024
  31.  P 2 (pz)    -0.0011  0.0001 -0.0003  0.0022  0.0033  0.0000  0.0000  0.0000
  32.  P 2 (d5)     0.0003  0.0001  0.0000 -0.0001 -0.0005  0.0000  0.0000  0.0000
  33.  P 2 (d2)     0.0000  0.0000  0.0000  0.0000  0.0000 -0.0001  0.0000 -0.0002
  34.  P 2 (d3)     0.0000  0.0000  0.0000  0.0000  0.0000  0.0000 -0.0001  0.0001
  35.  P 2 (d4)     0.0000  0.0000  0.0000  0.0000  0.0000  0.0000  0.0000  0.0000
  36.  P 2 (d1)     0.0000  0.0000  0.0000  0.0000  0.0000  0.0000  0.0000  0.0000

           AO          9      10      11      12      13      14      15      16
      ------------ ------- ------- ------- ------- ------- ------- ------- -------
   1.  P 1 (s)      0.0000 -0.0003  0.0489  0.0494  0.0133  0.0000  0.0000  0.0000
   2.  P 1 (s)      0.0000  0.0012 -0.2277 -0.2307 -0.0680  0.0000  0.0000  0.0000
   3.  P 1 (px)     0.4050  0.0000  0.0000  0.0000  0.0000 -0.1416  0.0828 -0.1345
   4.  P 1 (py)     0.5748  0.0000  0.0000  0.0000  0.0000 -0.0828 -0.1416 -0.0808
   5.  P 1 (pz)     0.0000  0.7035  0.0706 -0.0646 -0.1873  0.0000  0.0000  0.0000
   6.  P 1 (s)      0.0000 -0.0018  0.4549  0.4897  0.1228  0.0000  0.0000  0.0000
   7.  P 1 (px)     0.0082  0.0000  0.0000  0.0000  0.0000  0.3672 -0.2146  0.3441
   8.  P 1 (py)     0.0116  0.0000  0.0000  0.0000  0.0000  0.2146  0.3672  0.2068
   9.  P 1 (pz)     0.0000  0.0144 -0.1538  0.1676  0.4912  0.0000  0.0000  0.0000
  10.  P 1 (s)      0.0000  0.0023  0.1603  0.3170  0.2380  0.0000  0.0000  0.0000
  11.  P 1 (px)    -0.0024  0.0000  0.0000  0.0000  0.0000  0.2283 -0.1334  0.5080
  12.  P 1 (py)    -0.0035  0.0000  0.0000  0.0000  0.0000  0.1334  0.2283  0.3053
  13.  P 1 (pz)     0.0000 -0.0039 -0.0048  0.0448  0.1828  0.0000  0.0000  0.0000
  14.  P 1 (d5)     0.0000 -0.0008  0.0385 -0.0117 -0.0449  0.0000  0.0000  0.0000
  15.  P 1 (d2)    -0.0001  0.0000  0.0000  0.0000  0.0000 -0.0537  0.0314  0.0324
  16.  P 1 (d3)    -0.0002  0.0000  0.0000  0.0000  0.0000 -0.0314 -0.0537  0.0194
  17.  P 1 (d4)     0.0000  0.0000  0.0000  0.0000  0.0000  0.0000  0.0000  0.0000
  18.  P 1 (d1)     0.0000  0.0000  0.0000  0.0000  0.0000  0.0000  0.0000  0.0000
  19.  P 2 (s)      0.0000  0.0003  0.0489 -0.0494  0.0133  0.0000  0.0000  0.0000
  20.  P 2 (s)      0.0000 -0.0012 -0.2277  0.2307 -0.0680  0.0000  0.0000  0.0000
  21.  P 2 (px)    -0.4050  0.0000  0.0000  0.0000  0.0000 -0.1416  0.0828  0.1345
  22.  P 2 (py)    -0.5748  0.0000  0.0000  0.0000  0.0000 -0.0828 -0.1416  0.0808
  23.  P 2 (pz)     0.0000  0.7035 -0.0706 -0.0646  0.1873  0.0000  0.0000  0.0000
  24.  P 2 (s)      0.0000  0.0018  0.4549 -0.4897  0.1228  0.0000  0.0000  0.0000
  25.  P 2 (px)    -0.0082  0.0000  0.0000  0.0000  0.0000  0.3672 -0.2146 -0.3441
  26.  P 2 (py)    -0.0116  0.0000  0.0000  0.0000  0.0000  0.2146  0.3672 -0.2068
  27.  P 2 (pz)     0.0000  0.0144  0.1538  0.1676 -0.4912  0.0000  0.0000  0.0000
  28.  P 2 (s)      0.0000 -0.0023  0.1603 -0.3170  0.2380  0.0000  0.0000  0.0000
  29.  P 2 (px)     0.0024  0.0000  0.0000  0.0000  0.0000  0.2283 -0.1334 -0.5080
  30.  P 2 (py)     0.0035  0.0000  0.0000  0.0000  0.0000  0.1334  0.2283 -0.3053
  31.  P 2 (pz)     0.0000 -0.0039  0.0048  0.0448 -0.1828  0.0000  0.0000  0.0000
  32.  P 2 (d5)     0.0000  0.0008  0.0385  0.0117 -0.0449  0.0000  0.0000  0.0000
  33.  P 2 (d2)    -0.0001  0.0000  0.0000  0.0000  0.0000  0.0537 -0.0314  0.0324
  34.  P 2 (d3)    -0.0002  0.0000  0.0000  0.0000  0.0000  0.0314  0.0537  0.0194
  35.  P 2 (d4)     0.0000  0.0000  0.0000  0.0000  0.0000  0.0000  0.0000  0.0000
  36.  P 2 (d1)     0.0000  0.0000  0.0000  0.0000  0.0000  0.0000  0.0000  0.0000

           AO         17      18      19      20      21      22      23      24
      ------------ ------- ------- ------- ------- ------- ------- ------- -------
   1.  P 1 (s)      0.0000  0.0246  0.0332 -0.0356  0.0000  0.0000 -0.0317  0.0000
   2.  P 1 (s)      0.0000 -0.1337 -0.0072  0.0659  0.0000  0.0000 -0.0133  0.0000
   3.  P 1 (px)     0.0808  0.0000  0.0000  0.0000  0.1237 -0.1462  0.0000 -0.1057
   4.  P 1 (py)    -0.1345  0.0000  0.0000  0.0000 -0.1462 -0.1237  0.0000  0.1950
   5.  P 1 (pz)     0.0000  0.0830  0.0549  0.1296  0.0000  0.0000  0.1684  0.0000
   6.  P 1 (s)      0.0000  0.2165  0.9250 -0.7896  0.0000  0.0000 -0.9595  0.0000
   7.  P 1 (px)    -0.2068  0.0000  0.0000  0.0000 -0.5437  0.6428  0.0000  0.4540
   8.  P 1 (py)     0.3441  0.0000  0.0000  0.0000  0.6428  0.5437  0.0000 -0.8380
   9.  P 1 (pz)     0.0000 -0.2052 -0.3432 -0.5809  0.0000  0.0000 -0.7017  0.0000
  10.  P 1 (s)      0.0000  1.8666 -0.6975  0.8835  0.0000  0.0000  1.9695  0.0000
  11.  P 1 (px)    -0.3053  0.0000  0.0000  0.0000  0.4876 -0.5765  0.0000 -0.5662
  12.  P 1 (py)     0.5080  0.0000  0.0000  0.0000 -0.5765 -0.4876  0.0000  1.0451
  13.  P 1 (pz)     0.0000 -1.7100  0.6192  0.7374  0.0000  0.0000 -0.1944  0.0000
  14.  P 1 (d5)     0.0000 -0.0762  0.1829  0.0611  0.0000  0.0000 -0.1036  0.0000
  15.  P 1 (d2)    -0.0194  0.0000  0.0000  0.0000  0.0826 -0.0977  0.0000  0.0000
  16.  P 1 (d3)     0.0324  0.0000  0.0000  0.0000 -0.0977 -0.0826  0.0000  0.0000
  17.  P 1 (d4)     0.0000  0.0000  0.0000  0.0000  0.0000  0.0000  0.0000  0.0000
  18.  P 1 (d1)     0.0000  0.0000  0.0000  0.0000  0.0000  0.0000  0.0000  0.0000
  19.  P 2 (s)      0.0000 -0.0246  0.0332 -0.0356  0.0000  0.0000  0.0317  0.0000
  20.  P 2 (s)      0.0000  0.1337 -0.0072  0.0659  0.0000  0.0000  0.0133  0.0000
  21.  P 2 (px)    -0.0808  0.0000  0.0000  0.0000  0.1237 -0.1462  0.0000  0.1057
  22.  P 2 (py)     0.1345  0.0000  0.0000  0.0000 -0.1462 -0.1237  0.0000 -0.1950
  23.  P 2 (pz)     0.0000  0.0830 -0.0549 -0.1296  0.0000  0.0000  0.1684  0.0000
  24.  P 2 (s)      0.0000 -0.2165  0.9250 -0.7896  0.0000  0.0000  0.9595  0.0000
  25.  P 2 (px)     0.2068  0.0000  0.0000  0.0000 -0.5437  0.6428  0.0000 -0.4540
  26.  P 2 (py)    -0.3441  0.0000  0.0000  0.0000  0.6428  0.5437  0.0000  0.8380
  27.  P 2 (pz)     0.0000 -0.2052  0.3432  0.5809  0.0000  0.0000 -0.7017  0.0000
  28.  P 2 (s)      0.0000 -1.8666 -0.6975  0.8835  0.0000  0.0000 -1.9695  0.0000
  29.  P 2 (px)     0.3053  0.0000  0.0000  0.0000  0.4876 -0.5765  0.0000  0.5662
  30.  P 2 (py)    -0.5080  0.0000  0.0000  0.0000 -0.5765 -0.4876  0.0000 -1.0451
  31.  P 2 (pz)     0.0000 -1.7100 -0.6192 -0.7374  0.0000  0.0000 -0.1944  0.0000
  32.  P 2 (d5)     0.0000  0.0762  0.1829  0.0611  0.0000  0.0000  0.1036  0.0000
  33.  P 2 (d2)    -0.0194  0.0000  0.0000  0.0000 -0.0826  0.0977  0.0000  0.0000
  34.  P 2 (d3)     0.0324  0.0000  0.0000  0.0000  0.0977  0.0826  0.0000  0.0000
  35.  P 2 (d4)     0.0000  0.0000  0.0000  0.0000  0.0000  0.0000  0.0000  0.0000
  36.  P 2 (d1)     0.0000  0.0000  0.0000  0.0000  0.0000  0.0000  0.0000  0.0000

           AO         25      26      27      28      29      30      31      32
      ------------ ------- ------- ------- ------- ------- ------- ------- -------
   1.  P 1 (s)      0.0000 -0.0454  0.0000  0.0000  0.0000  0.0000  0.0000  0.0000
   2.  P 1 (s)      0.0000 -0.0003  0.0000  0.0000  0.0000  0.0000  0.0000  0.0000
   3.  P 1 (px)     0.1950  0.0000 -0.0348 -0.0614  0.0000  0.0000  0.0000  0.0000
   4.  P 1 (py)     0.1057  0.0000 -0.0614  0.0348  0.0000  0.0000  0.0000  0.0000
   5.  P 1 (pz)     0.0000 -0.1812  0.0000  0.0000  0.0000  0.0000  0.0000  0.0000
   6.  P 1 (s)      0.0000 -1.3056  0.0000  0.0000  0.0000  0.0000  0.0000  0.0000
   7.  P 1 (px)    -0.8380  0.0000  0.1324  0.2334  0.0000  0.0000  0.0000  0.0000
   8.  P 1 (py)    -0.4540  0.0000  0.2334 -0.1324  0.0000  0.0000  0.0000  0.0000
   9.  P 1 (pz)     0.0000  0.7601  0.0000  0.0000  0.0000  0.0000  0.0000  0.0000
  10.  P 1 (s)      0.0000  3.9844  0.0000  0.0000  0.0000  0.0000  0.0000  0.0000
  11.  P 1 (px)     1.0451  0.0000 -0.0522 -0.0921  0.0000  0.0000  0.0000  0.0000
  12.  P 1 (py)     0.5662  0.0000 -0.0921  0.0522  0.0000  0.0000  0.0000  0.0000
  13.  P 1 (pz)     0.0000 -2.3789  0.0000  0.0000  0.0000  0.0000  0.0000  0.0000
  14.  P 1 (d5)     0.0000  0.1316  0.0000  0.0000  0.0000  0.0000  0.0000  0.0000
  15.  P 1 (d2)     0.0000  0.0000  0.3179  0.5604  0.0000  0.0000  0.0000  0.0000
  16.  P 1 (d3)     0.0000  0.0000  0.5604 -0.3179  0.0000  0.0000  0.0000  0.0000
  17.  P 1 (d4)     0.0000  0.0000  0.0000  0.0000  0.6709  0.1935  0.6720  0.2480
  18.  P 1 (d1)     0.0000  0.0000  0.0000  0.0000 -0.1935  0.6709 -0.2480  0.6720
  19.  P 2 (s)      0.0000  0.0454  0.0000  0.0000  0.0000  0.0000  0.0000  0.0000
  20.  P 2 (s)      0.0000  0.0003  0.0000  0.0000  0.0000  0.0000  0.0000  0.0000
  21.  P 2 (px)    -0.1950  0.0000 -0.0348 -0.0614  0.0000  0.0000  0.0000  0.0000
  22.  P 2 (py)    -0.1057  0.0000 -0.0614  0.0348  0.0000  0.0000  0.0000  0.0000
  23.  P 2 (pz)     0.0000 -0.1812  0.0000  0.0000  0.0000  0.0000  0.0000  0.0000
  24.  P 2 (s)      0.0000  1.3056  0.0000  0.0000  0.0000  0.0000  0.0000  0.0000
  25.  P 2 (px)     0.8380  0.0000  0.1324  0.2334  0.0000  0.0000  0.0000  0.0000
  26.  P 2 (py)     0.4540  0.0000  0.2334 -0.1324  0.0000  0.0000  0.0000  0.0000
  27.  P 2 (pz)     0.0000  0.7601  0.0000  0.0000  0.0000  0.0000  0.0000  0.0000
  28.  P 2 (s)      0.0000 -3.9844  0.0000  0.0000  0.0000  0.0000  0.0000  0.0000
  29.  P 2 (px)    -1.0451  0.0000 -0.0522 -0.0921  0.0000  0.0000  0.0000  0.0000
  30.  P 2 (py)    -0.5662  0.0000 -0.0921  0.0522  0.0000  0.0000  0.0000  0.0000
  31.  P 2 (pz)     0.0000 -2.3789  0.0000  0.0000  0.0000  0.0000  0.0000  0.0000
  32.  P 2 (d5)     0.0000 -0.1316  0.0000  0.0000  0.0000  0.0000  0.0000  0.0000
  33.  P 2 (d2)     0.0000  0.0000 -0.3179 -0.5604  0.0000  0.0000  0.0000  0.0000
  34.  P 2 (d3)     0.0000  0.0000 -0.5604  0.3179  0.0000  0.0000  0.0000  0.0000
  35.  P 2 (d4)     0.0000  0.0000  0.0000  0.0000  0.6709  0.1935 -0.6720 -0.2480
  36.  P 2 (d1)     0.0000  0.0000  0.0000  0.0000 -0.1935  0.6709  0.2480 -0.6720

           AO         33      34      35      36
      ------------ ------- ------- ------- -------
   1.  P 1 (s)     -0.0176  0.0000  0.0000  0.0134
   2.  P 1 (s)      0.0138  0.0000  0.0000 -0.1057
   3.  P 1 (px)     0.0000 -0.0096  0.0184  0.0000
   4.  P 1 (py)     0.0000  0.0184  0.0096  0.0000
   5.  P 1 (pz)    -0.0899  0.0000  0.0000  0.1471
   6.  P 1 (s)     -0.4725  0.0000  0.0000  0.0499
   7.  P 1 (px)     0.0000  0.0214 -0.0413  0.0000
   8.  P 1 (py)     0.0000 -0.0413 -0.0214  0.0000
   9.  P 1 (pz)     0.4638  0.0000  0.0000 -0.6742
  10.  P 1 (s)      0.2348  0.0000  0.0000  1.3429
  11.  P 1 (px)     0.0000  0.0919 -0.1771  0.0000
  12.  P 1 (py)     0.0000 -0.1771 -0.0919  0.0000
  13.  P 1 (pz)    -0.4878  0.0000  0.0000 -0.6570
  14.  P 1 (d5)     0.6400  0.0000  0.0000  0.9511
  15.  P 1 (d2)     0.0000 -0.3619  0.6973  0.0000
  16.  P 1 (d3)     0.0000  0.6973  0.3619  0.0000
  17.  P 1 (d4)     0.0000  0.0000  0.0000  0.0000
  18.  P 1 (d1)     0.0000  0.0000  0.0000  0.0000
  19.  P 2 (s)     -0.0176  0.0000  0.0000 -0.0134
  20.  P 2 (s)      0.0138  0.0000  0.0000  0.1057
  21.  P 2 (px)     0.0000  0.0096 -0.0184  0.0000
  22.  P 2 (py)     0.0000 -0.0184 -0.0096  0.0000
  23.  P 2 (pz)     0.0899  0.0000  0.0000  0.1471
  24.  P 2 (s)     -0.4725  0.0000  0.0000 -0.0499
  25.  P 2 (px)     0.0000 -0.0214  0.0413  0.0000
  26.  P 2 (py)     0.0000  0.0413  0.0214  0.0000
  27.  P 2 (pz)    -0.4638  0.0000  0.0000 -0.6742
  28.  P 2 (s)      0.2348  0.0000  0.0000 -1.3429
  29.  P 2 (px)     0.0000 -0.0919  0.1771  0.0000
  30.  P 2 (py)     0.0000  0.1771  0.0919  0.0000
  31.  P 2 (pz)     0.4878  0.0000  0.0000 -0.6570
  32.  P 2 (d5)     0.6400  0.0000  0.0000 -0.9511
  33.  P 2 (d2)     0.0000 -0.3619  0.6973  0.0000
  34.  P 2 (d3)     0.0000  0.6973  0.3619  0.0000
  35.  P 2 (d4)     0.0000  0.0000  0.0000  0.0000
  36.  P 2 (d1)     0.0000  0.0000  0.0000  0.0000


 AO overlap matrix:

           AO          1       2       3       4       5       6       7       8
      ------------ ------- ------- ------- ------- ------- ------- ------- -------
   1.  P 1 (s)      1.0000  0.2575  0.0000  0.0000  0.0000  0.0061  0.0000  0.0000
   2.  P 1 (s)      0.2575  1.0000  0.0000  0.0000  0.0000  0.3043  0.0000  0.0000
   3.  P 1 (px)     0.0000  0.0000  1.0000  0.0000  0.0000  0.0000  0.2976  0.0000
   4.  P 1 (py)     0.0000  0.0000  0.0000  1.0000  0.0000  0.0000  0.0000  0.2976
   5.  P 1 (pz)     0.0000  0.0000  0.0000  0.0000  1.0000  0.0000  0.0000  0.0000
   6.  P 1 (s)      0.0061  0.3043  0.0000  0.0000  0.0000  1.0000  0.0000  0.0000
   7.  P 1 (px)     0.0000  0.0000  0.2976  0.0000  0.0000  0.0000  1.0000  0.0000
   8.  P 1 (py)     0.0000  0.0000  0.0000  0.2976  0.0000  0.0000  0.0000  1.0000
   9.  P 1 (pz)     0.0000  0.0000  0.0000  0.0000  0.2976  0.0000  0.0000  0.0000
  10.  P 1 (s)      0.0317  0.2529  0.0000  0.0000  0.0000  0.8398  0.0000  0.0000
  11.  P 1 (px)     0.0000  0.0000  0.0733  0.0000  0.0000  0.0000  0.6567  0.0000
  12.  P 1 (py)     0.0000  0.0000  0.0000  0.0733  0.0000  0.0000  0.0000  0.6567
  13.  P 1 (pz)     0.0000  0.0000  0.0000  0.0000  0.0733  0.0000  0.0000  0.0000
  14.  P 1 (d5)     0.0000  0.0000  0.0000  0.0000  0.0000  0.0000  0.0000  0.0000
  15.  P 1 (d2)     0.0000  0.0000  0.0000  0.0000  0.0000  0.0000  0.0000  0.0000
  16.  P 1 (d3)     0.0000  0.0000  0.0000  0.0000  0.0000  0.0000  0.0000  0.0000
  17.  P 1 (d4)     0.0000  0.0000  0.0000  0.0000  0.0000  0.0000  0.0000  0.0000
  18.  P 1 (d1)     0.0000  0.0000  0.0000  0.0000  0.0000  0.0000  0.0000  0.0000
  19.  P 2 (s)      0.0000  0.0000  0.0000  0.0000  0.0000  0.0018  0.0000  0.0000
  20.  P 2 (s)      0.0000  0.0000  0.0000  0.0000  0.0000  0.0193  0.0000  0.0000
  21.  P 2 (px)     0.0000  0.0000  0.0000  0.0000  0.0000  0.0000  0.0063  0.0000
  22.  P 2 (py)     0.0000  0.0000  0.0000  0.0000  0.0000  0.0000  0.0000  0.0063
  23.  P 2 (pz)     0.0000  0.0000  0.0000  0.0000 -0.0001  0.0167  0.0000  0.0000
  24.  P 2 (s)      0.0018  0.0193  0.0000  0.0000 -0.0167  0.1709  0.0000  0.0000
  25.  P 2 (px)     0.0000  0.0000  0.0063  0.0000  0.0000  0.0000  0.1145  0.0000
  26.  P 2 (py)     0.0000  0.0000  0.0000  0.0063  0.0000  0.0000  0.0000  0.1145
  27.  P 2 (pz)     0.0049  0.0482  0.0000  0.0000 -0.0362  0.2690  0.0000  0.0000
  28.  P 2 (s)      0.0084  0.0711  0.0000  0.0000 -0.0237  0.3190  0.0000  0.0000
  29.  P 2 (px)     0.0000  0.0000  0.0206  0.0000  0.0000  0.0000  0.2397  0.0000
  30.  P 2 (py)     0.0000  0.0000  0.0000  0.0206  0.0000  0.0000  0.0000  0.2397
  31.  P 2 (pz)     0.0194  0.1563  0.0000  0.0000 -0.0317  0.5367  0.0000  0.0000
  32.  P 2 (d5)     0.0014  0.0223  0.0000  0.0000 -0.0272  0.1583  0.0000  0.0000
  33.  P 2 (d2)     0.0000  0.0000  0.0050  0.0000  0.0000  0.0000  0.1164  0.0000
  34.  P 2 (d3)     0.0000  0.0000  0.0000  0.0050  0.0000  0.0000  0.0000  0.1164
  35.  P 2 (d4)     0.0000  0.0000  0.0000  0.0000  0.0000  0.0000  0.0000  0.0000
  36.  P 2 (d1)     0.0000  0.0000  0.0000  0.0000  0.0000  0.0000  0.0000  0.0000

           AO          9      10      11      12      13      14      15      16
      ------------ ------- ------- ------- ------- ------- ------- ------- -------
   1.  P 1 (s)      0.0000  0.0317  0.0000  0.0000  0.0000  0.0000  0.0000  0.0000
   2.  P 1 (s)      0.0000  0.2529  0.0000  0.0000  0.0000  0.0000  0.0000  0.0000
   3.  P 1 (px)     0.0000  0.0000  0.0733  0.0000  0.0000  0.0000  0.0000  0.0000
   4.  P 1 (py)     0.0000  0.0000  0.0000  0.0733  0.0000  0.0000  0.0000  0.0000
   5.  P 1 (pz)     0.2976  0.0000  0.0000  0.0000  0.0733  0.0000  0.0000  0.0000
   6.  P 1 (s)      0.0000  0.8398  0.0000  0.0000  0.0000  0.0000  0.0000  0.0000
   7.  P 1 (px)     0.0000  0.0000  0.6567  0.0000  0.0000  0.0000  0.0000  0.0000
   8.  P 1 (py)     0.0000  0.0000  0.0000  0.6567  0.0000  0.0000  0.0000  0.0000
   9.  P 1 (pz)     1.0000  0.0000  0.0000  0.0000  0.6567  0.0000  0.0000  0.0000
  10.  P 1 (s)      0.0000  1.0000  0.0000  0.0000  0.0000  0.0000  0.0000  0.0000
  11.  P 1 (px)     0.0000  0.0000  1.0000  0.0000  0.0000  0.0000  0.0000  0.0000
  12.  P 1 (py)     0.0000  0.0000  0.0000  1.0000  0.0000  0.0000  0.0000  0.0000
  13.  P 1 (pz)     0.6567  0.0000  0.0000  0.0000  1.0000  0.0000  0.0000  0.0000
  14.  P 1 (d5)     0.0000  0.0000  0.0000  0.0000  0.0000  1.0000  0.0000  0.0000
  15.  P 1 (d2)     0.0000  0.0000  0.0000  0.0000  0.0000  0.0000  1.0000  0.0000
  16.  P 1 (d3)     0.0000  0.0000  0.0000  0.0000  0.0000  0.0000  0.0000  1.0000
  17.  P 1 (d4)     0.0000  0.0000  0.0000  0.0000  0.0000  0.0000  0.0000  0.0000
  18.  P 1 (d1)     0.0000  0.0000  0.0000  0.0000  0.0000  0.0000  0.0000  0.0000
  19.  P 2 (s)     -0.0049  0.0084  0.0000  0.0000 -0.0194  0.0014  0.0000  0.0000
  20.  P 2 (s)     -0.0482  0.0711  0.0000  0.0000 -0.1563  0.0223  0.0000  0.0000
  21.  P 2 (px)     0.0000  0.0000  0.0206  0.0000  0.0000  0.0000 -0.0050  0.0000
  22.  P 2 (py)     0.0000  0.0000  0.0000  0.0206  0.0000  0.0000  0.0000 -0.0050
  23.  P 2 (pz)    -0.0362  0.0237  0.0000  0.0000 -0.0317  0.0272  0.0000  0.0000
  24.  P 2 (s)     -0.2690  0.3190  0.0000  0.0000 -0.5367  0.1583  0.0000  0.0000
  25.  P 2 (px)     0.0000  0.0000  0.2397  0.0000  0.0000  0.0000 -0.1164  0.0000
  26.  P 2 (py)     0.0000  0.0000  0.0000  0.2397  0.0000  0.0000  0.0000 -0.1164
  27.  P 2 (pz)    -0.3556  0.2766  0.0000  0.0000 -0.2425  0.2244  0.0000  0.0000
  28.  P 2 (s)     -0.2766  0.5140  0.0000  0.0000 -0.5930  0.0793  0.0000  0.0000
  29.  P 2 (px)     0.0000  0.0000  0.5140  0.0000  0.0000  0.0000 -0.1191  0.0000
  30.  P 2 (py)     0.0000  0.0000  0.0000  0.5140  0.0000  0.0000  0.0000 -0.1191
  31.  P 2 (pz)    -0.2425  0.5930  0.0000  0.0000 -0.1702  0.0174  0.0000  0.0000
  32.  P 2 (d5)    -0.2244  0.0793  0.0000  0.0000 -0.0174  0.2338  0.0000  0.0000
  33.  P 2 (d2)     0.0000  0.0000  0.1191  0.0000  0.0000  0.0000 -0.1619  0.0000
  34.  P 2 (d3)     0.0000  0.0000  0.0000  0.1191  0.0000  0.0000  0.0000 -0.1619
  35.  P 2 (d4)     0.0000  0.0000  0.0000  0.0000  0.0000  0.0000  0.0000  0.0000
  36.  P 2 (d1)     0.0000  0.0000  0.0000  0.0000  0.0000  0.0000  0.0000  0.0000

           AO         17      18      19      20      21      22      23      24
      ------------ ------- ------- ------- ------- ------- ------- ------- -------
   1.  P 1 (s)      0.0000  0.0000  0.0000  0.0000  0.0000  0.0000  0.0000  0.0018
   2.  P 1 (s)      0.0000  0.0000  0.0000  0.0000  0.0000  0.0000  0.0000  0.0193
   3.  P 1 (px)     0.0000  0.0000  0.0000  0.0000  0.0000  0.0000  0.0000  0.0000
   4.  P 1 (py)     0.0000  0.0000  0.0000  0.0000  0.0000  0.0000  0.0000  0.0000
   5.  P 1 (pz)     0.0000  0.0000  0.0000  0.0000  0.0000  0.0000 -0.0001 -0.0167
   6.  P 1 (s)      0.0000  0.0000  0.0018  0.0193  0.0000  0.0000  0.0167  0.1709
   7.  P 1 (px)     0.0000  0.0000  0.0000  0.0000  0.0063  0.0000  0.0000  0.0000
   8.  P 1 (py)     0.0000  0.0000  0.0000  0.0000  0.0000  0.0063  0.0000  0.0000
   9.  P 1 (pz)     0.0000  0.0000 -0.0049 -0.0482  0.0000  0.0000 -0.0362 -0.2690
  10.  P 1 (s)      0.0000  0.0000  0.0084  0.0711  0.0000  0.0000  0.0237  0.3190
  11.  P 1 (px)     0.0000  0.0000  0.0000  0.0000  0.0206  0.0000  0.0000  0.0000
  12.  P 1 (py)     0.0000  0.0000  0.0000  0.0000  0.0000  0.0206  0.0000  0.0000
  13.  P 1 (pz)     0.0000  0.0000 -0.0194 -0.1563  0.0000  0.0000 -0.0317 -0.5367
  14.  P 1 (d5)     0.0000  0.0000  0.0014  0.0223  0.0000  0.0000  0.0272  0.1583
  15.  P 1 (d2)     0.0000  0.0000  0.0000  0.0000 -0.0050  0.0000  0.0000  0.0000
  16.  P 1 (d3)     0.0000  0.0000  0.0000  0.0000  0.0000 -0.0050  0.0000  0.0000
  17.  P 1 (d4)     1.0000  0.0000  0.0000  0.0000  0.0000  0.0000  0.0000  0.0000
  18.  P 1 (d1)     0.0000  1.0000  0.0000  0.0000  0.0000  0.0000  0.0000  0.0000
  19.  P 2 (s)      0.0000  0.0000  1.0000  0.2575  0.0000  0.0000  0.0000  0.0061
  20.  P 2 (s)      0.0000  0.0000  0.2575  1.0000  0.0000  0.0000  0.0000  0.3043
  21.  P 2 (px)     0.0000  0.0000  0.0000  0.0000  1.0000  0.0000  0.0000  0.0000
  22.  P 2 (py)     0.0000  0.0000  0.0000  0.0000  0.0000  1.0000  0.0000  0.0000
  23.  P 2 (pz)     0.0000  0.0000  0.0000  0.0000  0.0000  0.0000  1.0000  0.0000
  24.  P 2 (s)      0.0000  0.0000  0.0061  0.3043  0.0000  0.0000  0.0000  1.0000
  25.  P 2 (px)     0.0000  0.0000  0.0000  0.0000  0.2976  0.0000  0.0000  0.0000
  26.  P 2 (py)     0.0000  0.0000  0.0000  0.0000  0.0000  0.2976  0.0000  0.0000
  27.  P 2 (pz)     0.0000  0.0000  0.0000  0.0000  0.0000  0.0000  0.2976  0.0000
  28.  P 2 (s)      0.0000  0.0000  0.0317  0.2529  0.0000  0.0000  0.0000  0.8398
  29.  P 2 (px)     0.0000  0.0000  0.0000  0.0000  0.0733  0.0000  0.0000  0.0000
  30.  P 2 (py)     0.0000  0.0000  0.0000  0.0000  0.0000  0.0733  0.0000  0.0000
  31.  P 2 (pz)     0.0000  0.0000  0.0000  0.0000  0.0000  0.0000  0.0733  0.0000
  32.  P 2 (d5)     0.0000  0.0000  0.0000  0.0000  0.0000  0.0000  0.0000  0.0000
  33.  P 2 (d2)     0.0000  0.0000  0.0000  0.0000  0.0000  0.0000  0.0000  0.0000
  34.  P 2 (d3)     0.0000  0.0000  0.0000  0.0000  0.0000  0.0000  0.0000  0.0000
  35.  P 2 (d4)     0.0256  0.0000  0.0000  0.0000  0.0000  0.0000  0.0000  0.0000
  36.  P 2 (d1)     0.0000  0.0256  0.0000  0.0000  0.0000  0.0000  0.0000  0.0000

           AO         25      26      27      28      29      30      31      32
      ------------ ------- ------- ------- ------- ------- ------- ------- -------
   1.  P 1 (s)      0.0000  0.0000  0.0049  0.0084  0.0000  0.0000  0.0194  0.0014
   2.  P 1 (s)      0.0000  0.0000  0.0482  0.0711  0.0000  0.0000  0.1563  0.0223
   3.  P 1 (px)     0.0063  0.0000  0.0000  0.0000  0.0206  0.0000  0.0000  0.0000
   4.  P 1 (py)     0.0000  0.0063  0.0000  0.0000  0.0000  0.0206  0.0000  0.0000
   5.  P 1 (pz)     0.0000  0.0000 -0.0362 -0.0237  0.0000  0.0000 -0.0317 -0.0272
   6.  P 1 (s)      0.0000  0.0000  0.2690  0.3190  0.0000  0.0000  0.5367  0.1583
   7.  P 1 (px)     0.1145  0.0000  0.0000  0.0000  0.2397  0.0000  0.0000  0.0000
   8.  P 1 (py)     0.0000  0.1145  0.0000  0.0000  0.0000  0.2397  0.0000  0.0000
   9.  P 1 (pz)     0.0000  0.0000 -0.3556 -0.2766  0.0000  0.0000 -0.2425 -0.2244
  10.  P 1 (s)      0.0000  0.0000  0.2766  0.5140  0.0000  0.0000  0.5930  0.0793
  11.  P 1 (px)     0.2397  0.0000  0.0000  0.0000  0.5140  0.0000  0.0000  0.0000
  12.  P 1 (py)     0.0000  0.2397  0.0000  0.0000  0.0000  0.5140  0.0000  0.0000
  13.  P 1 (pz)     0.0000  0.0000 -0.2425 -0.5930  0.0000  0.0000 -0.1702 -0.0174
  14.  P 1 (d5)     0.0000  0.0000  0.2244  0.0793  0.0000  0.0000  0.0174  0.2338
  15.  P 1 (d2)    -0.1164  0.0000  0.0000  0.0000 -0.1191  0.0000  0.0000  0.0000
  16.  P 1 (d3)     0.0000 -0.1164  0.0000  0.0000  0.0000 -0.1191  0.0000  0.0000
  17.  P 1 (d4)     0.0000  0.0000  0.0000  0.0000  0.0000  0.0000  0.0000  0.0000
  18.  P 1 (d1)     0.0000  0.0000  0.0000  0.0000  0.0000  0.0000  0.0000  0.0000
  19.  P 2 (s)      0.0000  0.0000  0.0000  0.0317  0.0000  0.0000  0.0000  0.0000
  20.  P 2 (s)      0.0000  0.0000  0.0000  0.2529  0.0000  0.0000  0.0000  0.0000
  21.  P 2 (px)     0.2976  0.0000  0.0000  0.0000  0.0733  0.0000  0.0000  0.0000
  22.  P 2 (py)     0.0000  0.2976  0.0000  0.0000  0.0000  0.0733  0.0000  0.0000
  23.  P 2 (pz)     0.0000  0.0000  0.2976  0.0000  0.0000  0.0000  0.0733  0.0000
  24.  P 2 (s)      0.0000  0.0000  0.0000  0.8398  0.0000  0.0000  0.0000  0.0000
  25.  P 2 (px)     1.0000  0.0000  0.0000  0.0000  0.6567  0.0000  0.0000  0.0000
  26.  P 2 (py)     0.0000  1.0000  0.0000  0.0000  0.0000  0.6567  0.0000  0.0000
  27.  P 2 (pz)     0.0000  0.0000  1.0000  0.0000  0.0000  0.0000  0.6567  0.0000
  28.  P 2 (s)      0.0000  0.0000  0.0000  1.0000  0.0000  0.0000  0.0000  0.0000
  29.  P 2 (px)     0.6567  0.0000  0.0000  0.0000  1.0000  0.0000  0.0000  0.0000
  30.  P 2 (py)     0.0000  0.6567  0.0000  0.0000  0.0000  1.0000  0.0000  0.0000
  31.  P 2 (pz)     0.0000  0.0000  0.6567  0.0000  0.0000  0.0000  1.0000  0.0000
  32.  P 2 (d5)     0.0000  0.0000  0.0000  0.0000  0.0000  0.0000  0.0000  1.0000
  33.  P 2 (d2)     0.0000  0.0000  0.0000  0.0000  0.0000  0.0000  0.0000  0.0000
  34.  P 2 (d3)     0.0000  0.0000  0.0000  0.0000  0.0000  0.0000  0.0000  0.0000
  35.  P 2 (d4)     0.0000  0.0000  0.0000  0.0000  0.0000  0.0000  0.0000  0.0000
  36.  P 2 (d1)     0.0000  0.0000  0.0000  0.0000  0.0000  0.0000  0.0000  0.0000

           AO         33      34      35      36
      ------------ ------- ------- ------- -------
   1.  P 1 (s)      0.0000  0.0000  0.0000  0.0000
   2.  P 1 (s)      0.0000  0.0000  0.0000  0.0000
   3.  P 1 (px)     0.0050  0.0000  0.0000  0.0000
   4.  P 1 (py)     0.0000  0.0050  0.0000  0.0000
   5.  P 1 (pz)     0.0000  0.0000  0.0000  0.0000
   6.  P 1 (s)      0.0000  0.0000  0.0000  0.0000
   7.  P 1 (px)     0.1164  0.0000  0.0000  0.0000
   8.  P 1 (py)     0.0000  0.1164  0.0000  0.0000
   9.  P 1 (pz)     0.0000  0.0000  0.0000  0.0000
  10.  P 1 (s)      0.0000  0.0000  0.0000  0.0000
  11.  P 1 (px)     0.1191  0.0000  0.0000  0.0000
  12.  P 1 (py)     0.0000  0.1191  0.0000  0.0000
  13.  P 1 (pz)     0.0000  0.0000  0.0000  0.0000
  14.  P 1 (d5)     0.0000  0.0000  0.0000  0.0000
  15.  P 1 (d2)    -0.1619  0.0000  0.0000  0.0000
  16.  P 1 (d3)     0.0000 -0.1619  0.0000  0.0000
  17.  P 1 (d4)     0.0000  0.0000  0.0256  0.0000
  18.  P 1 (d1)     0.0000  0.0000  0.0000  0.0256
  19.  P 2 (s)      0.0000  0.0000  0.0000  0.0000
  20.  P 2 (s)      0.0000  0.0000  0.0000  0.0000
  21.  P 2 (px)     0.0000  0.0000  0.0000  0.0000
  22.  P 2 (py)     0.0000  0.0000  0.0000  0.0000
  23.  P 2 (pz)     0.0000  0.0000  0.0000  0.0000
  24.  P 2 (s)      0.0000  0.0000  0.0000  0.0000
  25.  P 2 (px)     0.0000  0.0000  0.0000  0.0000
  26.  P 2 (py)     0.0000  0.0000  0.0000  0.0000
  27.  P 2 (pz)     0.0000  0.0000  0.0000  0.0000
  28.  P 2 (s)      0.0000  0.0000  0.0000  0.0000
  29.  P 2 (px)     0.0000  0.0000  0.0000  0.0000
  30.  P 2 (py)     0.0000  0.0000  0.0000  0.0000
  31.  P 2 (pz)     0.0000  0.0000  0.0000  0.0000
  32.  P 2 (d5)     0.0000  0.0000  0.0000  0.0000
  33.  P 2 (d2)     1.0000  0.0000  0.0000  0.0000
  34.  P 2 (d3)     0.0000  1.0000  0.0000  0.0000
  35.  P 2 (d4)     0.0000  0.0000  1.0000  0.0000
  36.  P 2 (d1)     0.0000  0.0000  0.0000  1.0000


 AO bond-order matrix:

           AO          1       2       3       4       5       6       7       8
      ------------ ------- ------- ------- ------- ------- ------- ------- -------
   1.  P 1 (s)      2.1500 -0.5931  0.0000  0.0000 -0.0050  0.0806  0.0000  0.0000
   2.  P 1 (s)     -0.5931  2.3467  0.0000  0.0000  0.0247 -0.4204  0.0000  0.0000
   3.  P 1 (px)     0.0000  0.0000  2.0314  0.0000  0.0000  0.0000 -0.1004  0.0000
   4.  P 1 (py)     0.0000  0.0000  0.0000  2.0314  0.0000  0.0000  0.0000 -0.1004
   5.  P 1 (pz)    -0.0050  0.0247  0.0000  0.0000  2.0661 -0.0491  0.0000  0.0000
   6.  P 1 (s)      0.0806 -0.4204  0.0000  0.0000 -0.0491  0.9241  0.0000  0.0000
   7.  P 1 (px)     0.0000  0.0000 -0.1004  0.0000  0.0000  0.0000  0.3626  0.0000
   8.  P 1 (py)     0.0000  0.0000  0.0000 -0.1004  0.0000  0.0000  0.0000  0.3626
   9.  P 1 (pz)     0.0158 -0.0759  0.0000  0.0000 -0.1884  0.1447  0.0000  0.0000
  10.  P 1 (s)      0.0623 -0.2636  0.0000  0.0000 -0.1049  0.5146  0.0000  0.0000
  11.  P 1 (px)     0.0000  0.0000 -0.0969  0.0000  0.0000  0.0000  0.2248  0.0000
  12.  P 1 (py)     0.0000  0.0000  0.0000 -0.0969  0.0000  0.0000  0.0000  0.2248
  13.  P 1 (pz)     0.0063 -0.0398  0.0000  0.0000 -0.0851  0.0845  0.0000  0.0000
  14.  P 1 (d5)     0.0012 -0.0059  0.0000  0.0000  0.0220  0.0125  0.0000  0.0000
  15.  P 1 (d2)     0.0000  0.0000  0.0203  0.0000  0.0000  0.0000 -0.0529  0.0000
  16.  P 1 (d3)     0.0000  0.0000  0.0000  0.0203  0.0000  0.0000  0.0000 -0.0529
  17.  P 1 (d4)     0.0000  0.0000  0.0000  0.0000  0.0000  0.0000  0.0000  0.0000
  18.  P 1 (d1)     0.0000  0.0000  0.0000  0.0000  0.0000  0.0000  0.0000  0.0000
  19.  P 2 (s)      0.0003 -0.0012  0.0000  0.0000  0.0082  0.0005  0.0000  0.0000
  20.  P 2 (s)     -0.0012  0.0056  0.0000  0.0000 -0.0351  0.0012  0.0000  0.0000
  21.  P 2 (px)     0.0000  0.0000  0.0539  0.0000  0.0000  0.0000 -0.1402  0.0000
  22.  P 2 (py)     0.0000  0.0000  0.0000  0.0539  0.0000  0.0000  0.0000 -0.1402
  23.  P 2 (pz)    -0.0082  0.0351  0.0000  0.0000 -0.0699 -0.0826  0.0000  0.0000
  24.  P 2 (s)      0.0005  0.0012  0.0000  0.0000  0.0826 -0.0356  0.0000  0.0000
  25.  P 2 (px)     0.0000  0.0000 -0.1402  0.0000  0.0000  0.0000  0.3618  0.0000
  26.  P 2 (py)     0.0000  0.0000  0.0000 -0.1402  0.0000  0.0000  0.0000  0.3618
  27.  P 2 (pz)     0.0193 -0.0807  0.0000  0.0000  0.1855  0.1834  0.0000  0.0000
  28.  P 2 (s)     -0.0135  0.0466  0.0000  0.0000 -0.0294 -0.1060  0.0000  0.0000
  29.  P 2 (px)     0.0000  0.0000 -0.0850  0.0000  0.0000  0.0000  0.2250  0.0000
  30.  P 2 (py)     0.0000  0.0000  0.0000 -0.0850  0.0000  0.0000  0.0000  0.2250
  31.  P 2 (pz)    -0.0021  0.0047  0.0000  0.0000  0.0625  0.0034  0.0000  0.0000
  32.  P 2 (d5)     0.0044 -0.0169  0.0000  0.0000  0.0211  0.0355  0.0000  0.0000
  33.  P 2 (d2)     0.0000  0.0000 -0.0208  0.0000  0.0000  0.0000  0.0529  0.0000
  34.  P 2 (d3)     0.0000  0.0000  0.0000 -0.0208  0.0000  0.0000  0.0000  0.0529
  35.  P 2 (d4)     0.0000  0.0000  0.0000  0.0000  0.0000  0.0000  0.0000  0.0000
  36.  P 2 (d1)     0.0000  0.0000  0.0000  0.0000  0.0000  0.0000  0.0000  0.0000

           AO          9      10      11      12      13      14      15      16
      ------------ ------- ------- ------- ------- ------- ------- ------- -------
   1.  P 1 (s)      0.0158  0.0623  0.0000  0.0000  0.0063  0.0012  0.0000  0.0000
   2.  P 1 (s)     -0.0759 -0.2636  0.0000  0.0000 -0.0398 -0.0059  0.0000  0.0000
   3.  P 1 (px)     0.0000  0.0000 -0.0969  0.0000  0.0000  0.0000  0.0203  0.0000
   4.  P 1 (py)     0.0000  0.0000  0.0000 -0.0969  0.0000  0.0000  0.0000  0.0203
   5.  P 1 (pz)    -0.1884 -0.1049  0.0000  0.0000 -0.0851  0.0220  0.0000  0.0000
   6.  P 1 (s)      0.1447  0.5146  0.0000  0.0000  0.0845  0.0125  0.0000  0.0000
   7.  P 1 (px)     0.0000  0.0000  0.2248  0.0000  0.0000  0.0000 -0.0529  0.0000
   8.  P 1 (py)     0.0000  0.0000  0.0000  0.2248  0.0000  0.0000  0.0000 -0.0529
   9.  P 1 (pz)     0.5868  0.2907  0.0000  0.0000  0.1959 -0.0600  0.0000  0.0000
  10.  P 1 (s)      0.2907  0.3658  0.0000  0.0000  0.1138 -0.0165  0.0000  0.0000
  11.  P 1 (px)     0.0000  0.0000  0.1399  0.0000  0.0000  0.0000 -0.0329  0.0000
  12.  P 1 (py)     0.0000  0.0000  0.0000  0.1399  0.0000  0.0000  0.0000 -0.0329
  13.  P 1 (pz)     0.1959  0.1138  0.0000  0.0000  0.0710 -0.0178  0.0000  0.0000
  14.  P 1 (d5)    -0.0600 -0.0165  0.0000  0.0000 -0.0178  0.0073  0.0000  0.0000
  15.  P 1 (d2)     0.0000  0.0000 -0.0329  0.0000  0.0000  0.0000  0.0077  0.0000
  16.  P 1 (d3)     0.0000  0.0000  0.0000 -0.0329  0.0000  0.0000  0.0000  0.0077
  17.  P 1 (d4)     0.0000  0.0000  0.0000  0.0000  0.0000  0.0000  0.0000  0.0000
  18.  P 1 (d1)     0.0000  0.0000  0.0000  0.0000  0.0000  0.0000  0.0000  0.0000
  19.  P 2 (s)     -0.0193 -0.0135  0.0000  0.0000  0.0021  0.0044  0.0000  0.0000
  20.  P 2 (s)      0.0807  0.0466  0.0000  0.0000 -0.0047 -0.0169  0.0000  0.0000
  21.  P 2 (px)     0.0000  0.0000 -0.0850  0.0000  0.0000  0.0000  0.0208  0.0000
  22.  P 2 (py)     0.0000  0.0000  0.0000 -0.0850  0.0000  0.0000  0.0000  0.0208
  23.  P 2 (pz)     0.1855  0.0294  0.0000  0.0000  0.0625 -0.0211  0.0000  0.0000
  24.  P 2 (s)     -0.1834 -0.1060  0.0000  0.0000 -0.0034  0.0355  0.0000  0.0000
  25.  P 2 (px)     0.0000  0.0000  0.2250  0.0000  0.0000  0.0000 -0.0529  0.0000
  26.  P 2 (py)     0.0000  0.0000  0.0000  0.2250  0.0000  0.0000  0.0000 -0.0529
  27.  P 2 (pz)    -0.4737 -0.0781  0.0000  0.0000 -0.1661  0.0521  0.0000  0.0000
  28.  P 2 (s)      0.0781 -0.0364  0.0000  0.0000  0.0571 -0.0016  0.0000  0.0000
  29.  P 2 (px)     0.0000  0.0000  0.1399  0.0000  0.0000  0.0000 -0.0329  0.0000
  30.  P 2 (py)     0.0000  0.0000  0.0000  0.1399  0.0000  0.0000  0.0000 -0.0329
  31.  P 2 (pz)    -0.1661 -0.0571  0.0000  0.0000 -0.0629  0.0158  0.0000  0.0000
  32.  P 2 (d5)    -0.0521 -0.0016  0.0000  0.0000 -0.0158  0.0067  0.0000  0.0000
  33.  P 2 (d2)     0.0000  0.0000  0.0329  0.0000  0.0000  0.0000 -0.0077  0.0000
  34.  P 2 (d3)     0.0000  0.0000  0.0000  0.0329  0.0000  0.0000  0.0000 -0.0077
  35.  P 2 (d4)     0.0000  0.0000  0.0000  0.0000  0.0000  0.0000  0.0000  0.0000
  36.  P 2 (d1)     0.0000  0.0000  0.0000  0.0000  0.0000  0.0000  0.0000  0.0000

           AO         17      18      19      20      21      22      23      24
      ------------ ------- ------- ------- ------- ------- ------- ------- -------
   1.  P 1 (s)      0.0000  0.0000  0.0003 -0.0012  0.0000  0.0000 -0.0082  0.0005
   2.  P 1 (s)      0.0000  0.0000 -0.0012  0.0056  0.0000  0.0000  0.0351  0.0012
   3.  P 1 (px)     0.0000  0.0000  0.0000  0.0000  0.0539  0.0000  0.0000  0.0000
   4.  P 1 (py)     0.0000  0.0000  0.0000  0.0000  0.0000  0.0539  0.0000  0.0000
   5.  P 1 (pz)     0.0000  0.0000  0.0082 -0.0351  0.0000  0.0000 -0.0699  0.0826
   6.  P 1 (s)      0.0000  0.0000  0.0005  0.0012  0.0000  0.0000 -0.0826 -0.0356
   7.  P 1 (px)     0.0000  0.0000  0.0000  0.0000 -0.1402  0.0000  0.0000  0.0000
   8.  P 1 (py)     0.0000  0.0000  0.0000  0.0000  0.0000 -0.1402  0.0000  0.0000
   9.  P 1 (pz)     0.0000  0.0000 -0.0193  0.0807  0.0000  0.0000  0.1855 -0.1834
  10.  P 1 (s)      0.0000  0.0000 -0.0135  0.0466  0.0000  0.0000  0.0294 -0.1060
  11.  P 1 (px)     0.0000  0.0000  0.0000  0.0000 -0.0850  0.0000  0.0000  0.0000
  12.  P 1 (py)     0.0000  0.0000  0.0000  0.0000  0.0000 -0.0850  0.0000  0.0000
  13.  P 1 (pz)     0.0000  0.0000  0.0021 -0.0047  0.0000  0.0000  0.0625 -0.0034
  14.  P 1 (d5)     0.0000  0.0000  0.0044 -0.0169  0.0000  0.0000 -0.0211  0.0355
  15.  P 1 (d2)     0.0000  0.0000  0.0000  0.0000  0.0208  0.0000  0.0000  0.0000
  16.  P 1 (d3)     0.0000  0.0000  0.0000  0.0000  0.0000  0.0208  0.0000  0.0000
  17.  P 1 (d4)     0.0000  0.0000  0.0000  0.0000  0.0000  0.0000  0.0000  0.0000
  18.  P 1 (d1)     0.0000  0.0000  0.0000  0.0000  0.0000  0.0000  0.0000  0.0000
  19.  P 2 (s)      0.0000  0.0000  2.1500 -0.5931  0.0000  0.0000  0.0050  0.0806
  20.  P 2 (s)      0.0000  0.0000 -0.5931  2.3467  0.0000  0.0000 -0.0247 -0.4204
  21.  P 2 (px)     0.0000  0.0000  0.0000  0.0000  2.0314  0.0000  0.0000  0.0000
  22.  P 2 (py)     0.0000  0.0000  0.0000  0.0000  0.0000  2.0314  0.0000  0.0000
  23.  P 2 (pz)     0.0000  0.0000  0.0050 -0.0247  0.0000  0.0000  2.0661  0.0491
  24.  P 2 (s)      0.0000  0.0000  0.0806 -0.4204  0.0000  0.0000  0.0491  0.9241
  25.  P 2 (px)     0.0000  0.0000  0.0000  0.0000 -0.1004  0.0000  0.0000  0.0000
  26.  P 2 (py)     0.0000  0.0000  0.0000  0.0000  0.0000 -0.1004  0.0000  0.0000
  27.  P 2 (pz)     0.0000  0.0000 -0.0158  0.0759  0.0000  0.0000 -0.1884 -0.1447
  28.  P 2 (s)      0.0000  0.0000  0.0623 -0.2636  0.0000  0.0000  0.1049  0.5146
  29.  P 2 (px)     0.0000  0.0000  0.0000  0.0000 -0.0969  0.0000  0.0000  0.0000
  30.  P 2 (py)     0.0000  0.0000  0.0000  0.0000  0.0000 -0.0969  0.0000  0.0000
  31.  P 2 (pz)     0.0000  0.0000 -0.0063  0.0398  0.0000  0.0000 -0.0851 -0.0845
  32.  P 2 (d5)     0.0000  0.0000  0.0012 -0.0059  0.0000  0.0000 -0.0220  0.0125
  33.  P 2 (d2)     0.0000  0.0000  0.0000  0.0000 -0.0203  0.0000  0.0000  0.0000
  34.  P 2 (d3)     0.0000  0.0000  0.0000  0.0000  0.0000 -0.0203  0.0000  0.0000
  35.  P 2 (d4)     0.0000  0.0000  0.0000  0.0000  0.0000  0.0000  0.0000  0.0000
  36.  P 2 (d1)     0.0000  0.0000  0.0000  0.0000  0.0000  0.0000  0.0000  0.0000

           AO         25      26      27      28      29      30      31      32
      ------------ ------- ------- ------- ------- ------- ------- ------- -------
   1.  P 1 (s)      0.0000  0.0000  0.0193 -0.0135  0.0000  0.0000 -0.0021  0.0044
   2.  P 1 (s)      0.0000  0.0000 -0.0807  0.0466  0.0000  0.0000  0.0047 -0.0169
   3.  P 1 (px)    -0.1402  0.0000  0.0000  0.0000 -0.0850  0.0000  0.0000  0.0000
   4.  P 1 (py)     0.0000 -0.1402  0.0000  0.0000  0.0000 -0.0850  0.0000  0.0000
   5.  P 1 (pz)     0.0000  0.0000  0.1855 -0.0294  0.0000  0.0000  0.0625  0.0211
   6.  P 1 (s)      0.0000  0.0000  0.1834 -0.1060  0.0000  0.0000  0.0034  0.0355
   7.  P 1 (px)     0.3618  0.0000  0.0000  0.0000  0.2250  0.0000  0.0000  0.0000
   8.  P 1 (py)     0.0000  0.3618  0.0000  0.0000  0.0000  0.2250  0.0000  0.0000
   9.  P 1 (pz)     0.0000  0.0000 -0.4737  0.0781  0.0000  0.0000 -0.1661 -0.0521
  10.  P 1 (s)      0.0000  0.0000 -0.0781 -0.0364  0.0000  0.0000 -0.0571 -0.0016
  11.  P 1 (px)     0.2250  0.0000  0.0000  0.0000  0.1399  0.0000  0.0000  0.0000
  12.  P 1 (py)     0.0000  0.2250  0.0000  0.0000  0.0000  0.1399  0.0000  0.0000
  13.  P 1 (pz)     0.0000  0.0000 -0.1661  0.0571  0.0000  0.0000 -0.0629 -0.0158
  14.  P 1 (d5)     0.0000  0.0000  0.0521 -0.0016  0.0000  0.0000  0.0158  0.0067
  15.  P 1 (d2)    -0.0529  0.0000  0.0000  0.0000 -0.0329  0.0000  0.0000  0.0000
  16.  P 1 (d3)     0.0000 -0.0529  0.0000  0.0000  0.0000 -0.0329  0.0000  0.0000
  17.  P 1 (d4)     0.0000  0.0000  0.0000  0.0000  0.0000  0.0000  0.0000  0.0000
  18.  P 1 (d1)     0.0000  0.0000  0.0000  0.0000  0.0000  0.0000  0.0000  0.0000
  19.  P 2 (s)      0.0000  0.0000 -0.0158  0.0623  0.0000  0.0000 -0.0063  0.0012
  20.  P 2 (s)      0.0000  0.0000  0.0759 -0.2636  0.0000  0.0000  0.0398 -0.0059
  21.  P 2 (px)    -0.1004  0.0000  0.0000  0.0000 -0.0969  0.0000  0.0000  0.0000
  22.  P 2 (py)     0.0000 -0.1004  0.0000  0.0000  0.0000 -0.0969  0.0000  0.0000
  23.  P 2 (pz)     0.0000  0.0000 -0.1884  0.1049  0.0000  0.0000 -0.0851 -0.0220
  24.  P 2 (s)      0.0000  0.0000 -0.1447  0.5146  0.0000  0.0000 -0.0845  0.0125
  25.  P 2 (px)     0.3626  0.0000  0.0000  0.0000  0.2248  0.0000  0.0000  0.0000
  26.  P 2 (py)     0.0000  0.3626  0.0000  0.0000  0.0000  0.2248  0.0000  0.0000
  27.  P 2 (pz)     0.0000  0.0000  0.5868 -0.2907  0.0000  0.0000  0.1959  0.0600
  28.  P 2 (s)      0.0000  0.0000 -0.2907  0.3658  0.0000  0.0000 -0.1138 -0.0165
  29.  P 2 (px)     0.2248  0.0000  0.0000  0.0000  0.1399  0.0000  0.0000  0.0000
  30.  P 2 (py)     0.0000  0.2248  0.0000  0.0000  0.0000  0.1399  0.0000  0.0000
  31.  P 2 (pz)     0.0000  0.0000  0.1959 -0.1138  0.0000  0.0000  0.0710  0.0178
  32.  P 2 (d5)     0.0000  0.0000  0.0600 -0.0165  0.0000  0.0000  0.0178  0.0073
  33.  P 2 (d2)     0.0529  0.0000  0.0000  0.0000  0.0329  0.0000  0.0000  0.0000
  34.  P 2 (d3)     0.0000  0.0529  0.0000  0.0000  0.0000  0.0329  0.0000  0.0000
  35.  P 2 (d4)     0.0000  0.0000  0.0000  0.0000  0.0000  0.0000  0.0000  0.0000
  36.  P 2 (d1)     0.0000  0.0000  0.0000  0.0000  0.0000  0.0000  0.0000  0.0000

           AO         33      34      35      36
      ------------ ------- ------- ------- -------
   1.  P 1 (s)      0.0000  0.0000  0.0000  0.0000
   2.  P 1 (s)      0.0000  0.0000  0.0000  0.0000
   3.  P 1 (px)    -0.0208  0.0000  0.0000  0.0000
   4.  P 1 (py)     0.0000 -0.0208  0.0000  0.0000
   5.  P 1 (pz)     0.0000  0.0000  0.0000  0.0000
   6.  P 1 (s)      0.0000  0.0000  0.0000  0.0000
   7.  P 1 (px)     0.0529  0.0000  0.0000  0.0000
   8.  P 1 (py)     0.0000  0.0529  0.0000  0.0000
   9.  P 1 (pz)     0.0000  0.0000  0.0000  0.0000
  10.  P 1 (s)      0.0000  0.0000  0.0000  0.0000
  11.  P 1 (px)     0.0329  0.0000  0.0000  0.0000
  12.  P 1 (py)     0.0000  0.0329  0.0000  0.0000
  13.  P 1 (pz)     0.0000  0.0000  0.0000  0.0000
  14.  P 1 (d5)     0.0000  0.0000  0.0000  0.0000
  15.  P 1 (d2)    -0.0077  0.0000  0.0000  0.0000
  16.  P 1 (d3)     0.0000 -0.0077  0.0000  0.0000
  17.  P 1 (d4)     0.0000  0.0000  0.0000  0.0000
  18.  P 1 (d1)     0.0000  0.0000  0.0000  0.0000
  19.  P 2 (s)      0.0000  0.0000  0.0000  0.0000
  20.  P 2 (s)      0.0000  0.0000  0.0000  0.0000
  21.  P 2 (px)    -0.0203  0.0000  0.0000  0.0000
  22.  P 2 (py)     0.0000 -0.0203  0.0000  0.0000
  23.  P 2 (pz)     0.0000  0.0000  0.0000  0.0000
  24.  P 2 (s)      0.0000  0.0000  0.0000  0.0000
  25.  P 2 (px)     0.0529  0.0000  0.0000  0.0000
  26.  P 2 (py)     0.0000  0.0529  0.0000  0.0000
  27.  P 2 (pz)     0.0000  0.0000  0.0000  0.0000
  28.  P 2 (s)      0.0000  0.0000  0.0000  0.0000
  29.  P 2 (px)     0.0329  0.0000  0.0000  0.0000
  30.  P 2 (py)     0.0000  0.0329  0.0000  0.0000
  31.  P 2 (pz)     0.0000  0.0000  0.0000  0.0000
  32.  P 2 (d5)     0.0000  0.0000  0.0000  0.0000
  33.  P 2 (d2)     0.0077  0.0000  0.0000  0.0000
  34.  P 2 (d3)     0.0000  0.0077  0.0000  0.0000
  35.  P 2 (d4)     0.0000  0.0000  0.0000  0.0000
  36.  P 2 (d1)     0.0000  0.0000  0.0000  0.0000


 AO density matrix:

           AO          1       2       3       4       5       6       7       8
      ------------ ------- ------- ------- ------- ------- ------- ------- -------
   1.  P 1 (s)      2.0000  0.5150  0.0000  0.0000  0.0000  0.0115  0.0000  0.0000
   2.  P 1 (s)      0.5150  2.0000  0.0000  0.0000  0.0000  0.6102  0.0000  0.0000
   3.  P 1 (px)     0.0000  0.0000  1.9997  0.0000  0.0000  0.0000  0.6118  0.0000
   4.  P 1 (py)     0.0000  0.0000  0.0000  1.9997  0.0000  0.0000  0.0000  0.6118
   5.  P 1 (pz)     0.0000  0.0000  0.0000  0.0000  1.9998 -0.0015  0.0000  0.0000
   6.  P 1 (s)      0.0115  0.6102  0.0000  0.0000 -0.0015  1.8897  0.0000  0.0000
   7.  P 1 (px)     0.0000  0.0000  0.6118  0.0000  0.0000  0.0000  1.0890  0.0000
   8.  P 1 (py)     0.0000  0.0000  0.0000  0.6118  0.0000  0.0000  0.0000  1.0890
   9.  P 1 (pz)     0.0004 -0.0011  0.0000  0.0000  0.6034  0.0898  0.0000  0.0000
  10.  P 1 (s)      0.0642  0.5037  0.0000  0.0000 -0.0010  1.7918  0.0000  0.0000
  11.  P 1 (px)     0.0000  0.0000  0.1471  0.0000  0.0000  0.0000  1.0854  0.0000
  12.  P 1 (py)     0.0000  0.0000  0.0000  0.1471  0.0000  0.0000  0.0000  1.0854
  13.  P 1 (pz)     0.0005 -0.0013  0.0000  0.0000  0.1440  0.1196  0.0000  0.0000
  14.  P 1 (d5)     0.0001 -0.0008  0.0000  0.0000  0.0038  0.1025  0.0000  0.0000
  15.  P 1 (d2)     0.0000  0.0000  0.0028  0.0000  0.0000  0.0000 -0.2039  0.0000
  16.  P 1 (d3)     0.0000  0.0000  0.0000  0.0028  0.0000  0.0000  0.0000 -0.2039
  17.  P 1 (d4)     0.0000  0.0000  0.0000  0.0000  0.0000  0.0000  0.0000  0.0000
  18.  P 1 (d1)     0.0000  0.0000  0.0000  0.0000  0.0000  0.0000  0.0000  0.0000
  19.  P 2 (s)      0.0000  0.0000  0.0000  0.0000  0.0000  0.0037  0.0000  0.0000
  20.  P 2 (s)      0.0000  0.0000  0.0000  0.0000 -0.0001  0.0380  0.0000  0.0000
  21.  P 2 (px)     0.0000  0.0000  0.0002  0.0000  0.0000  0.0000  0.0022  0.0000
  22.  P 2 (py)     0.0000  0.0000  0.0000  0.0002  0.0000  0.0000  0.0000  0.0022
  23.  P 2 (pz)     0.0000  0.0001  0.0000  0.0000 -0.0002  0.0308  0.0000  0.0000
  24.  P 2 (s)      0.0037  0.0380  0.0000  0.0000 -0.0308  0.3821  0.0000  0.0000
  25.  P 2 (px)     0.0000  0.0000  0.0022  0.0000  0.0000  0.0000  0.9032  0.0000
  26.  P 2 (py)     0.0000  0.0000  0.0000  0.0022  0.0000  0.0000  0.0000  0.9032
  27.  P 2 (pz)     0.0105  0.0946  0.0000  0.0000 -0.0665  0.6773  0.0000  0.0000
  28.  P 2 (s)      0.0171  0.1416  0.0000  0.0000 -0.0472  0.6639  0.0000  0.0000
  29.  P 2 (px)     0.0000  0.0000  0.0314  0.0000  0.0000  0.0000  1.0501  0.0000
  30.  P 2 (py)     0.0000  0.0000  0.0000  0.0314  0.0000  0.0000  0.0000  1.0501
  31.  P 2 (pz)     0.0394  0.3108  0.0000  0.0000 -0.0600  1.1750  0.0000  0.0000
  32.  P 2 (d5)     0.0029  0.0453  0.0000  0.0000 -0.0589  0.2771  0.0000  0.0000
  33.  P 2 (d2)     0.0000  0.0000  0.0099  0.0000  0.0000  0.0000  0.2078  0.0000
  34.  P 2 (d3)     0.0000  0.0000  0.0000  0.0099  0.0000  0.0000  0.0000  0.2078
  35.  P 2 (d4)     0.0000  0.0000  0.0000  0.0000  0.0000  0.0000  0.0000  0.0000
  36.  P 2 (d1)     0.0000  0.0000  0.0000  0.0000  0.0000  0.0000  0.0000  0.0000

           AO          9      10      11      12      13      14      15      16
      ------------ ------- ------- ------- ------- ------- ------- ------- -------
   1.  P 1 (s)      0.0004  0.0642  0.0000  0.0000  0.0005  0.0001  0.0000  0.0000
   2.  P 1 (s)     -0.0011  0.5037  0.0000  0.0000 -0.0013 -0.0008  0.0000  0.0000
   3.  P 1 (px)     0.0000  0.0000  0.1471  0.0000  0.0000  0.0000  0.0028  0.0000
   4.  P 1 (py)     0.0000  0.0000  0.0000  0.1471  0.0000  0.0000  0.0000  0.0028
   5.  P 1 (pz)     0.6034 -0.0010  0.0000  0.0000  0.1440  0.0038  0.0000  0.0000
   6.  P 1 (s)      0.0898  1.7918  0.0000  0.0000  0.1196  0.1025  0.0000  0.0000
   7.  P 1 (px)     0.0000  0.0000  1.0854  0.0000  0.0000  0.0000 -0.2039  0.0000
   8.  P 1 (py)     0.0000  0.0000  0.0000  1.0854  0.0000  0.0000  0.0000 -0.2039
   9.  P 1 (pz)     1.5844  0.0641  0.0000  0.0000  1.3116 -0.3362  0.0000  0.0000
  10.  P 1 (s)      0.0641  1.7614  0.0000  0.0000 -0.0179  0.1218  0.0000  0.0000
  11.  P 1 (px)     0.0000  0.0000  1.2114  0.0000  0.0000  0.0000 -0.2362  0.0000
  12.  P 1 (py)     0.0000  0.0000  0.0000  1.2114  0.0000  0.0000  0.0000 -0.2362
  13.  P 1 (pz)     1.3116 -0.0179  0.0000  0.0000  1.3860 -0.3361  0.0000  0.0000
  14.  P 1 (d5)    -0.3362  0.1218  0.0000  0.0000 -0.3361  0.0964  0.0000  0.0000
  15.  P 1 (d2)     0.0000  0.0000 -0.2362  0.0000  0.0000  0.0000  0.0465  0.0000
  16.  P 1 (d3)     0.0000  0.0000  0.0000 -0.2362  0.0000  0.0000  0.0000  0.0465
  17.  P 1 (d4)     0.0000  0.0000  0.0000  0.0000  0.0000  0.0000  0.0000  0.0000
  18.  P 1 (d1)     0.0000  0.0000  0.0000  0.0000  0.0000  0.0000  0.0000  0.0000
  19.  P 2 (s)     -0.0105  0.0171  0.0000  0.0000 -0.0394  0.0029  0.0000  0.0000
  20.  P 2 (s)     -0.0946  0.1416  0.0000  0.0000 -0.3108  0.0453  0.0000  0.0000
  21.  P 2 (px)     0.0000  0.0000  0.0314  0.0000  0.0000  0.0000 -0.0099  0.0000
  22.  P 2 (py)     0.0000  0.0000  0.0000  0.0314  0.0000  0.0000  0.0000 -0.0099
  23.  P 2 (pz)    -0.0665  0.0472  0.0000  0.0000 -0.0600  0.0589  0.0000  0.0000
  24.  P 2 (s)     -0.6773  0.6639  0.0000  0.0000 -1.1750  0.2771  0.0000  0.0000
  25.  P 2 (px)     0.0000  0.0000  1.0501  0.0000  0.0000  0.0000 -0.2078  0.0000
  26.  P 2 (py)     0.0000  0.0000  0.0000  1.0501  0.0000  0.0000  0.0000 -0.2078
  27.  P 2 (pz)    -1.0344  0.5253  0.0000  0.0000 -0.6148  0.2621  0.0000  0.0000
  28.  P 2 (s)     -0.5253  0.9130  0.0000  0.0000 -0.9966  0.2526  0.0000  0.0000
  29.  P 2 (px)     0.0000  0.0000  1.2047  0.0000  0.0000  0.0000 -0.2369  0.0000
  30.  P 2 (py)     0.0000  0.0000  0.0000  1.2047  0.0000  0.0000  0.0000 -0.2369
  31.  P 2 (pz)    -0.6148  0.9966  0.0000  0.0000 -0.2502  0.1857  0.0000  0.0000
  32.  P 2 (d5)    -0.2621  0.2526  0.0000  0.0000 -0.1857  0.0737  0.0000  0.0000
  33.  P 2 (d2)     0.0000  0.0000  0.2369  0.0000  0.0000  0.0000 -0.0465  0.0000
  34.  P 2 (d3)     0.0000  0.0000  0.0000  0.2369  0.0000  0.0000  0.0000 -0.0465
  35.  P 2 (d4)     0.0000  0.0000  0.0000  0.0000  0.0000  0.0000  0.0000  0.0000
  36.  P 2 (d1)     0.0000  0.0000  0.0000  0.0000  0.0000  0.0000  0.0000  0.0000

           AO         17      18      19      20      21      22      23      24
      ------------ ------- ------- ------- ------- ------- ------- ------- -------
   1.  P 1 (s)      0.0000  0.0000  0.0000  0.0000  0.0000  0.0000  0.0000  0.0037
   2.  P 1 (s)      0.0000  0.0000  0.0000  0.0000  0.0000  0.0000  0.0001  0.0380
   3.  P 1 (px)     0.0000  0.0000  0.0000  0.0000  0.0002  0.0000  0.0000  0.0000
   4.  P 1 (py)     0.0000  0.0000  0.0000  0.0000  0.0000  0.0002  0.0000  0.0000
   5.  P 1 (pz)     0.0000  0.0000  0.0000 -0.0001  0.0000  0.0000 -0.0002 -0.0308
   6.  P 1 (s)      0.0000  0.0000  0.0037  0.0380  0.0000  0.0000  0.0308  0.3821
   7.  P 1 (px)     0.0000  0.0000  0.0000  0.0000  0.0022  0.0000  0.0000  0.0000
   8.  P 1 (py)     0.0000  0.0000  0.0000  0.0000  0.0000  0.0022  0.0000  0.0000
   9.  P 1 (pz)     0.0000  0.0000 -0.0105 -0.0946  0.0000  0.0000 -0.0665 -0.6773
  10.  P 1 (s)      0.0000  0.0000  0.0171  0.1416  0.0000  0.0000  0.0472  0.6639
  11.  P 1 (px)     0.0000  0.0000  0.0000  0.0000  0.0314  0.0000  0.0000  0.0000
  12.  P 1 (py)     0.0000  0.0000  0.0000  0.0000  0.0000  0.0314  0.0000  0.0000
  13.  P 1 (pz)     0.0000  0.0000 -0.0394 -0.3108  0.0000  0.0000 -0.0600 -1.1750
  14.  P 1 (d5)     0.0000  0.0000  0.0029  0.0453  0.0000  0.0000  0.0589  0.2771
  15.  P 1 (d2)     0.0000  0.0000  0.0000  0.0000 -0.0099  0.0000  0.0000  0.0000
  16.  P 1 (d3)     0.0000  0.0000  0.0000  0.0000  0.0000 -0.0099  0.0000  0.0000
  17.  P 1 (d4)     0.0000  0.0000  0.0000  0.0000  0.0000  0.0000  0.0000  0.0000
  18.  P 1 (d1)     0.0000  0.0000  0.0000  0.0000  0.0000  0.0000  0.0000  0.0000
  19.  P 2 (s)      0.0000  0.0000  2.0000  0.5150  0.0000  0.0000  0.0000  0.0115
  20.  P 2 (s)      0.0000  0.0000  0.5150  2.0000  0.0000  0.0000  0.0000  0.6102
  21.  P 2 (px)     0.0000  0.0000  0.0000  0.0000  1.9997  0.0000  0.0000  0.0000
  22.  P 2 (py)     0.0000  0.0000  0.0000  0.0000  0.0000  1.9997  0.0000  0.0000
  23.  P 2 (pz)     0.0000  0.0000  0.0000  0.0000  0.0000  0.0000  1.9998  0.0015
  24.  P 2 (s)      0.0000  0.0000  0.0115  0.6102  0.0000  0.0000  0.0015  1.8897
  25.  P 2 (px)     0.0000  0.0000  0.0000  0.0000  0.6118  0.0000  0.0000  0.0000
  26.  P 2 (py)     0.0000  0.0000  0.0000  0.0000  0.0000  0.6118  0.0000  0.0000
  27.  P 2 (pz)     0.0000  0.0000 -0.0004  0.0011  0.0000  0.0000  0.6034 -0.0898
  28.  P 2 (s)      0.0000  0.0000  0.0642  0.5037  0.0000  0.0000  0.0010  1.7918
  29.  P 2 (px)     0.0000  0.0000  0.0000  0.0000  0.1471  0.0000  0.0000  0.0000
  30.  P 2 (py)     0.0000  0.0000  0.0000  0.0000  0.0000  0.1471  0.0000  0.0000
  31.  P 2 (pz)     0.0000  0.0000 -0.0005  0.0013  0.0000  0.0000  0.1440 -0.1196
  32.  P 2 (d5)     0.0000  0.0000  0.0001 -0.0008  0.0000  0.0000 -0.0038  0.1025
  33.  P 2 (d2)     0.0000  0.0000  0.0000  0.0000 -0.0028  0.0000  0.0000  0.0000
  34.  P 2 (d3)     0.0000  0.0000  0.0000  0.0000  0.0000 -0.0028  0.0000  0.0000
  35.  P 2 (d4)     0.0000  0.0000  0.0000  0.0000  0.0000  0.0000  0.0000  0.0000
  36.  P 2 (d1)     0.0000  0.0000  0.0000  0.0000  0.0000  0.0000  0.0000  0.0000

           AO         25      26      27      28      29      30      31      32
      ------------ ------- ------- ------- ------- ------- ------- ------- -------
   1.  P 1 (s)      0.0000  0.0000  0.0105  0.0171  0.0000  0.0000  0.0394  0.0029
   2.  P 1 (s)      0.0000  0.0000  0.0946  0.1416  0.0000  0.0000  0.3108  0.0453
   3.  P 1 (px)     0.0022  0.0000  0.0000  0.0000  0.0314  0.0000  0.0000  0.0000
   4.  P 1 (py)     0.0000  0.0022  0.0000  0.0000  0.0000  0.0314  0.0000  0.0000
   5.  P 1 (pz)     0.0000  0.0000 -0.0665 -0.0472  0.0000  0.0000 -0.0600 -0.0589
   6.  P 1 (s)      0.0000  0.0000  0.6773  0.6639  0.0000  0.0000  1.1750  0.2771
   7.  P 1 (px)     0.9032  0.0000  0.0000  0.0000  1.0501  0.0000  0.0000  0.0000
   8.  P 1 (py)     0.0000  0.9032  0.0000  0.0000  0.0000  1.0501  0.0000  0.0000
   9.  P 1 (pz)     0.0000  0.0000 -1.0344 -0.5253  0.0000  0.0000 -0.6148 -0.2621
  10.  P 1 (s)      0.0000  0.0000  0.5253  0.9130  0.0000  0.0000  0.9966  0.2526
  11.  P 1 (px)     1.0501  0.0000  0.0000  0.0000  1.2047  0.0000  0.0000  0.0000
  12.  P 1 (py)     0.0000  1.0501  0.0000  0.0000  0.0000  1.2047  0.0000  0.0000
  13.  P 1 (pz)     0.0000  0.0000 -0.6148 -0.9966  0.0000  0.0000 -0.2502 -0.1857
  14.  P 1 (d5)     0.0000  0.0000  0.2621  0.2526  0.0000  0.0000  0.1857  0.0737
  15.  P 1 (d2)    -0.2078  0.0000  0.0000  0.0000 -0.2369  0.0000  0.0000  0.0000
  16.  P 1 (d3)     0.0000 -0.2078  0.0000  0.0000  0.0000 -0.2369  0.0000  0.0000
  17.  P 1 (d4)     0.0000  0.0000  0.0000  0.0000  0.0000  0.0000  0.0000  0.0000
  18.  P 1 (d1)     0.0000  0.0000  0.0000  0.0000  0.0000  0.0000  0.0000  0.0000
  19.  P 2 (s)      0.0000  0.0000 -0.0004  0.0642  0.0000  0.0000 -0.0005  0.0001
  20.  P 2 (s)      0.0000  0.0000  0.0011  0.5037  0.0000  0.0000  0.0013 -0.0008
  21.  P 2 (px)     0.6118  0.0000  0.0000  0.0000  0.1471  0.0000  0.0000  0.0000
  22.  P 2 (py)     0.0000  0.6118  0.0000  0.0000  0.0000  0.1471  0.0000  0.0000
  23.  P 2 (pz)     0.0000  0.0000  0.6034  0.0010  0.0000  0.0000  0.1440 -0.0038
  24.  P 2 (s)      0.0000  0.0000 -0.0898  1.7918  0.0000  0.0000 -0.1196  0.1025
  25.  P 2 (px)     1.0890  0.0000  0.0000  0.0000  1.0854  0.0000  0.0000  0.0000
  26.  P 2 (py)     0.0000  1.0890  0.0000  0.0000  0.0000  1.0854  0.0000  0.0000
  27.  P 2 (pz)     0.0000  0.0000  1.5844 -0.0641  0.0000  0.0000  1.3116  0.3362
  28.  P 2 (s)      0.0000  0.0000 -0.0641  1.7614  0.0000  0.0000  0.0179  0.1218
  29.  P 2 (px)     1.0854  0.0000  0.0000  0.0000  1.2114  0.0000  0.0000  0.0000
  30.  P 2 (py)     0.0000  1.0854  0.0000  0.0000  0.0000  1.2114  0.0000  0.0000
  31.  P 2 (pz)     0.0000  0.0000  1.3116  0.0179  0.0000  0.0000  1.3860  0.3361
  32.  P 2 (d5)     0.0000  0.0000  0.3362  0.1218  0.0000  0.0000  0.3361  0.0964
  33.  P 2 (d2)     0.2039  0.0000  0.0000  0.0000  0.2362  0.0000  0.0000  0.0000
  34.  P 2 (d3)     0.0000  0.2039  0.0000  0.0000  0.0000  0.2362  0.0000  0.0000
  35.  P 2 (d4)     0.0000  0.0000  0.0000  0.0000  0.0000  0.0000  0.0000  0.0000
  36.  P 2 (d1)     0.0000  0.0000  0.0000  0.0000  0.0000  0.0000  0.0000  0.0000

           AO         33      34      35      36
      ------------ ------- ------- ------- -------
   1.  P 1 (s)      0.0000  0.0000  0.0000  0.0000
   2.  P 1 (s)      0.0000  0.0000  0.0000  0.0000
   3.  P 1 (px)     0.0099  0.0000  0.0000  0.0000
   4.  P 1 (py)     0.0000  0.0099  0.0000  0.0000
   5.  P 1 (pz)     0.0000  0.0000  0.0000  0.0000
   6.  P 1 (s)      0.0000  0.0000  0.0000  0.0000
   7.  P 1 (px)     0.2078  0.0000  0.0000  0.0000
   8.  P 1 (py)     0.0000  0.2078  0.0000  0.0000
   9.  P 1 (pz)     0.0000  0.0000  0.0000  0.0000
  10.  P 1 (s)      0.0000  0.0000  0.0000  0.0000
  11.  P 1 (px)     0.2369  0.0000  0.0000  0.0000
  12.  P 1 (py)     0.0000  0.2369  0.0000  0.0000
  13.  P 1 (pz)     0.0000  0.0000  0.0000  0.0000
  14.  P 1 (d5)     0.0000  0.0000  0.0000  0.0000
  15.  P 1 (d2)    -0.0465  0.0000  0.0000  0.0000
  16.  P 1 (d3)     0.0000 -0.0465  0.0000  0.0000
  17.  P 1 (d4)     0.0000  0.0000  0.0000  0.0000
  18.  P 1 (d1)     0.0000  0.0000  0.0000  0.0000
  19.  P 2 (s)      0.0000  0.0000  0.0000  0.0000
  20.  P 2 (s)      0.0000  0.0000  0.0000  0.0000
  21.  P 2 (px)    -0.0028  0.0000  0.0000  0.0000
  22.  P 2 (py)     0.0000 -0.0028  0.0000  0.0000
  23.  P 2 (pz)     0.0000  0.0000  0.0000  0.0000
  24.  P 2 (s)      0.0000  0.0000  0.0000  0.0000
  25.  P 2 (px)     0.2039  0.0000  0.0000  0.0000
  26.  P 2 (py)     0.0000  0.2039  0.0000  0.0000
  27.  P 2 (pz)     0.0000  0.0000  0.0000  0.0000
  28.  P 2 (s)      0.0000  0.0000  0.0000  0.0000
  29.  P 2 (px)     0.2362  0.0000  0.0000  0.0000
  30.  P 2 (py)     0.0000  0.2362  0.0000  0.0000
  31.  P 2 (pz)     0.0000  0.0000  0.0000  0.0000
  32.  P 2 (d5)     0.0000  0.0000  0.0000  0.0000
  33.  P 2 (d2)     0.0465  0.0000  0.0000  0.0000
  34.  P 2 (d3)     0.0000  0.0465  0.0000  0.0000
  35.  P 2 (d4)     0.0000  0.0000  0.0000  0.0000
  36.  P 2 (d1)     0.0000  0.0000  0.0000  0.0000


 MO density matrix:

      MO     1       2       3       4       5       6       7       8       9
     ---- ------  ------  ------  ------  ------  ------  ------  ------  ------
   1.     2.0000  0.0000  0.0000  0.0000  0.0000  0.0000  0.0000  0.0000  0.0000
   2.     0.0000  2.0000  0.0000  0.0000  0.0000  0.0000  0.0000  0.0000  0.0000
   3.     0.0000  0.0000  2.0000  0.0000  0.0000  0.0000  0.0000  0.0000  0.0000
   4.     0.0000  0.0000  0.0000  2.0000  0.0000  0.0000  0.0000  0.0000  0.0000
   5.     0.0000  0.0000  0.0000  0.0000  2.0000  0.0000  0.0000  0.0000  0.0000
   6.     0.0000  0.0000  0.0000  0.0000  0.0000  2.0000  0.0000  0.0000  0.0000
   7.     0.0000  0.0000  0.0000  0.0000  0.0000  0.0000  2.0000  0.0000  0.0000
   8.     0.0000  0.0000  0.0000  0.0000  0.0000  0.0000  0.0000  2.0000  0.0000
   9.     0.0000  0.0000  0.0000  0.0000  0.0000  0.0000  0.0000  0.0000  2.0000
  10.     0.0000  0.0000  0.0000  0.0000  0.0000  0.0000  0.0000  0.0000  0.0000
  11.     0.0000  0.0000  0.0000  0.0000  0.0000  0.0000  0.0000  0.0000  0.0000
  12.     0.0000  0.0000  0.0000  0.0000  0.0000  0.0000  0.0000  0.0000  0.0000
  13.     0.0000  0.0000  0.0000  0.0000  0.0000  0.0000  0.0000  0.0000  0.0000
  14.     0.0000  0.0000  0.0000  0.0000  0.0000  0.0000  0.0000  0.0000  0.0000
  15.     0.0000  0.0000  0.0000  0.0000  0.0000  0.0000  0.0000  0.0000  0.0000
  16.     0.0000  0.0000  0.0000  0.0000  0.0000  0.0000  0.0000  0.0000  0.0000
  17.     0.0000  0.0000  0.0000  0.0000  0.0000  0.0000  0.0000  0.0000  0.0000
  18.     0.0000  0.0000  0.0000  0.0000  0.0000  0.0000  0.0000  0.0000  0.0000
  19.     0.0000  0.0000  0.0000  0.0000  0.0000  0.0000  0.0000  0.0000  0.0000
  20.     0.0000  0.0000  0.0000  0.0000  0.0000  0.0000  0.0000  0.0000  0.0000
  21.     0.0000  0.0000  0.0000  0.0000  0.0000  0.0000  0.0000  0.0000  0.0000
  22.     0.0000  0.0000  0.0000  0.0000  0.0000  0.0000  0.0000  0.0000  0.0000
  23.     0.0000  0.0000  0.0000  0.0000  0.0000  0.0000  0.0000  0.0000  0.0000
  24.     0.0000  0.0000  0.0000  0.0000  0.0000  0.0000  0.0000  0.0000  0.0000
  25.     0.0000  0.0000  0.0000  0.0000  0.0000  0.0000  0.0000  0.0000  0.0000
  26.     0.0000  0.0000  0.0000  0.0000  0.0000  0.0000  0.0000  0.0000  0.0000
  27.     0.0000  0.0000  0.0000  0.0000  0.0000  0.0000  0.0000  0.0000  0.0000
  28.     0.0000  0.0000  0.0000  0.0000  0.0000  0.0000  0.0000  0.0000  0.0000
  29.     0.0000  0.0000  0.0000  0.0000  0.0000  0.0000  0.0000  0.0000  0.0000
  30.     0.0000  0.0000  0.0000  0.0000  0.0000  0.0000  0.0000  0.0000  0.0000
  31.     0.0000  0.0000  0.0000  0.0000  0.0000  0.0000  0.0000  0.0000  0.0000
  32.     0.0000  0.0000  0.0000  0.0000  0.0000  0.0000  0.0000  0.0000  0.0000
  33.     0.0000  0.0000  0.0000  0.0000  0.0000  0.0000  0.0000  0.0000  0.0000
  34.     0.0000  0.0000  0.0000  0.0000  0.0000  0.0000  0.0000  0.0000  0.0000
  35.     0.0000  0.0000  0.0000  0.0000  0.0000  0.0000  0.0000  0.0000  0.0000
  36.     0.0000  0.0000  0.0000  0.0000  0.0000  0.0000  0.0000  0.0000  0.0000

      MO    10      11      12      13      14      15      16      17      18
     ---- ------  ------  ------  ------  ------  ------  ------  ------  ------
   1.     0.0000  0.0000  0.0000  0.0000  0.0000  0.0000  0.0000  0.0000  0.0000
   2.     0.0000  0.0000  0.0000  0.0000  0.0000  0.0000  0.0000  0.0000  0.0000
   3.     0.0000  0.0000  0.0000  0.0000  0.0000  0.0000  0.0000  0.0000  0.0000
   4.     0.0000  0.0000  0.0000  0.0000  0.0000  0.0000  0.0000  0.0000  0.0000
   5.     0.0000  0.0000  0.0000  0.0000  0.0000  0.0000  0.0000  0.0000  0.0000
   6.     0.0000  0.0000  0.0000  0.0000  0.0000  0.0000  0.0000  0.0000  0.0000
   7.     0.0000  0.0000  0.0000  0.0000  0.0000  0.0000  0.0000  0.0000  0.0000
[...]
            0.0000 0.0000 0.0000 0.0000 0.0000 0.0000 0.0000 0.0000
            0.7071 0.0000 0.0000 0.0000 0.0000 0.0000 0.0000 0.0000
            0.0000 0.0000 0.0000 0.0000
           NBO accepted:   13. Label:BD ( 1)   1   2
      Occupancy is 0.000 for antibonding component
            0.0000 0.0000 0.0000 0.0000 0.0000 0.0000-0.7071 0.0000
            0.0000 0.0000 0.0000 0.0000 0.0000 0.0000 0.0000 0.0000
            0.0000 0.0000 0.0000 0.0000 0.0000 0.0000 0.0000 0.0000
            0.7071 0.0000 0.0000 0.0000 0.0000 0.0000 0.0000 0.0000
            0.0000 0.0000 0.0000 0.0000
           NBO accepted:   14. Label:BD*( 1)   1   2
      Eigenvector ( 2) has occupancy 2.00000
            0.0000 0.0000 0.0000 0.0000 0.0000 0.0000 0.0503 0.7023
            0.0651 0.0000 0.0000 0.0000 0.0000 0.0000 0.0000 0.0000
            0.0000 0.0000 0.0000 0.0000 0.0000 0.0000 0.0000 0.0000
            0.0503 0.7023 0.0651 0.0000 0.0000 0.0000 0.0000 0.0000
            0.0000 0.0000 0.0000 0.0000
      Occupancy is 2.000 after deleting minor hybrid components
            0.0000 0.0000 0.0000 0.0000 0.0000 0.0000 0.0000 0.7071
            0.0000 0.0000 0.0000 0.0000 0.0000 0.0000 0.0000 0.0000
            0.0000 0.0000 0.0000 0.0000 0.0000 0.0000 0.0000 0.0000
            0.0000 0.7071 0.0000 0.0000 0.0000 0.0000 0.0000 0.0000
            0.0000 0.0000 0.0000 0.0000
           NBO accepted:   15. Label:BD ( 2)   1   2
      Occupancy is 0.000 for antibonding component
            0.0000 0.0000 0.0000 0.0000 0.0000 0.0000 0.0000-0.7071
            0.0000 0.0000 0.0000 0.0000 0.0000 0.0000 0.0000 0.0000
            0.0000 0.0000 0.0000 0.0000 0.0000 0.0000 0.0000 0.0000
            0.0000 0.7071 0.0000 0.0000 0.0000 0.0000 0.0000 0.0000
            0.0000 0.0000 0.0000 0.0000
           NBO accepted:   16. Label:BD*( 2)   1   2
      Eigenvector ( 3) has occupancy 2.00000
            0.0000 0.0000 0.0000 0.0000 0.0000 0.0000-0.0054-0.0649
            0.7041 0.0000 0.0000 0.0000 0.0000 0.0000 0.0000 0.0000
            0.0000 0.0000 0.0000 0.0000 0.0000 0.0000 0.0000 0.0000
           -0.0054-0.0649 0.7041 0.0000 0.0000 0.0000 0.0000 0.0000
            0.0000 0.0000 0.0000 0.0000
      Occupancy is 2.000 after deleting minor hybrid components
            0.0000 0.0000 0.0000 0.0000 0.0000 0.0000 0.0000 0.0000
            0.7071 0.0000 0.0000 0.0000 0.0000 0.0000 0.0000 0.0000
            0.0000 0.0000 0.0000 0.0000 0.0000 0.0000 0.0000 0.0000
            0.0000 0.0000 0.7071 0.0000 0.0000 0.0000 0.0000 0.0000
            0.0000 0.0000 0.0000 0.0000
           NBO accepted:   17. Label:BD ( 3)   1   2
      Occupancy is 0.000 for antibonding component
            0.0000 0.0000 0.0000 0.0000 0.0000 0.0000 0.0000 0.0000
           -0.7071 0.0000 0.0000 0.0000 0.0000 0.0000 0.0000 0.0000
            0.0000 0.0000 0.0000 0.0000 0.0000 0.0000 0.0000 0.0000
            0.0000 0.0000 0.7071 0.0000 0.0000 0.0000 0.0000 0.0000
            0.0000 0.0000 0.0000 0.0000
           NBO accepted:   18. Label:BD*( 3)   1   2
        6 eigenvector(s) stashed in permanent list

  2-center NBOs projected from the NHO density matrix
       0.004 electrons remain in the fully projected matrix

                            Occupancies       Lewis Structure    Low   High
         Max    Occ     -------------------  -----------------   occ   occ
  Cycle  Ctr   Thresh    Lewis   non-Lewis     CR  BD  nC  LP    (L)   (NL)
 ============================================================================
    1     2     1.90    29.99593   0.00407     10   3   0   2     0      0
 ----------------------------------------------------------------------------

 Structure accepted: No low occupancy Lewis orbitals

 -------------------------------------------------------
   Core                     19.99999 (100.000% of  20)
   Valence Lewis             9.99594 ( 99.959% of  10)
  ==================      =============================
   Total Lewis              29.99593 ( 99.986% of  30)
  -----------------------------------------------------
   Valence non-Lewis         0.00000 (  0.000% of  30)
   Rydberg non-Lewis         0.00407 (  0.014% of  30)
  ==================      =============================
   Total non-Lewis           0.00407 (  0.014% of  30)
 -------------------------------------------------------


     (Occupancy)   Bond orbital / Coefficients / Hybrids
 ------------------ Lewis ------------------------------------------------------
   1. (2.00000) CR ( 1) P  1            s(100.00%)
                                         1.0000  0.0000  0.0000  0.0000  0.0000
                                         0.0000  0.0000  0.0000  0.0000  0.0000
                                         0.0000  0.0000  0.0000  0.0000  0.0000
                                         0.0000  0.0000  0.0000
   2. (2.00000) CR ( 2) P  1            s(100.00%)
                                         0.0000  1.0000  0.0000  0.0000  0.0000
                                         0.0000  0.0000  0.0000  0.0000  0.0000
                                         0.0000  0.0000  0.0000  0.0000  0.0000
                                         0.0000  0.0000  0.0000
   3. (2.00000) CR ( 3) P  1            s(  0.00%)p 1.00(100.00%)
                                         0.0000  0.0000  0.0000  0.0000  1.0000
                                         0.0000  0.0000  0.0000  0.0000  0.0000
                                         0.0000  0.0000  0.0000  0.0000  0.0000
                                         0.0000  0.0000  0.0000
   4. (2.00000) CR ( 4) P  1            s(  0.00%)p 1.00(100.00%)
                                         0.0000  0.0000  0.0000  0.0000  0.0000
                                         0.0000  0.0000  1.0000  0.0000  0.0000
                                         0.0000  0.0000  0.0000  0.0000  0.0000
                                         0.0000  0.0000  0.0000
   5. (2.00000) CR ( 5) P  1            s(  0.00%)p 1.00(100.00%)
                                         0.0000  0.0000  0.0000  0.0000  0.0000
                                         0.0000  0.0000  0.0000  0.0000  0.0000
                                         1.0000  0.0000  0.0000  0.0000  0.0000
                                         0.0000  0.0000  0.0000
   6. (2.00000) CR ( 1) P  2            s(100.00%)
                                         1.0000  0.0000  0.0000  0.0000  0.0000
                                         0.0000  0.0000  0.0000  0.0000  0.0000
                                         0.0000  0.0000  0.0000  0.0000  0.0000
                                         0.0000  0.0000  0.0000
   7. (2.00000) CR ( 2) P  2            s(100.00%)
                                         0.0000  1.0000  0.0000  0.0000  0.0000
                                         0.0000  0.0000  0.0000  0.0000  0.0000
                                         0.0000  0.0000  0.0000  0.0000  0.0000
                                         0.0000  0.0000  0.0000
   8. (2.00000) CR ( 3) P  2            s(  0.00%)p 1.00(100.00%)
                                         0.0000  0.0000  0.0000  0.0000  1.0000
                                         0.0000  0.0000  0.0000  0.0000  0.0000
                                         0.0000  0.0000  0.0000  0.0000  0.0000
                                         0.0000  0.0000  0.0000
   9. (2.00000) CR ( 4) P  2            s(  0.00%)p 1.00(100.00%)
                                         0.0000  0.0000  0.0000  0.0000  0.0000
                                         0.0000  0.0000  1.0000  0.0000  0.0000
                                         0.0000  0.0000  0.0000  0.0000  0.0000
                                         0.0000  0.0000  0.0000
  10. (2.00000) CR ( 5) P  2            s(  0.00%)p 1.00(100.00%)
                                         0.0000  0.0000  0.0000  0.0000  0.0000
                                         0.0000  0.0000  0.0000  0.0000  0.0000
                                         1.0000  0.0000  0.0000  0.0000  0.0000
                                         0.0000  0.0000  0.0000
  11. (1.99797) LP ( 1) P  1            s( 77.64%)p 0.29( 22.33%)d 0.00(  0.03%)
                                         0.0000  0.0000  0.8807  0.0276  0.0000
                                         0.0000  0.0000  0.0000  0.0000  0.0000
                                         0.0000  0.4725  0.0045  0.0000  0.0000
                                         0.0000  0.0000 -0.0174
  12. (1.99797) LP ( 1) P  2            s( 77.64%)p 0.29( 22.33%)d 0.00(  0.03%)
                                         0.0000  0.0000  0.8807  0.0276  0.0000
                                         0.0000  0.0000  0.0000  0.0000  0.0000
                                         0.0000 -0.4725 -0.0045  0.0000  0.0000
                                         0.0000  0.0000 -0.0174
  13. (2.00000) BD ( 1) P  1- P  2
               ( 50.00%)   0.7071* P  1 s(  0.01%)p 1.00( 99.09%)d 0.01(  0.90%)
                                         0.0000  0.0000  0.0071 -0.0016  0.0000
                                        -0.7512  0.0243  0.0000  0.6523 -0.0211
                                         0.0000 -0.0131 -0.0010  0.0000  0.0717
                                        -0.0623  0.0000  0.0016
               ( 50.00%)   0.7071* P  2 s(  0.01%)p 1.00( 99.09%)d 0.01(  0.90%)
                                         0.0000  0.0000  0.0071 -0.0016  0.0000
                                        -0.7512  0.0243  0.0000  0.6523 -0.0211
                                         0.0000  0.0131  0.0010  0.0000 -0.0717
                                         0.0623  0.0000  0.0016
  14. (2.00000) BD ( 2) P  1- P  2
               ( 50.00%)   0.7071* P  1 s(  0.07%)p99.99( 99.03%)d12.94(  0.90%)
                                         0.0000  0.0000  0.0258 -0.0057  0.0000
                                        -0.6508  0.0210  0.0000 -0.7506  0.0243
                                         0.0000 -0.0475 -0.0038  0.0000  0.0622
                                         0.0717  0.0000  0.0057
               ( 50.00%)   0.7071* P  2 s(  0.07%)p99.99( 99.03%)d12.94(  0.90%)
                                         0.0000  0.0000  0.0258 -0.0057  0.0000
                                        -0.6508  0.0210  0.0000 -0.7506  0.0243
                                         0.0000  0.0475  0.0038  0.0000 -0.0622
                                        -0.0717  0.0000  0.0057
  15. (2.00000) BD ( 3) P  1- P  2
               ( 50.00%)   0.7071* P  1 s( 23.16%)p 3.27( 75.74%)d 0.05(  1.10%)
                                         0.0000  0.0000  0.4701 -0.1031  0.0000
                                         0.0471 -0.0015  0.0000  0.0314 -0.0010
                                         0.0000 -0.8657 -0.0690  0.0000 -0.0045
                                        -0.0030  0.0000  0.1046
               ( 50.00%)   0.7071* P  2 s( 23.16%)p 3.27( 75.74%)d 0.05(  1.10%)
                                         0.0000  0.0000  0.4701 -0.1031  0.0000
                                         0.0471 -0.0015  0.0000  0.0314 -0.0010
                                         0.0000  0.8657  0.0690  0.0000  0.0045
                                         0.0030  0.0000  0.1046
 ---------------- non-Lewis ----------------------------------------------------
  16. (0.00000) BD*( 1) P  1- P  2
               ( 50.00%)   0.7071* P  1 s(  0.01%)p 1.00( 99.09%)d 0.01(  0.90%)
               ( 50.00%)  -0.7071* P  2 s(  0.01%)p 1.00( 99.09%)d 0.01(  0.90%)
  17. (0.00000) BD*( 2) P  1- P  2
               ( 50.00%)   0.7071* P  1 s(  0.07%)p99.99( 99.03%)d12.94(  0.90%)
               ( 50.00%)  -0.7071* P  2 s(  0.07%)p99.99( 99.03%)d12.94(  0.90%)
  18. (0.00000) BD*( 3) P  1- P  2
               ( 50.00%)   0.7071* P  1 s( 23.16%)p 3.27( 75.74%)d 0.05(  1.10%)
               ( 50.00%)  -0.7071* P  2 s( 23.16%)p 3.27( 75.74%)d 0.05(  1.10%)
  19. (0.00203) RY ( 1) P  1            s( 44.20%)p 1.15( 50.97%)d 0.11(  4.83%)
                                         0.0000  0.0000  0.0448  0.6633  0.0000
                                         0.0000  0.0000  0.0000  0.0000  0.0000
                                         0.0000 -0.1371  0.7006  0.0000  0.0000
                                         0.0000  0.0000 -0.2198
  20. (0.00000) RY ( 2) P  1            s(  0.00%)p 0.00(  0.00%)d 1.00(100.00%)
  21. (0.00000) RY ( 3) P  1            s(  0.00%)p 1.00( 20.55%)d 3.87( 79.45%)
  22. (0.00000) RY ( 4) P  1            s(  0.00%)p 1.00( 20.55%)d 3.87( 79.45%)
  23. (0.00000) RY ( 5) P  1            s( 45.61%)p 0.45( 20.46%)d 0.74( 33.93%)
  24. (0.00000) RY ( 6) P  1            s(  0.00%)p 1.00( 80.35%)d 0.24( 19.65%)
  25. (0.00000) RY ( 7) P  1            s(  0.00%)p 1.00( 80.35%)d 0.24( 19.65%)
  26. (0.00000) RY ( 8) P  1            s(  9.31%)p 3.28( 30.58%)d 6.46( 60.11%)
  27. (0.00000) RY ( 9) P  1            s(  0.00%)p 0.00(  0.00%)d 1.00(100.00%)
  28. (0.00203) RY ( 1) P  2            s( 44.20%)p 1.15( 50.97%)d 0.11(  4.83%)
                                         0.0000  0.0000  0.0448  0.6633  0.0000
                                         0.0000  0.0000  0.0000  0.0000  0.0000
                                         0.0000  0.1371 -0.7006  0.0000  0.0000
                                         0.0000  0.0000 -0.2198
  29. (0.00000) RY ( 2) P  2            s(  0.00%)p 0.00(  0.00%)d 1.00(100.00%)
  30. (0.00000) RY ( 3) P  2            s(  0.00%)p 1.00( 20.55%)d 3.87( 79.45%)
  31. (0.00000) RY ( 4) P  2            s(  0.00%)p 1.00( 20.55%)d 3.87( 79.45%)
  32. (0.00000) RY ( 5) P  2            s( 45.61%)p 0.45( 20.46%)d 0.74( 33.93%)
  33. (0.00000) RY ( 6) P  2            s(  0.00%)p 1.00( 80.35%)d 0.24( 19.65%)
  34. (0.00000) RY ( 7) P  2            s(  0.00%)p 1.00( 80.35%)d 0.24( 19.65%)
  35. (0.00000) RY ( 8) P  2            s(  9.31%)p 3.28( 30.58%)d 6.46( 60.11%)
  36. (0.00000) RY ( 9) P  2            s(  0.00%)p 0.00(  0.00%)d 1.00(100.00%)


 NHO DIRECTIONALITY AND BOND BENDING (deviation from line of nuclear centers at
                                      the position of maximum hybrid amplitude)

         [Thresholds for printing:  angular deviation  >  1.0 degree]
                                    p- or d-character  > 25.0%
                                    orbital occupancy  >  0.10e

                        Line of Centers        Hybrid 1             Hybrid 2
                        ---------------  -------------------  ------------------
           NBO            Theta   Phi    Theta   Phi    Dev   Theta   Phi    Dev
 ===============================================================================
  13. BD ( 1) P  1- P  2  180.0    0.0   104.5  139.0  75.5    75.5  139.0  75.5
  14. BD ( 2) P  1- P  2  180.0    0.0   106.5  229.1  73.5    73.5  229.1  73.5
  15. BD ( 3) P  1- P  2  180.0    0.0   176.3   33.7   3.7     3.7   33.7   3.7


 SECOND ORDER PERTURBATION THEORY ANALYSIS OF FOCK MATRIX IN NBO BASIS

     Threshold for printing:   0.50 kcal/mol
                                                          E(2) E(NL)-E(L) F(L,NL)
      Donor (L) NBO              Acceptor (NL) NBO      kcal/mol   a.u.    a.u.
 ===============================================================================

 within unit  1
   11. LP ( 1) P  1            28. RY ( 1) P  2            1.30    1.02   0.032
   12. LP ( 1) P  2            19. RY ( 1) P  1            1.30    1.02   0.032


 NATURAL BOND ORBITALS (Summary):

                                                     Principal Delocalizations
           NBO                 Occupancy    Energy   (geminal,vicinal,remote)
 ===============================================================================
 Molecular unit  1  (P2)
 ------ Lewis --------------------------------------
    1. CR ( 1) P  1             2.00000   -62.24939
    2. CR ( 2) P  1             2.00000   -25.24520
    3. CR ( 3) P  1             2.00000    -5.41526
    4. CR ( 4) P  1             2.00000    -5.41526
    5. CR ( 5) P  1             2.00000    -5.41525
    6. CR ( 1) P  2             2.00000   -62.24939
    7. CR ( 2) P  2             2.00000   -25.24520
    8. CR ( 3) P  2             2.00000    -5.41526
    9. CR ( 4) P  2             2.00000    -5.41526
   10. CR ( 5) P  2             2.00000    -5.41525
   11. LP ( 1) P  1             1.99797    -0.60583  28(v)
   12. LP ( 1) P  2             1.99797    -0.60583  19(v)
   13. BD ( 1) P  1- P  2       2.00000    -0.36761
   14. BD ( 2) P  1- P  2       2.00000    -0.36857
   15. BD ( 3) P  1- P  2       2.00000    -0.71121
 ------ non-Lewis ----------------------------------
   16. BD*( 1) P  1- P  2       0.00000     0.05513
   17. BD*( 2) P  1- P  2       0.00000     0.05617
   18. BD*( 3) P  1- P  2       0.00000     0.42697
   19. RY ( 1) P  1             0.00203     0.41147
   20. RY ( 2) P  1             0.00000     0.90926
   21. RY ( 3) P  1             0.00000     0.88650
   22. RY ( 4) P  1             0.00000     0.88650
   23. RY ( 5) P  1             0.00000     0.78326
   24. RY ( 6) P  1             0.00000     0.53568
   25. RY ( 7) P  1             0.00000     0.53568
   26. RY ( 8) P  1             0.00000     0.87209
   27. RY ( 9) P  1             0.00000     0.90926
   28. RY ( 1) P  2             0.00203     0.41147
   29. RY ( 2) P  2             0.00000     0.90926
   30. RY ( 3) P  2             0.00000     0.88650
   31. RY ( 4) P  2             0.00000     0.88650
   32. RY ( 5) P  2             0.00000     0.78326
   33. RY ( 6) P  2             0.00000     0.53568
   34. RY ( 7) P  2             0.00000     0.53568
   35. RY ( 8) P  2             0.00000     0.87209
   36. RY ( 9) P  2             0.00000     0.90926
          -------------------------------
                 Total Lewis   29.99593  ( 99.9864%)
           Valence non-Lewis    0.00000  (  0.0000%)
           Rydberg non-Lewis    0.00407  (  0.0136%)
          -------------------------------
               Total unit  1   30.00000  (100.0000%)
              Charge unit  1    0.00000

 $CHOOSE
   LONE 1 1 2 1 END
   BOND T 1 2 END
 $END

 NBO analysis completed in 0.34 CPU seconds (1 wall second)
 Maximum scratch memory used by NBO was 363523 words (2.77 MB)
 Maximum scratch memory used by G16NBO was 10274 words (0.08 MB)

 Opening RunExU unformatted file "/cluster/work/users/beto93/mol41/Gau-475818.EUF"
 Read unf file /cluster/work/users/beto93/mol41/Gau-475818.EUF:
 Label Gaussian matrix elements                                         IVers= 2 NLab= 2 Version=ES64L-G16RevC.01
 Title mol41-NBO                                                       
 NAtoms=     2 NBasis=    36 NBsUse=    36 ICharg=     0 Multip=     1 NE=    30 Len12L=8 Len4L=8 IOpCl= 0 ICGU=111
 GAUSSIAN SCALARS                    NI= 1 NR= 1 NTot=       1 LenBuf=    2 NRI=1 N=    1000
 NPA CHARGES                         NI= 0 NR= 1 NTot=       2 LenBuf= 4000 NRI=1 N=       2
 Recovered energy= -681.418262424     dipole=     -0.000000000000      0.000000000000     -0.000000000001
 Unable to Open any file for archive entry.
 1\1\GINC-C1-39\SP\RHF\6-31G(d)\P2\BETO93\18-Nov-2024\0\\#RHF/6-31G* in
 t=nobasistransform Symmetry=None 5D 7F Pop=NBO7Read\\mol41-NBO\\0,1\P,
 0,0.,0.,0.966144\P,0,0.,0.,-0.966144\\Version=ES64L-G16RevC.01\HF=-681
 .4182624\RMSD=4.908e-09\Dipole=0.,0.,0.\Quadrupole=0.066793,0.066793,-
 0.1335861,0.,0.,0.\PG=Unknown\\@
 The archive entry for this job was punched.


 NOTHING WILL BE ATTEMPTED IF ALL POSSIBLE OBJECTIONS
 MUST FIRST BE OVERCOME.

                               -- THE GOLDEN PRINCIPLE,
                    PAUL DICKSON'S "THE OFFICIAL RULES"
 Job cpu time:       0 days  0 hours  0 minutes  6.3 seconds.
 Elapsed time:       0 days  0 hours  0 minutes  2.1 seconds.
 File lengths (MBytes):  RWF=     10 Int=      0 D2E=      0 Chk=      1 Scr=      1
 Normal termination of Gaussian 16 at Mon Nov 18 16:40:07 2024.
