 Entering Gaussian System, Link 0=g16
 Initial command:
 /cluster/software/Gaussian/g16_C.01/l1.exe "/cluster/work/users/beto93/mol62/Gau-508771.inp" -scrdir="/cluster/work/users/beto93/mol62/"
 Entering Link 1 = /cluster/software/Gaussian/g16_C.01/l1.exe PID=    508775.
  
 Copyright (c) 1988-2019, Gaussian, Inc.  All Rights Reserved.
  
 This is part of the Gaussian(R) 16 program.  It is based on
 the Gaussian(R) 09 system (copyright 2009, Gaussian, Inc.),
 the Gaussian(R) 03 system (copyright 2003, Gaussian, Inc.),
 the Gaussian(R) 98 system (copyright 1998, Gaussian, Inc.),
 the Gaussian(R) 94 system (copyright 1995, Gaussian, Inc.),
 the Gaussian 92(TM) system (copyright 1992, Gaussian, Inc.),
 the Gaussian 90(TM) system (copyright 1990, Gaussian, Inc.),
 the Gaussian 88(TM) system (copyright 1988, Gaussian, Inc.),
 the Gaussian 86(TM) system (copyright 1986, Carnegie Mellon
 University), and the Gaussian 82(TM) system (copyright 1983,
 Carnegie Mellon University). Gaussian is a federally registered
 trademark of Gaussian, Inc.
  
 This software contains proprietary and confidential information,
 including trade secrets, belonging to Gaussian, Inc.
  
 This software is provided under written license and may be
 used, copied, transmitted, or stored only in accord with that
 written license.
  
 The following legend is applicable only to US Government
 contracts under FAR:
  
                    RESTRICTED RIGHTS LEGEND
  
 Use, reproduction and disclosure by the US Government is
 subject to restrictions as set forth in subparagraphs (a)
 and (c) of the Commercial Computer Software - Restricted
 Rights clause in FAR 52.227-19.
  
 Gaussian, Inc.
 340 Quinnipiac St., Bldg. 40, Wallingford CT 06492
  
  
 ---------------------------------------------------------------
 Warning -- This program may not be used in any manner that
 competes with the business of Gaussian, Inc. or will provide
 assistance to any competitor of Gaussian, Inc.  The licensee
 of this program is prohibited from giving any competitor of
 Gaussian, Inc. access to this program.  By using this program,
 the user acknowledges that Gaussian, Inc. is engaged in the
 business of creating and licensing software in the field of
 computational chemistry and represents and warrants to the
 licensee that it is not a competitor of Gaussian, Inc. and that
 it will not use this program in any manner prohibited above.
 ---------------------------------------------------------------
  

 Cite this work as:
 Gaussian 16, Revision C.01,
 M. J. Frisch, G. W. Trucks, H. B. Schlegel, G. E. Scuseria, 
 M. A. Robb, J. R. Cheeseman, G. Scalmani, V. Barone, 
 G. A. Petersson, H. Nakatsuji, X. Li, M. Caricato, A. V. Marenich, 
 J. Bloino, B. G. Janesko, R. Gomperts, B. Mennucci, H. P. Hratchian, 
 J. V. Ortiz, A. F. Izmaylov, J. L. Sonnenberg, D. Williams-Young, 
 F. Ding, F. Lipparini, F. Egidi, J. Goings, B. Peng, A. Petrone, 
 T. Henderson, D. Ranasinghe, V. G. Zakrzewski, J. Gao, N. Rega, 
 G. Zheng, W. Liang, M. Hada, M. Ehara, K. Toyota, R. Fukuda, 
 J. Hasegawa, M. Ishida, T. Nakajima, Y. Honda, O. Kitao, H. Nakai, 
 T. Vreven, K. Throssell, J. A. Montgomery, Jr., J. E. Peralta, 
 F. Ogliaro, M. J. Bearpark, J. J. Heyd, E. N. Brothers, K. N. Kudin, 
 V. N. Staroverov, T. A. Keith, R. Kobayashi, J. Normand, 
 K. Raghavachari, A. P. Rendell, J. C. Burant, S. S. Iyengar, 
 J. Tomasi, M. Cossi, J. M. Millam, M. Klene, C. Adamo, R. Cammi, 
 J. W. Ochterski, R. L. Martin, K. Morokuma, O. Farkas, 
 J. B. Foresman, and D. J. Fox, Gaussian, Inc., Wallingford CT, 2019.
 
 ******************************************
 Gaussian 16:  ES64L-G16RevC.01  3-Jul-2019
                18-Nov-2024 
 ******************************************
 %LindaWorkers=c1-41-ib
 %NProcShared=4
 Will use up to    4 processors via shared memory.
 %mem=25GB
 %chk=mol62.chk
 SetLPE:    new flags="-opt 'Tsnet.Node.lindarsharg: ssh'  -nodelist 'c1-41-ib.saga' -env GAUSS_MDEF=3355443200 -env GAUSS_EXEDIR="/cluster/software/Gaussian/g16_C.01/bsd:/cluster/software/Gaussian/g16_C.01""
 Will use up to    1 processors via Linda.
 -----------------------------------------------------------------
 #RHF/STO-3G int=nobasistransform Symmetry=None 5D 7F Pop=NBO7Read
 -----------------------------------------------------------------
 1/38=1,163=2,172=1/1;
 2/12=2,15=3,17=6,18=5,40=1/2;
 3/6=3,8=11,11=1,25=1,30=1,60=-1,116=1/1,2,3;
 4//1;
 5/5=2,38=5/2;
 6/7=2,8=2,9=2,10=2,28=1,40=2,113=1,114=1,124=2103/1,12;
 99/5=1,9=1/99;
 ---------
 mol62-NBO
 ---------
 Symbolic Z-matrix:
 Charge =  0 Multiplicity = 1
 S                     0.        0.        1.56112 
 C                     0.        0.        0. 
 S                     0.        0.       -1.56112 
 
                          Input orientation:                          
 ---------------------------------------------------------------------
 Center     Atomic      Atomic             Coordinates (Angstroms)
 Number     Number       Type             X           Y           Z
 ---------------------------------------------------------------------
      1         16           0        0.000000    0.000000    1.561117
      2          6           0        0.000000    0.000000    0.000000
      3         16           0        0.000000    0.000000   -1.561117
 ---------------------------------------------------------------------
                    Distance matrix (angstroms):
                    1          2          3
     1  S    0.000000
     2  C    1.561117   0.000000
     3  S    3.122234   1.561117   0.000000
 Symmetry turned off by external request.
 Stoichiometry    CS2
 Rotational constants (GHZ):           0.0000000           3.2429893           3.2429893
 Standard basis: STO-3G (5D, 7F)
    23 basis functions,    69 primitive gaussians,    23 cartesian basis functions
    19 alpha electrons       19 beta electrons
       nuclear repulsion energy       108.4715030932 Hartrees.
 NAtoms=    3 NActive=    3 NUniq=    3 SFac= 1.00D+00 NAtFMM=   60 NAOKFM=F Big=F
 Integral buffers will be    131072 words long.
 Raffenetti 1 integral format.
 Two-electron integral symmetry is turned off.
 One-electron integrals computed using PRISM.
 NBasis=    23 RedAO= T EigKep=  2.51D-01  NBF=    23
 NBsUse=    23 1.00D-06 EigRej= -1.00D+00 NBFU=    23
 ExpMin= 2.22D-01 ExpMax= 5.33D+02 ExpMxC= 5.33D+02 IAcc=3 IRadAn=         5 AccDes= 0.00D+00
 Harris functional with IExCor=  205 and IRadAn=       5 diagonalized for initial guess.
 HarFok:  IExCor=  205 AccDes= 0.00D+00 IRadAn=         5 IDoV= 1 UseB2=F ITyADJ=14
 ICtDFT=  3500011 ScaDFX=  1.000000  1.000000  1.000000  1.000000
 FoFCou: FMM=F IPFlag=           0 FMFlag=      100000 FMFlg1=           0
         NFxFlg=           0 DoJE=T BraDBF=F KetDBF=T FulRan=T
         wScrn=  0.000000 ICntrl=       500 IOpCl=  0 I1Cent=   200000004 NGrid=           0
         NMat0=    1 NMatS0=      1 NMatT0=    0 NMatD0=    1 NMtDS0=    0 NMtDT0=    0
 Symmetry not used in FoFCou.
 Keep R1 ints in memory in canonical form, NReq=843911.
 Requested convergence on RMS density matrix=1.00D-08 within 128 cycles.
 Requested convergence on MAX density matrix=1.00D-06.
 Requested convergence on             energy=1.00D-06.
 No special actions if energy rises.
 SCF Done:  E(RHF) =  -823.721873859     A.U. after    8 cycles
            NFock=  8  Conv=0.53D-08     -V/T= 2.0114

 **********************************************************************

            Population analysis using the SCF Density.

 **********************************************************************

 Alpha  occ. eigenvalues --  -90.73670 -90.73669 -11.07783  -8.64492  -8.64473
 Alpha  occ. eigenvalues --   -6.27699  -6.27674  -6.27320  -6.27320  -6.27300
 Alpha  occ. eigenvalues --   -6.27300  -1.03083  -0.90041  -0.54943  -0.43770
 Alpha  occ. eigenvalues --   -0.41653  -0.41653  -0.23238  -0.23238
 Alpha virt. eigenvalues --    0.23917   0.23917   0.48725   0.83122
          Condensed to atoms (all electrons):
               1          2          3
     1  S   15.477613   0.424556  -0.012384
     2  C    0.424556   5.371316   0.424556
     3  S   -0.012384   0.424556  15.477613
 Mulliken charges:
               1
     1  S    0.110215
     2  C   -0.220429
     3  S    0.110215
 Sum of Mulliken charges =   0.00000
 Mulliken charges with hydrogens summed into heavy atoms:
               1
     1  S    0.110215
     2  C   -0.220429
     3  S    0.110215
 Electronic spatial extent (au):  <R**2>=            338.8986
 Charge=              0.0000 electrons
 Dipole moment (field-independent basis, Debye):
    X=             -0.0000    Y=              0.0000    Z=             -0.0000  Tot=              0.0000
 Quadrupole moment (field-independent basis, Debye-Ang):
   XX=            -26.2592   YY=            -26.2592   ZZ=            -28.7254
   XY=             -0.0000   XZ=              0.0000   YZ=              0.0000
 Traceless Quadrupole moment (field-independent basis, Debye-Ang):
   XX=              0.8220   YY=              0.8220   ZZ=             -1.6441
   XY=             -0.0000   XZ=              0.0000   YZ=              0.0000
 Octapole moment (field-independent basis, Debye-Ang**2):
  XXX=             -0.0000  YYY=              0.0000  ZZZ=             -0.0000  XYY=             -0.0000
  XXY=              0.0000  XXZ=             -0.0000  XZZ=             -0.0000  YZZ=              0.0000
  YYZ=             -0.0000  XYZ=              0.0000
 Hexadecapole moment (field-independent basis, Debye-Ang**3):
 XXXX=            -22.4797 YYYY=            -22.4797 ZZZZ=           -334.3479 XXXY=             -0.0000
 XXXZ=              0.0000 YYYX=             -0.0000 YYYZ=              0.0000 ZZZX=              0.0000
 ZZZY=              0.0000 XXYY=             -7.4932 XXZZ=            -60.1405 YYZZ=            -60.1405
 XXYZ=              0.0000 YYXZ=              0.0000 ZZXY=             -0.0000
 N-N= 1.084715030932D+02 E-N=-2.175438256970D+03  KE= 8.144579056958D+02
 Running external command "gaunbo7 R"
         input file       "/cluster/work/users/beto93/mol62/Gau-508775.EIn"
         output file      "/cluster/work/users/beto93/mol62/Gau-508775.EOu"
         message file     "/cluster/work/users/beto93/mol62/Gau-508775.EMs"
         fchk file        "/cluster/work/users/beto93/mol62/Gau-508775.EFC"
         mat. el file     "/cluster/work/users/beto93/mol62/Gau-508775.EUF"

 Writing WrtUnf unformatted file "/cluster/work/users/beto93/mol62/Gau-508775.EUF"
 Gaussian matrix elements                                         Version   2 NLab=11 Len12L=8 Len4L=8
 Write SHELL TO ATOM MAP                   from file      0 offset           0 length                   8 to matrix element file.
 Write SHELL TYPES                         from file      0 offset           0 length                   8 to matrix element file.
 Write NUMBER OF PRIMITIVES PER SHELL      from file      0 offset           0 length                   8 to matrix element file.
 Write PRIMITIVE EXPONENTS                 from file      0 offset           0 length                  24 to matrix element file.
 Write CONTRACTION COEFFICIENTS            from file      0 offset           0 length                  24 to matrix element file.
 Write P(S=P) CONTRACTION COEFFICIENTS     from file      0 offset           0 length                  24 to matrix element file.
 Write COORDINATES OF EACH SHELL           from file      0 offset           0 length                  24 to matrix element file.
 Write BONDS PER ATOM                      from file      0 offset           0 length                   3 to matrix element file.
 Write BONDED ATOMS                        from file      0 offset           0 length                   4 to matrix element file.
 Write BOND TYPES                          from file      0 offset           0 length                   4 to matrix element file.
 Write ONIOM CHARGE/MULT                   from file      0 offset           0 length                  32 to matrix element file.
 Write ONIOM ATOM LAYERS                   from file      0 offset           0 length                   3 to matrix element file.
 Write ONIOM ATOM MODIFIERS                from file      0 offset           0 length                   3 to matrix element file.
 Write ONIOM ATOM TYPES                    from file      0 offset           0 length                   3 to matrix element file.
 Write ONIOM LINK ATOMS                    from file      0 offset           0 length                   3 to matrix element file.
 Write ONIOM LINK CHARGES                  from file      0 offset           0 length                   3 to matrix element file.
 Write ONIOM LINK DISTANCES                from file      0 offset           0 length                  12 to matrix element file.
 Write SYMINF INTS                         from file      0 offset           0 length                  26 to matrix element file.
 Write ROTTR TO SO                         from file      0 offset           0 length                  12 to matrix element file.
 Write GAUSSIAN SCALARS                    from file    501 offset           0 to matrix element file.
 Write OPTIMIZATION FLAGS                  from file      0 offset           0 length                   3 to matrix element file.
 Write INTEGER ISO                         from file      0 offset           0 length                   3 to matrix element file.
 Write REAL ZEFFECTIVE                     from file      0 offset           0 length                   3 to matrix element file.
 Write REAL ZNUCLEAR                       from file      0 offset           0 length                   3 to matrix element file.
 Write MULLIKEN CHARGES                    from file      0 offset           0 length                   3 to matrix element file.
 Write NUCLEAR GRADIENT                    from file  10584 offset           0 length                   9 to matrix element file.
 Array NUCLEAR FORCE CONSTANTS              on  file  10585 does not exist.
 Write ELECTRIC DIPOLE MOMENT              from file      0 offset           0 length                   3 to matrix element file.
 Write NON-ADIABATIC COUPLING              from file  10810 offset           0 length                   9 to matrix element file.
 Write FINITE EM FIELD                     from file  10521 offset           0 length                  35 to matrix element file.
 Write OVERLAP                             from file  10514 offset           0 length                 276 to matrix element file.
 Write CORE HAMILTONIAN ALPHA              from file  10515 offset           0 length                 276 to matrix element file.
 Write CORE HAMILTONIAN BETA               from file  10515 offset         276 length                 276 to matrix element file.
 Write KINETIC ENERGY                      from file  10516 offset           0 length                 276 to matrix element file.
 Write ORTHOGONAL BASIS                    from file  10685 offset           0 length                 529 to matrix element file.
 Write DIPOLE INTEGRALS                    from file  10518 offset           0 length                 828 to matrix element file.
 Array DIP VEL INTEGRALS                    on  file  10572 does not exist.
 Array R X DEL INTEGRALS                    on  file  10572 does not exist.
 Write ALPHA ORBITAL ENERGIES              from file      0 offset           0 length                  23 to matrix element file.
 Write ALPHA MO COEFFICIENTS               from file  10524 offset           0 length                 529 to matrix element file.
 Write ALPHA DENSITY MATRIX                from file      0 offset           0 length                 276 to matrix element file.
 Write ALPHA FOCK MATRIX                   from file  10536 offset           0 length                 276 to matrix element file.
 Write ENERGY-WEIGHTED DENSITY             from file  10571 offset           0 length                 276 to matrix element file.
 Write ALPHA SCF DENSITY MATRIX            from file      0 offset           0 length                 276 to matrix element file.
 No 2e integrals to process.
 Perform NBO analysis...executing G16NBO...

 *********************************** NBO 7.0 ***********************************
             N A T U R A L   A T O M I C   O R B I T A L   A N D
          N A T U R A L   B O N D   O R B I T A L   A N A L Y S I S
 **************************** Espen Tangen (S101595) ***************************
  (c) Copyright 1996-2021 Board of Regents of the University of Wisconsin System
      on behalf of the Theoretical Chemistry Institute.  All rights reserved.

          Cite this program [NBO 7.0.10 (8-Feb-2021)] as:

          NBO 7.0.  E. D. Glendening, J. K. Badenhoop, A. E. Reed,
          J. E. Carpenter, J. A. Bohmann, C. M. Morales, P. Karafiloglou,
          C. R. Landis, and F. Weinhold, Theoretical Chemistry Institute,
          University of Wisconsin, Madison, WI (2018)

       /NPA    / : Natural Population Analysis
       /AOPNAO / : Print the AO to PNAO transformation
       /AONAO  / : Print the AO to NAO transformation
       /AOMO   / : Print the MOs in the AO basis
       /BOAO   / : Print the AO bond-order matrix
       /DMAO   / : Print the AO density matrix
       /DMPNAO / : Print the PNAO density matrix
       /DMNAO  / : Print the NAO density matrix
       /DMMO   / : Print the MO density matrix
       /SAO    / : Print the AO overlap matrix
       /SPNAO  / : Print the PNAO overlap matrix
       /DETAIL / : Write details of NBO search
       /ARCHIVE/ : Write the archive file to lfn47
       /AOINFO / : Write AO information to lfn31
       /FILE   / : Set to mol62.gen*

 Filename set to mol62.gen1

 Job title: mol62-NBO


 MOs in the AO basis:

           AO          1       2       3       4       5       6       7       8
      ------------ ------- ------- ------- ------- ------- ------- ------- -------
   1.  S 1 (s)      0.7030  0.7030 -0.0001 -0.2598 -0.2598 -0.0045 -0.0044  0.0000
   2.  S 1 (s)      0.0121  0.0121  0.0000  0.7404  0.7405  0.0130  0.0128  0.0000
   3.  S 1 (px)     0.0000  0.0000  0.0000  0.0000  0.0000  0.0000  0.0000  0.0728
   4.  S 1 (py)     0.0000  0.0000  0.0000  0.0000  0.0000  0.0000  0.0000  0.6929
   5.  S 1 (pz)    -0.0001 -0.0002 -0.0005 -0.0096 -0.0096  0.6947  0.6948  0.0000
   6.  S 1 (s)     -0.0017 -0.0018 -0.0056  0.0375  0.0375 -0.0085 -0.0084  0.0000
   7.  S 1 (px)     0.0000  0.0000  0.0000  0.0000  0.0000  0.0000  0.0000  0.0039
   8.  S 1 (py)     0.0000  0.0000  0.0000  0.0000  0.0000  0.0000  0.0000  0.0370
   9.  S 1 (pz)     0.0004  0.0004  0.0048 -0.0070 -0.0069  0.0459  0.0458  0.0000
  10.  C 2 (s)     -0.0001  0.0000  0.9928  0.0012  0.0000 -0.0010  0.0000  0.0000
  11.  C 2 (s)      0.0010  0.0000  0.0315 -0.0175  0.0000  0.0266  0.0000  0.0000
  12.  C 2 (px)     0.0000  0.0000  0.0000  0.0000  0.0000  0.0000  0.0000 -0.0008
  13.  C 2 (py)     0.0000  0.0000  0.0000  0.0000  0.0000  0.0000  0.0000 -0.0076
  14.  C 2 (pz)     0.0000  0.0008  0.0000  0.0000 -0.0116  0.0000  0.0169  0.0000
  15.  S 3 (s)      0.7030 -0.7030 -0.0001 -0.2598  0.2598 -0.0045  0.0044  0.0000
  16.  S 3 (s)      0.0121 -0.0121  0.0000  0.7404 -0.7405  0.0130 -0.0128  0.0000
  17.  S 3 (px)     0.0000  0.0000  0.0000  0.0000  0.0000  0.0000  0.0000  0.0728
  18.  S 3 (py)     0.0000  0.0000  0.0000  0.0000  0.0000  0.0000  0.0000  0.6929
  19.  S 3 (pz)     0.0001 -0.0002  0.0005  0.0096 -0.0096 -0.6947  0.6948  0.0000
  20.  S 3 (s)     -0.0017  0.0018 -0.0056  0.0375 -0.0375 -0.0085  0.0084  0.0000
  21.  S 3 (px)     0.0000  0.0000  0.0000  0.0000  0.0000  0.0000  0.0000  0.0039
  22.  S 3 (py)     0.0000  0.0000  0.0000  0.0000  0.0000  0.0000  0.0000  0.0370
  23.  S 3 (pz)    -0.0004  0.0004 -0.0048  0.0070 -0.0069 -0.0459  0.0458  0.0000

           AO          9      10      11      12      13      14      15      16
      ------------ ------- ------- ------- ------- ------- ------- ------- -------
   1.  S 1 (s)      0.0000  0.0000  0.0000  0.0455  0.0594  0.0498 -0.0313  0.0000
   2.  S 1 (s)      0.0000  0.0000  0.0000 -0.1580 -0.2052 -0.1612  0.0959  0.0000
   3.  S 1 (px)     0.6929  0.5455 -0.4338  0.0000  0.0000  0.0000  0.0000  0.0361
   4.  S 1 (py)    -0.0728  0.4338  0.5455  0.0000  0.0000  0.0000  0.0000 -0.1537
   5.  S 1 (pz)     0.0000  0.0000  0.0000  0.0567  0.0455 -0.1090  0.1573  0.0000
   6.  S 1 (s)      0.0000  0.0000  0.0000  0.4053  0.5481  0.6158 -0.4592  0.0000
   7.  S 1 (px)     0.0370  0.0283 -0.0225  0.0000  0.0000  0.0000  0.0000 -0.1124
   8.  S 1 (py)    -0.0039  0.0225  0.0283  0.0000  0.0000  0.0000  0.0000  0.4783
   9.  S 1 (pz)     0.0000  0.0000  0.0000 -0.1227 -0.0861  0.2973 -0.4294  0.0000
  10.  C 2 (s)      0.0000  0.0000  0.0000 -0.1927  0.0000  0.1475  0.0000  0.0000
  11.  C 2 (s)      0.0000  0.0000  0.0000  0.5472  0.0000 -0.5777  0.0000  0.0000
  12.  C 2 (px)    -0.0076  0.0000  0.0000  0.0000  0.0000  0.0000  0.0000 -0.1327
  13.  C 2 (py)     0.0008  0.0000  0.0000  0.0000  0.0000  0.0000  0.0000  0.5643
  14.  C 2 (pz)     0.0000  0.0000  0.0000  0.0000  0.3648  0.0000  0.5288  0.0000
  15.  S 3 (s)      0.0000  0.0000  0.0000  0.0455 -0.0594  0.0498  0.0313  0.0000
  16.  S 3 (s)      0.0000  0.0000  0.0000 -0.1580  0.2052 -0.1612 -0.0959  0.0000
  17.  S 3 (px)     0.6929 -0.5455  0.4338  0.0000  0.0000  0.0000  0.0000  0.0361
  18.  S 3 (py)    -0.0728 -0.4338 -0.5455  0.0000  0.0000  0.0000  0.0000 -0.1537
  19.  S 3 (pz)     0.0000  0.0000  0.0000 -0.0567  0.0455  0.1090  0.1573  0.0000
  20.  S 3 (s)      0.0000  0.0000  0.0000  0.4053 -0.5481  0.6158  0.4592  0.0000
  21.  S 3 (px)     0.0370 -0.0283  0.0225  0.0000  0.0000  0.0000  0.0000 -0.1124
  22.  S 3 (py)    -0.0039 -0.0225 -0.0283  0.0000  0.0000  0.0000  0.0000  0.4783
  23.  S 3 (pz)     0.0000  0.0000  0.0000  0.1227 -0.0861 -0.2973 -0.4294  0.0000

           AO         17      18      19      20      21      22      23
      ------------ ------- ------- ------- ------- ------- ------- -------
   1.  S 1 (s)      0.0000  0.0000  0.0000  0.0000  0.0000 -0.0250 -0.0252
   2.  S 1 (s)      0.0000  0.0000  0.0000  0.0000  0.0000  0.0713  0.0615
   3.  S 1 (px)    -0.1537 -0.0526 -0.2173  0.0628  0.1505  0.0000  0.0000
   4.  S 1 (py)    -0.0361 -0.2173  0.0526  0.1505 -0.0628  0.0000  0.0000
   5.  S 1 (pz)     0.0000  0.0000  0.0000  0.0000  0.0000 -0.2171 -0.1911
   6.  S 1 (s)      0.0000  0.0000  0.0000  0.0000  0.0000 -0.4346 -0.5747
   7.  S 1 (px)     0.4783  0.1724  0.7127 -0.2214 -0.5302  0.0000  0.0000
   8.  S 1 (py)     0.1124  0.7127 -0.1724 -0.5302  0.2214  0.0000  0.0000
   9.  S 1 (pz)     0.0000  0.0000  0.0000  0.0000  0.0000  0.8308  0.8364
  10.  C 2 (s)      0.0000  0.0000  0.0000  0.0000  0.0000 -0.1965  0.0000
  11.  C 2 (s)      0.0000  0.0000  0.0000  0.0000  0.0000  1.2160  0.0000
  12.  C 2 (px)     0.5643  0.0000  0.0000  0.3317  0.7944  0.0000  0.0000
  13.  C 2 (py)     0.1327  0.0000  0.0000  0.7944 -0.3317  0.0000  0.0000
  14.  C 2 (pz)     0.0000  0.0000  0.0000  0.0000  0.0000  0.0000  1.3068
  15.  S 3 (s)      0.0000  0.0000  0.0000  0.0000  0.0000 -0.0250  0.0252
  16.  S 3 (s)      0.0000  0.0000  0.0000  0.0000  0.0000  0.0713 -0.0615
  17.  S 3 (px)    -0.1537  0.0526  0.2173  0.0628  0.1505  0.0000  0.0000
  18.  S 3 (py)    -0.0361  0.2173 -0.0526  0.1505 -0.0628  0.0000  0.0000
  19.  S 3 (pz)     0.0000  0.0000  0.0000  0.0000  0.0000  0.2171 -0.1911
  20.  S 3 (s)      0.0000  0.0000  0.0000  0.0000  0.0000 -0.4346  0.5747
  21.  S 3 (px)     0.4783 -0.1724 -0.7127 -0.2214 -0.5302  0.0000  0.0000
  22.  S 3 (py)     0.1124 -0.7127  0.1724 -0.5302  0.2214  0.0000  0.0000
  23.  S 3 (pz)     0.0000  0.0000  0.0000  0.0000  0.0000 -0.8308  0.8364


 AO overlap matrix:

           AO          1       2       3       4       5       6       7       8
      ------------ ------- ------- ------- ------- ------- ------- ------- -------
   1.  S 1 (s)      1.0000  0.3355  0.0000  0.0000  0.0000  0.0143  0.0000  0.0000
   2.  S 1 (s)      0.3355  1.0000  0.0000  0.0000  0.0000  0.2431  0.0000  0.0000
   3.  S 1 (px)     0.0000  0.0000  1.0000  0.0000  0.0000  0.0000  0.2574  0.0000
   4.  S 1 (py)     0.0000  0.0000  0.0000  1.0000  0.0000  0.0000  0.0000  0.2574
   5.  S 1 (pz)     0.0000  0.0000  0.0000  0.0000  1.0000  0.0000  0.0000  0.0000
   6.  S 1 (s)      0.0143  0.2431  0.0000  0.0000  0.0000  1.0000  0.0000  0.0000
   7.  S 1 (px)     0.0000  0.0000  0.2574  0.0000  0.0000  0.0000  1.0000  0.0000
   8.  S 1 (py)     0.0000  0.0000  0.0000  0.2574  0.0000  0.0000  0.0000  1.0000
   9.  S 1 (pz)     0.0000  0.0000  0.0000  0.0000  0.2574  0.0000  0.0000  0.0000
  10.  C 2 (s)      0.0000  0.0000  0.0000  0.0000  0.0000  0.0324  0.0000  0.0000
  11.  C 2 (s)      0.0054  0.0430  0.0000  0.0000 -0.0228  0.3276  0.0000  0.0000
  12.  C 2 (px)     0.0000  0.0000  0.0098  0.0000  0.0000  0.0000  0.1858  0.0000
  13.  C 2 (py)     0.0000  0.0000  0.0000  0.0098  0.0000  0.0000  0.0000  0.1858
  14.  C 2 (pz)     0.0092  0.0720  0.0000  0.0000 -0.0359  0.3506  0.0000  0.0000
  15.  S 3 (s)      0.0000  0.0000  0.0000  0.0000  0.0000  0.0000  0.0000  0.0000
  16.  S 3 (s)      0.0000  0.0000  0.0000  0.0000  0.0000  0.0002  0.0000  0.0000
  17.  S 3 (px)     0.0000  0.0000  0.0000  0.0000  0.0000  0.0000  0.0000  0.0000
  18.  S 3 (py)     0.0000  0.0000  0.0000  0.0000  0.0000  0.0000  0.0000  0.0000
  19.  S 3 (pz)     0.0000  0.0000  0.0000  0.0000  0.0000  0.0002  0.0000  0.0000
  20.  S 3 (s)      0.0000  0.0002  0.0000  0.0000 -0.0002  0.0183  0.0000  0.0000
  21.  S 3 (px)     0.0000  0.0000  0.0000  0.0000  0.0000  0.0000  0.0062  0.0000
  22.  S 3 (py)     0.0000  0.0000  0.0000  0.0000  0.0000  0.0000  0.0000  0.0062
  23.  S 3 (pz)     0.0001  0.0007  0.0000  0.0000 -0.0006  0.0301  0.0000  0.0000

           AO          9      10      11      12      13      14      15      16
      ------------ ------- ------- ------- ------- ------- ------- ------- -------
   1.  S 1 (s)      0.0000  0.0000  0.0054  0.0000  0.0000  0.0092  0.0000  0.0000
   2.  S 1 (s)      0.0000  0.0000  0.0430  0.0000  0.0000  0.0720  0.0000  0.0000
   3.  S 1 (px)     0.0000  0.0000  0.0000  0.0098  0.0000  0.0000  0.0000  0.0000
   4.  S 1 (py)     0.0000  0.0000  0.0000  0.0000  0.0098  0.0000  0.0000  0.0000
   5.  S 1 (pz)     0.2574  0.0000 -0.0228  0.0000  0.0000 -0.0359  0.0000  0.0000
   6.  S 1 (s)      0.0000  0.0324  0.3276  0.0000  0.0000  0.3506  0.0000  0.0002
   7.  S 1 (px)     0.0000  0.0000  0.0000  0.1858  0.0000  0.0000  0.0000  0.0000
   8.  S 1 (py)     0.0000  0.0000  0.0000  0.0000  0.1858  0.0000  0.0000  0.0000
   9.  S 1 (pz)     1.0000 -0.0541 -0.3841  0.0000  0.0000 -0.3473 -0.0001 -0.0007
  10.  C 2 (s)     -0.0541  1.0000  0.2484  0.0000  0.0000  0.0000  0.0000  0.0000
  11.  C 2 (s)     -0.3841  0.2484  1.0000  0.0000  0.0000  0.0000  0.0054  0.0430
  12.  C 2 (px)     0.0000  0.0000  0.0000  1.0000  0.0000  0.0000  0.0000  0.0000
  13.  C 2 (py)     0.0000  0.0000  0.0000  0.0000  1.0000  0.0000  0.0000  0.0000
  14.  C 2 (pz)    -0.3473  0.0000  0.0000  0.0000  0.0000  1.0000 -0.0092 -0.0720
  15.  S 3 (s)     -0.0001  0.0000  0.0054  0.0000  0.0000 -0.0092  1.0000  0.3355
  16.  S 3 (s)     -0.0007  0.0000  0.0430  0.0000  0.0000 -0.0720  0.3355  1.0000
  17.  S 3 (px)     0.0000  0.0000  0.0000  0.0098  0.0000  0.0000  0.0000  0.0000
  18.  S 3 (py)     0.0000  0.0000  0.0000  0.0000  0.0098  0.0000  0.0000  0.0000
  19.  S 3 (pz)    -0.0006  0.0000  0.0228  0.0000  0.0000 -0.0359  0.0000  0.0000
  20.  S 3 (s)     -0.0301  0.0324  0.3276  0.0000  0.0000 -0.3506  0.0143  0.2431
  21.  S 3 (px)     0.0000  0.0000  0.0000  0.1858  0.0000  0.0000  0.0000  0.0000
  22.  S 3 (py)     0.0000  0.0000  0.0000  0.0000  0.1858  0.0000  0.0000  0.0000
  23.  S 3 (pz)    -0.0473  0.0541  0.3841  0.0000  0.0000 -0.3473  0.0000  0.0000

           AO         17      18      19      20      21      22      23
      ------------ ------- ------- ------- ------- ------- ------- -------
   1.  S 1 (s)      0.0000  0.0000  0.0000  0.0000  0.0000  0.0000  0.0001
   2.  S 1 (s)      0.0000  0.0000  0.0000  0.0002  0.0000  0.0000  0.0007
   3.  S 1 (px)     0.0000  0.0000  0.0000  0.0000  0.0000  0.0000  0.0000
   4.  S 1 (py)     0.0000  0.0000  0.0000  0.0000  0.0000  0.0000  0.0000
   5.  S 1 (pz)     0.0000  0.0000  0.0000 -0.0002  0.0000  0.0000 -0.0006
   6.  S 1 (s)      0.0000  0.0000  0.0002  0.0183  0.0000  0.0000  0.0301
   7.  S 1 (px)     0.0000  0.0000  0.0000  0.0000  0.0062  0.0000  0.0000
   8.  S 1 (py)     0.0000  0.0000  0.0000  0.0000  0.0000  0.0062  0.0000
   9.  S 1 (pz)     0.0000  0.0000 -0.0006 -0.0301  0.0000  0.0000 -0.0473
  10.  C 2 (s)      0.0000  0.0000  0.0000  0.0324  0.0000  0.0000  0.0541
  11.  C 2 (s)      0.0000  0.0000  0.0228  0.3276  0.0000  0.0000  0.3841
  12.  C 2 (px)     0.0098  0.0000  0.0000  0.0000  0.1858  0.0000  0.0000
  13.  C 2 (py)     0.0000  0.0098  0.0000  0.0000  0.0000  0.1858  0.0000
  14.  C 2 (pz)     0.0000  0.0000 -0.0359 -0.3506  0.0000  0.0000 -0.3473
  15.  S 3 (s)      0.0000  0.0000  0.0000  0.0143  0.0000  0.0000  0.0000
  16.  S 3 (s)      0.0000  0.0000  0.0000  0.2431  0.0000  0.0000  0.0000
  17.  S 3 (px)     1.0000  0.0000  0.0000  0.0000  0.2574  0.0000  0.0000
  18.  S 3 (py)     0.0000  1.0000  0.0000  0.0000  0.0000  0.2574  0.0000
  19.  S 3 (pz)     0.0000  0.0000  1.0000  0.0000  0.0000  0.0000  0.2574
  20.  S 3 (s)      0.0000  0.0000  0.0000  1.0000  0.0000  0.0000  0.0000
  21.  S 3 (px)     0.2574  0.0000  0.0000  0.0000  1.0000  0.0000  0.0000
  22.  S 3 (py)     0.0000  0.2574  0.0000  0.0000  0.0000  1.0000  0.0000
  23.  S 3 (pz)     0.0000  0.0000  0.2574  0.0000  0.0000  0.0000  1.0000


 AO bond-order matrix:

           AO          1       2       3       4       5       6       7       8
      ------------ ------- ------- ------- ------- ------- ------- ------- -------
   1.  S 1 (s)      2.2649 -0.7965  0.0000  0.0000 -0.0130  0.1483  0.0000  0.0000
   2.  S 1 (s)     -0.7965  2.3988  0.0000  0.0000  0.0361 -0.5292  0.0000  0.0000
   3.  S 1 (px)     0.0000  0.0000  2.0922  0.0000  0.0000  0.0000 -0.3808  0.0000
   4.  S 1 (py)     0.0000  0.0000  0.0000  2.0922  0.0000  0.0000  0.0000 -0.3808
   5.  S 1 (pz)    -0.0130  0.0361  0.0000  0.0000  2.0151 -0.2077  0.0000  0.0000
   6.  S 1 (s)      0.1483 -0.5292  0.0000  0.0000 -0.2077  2.1157  0.0000  0.0000
   7.  S 1 (px)     0.0000  0.0000 -0.3808  0.0000  0.0000  0.0000  1.5637  0.0000
   8.  S 1 (py)     0.0000  0.0000  0.0000 -0.3808  0.0000  0.0000  0.0000  1.5637
   9.  S 1 (pz)     0.0426 -0.1224  0.0000  0.0000 -0.0938  0.5641  0.0000  0.0000
  10.  C 2 (s)     -0.0038  0.0151  0.0000  0.0000 -0.0565  0.0143  0.0000  0.0000
  11.  C 2 (s)      0.0025 -0.0118  0.0000  0.0000  0.2252 -0.2700  0.0000  0.0000
  12.  C 2 (px)     0.0000  0.0000 -0.1938  0.0000  0.0000  0.0000  0.5691  0.0000
  13.  C 2 (py)     0.0000  0.0000  0.0000 -0.1938  0.0000  0.0000  0.0000  0.5691
  14.  C 2 (pz)     0.0173 -0.0650  0.0000  0.0000  0.2232 -0.0869  0.0000  0.0000
  15.  S 3 (s)      0.0001  0.0001  0.0000  0.0000 -0.0013  0.0045  0.0000  0.0000
  16.  S 3 (s)      0.0001 -0.0011  0.0000  0.0000  0.0061 -0.0135  0.0000  0.0000
  17.  S 3 (px)     0.0000  0.0000 -0.0506  0.0000  0.0000  0.0000  0.1740  0.0000
  18.  S 3 (py)     0.0000  0.0000  0.0000 -0.0506  0.0000  0.0000  0.0000  0.1740
  19.  S 3 (pz)     0.0013 -0.0061  0.0000  0.0000  0.0237 -0.0062  0.0000  0.0000
  20.  S 3 (s)      0.0045 -0.0135  0.0000  0.0000  0.0062  0.0645  0.0000  0.0000
  21.  S 3 (px)     0.0000  0.0000  0.1740  0.0000  0.0000  0.0000 -0.5924  0.0000
  22.  S 3 (py)     0.0000  0.0000  0.0000  0.1740  0.0000  0.0000  0.0000 -0.5924
  23.  S 3 (pz)    -0.0018  0.0102  0.0000  0.0000 -0.0643  0.0334  0.0000  0.0000

           AO          9      10      11      12      13      14      15      16
      ------------ ------- ------- ------- ------- ------- ------- ------- -------
   1.  S 1 (s)      0.0426 -0.0038  0.0025  0.0000  0.0000  0.0173  0.0001  0.0001
   2.  S 1 (s)     -0.1224  0.0151 -0.0118  0.0000  0.0000 -0.0650  0.0001 -0.0011
   3.  S 1 (px)     0.0000  0.0000  0.0000 -0.1938  0.0000  0.0000  0.0000  0.0000
   4.  S 1 (py)     0.0000  0.0000  0.0000  0.0000 -0.1938  0.0000  0.0000  0.0000
   5.  S 1 (pz)    -0.0938 -0.0565  0.2252  0.0000  0.0000  0.2232 -0.0013  0.0061
   6.  S 1 (s)      0.5641  0.0143 -0.2700  0.0000  0.0000 -0.0869  0.0045 -0.0135
   7.  S 1 (px)     0.0000  0.0000  0.0000  0.5691  0.0000  0.0000  0.0000  0.0000
   8.  S 1 (py)     0.0000  0.0000  0.0000  0.0000  0.5691  0.0000  0.0000  0.0000
   9.  S 1 (pz)     0.5992  0.1445 -0.4748  0.0000  0.0000 -0.5152  0.0018 -0.0102
  10.  C 2 (s)      0.1445  2.0890 -0.3189  0.0000  0.0000  0.0000 -0.0038  0.0151
  11.  C 2 (s)     -0.4748 -0.3189  1.2703  0.0000  0.0000  0.0000  0.0025 -0.0118
  12.  C 2 (px)     0.0000  0.0000  0.0000  0.6721  0.0000  0.0000  0.0000  0.0000
  13.  C 2 (py)     0.0000  0.0000  0.0000  0.0000  0.6721  0.0000  0.0000  0.0000
  14.  C 2 (pz)    -0.5152  0.0000  0.0000  0.0000  0.0000  0.8262 -0.0173  0.0650
  15.  S 3 (s)      0.0018 -0.0038  0.0025  0.0000  0.0000 -0.0173  2.2649 -0.7965
  16.  S 3 (s)     -0.0102  0.0151 -0.0118  0.0000  0.0000  0.0650 -0.7965  2.3988
  17.  S 3 (px)     0.0000  0.0000  0.0000 -0.1938  0.0000  0.0000  0.0000  0.0000
  18.  S 3 (py)     0.0000  0.0000  0.0000  0.0000 -0.1938  0.0000  0.0000  0.0000
  19.  S 3 (pz)    -0.0643  0.0565 -0.2252  0.0000  0.0000  0.2232  0.0130 -0.0361
  20.  S 3 (s)     -0.0334  0.0143 -0.2700  0.0000  0.0000  0.0869  0.1483 -0.5292
  21.  S 3 (px)     0.0000  0.0000  0.0000  0.5691  0.0000  0.0000  0.0000  0.0000
  22.  S 3 (py)     0.0000  0.0000  0.0000  0.0000  0.5691  0.0000  0.0000  0.0000
  23.  S 3 (pz)     0.1767 -0.1445  0.4748  0.0000  0.0000 -0.5152 -0.0426  0.1224

           AO         17      18      19      20      21      22      23
      ------------ ------- ------- ------- ------- ------- ------- -------
   1.  S 1 (s)      0.0000  0.0000  0.0013  0.0045  0.0000  0.0000 -0.0018
   2.  S 1 (s)      0.0000  0.0000 -0.0061 -0.0135  0.0000  0.0000  0.0102
   3.  S 1 (px)    -0.0506  0.0000  0.0000  0.0000  0.1740  0.0000  0.0000
   4.  S 1 (py)     0.0000 -0.0506  0.0000  0.0000  0.0000  0.1740  0.0000
   5.  S 1 (pz)     0.0000  0.0000  0.0237  0.0062  0.0000  0.0000 -0.0643
   6.  S 1 (s)      0.0000  0.0000 -0.0062  0.0645  0.0000  0.0000  0.0334
   7.  S 1 (px)     0.1740  0.0000  0.0000  0.0000 -0.5924  0.0000  0.0000
   8.  S 1 (py)     0.0000  0.1740  0.0000  0.0000  0.0000 -0.5924  0.0000
   9.  S 1 (pz)     0.0000  0.0000 -0.0643 -0.0334  0.0000  0.0000  0.1767
  10.  C 2 (s)      0.0000  0.0000  0.0565  0.0143  0.0000  0.0000 -0.1445
  11.  C 2 (s)      0.0000  0.0000 -0.2252 -0.2700  0.0000  0.0000  0.4748
  12.  C 2 (px)    -0.1938  0.0000  0.0000  0.0000  0.5691  0.0000  0.0000
  13.  C 2 (py)     0.0000 -0.1938  0.0000  0.0000  0.0000  0.5691  0.0000
  14.  C 2 (pz)     0.0000  0.0000  0.2232  0.0869  0.0000  0.0000 -0.5152
  15.  S 3 (s)      0.0000  0.0000  0.0130  0.1483  0.0000  0.0000 -0.0426
  16.  S 3 (s)      0.0000  0.0000 -0.0361 -0.5292  0.0000  0.0000  0.1224
  17.  S 3 (px)     2.0922  0.0000  0.0000  0.0000 -0.3808  0.0000  0.0000
  18.  S 3 (py)     0.0000  2.0922  0.0000  0.0000  0.0000 -0.3808  0.0000
  19.  S 3 (pz)     0.0000  0.0000  2.0151  0.2077  0.0000  0.0000 -0.0938
  20.  S 3 (s)      0.0000  0.0000  0.2077  2.1157  0.0000  0.0000 -0.5641
  21.  S 3 (px)    -0.3808  0.0000  0.0000  0.0000  1.5637  0.0000  0.0000
  22.  S 3 (py)     0.0000 -0.3808  0.0000  0.0000  0.0000  1.5637  0.0000
  23.  S 3 (pz)     0.0000  0.0000 -0.0938 -0.5641  0.0000  0.0000  0.5992


 AO density matrix:

           AO          1       2       3       4       5       6       7       8
      ------------ ------- ------- ------- ------- ------- ------- ------- -------
   1.  S 1 (s)      2.0000  0.6711  0.0000  0.0000 -0.0001  0.0283  0.0000  0.0000
   2.  S 1 (s)      0.6711  1.9997  0.0000  0.0000  0.0009  0.4883  0.0000  0.0000
   3.  S 1 (px)     0.0000  0.0000  1.9989  0.0000  0.0000  0.0000  0.5325  0.0000
   4.  S 1 (py)     0.0000  0.0000  0.0000  1.9989  0.0000  0.0000  0.0000  0.5325
   5.  S 1 (pz)    -0.0001  0.0009  0.0000  0.0000  1.9971 -0.0067  0.0000  0.0000
   6.  S 1 (s)      0.0283  0.4883  0.0000  0.0000 -0.0067  1.9844  0.0000  0.0000
   7.  S 1 (px)     0.0000  0.0000  0.5325  0.0000  0.0000  0.0000  1.7170  0.0000
   8.  S 1 (py)     0.0000  0.0000  0.0000  0.5325  0.0000  0.0000  0.0000  1.7170
   9.  S 1 (pz)     0.0009 -0.0111  0.0000  0.0000  0.5502  0.0801  0.0000  0.0000
  10.  C 2 (s)      0.0000  0.0002  0.0000  0.0000 -0.0008  0.0633  0.0000  0.0000
  11.  C 2 (s)      0.0112  0.0813  0.0000  0.0000 -0.0298  0.6856  0.0000  0.0000
  12.  C 2 (px)     0.0000  0.0000 -0.0112  0.0000  0.0000  0.0000  0.8611  0.0000
  13.  C 2 (py)     0.0000  0.0000  0.0000 -0.0112  0.0000  0.0000  0.0000  0.8611
  14.  C 2 (pz)     0.0189  0.1384  0.0000  0.0000 -0.0557  0.7469  0.0000  0.0000
  15.  S 3 (s)      0.0000  0.0000  0.0000  0.0000  0.0000  0.0001  0.0000  0.0000
  16.  S 3 (s)      0.0000  0.0000  0.0000  0.0000  0.0002  0.0005  0.0000  0.0000
  17.  S 3 (px)     0.0000  0.0000 -0.0011  0.0000  0.0000  0.0000  0.0179  0.0000
  18.  S 3 (py)     0.0000  0.0000  0.0000 -0.0011  0.0000  0.0000  0.0000  0.0179
  19.  S 3 (pz)     0.0000 -0.0002  0.0000  0.0000  0.0008  0.0009  0.0000  0.0000
  20.  S 3 (s)      0.0001  0.0005  0.0000  0.0000 -0.0009  0.0386  0.0000  0.0000
  21.  S 3 (px)     0.0000  0.0000  0.0179  0.0000  0.0000  0.0000 -0.2706  0.0000
  22.  S 3 (py)     0.0000  0.0000  0.0000  0.0179  0.0000  0.0000  0.0000 -0.2706
  23.  S 3 (pz)     0.0000  0.0034  0.0000  0.0000 -0.0107  0.0535  0.0000  0.0000

           AO          9      10      11      12      13      14      15      16
      ------------ ------- ------- ------- ------- ------- ------- ------- -------
   1.  S 1 (s)      0.0009  0.0000  0.0112  0.0000  0.0000  0.0189  0.0000  0.0000
   2.  S 1 (s)     -0.0111  0.0002  0.0813  0.0000  0.0000  0.1384  0.0000  0.0000
   3.  S 1 (px)     0.0000  0.0000  0.0000 -0.0112  0.0000  0.0000  0.0000  0.0000
   4.  S 1 (py)     0.0000  0.0000  0.0000  0.0000 -0.0112  0.0000  0.0000  0.0000
   5.  S 1 (pz)     0.5502 -0.0008 -0.0298  0.0000  0.0000 -0.0557  0.0000  0.0002
   6.  S 1 (s)      0.0801  0.0633  0.6856  0.0000  0.0000  0.7469  0.0001  0.0005
   7.  S 1 (px)     0.0000  0.0000  0.0000  0.8611  0.0000  0.0000  0.0000  0.0000
   8.  S 1 (py)     0.0000  0.0000  0.0000  0.0000  0.8611  0.0000  0.0000  0.0000
   9.  S 1 (pz)     1.5720 -0.0989 -0.9609  0.0000  0.0000 -0.8855  0.0000 -0.0034
  10.  C 2 (s)     -0.0989  1.9997  0.5033  0.0000  0.0000  0.0000  0.0000  0.0002
  11.  C 2 (s)     -0.9609  0.5033  1.8647  0.0000  0.0000  0.0000  0.0112  0.0813
  12.  C 2 (px)     0.0000  0.0000  0.0000  1.1536  0.0000  0.0000  0.0000  0.0000
  13.  C 2 (py)     0.0000  0.0000  0.0000  0.0000  1.1536  0.0000  0.0000  0.0000
  14.  C 2 (pz)    -0.8855  0.0000  0.0000  0.0000  0.0000  1.7618 -0.0189 -0.1384
  15.  S 3 (s)      0.0000  0.0000  0.0112  0.0000  0.0000 -0.0189  2.0000  0.6711
  16.  S 3 (s)     -0.0034  0.0002  0.0813  0.0000  0.0000 -0.1384  0.6711  1.9997
  17.  S 3 (px)     0.0000  0.0000  0.0000 -0.0112  0.0000  0.0000  0.0000  0.0000
  18.  S 3 (py)     0.0000  0.0000  0.0000  0.0000 -0.0112  0.0000  0.0000  0.0000
  19.  S 3 (pz)    -0.0107  0.0008  0.0298  0.0000  0.0000 -0.0557  0.0001 -0.0009
  20.  S 3 (s)     -0.0535  0.0633  0.6856  0.0000  0.0000 -0.7469  0.0283  0.4883
  21.  S 3 (px)     0.0000  0.0000  0.0000  0.8611  0.0000  0.0000  0.0000  0.0000
  22.  S 3 (py)     0.0000  0.0000  0.0000  0.0000  0.8611  0.0000  0.0000  0.0000
  23.  S 3 (pz)     0.0272  0.0989  0.9609  0.0000  0.0000 -0.8855 -0.0009  0.0111

           AO         17      18      19      20      21      22      23
      ------------ ------- ------- ------- ------- ------- ------- -------
   1.  S 1 (s)      0.0000  0.0000  0.0000  0.0001  0.0000  0.0000  0.0000
   2.  S 1 (s)      0.0000  0.0000 -0.0002  0.0005  0.0000  0.0000  0.0034
   3.  S 1 (px)    -0.0011  0.0000  0.0000  0.0000  0.0179  0.0000  0.0000
   4.  S 1 (py)     0.0000 -0.0011  0.0000  0.0000  0.0000  0.0179  0.0000
   5.  S 1 (pz)     0.0000  0.0000  0.0008 -0.0009  0.0000  0.0000 -0.0107
   6.  S 1 (s)      0.0000  0.0000  0.0009  0.0386  0.0000  0.0000  0.0535
   7.  S 1 (px)     0.0179  0.0000  0.0000  0.0000 -0.2706  0.0000  0.0000
   8.  S 1 (py)     0.0000  0.0179  0.0000  0.0000  0.0000 -0.2706  0.0000
   9.  S 1 (pz)     0.0000  0.0000 -0.0107 -0.0535  0.0000  0.0000  0.0272
  10.  C 2 (s)      0.0000  0.0000  0.0008  0.0633  0.0000  0.0000  0.0989
  11.  C 2 (s)      0.0000  0.0000  0.0298  0.6856  0.0000  0.0000  0.9609
  12.  C 2 (px)    -0.0112  0.0000  0.0000  0.0000  0.8611  0.0000  0.0000
  13.  C 2 (py)     0.0000 -0.0112  0.0000  0.0000  0.0000  0.8611  0.0000
  14.  C 2 (pz)     0.0000  0.0000 -0.0557 -0.7469  0.0000  0.0000 -0.8855
  15.  S 3 (s)      0.0000  0.0000  0.0001  0.0283  0.0000  0.0000 -0.0009
  16.  S 3 (s)      0.0000  0.0000 -0.0009  0.4883  0.0000  0.0000  0.0111
  17.  S 3 (px)     1.9989  0.0000  0.0000  0.0000  0.5325  0.0000  0.0000
  18.  S 3 (py)     0.0000  1.9989  0.0000  0.0000  0.0000  0.5325  0.0000
  19.  S 3 (pz)     0.0000  0.0000  1.9971  0.0067  0.0000  0.0000  0.5502
  20.  S 3 (s)      0.0000  0.0000  0.0067  1.9844  0.0000  0.0000 -0.0801
  21.  S 3 (px)     0.5325  0.0000  0.0000  0.0000  1.7170  0.0000  0.0000
  22.  S 3 (py)     0.0000  0.5325  0.0000  0.0000  0.0000  1.7170  0.0000
  23.  S 3 (pz)     0.0000  0.0000  0.5502 -0.0801  0.0000  0.0000  1.5720


 MO density matrix:

      MO     1       2       3       4       5       6       7       8       9
     ---- ------  ------  ------  ------  ------  ------  ------  ------  ------
   1.     2.0000  0.0000  0.0000  0.0000  0.0000  0.0000  0.0000  0.0000  0.0000
   2.     0.0000  2.0000  0.0000  0.0000  0.0000  0.0000  0.0000  0.0000  0.0000
   3.     0.0000  0.0000  2.0000  0.0000  0.0000  0.0000  0.0000  0.0000  0.0000
   4.     0.0000  0.0000  0.0000  2.0000  0.0000  0.0000  0.0000  0.0000  0.0000
   5.     0.0000  0.0000  0.0000  0.0000  2.0000  0.0000  0.0000  0.0000  0.0000
   6.     0.0000  0.0000  0.0000  0.0000  0.0000  2.0000  0.0000  0.0000  0.0000
   7.     0.0000  0.0000  0.0000  0.0000  0.0000  0.0000  2.0000  0.0000  0.0000
   8.     0.0000  0.0000  0.0000  0.0000  0.0000  0.0000  0.0000  2.0000  0.0000
   9.     0.0000  0.0000  0.0000  0.0000  0.0000  0.0000  0.0000  0.0000  2.0000
  10.     0.0000  0.0000  0.0000  0.0000  0.0000  0.0000  0.0000  0.0000  0.0000
  11.     0.0000  0.0000  0.0000  0.0000  0.0000  0.0000  0.0000  0.0000  0.0000
  12.     0.0000  0.0000  0.0000  0.0000  0.0000  0.0000  0.0000  0.0000  0.0000
  13.     0.0000  0.0000  0.0000  0.0000  0.0000  0.0000  0.0000  0.0000  0.0000
  14.     0.0000  0.0000  0.0000  0.0000  0.0000  0.0000  0.0000  0.0000  0.0000
  15.     0.0000  0.0000  0.0000  0.0000  0.0000  0.0000  0.0000  0.0000  0.0000
  16.     0.0000  0.0000  0.0000  0.0000  0.0000  0.0000  0.0000  0.0000  0.0000
  17.     0.0000  0.0000  0.0000  0.0000  0.0000  0.0000  0.0000  0.0000  0.0000
  18.     0.0000  0.0000  0.0000  0.0000  0.0000  0.0000  0.0000  0.0000  0.0000
  19.     0.0000  0.0000  0.0000  0.0000  0.0000  0.0000  0.0000  0.0000  0.0000
  20.     0.0000  0.0000  0.0000  0.0000  0.0000  0.0000  0.0000  0.0000  0.0000
  21.     0.0000  0.0000  0.0000  0.0000  0.0000  0.0000  0.0000  0.0000  0.0000
  22.     0.0000  0.0000  0.0000  0.0000  0.0000  0.0000  0.0000  0.0000  0.0000
  23.     0.0000  0.0000  0.0000  0.0000  0.0000  0.0000  0.0000  0.0000  0.0000

      MO    10      11      12      13      14      15      16      17      18
     ---- ------  ------  ------  ------  ------  ------  ------  ------  ------
   1.     0.0000  0.0000  0.0000  0.0000  0.0000  0.0000  0.0000  0.0000  0.0000
   2.     0.0000  0.0000  0.0000  0.0000  0.0000  0.0000  0.0000  0.0000  0.0000
   3.     0.0000  0.0000  0.0000  0.0000  0.0000  0.0000  0.0000  0.0000  0.0000
   4.     0.0000  0.0000  0.0000  0.0000  0.0000  0.0000  0.0000  0.0000  0.0000
   5.     0.0000  0.0000  0.0000  0.0000  0.0000  0.0000  0.0000  0.0000  0.0000
   6.     0.0000  0.0000  0.0000  0.0000  0.0000  0.0000  0.0000  0.0000  0.0000
   7.     0.0000  0.0000  0.0000  0.0000  0.0000  0.0000  0.0000  0.0000  0.0000
   8.     0.0000  0.0000  0.0000  0.0000  0.0000  0.0000  0.0000  0.0000  0.0000
   9.     0.0000  0.0000  0.0000  0.0000  0.0000  0.0000  0.0000  0.0000  0.0000
  10.     2.0000  0.0000  0.0000  0.0000  0.0000  0.0000  0.0000  0.0000  0.0000
  11.     0.0000  2.0000  0.0000  0.0000  0.0000  0.0000  0.0000  0.0000  0.0000
  12.     0.0000  0.0000  2.0000  0.0000  0.0000  0.0000  0.0000  0.0000  0.0000
  13.     0.0000  0.0000  0.0000  2.0000  0.0000  0.0000  0.0000  0.0000  0.0000
  14.     0.0000  0.0000  0.0000  0.0000  2.0000  0.0000  0.0000  0.0000  0.0000
  15.     0.0000  0.0000  0.0000  0.0000  0.0000  2.0000  0.0000  0.0000  0.0000
  16.     0.0000  0.0000  0.0000  0.0000  0.0000  0.0000  2.0000  0.0000  0.0000
  17.     0.0000  0.0000  0.0000  0.0000  0.0000  0.0000  0.0000  2.0000  0.0000
  18.     0.0000  0.0000  0.0000  0.0000  0.0000  0.0000  0.0000  0.0000  2.0000
  19.     0.0000  0.0000  0.0000  0.0000  0.0000  0.0000  0.0000  0.0000  0.0000
  20.     0.0000  0.0000  0.0000  0.0000  0.0000  0.0000  0.0000  0.0000  0.0000
  21.     0.0000  0.0000  0.0000  0.0000  0.0000  0.0000  0.0000  0.0000  0.0000
  22.     0.0000  0.0000  0.0000  0.0000  0.0000  0.0000  0.0000  0.0000  0.0000
  23.     0.0000  0.0000  0.0000  0.0000  0.0000  0.0000  0.0000  0.0000  0.0000

      MO    19      20      21      22      23
     ---- ------  ------  ------  ------  ------
   1.     0.0000  0.0000  0.0000  0.0000  0.0000
   2.     0.0000  0.0000  0.0000  0.0000  0.0000
   3.     0.0000  0.0000  0.0000  0.0000  0.0000
   4.     0.0000  0.0000  0.0000  0.0000  0.0000
   5.     0.0000  0.0000  0.0000  0.0000  0.0000
   6.     0.0000  0.0000  0.0000  0.0000  0.0000
   7.     0.0000  0.0000  0.0000  0.0000  0.0000
   8.     0.0000  0.0000  0.0000  0.0000  0.0000
   9.     0.0000  0.0000  0.0000  0.0000  0.0000
  10.     0.0000  0.0000  0.0000  0.0000  0.0000
  11.     0.0000  0.0000  0.0000  0.0000  0.0000
  12.     0.0000  0.0000  0.0000  0.0000  0.0000
  13.     0.0000  0.0000  0.0000  0.0000  0.0000
  14.     0.0000  0.0000  0.0000  0.0000  0.0000
  15.     0.0000  0.0000  0.0000  0.0000  0.0000
  16.     0.0000  0.0000  0.0000  0.0000  0.0000
  17.     0.0000  0.0000  0.0000  0.0000  0.0000
  18.     0.0000  0.0000  0.0000  0.0000  0.0000
  19.     2.0000  0.0000  0.0000  0.0000  0.0000
  20.     0.0000  0.0000  0.0000  0.0000  0.0000
  21.     0.0000  0.0000  0.0000  0.0000  0.0000
  22.     0.0000  0.0000  0.0000  0.0000  0.0000
  23.     0.0000  0.0000  0.0000  0.0000  0.0000


 NATURAL POPULATIONS:  Natural atomic orbital occupancies

  NAO Atom No lang   Type(AO)    Occupancy      Energy
 -------------------------------------------------------
   1    S  1  s      Cor( 1s)     2.00000     -90.66821
   2    S  1  s      Cor( 2s)     2.00000      -8.64238
   3    S  1  s      Val( 3s)     1.85757      -0.74750
   4    S  1  px     Cor( 2p)     1.99998      -6.27087
   5    S  1  px     Val( 3p)     1.57062      -0.18563
   6    S  1  py     Cor( 2p)     1.99998      -6.27087
   7    S  1  py     Val( 3p)     1.57062      -0.18563
   8    S  1  pz     Cor( 2p)     1.99995      -6.27455
   9    S  1  pz     Val( 3p)     0.99423       0.04450

  10    C  2  s      Cor( 1s)     2.00000     -11.07225
  11    C  2  s      Val( 2s)     1.30239      -0.41943
  12    C  2  px     Val( 2p)     0.85881      -0.04293
  13    C  2  py     Val( 2p)     0.85881      -0.04293
  14    C  2  pz     Val( 2p)     0.99411       0.07347

  15    S  3  s      Cor( 1s)     2.00000     -90.66821
  16    S  3  s      Cor( 2s)     2.00000      -8.64238
  17    S  3  s      Val( 3s)     1.85757      -0.74750
  18    S  3  px     Cor( 2p)     1.99998      -6.27087
  19    S  3  px     Val( 3p)     1.57062      -0.18563
  20    S  3  py     Cor( 2p)     1.99998      -6.27087
  21    S  3  py     Val( 3p)     1.57062      -0.18563
  22    S  3  pz     Cor( 2p)     1.99995      -6.27455
  23    S  3  pz     Val( 3p)     0.99423       0.04450


 Summary of Natural Population Analysis:

                                     Natural Population
             Natural    ---------------------------------------------
  Atom No    Charge        Core      Valence    Rydberg      Total
 --------------------------------------------------------------------
    S  1    0.00706      9.99990     5.99304    0.00000    15.99294
    C  2   -0.01412      2.00000     4.01412    0.00000     6.01412
    S  3    0.00706      9.99990     5.99304    0.00000    15.99294
 ====================================================================
 * Total *  0.00000     21.99980    16.00020    0.00000    38.00000

                                 Natural Population
 ---------------------------------------------------------
   Core                      21.99980 ( 99.9991% of   22)
   Valence                   16.00020 (100.0012% of   16)
   Natural Minimal Basis     38.00000 (100.0000% of   38)
   Natural Rydberg Basis      0.00000 (  0.0000% of   38)
 ---------------------------------------------------------

    Atom No         Natural Electron Configuration
 ----------------------------------------------------------------------------
      S  1      [core]3s( 1.86)3p( 4.14)
      C  2      [core]2s( 1.30)2p( 2.71)
      S  3      [core]3s( 1.86)3p( 4.14)


 PNAOs in the AO basis:

           AO          1       2       3       4       5       6       7       8
      ------------ ------- ------- ------- ------- ------- ------- ------- -------
   1.  S 1 (s)      0.9829 -0.3851  0.1363  0.0000  0.0000  0.0000  0.0000  0.0000
   2.  S 1 (s)      0.0482  1.0125 -0.4200  0.0000  0.0000  0.0000  0.0000  0.0000
   3.  S 1 (px)     0.0000  0.0000  0.0000  0.9797 -0.3334  0.0000  0.0000  0.0000
   4.  S 1 (py)     0.0000  0.0000  0.0000  0.0000  0.0000  0.9797 -0.3334  0.0000
   5.  S 1 (pz)     0.0000  0.0000  0.0000  0.0000  0.0000  0.0000  0.0000  0.9797
   6.  S 1 (s)     -0.0041  0.1415  1.0240  0.0000  0.0000  0.0000  0.0000  0.0000
   7.  S 1 (px)     0.0000  0.0000  0.0000  0.0701  1.0325  0.0000  0.0000  0.0000
   8.  S 1 (py)     0.0000  0.0000  0.0000  0.0000  0.0000  0.0701  1.0325  0.0000
   9.  S 1 (pz)     0.0000  0.0000  0.0000  0.0000  0.0000  0.0000  0.0000  0.0701
  10.  C 2 (s)      0.0000  0.0000  0.0000  0.0000  0.0000  0.0000  0.0000  0.0000
  11.  C 2 (s)      0.0000  0.0000  0.0000  0.0000  0.0000  0.0000  0.0000  0.0000
  12.  C 2 (px)     0.0000  0.0000  0.0000  0.0000  0.0000  0.0000  0.0000  0.0000
  13.  C 2 (py)     0.0000  0.0000  0.0000  0.0000  0.0000  0.0000  0.0000  0.0000
  14.  C 2 (pz)     0.0000  0.0000  0.0000  0.0000  0.0000  0.0000  0.0000  0.0000
  15.  S 3 (s)      0.0000  0.0000  0.0000  0.0000  0.0000  0.0000  0.0000  0.0000
  16.  S 3 (s)      0.0000  0.0000  0.0000  0.0000  0.0000  0.0000  0.0000  0.0000
  17.  S 3 (px)     0.0000  0.0000  0.0000  0.0000  0.0000  0.0000  0.0000  0.0000
  18.  S 3 (py)     0.0000  0.0000  0.0000  0.0000  0.0000  0.0000  0.0000  0.0000
  19.  S 3 (pz)     0.0000  0.0000  0.0000  0.0000  0.0000  0.0000  0.0000  0.0000
  20.  S 3 (s)      0.0000  0.0000  0.0000  0.0000  0.0000  0.0000  0.0000  0.0000
  21.  S 3 (px)     0.0000  0.0000  0.0000  0.0000  0.0000  0.0000  0.0000  0.0000
  22.  S 3 (py)     0.0000  0.0000  0.0000  0.0000  0.0000  0.0000  0.0000  0.0000
  23.  S 3 (pz)     0.0000  0.0000  0.0000  0.0000  0.0000  0.0000  0.0000  0.0000

           AO          9      10      11      12      13      14      15      16
      ------------ ------- ------- ------- ------- ------- ------- ------- -------
   1.  S 1 (s)      0.0000  0.0000  0.0000  0.0000  0.0000  0.0000  0.0000  0.0000
   2.  S 1 (s)      0.0000  0.0000  0.0000  0.0000  0.0000  0.0000  0.0000  0.0000
   3.  S 1 (px)     0.0000  0.0000  0.0000  0.0000  0.0000  0.0000  0.0000  0.0000
   4.  S 1 (py)     0.0000  0.0000  0.0000  0.0000  0.0000  0.0000  0.0000  0.0000
   5.  S 1 (pz)    -0.3334  0.0000  0.0000  0.0000  0.0000  0.0000  0.0000  0.0000
   6.  S 1 (s)      0.0000  0.0000  0.0000  0.0000  0.0000  0.0000  0.0000  0.0000
   7.  S 1 (px)     0.0000  0.0000  0.0000  0.0000  0.0000  0.0000  0.0000  0.0000
   8.  S 1 (py)     0.0000  0.0000  0.0000  0.0000  0.0000  0.0000  0.0000  0.0000
   9.  S 1 (pz)     1.0325  0.0000  0.0000  0.0000  0.0000  0.0000  0.0000  0.0000
  10.  C 2 (s)      0.0000  0.9871 -0.3023  0.0000  0.0000  0.0000  0.0000  0.0000
  11.  C 2 (s)      0.0000  0.0477  1.0312  0.0000  0.0000  0.0000  0.0000  0.0000
  12.  C 2 (px)     0.0000  0.0000  0.0000  1.0000  0.0000  0.0000  0.0000  0.0000
  13.  C 2 (py)     0.0000  0.0000  0.0000  0.0000  1.0000  0.0000  0.0000  0.0000
  14.  C 2 (pz)     0.0000  0.0000  0.0000  0.0000  0.0000  1.0000  0.0000  0.0000
  15.  S 3 (s)      0.0000  0.0000  0.0000  0.0000  0.0000  0.0000  0.9829 -0.3851
  16.  S 3 (s)      0.0000  0.0000  0.0000  0.0000  0.0000  0.0000  0.0482  1.0125
  17.  S 3 (px)     0.0000  0.0000  0.0000  0.0000  0.0000  0.0000  0.0000  0.0000
  18.  S 3 (py)     0.0000  0.0000  0.0000  0.0000  0.0000  0.0000  0.0000  0.0000
  19.  S 3 (pz)     0.0000  0.0000  0.0000  0.0000  0.0000  0.0000  0.0000  0.0000
  20.  S 3 (s)      0.0000  0.0000  0.0000  0.0000  0.0000  0.0000 -0.0041  0.1415
  21.  S 3 (px)     0.0000  0.0000  0.0000  0.0000  0.0000  0.0000  0.0000  0.0000
  22.  S 3 (py)     0.0000  0.0000  0.0000  0.0000  0.0000  0.0000  0.0000  0.0000
  23.  S 3 (pz)     0.0000  0.0000  0.0000  0.0000  0.0000  0.0000  0.0000  0.0000

           AO         17      18      19      20      21      22      23
      ------------ ------- ------- ------- ------- ------- ------- -------
   1.  S 1 (s)      0.0000  0.0000  0.0000  0.0000  0.0000  0.0000  0.0000
   2.  S 1 (s)      0.0000  0.0000  0.0000  0.0000  0.0000  0.0000  0.0000
   3.  S 1 (px)     0.0000  0.0000  0.0000  0.0000  0.0000  0.0000  0.0000
   4.  S 1 (py)     0.0000  0.0000  0.0000  0.0000  0.0000  0.0000  0.0000
   5.  S 1 (pz)     0.0000  0.0000  0.0000  0.0000  0.0000  0.0000  0.0000
   6.  S 1 (s)      0.0000  0.0000  0.0000  0.0000  0.0000  0.0000  0.0000
   7.  S 1 (px)     0.0000  0.0000  0.0000  0.0000  0.0000  0.0000  0.0000
   8.  S 1 (py)     0.0000  0.0000  0.0000  0.0000  0.0000  0.0000  0.0000
   9.  S 1 (pz)     0.0000  0.0000  0.0000  0.0000  0.0000  0.0000  0.0000
  10.  C 2 (s)      0.0000  0.0000  0.0000  0.0000  0.0000  0.0000  0.0000
  11.  C 2 (s)      0.0000  0.0000  0.0000  0.0000  0.0000  0.0000  0.0000
  12.  C 2 (px)     0.0000  0.0000  0.0000  0.0000  0.0000  0.0000  0.0000
  13.  C 2 (py)     0.0000  0.0000  0.0000  0.0000  0.0000  0.0000  0.0000
  14.  C 2 (pz)     0.0000  0.0000  0.0000  0.0000  0.0000  0.0000  0.0000
  15.  S 3 (s)      0.1363  0.0000  0.0000  0.0000  0.0000  0.0000  0.0000
  16.  S 3 (s)     -0.4200  0.0000  0.0000  0.0000  0.0000  0.0000  0.0000
  17.  S 3 (px)     0.0000  0.9797 -0.3334  0.0000  0.0000  0.0000  0.0000
  18.  S 3 (py)     0.0000  0.0000  0.0000  0.9797 -0.3334  0.0000  0.0000
  19.  S 3 (pz)     0.0000  0.0000  0.0000  0.0000  0.0000  0.9797 -0.3334
  20.  S 3 (s)      1.0240  0.0000  0.0000  0.0000  0.0000  0.0000  0.0000
  21.  S 3 (px)     0.0000  0.0701  1.0325  0.0000  0.0000  0.0000  0.0000
  22.  S 3 (py)     0.0000  0.0000  0.0000  0.0701  1.0325  0.0000  0.0000
  23.  S 3 (pz)     0.0000  0.0000  0.0000  0.0000  0.0000  0.0701  1.0325


 PNAO overlap matrix:

           NAO         1       2       3       4       5       6       7       8
      ------------ ------- ------- ------- ------- ------- ------- ------- -------
   1.  S 1( 1s )    1.0000  0.0000  0.0000  0.0000  0.0000  0.0000  0.0000  0.0000
   2.  S 1( 2s )    0.0000  1.0000  0.0000  0.0000  0.0000  0.0000  0.0000  0.0000
   3.  S 1( 3s )    0.0000  0.0000  1.0000  0.0000  0.0000  0.0000  0.0000  0.0000
   4.  S 1( 2px)    0.0000  0.0000  0.0000  1.0000  0.0000  0.0000  0.0000  0.0000
   5.  S 1( 3px)    0.0000  0.0000  0.0000  0.0000  1.0000  0.0000  0.0000  0.0000
   6.  S 1( 2py)    0.0000  0.0000  0.0000  0.0000  0.0000  1.0000  0.0000  0.0000
   7.  S 1( 3py)    0.0000  0.0000  0.0000  0.0000  0.0000  0.0000  1.0000  0.0000
   8.  S 1( 2pz)    0.0000  0.0000  0.0000  0.0000  0.0000  0.0000  0.0000  1.0000
   9.  S 1( 3pz)    0.0000  0.0000  0.0000  0.0000  0.0000  0.0000  0.0000  0.0000
  10.  C 2( 1s )    0.0002  0.0087  0.0479  0.0000  0.0000  0.0000  0.0000 -0.0061
  11.  C 2( 2s )    0.0063  0.0892  0.3181  0.0000  0.0000  0.0000  0.0000 -0.0496
  12.  C 2( 2px)    0.0000  0.0000  0.0000  0.0226  0.1886  0.0000  0.0000  0.0000
  13.  C 2( 2py)    0.0000  0.0000  0.0000  0.0000  0.0000  0.0226  0.1886  0.0000
  14.  C 2( 2pz)    0.0111  0.1190  0.3300  0.0000  0.0000  0.0000  0.0000 -0.0595
  15.  S 3( 1s )    0.0000  0.0000  0.0000  0.0000  0.0000  0.0000  0.0000  0.0000
  16.  S 3( 2s )    0.0000  0.0004  0.0029  0.0000  0.0000  0.0000  0.0000 -0.0004
  17.  S 3( 3s )    0.0000  0.0029  0.0190  0.0000  0.0000  0.0000  0.0000 -0.0024
  18.  S 3( 2px)    0.0000  0.0000  0.0000  0.0000  0.0005  0.0000  0.0000  0.0000
  19.  S 3( 3px)    0.0000  0.0000  0.0000  0.0005  0.0066  0.0000  0.0000  0.0000
  20.  S 3( 2py)    0.0000  0.0000  0.0000  0.0000  0.0000  0.0000  0.0005  0.0000
  21.  S 3( 3py)    0.0000  0.0000  0.0000  0.0000  0.0000  0.0005  0.0066  0.0000
  22.  S 3( 2pz)    0.0000  0.0004  0.0024  0.0000  0.0000  0.0000  0.0000 -0.0003
  23.  S 3( 3pz)    0.0000  0.0050  0.0315  0.0000  0.0000  0.0000  0.0000 -0.0040

           NAO         9      10      11      12      13      14      15      16
      ------------ ------- ------- ------- ------- ------- ------- ------- -------
   1.  S 1( 1s )    0.0000  0.0002  0.0063  0.0000  0.0000  0.0111  0.0000  0.0000
   2.  S 1( 2s )    0.0000  0.0087  0.0892  0.0000  0.0000  0.1190  0.0000  0.0004
   3.  S 1( 3s )    0.0000  0.0479  0.3181  0.0000  0.0000  0.3300  0.0000  0.0029
   4.  S 1( 2px)    0.0000  0.0000  0.0000  0.0226  0.0000  0.0000  0.0000  0.0000
   5.  S 1( 3px)    0.0000  0.0000  0.0000  0.1886  0.0000  0.0000  0.0000  0.0000
   6.  S 1( 2py)    0.0000  0.0000  0.0000  0.0000  0.0226  0.0000  0.0000  0.0000
   7.  S 1( 3py)    0.0000  0.0000  0.0000  0.0000  0.1886  0.0000  0.0000  0.0000
   8.  S 1( 2pz)    0.0000 -0.0061 -0.0496  0.0000  0.0000 -0.0595  0.0000 -0.0004
   9.  S 1( 3pz)    1.0000 -0.0737 -0.3842  0.0000  0.0000 -0.3466  0.0000 -0.0050
  10.  C 2( 1s )   -0.0737  1.0000  0.0000  0.0000  0.0000  0.0000  0.0002  0.0087
  11.  C 2( 2s )   -0.3842  0.0000  1.0000  0.0000  0.0000  0.0000  0.0063  0.0892
  12.  C 2( 2px)    0.0000  0.0000  0.0000  1.0000  0.0000  0.0000  0.0000  0.0000
  13.  C 2( 2py)    0.0000  0.0000  0.0000  0.0000  1.0000  0.0000  0.0000  0.0000
  14.  C 2( 2pz)   -0.3466  0.0000  0.0000  0.0000  0.0000  1.0000 -0.0111 -0.1190
  15.  S 3( 1s )    0.0000  0.0002  0.0063  0.0000  0.0000 -0.0111  1.0000  0.0000
  16.  S 3( 2s )   -0.0050  0.0087  0.0892  0.0000  0.0000 -0.1190  0.0000  1.0000
  17.  S 3( 3s )   -0.0315  0.0479  0.3181  0.0000  0.0000 -0.3300  0.0000  0.0000
  18.  S 3( 2px)    0.0000  0.0000  0.0000  0.0226  0.0000  0.0000  0.0000  0.0000
  19.  S 3( 3px)    0.0000  0.0000  0.0000  0.1886  0.0000  0.0000  0.0000  0.0000
  20.  S 3( 2py)    0.0000  0.0000  0.0000  0.0000  0.0226  0.0000  0.0000  0.0000
  21.  S 3( 3py)    0.0000  0.0000  0.0000  0.0000  0.1886  0.0000  0.0000  0.0000
  22.  S 3( 2pz)   -0.0040  0.0061  0.0496  0.0000  0.0000 -0.0595  0.0000  0.0000
  23.  S 3( 3pz)   -0.0500  0.0737  0.3842  0.0000  0.0000 -0.3466  0.0000  0.0000

           NAO        17      18      19      20      21      22      23
      ------------ ------- ------- ------- ------- ------- ------- -------
   1.  S 1( 1s )    0.0000  0.0000  0.0000  0.0000  0.0000  0.0000  0.0000
   2.  S 1( 2s )    0.0029  0.0000  0.0000  0.0000  0.0000  0.0004  0.0050
   3.  S 1( 3s )    0.0190  0.0000  0.0000  0.0000  0.0000  0.0024  0.0315
   4.  S 1( 2px)    0.0000  0.0000  0.0005  0.0000  0.0000  0.0000  0.0000
   5.  S 1( 3px)    0.0000  0.0005  0.0066  0.0000  0.0000  0.0000  0.0000
   6.  S 1( 2py)    0.0000  0.0000  0.0000  0.0000  0.0005  0.0000  0.0000
   7.  S 1( 3py)    0.0000  0.0000  0.0000  0.0005  0.0066  0.0000  0.0000
   8.  S 1( 2pz)   -0.0024  0.0000  0.0000  0.0000  0.0000 -0.0003 -0.0040
   9.  S 1( 3pz)   -0.0315  0.0000  0.0000  0.0000  0.0000 -0.0040 -0.0500
  10.  C 2( 1s )    0.0479  0.0000  0.0000  0.0000  0.0000  0.0061  0.0737
  11.  C 2( 2s )    0.3181  0.0000  0.0000  0.0000  0.0000  0.0496  0.3842
  12.  C 2( 2px)    0.0000  0.0226  0.1886  0.0000  0.0000  0.0000  0.0000
  13.  C 2( 2py)    0.0000  0.0000  0.0000  0.0226  0.1886  0.0000  0.0000
  14.  C 2( 2pz)   -0.3300  0.0000  0.0000  0.0000  0.0000 -0.0595 -0.3466
  15.  S 3( 1s )    0.0000  0.0000  0.0000  0.0000  0.0000  0.0000  0.0000
  16.  S 3( 2s )    0.0000  0.0000  0.0000  0.0000  0.0000  0.0000  0.0000
  17.  S 3( 3s )    1.0000  0.0000  0.0000  0.0000  0.0000  0.0000  0.0000
  18.  S 3( 2px)    0.0000  1.0000  0.0000  0.0000  0.0000  0.0000  0.0000
  19.  S 3( 3px)    0.0000  0.0000  1.0000  0.0000  0.0000  0.0000  0.0000
  20.  S 3( 2py)    0.0000  0.0000  0.0000  1.0000  0.0000  0.0000  0.0000
  21.  S 3( 3py)    0.0000  0.0000  0.0000  0.0000  1.0000  0.0000  0.0000
  22.  S 3( 2pz)    0.0000  0.0000  0.0000  0.0000  0.0000  1.0000  0.0000
  23.  S 3( 3pz)    0.0000  0.0000  0.0000  0.0000  0.0000  0.0000  1.0000


 PNAO density matrix:

           NAO         1       2       3       4       5       6       7       8
      ------------ ------- ------- ------- ------- ------- ------- ------- -------
   1.  S 1( 1s )    2.0000  0.0000  0.0000  0.0000  0.0000  0.0000  0.0000  0.0000
   2.  S 1( 2s )    0.0000  2.0000  0.0000  0.0000  0.0000  0.0000  0.0000  0.0000
   3.  S 1( 3s )    0.0000  0.0000  1.9817  0.0000  0.0000  0.0000  0.0000 -0.0010
   4.  S 1( 2px)    0.0000  0.0000  0.0000  2.0000 -0.0025  0.0000  0.0000  0.0000
   5.  S 1( 3px)    0.0000  0.0000  0.0000 -0.0025  1.6860  0.0000  0.0000  0.0000
   6.  S 1( 2py)    0.0000  0.0000  0.0000  0.0000  0.0000  2.0000 -0.0025  0.0000
   7.  S 1( 3py)    0.0000  0.0000  0.0000  0.0000  0.0000 -0.0025  1.6860  0.0000
   8.  S 1( 2pz)    0.0000  0.0000 -0.0010  0.0000  0.0000  0.0000  0.0000  1.9999
   9.  S 1( 3pz)    0.0000 -0.0003  0.0920  0.0000  0.0000  0.0000  0.0000  0.0051
  10.  C 2( 1s )    0.0003  0.0174  0.0958  0.0000  0.0000  0.0000  0.0000 -0.0122
  11.  C 2( 2s )    0.0126  0.1778  0.6708  0.0000  0.0000  0.0000  0.0000 -0.0972
  12.  C 2( 2px)    0.0000  0.0000  0.0000  0.0493  0.8928  0.0000  0.0000  0.0000
  13.  C 2( 2py)    0.0000  0.0000  0.0000  0.0000  0.0000  0.0493  0.8928  0.0000
  14.  C 2( 2pz)    0.0221  0.2385  0.7093  0.0000  0.0000  0.0000  0.0000 -0.1166
  15.  S 3( 1s )    0.0000  0.0000 -0.0001  0.0000  0.0000  0.0000  0.0000  0.0000
  16.  S 3( 2s )    0.0000  0.0009  0.0060  0.0000  0.0000  0.0000  0.0000 -0.0007
  17.  S 3( 3s )   -0.0001  0.0060  0.0401  0.0000  0.0000  0.0000  0.0000 -0.0047
  18.  S 3( 2px)    0.0000  0.0000  0.0000  0.0001 -0.0016  0.0000  0.0000  0.0000
  19.  S 3( 3px)    0.0000  0.0000  0.0000 -0.0016 -0.3009  0.0000  0.0000  0.0000
  20.  S 3( 2py)    0.0000  0.0000  0.0000  0.0000  0.0000  0.0001 -0.0016  0.0000
  21.  S 3( 3py)    0.0000  0.0000  0.0000  0.0000  0.0000 -0.0016 -0.3009  0.0000
  22.  S 3( 2pz)    0.0000  0.0007  0.0047  0.0000  0.0000  0.0000  0.0000 -0.0006
  23.  S 3( 3pz)   -0.0001  0.0114  0.0547  0.0000  0.0000  0.0000  0.0000 -0.0089

           NAO         9      10      11      12      13      14      15      16
      ------------ ------- ------- ------- ------- ------- ------- ------- -------
   1.  S 1( 1s )    0.0000  0.0003  0.0126  0.0000  0.0000  0.0221  0.0000  0.0000
   2.  S 1( 2s )   -0.0003  0.0174  0.1778  0.0000  0.0000  0.2385  0.0000  0.0009
   3.  S 1( 3s )    0.0920  0.0958  0.6708  0.0000  0.0000  0.7093 -0.0001  0.0060
   4.  S 1( 2px)    0.0000  0.0000  0.0000  0.0493  0.0000  0.0000  0.0000  0.0000
   5.  S 1( 3px)    0.0000  0.0000  0.0000  0.8928  0.0000  0.0000  0.0000  0.0000
   6.  S 1( 2py)    0.0000  0.0000  0.0000  0.0000  0.0493  0.0000  0.0000  0.0000
   7.  S 1( 3py)    0.0000  0.0000  0.0000  0.0000  0.8928  0.0000  0.0000  0.0000
   8.  S 1( 2pz)    0.0051 -0.0122 -0.0972  0.0000  0.0000 -0.1166  0.0000 -0.0007
   9.  S 1( 3pz)    1.5190 -0.1474 -0.9821  0.0000  0.0000 -0.8957  0.0001 -0.0114
  10.  C 2( 1s )   -0.1474  2.0000  0.0000  0.0000  0.0000  0.0000  0.0003  0.0174
  11.  C 2( 2s )   -0.9821  0.0000  1.8521  0.0000  0.0000  0.0000  0.0126  0.1778
  12.  C 2( 2px)    0.0000  0.0000  0.0000  1.1536  0.0000  0.0000  0.0000  0.0000
  13.  C 2( 2py)    0.0000  0.0000  0.0000  0.0000  1.1536  0.0000  0.0000  0.0000
  14.  C 2( 2pz)   -0.8957  0.0000  0.0000  0.0000  0.0000  1.7618 -0.0221 -0.2385
  15.  S 3( 1s )    0.0001  0.0003  0.0126  0.0000  0.0000 -0.0221  2.0000  0.0000
  16.  S 3( 2s )   -0.0114  0.0174  0.1778  0.0000  0.0000 -0.2385  0.0000  2.0000
  17.  S 3( 3s )   -0.0547  0.0958  0.6708  0.0000  0.0000 -0.7093  0.0000  0.0000
  18.  S 3( 2px)    0.0000  0.0000  0.0000  0.0493  0.0000  0.0000  0.0000  0.0000
  19.  S 3( 3px)    0.0000  0.0000  0.0000  0.8928  0.0000  0.0000  0.0000  0.0000
  20.  S 3( 2py)    0.0000  0.0000  0.0000  0.0000  0.0493  0.0000  0.0000  0.0000
  21.  S 3( 3py)    0.0000  0.0000  0.0000  0.0000  0.8928  0.0000  0.0000  0.0000
  22.  S 3( 2pz)   -0.0089  0.0122  0.0972  0.0000  0.0000 -0.1166  0.0000  0.0000
  23.  S 3( 3pz)    0.0365  0.1474  0.9821  0.0000  0.0000 -0.8957  0.0000  0.0003

           NAO        17      18      19      20      21      22      23
      ------------ ------- ------- ------- ------- ------- ------- -------
   1.  S 1( 1s )   -0.0001  0.0000  0.0000  0.0000  0.0000  0.0000 -0.0001
   2.  S 1( 2s )    0.0060  0.0000  0.0000  0.0000  0.0000  0.0007  0.0114
   3.  S 1( 3s )    0.0401  0.0000  0.0000  0.0000  0.0000  0.0047  0.0547
   4.  S 1( 2px)    0.0000  0.0001 -0.0016  0.0000  0.0000  0.0000  0.0000
   5.  S 1( 3px)    0.0000 -0.0016 -0.3009  0.0000  0.0000  0.0000  0.0000
   6.  S 1( 2py)    0.0000  0.0000  0.0000  0.0001 -0.0016  0.0000  0.0000
   7.  S 1( 3py)    0.0000  0.0000  0.0000 -0.0016 -0.3009  0.0000  0.0000
   8.  S 1( 2pz)   -0.0047  0.0000  0.0000  0.0000  0.0000 -0.0006 -0.0089
   9.  S 1( 3pz)   -0.0547  0.0000  0.0000  0.0000  0.0000 -0.0089  0.0365
  10.  C 2( 1s )    0.0958  0.0000  0.0000  0.0000  0.0000  0.0122  0.1474
  11.  C 2( 2s )    0.6708  0.0000  0.0000  0.0000  0.0000  0.0972  0.9821
  12.  C 2( 2px)    0.0000  0.0493  0.8928  0.0000  0.0000  0.0000  0.0000
  13.  C 2( 2py)    0.0000  0.0000  0.0000  0.0493  0.8928  0.0000  0.0000
  14.  C 2( 2pz)   -0.7093  0.0000  0.0000  0.0000  0.0000 -0.1166 -0.8957
  15.  S 3( 1s )    0.0000  0.0000  0.0000  0.0000  0.0000  0.0000  0.0000
  16.  S 3( 2s )    0.0000  0.0000  0.0000  0.0000  0.0000  0.0000  0.0003
  17.  S 3( 3s )    1.9817  0.0000  0.0000  0.0000  0.0000  0.0010 -0.0920
  18.  S 3( 2px)    0.0000  2.0000 -0.0025  0.0000  0.0000  0.0000  0.0000
  19.  S 3( 3px)    0.0000 -0.0025  1.6860  0.0000  0.0000  0.0000  0.0000
  20.  S 3( 2py)    0.0000  0.0000  0.0000  2.0000 -0.0025  0.0000  0.0000
  21.  S 3( 3py)    0.0000  0.0000  0.0000 -0.0025  1.6860  0.0000  0.0000
  22.  S 3( 2pz)    0.0010  0.0000  0.0000  0.0000  0.0000  1.9999  0.0051
  23.  S 3( 3pz)   -0.0920  0.0000  0.0000  0.0000  0.0000  0.0051  1.5190


 NAOs in the AO basis:

           AO          1       2       3       4       5       6       7       8
      ------------ ------- ------- ------- ------- ------- ------- ------- -------
   1.  S 1 (s)      0.9829 -0.3851  0.1386  0.0000  0.0000  0.0000  0.0000  0.0000
   2.  S 1 (s)      0.0482  1.0126 -0.4234  0.0000  0.0000  0.0000  0.0000  0.0000
   3.  S 1 (px)     0.0000  0.0000  0.0000  0.9797 -0.3358  0.0000  0.0000  0.0000
   4.  S 1 (py)     0.0000  0.0000  0.0000  0.0000  0.0000  0.9797 -0.3358  0.0000
   5.  S 1 (pz)     0.0000  0.0000  0.0195  0.0000  0.0000  0.0000  0.0000  0.9797
   6.  S 1 (s)     -0.0041  0.1415  1.1549  0.0000  0.0000  0.0000  0.0000  0.0000
   7.  S 1 (px)     0.0000  0.0000  0.0000  0.0701  1.0461  0.0000  0.0000  0.0000
   8.  S 1 (py)     0.0000  0.0000  0.0000  0.0000  0.0000  0.0701  1.0461  0.0000
   9.  S 1 (pz)     0.0000  0.0000 -0.1369  0.0000  0.0000  0.0000  0.0000  0.0701
  10.  C 2 (s)     -0.0001 -0.0043  0.0068  0.0000  0.0000  0.0000  0.0000  0.0030
  11.  C 2 (s)      0.0000 -0.0002 -0.2338  0.0000  0.0000  0.0000  0.0000  0.0001
  12.  C 2 (px)     0.0000  0.0000  0.0000  0.0000 -0.0893  0.0000  0.0000  0.0000
  13.  C 2 (py)     0.0000  0.0000  0.0000  0.0000  0.0000  0.0000 -0.0893  0.0000
  14.  C 2 (pz)     0.0000  0.0000 -0.2202  0.0000  0.0000  0.0000  0.0000  0.0000
  15.  S 3 (s)      0.0000  0.0001  0.0003  0.0000  0.0000  0.0000  0.0000 -0.0001
  16.  S 3 (s)      0.0000 -0.0002 -0.0023  0.0000  0.0000  0.0000  0.0000  0.0002
  17.  S 3 (px)     0.0000  0.0000  0.0000  0.0000 -0.0018  0.0000  0.0000  0.0000
  18.  S 3 (py)     0.0000  0.0000  0.0000  0.0000  0.0000  0.0000 -0.0018  0.0000
  19.  S 3 (pz)     0.0000 -0.0002  0.0010  0.0000  0.0000  0.0000  0.0000  0.0001
  20.  S 3 (s)      0.0000  0.0000 -0.0196  0.0000  0.0000  0.0000  0.0000  0.0000
  21.  S 3 (px)     0.0000  0.0000  0.0000  0.0000  0.0102  0.0000  0.0000  0.0000
  22.  S 3 (py)     0.0000  0.0000  0.0000  0.0000  0.0000  0.0000  0.0102  0.0000
  23.  S 3 (pz)     0.0000  0.0000 -0.0180  0.0000  0.0000  0.0000  0.0000  0.0000

           AO          9      10      11      12      13      14      15      16
      ------------ ------- ------- ------- ------- ------- ------- ------- -------
   1.  S 1 (s)     -0.0035  0.0016  0.0033  0.0000  0.0000  0.0051  0.0000  0.0001
   2.  S 1 (s)      0.0060 -0.0044 -0.0156  0.0000  0.0000 -0.0334  0.0000 -0.0002
   3.  S 1 (px)     0.0000  0.0000  0.0000  0.0130  0.0000  0.0000  0.0000  0.0000
   4.  S 1 (py)     0.0000  0.0000  0.0000  0.0000  0.0130  0.0000  0.0000  0.0000
   5.  S 1 (pz)    -0.3601  0.0030 -0.0260  0.0000  0.0000 -0.0263  0.0000  0.0002
   6.  S 1 (s)     -0.1714 -0.0006 -0.2615  0.0000  0.0000 -0.3528  0.0000  0.0000
   7.  S 1 (px)     0.0000  0.0000  0.0000 -0.1124  0.0000  0.0000  0.0000  0.0000
   8.  S 1 (py)     0.0000  0.0000  0.0000  0.0000 -0.1124  0.0000  0.0000  0.0000
   9.  S 1 (pz)     1.2132  0.0002  0.2766  0.0000  0.0000  0.3412  0.0000  0.0000
  10.  C 2 (s)      0.0004  0.9872 -0.3293  0.0000  0.0000  0.0000 -0.0001 -0.0043
  11.  C 2 (s)      0.3132  0.0477  1.3438  0.0000  0.0000  0.0000  0.0000 -0.0002
  12.  C 2 (px)     0.0000  0.0000  0.0000  1.0302  0.0000  0.0000  0.0000  0.0000
  13.  C 2 (py)     0.0000  0.0000  0.0000  0.0000  1.0302  0.0000  0.0000  0.0000
  14.  C 2 (pz)     0.2702  0.0000  0.0000  0.0000  0.0000  1.3704  0.0000  0.0000
  15.  S 3 (s)     -0.0004  0.0016  0.0033  0.0000  0.0000 -0.0051  0.9829 -0.3851
  16.  S 3 (s)      0.0025 -0.0044 -0.0156  0.0000  0.0000  0.0334  0.0482  1.0126
  17.  S 3 (px)     0.0000  0.0000  0.0000  0.0130  0.0000  0.0000  0.0000  0.0000
  18.  S 3 (py)     0.0000  0.0000  0.0000  0.0000  0.0130  0.0000  0.0000  0.0000
  19.  S 3 (pz)    -0.0013 -0.0030  0.0260  0.0000  0.0000 -0.0263  0.0000  0.0000
  20.  S 3 (s)      0.0228 -0.0006 -0.2615  0.0000  0.0000  0.3528 -0.0041  0.1415
  21.  S 3 (px)     0.0000  0.0000  0.0000 -0.1124  0.0000  0.0000  0.0000  0.0000
  22.  S 3 (py)     0.0000  0.0000  0.0000  0.0000 -0.1124  0.0000  0.0000  0.0000
  23.  S 3 (pz)     0.0218 -0.0002 -0.2766  0.0000  0.0000  0.3412  0.0000  0.0000

           AO         17      18      19      20      21      22      23
      ------------ ------- ------- ------- ------- ------- ------- -------
   1.  S 1 (s)      0.0003  0.0000  0.0000  0.0000  0.0000  0.0001  0.0004
   2.  S 1 (s)     -0.0023  0.0000  0.0000  0.0000  0.0000 -0.0002 -0.0025
   3.  S 1 (px)     0.0000  0.0000 -0.0018  0.0000  0.0000  0.0000  0.0000
   4.  S 1 (py)     0.0000  0.0000  0.0000  0.0000 -0.0018  0.0000  0.0000
   5.  S 1 (pz)    -0.0010  0.0000  0.0000  0.0000  0.0000  0.0001 -0.0013
   6.  S 1 (s)     -0.0196  0.0000  0.0000  0.0000  0.0000  0.0000 -0.0228
   7.  S 1 (px)     0.0000  0.0000  0.0102  0.0000  0.0000  0.0000  0.0000
   8.  S 1 (py)     0.0000  0.0000  0.0000  0.0000  0.0102  0.0000  0.0000
   9.  S 1 (pz)     0.0180  0.0000  0.0000  0.0000  0.0000  0.0000  0.0218
  10.  C 2 (s)      0.0068  0.0000  0.0000  0.0000  0.0000 -0.0030 -0.0004
  11.  C 2 (s)     -0.2338  0.0000  0.0000  0.0000  0.0000 -0.0001 -0.3132
  12.  C 2 (px)     0.0000  0.0000 -0.0893  0.0000  0.0000  0.0000  0.0000
  13.  C 2 (py)     0.0000  0.0000  0.0000  0.0000 -0.0893  0.0000  0.0000
  14.  C 2 (pz)     0.2202  0.0000  0.0000  0.0000  0.0000  0.0000  0.2702
  15.  S 3 (s)      0.1386  0.0000  0.0000  0.0000  0.0000  0.0000  0.0035
  16.  S 3 (s)     -0.4234  0.0000  0.0000  0.0000  0.0000  0.0000 -0.0060
  17.  S 3 (px)     0.0000  0.9797 -0.3358  0.0000  0.0000  0.0000  0.0000
  18.  S 3 (py)     0.0000  0.0000  0.0000  0.9797 -0.3358  0.0000  0.0000
  19.  S 3 (pz)    -0.0195  0.0000  0.0000  0.0000  0.0000  0.9797 -0.3601
  20.  S 3 (s)      1.1549  0.0000  0.0000  0.0000  0.0000  0.0000  0.1714
  21.  S 3 (px)     0.0000  0.0701  1.0461  0.0000  0.0000  0.0000  0.0000
  22.  S 3 (py)     0.0000  0.0000  0.0000  0.0701  1.0461  0.0000  0.0000
  23.  S 3 (pz)     0.1369  0.0000  0.0000  0.0000  0.0000  0.0701  1.2132


 NAO density matrix:

           NAO         1       2       3       4       5       6       7       8
      ------------ ------- ------- ------- ------- ------- ------- ------- -------
   1.  S 1( 1s )    2.0000  0.0000  0.0000  0.0000  0.0000  0.0000  0.0000  0.0000
   2.  S 1( 2s )    0.0000  2.0000  0.0000  0.0000  0.0000  0.0000  0.0000  0.0000
   3.  S 1( 3s )    0.0000  0.0000  1.8576  0.0000  0.0000  0.0000  0.0000 -0.0028
   4.  S 1( 2px)    0.0000  0.0000  0.0000  2.0000 -0.0030  0.0000  0.0000  0.0000
   5.  S 1( 3px)    0.0000  0.0000  0.0000 -0.0030  1.5706  0.0000  0.0000  0.0000
   6.  S 1( 2py)    0.0000  0.0000  0.0000  0.0000  0.0000  2.0000 -0.0030  0.0000
   7.  S 1( 3py)    0.0000  0.0000  0.0000  0.0000  0.0000 -0.0030  1.5706  0.0000
   8.  S 1( 2pz)    0.0000  0.0000 -0.0028  0.0000  0.0000  0.0000  0.0000  1.9999
   9.  S 1( 3pz)    0.0000 -0.0003  0.3741  0.0000  0.0000  0.0000  0.0000  0.0074
  10.  C 2( 1s )    0.0000  0.0000  0.0000  0.0000  0.0000  0.0000  0.0000  0.0000
  11.  C 2( 2s )    0.0000 -0.0012  0.2077  0.0000  0.0000  0.0000  0.0000  0.0045
  12.  C 2( 2px)    0.0000  0.0000  0.0000  0.0048  0.7000  0.0000  0.0000  0.0000
  13.  C 2( 2py)    0.0000  0.0000  0.0000  0.0000  0.0000  0.0048  0.7000  0.0000
  14.  C 2( 2pz)    0.0000  0.0013  0.2847  0.0000  0.0000  0.0000  0.0000  0.0050
  15.  S 3( 1s )    0.0000  0.0000  0.0000  0.0000  0.0000  0.0000  0.0000  0.0000
  16.  S 3( 2s )    0.0000  0.0000  0.0007  0.0000  0.0000  0.0000  0.0000  0.0000
  17.  S 3( 3s )    0.0000  0.0007  0.0187  0.0000  0.0000  0.0000  0.0000  0.0001
  18.  S 3( 2px)    0.0000  0.0000  0.0000  0.0000 -0.0030  0.0000  0.0000  0.0000
  19.  S 3( 3px)    0.0000  0.0000  0.0000 -0.0030 -0.4294  0.0000  0.0000  0.0000
  20.  S 3( 2py)    0.0000  0.0000  0.0000  0.0000  0.0000  0.0000 -0.0030  0.0000
  21.  S 3( 3py)    0.0000  0.0000  0.0000  0.0000  0.0000 -0.0030 -0.4294  0.0000
  22.  S 3( 2pz)    0.0000  0.0000 -0.0001  0.0000  0.0000  0.0000  0.0000  0.0000
  23.  S 3( 3pz)    0.0000  0.0019 -0.0077  0.0000  0.0000  0.0000  0.0000 -0.0009

           NAO         9      10      11      12      13      14      15      16
      ------------ ------- ------- ------- ------- ------- ------- ------- -------
   1.  S 1( 1s )    0.0000  0.0000  0.0000  0.0000  0.0000  0.0000  0.0000  0.0000
   2.  S 1( 2s )   -0.0003  0.0000 -0.0012  0.0000  0.0000  0.0013  0.0000  0.0000
   3.  S 1( 3s )    0.3741  0.0000  0.2077  0.0000  0.0000  0.2847  0.0000  0.0007
   4.  S 1( 2px)    0.0000  0.0000  0.0000  0.0048  0.0000  0.0000  0.0000  0.0000
   5.  S 1( 3px)    0.0000  0.0000  0.0000  0.7000  0.0000  0.0000  0.0000  0.0000
   6.  S 1( 2py)    0.0000  0.0000  0.0000  0.0000  0.0048  0.0000  0.0000  0.0000
   7.  S 1( 3py)    0.0000  0.0000  0.0000  0.0000  0.7000  0.0000  0.0000  0.0000
   8.  S 1( 2pz)    0.0074  0.0000  0.0045  0.0000  0.0000  0.0050  0.0000  0.0000
   9.  S 1( 3pz)    0.9942  0.0000 -0.6412  0.0000  0.0000 -0.6472  0.0000 -0.0019
  10.  C 2( 1s )    0.0000  2.0000  0.0000  0.0000  0.0000  0.0000  0.0000  0.0000
  11.  C 2( 2s )   -0.6412  0.0000  1.3024  0.0000  0.0000  0.0000  0.0000 -0.0012
  12.  C 2( 2px)    0.0000  0.0000  0.0000  0.8588  0.0000  0.0000  0.0000  0.0000
  13.  C 2( 2py)    0.0000  0.0000  0.0000  0.0000  0.8588  0.0000  0.0000  0.0000
  14.  C 2( 2pz)   -0.6472  0.0000  0.0000  0.0000  0.0000  0.9941  0.0000 -0.0013
  15.  S 3( 1s )    0.0000  0.0000  0.0000  0.0000  0.0000  0.0000  2.0000  0.0000
  16.  S 3( 2s )   -0.0019  0.0000 -0.0012  0.0000  0.0000 -0.0013  0.0000  2.0000
  17.  S 3( 3s )    0.0077  0.0000  0.2077  0.0000  0.0000 -0.2847  0.0000  0.0000
  18.  S 3( 2px)    0.0000  0.0000  0.0000  0.0048  0.0000  0.0000  0.0000  0.0000
  19.  S 3( 3px)    0.0000  0.0000  0.0000  0.7000  0.0000  0.0000  0.0000  0.0000
  20.  S 3( 2py)    0.0000  0.0000  0.0000  0.0000  0.0048  0.0000  0.0000  0.0000
  21.  S 3( 3py)    0.0000  0.0000  0.0000  0.0000  0.7000  0.0000  0.0000  0.0000
  22.  S 3( 2pz)   -0.0009  0.0000 -0.0045  0.0000  0.0000  0.0050  0.0000  0.0000
  23.  S 3( 3pz)    0.1729  0.0000  0.6412  0.0000  0.0000 -0.6472  0.0000  0.0003

           NAO        17      18      19      20      21      22      23
      ------------ ------- ------- ------- ------- ------- ------- -------
   1.  S 1( 1s )    0.0000  0.0000  0.0000  0.0000  0.0000  0.0000  0.0000
   2.  S 1( 2s )    0.0007  0.0000  0.0000  0.0000  0.0000  0.0000  0.0019
   3.  S 1( 3s )    0.0187  0.0000  0.0000  0.0000  0.0000 -0.0001 -0.0077
   4.  S 1( 2px)    0.0000  0.0000 -0.0030  0.0000  0.0000  0.0000  0.0000
   5.  S 1( 3px)    0.0000 -0.0030 -0.4294  0.0000  0.0000  0.0000  0.0000
   6.  S 1( 2py)    0.0000  0.0000  0.0000  0.0000 -0.0030  0.0000  0.0000
   7.  S 1( 3py)    0.0000  0.0000  0.0000 -0.0030 -0.4294  0.0000  0.0000
   8.  S 1( 2pz)    0.0001  0.0000  0.0000  0.0000  0.0000  0.0000 -0.0009
   9.  S 1( 3pz)    0.0077  0.0000  0.0000  0.0000  0.0000 -0.0009  0.1729
  10.  C 2( 1s )    0.0000  0.0000  0.0000  0.0000  0.0000  0.0000  0.0000
  11.  C 2( 2s )    0.2077  0.0000  0.0000  0.0000  0.0000 -0.0045  0.6412
  12.  C 2( 2px)    0.0000  0.0048  0.7000  0.0000  0.0000  0.0000  0.0000
  13.  C 2( 2py)    0.0000  0.0000  0.0000  0.0048  0.7000  0.0000  0.0000
  14.  C 2( 2pz)   -0.2847  0.0000  0.0000  0.0000  0.0000  0.0050 -0.6472
  15.  S 3( 1s )    0.0000  0.0000  0.0000  0.0000  0.0000  0.0000  0.0000
  16.  S 3( 2s )    0.0000  0.0000  0.0000  0.0000  0.0000  0.0000  0.0003
  17.  S 3( 3s )    1.8576  0.0000  0.0000  0.0000  0.0000  0.0028 -0.3741
  18.  S 3( 2px)    0.0000  2.0000 -0.0030  0.0000  0.0000  0.0000  0.0000
  19.  S 3( 3px)    0.0000 -0.0030  1.5706  0.0000  0.0000  0.0000  0.0000
[...]
      16.000 electrons remain; search continues

 Search of NAO DM block for the following atom(s):   1
      Select 2 eigenvector(s) of eigenvalue > 1.500
       1.997 1.571 1.571 0.855 0.000 0.000 0.000 0.000 0.000
      Degeneracy detected: selecting no eigenvector(s)
      Still need to select 2 eigenvector(s)

 Search of NAO DM block for the following atom(s):   3
      Select 2 eigenvector(s) of eigenvalue > 1.500
       1.997 1.571 1.571 0.855 0.000 0.000 0.000 0.000 0.000
      Degeneracy detected: selecting no eigenvector(s)
      Still need to select 2 eigenvector(s)

 No NHOs identified in the 1-center search of the NAO density matrix
      16.000 electrons remain; search continues

 Search of NAO DM block for the following atom(s):   1   2
      Select 2 eigenvector(s) of eigenvalue > 1.500
       2.000 2.000 2.000 2.000 1.145 0.429 0.429 0.003 0.000 0.000 0.000 0.000
       0.000 0.000
      Degeneracy detected: selecting no eigenvector(s)
      Still need to select 2 eigenvector(s)

 Search of NAO DM block for the following atom(s):   2   3
      Select 2 eigenvector(s) of eigenvalue > 1.500
       2.000 2.000 2.000 2.000 1.145 0.429 0.429 0.003 0.000 0.000 0.000 0.000
       0.000 0.000
      Degeneracy detected: selecting no eigenvector(s)
      Still need to select 2 eigenvector(s)

 No NHOs identified in the 2-center search of the NAO density matrix
      16.000 electrons remain; search continues

 Search of NAO DM block for the following atom(s):   1
      Select 2 eigenvector(s) of eigenvalue > 1.500
       1.997 1.571 1.571 0.855 0.000 0.000 0.000 0.000 0.000
      Degeneracy detected: only selecting 1 eigenvector(s)
      Eigenvector ( 1) has occupancy 1.99712
            0.0000 0.0000 0.9369 0.0000 0.0000 0.0000 0.0000 0.0000
            0.3495
      1 hybrid on atom 1 stashed in prospective list
      Still need to select 1 eigenvector(s)

 Search of NAO DM block for the following atom(s):   3
      Select 2 eigenvector(s) of eigenvalue > 1.500
       1.997 1.571 1.571 0.855 0.000 0.000 0.000 0.000 0.000
      Degeneracy detected: only selecting 1 eigenvector(s)
      Eigenvector ( 1) has occupancy 1.99712
            0.0000 0.0000 0.9369 0.0000 0.0000 0.0000 0.0000 0.0000
           -0.3495
      1 hybrid on atom 3 stashed in prospective list
      Still need to select 1 eigenvector(s)

 Stash prospective hybrids having projection expectation value > 0.300
       1.000 1.000
      0 hybrids eliminated in 1 pass
      2 hybrids moved from prospective to permanent list

 NHOs of 1-center eigenvectors projected from the NAO density matrix
      12.006 electrons remain; search continues

 Search of NAO DM block for the following atom(s):   1   2
      Select 2 eigenvector(s) of eigenvalue > 1.500
       2.000 2.000 2.000 1.148 0.429 0.429 0.003 0.000 0.000 0.000 0.000 0.000
       0.000 0.000
      Branch 1 (3 choose 2): index=32; limit=32; atom(s)=  1  2
      Eigenvector ( 2) has occupancy 2.00000
            0.0000 0.0000 0.0145 0.0000 0.7926 0.0000 0.3089 0.0000
           -0.0388 0.0000 0.0400 0.4862 0.1895 0.0291
      Eigenvector ( 3) has occupancy 2.00000
            0.0000 0.0000-0.0088 0.0000-0.3072 0.0000 0.7944 0.0000
            0.0236 0.0000-0.0243-0.1885 0.4873-0.0177
      2 hybrids on atom 1 stashed in prospective list
      2 hybrids on atom 2 stashed in prospective list

 Search of NAO DM block for the following atom(s):   2   3
      Select 2 eigenvector(s) of eigenvalue > 1.500
       2.000 2.000 2.000 1.148 0.429 0.429 0.003 0.000 0.000 0.000 0.000 0.000
       0.000 0.000
      Branch 2 (3 choose 2): index=32; limit=32; atom(s)=  2  3
      Eigenvector ( 2) has occupancy 2.00000
            0.0000 0.5591-0.1719-0.1465-0.4065 0.0000 0.0000 0.2025
            0.0000-0.2802 0.0000-0.2388 0.0000 0.5427
      Eigenvector ( 3) has occupancy 2.00000
            0.0000 0.0691 0.4202-0.3056-0.0502 0.0000 0.0000 0.0250
            0.0000 0.6851 0.0000-0.4983 0.0000 0.0670
      2 hybrids on atom 2 stashed in prospective list
      2 hybrids on atom 3 stashed in prospective list

 Stash prospective hybrids having projection expectation value > 0.300
       0.323 0.323 0.028 0.028 0.014 0.014 0.009 0.009
      6 hybrids eliminated in 2 passes
       1.000 1.000
      2 hybrids moved from prospective to permanent list
      Strongly overlapping hybrids are discarded

 No reasonable Lewis structure found

                            Occupancies       Lewis Structure    Low   High
         Max    Occ     -------------------  -----------------   occ   occ
  Cycle  Ctr   Thresh    Lewis   non-Lewis     CR  BD  nC  LP    (L)   (NL)
 ============================================================================
    1     2     1.50    36.98917   1.01083     11   4   0   4     0      3
 ----------------------------------------------------------------------------

 Structure accepted: No low occupancy Lewis orbitals

 -------------------------------------------------------
   Core                     21.99980 ( 99.999% of  22)
   Valence Lewis            14.98936 ( 93.684% of  16)
  ==================      =============================
   Total Lewis              36.98917 ( 97.340% of  38)
  -----------------------------------------------------
   Valence non-Lewis         1.01083 (  2.660% of  38)
   Rydberg non-Lewis         0.00000 (  0.000% of  38)
  ==================      =============================
   Total non-Lewis           1.01083 (  2.660% of  38)
 -------------------------------------------------------


     (Occupancy)   Bond orbital / Coefficients / Hybrids
 ------------------ Lewis ------------------------------------------------------
   1. (2.00000) CR ( 1) S  1            s(100.00%)
                                         1.0000  0.0000  0.0000  0.0000  0.0000
                                         0.0000  0.0000  0.0000  0.0000
   2. (2.00000) CR ( 2) S  1            s(100.00%)
                                         0.0000  1.0000  0.0000  0.0000  0.0000
                                         0.0000  0.0000  0.0000  0.0000
   3. (1.99998) CR ( 3) S  1            s(  0.00%)p 1.00(100.00%)
                                         0.0000  0.0000  0.0000  1.0000  0.0000
                                         0.0000  0.0000  0.0000  0.0000
   4. (1.99998) CR ( 4) S  1            s(  0.00%)p 1.00(100.00%)
                                         0.0000  0.0000  0.0000  0.0000  0.0000
                                         1.0000  0.0000  0.0000  0.0000
   5. (1.99995) CR ( 5) S  1            s(  0.00%)p 1.00(100.00%)
                                         0.0000  0.0000  0.0000  0.0000  0.0000
                                         0.0000  0.0000  1.0000  0.0000
   6. (2.00000) CR ( 1) C  2            s(100.00%)
                                         1.0000  0.0000  0.0000  0.0000  0.0000
   7. (2.00000) CR ( 1) S  3            s(100.00%)
                                         1.0000  0.0000  0.0000  0.0000  0.0000
                                         0.0000  0.0000  0.0000  0.0000
   8. (2.00000) CR ( 2) S  3            s(100.00%)
                                         0.0000  1.0000  0.0000  0.0000  0.0000
                                         0.0000  0.0000  0.0000  0.0000
   9. (1.99998) CR ( 3) S  3            s(  0.00%)p 1.00(100.00%)
                                         0.0000  0.0000  0.0000  1.0000  0.0000
                                         0.0000  0.0000  0.0000  0.0000
  10. (1.99998) CR ( 4) S  3            s(  0.00%)p 1.00(100.00%)
                                         0.0000  0.0000  0.0000  0.0000  0.0000
                                         1.0000  0.0000  0.0000  0.0000
  11. (1.99995) CR ( 5) S  3            s(  0.00%)p 1.00(100.00%)
                                         0.0000  0.0000  0.0000  0.0000  0.0000
                                         0.0000  0.0000  1.0000  0.0000
  12. (1.99712) LP ( 1) S  1            s( 87.78%)p 0.14( 12.22%)
                                         0.0000  0.0000  0.9369  0.0000  0.0000
                                         0.0000  0.0000  0.0000  0.3495
  13. (1.56538) LP ( 2) S  1            s(  0.09%)p99.99( 99.91%)
                                         0.0000  0.0000  0.0299  0.0000  0.9283
                                         0.0000  0.3618  0.0000 -0.0801
  14. (1.99712) LP ( 1) S  3            s( 87.78%)p 0.14( 12.22%)
                                         0.0000  0.0000  0.9369  0.0000  0.0000
                                         0.0000  0.0000  0.0000 -0.3495
  15. (1.55511) LP ( 2) S  3            s(  0.26%)p99.99( 99.74%)
                                         0.0000  0.0000  0.0514  0.0000  0.7999
                                         0.0000 -0.5818  0.0000  0.1379
  16. (1.98690) BD ( 1) S  1- C  2
               ( 42.75%)   0.6538* S  1 s( 12.11%)p 7.26( 87.89%)
                                         0.0000  0.0000  0.3480  0.0000 -0.0933
                                         0.0000  0.0040  0.0000 -0.9328
               ( 57.25%)   0.7566* C  2 s( 49.43%)p 1.02( 50.57%)
                                         0.0000  0.7030 -0.0485  0.0202  0.7092
  17. (1.97368) BD ( 2) S  1- C  2
               ( 73.36%)   0.8565* S  1 s(  0.02%)p99.99( 99.98%)
                                         0.0000  0.0000  0.0131  0.0000  0.3598
                                         0.0000 -0.9323  0.0000 -0.0351
               ( 26.64%)   0.5161* C  2 s(  0.44%)p99.99( 99.56%)
                                         0.0000  0.0666  0.6099 -0.7897 -0.0018
  18. (1.96333) BD ( 1) C  2- S  3
               ( 52.72%)   0.7261* C  2 s( 39.47%)p 1.53( 60.53%)
                                         0.0000  0.6282 -0.3729 -0.2336 -0.6416
               ( 47.28%)   0.6876* S  3 s(  9.92%)p 9.08( 90.08%)
                                         0.0000  0.0000  0.3150  0.0000 -0.3508
                                         0.0000 -0.2544  0.0000  0.8444
  19. (1.95071) BD ( 2) C  2- S  3
               ( 32.57%)   0.5707* C  2 s( 10.66%)p 8.38( 89.34%)
                                         0.0000  0.3265  0.6976  0.5670 -0.2921
               ( 67.43%)   0.8211* S  3 s(  2.03%)p48.28( 97.97%)
                                         0.0000  0.0000  0.1425  0.0000  0.4869
                                         0.0000  0.7725  0.0000  0.3819
 ---------------- non-Lewis ----------------------------------------------------
  20. (0.02013) BD*( 1) S  1- C  2
               ( 57.25%)   0.7566* S  1 s( 12.11%)p 7.26( 87.89%)
                                         0.0000  0.0000 -0.3480  0.0000  0.0933
                                         0.0000 -0.0040  0.0000  0.9328
               ( 42.75%)  -0.6538* C  2 s( 49.43%)p 1.02( 50.57%)
                                         0.0000 -0.7030  0.0485 -0.0202 -0.7092
  21. (0.45670) BD*( 2) S  1- C  2
               ( 26.64%)   0.5161* S  1 s(  0.02%)p99.99( 99.98%)
                                         0.0000  0.0000 -0.0131  0.0000 -0.3598
                                         0.0000  0.9323  0.0000  0.0351
               ( 73.36%)  -0.8565* C  2 s(  0.44%)p99.99( 99.56%)
                                         0.0000 -0.0666 -0.6099  0.7897  0.0018
  22. (0.11538) BD*( 1) C  2- S  3
               ( 47.28%)   0.6876* C  2 s( 39.47%)p 1.53( 60.53%)
                                         0.0000  0.6282 -0.3729 -0.2336 -0.6416
               ( 52.72%)  -0.7261* S  3 s(  9.92%)p 9.08( 90.08%)
                                         0.0000  0.0000  0.3150  0.0000 -0.3508
                                         0.0000 -0.2544  0.0000  0.8444
  23. (0.41861) BD*( 2) C  2- S  3
               ( 67.43%)   0.8211* C  2 s( 10.66%)p 8.38( 89.34%)
                                         0.0000  0.3265  0.6976  0.5670 -0.2921
               ( 32.57%)  -0.5707* S  3 s(  2.03%)p48.28( 97.97%)
                                         0.0000  0.0000  0.1425  0.0000  0.4869
                                         0.0000  0.7725  0.0000  0.3819


 NHO DIRECTIONALITY AND BOND BENDING (deviation from line of nuclear centers at
                                      the position of maximum hybrid amplitude)

         [Thresholds for printing:  angular deviation  >  1.0 degree]
                                    p- or d-character  > 25.0%
                                    orbital occupancy  >  0.10e

                        Line of Centers        Hybrid 1             Hybrid 2
                        ---------------  -------------------  ------------------
           NBO            Theta   Phi    Theta   Phi    Dev   Theta   Phi    Dev
 ===============================================================================
  13. LP ( 2) S  1          --     --     94.8   21.3   --      --     --    --
  15. LP ( 2) S  3          --     --     81.6  324.0   --      --     --    --
  16. BD ( 1) S  1- C  2  180.0    0.0   168.8  177.5  11.2     3.9  157.4   3.9
  17. BD ( 2) S  1- C  2  180.0    0.0    91.9  291.1  88.1    90.1  307.7  90.1
  18. BD ( 1) C  2- S  3  180.0    0.0   148.6  212.1  31.4    35.0  215.9  35.0
  19. BD ( 2) C  2- S  3  180.0    0.0   111.4   39.1  68.6    66.8   57.8  66.8


 3-Center, 4-Electron A:-B-:C Hyperbonds (A-B :C <=> A: B-C)
              [threshold for detection: 33.3%]

                                                  NBOs       3-center hybrids
                                              -------------  ----------------
       Hyperbond A:-B-:C   %A-B/%B-C   occ    BD(A-B) LP(C)  h(A)  h(B)  h(C)
      -------------------  ---------  ------  ------- -----  ----  ----  ----
   1.  S  1:- C  2-: S  3  49.8/50.2  3.9855      17     15    18    19    15
   2.  S  3:- C  2-: S  1  57.3/42.7  3.9347      19     13    22    23    13


 SECOND ORDER PERTURBATION THEORY ANALYSIS OF FOCK MATRIX IN NBO BASIS

     Threshold for printing:   0.50 kcal/mol
                                                          E(2) E(NL)-E(L) F(L,NL)
      Donor (L) NBO              Acceptor (NL) NBO      kcal/mol   a.u.    a.u.
 ===============================================================================

 within unit  1
   12. LP ( 1) S  1            22. BD*( 1) C  2- S  3      0.94    1.29   0.031
   13. LP ( 2) S  1            20. BD*( 1) S  1- C  2      3.52    0.83   0.048
   13. LP ( 2) S  1            21. BD*( 2) S  1- C  2     14.16    0.30   0.058
   13. LP ( 2) S  1            22. BD*( 1) C  2- S  3     13.32    0.73   0.088
   13. LP ( 2) S  1            23. BD*( 2) C  2- S  3    109.92    0.37   0.181
   14. LP ( 1) S  3            20. BD*( 1) S  1- C  2      1.00    1.39   0.033
   14. LP ( 1) S  3            23. BD*( 2) C  2- S  3      1.54    0.93   0.034
   15. LP ( 2) S  3            20. BD*( 1) S  1- C  2      0.59    0.83   0.020
   15. LP ( 2) S  3            21. BD*( 2) S  1- C  2    191.03    0.29   0.212
   15. LP ( 2) S  3            22. BD*( 1) C  2- S  3      6.25    0.73   0.060
   15. LP ( 2) S  3            23. BD*( 2) C  2- S  3     26.42    0.37   0.088
   16. BD ( 1) S  1- C  2      22. BD*( 1) C  2- S  3      9.25    1.33   0.099
   16. BD ( 1) S  1- C  2      23. BD*( 2) C  2- S  3      4.85    0.97   0.061
   17. BD ( 2) S  1- C  2      21. BD*( 2) S  1- C  2      4.65    0.46   0.041
   17. BD ( 2) S  1- C  2      23. BD*( 2) C  2- S  3      3.32    0.53   0.038
   18. BD ( 1) C  2- S  3      20. BD*( 1) S  1- C  2      6.88    1.34   0.086
   18. BD ( 1) C  2- S  3      21. BD*( 2) S  1- C  2      0.62    0.81   0.020
   18. BD ( 1) C  2- S  3      22. BD*( 1) C  2- S  3      1.25    1.24   0.035
   18. BD ( 1) C  2- S  3      23. BD*( 2) C  2- S  3     13.84    0.88   0.099
   19. BD ( 2) C  2- S  3      20. BD*( 1) S  1- C  2      0.69    1.06   0.024
   19. BD ( 2) C  2- S  3      21. BD*( 2) S  1- C  2      2.18    0.52   0.030
   19. BD ( 2) C  2- S  3      22. BD*( 1) C  2- S  3     10.98    0.96   0.092
   19. BD ( 2) C  2- S  3      23. BD*( 2) C  2- S  3     10.55    0.60   0.071


 NATURAL BOND ORBITALS (Summary):

                                                     Principal Delocalizations
           NBO                 Occupancy    Energy   (geminal,vicinal,remote)
 ===============================================================================
 Molecular unit  1  (CS2)
 ------ Lewis --------------------------------------
    1. CR ( 1) S  1             2.00000   -90.66821
    2. CR ( 2) S  1             2.00000    -8.64238
    3. CR ( 3) S  1             1.99998    -6.27087
    4. CR ( 4) S  1             1.99998    -6.27087
    5. CR ( 5) S  1             1.99995    -6.27455
    6. CR ( 1) C  2             2.00000   -11.07225
    7. CR ( 1) S  3             2.00000   -90.66821
    8. CR ( 2) S  3             2.00000    -8.64238
    9. CR ( 3) S  3             1.99998    -6.27087
   10. CR ( 4) S  3             1.99998    -6.27087
   11. CR ( 5) S  3             1.99995    -6.27455
   12. LP ( 1) S  1             1.99712    -0.73886  22(v)
   13. LP ( 2) S  1             1.56538    -0.18401  23(v),21(g),22(v),20(g)
   14. LP ( 1) S  3             1.99712    -0.73886  23(g),20(v)
   15. LP ( 2) S  3             1.55511    -0.18084  21(v),23(g),22(g),20(v)
   16. BD ( 1) S  1- C  2       1.98690    -0.78323  22(g),23(g)
   17. BD ( 2) S  1- C  2       1.97368    -0.34336  21(g),23(g)
   18. BD ( 1) C  2- S  3       1.96333    -0.69659  23(g),20(g),22(g),21(g)
   19. BD ( 2) C  2- S  3       1.95071    -0.41034  22(g),23(g),21(g),20(g)
 ------ non-Lewis ----------------------------------
   20. BD*( 1) S  1- C  2       0.02013     0.64668
   21. BD*( 2) S  1- C  2       0.45670     0.11344
   22. BD*( 1) C  2- S  3       0.11538     0.54724
   23. BD*( 2) C  2- S  3       0.41861     0.18836
          -------------------------------
                 Total Lewis   36.98917  ( 97.3399%)
           Valence non-Lewis    1.01083  (  2.6601%)
           Rydberg non-Lewis    0.00000  (  0.0000%)
          -------------------------------
               Total unit  1   38.00000  (100.0000%)
              Charge unit  1    0.00000

 $CHOOSE
   LONE 1 2 3 2 END
   BOND D 1 2 D 2 3 END
 $END

 NBO analysis completed in 1.35 CPU seconds (2 wall seconds)
 Maximum scratch memory used by NBO was 265872 words (2.03 MB)
 Maximum scratch memory used by G16NBO was 9023 words (0.07 MB)

 Opening RunExU unformatted file "/cluster/work/users/beto93/mol62/Gau-508775.EUF"
 Read unf file /cluster/work/users/beto93/mol62/Gau-508775.EUF:
 Label Gaussian matrix elements                                         IVers= 2 NLab= 2 Version=ES64L-G16RevC.01
 Title mol62-NBO                                                       
 NAtoms=     3 NBasis=    23 NBsUse=    23 ICharg=     0 Multip=     1 NE=    38 Len12L=8 Len4L=8 IOpCl= 0 ICGU=111
 GAUSSIAN SCALARS                    NI= 1 NR= 1 NTot=       1 LenBuf=    2 NRI=1 N=    1000
 NPA CHARGES                         NI= 0 NR= 1 NTot=       3 LenBuf= 4000 NRI=1 N=       3
 Recovered energy= -823.721873859     dipole=     -0.000000000000      0.000000000000     -0.000000000000
 Unable to Open any file for archive entry.
 1\1\GINC-C1-41\SP\RHF\STO-3G\C1S2\BETO93\18-Nov-2024\0\\#RHF/STO-3G in
 t=nobasistransform Symmetry=None 5D 7F Pop=NBO7Read\\mol62-NBO\\0,1\S,
 0,0.,0.,1.561117\C,0,0.,0.,0.\S,0,0.,0.,-1.561117\\Version=ES64L-G16Re
 vC.01\HF=-823.7218739\RMSD=5.326e-09\Dipole=0.,0.,0.\Quadrupole=0.6111
 718,0.6111718,-1.2223436,0.,0.,0.\PG=Unknown\\@
 The archive entry for this job was punched.


 WE LEARN WISDOM FROM FAILURE MUCH MORE THAN FROM SUCCESS.
 WE DISCOVER WHAT WILL DO BY FINDING OUT WHAT WILL NOT DO...
 AND HE WHO NEVER MADE A MISTAKE NEVER MADE A DISCOVERY
 Job cpu time:       0 days  0 hours  0 minutes  9.0 seconds.
 Elapsed time:       0 days  0 hours  0 minutes  3.1 seconds.
 File lengths (MBytes):  RWF=     10 Int=      0 D2E=      0 Chk=      1 Scr=      1
 Normal termination of Gaussian 16 at Mon Nov 18 15:41:19 2024.
