 Entering Gaussian System, Link 0=g16
 Initial command:
 /cluster/software/Gaussian/g16_C.01/l1.exe "/cluster/work/users/beto93/mol62/Gau-1655052.inp" -scrdir="/cluster/work/users/beto93/mol62/"
 Entering Link 1 = /cluster/software/Gaussian/g16_C.01/l1.exe PID=   1655053.
  
 Copyright (c) 1988-2019, Gaussian, Inc.  All Rights Reserved.
  
 This is part of the Gaussian(R) 16 program.  It is based on
 the Gaussian(R) 09 system (copyright 2009, Gaussian, Inc.),
 the Gaussian(R) 03 system (copyright 2003, Gaussian, Inc.),
 the Gaussian(R) 98 system (copyright 1998, Gaussian, Inc.),
 the Gaussian(R) 94 system (copyright 1995, Gaussian, Inc.),
 the Gaussian 92(TM) system (copyright 1992, Gaussian, Inc.),
 the Gaussian 90(TM) system (copyright 1990, Gaussian, Inc.),
 the Gaussian 88(TM) system (copyright 1988, Gaussian, Inc.),
 the Gaussian 86(TM) system (copyright 1986, Carnegie Mellon
 University), and the Gaussian 82(TM) system (copyright 1983,
 Carnegie Mellon University). Gaussian is a federally registered
 trademark of Gaussian, Inc.
  
 This software contains proprietary and confidential information,
 including trade secrets, belonging to Gaussian, Inc.
  
 This software is provided under written license and may be
 used, copied, transmitted, or stored only in accord with that
 written license.
  
 The following legend is applicable only to US Government
 contracts under FAR:
  
                    RESTRICTED RIGHTS LEGEND
  
 Use, reproduction and disclosure by the US Government is
 subject to restrictions as set forth in subparagraphs (a)
 and (c) of the Commercial Computer Software - Restricted
 Rights clause in FAR 52.227-19.
  
 Gaussian, Inc.
 340 Quinnipiac St., Bldg. 40, Wallingford CT 06492
  
  
 ---------------------------------------------------------------
 Warning -- This program may not be used in any manner that
 competes with the business of Gaussian, Inc. or will provide
 assistance to any competitor of Gaussian, Inc.  The licensee
 of this program is prohibited from giving any competitor of
 Gaussian, Inc. access to this program.  By using this program,
 the user acknowledges that Gaussian, Inc. is engaged in the
 business of creating and licensing software in the field of
 computational chemistry and represents and warrants to the
 licensee that it is not a competitor of Gaussian, Inc. and that
 it will not use this program in any manner prohibited above.
 ---------------------------------------------------------------
  

 Cite this work as:
 Gaussian 16, Revision C.01,
 M. J. Frisch, G. W. Trucks, H. B. Schlegel, G. E. Scuseria, 
 M. A. Robb, J. R. Cheeseman, G. Scalmani, V. Barone, 
 G. A. Petersson, H. Nakatsuji, X. Li, M. Caricato, A. V. Marenich, 
 J. Bloino, B. G. Janesko, R. Gomperts, B. Mennucci, H. P. Hratchian, 
 J. V. Ortiz, A. F. Izmaylov, J. L. Sonnenberg, D. Williams-Young, 
 F. Ding, F. Lipparini, F. Egidi, J. Goings, B. Peng, A. Petrone, 
 T. Henderson, D. Ranasinghe, V. G. Zakrzewski, J. Gao, N. Rega, 
 G. Zheng, W. Liang, M. Hada, M. Ehara, K. Toyota, R. Fukuda, 
 J. Hasegawa, M. Ishida, T. Nakajima, Y. Honda, O. Kitao, H. Nakai, 
 T. Vreven, K. Throssell, J. A. Montgomery, Jr., J. E. Peralta, 
 F. Ogliaro, M. J. Bearpark, J. J. Heyd, E. N. Brothers, K. N. Kudin, 
 V. N. Staroverov, T. A. Keith, R. Kobayashi, J. Normand, 
 K. Raghavachari, A. P. Rendell, J. C. Burant, S. S. Iyengar, 
 J. Tomasi, M. Cossi, J. M. Millam, M. Klene, C. Adamo, R. Cammi, 
 J. W. Ochterski, R. L. Martin, K. Morokuma, O. Farkas, 
 J. B. Foresman, and D. J. Fox, Gaussian, Inc., Wallingford CT, 2019.
 
 ******************************************
 Gaussian 16:  ES64L-G16RevC.01  3-Jul-2019
                18-Nov-2024 
 ******************************************
 %LindaWorkers=c2-19-ib
 %NProcShared=4
 Will use up to    4 processors via shared memory.
 %mem=25GB
 %chk=mol62.chk
 SetLPE:    new flags="-opt 'Tsnet.Node.lindarsharg: ssh'  -nodelist 'c2-19-ib.saga' -env GAUSS_MDEF=3355443200 -env GAUSS_EXEDIR="/cluster/software/Gaussian/g16_C.01/bsd:/cluster/software/Gaussian/g16_C.01""
 Will use up to    1 processors via Linda.
 -----------------------------------------------------------------
 #RHF/6-31G* int=nobasistransform Symmetry=None 5D 7F Pop=NBO7Read
 -----------------------------------------------------------------
 1/38=1,163=2,172=1/1;
 2/12=2,15=3,17=6,18=5,40=1/2;
 3/5=1,6=6,7=1,8=11,11=1,25=1,30=1,60=-1,116=1/1,2,3;
 4//1;
 5/5=2,38=5/2;
 6/7=2,8=2,9=2,10=2,28=1,40=2,113=1,114=1,124=2103/1,12;
 99/5=1,9=1/99;
 ---------
 mol62-NBO
 ---------
 Symbolic Z-matrix:
 Charge =  0 Multiplicity = 1
 S                     0.        0.        1.56112 
 C                     0.        0.        0. 
 S                     0.        0.       -1.56112 
 
                          Input orientation:                          
 ---------------------------------------------------------------------
 Center     Atomic      Atomic             Coordinates (Angstroms)
 Number     Number       Type             X           Y           Z
 ---------------------------------------------------------------------
      1         16           0        0.000000    0.000000    1.561117
      2          6           0        0.000000    0.000000    0.000000
      3         16           0        0.000000    0.000000   -1.561117
 ---------------------------------------------------------------------
                    Distance matrix (angstroms):
                    1          2          3
     1  S    0.000000
     2  C    1.561117   0.000000
     3  S    3.122234   1.561117   0.000000
 Symmetry turned off by external request.
 Stoichiometry    CS2
 Rotational constants (GHZ):           0.0000000           3.2429893           3.2429893
 Standard basis: 6-31G(d) (5D, 7F)
    50 basis functions,   132 primitive gaussians,    53 cartesian basis functions
    19 alpha electrons       19 beta electrons
       nuclear repulsion energy       108.4715030932 Hartrees.
 NAtoms=    3 NActive=    3 NUniq=    3 SFac= 1.00D+00 NAtFMM=   60 NAOKFM=F Big=F
 Integral buffers will be    131072 words long.
 Raffenetti 1 integral format.
 Two-electron integral symmetry is turned off.
 One-electron integrals computed using PRISM.
 NBasis=    50 RedAO= T EigKep=  1.26D-02  NBF=    50
 NBsUse=    50 1.00D-06 EigRej= -1.00D+00 NBFU=    50
 ExpMin= 1.17D-01 ExpMax= 2.19D+04 ExpMxC= 3.30D+03 IAcc=3 IRadAn=         5 AccDes= 0.00D+00
 Harris functional with IExCor=  205 and IRadAn=       5 diagonalized for initial guess.
 HarFok:  IExCor=  205 AccDes= 0.00D+00 IRadAn=         5 IDoV= 1 UseB2=F ITyADJ=14
 ICtDFT=  3500011 ScaDFX=  1.000000  1.000000  1.000000  1.000000
 FoFCou: FMM=F IPFlag=           0 FMFlag=      100000 FMFlg1=           0
         NFxFlg=           0 DoJE=T BraDBF=F KetDBF=T FulRan=T
         wScrn=  0.000000 ICntrl=       500 IOpCl=  0 I1Cent=   200000004 NGrid=           0
         NMat0=    1 NMatS0=      1 NMatT0=    0 NMatD0=    1 NMtDS0=    0 NMtDT0=    0
 Symmetry not used in FoFCou.
 Keep R1 ints in memory in canonical form, NReq=1650982.
 Requested convergence on RMS density matrix=1.00D-08 within 128 cycles.
 Requested convergence on MAX density matrix=1.00D-06.
 Requested convergence on             energy=1.00D-06.
 No special actions if energy rises.
 SCF Done:  E(RHF) =  -832.880955447     A.U. after   10 cycles
            NFock= 10  Conv=0.50D-08     -V/T= 1.9999

 **********************************************************************

            Population analysis using the SCF Density.

 **********************************************************************

 Alpha  occ. eigenvalues --  -91.98076 -91.98075 -11.40977  -8.99734  -8.99730
 Alpha  occ. eigenvalues --   -6.67950  -6.67946  -6.67630  -6.67630  -6.67629
 Alpha  occ. eigenvalues --   -6.67629  -1.14901  -1.02443  -0.68052  -0.58323
 Alpha  occ. eigenvalues --   -0.52720  -0.52720  -0.37235  -0.37235
 Alpha virt. eigenvalues --    0.05326   0.05326   0.19737   0.25901   0.33213
 Alpha virt. eigenvalues --    0.45437   0.48819   0.48819   0.52182   0.54499
 Alpha virt. eigenvalues --    0.54499   0.77273   0.82075   0.82075   0.90084
 Alpha virt. eigenvalues --    0.90084   1.00035   1.00035   1.01257   1.01257
 Alpha virt. eigenvalues --    1.11434   1.19974   1.19974   1.23180   1.31825
 Alpha virt. eigenvalues --    1.61208   1.90314   1.90314   2.25317   2.25317
 Alpha virt. eigenvalues --    3.01824
          Condensed to atoms (all electrons):
               1          2          3
     1  S   15.565476   0.492439  -0.076258
     2  C    0.492439   5.051808   0.492439
     3  S   -0.076258   0.492439  15.565476
 Mulliken charges:
               1
     1  S    0.018343
     2  C   -0.036686
     3  S    0.018343
 Sum of Mulliken charges =   0.00000
 Mulliken charges with hydrogens summed into heavy atoms:
               1
     1  S    0.018343
     2  C   -0.036686
     3  S    0.018343
 Electronic spatial extent (au):  <R**2>=            348.6872
 Charge=              0.0000 electrons
 Dipole moment (field-independent basis, Debye):
    X=              0.0000    Y=             -0.0000    Z=             -0.0000  Tot=              0.0000
 Quadrupole moment (field-independent basis, Debye-Ang):
   XX=            -32.0378   YY=            -32.0378   ZZ=            -30.3344
   XY=              0.0000   XZ=             -0.0000   YZ=             -0.0000
 Traceless Quadrupole moment (field-independent basis, Debye-Ang):
   XX=             -0.5678   YY=             -0.5678   ZZ=              1.1356
   XY=              0.0000   XZ=             -0.0000   YZ=             -0.0000
 Octapole moment (field-independent basis, Debye-Ang**2):
  XXX=              0.0000  YYY=             -0.0000  ZZZ=             -0.0000  XYY=              0.0000
  XXY=             -0.0000  XXZ=              0.0000  XZZ=              0.0000  YZZ=             -0.0000
  YYZ=              0.0000  XYZ=              0.0000
 Hexadecapole moment (field-independent basis, Debye-Ang**3):
 XXXX=            -40.9726 YYYY=            -40.9726 ZZZZ=           -380.2697 XXXY=              0.0000
 XXXZ=             -0.0000 YYYX=              0.0000 YYYZ=             -0.0000 ZZZX=             -0.0000
 ZZZY=             -0.0000 XXYY=            -13.6575 XXZZ=            -78.4268 YYZZ=            -78.4268
 XXYZ=              0.0000 YYXZ=             -0.0000 ZZXY=              0.0000
 N-N= 1.084715030932D+02 E-N=-2.198316936537D+03  KE= 8.329447423321D+02
 Running external command "gaunbo7 R"
         input file       "/cluster/work/users/beto93/mol62/Gau-1655053.EIn"
         output file      "/cluster/work/users/beto93/mol62/Gau-1655053.EOu"
         message file     "/cluster/work/users/beto93/mol62/Gau-1655053.EMs"
         fchk file        "/cluster/work/users/beto93/mol62/Gau-1655053.EFC"
         mat. el file     "/cluster/work/users/beto93/mol62/Gau-1655053.EUF"

 Writing WrtUnf unformatted file "/cluster/work/users/beto93/mol62/Gau-1655053.EUF"
 Gaussian matrix elements                                         Version   2 NLab=11 Len12L=8 Len4L=8
 Write SHELL TO ATOM MAP                   from file      0 offset           0 length                  14 to matrix element file.
 Write SHELL TYPES                         from file      0 offset           0 length                  14 to matrix element file.
 Write NUMBER OF PRIMITIVES PER SHELL      from file      0 offset           0 length                  14 to matrix element file.
 Write PRIMITIVE EXPONENTS                 from file      0 offset           0 length                  45 to matrix element file.
 Write CONTRACTION COEFFICIENTS            from file      0 offset           0 length                  45 to matrix element file.
 Write P(S=P) CONTRACTION COEFFICIENTS     from file      0 offset           0 length                  45 to matrix element file.
 Write COORDINATES OF EACH SHELL           from file      0 offset           0 length                  42 to matrix element file.
 Write BONDS PER ATOM                      from file      0 offset           0 length                   3 to matrix element file.
 Write BONDED ATOMS                        from file      0 offset           0 length                   4 to matrix element file.
 Write BOND TYPES                          from file      0 offset           0 length                   4 to matrix element file.
 Write ONIOM CHARGE/MULT                   from file      0 offset           0 length                  32 to matrix element file.
 Write ONIOM ATOM LAYERS                   from file      0 offset           0 length                   3 to matrix element file.
 Write ONIOM ATOM MODIFIERS                from file      0 offset           0 length                   3 to matrix element file.
 Write ONIOM ATOM TYPES                    from file      0 offset           0 length                   3 to matrix element file.
 Write ONIOM LINK ATOMS                    from file      0 offset           0 length                   3 to matrix element file.
 Write ONIOM LINK CHARGES                  from file      0 offset           0 length                   3 to matrix element file.
 Write ONIOM LINK DISTANCES                from file      0 offset           0 length                  12 to matrix element file.
 Write SYMINF INTS                         from file      0 offset           0 length                  26 to matrix element file.
 Write ROTTR TO SO                         from file      0 offset           0 length                  12 to matrix element file.
 Write GAUSSIAN SCALARS                    from file    501 offset           0 to matrix element file.
 Write OPTIMIZATION FLAGS                  from file      0 offset           0 length                   3 to matrix element file.
 Write INTEGER ISO                         from file      0 offset           0 length                   3 to matrix element file.
 Write REAL ZEFFECTIVE                     from file      0 offset           0 length                   3 to matrix element file.
 Write REAL ZNUCLEAR                       from file      0 offset           0 length                   3 to matrix element file.
 Write MULLIKEN CHARGES                    from file      0 offset           0 length                   3 to matrix element file.
 Write NUCLEAR GRADIENT                    from file  10584 offset           0 length                   9 to matrix element file.
 Array NUCLEAR FORCE CONSTANTS              on  file  10585 does not exist.
 Write ELECTRIC DIPOLE MOMENT              from file      0 offset           0 length                   3 to matrix element file.
 Write NON-ADIABATIC COUPLING              from file  10810 offset           0 length                   9 to matrix element file.
 Write FINITE EM FIELD                     from file  10521 offset           0 length                  35 to matrix element file.
 Write OVERLAP                             from file  10514 offset           0 length                1275 to matrix element file.
 Write CORE HAMILTONIAN ALPHA              from file  10515 offset           0 length                1275 to matrix element file.
 Write CORE HAMILTONIAN BETA               from file  10515 offset        1275 length                1275 to matrix element file.
 Write KINETIC ENERGY                      from file  10516 offset           0 length                1275 to matrix element file.
 Write ORTHOGONAL BASIS                    from file  10685 offset           0 length                2500 to matrix element file.
 Write DIPOLE INTEGRALS                    from file  10518 offset           0 length                3825 to matrix element file.
 Array DIP VEL INTEGRALS                    on  file  10572 does not exist.
 Array R X DEL INTEGRALS                    on  file  10572 does not exist.
 Write ALPHA ORBITAL ENERGIES              from file      0 offset           0 length                  50 to matrix element file.
 Write ALPHA MO COEFFICIENTS               from file  10524 offset           0 length                2500 to matrix element file.
 Write ALPHA DENSITY MATRIX                from file      0 offset           0 length                1275 to matrix element file.
 Write ALPHA FOCK MATRIX                   from file  10536 offset           0 length                1275 to matrix element file.
 Write ENERGY-WEIGHTED DENSITY             from file  10571 offset           0 length                1275 to matrix element file.
 Write ALPHA SCF DENSITY MATRIX            from file      0 offset           0 length                1275 to matrix element file.
 No 2e integrals to process.
 Perform NBO analysis...executing G16NBO...

 *********************************** NBO 7.0 ***********************************
             N A T U R A L   A T O M I C   O R B I T A L   A N D
          N A T U R A L   B O N D   O R B I T A L   A N A L Y S I S
 **************************** Espen Tangen (S101595) ***************************
  (c) Copyright 1996-2021 Board of Regents of the University of Wisconsin System
      on behalf of the Theoretical Chemistry Institute.  All rights reserved.

          Cite this program [NBO 7.0.10 (8-Feb-2021)] as:

          NBO 7.0.  E. D. Glendening, J. K. Badenhoop, A. E. Reed,
          J. E. Carpenter, J. A. Bohmann, C. M. Morales, P. Karafiloglou,
          C. R. Landis, and F. Weinhold, Theoretical Chemistry Institute,
          University of Wisconsin, Madison, WI (2018)

       /NPA    / : Natural Population Analysis
       /AOPNAO / : Print the AO to PNAO transformation
       /AONAO  / : Print the AO to NAO transformation
       /AOMO   / : Print the MOs in the AO basis
       /BOAO   / : Print the AO bond-order matrix
       /DMAO   / : Print the AO density matrix
       /DMPNAO / : Print the PNAO density matrix
       /DMNAO  / : Print the NAO density matrix
       /DMMO   / : Print the MO density matrix
       /SAO    / : Print the AO overlap matrix
       /SPNAO  / : Print the PNAO overlap matrix
       /DETAIL / : Write details of NBO search
       /ARCHIVE/ : Write the archive file to lfn47
       /AOINFO / : Write AO information to lfn31
       /FILE   / : Set to mol62.gen*

 Filename set to mol62.gen1

 Job title: mol62-NBO


 MOs in the AO basis:

           AO          1       2       3       4       5       6       7       8
      ------------ ------- ------- ------- ------- ------- ------- ------- -------
   1.  S 1 (s)      0.7047  0.7048 -0.0001 -0.1993 -0.1993 -0.0010 -0.0009  0.0000
   2.  S 1 (s)      0.0087  0.0087  0.0002  0.7288  0.7287  0.0035  0.0037  0.0000
   3.  S 1 (px)     0.0000  0.0000  0.0000  0.0000  0.0000  0.0000  0.0000  0.5238
   4.  S 1 (py)     0.0000  0.0000  0.0000  0.0000  0.0000  0.0000  0.0000  0.4682
   5.  S 1 (pz)    -0.0001 -0.0001 -0.0001 -0.0026 -0.0028  0.7018  0.7021  0.0000
   6.  S 1 (s)     -0.0030 -0.0026 -0.0008  0.0156  0.0143 -0.0037 -0.0009  0.0000
   7.  S 1 (px)     0.0000  0.0000  0.0000  0.0000  0.0000  0.0000  0.0000  0.0113
   8.  S 1 (py)     0.0000  0.0000  0.0000  0.0000  0.0000  0.0000  0.0000  0.0101
   9.  S 1 (pz)     0.0006  0.0004  0.0007 -0.0022 -0.0010  0.0190  0.0167  0.0000
  10.  S 1 (s)      0.0002  0.0011  0.0032 -0.0009 -0.0036 -0.0068 -0.0015  0.0000
  11.  S 1 (px)     0.0000  0.0000  0.0000  0.0000  0.0000  0.0000  0.0000 -0.0029
  12.  S 1 (py)     0.0000  0.0000  0.0000  0.0000  0.0000  0.0000  0.0000 -0.0026
  13.  S 1 (pz)     0.0004  0.0000 -0.0022 -0.0010  0.0001 -0.0005 -0.0028  0.0000
  14.  S 1 (d5)    -0.0002 -0.0003 -0.0007  0.0007  0.0006 -0.0014 -0.0010  0.0000
  15.  S 1 (d2)     0.0000  0.0000  0.0000  0.0000  0.0000  0.0000  0.0000 -0.0002
  16.  S 1 (d3)     0.0000  0.0000  0.0000  0.0000  0.0000  0.0000  0.0000 -0.0002
  17.  S 1 (d4)     0.0000  0.0000  0.0000  0.0000  0.0000  0.0000  0.0000  0.0000
  18.  S 1 (d1)     0.0000  0.0000  0.0000  0.0000  0.0000  0.0000  0.0000  0.0000
  19.  C 2 (s)      0.0000 -0.0001  0.9963  0.0000 -0.0006  0.0000  0.0010  0.0000
  20.  C 2 (s)      0.0000  0.0003  0.0236  0.0000 -0.0005  0.0000  0.0004  0.0000
  21.  C 2 (px)     0.0000  0.0000  0.0000  0.0000  0.0000  0.0000  0.0000  0.0000
  22.  C 2 (py)     0.0000  0.0000  0.0000  0.0000  0.0000  0.0000  0.0000  0.0000
  23.  C 2 (pz)     0.0003  0.0000  0.0000  0.0001  0.0000 -0.0005  0.0000  0.0000
  24.  C 2 (s)      0.0000  0.0003 -0.0122  0.0000  0.0005  0.0000  0.0022  0.0000
  25.  C 2 (px)     0.0000  0.0000  0.0000  0.0000  0.0000  0.0000  0.0000  0.0000
  26.  C 2 (py)     0.0000  0.0000  0.0000  0.0000  0.0000  0.0000  0.0000  0.0000
  27.  C 2 (pz)     0.0022  0.0000  0.0000 -0.0063  0.0000  0.0141  0.0000  0.0000
  28.  C 2 (d5)     0.0000  0.0007  0.0015  0.0000 -0.0004  0.0000 -0.0003  0.0000
  29.  C 2 (d2)     0.0000  0.0000  0.0000  0.0000  0.0000  0.0000  0.0000 -0.0004
  30.  C 2 (d3)     0.0000  0.0000  0.0000  0.0000  0.0000  0.0000  0.0000 -0.0003
  31.  C 2 (d4)     0.0000  0.0000  0.0000  0.0000  0.0000  0.0000  0.0000  0.0000
  32.  C 2 (d1)     0.0000  0.0000  0.0000  0.0000  0.0000  0.0000  0.0000  0.0000
  33.  S 3 (s)     -0.7047  0.7048 -0.0001  0.1993 -0.1993  0.0010 -0.0009  0.0000
  34.  S 3 (s)     -0.0087  0.0087  0.0002 -0.7288  0.7287 -0.0035  0.0037  0.0000
  35.  S 3 (px)     0.0000  0.0000  0.0000  0.0000  0.0000  0.0000  0.0000 -0.5238
  36.  S 3 (py)     0.0000  0.0000  0.0000  0.0000  0.0000  0.0000  0.0000 -0.4682
  37.  S 3 (pz)    -0.0001  0.0001  0.0001 -0.0026  0.0028  0.7018 -0.7021  0.0000
  38.  S 3 (s)      0.0030 -0.0026 -0.0008 -0.0156  0.0143  0.0037 -0.0009  0.0000
  39.  S 3 (px)     0.0000  0.0000  0.0000  0.0000  0.0000  0.0000  0.0000 -0.0113
  40.  S 3 (py)     0.0000  0.0000  0.0000  0.0000  0.0000  0.0000  0.0000 -0.0101
  41.  S 3 (pz)     0.0006 -0.0004 -0.0007 -0.0022  0.0010  0.0190 -0.0167  0.0000
  42.  S 3 (s)     -0.0002  0.0011  0.0032  0.0009 -0.0036  0.0068 -0.0015  0.0000
  43.  S 3 (px)     0.0000  0.0000  0.0000  0.0000  0.0000  0.0000  0.0000  0.0029
  44.  S 3 (py)     0.0000  0.0000  0.0000  0.0000  0.0000  0.0000  0.0000  0.0026
  45.  S 3 (pz)     0.0004  0.0000  0.0022 -0.0010 -0.0001 -0.0005  0.0028  0.0000
  46.  S 3 (d5)     0.0002 -0.0003 -0.0007 -0.0007  0.0006  0.0014 -0.0010  0.0000
  47.  S 3 (d2)     0.0000  0.0000  0.0000  0.0000  0.0000  0.0000  0.0000 -0.0002
  48.  S 3 (d3)     0.0000  0.0000  0.0000  0.0000  0.0000  0.0000  0.0000 -0.0002
  49.  S 3 (d4)     0.0000  0.0000  0.0000  0.0000  0.0000  0.0000  0.0000  0.0000
  50.  S 3 (d1)     0.0000  0.0000  0.0000  0.0000  0.0000  0.0000  0.0000  0.0000

           AO          9      10      11      12      13      14      15      16
      ------------ ------- ------- ------- ------- ------- ------- ------- -------
   1.  S 1 (s)      0.0000  0.0000  0.0000  0.0375  0.0486  0.0384  0.0228  0.0000
   2.  S 1 (s)      0.0000  0.0000  0.0000 -0.1733 -0.2246 -0.1784 -0.1083  0.0000
   3.  S 1 (px)    -0.4682  0.6496 -0.2677  0.0000  0.0000  0.0000  0.0000  0.0006
   4.  S 1 (py)     0.5238  0.2677  0.6496  0.0000  0.0000  0.0000  0.0000 -0.1417
   5.  S 1 (pz)     0.0000  0.0000  0.0000  0.0592  0.0499 -0.1134 -0.1581  0.0000
   6.  S 1 (s)      0.0000  0.0000  0.0000  0.3425  0.4530  0.3853  0.2296  0.0000
   7.  S 1 (px)    -0.0101  0.0138 -0.0057  0.0000  0.0000  0.0000  0.0000 -0.0017
   8.  S 1 (py)     0.0113  0.0057  0.0138  0.0000  0.0000  0.0000  0.0000  0.3698
   9.  S 1 (pz)     0.0000  0.0000  0.0000 -0.1253 -0.1052  0.2820  0.3973  0.0000
  10.  S 1 (s)      0.0000  0.0000  0.0000  0.0741  0.1580  0.2790  0.2501  0.0000
  11.  S 1 (px)     0.0026 -0.0031  0.0013  0.0000  0.0000  0.0000  0.0000 -0.0007
  12.  S 1 (py)    -0.0029 -0.0013 -0.0031  0.0000  0.0000  0.0000  0.0000  0.1458
  13.  S 1 (pz)     0.0000  0.0000  0.0000  0.0119 -0.0052  0.0472  0.0827  0.0000
  14.  S 1 (d5)     0.0000  0.0000  0.0000  0.0325  0.0301 -0.0342 -0.0497  0.0000
  15.  S 1 (d2)     0.0002 -0.0002  0.0001  0.0000  0.0000  0.0000  0.0000  0.0002
  16.  S 1 (d3)    -0.0002 -0.0001 -0.0002  0.0000  0.0000  0.0000  0.0000 -0.0464
  17.  S 1 (d4)     0.0000  0.0000  0.0000  0.0000  0.0000  0.0000  0.0000  0.0000
  18.  S 1 (d1)     0.0000  0.0000  0.0000  0.0000  0.0000  0.0000  0.0000  0.0000
  19.  C 2 (s)      0.0000  0.0000  0.0000 -0.1669  0.0000  0.1196  0.0000  0.0000
  20.  C 2 (s)      0.0000  0.0000  0.0000  0.3410  0.0000 -0.2586  0.0000  0.0000
  21.  C 2 (px)     0.0000 -0.0003  0.0001  0.0000  0.0000  0.0000  0.0000 -0.0016
  22.  C 2 (py)     0.0000 -0.0001 -0.0003  0.0000  0.0000  0.0000  0.0000  0.3528
  23.  C 2 (pz)     0.0000  0.0000  0.0000  0.0000  0.3151  0.0000 -0.3785  0.0000
  24.  C 2 (s)      0.0000  0.0000  0.0000  0.2602  0.0000 -0.3389  0.0000  0.0000
  25.  C 2 (px)     0.0000  0.0003 -0.0001  0.0000  0.0000  0.0000  0.0000 -0.0011
  26.  C 2 (py)     0.0000  0.0001  0.0003  0.0000  0.0000  0.0000  0.0000  0.2428
  27.  C 2 (pz)     0.0000  0.0000  0.0000  0.0000  0.0418  0.0000 -0.1336  0.0000
  28.  C 2 (d5)     0.0000  0.0000  0.0000  0.0313  0.0000 -0.0118  0.0000  0.0000
  29.  C 2 (d2)     0.0003  0.0000  0.0000  0.0000  0.0000  0.0000  0.0000  0.0000
  30.  C 2 (d3)    -0.0004  0.0000  0.0000  0.0000  0.0000  0.0000  0.0000  0.0000
  31.  C 2 (d4)     0.0000  0.0000  0.0000  0.0000  0.0000  0.0000  0.0000  0.0000
  32.  C 2 (d1)     0.0000  0.0000  0.0000  0.0000  0.0000  0.0000  0.0000  0.0000
  33.  S 3 (s)      0.0000  0.0000  0.0000  0.0375 -0.0486  0.0384 -0.0228  0.0000
  34.  S 3 (s)      0.0000  0.0000  0.0000 -0.1733  0.2246 -0.1784  0.1083  0.0000
  35.  S 3 (px)     0.4682  0.6496 -0.2677  0.0000  0.0000  0.0000  0.0000  0.0006
  36.  S 3 (py)    -0.5238  0.2677  0.6496  0.0000  0.0000  0.0000  0.0000 -0.1417
  37.  S 3 (pz)     0.0000  0.0000  0.0000 -0.0592  0.0499  0.1134 -0.1581  0.0000
  38.  S 3 (s)      0.0000  0.0000  0.0000  0.3425 -0.4530  0.3853 -0.2296  0.0000
  39.  S 3 (px)     0.0101  0.0138 -0.0057  0.0000  0.0000  0.0000  0.0000 -0.0017
  40.  S 3 (py)    -0.0113  0.0057  0.0138  0.0000  0.0000  0.0000  0.0000  0.3698
  41.  S 3 (pz)     0.0000  0.0000  0.0000  0.1253 -0.1052 -0.2820  0.3973  0.0000
  42.  S 3 (s)      0.0000  0.0000  0.0000  0.0741 -0.1580  0.2790 -0.2501  0.0000
  43.  S 3 (px)    -0.0026 -0.0031  0.0013  0.0000  0.0000  0.0000  0.0000 -0.0007
  44.  S 3 (py)     0.0029 -0.0013 -0.0031  0.0000  0.0000  0.0000  0.0000  0.1458
  45.  S 3 (pz)     0.0000  0.0000  0.0000 -0.0119 -0.0052 -0.0472  0.0827  0.0000
  46.  S 3 (d5)     0.0000  0.0000  0.0000  0.0325 -0.0301 -0.0342  0.0497  0.0000
  47.  S 3 (d2)     0.0002  0.0002 -0.0001  0.0000  0.0000  0.0000  0.0000 -0.0002
  48.  S 3 (d3)    -0.0002  0.0001  0.0002  0.0000  0.0000  0.0000  0.0000  0.0464
  49.  S 3 (d4)     0.0000  0.0000  0.0000  0.0000  0.0000  0.0000  0.0000  0.0000
  50.  S 3 (d1)     0.0000  0.0000  0.0000  0.0000  0.0000  0.0000  0.0000  0.0000

           AO         17      18      19      20      21      22      23      24
      ------------ ------- ------- ------- ------- ------- ------- ------- -------
   1.  S 1 (s)      0.0000  0.0000  0.0000  0.0000  0.0000 -0.0123 -0.0076 -0.0473
   2.  S 1 (s)      0.0000  0.0000  0.0000  0.0000  0.0000  0.0781  0.0538  0.0847
   3.  S 1 (px)    -0.1417 -0.1588 -0.0990  0.1114  0.0127  0.0000  0.0000  0.0000
   4.  S 1 (py)    -0.0006  0.0990 -0.1588 -0.0127  0.1114  0.0000  0.0000  0.0000
   5.  S 1 (pz)     0.0000  0.0000  0.0000  0.0000  0.0000 -0.0789 -0.0261 -0.0947
   6.  S 1 (s)      0.0000  0.0000  0.0000  0.0000  0.0000 -0.0661 -0.0291 -1.0344
   7.  S 1 (px)     0.3698  0.4240  0.2644 -0.3009 -0.0344  0.0000  0.0000  0.0000
   8.  S 1 (py)     0.0017 -0.2644  0.4240  0.0344 -0.3009  0.0000  0.0000  0.0000
   9.  S 1 (pz)     0.0000  0.0000  0.0000  0.0000  0.0000  0.2013  0.0813  0.3370
  10.  S 1 (s)      0.0000  0.0000  0.0000  0.0000  0.0000 -0.8572 -1.6217  1.1700
  11.  S 1 (px)     0.1458  0.2628  0.1639 -0.4588 -0.0524  0.0000  0.0000  0.0000
  12.  S 1 (py)     0.0007 -0.1639  0.2628  0.0524 -0.4588  0.0000  0.0000  0.0000
  13.  S 1 (pz)     0.0000  0.0000  0.0000  0.0000  0.0000  1.0859  1.5658 -0.3765
  14.  S 1 (d5)     0.0000  0.0000  0.0000  0.0000  0.0000  0.0956  0.1149 -0.0163
  15.  S 1 (d2)    -0.0464 -0.0201 -0.0125 -0.0844 -0.0096  0.0000  0.0000  0.0000
  16.  S 1 (d3)    -0.0002  0.0125 -0.0201  0.0096 -0.0844  0.0000  0.0000  0.0000
  17.  S 1 (d4)     0.0000  0.0000  0.0000  0.0000  0.0000  0.0000  0.0000  0.0000
  18.  S 1 (d1)     0.0000  0.0000  0.0000  0.0000  0.0000  0.0000  0.0000  0.0000
  19.  C 2 (s)      0.0000  0.0000  0.0000  0.0000  0.0000 -0.1364  0.0000 -0.0357
  20.  C 2 (s)      0.0000  0.0000  0.0000  0.0000  0.0000  0.1787  0.0000 -0.0585
  21.  C 2 (px)     0.3528  0.0000  0.0000  0.4424  0.0506  0.0000  0.0000  0.0000
  22.  C 2 (py)     0.0016  0.0000  0.0000 -0.0506  0.4424  0.0000  0.0000  0.0000
  23.  C 2 (pz)     0.0000  0.0000  0.0000  0.0000  0.0000  0.0000  0.3098  0.0000
  24.  C 2 (s)      0.0000  0.0000  0.0000  0.0000  0.0000  2.2938  0.0000 -0.4395
  25.  C 2 (px)     0.2428  0.0000  0.0000  0.6871  0.0785  0.0000  0.0000  0.0000
  26.  C 2 (py)     0.0011  0.0000  0.0000 -0.0785  0.6871  0.0000  0.0000  0.0000
  27.  C 2 (pz)     0.0000  0.0000  0.0000  0.0000  0.0000  0.0000  1.7158  0.0000
  28.  C 2 (d5)     0.0000  0.0000  0.0000  0.0000  0.0000  0.0004  0.0000 -0.0904
  29.  C 2 (d2)     0.0000  0.0387  0.0241  0.0000  0.0000  0.0000  0.0000  0.0000
  30.  C 2 (d3)     0.0000 -0.0241  0.0387  0.0000  0.0000  0.0000  0.0000  0.0000
  31.  C 2 (d4)     0.0000  0.0000  0.0000  0.0000  0.0000  0.0000  0.0000  0.0000
  32.  C 2 (d1)     0.0000  0.0000  0.0000  0.0000  0.0000  0.0000  0.0000  0.0000
  33.  S 3 (s)      0.0000  0.0000  0.0000  0.0000  0.0000 -0.0123  0.0076 -0.0473
  34.  S 3 (s)      0.0000  0.0000  0.0000  0.0000  0.0000  0.0781 -0.0538  0.0847
  35.  S 3 (px)    -0.1417  0.1588  0.0990  0.1114  0.0127  0.0000  0.0000  0.0000
  36.  S 3 (py)    -0.0006 -0.0990  0.1588 -0.0127  0.1114  0.0000  0.0000  0.0000
  37.  S 3 (pz)     0.0000  0.0000  0.0000  0.0000  0.0000  0.0789 -0.0261  0.0947
  38.  S 3 (s)      0.0000  0.0000  0.0000  0.0000  0.0000 -0.0661  0.0291 -1.0344
  39.  S 3 (px)     0.3698 -0.4240 -0.2644 -0.3009 -0.0344  0.0000  0.0000  0.0000
  40.  S 3 (py)     0.0017  0.2644 -0.4240  0.0344 -0.3009  0.0000  0.0000  0.0000
  41.  S 3 (pz)     0.0000  0.0000  0.0000  0.0000  0.0000 -0.2013  0.0813 -0.3370
  42.  S 3 (s)      0.0000  0.0000  0.0000  0.0000  0.0000 -0.8572  1.6217  1.1700
  43.  S 3 (px)     0.1458 -0.2628 -0.1639 -0.4588 -0.0524  0.0000  0.0000  0.0000
  44.  S 3 (py)     0.0007  0.1639 -0.2628  0.0524 -0.4588  0.0000  0.0000  0.0000
  45.  S 3 (pz)     0.0000  0.0000  0.0000  0.0000  0.0000 -1.0859  1.5658  0.3765
  46.  S 3 (d5)     0.0000  0.0000  0.0000  0.0000  0.0000  0.0956 -0.1149 -0.0163
  47.  S 3 (d2)     0.0464 -0.0201 -0.0125  0.0844  0.0096  0.0000  0.0000  0.0000
  48.  S 3 (d3)     0.0002  0.0125 -0.0201 -0.0096  0.0844  0.0000  0.0000  0.0000
  49.  S 3 (d4)     0.0000  0.0000  0.0000  0.0000  0.0000  0.0000  0.0000  0.0000
  50.  S 3 (d1)     0.0000  0.0000  0.0000  0.0000  0.0000  0.0000  0.0000  0.0000

           AO         25      26      27      28      29      30      31      32
      ------------ ------- ------- ------- ------- ------- ------- ------- -------
   1.  S 1 (s)     -0.0469  0.0000  0.0000  0.0189  0.0000  0.0000  0.0221  0.0000
   2.  S 1 (s)      0.0769  0.0000  0.0000 -0.0148  0.0000  0.0000 -0.0609  0.0000
   3.  S 1 (px)     0.0000 -0.1425  0.1504  0.0000  0.1400  0.1374  0.0000 -0.0240
   4.  S 1 (py)     0.0000  0.1504  0.1425  0.0000 -0.1374  0.1400  0.0000 -0.0010
   5.  S 1 (pz)     0.0927  0.0000  0.0000 -0.2108  0.0000  0.0000  0.1675  0.0000
   6.  S 1 (s)     -1.0629  0.0000  0.0000  0.4965  0.0000  0.0000  0.4153  0.0000
   7.  S 1 (px)     0.0000  0.5728 -0.6043  0.0000 -0.5844 -0.5735  0.0000  0.0788
   8.  S 1 (py)     0.0000 -0.6043 -0.5728  0.0000  0.5735 -0.5844  0.0000  0.0033
   9.  S 1 (pz)    -0.3999  0.0000  0.0000  0.8169  0.0000  0.0000 -0.5764  0.0000
  10.  S 1 (s)      1.6806  0.0000  0.0000 -0.6859  0.0000  0.0000 -1.7733  0.0000
  11.  S 1 (px)     0.0000 -0.5994  0.6324  0.0000  0.6780  0.6653  0.0000 -0.4704
  12.  S 1 (py)     0.0000  0.6324  0.5994  0.0000 -0.6653  0.6780  0.0000 -0.0198
  13.  S 1 (pz)    -0.0414  0.0000  0.0000 -0.6094  0.0000  0.0000  1.4273  0.0000
  14.  S 1 (d5)    -0.0283  0.0000  0.0000  0.0613  0.0000  0.0000 -0.3016  0.0000
  15.  S 1 (d2)     0.0000 -0.0182  0.0192  0.0000  0.0688  0.0675  0.0000 -0.0897
  16.  S 1 (d3)     0.0000  0.0192  0.0182  0.0000 -0.0675  0.0688  0.0000 -0.0038
  17.  S 1 (d4)     0.0000  0.0000  0.0000  0.0000  0.0000  0.0000  0.0000  0.0000
  18.  S 1 (d1)     0.0000  0.0000  0.0000  0.0000  0.0000  0.0000  0.0000  0.0000
  19.  C 2 (s)      0.0000  0.0000  0.0000 -0.0578  0.0000  0.0000  0.0000  0.0000
  20.  C 2 (s)      0.0000  0.0000  0.0000  0.1242  0.0000  0.0000  0.0000  0.0000
  21.  C 2 (px)     0.0000  0.0349 -0.0368  0.0000  0.0000  0.0000  0.0000 -1.1235
  22.  C 2 (py)     0.0000 -0.0368 -0.0349  0.0000  0.0000  0.0000  0.0000 -0.0473
  23.  C 2 (pz)     0.0230  0.0000  0.0000  0.0000  0.0000  0.0000 -0.7711  0.0000
  24.  C 2 (s)      0.0000  0.0000  0.0000  0.1419  0.0000  0.0000  0.0000  0.0000
  25.  C 2 (px)     0.0000  0.0929 -0.0981  0.0000  0.0000  0.0000  0.0000  1.4230
  26.  C 2 (py)     0.0000 -0.0981 -0.0929  0.0000  0.0000  0.0000  0.0000  0.0599
  27.  C 2 (pz)    -0.7039  0.0000  0.0000  0.0000  0.0000  0.0000  1.9225  0.0000
  28.  C 2 (d5)     0.0000  0.0000  0.0000 -0.0594  0.0000  0.0000  0.0000  0.0000
  29.  C 2 (d2)     0.0000  0.0000  0.0000  0.0000 -0.0597 -0.0586  0.0000  0.0000
  30.  C 2 (d3)     0.0000  0.0000  0.0000  0.0000  0.0586 -0.0597  0.0000  0.0000
  31.  C 2 (d4)     0.0000  0.0000  0.0000  0.0000  0.0000  0.0000  0.0000  0.0000
  32.  C 2 (d1)     0.0000  0.0000  0.0000  0.0000  0.0000  0.0000  0.0000  0.0000
  33.  S 3 (s)      0.0469  0.0000  0.0000  0.0189  0.0000  0.0000 -0.0221  0.0000
  34.  S 3 (s)     -0.0769  0.0000  0.0000 -0.0148  0.0000  0.0000  0.0609  0.0000
  35.  S 3 (px)     0.0000 -0.1425  0.1504  0.0000 -0.1400 -0.1374  0.0000 -0.0240
  36.  S 3 (py)     0.0000  0.1504  0.1425  0.0000  0.1374 -0.1400  0.0000 -0.0010
  37.  S 3 (pz)     0.0927  0.0000  0.0000  0.2108  0.0000  0.0000  0.1675  0.0000
  38.  S 3 (s)      1.0629  0.0000  0.0000  0.4965  0.0000  0.0000 -0.4153  0.0000
  39.  S 3 (px)     0.0000  0.5728 -0.6043  0.0000  0.5844  0.5735  0.0000  0.0788
  40.  S 3 (py)     0.0000 -0.6043 -0.5728  0.0000 -0.5735  0.5844  0.0000  0.0033
  41.  S 3 (pz)    -0.3999  0.0000  0.0000 -0.8169  0.0000  0.0000 -0.5764  0.0000
  42.  S 3 (s)     -1.6806  0.0000  0.0000 -0.6859  0.0000  0.0000  1.7733  0.0000
  43.  S 3 (px)     0.0000 -0.5994  0.6324  0.0000 -0.6780 -0.6653  0.0000 -0.4704
  44.  S 3 (py)     0.0000  0.6324  0.5994  0.0000  0.6653 -0.6780  0.0000 -0.0198
  45.  S 3 (pz)    -0.0414  0.0000  0.0000  0.6094  0.0000  0.0000  1.4273  0.0000
  46.  S 3 (d5)     0.0283  0.0000  0.0000  0.0613  0.0000  0.0000  0.3016  0.0000
  47.  S 3 (d2)     0.0000  0.0182 -0.0192  0.0000  0.0688  0.0675  0.0000  0.0897
  48.  S 3 (d3)     0.0000 -0.0192 -0.0182  0.0000 -0.0675  0.0688  0.0000  0.0038
  49.  S 3 (d4)     0.0000  0.0000  0.0000  0.0000  0.0000  0.0000  0.0000  0.0000
  50.  S 3 (d1)     0.0000  0.0000  0.0000  0.0000  0.0000  0.0000  0.0000  0.0000

           AO         33      34      35      36      37      38      39      40
      ------------ ------- ------- ------- ------- ------- ------- ------- -------
   1.  S 1 (s)      0.0000  0.0000  0.0000  0.0000  0.0000  0.0000  0.0000  0.0117
   2.  S 1 (s)      0.0000  0.0000  0.0000  0.0000  0.0000  0.0000  0.0000  0.0031
   3.  S 1 (px)     0.0010 -0.0437  0.0394  0.0000  0.0000  0.0000  0.0000  0.0000
   4.  S 1 (py)    -0.0240 -0.0394 -0.0437  0.0000  0.0000  0.0000  0.0000  0.0000
   5.  S 1 (pz)     0.0000  0.0000  0.0000  0.0000  0.0000  0.0000  0.0000  0.0152
   6.  S 1 (s)      0.0000  0.0000  0.0000  0.0000  0.0000  0.0000  0.0000  0.3375
   7.  S 1 (px)    -0.0033  0.1700 -0.1533  0.0000  0.0000  0.0000  0.0000  0.0000
   8.  S 1 (py)     0.0788  0.1533  0.1700  0.0000  0.0000  0.0000  0.0000  0.0000
   9.  S 1 (pz)     0.0000  0.0000  0.0000  0.0000  0.0000  0.0000  0.0000  0.0364
  10.  S 1 (s)      0.0000  0.0000  0.0000  0.0000  0.0000  0.0000  0.0000 -1.8405
  11.  S 1 (px)     0.0198 -0.1280  0.1155  0.0000  0.0000  0.0000  0.0000  0.0000
  12.  S 1 (py)    -0.4704 -0.1155 -0.1280  0.0000  0.0000  0.0000  0.0000  0.0000
  13.  S 1 (pz)     0.0000  0.0000  0.0000  0.0000  0.0000  0.0000  0.0000  1.2317
  14.  S 1 (d5)     0.0000  0.0000  0.0000  0.0000  0.0000  0.0000  0.0000 -0.4040
  15.  S 1 (d2)     0.0038  0.4596 -0.4146  0.0000  0.0000  0.0000  0.0000  0.0000
  16.  S 1 (d3)    -0.0897  0.4146  0.4596  0.0000  0.0000  0.0000  0.0000  0.0000
  17.  S 1 (d4)     0.0000  0.0000  0.0000  0.6863  0.1201  0.6915 -0.1477  0.0000
  18.  S 1 (d1)     0.0000  0.0000  0.0000 -0.1201  0.6863  0.1477  0.6915  0.0000
  19.  C 2 (s)      0.0000  0.0000  0.0000  0.0000  0.0000  0.0000  0.0000 -0.0680
  20.  C 2 (s)      0.0000  0.0000  0.0000  0.0000  0.0000  0.0000  0.0000 -1.7920
  21.  C 2 (px)     0.0473  0.0000  0.0000  0.0000  0.0000  0.0000  0.0000  0.0000
  22.  C 2 (py)    -1.1235  0.0000  0.0000  0.0000  0.0000  0.0000  0.0000  0.0000
  23.  C 2 (pz)     0.0000  0.0000  0.0000  0.0000  0.0000  0.0000  0.0000  0.0000
  24.  C 2 (s)      0.0000  0.0000  0.0000  0.0000  0.0000  0.0000  0.0000  5.0484
  25.  C 2 (px)    -0.0599  0.0000  0.0000  0.0000  0.0000  0.0000  0.0000  0.0000
  26.  C 2 (py)     1.4230  0.0000  0.0000  0.0000  0.0000  0.0000  0.0000  0.0000
  27.  C 2 (pz)     0.0000  0.0000  0.0000  0.0000  0.0000  0.0000  0.0000  0.0000
  28.  C 2 (d5)     0.0000  0.0000  0.0000  0.0000  0.0000  0.0000  0.0000 -0.0877
  29.  C 2 (d2)     0.0000 -0.1851  0.1670  0.0000  0.0000  0.0000  0.0000  0.0000
  30.  C 2 (d3)     0.0000 -0.1670 -0.1851  0.0000  0.0000  0.0000  0.0000  0.0000
  31.  C 2 (d4)     0.0000  0.0000  0.0000  0.1185  0.0208  0.0000  0.0000  0.0000
  32.  C 2 (d1)     0.0000  0.0000  0.0000 -0.0208  0.1185  0.0000  0.0000  0.0000
  33.  S 3 (s)      0.0000  0.0000  0.0000  0.0000  0.0000  0.0000  0.0000  0.0117
  34.  S 3 (s)      0.0000  0.0000  0.0000  0.0000  0.0000  0.0000  0.0000  0.0031
  35.  S 3 (px)     0.0010  0.0437 -0.0394  0.0000  0.0000  0.0000  0.0000  0.0000
  36.  S 3 (py)    -0.0240  0.0394  0.0437  0.0000  0.0000  0.0000  0.0000  0.0000
  37.  S 3 (pz)     0.0000  0.0000  0.0000  0.0000  0.0000  0.0000  0.0000 -0.0152
  38.  S 3 (s)      0.0000  0.0000  0.0000  0.0000  0.0000  0.0000  0.0000  0.3375
  39.  S 3 (px)    -0.0033 -0.1700  0.1533  0.0000  0.0000  0.0000  0.0000  0.0000
  40.  S 3 (py)     0.0788 -0.1533 -0.1700  0.0000  0.0000  0.0000  0.0000  0.0000
  41.  S 3 (pz)     0.0000  0.0000  0.0000  0.0000  0.0000  0.0000  0.0000 -0.0364
  42.  S 3 (s)      0.0000  0.0000  0.0000  0.0000  0.0000  0.0000  0.0000 -1.8405
  43.  S 3 (px)     0.0198  0.1280 -0.1155  0.0000  0.0000  0.0000  0.0000  0.0000
  44.  S 3 (py)    -0.4704  0.1155  0.1280  0.0000  0.0000  0.0000  0.0000  0.0000
  45.  S 3 (pz)     0.0000  0.0000  0.0000  0.0000  0.0000  0.0000  0.0000 -1.2317
  46.  S 3 (d5)     0.0000  0.0000  0.0000  0.0000  0.0000  0.0000  0.0000 -0.4040
  47.  S 3 (d2)    -0.0038  0.4596 -0.4146  0.0000  0.0000  0.0000  0.0000  0.0000
  48.  S 3 (d3)     0.0897  0.4146  0.4596  0.0000  0.0000  0.0000  0.0000  0.0000
  49.  S 3 (d4)     0.0000  0.0000  0.0000  0.6863  0.1201 -0.6915  0.1477  0.0000
  50.  S 3 (d1)     0.0000  0.0000  0.0000 -0.1201  0.6863 -0.1477 -0.6915  0.0000

           AO         41      42      43      44      45      46      47      48
      ------------ ------- ------- ------- ------- ------- ------- ------- -------
   1.  S 1 (s)      0.0000  0.0000 -0.0293  0.0019 -0.0133  0.0000  0.0000  0.0000
   2.  S 1 (s)      0.0000  0.0000 -0.0221 -0.0236  0.0548  0.0000  0.0000  0.0000
   3.  S 1 (px)    -0.0017 -0.0056  0.0000  0.0000  0.0000  0.0000  0.0000  0.0324
   4.  S 1 (py)    -0.0056  0.0017  0.0000  0.0000  0.0000  0.0000  0.0000  0.0363
   5.  S 1 (pz)     0.0000  0.0000 -0.1559  0.0318 -0.1171  0.0000  0.0000  0.0000
   6.  S 1 (s)      0.0000  0.0000 -0.9468 -0.0408 -0.2109  0.0000  0.0000  0.0000
   7.  S 1 (px)     0.0102  0.0345  0.0000  0.0000  0.0000  0.0000  0.0000 -0.1193
   8.  S 1 (py)     0.0345 -0.0102  0.0000  0.0000  0.0000  0.0000  0.0000 -0.1336
   9.  S 1 (pz)     0.0000  0.0000  1.0139 -0.0386  0.5395  0.0000  0.0000  0.0000
  10.  S 1 (s)      0.0000  0.0000 -2.6824 -0.2543 -0.8584  0.0000  0.0000  0.0000
  11.  S 1 (px)    -0.1026 -0.3477  0.0000  0.0000  0.0000  0.0000  0.0000 -0.0101
  12.  S 1 (py)    -0.3477  0.1026  0.0000  0.0000  0.0000  0.0000  0.0000 -0.0113
  13.  S 1 (pz)     0.0000  0.0000  1.2320  0.1283  0.4623  0.0000  0.0000  0.0000
  14.  S 1 (d5)     0.0000  0.0000 -0.0744  0.5996 -0.7818  0.0000  0.0000  0.0000
  15.  S 1 (d2)     0.2092  0.7088  0.0000  0.0000  0.0000  0.0000  0.0000  0.2732
  16.  S 1 (d3)     0.7088 -0.2092  0.0000  0.0000  0.0000  0.0000  0.0000  0.3060
  17.  S 1 (d4)     0.0000  0.0000  0.0000  0.0000  0.0000  0.0419 -0.1210  0.0000
  18.  S 1 (d1)     0.0000  0.0000  0.0000  0.0000  0.0000 -0.1210 -0.0419  0.0000
  19.  C 2 (s)      0.0000  0.0000  0.0000  0.0578  0.0000  0.0000  0.0000  0.0000
  20.  C 2 (s)      0.0000  0.0000  0.0000 -1.4313  0.0000  0.0000  0.0000  0.0000
  21.  C 2 (px)    -0.0196 -0.0664  0.0000  0.0000  0.0000  0.0000  0.0000  0.0000
  22.  C 2 (py)    -0.0664  0.0196  0.0000  0.0000  0.0000  0.0000  0.0000  0.0000
  23.  C 2 (pz)     0.0000  0.0000 -0.7321  0.0000  0.9268  0.0000  0.0000  0.0000
  24.  C 2 (s)      0.0000  0.0000  0.0000  1.4970  0.0000  0.0000  0.0000  0.0000
  25.  C 2 (px)     0.2233  0.7567  0.0000  0.0000  0.0000  0.0000  0.0000  0.0000
  26.  C 2 (py)     0.7567 -0.2233  0.0000  0.0000  0.0000  0.0000  0.0000  0.0000
  27.  C 2 (pz)     0.0000  0.0000  5.4401  0.0000  1.0212  0.0000  0.0000  0.0000
  28.  C 2 (d5)     0.0000  0.0000  0.0000  0.1100  0.0000  0.0000  0.0000  0.0000
  29.  C 2 (d2)     0.0000  0.0000  0.0000  0.0000  0.0000  0.0000  0.0000  0.6985
  30.  C 2 (d3)     0.0000  0.0000  0.0000  0.0000  0.0000  0.0000  0.0000  0.7823
  31.  C 2 (d4)     0.0000  0.0000  0.0000  0.0000  0.0000 -0.3254  0.9399  0.0000
  32.  C 2 (d1)     0.0000  0.0000  0.0000  0.0000  0.0000  0.9399  0.3254  0.0000
  33.  S 3 (s)      0.0000  0.0000  0.0293  0.0019  0.0133  0.0000  0.0000  0.0000
  34.  S 3 (s)      0.0000  0.0000  0.0221 -0.0236 -0.0548  0.0000  0.0000  0.0000
  35.  S 3 (px)    -0.0017 -0.0056  0.0000  0.0000  0.0000  0.0000  0.0000 -0.0324
  36.  S 3 (py)    -0.0056  0.0017  0.0000  0.0000  0.0000  0.0000  0.0000 -0.0363
  37.  S 3 (pz)     0.0000  0.0000 -0.1559 -0.0318 -0.1171  0.0000  0.0000  0.0000
  38.  S 3 (s)      0.0000  0.0000  0.9468 -0.0408  0.2109  0.0000  0.0000  0.0000
  39.  S 3 (px)     0.0102  0.0345  0.0000  0.0000  0.0000  0.0000  0.0000  0.1193
  40.  S 3 (py)     0.0345 -0.0102  0.0000  0.0000  0.0000  0.0000  0.0000  0.1336
  41.  S 3 (pz)     0.0000  0.0000  1.0139  0.0386  0.5395  0.0000  0.0000  0.0000
  42.  S 3 (s)      0.0000  0.0000  2.6824 -0.2543  0.8584  0.0000  0.0000  0.0000
  43.  S 3 (px)    -0.1026 -0.3477  0.0000  0.0000  0.0000  0.0000  0.0000  0.0101
  44.  S 3 (py)    -0.3477  0.1026  0.0000  0.0000  0.0000  0.0000  0.0000  0.0113
  45.  S 3 (pz)     0.0000  0.0000  1.2320 -0.1283  0.4623  0.0000  0.0000  0.0000
  46.  S 3 (d5)     0.0000  0.0000  0.0744  0.5996  0.7818  0.0000  0.0000  0.0000
  47.  S 3 (d2)    -0.2092 -0.7088  0.0000  0.0000  0.0000  0.0000  0.0000  0.2732
  48.  S 3 (d3)    -0.7088  0.2092  0.0000  0.0000  0.0000  0.0000  0.0000  0.3060
  49.  S 3 (d4)     0.0000  0.0000  0.0000  0.0000  0.0000  0.0419 -0.1210  0.0000
  50.  S 3 (d1)     0.0000  0.0000  0.0000  0.0000  0.0000 -0.1210 -0.0419  0.0000

           AO         49      50
      ------------ ------- -------
   1.  S 1 (s)      0.0000 -0.0208
   2.  S 1 (s)      0.0000  0.0818
   3.  S 1 (px)     0.0363  0.0000
   4.  S 1 (py)    -0.0324  0.0000
   5.  S 1 (pz)     0.0000 -0.1379
   6.  S 1 (s)      0.0000 -0.4089
   7.  S 1 (px)    -0.1336  0.0000
   8.  S 1 (py)     0.1193  0.0000
   9.  S 1 (pz)     0.0000  0.7668
  10.  S 1 (s)      0.0000 -0.6663
  11.  S 1 (px)    -0.0113  0.0000
  12.  S 1 (py)     0.0101  0.0000
  13.  S 1 (pz)     0.0000  0.3253
  14.  S 1 (d5)     0.0000 -0.5937
  15.  S 1 (d2)     0.3060  0.0000
  16.  S 1 (d3)    -0.2732  0.0000
  17.  S 1 (d4)     0.0000  0.0000
  18.  S 1 (d1)     0.0000  0.0000
  19.  C 2 (s)      0.0000 -0.1056
  20.  C 2 (s)      0.0000 -0.2808
  21.  C 2 (px)     0.0000  0.0000
  22.  C 2 (py)     0.0000  0.0000
  23.  C 2 (pz)     0.0000  0.0000
  24.  C 2 (s)      0.0000  2.3198
  25.  C 2 (px)     0.0000  0.0000
  26.  C 2 (py)     0.0000  0.0000
  27.  C 2 (pz)     0.0000  0.0000
  28.  C 2 (d5)     0.0000  1.4153
  29.  C 2 (d2)     0.7823  0.0000
  30.  C 2 (d3)    -0.6985  0.0000
  31.  C 2 (d4)     0.0000  0.0000
  32.  C 2 (d1)     0.0000  0.0000
  33.  S 3 (s)      0.0000 -0.0208
  34.  S 3 (s)      0.0000  0.0818
  35.  S 3 (px)    -0.0363  0.0000
  36.  S 3 (py)     0.0324  0.0000
  37.  S 3 (pz)     0.0000  0.1379
  38.  S 3 (s)      0.0000 -0.4089
  39.  S 3 (px)     0.1336  0.0000
  40.  S 3 (py)    -0.1193  0.0000
  41.  S 3 (pz)     0.0000 -0.7668
  42.  S 3 (s)      0.0000 -0.6663
  43.  S 3 (px)     0.0113  0.0000
  44.  S 3 (py)    -0.0101  0.0000
  45.  S 3 (pz)     0.0000 -0.3253
  46.  S 3 (d5)     0.0000 -0.5937
  47.  S 3 (d2)     0.3060  0.0000
  48.  S 3 (d3)    -0.2732  0.0000
  49.  S 3 (d4)     0.0000  0.0000
  50.  S 3 (d1)     0.0000  0.0000


 AO overlap matrix:

           AO          1       2       3       4       5       6       7       8
      ------------ ------- ------- ------- ------- ------- ------- ------- -------
   1.  S 1 (s)      1.0000  0.2627  0.0000  0.0000  0.0000  0.0102  0.0000  0.0000
   2.  S 1 (s)      0.2627  1.0000  0.0000  0.0000  0.0000  0.3228  0.0000  0.0000
   3.  S 1 (px)     0.0000  0.0000  1.0000  0.0000  0.0000  0.0000  0.3105  0.0000
   4.  S 1 (py)     0.0000  0.0000  0.0000  1.0000  0.0000  0.0000  0.0000  0.3105
   5.  S 1 (pz)     0.0000  0.0000  0.0000  0.0000  1.0000  0.0000  0.0000  0.0000
   6.  S 1 (s)      0.0102  0.3228  0.0000  0.0000  0.0000  1.0000  0.0000  0.0000
   7.  S 1 (px)     0.0000  0.0000  0.3105  0.0000  0.0000  0.0000  1.0000  0.0000
   8.  S 1 (py)     0.0000  0.0000  0.0000  0.3105  0.0000  0.0000  0.0000  1.0000
   9.  S 1 (pz)     0.0000  0.0000  0.0000  0.0000  0.3105  0.0000  0.0000  0.0000
  10.  S 1 (s)      0.0323  0.2491  0.0000  0.0000  0.0000  0.8283  0.0000  0.0000
  11.  S 1 (px)     0.0000  0.0000  0.0696  0.0000  0.0000  0.0000  0.6335  0.0000
  12.  S 1 (py)     0.0000  0.0000  0.0000  0.0696  0.0000  0.0000  0.0000  0.6335
  13.  S 1 (pz)     0.0000  0.0000  0.0000  0.0000  0.0696  0.0000  0.0000  0.0000
  14.  S 1 (d5)     0.0000  0.0000  0.0000  0.0000  0.0000  0.0000  0.0000  0.0000
  15.  S 1 (d2)     0.0000  0.0000  0.0000  0.0000  0.0000  0.0000  0.0000  0.0000
  16.  S 1 (d3)     0.0000  0.0000  0.0000  0.0000  0.0000  0.0000  0.0000  0.0000
  17.  S 1 (d4)     0.0000  0.0000  0.0000  0.0000  0.0000  0.0000  0.0000  0.0000
  18.  S 1 (d1)     0.0000  0.0000  0.0000  0.0000  0.0000  0.0000  0.0000  0.0000
  19.  C 2 (s)      0.0000  0.0000  0.0000  0.0000  0.0000  0.0198  0.0000  0.0000
  20.  C 2 (s)      0.0011  0.0148  0.0000  0.0000 -0.0162  0.1763  0.0000  0.0000
  21.  C 2 (px)     0.0000  0.0000  0.0049  0.0000  0.0000  0.0000  0.1045  0.0000
  22.  C 2 (py)     0.0000  0.0000  0.0000  0.0049  0.0000  0.0000  0.0000  0.1045
  23.  C 2 (pz)     0.0030  0.0343  0.0000  0.0000 -0.0333  0.2231  0.0000  0.0000
  24.  C 2 (s)      0.0098  0.0804  0.0000  0.0000 -0.0320  0.3515  0.0000  0.0000
  25.  C 2 (px)     0.0000  0.0000  0.0264  0.0000  0.0000  0.0000  0.2819  0.0000
  26.  C 2 (py)     0.0000  0.0000  0.0000  0.0264  0.0000  0.0000  0.0000  0.2819
  27.  C 2 (pz)     0.0237  0.1824  0.0000  0.0000 -0.0464  0.5615  0.0000  0.0000
  28.  C 2 (d5)     0.0023  0.0349  0.0000  0.0000 -0.0417  0.1641  0.0000  0.0000
  29.  C 2 (d2)     0.0000  0.0000  0.0085  0.0000  0.0000  0.0000  0.1399  0.0000
  30.  C 2 (d3)     0.0000  0.0000  0.0000  0.0085  0.0000  0.0000  0.0000  0.1399
  31.  C 2 (d4)     0.0000  0.0000  0.0000  0.0000  0.0000  0.0000  0.0000  0.0000
  32.  C 2 (d1)     0.0000  0.0000  0.0000  0.0000  0.0000  0.0000  0.0000  0.0000
  33.  S 3 (s)      0.0000  0.0000  0.0000  0.0000  0.0000  0.0000  0.0000  0.0000
  34.  S 3 (s)      0.0000  0.0000  0.0000  0.0000  0.0000  0.0000  0.0000  0.0000
  35.  S 3 (px)     0.0000  0.0000  0.0000  0.0000  0.0000  0.0000  0.0000  0.0000
  36.  S 3 (py)     0.0000  0.0000  0.0000  0.0000  0.0000  0.0000  0.0000  0.0000
  37.  S 3 (pz)     0.0000  0.0000  0.0000  0.0000  0.0000  0.0000  0.0000  0.0000
  38.  S 3 (s)      0.0000  0.0000  0.0000  0.0000  0.0000  0.0029  0.0000  0.0000
  39.  S 3 (px)     0.0000  0.0000  0.0000  0.0000  0.0000  0.0000  0.0016  0.0000
  40.  S 3 (py)     0.0000  0.0000  0.0000  0.0000  0.0000  0.0000  0.0000  0.0016
  41.  S 3 (pz)     0.0000  0.0001  0.0000  0.0000 -0.0001  0.0074  0.0000  0.0000
  42.  S 3 (s)      0.0006  0.0051  0.0000  0.0000 -0.0028  0.0408  0.0000  0.0000
  43.  S 3 (px)     0.0000  0.0000  0.0014  0.0000  0.0000  0.0000  0.0284  0.0000
  44.  S 3 (py)     0.0000  0.0000  0.0000  0.0014  0.0000  0.0000  0.0000  0.0284
  45.  S 3 (pz)     0.0022  0.0196  0.0000  0.0000 -0.0096  0.1222  0.0000  0.0000
  46.  S 3 (d5)     0.0000  0.0000  0.0000  0.0000  0.0000  0.0025  0.0000  0.0000
  47.  S 3 (d2)     0.0000  0.0000  0.0000  0.0000  0.0000  0.0000  0.0009  0.0000
  48.  S 3 (d3)     0.0000  0.0000  0.0000  0.0000  0.0000  0.0000  0.0000  0.0009
  49.  S 3 (d4)     0.0000  0.0000  0.0000  0.0000  0.0000  0.0000  0.0000  0.0000
  50.  S 3 (d1)     0.0000  0.0000  0.0000  0.0000  0.0000  0.0000  0.0000  0.0000

           AO          9      10      11      12      13      14      15      16
      ------------ ------- ------- ------- ------- ------- ------- ------- -------
   1.  S 1 (s)      0.0000  0.0323  0.0000  0.0000  0.0000  0.0000  0.0000  0.0000
   2.  S 1 (s)      0.0000  0.2491  0.0000  0.0000  0.0000  0.0000  0.0000  0.0000
   3.  S 1 (px)     0.0000  0.0000  0.0696  0.0000  0.0000  0.0000  0.0000  0.0000
   4.  S 1 (py)     0.0000  0.0000  0.0000  0.0696  0.0000  0.0000  0.0000  0.0000
   5.  S 1 (pz)     0.3105  0.0000  0.0000  0.0000  0.0696  0.0000  0.0000  0.0000
   6.  S 1 (s)      0.0000  0.8283  0.0000  0.0000  0.0000  0.0000  0.0000  0.0000
   7.  S 1 (px)     0.0000  0.0000  0.6335  0.0000  0.0000  0.0000  0.0000  0.0000
   8.  S 1 (py)     0.0000  0.0000  0.0000  0.6335  0.0000  0.0000  0.0000  0.0000
   9.  S 1 (pz)     1.0000  0.0000  0.0000  0.0000  0.6335  0.0000  0.0000  0.0000
  10.  S 1 (s)      0.0000  1.0000  0.0000  0.0000  0.0000  0.0000  0.0000  0.0000
  11.  S 1 (px)     0.0000  0.0000  1.0000  0.0000  0.0000  0.0000  0.0000  0.0000
  12.  S 1 (py)     0.0000  0.0000  0.0000  1.0000  0.0000  0.0000  0.0000  0.0000
  13.  S 1 (pz)     0.6335  0.0000  0.0000  0.0000  1.0000  0.0000  0.0000  0.0000
  14.  S 1 (d5)     0.0000  0.0000  0.0000  0.0000  0.0000  1.0000  0.0000  0.0000
  15.  S 1 (d2)     0.0000  0.0000  0.0000  0.0000  0.0000  0.0000  1.0000  0.0000
  16.  S 1 (d3)     0.0000  0.0000  0.0000  0.0000  0.0000  0.0000  0.0000  1.0000
  17.  S 1 (d4)     0.0000  0.0000  0.0000  0.0000  0.0000  0.0000  0.0000  0.0000
  18.  S 1 (d1)     0.0000  0.0000  0.0000  0.0000  0.0000  0.0000  0.0000  0.0000
  19.  C 2 (s)     -0.0462  0.0527  0.0000  0.0000 -0.1038  0.0309  0.0000  0.0000
  20.  C 2 (s)     -0.2957  0.3047  0.0000  0.0000 -0.4999  0.2172  0.0000  0.0000
  21.  C 2 (px)     0.0000  0.0000  0.1829  0.0000  0.0000  0.0000 -0.1336  0.0000
  22.  C 2 (py)     0.0000  0.0000  0.0000  0.1829  0.0000  0.0000  0.0000 -0.1336
  23.  C 2 (pz)    -0.3166  0.1847  0.0000  0.0000 -0.1287  0.2668  0.0000  0.0000
  24.  C 2 (s)     -0.3416  0.5344  0.0000  0.0000 -0.6370  0.1258  0.0000  0.0000
  25.  C 2 (px)     0.0000  0.0000  0.5257  0.0000  0.0000  0.0000 -0.1798  0.0000
  26.  C 2 (py)     0.0000  0.0000  0.0000  0.5257  0.0000  0.0000  0.0000 -0.1798
  27.  C 2 (pz)    -0.2923  0.5308  0.0000  0.0000 -0.1070  0.0344  0.0000  0.0000
  28.  C 2 (d5)    -0.2138  0.0588  0.0000  0.0000  0.0129  0.2452  0.0000  0.0000
  29.  C 2 (d2)     0.0000  0.0000  0.1009  0.0000  0.0000  0.0000 -0.2269  0.0000
  30.  C 2 (d3)     0.0000  0.0000  0.0000  0.1009  0.0000  0.0000  0.0000 -0.2269
  31.  C 2 (d4)     0.0000  0.0000  0.0000  0.0000  0.0000  0.0000  0.0000  0.0000
  32.  C 2 (d1)     0.0000  0.0000  0.0000  0.0000  0.0000  0.0000  0.0000  0.0000
  33.  S 3 (s)      0.0000  0.0006  0.0000  0.0000 -0.0022  0.0000  0.0000  0.0000
  34.  S 3 (s)     -0.0001  0.0051  0.0000  0.0000 -0.0196  0.0000  0.0000  0.0000
  35.  S 3 (px)     0.0000  0.0000  0.0014  0.0000  0.0000  0.0000  0.0000  0.0000
  36.  S 3 (py)     0.0000  0.0000  0.0000  0.0014  0.0000  0.0000  0.0000  0.0000
  37.  S 3 (pz)    -0.0001  0.0028  0.0000  0.0000 -0.0096  0.0000  0.0000  0.0000
  38.  S 3 (s)     -0.0074  0.0408  0.0000  0.0000 -0.1222  0.0025  0.0000  0.0000
  39.  S 3 (px)     0.0000  0.0000  0.0284  0.0000  0.0000  0.0000 -0.0009  0.0000
  40.  S 3 (py)     0.0000  0.0000  0.0000  0.0284  0.0000  0.0000  0.0000 -0.0009
  41.  S 3 (pz)    -0.0173  0.0573  0.0000  0.0000 -0.1469  0.0071  0.0000  0.0000
  42.  S 3 (s)     -0.0573  0.1301  0.0000  0.0000 -0.2628  0.0235  0.0000  0.0000
  43.  S 3 (px)     0.0000  0.0000  0.1301  0.0000  0.0000  0.0000 -0.0201  0.0000
  44.  S 3 (py)     0.0000  0.0000  0.0000  0.1301  0.0000  0.0000  0.0000 -0.0201
  45.  S 3 (pz)    -0.1469  0.2628  0.0000  0.0000 -0.4006  0.0571  0.0000  0.0000
  46.  S 3 (d5)    -0.0071  0.0235  0.0000  0.0000 -0.0571  0.0017  0.0000  0.0000
  47.  S 3 (d2)     0.0000  0.0000  0.0201  0.0000  0.0000  0.0000 -0.0003  0.0000
  48.  S 3 (d3)     0.0000  0.0000  0.0000  0.0201  0.0000  0.0000  0.0000 -0.0003
  49.  S 3 (d4)     0.0000  0.0000  0.0000  0.0000  0.0000  0.0000  0.0000  0.0000
  50.  S 3 (d1)     0.0000  0.0000  0.0000  0.0000  0.0000  0.0000  0.0000  0.0000

           AO         17      18      19      20      21      22      23      24
      ------------ ------- ------- ------- ------- ------- ------- ------- -------
   1.  S 1 (s)      0.0000  0.0000  0.0000  0.0011  0.0000  0.0000  0.0030  0.0098
   2.  S 1 (s)      0.0000  0.0000  0.0000  0.0148  0.0000  0.0000  0.0343  0.0804
   3.  S 1 (px)     0.0000  0.0000  0.0000  0.0000  0.0049  0.0000  0.0000  0.0000
   4.  S 1 (py)     0.0000  0.0000  0.0000  0.0000  0.0000  0.0049  0.0000  0.0000
   5.  S 1 (pz)     0.0000  0.0000  0.0000 -0.0162  0.0000  0.0000 -0.0333 -0.0320
   6.  S 1 (s)      0.0000  0.0000  0.0198  0.1763  0.0000  0.0000  0.2231  0.3515
   7.  S 1 (px)     0.0000  0.0000  0.0000  0.0000  0.1045  0.0000  0.0000  0.0000
   8.  S 1 (py)     0.0000  0.0000  0.0000  0.0000  0.0000  0.1045  0.0000  0.0000
   9.  S 1 (pz)     0.0000  0.0000 -0.0462 -0.2957  0.0000  0.0000 -0.3166 -0.3416
  10.  S 1 (s)      0.0000  0.0000  0.0527  0.3047  0.0000  0.0000  0.1847  0.5344
  11.  S 1 (px)     0.0000  0.0000  0.0000  0.0000  0.1829  0.0000  0.0000  0.0000
  12.  S 1 (py)     0.0000  0.0000  0.0000  0.0000  0.0000  0.1829  0.0000  0.0000
  13.  S 1 (pz)     0.0000  0.0000 -0.1038 -0.4999  0.0000  0.0000 -0.1287 -0.6370
  14.  S 1 (d5)     0.0000  0.0000  0.0309  0.2172  0.0000  0.0000  0.2668  0.1258
  15.  S 1 (d2)     0.0000  0.0000  0.0000  0.0000 -0.1336  0.0000  0.0000  0.0000
  16.  S 1 (d3)     0.0000  0.0000  0.0000  0.0000  0.0000 -0.1336  0.0000  0.0000
  17.  S 1 (d4)     1.0000  0.0000  0.0000  0.0000  0.0000  0.0000  0.0000  0.0000
  18.  S 1 (d1)     0.0000  1.0000  0.0000  0.0000  0.0000  0.0000  0.0000  0.0000
  19.  C 2 (s)      0.0000  0.0000  1.0000  0.2191  0.0000  0.0000  0.0000  0.1843
  20.  C 2 (s)      0.0000  0.0000  0.2191  1.0000  0.0000  0.0000  0.0000  0.8123
  21.  C 2 (px)     0.0000  0.0000  0.0000  0.0000  1.0000  0.0000  0.0000  0.0000
  22.  C 2 (py)     0.0000  0.0000  0.0000  0.0000  0.0000  1.0000  0.0000  0.0000
  23.  C 2 (pz)     0.0000  0.0000  0.0000  0.0000  0.0000  0.0000  1.0000  0.0000
  24.  C 2 (s)      0.0000  0.0000  0.1843  0.8123  0.0000  0.0000  0.0000  1.0000
  25.  C 2 (px)     0.0000  0.0000  0.0000  0.0000  0.5698  0.0000  0.0000  0.0000
  26.  C 2 (py)     0.0000  0.0000  0.0000  0.0000  0.0000  0.5698  0.0000  0.0000
  27.  C 2 (pz)     0.0000  0.0000  0.0000  0.0000  0.0000  0.0000  0.5698  0.0000
  28.  C 2 (d5)     0.0000  0.0000  0.0000  0.0000  0.0000  0.0000  0.0000  0.0000
  29.  C 2 (d2)     0.0000  0.0000  0.0000  0.0000  0.0000  0.0000  0.0000  0.0000
  30.  C 2 (d3)     0.0000  0.0000  0.0000  0.0000  0.0000  0.0000  0.0000  0.0000
  31.  C 2 (d4)     0.0433  0.0000  0.0000  0.0000  0.0000  0.0000  0.0000  0.0000
  32.  C 2 (d1)     0.0000  0.0433  0.0000  0.0000  0.0000  0.0000  0.0000  0.0000
  33.  S 3 (s)      0.0000  0.0000  0.0000  0.0011  0.0000  0.0000 -0.0030  0.0098
  34.  S 3 (s)      0.0000  0.0000  0.0000  0.0148  0.0000  0.0000 -0.0343  0.0804
  35.  S 3 (px)     0.0000  0.0000  0.0000  0.0000  0.0049  0.0000  0.0000  0.0000
  36.  S 3 (py)     0.0000  0.0000  0.0000  0.0000  0.0000  0.0049  0.0000  0.0000
  37.  S 3 (pz)     0.0000  0.0000  0.0000  0.0162  0.0000  0.0000 -0.0333  0.0320
  38.  S 3 (s)      0.0000  0.0000  0.0198  0.1763  0.0000  0.0000 -0.2231  0.3515
  39.  S 3 (px)     0.0000  0.0000  0.0000  0.0000  0.1045  0.0000  0.0000  0.0000
  40.  S 3 (py)     0.0000  0.0000  0.0000  0.0000  0.0000  0.1045  0.0000  0.0000
  41.  S 3 (pz)     0.0000  0.0000  0.0462  0.2957  0.0000  0.0000 -0.3166  0.3416
  42.  S 3 (s)      0.0000  0.0000  0.0527  0.3047  0.0000  0.0000 -0.1847  0.5344
  43.  S 3 (px)     0.0000  0.0000  0.0000  0.0000  0.1829  0.0000  0.0000  0.0000
  44.  S 3 (py)     0.0000  0.0000  0.0000  0.0000  0.0000  0.1829  0.0000  0.0000
  45.  S 3 (pz)     0.0000  0.0000  0.1038  0.4999  0.0000  0.0000 -0.1287  0.6370
  46.  S 3 (d5)     0.0000  0.0000  0.0309  0.2172  0.0000  0.0000 -0.2668  0.1258
  47.  S 3 (d2)     0.0000  0.0000  0.0000  0.0000  0.1336  0.0000  0.0000  0.0000
  48.  S 3 (d3)     0.0000  0.0000  0.0000  0.0000  0.0000  0.1336  0.0000  0.0000
  49.  S 3 (d4)     0.0000  0.0000  0.0000  0.0000  0.0000  0.0000  0.0000  0.0000
  50.  S 3 (d1)     0.0000  0.0000  0.0000  0.0000  0.0000  0.0000  0.0000  0.0000

           AO         25      26      27      28      29      30      31      32
      ------------ ------- ------- ------- ------- ------- ------- ------- -------
   1.  S 1 (s)      0.0000  0.0000  0.0237  0.0023  0.0000  0.0000  0.0000  0.0000
   2.  S 1 (s)      0.0000  0.0000  0.1824  0.0349  0.0000  0.0000  0.0000  0.0000
   3.  S 1 (px)     0.0264  0.0000  0.0000  0.0000  0.0085  0.0000  0.0000  0.0000
   4.  S 1 (py)     0.0000  0.0264  0.0000  0.0000  0.0000  0.0085  0.0000  0.0000
   5.  S 1 (pz)     0.0000  0.0000 -0.0464 -0.0417  0.0000  0.0000  0.0000  0.0000
   6.  S 1 (s)      0.0000  0.0000  0.5615  0.1641  0.0000  0.0000  0.0000  0.0000
   7.  S 1 (px)     0.2819  0.0000  0.0000  0.0000  0.1399  0.0000  0.0000  0.0000
   8.  S 1 (py)     0.0000  0.2819  0.0000  0.0000  0.0000  0.1399  0.0000  0.0000
   9.  S 1 (pz)     0.0000  0.0000 -0.2923 -0.2138  0.0000  0.0000  0.0000  0.0000
  10.  S 1 (s)      0.0000  0.0000  0.5308  0.0588  0.0000  0.0000  0.0000  0.0000
  11.  S 1 (px)     0.5257  0.0000  0.0000  0.0000  0.1009  0.0000  0.0000  0.0000
  12.  S 1 (py)     0.0000  0.5257  0.0000  0.0000  0.0000  0.1009  0.0000  0.0000
  13.  S 1 (pz)     0.0000  0.0000 -0.1070  0.0129  0.0000  0.0000  0.0000  0.0000
  14.  S 1 (d5)     0.0000  0.0000  0.0344  0.2452  0.0000  0.0000  0.0000  0.0000
  15.  S 1 (d2)    -0.1798  0.0000  0.0000  0.0000 -0.2269  0.0000  0.0000  0.0000
  16.  S 1 (d3)     0.0000 -0.1798  0.0000  0.0000  0.0000 -0.2269  0.0000  0.0000
  17.  S 1 (d4)     0.0000  0.0000  0.0000  0.0000  0.0000  0.0000  0.0433  0.0000
  18.  S 1 (d1)     0.0000  0.0000  0.0000  0.0000  0.0000  0.0000  0.0000  0.0433
  19.  C 2 (s)      0.0000  0.0000  0.0000  0.0000  0.0000  0.0000  0.0000  0.0000
  20.  C 2 (s)      0.0000  0.0000  0.0000  0.0000  0.0000  0.0000  0.0000  0.0000
  21.  C 2 (px)     0.5698  0.0000  0.0000  0.0000  0.0000  0.0000  0.0000  0.0000
  22.  C 2 (py)     0.0000  0.5698  0.0000  0.0000  0.0000  0.0000  0.0000  0.0000
  23.  C 2 (pz)     0.0000  0.0000  0.5698  0.0000  0.0000  0.0000  0.0000  0.0000
  24.  C 2 (s)      0.0000  0.0000  0.0000  0.0000  0.0000  0.0000  0.0000  0.0000
  25.  C 2 (px)     1.0000  0.0000  0.0000  0.0000  0.0000  0.0000  0.0000  0.0000
  26.  C 2 (py)     0.0000  1.0000  0.0000  0.0000  0.0000  0.0000  0.0000  0.0000
  27.  C 2 (pz)     0.0000  0.0000  1.0000  0.0000  0.0000  0.0000  0.0000  0.0000
  28.  C 2 (d5)     0.0000  0.0000  0.0000  1.0000  0.0000  0.0000  0.0000  0.0000
  29.  C 2 (d2)     0.0000  0.0000  0.0000  0.0000  1.0000  0.0000  0.0000  0.0000
  30.  C 2 (d3)     0.0000  0.0000  0.0000  0.0000  0.0000  1.0000  0.0000  0.0000
  31.  C 2 (d4)     0.0000  0.0000  0.0000  0.0000  0.0000  0.0000  1.0000  0.0000
  32.  C 2 (d1)     0.0000  0.0000  0.0000  0.0000  0.0000  0.0000  0.0000  1.0000
  33.  S 3 (s)      0.0000  0.0000 -0.0237  0.0023  0.0000  0.0000  0.0000  0.0000
  34.  S 3 (s)      0.0000  0.0000 -0.1824  0.0349  0.0000  0.0000  0.0000  0.0000
  35.  S 3 (px)     0.0264  0.0000  0.0000  0.0000 -0.0085  0.0000  0.0000  0.0000
  36.  S 3 (py)     0.0000  0.0264  0.0000  0.0000  0.0000 -0.0085  0.0000  0.0000
  37.  S 3 (pz)     0.0000  0.0000 -0.0464  0.0417  0.0000  0.0000  0.0000  0.0000
  38.  S 3 (s)      0.0000  0.0000 -0.5615  0.1641  0.0000  0.0000  0.0000  0.0000
  39.  S 3 (px)     0.2819  0.0000  0.0000  0.0000 -0.1399  0.0000  0.0000  0.0000
  40.  S 3 (py)     0.0000  0.2819  0.0000  0.0000  0.0000 -0.1399  0.0000  0.0000
  41.  S 3 (pz)     0.0000  0.0000 -0.2923  0.2138  0.0000  0.0000  0.0000  0.0000
  42.  S 3 (s)      0.0000  0.0000 -0.5308  0.0588  0.0000  0.0000  0.0000  0.0000
  43.  S 3 (px)     0.5257  0.0000  0.0000  0.0000 -0.1009  0.0000  0.0000  0.0000
  44.  S 3 (py)     0.0000  0.5257  0.0000  0.0000  0.0000 -0.1009  0.0000  0.0000
  45.  S 3 (pz)     0.0000  0.0000 -0.1070 -0.0129  0.0000  0.0000  0.0000  0.0000
  46.  S 3 (d5)     0.0000  0.0000 -0.0344  0.2452  0.0000  0.0000  0.0000  0.0000
  47.  S 3 (d2)     0.1798  0.0000  0.0000  0.0000 -0.2269  0.0000  0.0000  0.0000
  48.  S 3 (d3)     0.0000  0.1798  0.0000  0.0000  0.0000 -0.2269  0.0000  0.0000
  49.  S 3 (d4)     0.0000  0.0000  0.0000  0.0000  0.0000  0.0000  0.0433  0.0000
  50.  S 3 (d1)     0.0000  0.0000  0.0000  0.0000  0.0000  0.0000  0.0000  0.0433

           AO         33      34      35      36      37      38      39      40
      ------------ ------- ------- ------- ------- ------- ------- ------- -------
   1.  S 1 (s)      0.0000  0.0000  0.0000  0.0000  0.0000  0.0000  0.0000  0.0000
   2.  S 1 (s)      0.0000  0.0000  0.0000  0.0000  0.0000  0.0000  0.0000  0.0000
   3.  S 1 (px)     0.0000  0.0000  0.0000  0.0000  0.0000  0.0000  0.0000  0.0000
   4.  S 1 (py)     0.0000  0.0000  0.0000  0.0000  0.0000  0.0000  0.0000  0.0000
   5.  S 1 (pz)     0.0000  0.0000  0.0000  0.0000  0.0000  0.0000  0.0000  0.0000
   6.  S 1 (s)      0.0000  0.0000  0.0000  0.0000  0.0000  0.0029  0.0000  0.0000
   7.  S 1 (px)     0.0000  0.0000  0.0000  0.0000  0.0000  0.0000  0.0016  0.0000
   8.  S 1 (py)     0.0000  0.0000  0.0000  0.0000  0.0000  0.0000  0.0000  0.0016
   9.  S 1 (pz)     0.0000 -0.0001  0.0000  0.0000 -0.0001 -0.0074  0.0000  0.0000
  10.  S 1 (s)      0.0006  0.0051  0.0000  0.0000  0.0028  0.0408  0.0000  0.0000
  11.  S 1 (px)     0.0000  0.0000  0.0014  0.0000  0.0000  0.0000  0.0284  0.0000
  12.  S 1 (py)     0.0000  0.0000  0.0000  0.0014  0.0000  0.0000  0.0000  0.0284
  13.  S 1 (pz)    -0.0022 -0.0196  0.0000  0.0000 -0.0096 -0.1222  0.0000  0.0000
  14.  S 1 (d5)     0.0000  0.0000  0.0000  0.0000  0.0000  0.0025  0.0000  0.0000
  15.  S 1 (d2)     0.0000  0.0000  0.0000  0.0000  0.0000  0.0000 -0.0009  0.0000
  16.  S 1 (d3)     0.0000  0.0000  0.0000  0.0000  0.0000  0.0000  0.0000 -0.0009
  17.  S 1 (d4)     0.0000  0.0000  0.0000  0.0000  0.0000  0.0000  0.0000  0.0000
  18.  S 1 (d1)     0.0000  0.0000  0.0000  0.0000  0.0000  0.0000  0.0000  0.0000
  19.  C 2 (s)      0.0000  0.0000  0.0000  0.0000  0.0000  0.0198  0.0000  0.0000
  20.  C 2 (s)      0.0011  0.0148  0.0000  0.0000  0.0162  0.1763  0.0000  0.0000
  21.  C 2 (px)     0.0000  0.0000  0.0049  0.0000  0.0000  0.0000  0.1045  0.0000
  22.  C 2 (py)     0.0000  0.0000  0.0000  0.0049  0.0000  0.0000  0.0000  0.1045
  23.  C 2 (pz)    -0.0030 -0.0343  0.0000  0.0000 -0.0333 -0.2231  0.0000  0.0000
  24.  C 2 (s)      0.0098  0.0804  0.0000  0.0000  0.0320  0.3515  0.0000  0.0000
  25.  C 2 (px)     0.0000  0.0000  0.0264  0.0000  0.0000  0.0000  0.2819  0.0000
  26.  C 2 (py)     0.0000  0.0000  0.0000  0.0264  0.0000  0.0000  0.0000  0.2819
  27.  C 2 (pz)    -0.0237 -0.1824  0.0000  0.0000 -0.0464 -0.5615  0.0000  0.0000
  28.  C 2 (d5)     0.0023  0.0349  0.0000  0.0000  0.0417  0.1641  0.0000  0.0000
  29.  C 2 (d2)     0.0000  0.0000 -0.0085  0.0000  0.0000  0.0000 -0.1399  0.0000
  30.  C 2 (d3)     0.0000  0.0000  0.0000 -0.0085  0.0000  0.0000  0.0000 -0.1399
  31.  C 2 (d4)     0.0000  0.0000  0.0000  0.0000  0.0000  0.0000  0.0000  0.0000
  32.  C 2 (d1)     0.0000  0.0000  0.0000  0.0000  0.0000  0.0000  0.0000  0.0000
  33.  S 3 (s)      1.0000  0.2627  0.0000  0.0000  0.0000  0.0102  0.0000  0.0000
  34.  S 3 (s)      0.2627  1.0000  0.0000  0.0000  0.0000  0.3228  0.0000  0.0000
  35.  S 3 (px)     0.0000  0.0000  1.0000  0.0000  0.0000  0.0000  0.3105  0.0000
  36.  S 3 (py)     0.0000  0.0000  0.0000  1.0000  0.0000  0.0000  0.0000  0.3105
  37.  S 3 (pz)     0.0000  0.0000  0.0000  0.0000  1.0000  0.0000  0.0000  0.0000
  38.  S 3 (s)      0.0102  0.3228  0.0000  0.0000  0.0000  1.0000  0.0000  0.0000
  39.  S 3 (px)     0.0000  0.0000  0.3105  0.0000  0.0000  0.0000  1.0000  0.0000
  40.  S 3 (py)     0.0000  0.0000  0.0000  0.3105  0.0000  0.0000  0.0000  1.0000
  41.  S 3 (pz)     0.0000  0.0000  0.0000  0.0000  0.3105  0.0000  0.0000  0.0000
  42.  S 3 (s)      0.0323  0.2491  0.0000  0.0000  0.0000  0.8283  0.0000  0.0000
  43.  S 3 (px)     0.0000  0.0000  0.0696  0.0000  0.0000  0.0000  0.6335  0.0000
  44.  S 3 (py)     0.0000  0.0000  0.0000  0.0696  0.0000  0.0000  0.0000  0.6335
  45.  S 3 (pz)     0.0000  0.0000  0.0000  0.0000  0.0696  0.0000  0.0000  0.0000
  46.  S 3 (d5)     0.0000  0.0000  0.0000  0.0000  0.0000  0.0000  0.0000  0.0000
  47.  S 3 (d2)     0.0000  0.0000  0.0000  0.0000  0.0000  0.0000  0.0000  0.0000
  48.  S 3 (d3)     0.0000  0.0000  0.0000  0.0000  0.0000  0.0000  0.0000  0.0000
  49.  S 3 (d4)     0.0000  0.0000  0.0000  0.0000  0.0000  0.0000  0.0000  0.0000
  50.  S 3 (d1)     0.0000  0.0000  0.0000  0.0000  0.0000  0.0000  0.0000  0.0000

           AO         41      42      43      44      45      46      47      48
      ------------ ------- ------- ------- ------- ------- ------- ------- -------
   1.  S 1 (s)      0.0000  0.0006  0.0000  0.0000  0.0022  0.0000  0.0000  0.0000
   2.  S 1 (s)      0.0001  0.0051  0.0000  0.0000  0.0196  0.0000  0.0000  0.0000
   3.  S 1 (px)     0.0000  0.0000  0.0014  0.0000  0.0000  0.0000  0.0000  0.0000
   4.  S 1 (py)     0.0000  0.0000  0.0000  0.0014  0.0000  0.0000  0.0000  0.0000
   5.  S 1 (pz)    -0.0001 -0.0028  0.0000  0.0000 -0.0096  0.0000  0.0000  0.0000
   6.  S 1 (s)      0.0074  0.0408  0.0000  0.0000  0.1222  0.0025  0.0000  0.0000
   7.  S 1 (px)     0.0000  0.0000  0.0284  0.0000  0.0000  0.0000  0.0009  0.0000
   8.  S 1 (py)     0.0000  0.0000  0.0000  0.0284  0.0000  0.0000  0.0000  0.0009
   9.  S 1 (pz)    -0.0173 -0.0573  0.0000  0.0000 -0.1469 -0.0071  0.0000  0.0000
  10.  S 1 (s)      0.0573  0.1301  0.0000  0.0000  0.2628  0.0235  0.0000  0.0000
  11.  S 1 (px)     0.0000  0.0000  0.1301  0.0000  0.0000  0.0000  0.0201  0.0000
  12.  S 1 (py)     0.0000  0.0000  0.0000  0.1301  0.0000  0.0000  0.0000  0.0201
  13.  S 1 (pz)    -0.1469 -0.2628  0.0000  0.0000 -0.4006 -0.0571  0.0000  0.0000
  14.  S 1 (d5)     0.0071  0.0235  0.0000  0.0000  0.0571  0.0017  0.0000  0.0000
  15.  S 1 (d2)     0.0000  0.0000 -0.0201  0.0000  0.0000  0.0000 -0.0003  0.0000
  16.  S 1 (d3)     0.0000  0.0000  0.0000 -0.0201  0.0000  0.0000  0.0000 -0.0003
  17.  S 1 (d4)     0.0000  0.0000  0.0000  0.0000  0.0000  0.0000  0.0000  0.0000
  18.  S 1 (d1)     0.0000  0.0000  0.0000  0.0000  0.0000  0.0000  0.0000  0.0000
  19.  C 2 (s)      0.0462  0.0527  0.0000  0.0000  0.1038  0.0309  0.0000  0.0000
  20.  C 2 (s)      0.2957  0.3047  0.0000  0.0000  0.4999  0.2172  0.0000  0.0000
  21.  C 2 (px)     0.0000  0.0000  0.1829  0.0000  0.0000  0.0000  0.1336  0.0000
  22.  C 2 (py)     0.0000  0.0000  0.0000  0.1829  0.0000  0.0000  0.0000  0.1336
  23.  C 2 (pz)    -0.3166 -0.1847  0.0000  0.0000 -0.1287 -0.2668  0.0000  0.0000
  24.  C 2 (s)      0.3416  0.5344  0.0000  0.0000  0.6370  0.1258  0.0000  0.0000
  25.  C 2 (px)     0.0000  0.0000  0.5257  0.0000  0.0000  0.0000  0.1798  0.0000
  26.  C 2 (py)     0.0000  0.0000  0.0000  0.5257  0.0000  0.0000  0.0000  0.1798
  27.  C 2 (pz)    -0.2923 -0.5308  0.0000  0.0000 -0.1070 -0.0344  0.0000  0.0000
  28.  C 2 (d5)     0.2138  0.0588  0.0000  0.0000 -0.0129  0.2452  0.0000  0.0000
  29.  C 2 (d2)     0.0000  0.0000 -0.1009  0.0000  0.0000  0.0000 -0.2269  0.0000
  30.  C 2 (d3)     0.0000  0.0000  0.0000 -0.1009  0.0000  0.0000  0.0000 -0.2269
  31.  C 2 (d4)     0.0000  0.0000  0.0000  0.0000  0.0000  0.0000  0.0000  0.0000
  32.  C 2 (d1)     0.0000  0.0000  0.0000  0.0000  0.0000  0.0000  0.0000  0.0000
  33.  S 3 (s)      0.0000  0.0323  0.0000  0.0000  0.0000  0.0000  0.0000  0.0000
  34.  S 3 (s)      0.0000  0.2491  0.0000  0.0000  0.0000  0.0000  0.0000  0.0000
  35.  S 3 (px)     0.0000  0.0000  0.0696  0.0000  0.0000  0.0000  0.0000  0.0000
  36.  S 3 (py)     0.0000  0.0000  0.0000  0.0696  0.0000  0.0000  0.0000  0.0000
  37.  S 3 (pz)     0.3105  0.0000  0.0000  0.0000  0.0696  0.0000  0.0000  0.0000
  38.  S 3 (s)      0.0000  0.8283  0.0000  0.0000  0.0000  0.0000  0.0000  0.0000
  39.  S 3 (px)     0.0000  0.0000  0.6335  0.0000  0.0000  0.0000  0.0000  0.0000
  40.  S 3 (py)     0.0000  0.0000  0.0000  0.6335  0.0000  0.0000  0.0000  0.0000
  41.  S 3 (pz)     1.0000  0.0000  0.0000  0.0000  0.6335  0.0000  0.0000  0.0000
  42.  S 3 (s)      0.0000  1.0000  0.0000  0.0000  0.0000  0.0000  0.0000  0.0000
  43.  S 3 (px)     0.0000  0.0000  1.0000  0.0000  0.0000  0.0000  0.0000  0.0000
  44.  S 3 (py)     0.0000  0.0000  0.0000  1.0000  0.0000  0.0000  0.0000  0.0000
  45.  S 3 (pz)     0.6335  0.0000  0.0000  0.0000  1.0000  0.0000  0.0000  0.0000
  46.  S 3 (d5)     0.0000  0.0000  0.0000  0.0000  0.0000  1.0000  0.0000  0.0000
  47.  S 3 (d2)     0.0000  0.0000  0.0000  0.0000  0.0000  0.0000  1.0000  0.0000
  48.  S 3 (d3)     0.0000  0.0000  0.0000  0.0000  0.0000  0.0000  0.0000  1.0000
  49.  S 3 (d4)     0.0000  0.0000  0.0000  0.0000  0.0000  0.0000  0.0000  0.0000
  50.  S 3 (d1)     0.0000  0.0000  0.0000  0.0000  0.0000  0.0000  0.0000  0.0000

           AO         49      50
      ------------ ------- -------
   1.  S 1 (s)      0.0000  0.0000
   2.  S 1 (s)      0.0000  0.0000
   3.  S 1 (px)     0.0000  0.0000
   4.  S 1 (py)     0.0000  0.0000
   5.  S 1 (pz)     0.0000  0.0000
   6.  S 1 (s)      0.0000  0.0000
   7.  S 1 (px)     0.0000  0.0000
   8.  S 1 (py)     0.0000  0.0000
   9.  S 1 (pz)     0.0000  0.0000
  10.  S 1 (s)      0.0000  0.0000
  11.  S 1 (px)     0.0000  0.0000
  12.  S 1 (py)     0.0000  0.0000
  13.  S 1 (pz)     0.0000  0.0000
  14.  S 1 (d5)     0.0000  0.0000
  15.  S 1 (d2)     0.0000  0.0000
  16.  S 1 (d3)     0.0000  0.0000
  17.  S 1 (d4)     0.0000  0.0000
  18.  S 1 (d1)     0.0000  0.0000
  19.  C 2 (s)      0.0000  0.0000
  20.  C 2 (s)      0.0000  0.0000
  21.  C 2 (px)     0.0000  0.0000
  22.  C 2 (py)     0.0000  0.0000
  23.  C 2 (pz)     0.0000  0.0000
  24.  C 2 (s)      0.0000  0.0000
  25.  C 2 (px)     0.0000  0.0000
  26.  C 2 (py)     0.0000  0.0000
  27.  C 2 (pz)     0.0000  0.0000
  28.  C 2 (d5)     0.0000  0.0000
  29.  C 2 (d2)     0.0000  0.0000
  30.  C 2 (d3)     0.0000  0.0000
  31.  C 2 (d4)     0.0433  0.0000
  32.  C 2 (d1)     0.0000  0.0433
  33.  S 3 (s)      0.0000  0.0000
  34.  S 3 (s)      0.0000  0.0000
  35.  S 3 (px)     0.0000  0.0000
  36.  S 3 (py)     0.0000  0.0000
  37.  S 3 (pz)     0.0000  0.0000
  38.  S 3 (s)      0.0000  0.0000
  39.  S 3 (px)     0.0000  0.0000
  40.  S 3 (py)     0.0000  0.0000
  41.  S 3 (pz)     0.0000  0.0000
  42.  S 3 (s)      0.0000  0.0000
  43.  S 3 (px)     0.0000  0.0000
  44.  S 3 (py)     0.0000  0.0000
  45.  S 3 (pz)     0.0000  0.0000
  46.  S 3 (d5)     0.0000  0.0000
  47.  S 3 (d2)     0.0000  0.0000
  48.  S 3 (d3)     0.0000  0.0000
  49.  S 3 (d4)     1.0000  0.0000
  50.  S 3 (d1)     0.0000  1.0000


 AO bond-order matrix:

           AO          1       2       3       4       5       6       7       8
      ------------ ------- ------- ------- ------- ------- ------- ------- -------
   1.  S 1 (s)      2.1571 -0.6100  0.0000  0.0000 -0.0076  0.0900  0.0000  0.0000
   2.  S 1 (s)     -0.6100  2.3728  0.0000  0.0000  0.0341 -0.4659  0.0000  0.0000
   3.  S 1 (px)     0.0000  0.0000  2.0848  0.0000  0.0000  0.0000 -0.2497  0.0000
   4.  S 1 (py)     0.0000  0.0000  0.0000  2.0848  0.0000  0.0000  0.0000 -0.2497
   5.  S 1 (pz)    -0.0076  0.0341  0.0000  0.0000  2.0585 -0.0808  0.0000  0.0000
   6.  S 1 (s)      0.0900 -0.4659  0.0000  0.0000 -0.0808  1.0484  0.0000  0.0000
   7.  S 1 (px)     0.0000  0.0000 -0.2497  0.0000  0.0000  0.0000  0.7738  0.0000
   8.  S 1 (py)     0.0000  0.0000  0.0000 -0.2497  0.0000  0.0000  0.0000  0.7738
   9.  S 1 (pz)     0.0227 -0.1003  0.0000  0.0000 -0.1648  0.2183  0.0000  0.0000
  10.  S 1 (s)      0.0574 -0.2570  0.0000  0.0000 -0.1295  0.5236  0.0000  0.0000
  11.  S 1 (px)     0.0000  0.0000 -0.1675  0.0000  0.0000  0.0000  0.4172  0.0000
  12.  S 1 (py)     0.0000  0.0000  0.0000 -0.1675  0.0000  0.0000  0.0000  0.4172
  13.  S 1 (pz)     0.0087 -0.0379  0.0000  0.0000 -0.0405  0.0778  0.0000  0.0000
  14.  S 1 (d5)    -0.0006  0.0000  0.0000  0.0000  0.0270  0.0004  0.0000  0.0000
  15.  S 1 (d2)     0.0000  0.0000  0.0213  0.0000  0.0000  0.0000 -0.0580  0.0000
  16.  S 1 (d3)     0.0000  0.0000  0.0000  0.0213  0.0000  0.0000  0.0000 -0.0580
  17.  S 1 (d4)     0.0000  0.0000  0.0000  0.0000  0.0000  0.0000  0.0000  0.0000
  18.  S 1 (d1)     0.0000  0.0000  0.0000  0.0000  0.0000  0.0000  0.0000  0.0000
  19.  C 2 (s)     -0.0033  0.0146  0.0000  0.0000 -0.0456 -0.0237  0.0000  0.0000
  20.  C 2 (s)      0.0063 -0.0266  0.0000  0.0000  0.0996  0.0343  0.0000  0.0000
  21.  C 2 (px)     0.0000  0.0000 -0.1005  0.0000  0.0000  0.0000  0.2609  0.0000
  22.  C 2 (py)     0.0000  0.0000  0.0000 -0.1005  0.0000  0.0000  0.0000  0.2609
  23.  C 2 (pz)     0.0137 -0.0595  0.0000  0.0000  0.1504  0.1117  0.0000  0.0000
  24.  C 2 (s)     -0.0063  0.0314  0.0000  0.0000  0.1108 -0.0829  0.0000  0.0000
  25.  C 2 (px)     0.0000  0.0000 -0.0683  0.0000  0.0000  0.0000  0.1796  0.0000
  26.  C 2 (py)     0.0000  0.0000  0.0000 -0.0683  0.0000  0.0000  0.0000  0.1796
  27.  C 2 (pz)     0.0035  0.0011  0.0000  0.0000  0.0662 -0.0237  0.0000  0.0000
  28.  C 2 (d5)     0.0025 -0.0072  0.0000  0.0000  0.0060  0.0124  0.0000  0.0000
  29.  C 2 (d2)     0.0000  0.0000 -0.0178  0.0000  0.0000  0.0000  0.0455  0.0000
  30.  C 2 (d3)     0.0000  0.0000  0.0000 -0.0178  0.0000  0.0000  0.0000  0.0455
  31.  C 2 (d4)     0.0000  0.0000  0.0000  0.0000  0.0000  0.0000  0.0000  0.0000
  32.  C 2 (d1)     0.0000  0.0000  0.0000  0.0000  0.0000  0.0000  0.0000  0.0000
  33.  S 3 (s)      0.0001  0.0001  0.0000  0.0000 -0.0017  0.0018  0.0000  0.0000
  34.  S 3 (s)      0.0001 -0.0008  0.0000  0.0000  0.0080 -0.0048  0.0000  0.0000
  35.  S 3 (px)     0.0000  0.0000 -0.0298  0.0000  0.0000  0.0000  0.0819  0.0000
  36.  S 3 (py)     0.0000  0.0000  0.0000 -0.0298  0.0000  0.0000  0.0000  0.0819
  37.  S 3 (pz)     0.0017 -0.0080  0.0000  0.0000  0.0213  0.0156  0.0000  0.0000
  38.  S 3 (s)      0.0018 -0.0048  0.0000  0.0000 -0.0156  0.0155  0.0000  0.0000
  39.  S 3 (px)     0.0000  0.0000  0.0819  0.0000  0.0000  0.0000 -0.2259  0.0000
  40.  S 3 (py)     0.0000  0.0000  0.0000  0.0819  0.0000  0.0000  0.0000 -0.2259
  41.  S 3 (pz)    -0.0035  0.0166  0.0000  0.0000 -0.0541 -0.0444  0.0000  0.0000
  42.  S 3 (s)      0.0024 -0.0040  0.0000  0.0000  0.0163  0.0076  0.0000  0.0000
  43.  S 3 (px)     0.0000  0.0000  0.0753  0.0000  0.0000  0.0000 -0.2017  0.0000
  44.  S 3 (py)     0.0000  0.0000  0.0000  0.0753  0.0000  0.0000  0.0000 -0.2017
  45.  S 3 (pz)    -0.0003  0.0037  0.0000  0.0000 -0.0141 -0.0112  0.0000  0.0000
  46.  S 3 (d5)    -0.0009  0.0035  0.0000  0.0000 -0.0066 -0.0086  0.0000  0.0000
  47.  S 3 (d2)     0.0000  0.0000 -0.0043  0.0000  0.0000  0.0000  0.0106  0.0000
  48.  S 3 (d3)     0.0000  0.0000  0.0000 -0.0043  0.0000  0.0000  0.0000  0.0106
  49.  S 3 (d4)     0.0000  0.0000  0.0000  0.0000  0.0000  0.0000  0.0000  0.0000
  50.  S 3 (d1)     0.0000  0.0000  0.0000  0.0000  0.0000  0.0000  0.0000  0.0000

           AO          9      10      11      12      13      14      15      16
      ------------ ------- ------- ------- ------- ------- ------- ------- -------
   1.  S 1 (s)      0.0227  0.0574  0.0000  0.0000  0.0087 -0.0006  0.0000  0.0000
   2.  S 1 (s)     -0.1003 -0.2570  0.0000  0.0000 -0.0379  0.0000  0.0000  0.0000
   3.  S 1 (px)     0.0000  0.0000 -0.1675  0.0000  0.0000  0.0000  0.0213  0.0000
   4.  S 1 (py)     0.0000  0.0000  0.0000 -0.1675  0.0000  0.0000  0.0000  0.0213
   5.  S 1 (pz)    -0.1648 -0.1295  0.0000  0.0000 -0.0405  0.0270  0.0000  0.0000
   6.  S 1 (s)      0.2183  0.5236  0.0000  0.0000  0.0778  0.0004  0.0000  0.0000
   7.  S 1 (px)     0.0000  0.0000  0.4172  0.0000  0.0000  0.0000 -0.0580  0.0000
   8.  S 1 (py)     0.0000  0.0000  0.0000  0.4172  0.0000  0.0000  0.0000 -0.0580
   9.  S 1 (pz)     0.5296  0.3039  0.0000  0.0000  0.0903 -0.0734  0.0000  0.0000
  10.  S 1 (s)      0.3039  0.3418  0.0000  0.0000  0.0678 -0.0296  0.0000  0.0000
  11.  S 1 (px)     0.0000  0.0000  0.2345  0.0000  0.0000  0.0000 -0.0282  0.0000
  12.  S 1 (py)     0.0000  0.0000  0.0000  0.2345  0.0000  0.0000  0.0000 -0.0282
  13.  S 1 (pz)     0.0903  0.0678  0.0000  0.0000  0.0185 -0.0110  0.0000  0.0000
  14.  S 1 (d5)    -0.0734 -0.0296  0.0000  0.0000 -0.0110  0.0112  0.0000  0.0000
  15.  S 1 (d2)     0.0000  0.0000 -0.0282  0.0000  0.0000  0.0000  0.0054  0.0000
  16.  S 1 (d3)     0.0000  0.0000  0.0000 -0.0282  0.0000  0.0000  0.0000  0.0054
  17.  S 1 (d4)     0.0000  0.0000  0.0000  0.0000  0.0000  0.0000  0.0000  0.0000
  18.  S 1 (d1)     0.0000  0.0000  0.0000  0.0000  0.0000  0.0000  0.0000  0.0000
  19.  C 2 (s)      0.1106  0.0484  0.0000  0.0000  0.0030 -0.0204  0.0000  0.0000
  20.  C 2 (s)     -0.2313 -0.0936  0.0000  0.0000 -0.0164  0.0398  0.0000  0.0000
  21.  C 2 (px)     0.0000  0.0000  0.1029  0.0000  0.0000  0.0000 -0.0327  0.0000
[...]
               ( 59.96%)   0.7743* C  2 s( 49.76%)p 1.00( 50.00%)d 0.00(  0.24%)
                                         0.0000  0.7054 -0.0006  0.0000  0.0000
                                         0.0000  0.0000  0.7066  0.0277  0.0000
                                         0.0000  0.0000  0.0000  0.0488
  17. (1.98416) BD ( 2) S  1- C  2
               ( 70.20%)   0.8379* S  1 s(  0.00%)p 1.00( 99.60%)d 0.00(  0.40%)
                                         0.0000  0.0000  0.0000  0.0000  0.0000
                                         0.9979  0.0104  0.0000  0.0077  0.0001
                                         0.0000  0.0000  0.0000  0.0000 -0.0634
                                        -0.0005  0.0000  0.0000
               ( 29.80%)   0.5459* C  2 s(  0.00%)p 1.00( 99.62%)d 0.00(  0.38%)
                                         0.0000  0.0000  0.0000  0.9782 -0.0219
                                         0.1970 -0.0044  0.0000  0.0000  0.0000
                                         0.0612 -0.0098  0.0000  0.0000
  18. (1.99873) BD ( 1) C  2- S  3
               ( 59.96%)   0.7743* C  2 s( 49.76%)p 1.00( 50.00%)d 0.00(  0.24%)
                                         0.0000  0.7054 -0.0006  0.0000  0.0000
                                         0.0000  0.0000 -0.7066 -0.0277  0.0000
                                         0.0000  0.0000  0.0000  0.0488
               ( 40.04%)   0.6328* S  3 s( 23.28%)p 3.24( 75.44%)d 0.05(  1.28%)
                                         0.0000  0.0000  0.4692 -0.1125  0.0000
                                         0.0000  0.0000  0.0000  0.0000  0.0000
                                         0.0000  0.8644 -0.0856  0.0000  0.0000
                                         0.0000  0.0000  0.1131
  19. (1.98416) BD ( 2) C  2- S  3
               ( 29.80%)   0.5459* C  2 s(  0.00%)p 1.00( 99.62%)d 0.00(  0.38%)
                                         0.0000  0.0000  0.0000 -0.1995  0.0045
                                         0.9777 -0.0219  0.0000  0.0000  0.0000
                                         0.0328 -0.0526  0.0000  0.0000
               ( 70.20%)   0.8379* S  3 s(  0.00%)p 1.00( 99.60%)d 0.00(  0.40%)
                                         0.0000  0.0000  0.0000  0.0000  0.0000
                                        -0.3816 -0.0040  0.0000  0.9221  0.0096
                                         0.0000  0.0000  0.0000  0.0000 -0.0242
                                         0.0585  0.0000  0.0000
 ---------------- non-Lewis ----------------------------------------------------
  20. (0.01254) BD*( 1) S  1- C  2
               ( 59.96%)   0.7743* S  1 s( 23.28%)p 3.24( 75.44%)d 0.05(  1.28%)
                                         0.0000  0.0000 -0.4692  0.1125  0.0000
                                         0.0000  0.0000  0.0000  0.0000  0.0000
                                         0.0000  0.8644 -0.0856  0.0000  0.0000
                                         0.0000  0.0000 -0.1131
               ( 40.04%)  -0.6328* C  2 s( 49.76%)p 1.00( 50.00%)d 0.00(  0.24%)
                                         0.0000 -0.7054  0.0006  0.0000  0.0000
                                         0.0000  0.0000 -0.7066 -0.0277  0.0000
                                         0.0000  0.0000  0.0000 -0.0488
  21. (0.46651) BD*( 2) S  1- C  2
               ( 29.80%)   0.5459* S  1 s(  0.00%)p 1.00( 99.60%)d 0.00(  0.40%)
                                         0.0000  0.0000  0.0000  0.0000  0.0000
                                        -0.9979 -0.0104  0.0000 -0.0077 -0.0001
                                         0.0000  0.0000  0.0000  0.0000  0.0634
                                         0.0005  0.0000  0.0000
               ( 70.20%)  -0.8379* C  2 s(  0.00%)p 1.00( 99.62%)d 0.00(  0.38%)
                                         0.0000  0.0000  0.0000 -0.9782  0.0219
                                        -0.1970  0.0044  0.0000  0.0000  0.0000
                                        -0.0612  0.0098  0.0000  0.0000
  22. (0.01254) BD*( 1) C  2- S  3
               ( 40.04%)   0.6328* C  2 s( 49.76%)p 1.00( 50.00%)d 0.00(  0.24%)
                                         0.0000  0.7054 -0.0006  0.0000  0.0000
                                         0.0000  0.0000 -0.7066 -0.0277  0.0000
                                         0.0000  0.0000  0.0000  0.0488
               ( 59.96%)  -0.7743* S  3 s( 23.28%)p 3.24( 75.44%)d 0.05(  1.28%)
                                         0.0000  0.0000  0.4692 -0.1125  0.0000
                                         0.0000  0.0000  0.0000  0.0000  0.0000
                                         0.0000  0.8644 -0.0856  0.0000  0.0000
                                         0.0000  0.0000  0.1131
  23. (0.46651) BD*( 2) C  2- S  3
               ( 70.20%)   0.8379* C  2 s(  0.00%)p 1.00( 99.62%)d 0.00(  0.38%)
                                         0.0000  0.0000  0.0000 -0.1995  0.0045
                                         0.9777 -0.0219  0.0000  0.0000  0.0000
                                         0.0328 -0.0526  0.0000  0.0000
               ( 29.80%)  -0.5459* S  3 s(  0.00%)p 1.00( 99.60%)d 0.00(  0.40%)
                                         0.0000  0.0000  0.0000  0.0000  0.0000
                                        -0.3816 -0.0040  0.0000  0.9221  0.0096
                                         0.0000  0.0000  0.0000  0.0000 -0.0242
                                         0.0585  0.0000  0.0000
  24. (0.00443) RY ( 1) S  1            s(  0.00%)p 1.00( 82.08%)d 0.22( 17.92%)
                                         0.0000  0.0000  0.0000  0.0000  0.0000
                                         0.0174  0.9058  0.0000  0.0001  0.0069
                                         0.0000  0.0000  0.0000  0.0000  0.4233
                                         0.0032  0.0000  0.0000
  25. (0.00403) RY ( 2) S  1            s(  0.00%)p 1.00( 82.00%)d 0.22( 18.00%)
                                         0.0000  0.0000  0.0000  0.0000  0.0000
                                         0.0000 -0.0069  0.0000  0.0013  0.9055
                                         0.0000  0.0000  0.0000  0.0000 -0.0033
                                         0.4242  0.0000  0.0000
  26. (0.00024) RY ( 3) S  1            s( 55.20%)p 0.49( 27.11%)d 0.32( 17.68%)
                                         0.0000  0.0000  0.0241  0.7426  0.0000
                                         0.0000  0.0000  0.0000  0.0000  0.0000
                                         0.0000 -0.0878  0.5133  0.0000  0.0000
                                         0.0000  0.0000 -0.4205
  27. (0.00009) RY ( 4) S  1            s(  9.01%)p 7.86( 70.77%)d 2.24( 20.22%)
  28. (0.00000) RY ( 5) S  1            s( 34.71%)p 0.13(  4.54%)d 1.75( 60.74%)
  29. (0.00000) RY ( 6) S  1            s(  0.00%)p 0.00(  0.00%)d 1.00(100.00%)
  30. (0.00000) RY ( 7) S  1            s(  0.00%)p 0.00(  0.00%)d 1.00(100.00%)
  31. (0.00000) RY ( 8) S  1            s(  0.00%)p 1.00( 18.32%)d 4.46( 81.68%)
  32. (0.00000) RY ( 9) S  1            s(  0.00%)p 1.00( 18.32%)d 4.46( 81.68%)
  33. (0.01211) RY ( 1) C  2            s(  0.00%)p 1.00(100.00%)
                                         0.0000  0.0000  0.0000  0.0000  0.0000
                                         0.0000  0.0000 -0.0391  0.9992  0.0000
                                         0.0000  0.0000  0.0000  0.0000
  34. (0.01082) RY ( 2) C  2            s(  0.00%)p 1.00(  0.64%)d99.99( 99.36%)
                                         0.0000  0.0000  0.0000 -0.0441  0.0010
                                        -0.0665  0.0015  0.0000  0.0000  0.0000
                                         0.8308 -0.5508  0.0000  0.0000
  35. (0.00619) RY ( 3) C  2            s(  0.00%)p 1.00(  0.13%)d99.99( 99.87%)
                                         0.0000  0.0000  0.0000 -0.0303  0.0007
                                         0.0201 -0.0004  0.0000  0.0000  0.0000
                                         0.5521  0.8330  0.0000  0.0000
  36. (0.00025) RY ( 4) C  2            s( 87.84%)p 0.00(  0.00%)d 0.14( 12.16%)
                                         0.0000 -0.0233  0.9369  0.0000  0.0000
                                         0.0000  0.0000  0.0000  0.0000  0.0000
                                         0.0000  0.0000  0.0000  0.3488
  37. (0.00000) RY ( 5) C  2            s( 12.64%)p 0.00(  0.00%)d 6.91( 87.36%)
  38. (0.00000) RY ( 6) C  2            s(  0.00%)p 0.00(  0.00%)d 1.00(100.00%)
  39. (0.00000) RY ( 7) C  2            s(  0.00%)p 0.00(  0.00%)d 1.00(100.00%)
  40. (0.00000) RY ( 8) C  2            s(  0.00%)p 1.00(100.00%)d 0.00(  0.00%)
  41. (0.00000) RY ( 9) C  2            s(  0.00%)p 1.00(100.00%)d 0.00(  0.00%)
  42. (0.00443) RY ( 1) S  3            s(  0.00%)p 1.00( 82.08%)d 0.22( 17.92%)
                                         0.0000  0.0000  0.0000  0.0000  0.0000
                                        -0.0067 -0.3464  0.0000  0.0161  0.8370
                                         0.0000  0.0000  0.0000  0.0000  0.1619
                                        -0.3911  0.0000  0.0000
  43. (0.00403) RY ( 2) S  3            s(  0.00%)p 1.00( 82.00%)d 0.22( 18.00%)
                                         0.0000  0.0000  0.0000  0.0000  0.0000
                                         0.0012  0.8367  0.0000  0.0005  0.3463
                                         0.0000  0.0000  0.0000  0.0000 -0.3920
                                        -0.1622  0.0000  0.0000
  44. (0.00024) RY ( 3) S  3            s( 55.20%)p 0.49( 27.11%)d 0.32( 17.68%)
                                         0.0000  0.0000  0.0241  0.7426  0.0000
                                         0.0000  0.0000  0.0000  0.0000  0.0000
                                         0.0000  0.0878 -0.5133  0.0000  0.0000
                                         0.0000  0.0000 -0.4205
  45. (0.00009) RY ( 4) S  3            s(  9.01%)p 7.86( 70.77%)d 2.24( 20.22%)
  46. (0.00000) RY ( 5) S  3            s( 34.71%)p 0.13(  4.54%)d 1.75( 60.74%)
  47. (0.00000) RY ( 6) S  3            s(  0.00%)p 0.00(  0.00%)d 1.00(100.00%)
  48. (0.00000) RY ( 7) S  3            s(  0.00%)p 0.00(  0.00%)d 1.00(100.00%)
  49. (0.00000) RY ( 8) S  3            s(  0.00%)p 1.00( 18.32%)d 4.46( 81.68%)
  50. (0.00000) RY ( 9) S  3            s(  0.00%)p 1.00( 18.32%)d 4.46( 81.68%)


 NHO DIRECTIONALITY AND BOND BENDING (deviation from line of nuclear centers at
                                      the position of maximum hybrid amplitude)

         [Thresholds for printing:  angular deviation  >  1.0 degree]
                                    p- or d-character  > 25.0%
                                    orbital occupancy  >  0.10e

                        Line of Centers        Hybrid 1             Hybrid 2
                        ---------------  -------------------  ------------------
           NBO            Theta   Phi    Theta   Phi    Dev   Theta   Phi    Dev
 ===============================================================================
  13. LP ( 2) S  1          --     --     97.3   90.4   --      --     --    --
  15. LP ( 2) S  3          --     --     82.7  202.5   --      --     --    --
  17. BD ( 2) S  1- C  2  180.0    0.0    98.2  180.4  81.8    87.2  191.3  87.2
  19. BD ( 2) C  2- S  3  180.0    0.0    92.8  101.6  87.2    81.8  112.5  81.8


 3-Center, 4-Electron A:-B-:C Hyperbonds (A-B :C <=> A: B-C)
              [threshold for detection: 33.3%]

                                                  NBOs       3-center hybrids
                                              -------------  ----------------
       Hyperbond A:-B-:C   %A-B/%B-C   occ    BD(A-B) LP(C)  h(A)  h(B)  h(C)
      -------------------  ---------  ------  ------- -----  ----  ----  ----
   1.  S  1:- C  2-: S  3  50.4/49.6  3.9830      17     15    18    19    15
   2.  S  3:- C  2-: S  1  50.4/49.6  3.9830      19     13    22    23    13


 SECOND ORDER PERTURBATION THEORY ANALYSIS OF FOCK MATRIX IN NBO BASIS

     Threshold for printing:   0.50 kcal/mol
                                                          E(2) E(NL)-E(L) F(L,NL)
      Donor (L) NBO              Acceptor (NL) NBO      kcal/mol   a.u.    a.u.
 ===============================================================================

 within unit  1
   12. LP ( 1) S  1            22. BD*( 1) C  2- S  3     10.84    1.33   0.107
   12. LP ( 1) S  1            33. RY ( 1) C  2            7.30    1.84   0.104
   12. LP ( 1) S  1            36. RY ( 4) C  2            0.60    1.77   0.029
   13. LP ( 2) S  1            21. BD*( 2) S  1- C  2      4.94    0.30   0.034
   13. LP ( 2) S  1            23. BD*( 2) C  2- S  3    181.87    0.30   0.208
   13. LP ( 2) S  1            25. RY ( 2) S  1            4.61    0.89   0.057
   13. LP ( 2) S  1            31. RY ( 8) S  1            1.86    1.38   0.045
   13. LP ( 2) S  1            34. RY ( 2) C  2            2.38    2.31   0.066
   13. LP ( 2) S  1            35. RY ( 3) C  2            3.56    2.32   0.081
   14. LP ( 1) S  3            20. BD*( 1) S  1- C  2     10.84    1.33   0.107
   14. LP ( 1) S  3            33. RY ( 1) C  2            7.30    1.84   0.104
   14. LP ( 1) S  3            36. RY ( 4) C  2            0.60    1.77   0.029
   15. LP ( 2) S  3            21. BD*( 2) S  1- C  2    181.87    0.30   0.208
   15. LP ( 2) S  3            23. BD*( 2) C  2- S  3      4.94    0.30   0.034
   15. LP ( 2) S  3            34. RY ( 2) C  2            2.38    2.31   0.066
   15. LP ( 2) S  3            35. RY ( 3) C  2            3.56    2.32   0.081
   15. LP ( 2) S  3            43. RY ( 2) S  3            4.61    0.89   0.057
   15. LP ( 2) S  3            49. RY ( 8) S  3            1.86    1.38   0.045
   16. BD ( 1) S  1- C  2      22. BD*( 1) C  2- S  3      1.98    1.56   0.050
   17. BD ( 2) S  1- C  2      21. BD*( 2) S  1- C  2      2.62    0.46   0.031
   17. BD ( 2) S  1- C  2      23. BD*( 2) C  2- S  3      2.28    0.46   0.029
   17. BD ( 2) S  1- C  2      43. RY ( 2) S  3            2.60    1.06   0.047
   18. BD ( 1) C  2- S  3      20. BD*( 1) S  1- C  2      1.98    1.56   0.050
   19. BD ( 2) C  2- S  3      21. BD*( 2) S  1- C  2      2.28    0.46   0.029
   19. BD ( 2) C  2- S  3      23. BD*( 2) C  2- S  3      2.62    0.46   0.031
   19. BD ( 2) C  2- S  3      25. RY ( 2) S  1            2.60    1.06   0.047


 NATURAL BOND ORBITALS (Summary):

                                                     Principal Delocalizations
           NBO                 Occupancy    Energy   (geminal,vicinal,remote)
 ===============================================================================
 Molecular unit  1  (CS2)
 ------ Lewis --------------------------------------
    1. CR ( 1) S  1             2.00000   -83.10332
    2. CR ( 2) S  1             2.00000   -17.87439
    3. CR ( 3) S  1             2.00000    -6.67629
    4. CR ( 4) S  1             2.00000    -6.67629
    5. CR ( 5) S  1             1.99999    -6.67946
    6. CR ( 1) C  2             1.99999   -11.40970
    7. CR ( 1) S  3             2.00000   -83.10332
    8. CR ( 2) S  3             2.00000   -17.87439
    9. CR ( 3) S  3             2.00000    -6.67629
   10. CR ( 4) S  3             2.00000    -6.67629
   11. CR ( 5) S  3             1.99999    -6.67946
   12. LP ( 1) S  1             1.98222    -0.73670  22(v),33(v),36(v)
   13. LP ( 2) S  1             1.53236    -0.30303  23(v),21(g),25(g),35(v)
                                                     34(v),31(g)
   14. LP ( 1) S  3             1.98222    -0.73670  20(v),33(v),36(v)
   15. LP ( 2) S  3             1.53236    -0.30303  21(v),23(g),43(g),35(v)
                                                     34(v),49(g)
   16. BD ( 1) S  1- C  2       1.99873    -0.96684  22(g)
   17. BD ( 2) S  1- C  2       1.98416    -0.46686  21(g),43(v),23(g)
   18. BD ( 1) C  2- S  3       1.99873    -0.96684  20(g)
   19. BD ( 2) C  2- S  3       1.98416    -0.46686  23(g),25(v),21(g)
 ------ non-Lewis ----------------------------------
   20. BD*( 1) S  1- C  2       0.01254     0.59692
   21. BD*( 2) S  1- C  2       0.46651    -0.00525
   22. BD*( 1) C  2- S  3       0.01254     0.59692
   23. BD*( 2) C  2- S  3       0.46651    -0.00525
   24. RY ( 1) S  1             0.00443     0.58870
   25. RY ( 2) S  1             0.00403     0.59078
   26. RY ( 3) S  1             0.00024     0.62780
   27. RY ( 4) S  1             0.00009     0.58283
   28. RY ( 5) S  1             0.00000     1.19989
   29. RY ( 6) S  1             0.00000     1.01679
   30. RY ( 7) S  1             0.00000     1.01679
   31. RY ( 8) S  1             0.00000     1.07416
   32. RY ( 9) S  1             0.00000     1.07416
   33. RY ( 1) C  2             0.01211     1.10783
   34. RY ( 2) C  2             0.01082     2.00759
   35. RY ( 3) C  2             0.00619     2.01869
   36. RY ( 4) C  2             0.00025     1.03339
   37. RY ( 5) C  2             0.00000     2.64510
   38. RY ( 6) C  2             0.00000     1.88248
   39. RY ( 7) C  2             0.00000     1.88248
   40. RY ( 8) C  2             0.00000     0.79560
   41. RY ( 9) C  2             0.00000     0.79560
   42. RY ( 1) S  3             0.00443     0.58870
   43. RY ( 2) S  3             0.00403     0.59078
   44. RY ( 3) S  3             0.00024     0.62780
   45. RY ( 4) S  3             0.00009     0.58283
   46. RY ( 5) S  3             0.00000     1.19989
   47. RY ( 6) S  3             0.00000     1.01679
   48. RY ( 7) S  3             0.00000     1.01679
   49. RY ( 8) S  3             0.00000     1.07416
   50. RY ( 9) S  3             0.00000     1.07416
          -------------------------------
                 Total Lewis   36.99491  ( 97.3550%)
           Valence non-Lewis    0.95810  (  2.5213%)
           Rydberg non-Lewis    0.04699  (  0.1237%)
          -------------------------------
               Total unit  1   38.00000  (100.0000%)
              Charge unit  1    0.00000

 $CHOOSE
   LONE 1 2 3 2 END
   BOND D 1 2 D 2 3 END
 $END

 NBO analysis completed in 0.86 CPU seconds (1 wall second)
 Maximum scratch memory used by NBO was 374008 words (2.85 MB)
 Maximum scratch memory used by G16NBO was 12203 words (0.09 MB)

 Opening RunExU unformatted file "/cluster/work/users/beto93/mol62/Gau-1655053.EUF"
 Read unf file /cluster/work/users/beto93/mol62/Gau-1655053.EUF:
 Label Gaussian matrix elements                                         IVers= 2 NLab= 2 Version=ES64L-G16RevC.01
 Title mol62-NBO                                                       
 NAtoms=     3 NBasis=    50 NBsUse=    50 ICharg=     0 Multip=     1 NE=    38 Len12L=8 Len4L=8 IOpCl= 0 ICGU=111
 GAUSSIAN SCALARS                    NI= 1 NR= 1 NTot=       1 LenBuf=    2 NRI=1 N=    1000
 NPA CHARGES                         NI= 0 NR= 1 NTot=       3 LenBuf= 4000 NRI=1 N=       3
 Recovered energy= -832.880955447     dipole=      0.000000000000     -0.000000000000     -0.000000000000
 Unable to Open any file for archive entry.
 1\1\GINC-C2-19\SP\RHF\6-31G(d)\C1S2\BETO93\18-Nov-2024\0\\#RHF/6-31G* 
 int=nobasistransform Symmetry=None 5D 7F Pop=NBO7Read\\mol62-NBO\\0,1\
 S,0,0.,0.,1.561117\C,0,0.,0.,0.\S,0,0.,0.,-1.561117\\Version=ES64L-G16
 RevC.01\HF=-832.8809554\RMSD=4.953e-09\Dipole=0.,0.,0.\Quadrupole=-0.4
 221498,-0.4221498,0.8442996,0.,0.,0.\PG=Unknown\\@
 The archive entry for this job was punched.


 REFRAIN FROM ILLUSIONS, INSIST ON WORK AND NOT WORDS,
 PATIENTLY SEEK DIVINE AND SCIENTIFIC TRUTH.
 LAST WORDS OF MARIA MENDELEEVA TO HER SON DMITRI, C. 1850
 Job cpu time:       0 days  0 hours  0 minutes  9.0 seconds.
 Elapsed time:       0 days  0 hours  0 minutes  3.0 seconds.
 File lengths (MBytes):  RWF=     10 Int=      0 D2E=      0 Chk=      1 Scr=      1
 Normal termination of Gaussian 16 at Mon Nov 18 16:40:42 2024.
