 Entering Gaussian System, Link 0=g16
 Initial command:
 /cluster/software/Gaussian/g16_C.01/l1.exe "/cluster/work/users/beto93/mol54/Gau-1371882.inp" -scrdir="/cluster/work/users/beto93/mol54/"
 Entering Link 1 = /cluster/software/Gaussian/g16_C.01/l1.exe PID=   1371883.
  
 Copyright (c) 1988-2019, Gaussian, Inc.  All Rights Reserved.
  
 This is part of the Gaussian(R) 16 program.  It is based on
 the Gaussian(R) 09 system (copyright 2009, Gaussian, Inc.),
 the Gaussian(R) 03 system (copyright 2003, Gaussian, Inc.),
 the Gaussian(R) 98 system (copyright 1998, Gaussian, Inc.),
 the Gaussian(R) 94 system (copyright 1995, Gaussian, Inc.),
 the Gaussian 92(TM) system (copyright 1992, Gaussian, Inc.),
 the Gaussian 90(TM) system (copyright 1990, Gaussian, Inc.),
 the Gaussian 88(TM) system (copyright 1988, Gaussian, Inc.),
 the Gaussian 86(TM) system (copyright 1986, Carnegie Mellon
 University), and the Gaussian 82(TM) system (copyright 1983,
 Carnegie Mellon University). Gaussian is a federally registered
 trademark of Gaussian, Inc.
  
 This software contains proprietary and confidential information,
 including trade secrets, belonging to Gaussian, Inc.
  
 This software is provided under written license and may be
 used, copied, transmitted, or stored only in accord with that
 written license.
  
 The following legend is applicable only to US Government
 contracts under FAR:
  
                    RESTRICTED RIGHTS LEGEND
  
 Use, reproduction and disclosure by the US Government is
 subject to restrictions as set forth in subparagraphs (a)
 and (c) of the Commercial Computer Software - Restricted
 Rights clause in FAR 52.227-19.
  
 Gaussian, Inc.
 340 Quinnipiac St., Bldg. 40, Wallingford CT 06492
  
  
 ---------------------------------------------------------------
 Warning -- This program may not be used in any manner that
 competes with the business of Gaussian, Inc. or will provide
 assistance to any competitor of Gaussian, Inc.  The licensee
 of this program is prohibited from giving any competitor of
 Gaussian, Inc. access to this program.  By using this program,
 the user acknowledges that Gaussian, Inc. is engaged in the
 business of creating and licensing software in the field of
 computational chemistry and represents and warrants to the
 licensee that it is not a competitor of Gaussian, Inc. and that
 it will not use this program in any manner prohibited above.
 ---------------------------------------------------------------
  

 Cite this work as:
 Gaussian 16, Revision C.01,
 M. J. Frisch, G. W. Trucks, H. B. Schlegel, G. E. Scuseria, 
 M. A. Robb, J. R. Cheeseman, G. Scalmani, V. Barone, 
 G. A. Petersson, H. Nakatsuji, X. Li, M. Caricato, A. V. Marenich, 
 J. Bloino, B. G. Janesko, R. Gomperts, B. Mennucci, H. P. Hratchian, 
 J. V. Ortiz, A. F. Izmaylov, J. L. Sonnenberg, D. Williams-Young, 
 F. Ding, F. Lipparini, F. Egidi, J. Goings, B. Peng, A. Petrone, 
 T. Henderson, D. Ranasinghe, V. G. Zakrzewski, J. Gao, N. Rega, 
 G. Zheng, W. Liang, M. Hada, M. Ehara, K. Toyota, R. Fukuda, 
 J. Hasegawa, M. Ishida, T. Nakajima, Y. Honda, O. Kitao, H. Nakai, 
 T. Vreven, K. Throssell, J. A. Montgomery, Jr., J. E. Peralta, 
 F. Ogliaro, M. J. Bearpark, J. J. Heyd, E. N. Brothers, K. N. Kudin, 
 V. N. Staroverov, T. A. Keith, R. Kobayashi, J. Normand, 
 K. Raghavachari, A. P. Rendell, J. C. Burant, S. S. Iyengar, 
 J. Tomasi, M. Cossi, J. M. Millam, M. Klene, C. Adamo, R. Cammi, 
 J. W. Ochterski, R. L. Martin, K. Morokuma, O. Farkas, 
 J. B. Foresman, and D. J. Fox, Gaussian, Inc., Wallingford CT, 2019.
 
 ******************************************
 Gaussian 16:  ES64L-G16RevC.01  3-Jul-2019
                18-Nov-2024 
 ******************************************
 %LindaWorkers=c1-55-ib
 %NProcShared=4
 Will use up to    4 processors via shared memory.
 %mem=25GB
 %chk=mol54.chk
 SetLPE:    new flags="-opt 'Tsnet.Node.lindarsharg: ssh'  -nodelist 'c1-55-ib.saga' -env GAUSS_MDEF=3355443200 -env GAUSS_EXEDIR="/cluster/software/Gaussian/g16_C.01/bsd:/cluster/software/Gaussian/g16_C.01""
 Will use up to    1 processors via Linda.
 -----------------------------------------------------------------
 #RHF/6-31G* int=nobasistransform Symmetry=None 5D 7F Pop=NBO7Read
 -----------------------------------------------------------------
 1/38=1,163=2,172=1/1;
 2/12=2,15=3,17=6,18=5,40=1/2;
 3/5=1,6=6,7=1,8=11,11=1,25=1,30=1,60=-1,116=1/1,2,3;
 4//1;
 5/5=2,38=5/2;
 6/7=2,8=2,9=2,10=2,28=1,40=2,113=1,114=1,124=2103/1,12;
 99/5=1,9=1/99;
 ---------
 mol54-NBO
 ---------
 Symbolic Z-matrix:
 Charge =  0 Multiplicity = 1
 S                     0.        0.        0.37027 
 O                     0.        1.27762  -0.37027 
 O                     0.       -1.27762  -0.37027 
 
                          Input orientation:                          
 ---------------------------------------------------------------------
 Center     Atomic      Atomic             Coordinates (Angstroms)
 Number     Number       Type             X           Y           Z
 ---------------------------------------------------------------------
      1         16           0        0.000000    0.000000    0.370268
      2          8           0        0.000000    1.277617   -0.370268
      3          8           0        0.000000   -1.277617   -0.370268
 ---------------------------------------------------------------------
                    Distance matrix (angstroms):
                    1          2          3
     1  S    0.000000
     2  O    1.476719   0.000000
     3  O    1.476719   2.555234   0.000000
 Symmetry turned off by external request.
 Stoichiometry    O2S
 Rotational constants (GHZ):          57.6319759           9.6784077           8.2867714
 Standard basis: 6-31G(d) (5D, 7F)
    46 basis functions,   108 primitive gaussians,    49 cartesian basis functions
    16 alpha electrons       16 beta electrons
       nuclear repulsion energy       104.9908365227 Hartrees.
 NAtoms=    3 NActive=    3 NUniq=    3 SFac= 1.00D+00 NAtFMM=   60 NAOKFM=F Big=F
 Integral buffers will be    131072 words long.
 Raffenetti 1 integral format.
 Two-electron integral symmetry is turned off.
 One-electron integrals computed using PRISM.
 NBasis=    46 RedAO= T EigKep=  2.99D-02  NBF=    46
 NBsUse=    46 1.00D-06 EigRej= -1.00D+00 NBFU=    46
 ExpMin= 1.17D-01 ExpMax= 2.19D+04 ExpMxC= 3.30D+03 IAcc=3 IRadAn=         5 AccDes= 0.00D+00
 Harris functional with IExCor=  205 and IRadAn=       5 diagonalized for initial guess.
 HarFok:  IExCor=  205 AccDes= 0.00D+00 IRadAn=         5 IDoV= 1 UseB2=F ITyADJ=14
 ICtDFT=  3500011 ScaDFX=  1.000000  1.000000  1.000000  1.000000
 FoFCou: FMM=F IPFlag=           0 FMFlag=      100000 FMFlg1=           0
         NFxFlg=           0 DoJE=T BraDBF=F KetDBF=T FulRan=T
         wScrn=  0.000000 ICntrl=       500 IOpCl=  0 I1Cent=   200000004 NGrid=           0
         NMat0=    1 NMatS0=      1 NMatT0=    0 NMatD0=    1 NMtDS0=    0 NMtDT0=    0
 Symmetry not used in FoFCou.
 Keep R1 ints in memory in canonical form, NReq=1419265.
 Requested convergence on RMS density matrix=1.00D-08 within 128 cycles.
 Requested convergence on MAX density matrix=1.00D-06.
 Requested convergence on             energy=1.00D-06.
 No special actions if energy rises.
 SCF Done:  E(RHF) =  -547.155289560     A.U. after   12 cycles
            NFock= 12  Conv=0.41D-08     -V/T= 2.0014

 **********************************************************************

            Population analysis using the SCF Density.

 **********************************************************************

 Alpha  occ. eigenvalues --  -92.19373 -20.63487 -20.63485  -9.17965  -6.86156
 Alpha  occ. eigenvalues --   -6.86138  -6.85879  -1.47849  -1.38143  -0.87869
 Alpha  occ. eigenvalues --   -0.68729  -0.67848  -0.64735  -0.53073  -0.50151
 Alpha  occ. eigenvalues --   -0.48996
 Alpha virt. eigenvalues --    0.00198   0.20511   0.21147   0.38263   0.44015
 Alpha virt. eigenvalues --    0.51194   0.59916   0.90051   0.90229   0.90979
 Alpha virt. eigenvalues --    1.03568   1.05661   1.20443   1.21540   1.27129
 Alpha virt. eigenvalues --    1.28091   1.33942   1.46348   1.67403   1.75356
 Alpha virt. eigenvalues --    2.03731   2.04674   2.05257   2.07030   2.16624
 Alpha virt. eigenvalues --    2.27792   2.33797   2.50333   2.97317   3.10375
          Condensed to atoms (all electrons):
               1          2          3
     1  S   14.171620   0.320289   0.320289
     2  O    0.320289   8.302323  -0.028711
     3  O    0.320289  -0.028711   8.302323
 Mulliken charges:
               1
     1  S    1.187802
     2  O   -0.593901
     3  O   -0.593901
 Sum of Mulliken charges =  -0.00000
 Mulliken charges with hydrogens summed into heavy atoms:
               1
     1  S    1.187802
     2  O   -0.593901
     3  O   -0.593901
 Electronic spatial extent (au):  <R**2>=            162.2006
 Charge=             -0.0000 electrons
 Dipole moment (field-independent basis, Debye):
    X=             -0.0000    Y=              0.0000    Z=              2.3575  Tot=              2.3575
 Quadrupole moment (field-independent basis, Debye-Ang):
   XX=            -20.5358   YY=            -28.4462   ZZ=            -22.6663
   XY=             -0.0000   XZ=             -0.0000   YZ=             -0.0000
 Traceless Quadrupole moment (field-independent basis, Debye-Ang):
   XX=              3.3470   YY=             -4.5635   ZZ=              1.2165
   XY=             -0.0000   XZ=             -0.0000   YZ=             -0.0000
 Octapole moment (field-independent basis, Debye-Ang**2):
  XXX=             -0.0000  YYY=              0.0000  ZZZ=              0.0128  XYY=              0.0000
  XXY=             -0.0000  XXZ=              0.3016  XZZ=             -0.0000  YZZ=              0.0000
  YYZ=              2.2876  XYZ=             -0.0000
 Hexadecapole moment (field-independent basis, Debye-Ang**3):
 XXXX=            -17.5814 YYYY=           -138.2362 ZZZZ=            -40.0400 XXXY=              0.0000
 XXXZ=             -0.0000 YYYX=             -0.0000 YYYZ=             -0.0000 ZZZX=             -0.0000
 ZZZY=              0.0000 XXYY=            -24.4462 XXZZ=             -9.3383 YYZZ=            -28.2512
 XXYZ=              0.0000 YYXZ=             -0.0000 ZZXY=              0.0000
 N-N= 1.049908365227D+02 E-N=-1.509684143057D+03  KE= 5.463893913862D+02
 Running external command "gaunbo7 R"
         input file       "/cluster/work/users/beto93/mol54/Gau-1371883.EIn"
         output file      "/cluster/work/users/beto93/mol54/Gau-1371883.EOu"
         message file     "/cluster/work/users/beto93/mol54/Gau-1371883.EMs"
         fchk file        "/cluster/work/users/beto93/mol54/Gau-1371883.EFC"
         mat. el file     "/cluster/work/users/beto93/mol54/Gau-1371883.EUF"

 Writing WrtUnf unformatted file "/cluster/work/users/beto93/mol54/Gau-1371883.EUF"
 Gaussian matrix elements                                         Version   2 NLab=11 Len12L=8 Len4L=8
 Write SHELL TO ATOM MAP                   from file      0 offset           0 length                  13 to matrix element file.
 Write SHELL TYPES                         from file      0 offset           0 length                  13 to matrix element file.
 Write NUMBER OF PRIMITIVES PER SHELL      from file      0 offset           0 length                  13 to matrix element file.
 Write PRIMITIVE EXPONENTS                 from file      0 offset           0 length                  39 to matrix element file.
 Write CONTRACTION COEFFICIENTS            from file      0 offset           0 length                  39 to matrix element file.
 Write P(S=P) CONTRACTION COEFFICIENTS     from file      0 offset           0 length                  39 to matrix element file.
 Write COORDINATES OF EACH SHELL           from file      0 offset           0 length                  39 to matrix element file.
 Write BONDS PER ATOM                      from file      0 offset           0 length                   3 to matrix element file.
 Write BONDED ATOMS                        from file      0 offset           0 length                   4 to matrix element file.
 Write BOND TYPES                          from file      0 offset           0 length                   4 to matrix element file.
 Write ONIOM CHARGE/MULT                   from file      0 offset           0 length                  32 to matrix element file.
 Write ONIOM ATOM LAYERS                   from file      0 offset           0 length                   3 to matrix element file.
 Write ONIOM ATOM MODIFIERS                from file      0 offset           0 length                   3 to matrix element file.
 Write ONIOM ATOM TYPES                    from file      0 offset           0 length                   3 to matrix element file.
 Write ONIOM LINK ATOMS                    from file      0 offset           0 length                   3 to matrix element file.
 Write ONIOM LINK CHARGES                  from file      0 offset           0 length                   3 to matrix element file.
 Write ONIOM LINK DISTANCES                from file      0 offset           0 length                  12 to matrix element file.
 Write SYMINF INTS                         from file      0 offset           0 length                  26 to matrix element file.
 Write ROTTR TO SO                         from file      0 offset           0 length                  12 to matrix element file.
 Write GAUSSIAN SCALARS                    from file    501 offset           0 to matrix element file.
 Write OPTIMIZATION FLAGS                  from file      0 offset           0 length                   3 to matrix element file.
 Write INTEGER ISO                         from file      0 offset           0 length                   3 to matrix element file.
 Write REAL ZEFFECTIVE                     from file      0 offset           0 length                   3 to matrix element file.
 Write REAL ZNUCLEAR                       from file      0 offset           0 length                   3 to matrix element file.
 Write MULLIKEN CHARGES                    from file      0 offset           0 length                   3 to matrix element file.
 Write NUCLEAR GRADIENT                    from file  10584 offset           0 length                   9 to matrix element file.
 Array NUCLEAR FORCE CONSTANTS              on  file  10585 does not exist.
 Write ELECTRIC DIPOLE MOMENT              from file      0 offset           0 length                   3 to matrix element file.
 Write NON-ADIABATIC COUPLING              from file  10810 offset           0 length                   9 to matrix element file.
 Write FINITE EM FIELD                     from file  10521 offset           0 length                  35 to matrix element file.
 Write OVERLAP                             from file  10514 offset           0 length                1081 to matrix element file.
 Write CORE HAMILTONIAN ALPHA              from file  10515 offset           0 length                1081 to matrix element file.
 Write CORE HAMILTONIAN BETA               from file  10515 offset        1081 length                1081 to matrix element file.
 Write KINETIC ENERGY                      from file  10516 offset           0 length                1081 to matrix element file.
 Write ORTHOGONAL BASIS                    from file  10685 offset           0 length                2116 to matrix element file.
 Write DIPOLE INTEGRALS                    from file  10518 offset           0 length                3243 to matrix element file.
 Array DIP VEL INTEGRALS                    on  file  10572 does not exist.
 Array R X DEL INTEGRALS                    on  file  10572 does not exist.
 Write ALPHA ORBITAL ENERGIES              from file      0 offset           0 length                  46 to matrix element file.
 Write ALPHA MO COEFFICIENTS               from file  10524 offset           0 length                2116 to matrix element file.
 Write ALPHA DENSITY MATRIX                from file      0 offset           0 length                1081 to matrix element file.
 Write ALPHA FOCK MATRIX                   from file  10536 offset           0 length                1081 to matrix element file.
 Write ENERGY-WEIGHTED DENSITY             from file  10571 offset           0 length                1081 to matrix element file.
 Write ALPHA SCF DENSITY MATRIX            from file      0 offset           0 length                1081 to matrix element file.
 No 2e integrals to process.
 Perform NBO analysis...executing G16NBO...

 *********************************** NBO 7.0 ***********************************
             N A T U R A L   A T O M I C   O R B I T A L   A N D
          N A T U R A L   B O N D   O R B I T A L   A N A L Y S I S
 **************************** Espen Tangen (S101595) ***************************
  (c) Copyright 1996-2021 Board of Regents of the University of Wisconsin System
      on behalf of the Theoretical Chemistry Institute.  All rights reserved.

          Cite this program [NBO 7.0.10 (8-Feb-2021)] as:

          NBO 7.0.  E. D. Glendening, J. K. Badenhoop, A. E. Reed,
          J. E. Carpenter, J. A. Bohmann, C. M. Morales, P. Karafiloglou,
          C. R. Landis, and F. Weinhold, Theoretical Chemistry Institute,
          University of Wisconsin, Madison, WI (2018)

       /NPA    / : Natural Population Analysis
       /AOPNAO / : Print the AO to PNAO transformation
       /AONAO  / : Print the AO to NAO transformation
       /AOMO   / : Print the MOs in the AO basis
       /BOAO   / : Print the AO bond-order matrix
       /DMAO   / : Print the AO density matrix
       /DMPNAO / : Print the PNAO density matrix
       /DMNAO  / : Print the NAO density matrix
       /DMMO   / : Print the MO density matrix
       /SAO    / : Print the AO overlap matrix
       /SPNAO  / : Print the PNAO overlap matrix
       /DETAIL / : Write details of NBO search
       /ARCHIVE/ : Write the archive file to lfn47
       /AOINFO / : Write AO information to lfn31
       /FILE   / : Set to mol54.gen*

 Filename set to mol54.gen1

 Job title: mol54-NBO


 MOs in the AO basis:

           AO          1       2       3       4       5       6       7       8
      ------------ ------- ------- ------- ------- ------- ------- ------- -------
   1.  S 1 (s)      0.9967  0.0000  0.0000 -0.2819  0.0000  0.0000 -0.0024  0.0432
   2.  S 1 (s)      0.0123  0.0000  0.0001  1.0309  0.0000  0.0000  0.0091 -0.1991
   3.  S 1 (px)     0.0000  0.0000  0.0000  0.0000  0.0000  0.9936  0.0000  0.0000
   4.  S 1 (py)     0.0000  0.0000  0.0000  0.0000  0.9931  0.0000  0.0000  0.0000
   5.  S 1 (pz)    -0.0002  0.0000  0.0001 -0.0077  0.0000  0.0000  0.9938  0.0561
   6.  S 1 (s)     -0.0049  0.0000  0.0009  0.0202  0.0000  0.0000 -0.0023  0.3801
   7.  S 1 (px)     0.0000  0.0000  0.0000  0.0000  0.0000  0.0212  0.0000  0.0000
   8.  S 1 (py)     0.0000  0.0010  0.0000  0.0000  0.0236  0.0000  0.0000  0.0000
   9.  S 1 (pz)     0.0010  0.0000 -0.0010 -0.0021  0.0000  0.0000  0.0205 -0.1106
  10.  S 1 (s)      0.0006  0.0000  0.0046 -0.0039  0.0000  0.0000 -0.0011 -0.0062
  11.  S 1 (px)     0.0000  0.0000  0.0000  0.0000  0.0000 -0.0049  0.0000  0.0000
  12.  S 1 (py)     0.0000  0.0025  0.0000  0.0000 -0.0035  0.0000  0.0000  0.0000
  13.  S 1 (pz)     0.0003  0.0000 -0.0022  0.0002  0.0000  0.0000 -0.0036  0.0305
  14.  S 1 (d5)     0.0001  0.0000  0.0001 -0.0003  0.0000  0.0000 -0.0008 -0.0088
  15.  S 1 (d2)     0.0000  0.0000  0.0000  0.0000  0.0000 -0.0006  0.0000  0.0000
  16.  S 1 (d3)     0.0000  0.0000  0.0000  0.0000 -0.0022  0.0000  0.0000  0.0000
  17.  S 1 (d4)     0.0007  0.0000 -0.0002 -0.0008  0.0000  0.0000  0.0004 -0.0444
  18.  S 1 (d1)     0.0000  0.0000  0.0000  0.0000  0.0000  0.0000  0.0000  0.0000
  19.  O 2 (s)      0.0000  0.7042  0.7042 -0.0002 -0.0005  0.0000  0.0003 -0.1304
  20.  O 2 (s)     -0.0004  0.0154  0.0157  0.0005  0.0006  0.0000 -0.0004  0.2855
  21.  O 2 (px)     0.0000  0.0000  0.0000  0.0000  0.0000  0.0001  0.0000  0.0000
  22.  O 2 (py)    -0.0001 -0.0011 -0.0011 -0.0004 -0.0007  0.0000  0.0006 -0.0857
  23.  O 2 (pz)     0.0000  0.0006  0.0005  0.0003  0.0005  0.0000 -0.0001  0.0467
  24.  O 2 (s)      0.0014 -0.0057 -0.0068 -0.0011 -0.0018  0.0000  0.0011  0.2820
  25.  O 2 (px)     0.0000  0.0000  0.0000  0.0000  0.0000 -0.0001  0.0000  0.0000
  26.  O 2 (py)    -0.0011  0.0012  0.0021  0.0013  0.0019  0.0000 -0.0013 -0.0442
  27.  O 2 (pz)     0.0006 -0.0011 -0.0006 -0.0008 -0.0013  0.0000  0.0003  0.0197
  28.  O 2 (d5)    -0.0001  0.0000  0.0002  0.0000 -0.0001  0.0000 -0.0002 -0.0038
  29.  O 2 (d2)     0.0000  0.0000  0.0000  0.0000  0.0000 -0.0002  0.0000  0.0000
  30.  O 2 (d3)    -0.0005  0.0002  0.0002  0.0001 -0.0002  0.0000  0.0004 -0.0121
  31.  O 2 (d4)    -0.0004  0.0001  0.0002  0.0001 -0.0002  0.0000  0.0001 -0.0112
  32.  O 2 (d1)     0.0000  0.0000  0.0000  0.0000  0.0000  0.0003  0.0000  0.0000
  33.  O 3 (s)      0.0000 -0.7042  0.7042 -0.0002  0.0005  0.0000  0.0003 -0.1304
  34.  O 3 (s)     -0.0004 -0.0154  0.0157  0.0005 -0.0006  0.0000 -0.0004  0.2855
  35.  O 3 (px)     0.0000  0.0000  0.0000  0.0000  0.0000  0.0001  0.0000  0.0000
  36.  O 3 (py)     0.0001 -0.0011  0.0011  0.0004 -0.0007  0.0000 -0.0006  0.0857
  37.  O 3 (pz)     0.0000 -0.0006  0.0005  0.0003 -0.0005  0.0000 -0.0001  0.0467
  38.  O 3 (s)      0.0014  0.0057 -0.0068 -0.0011  0.0018  0.0000  0.0011  0.2820
  39.  O 3 (px)     0.0000  0.0000  0.0000  0.0000  0.0000 -0.0001  0.0000  0.0000
  40.  O 3 (py)     0.0011  0.0012 -0.0021 -0.0013  0.0019  0.0000  0.0013  0.0442
  41.  O 3 (pz)     0.0006  0.0011 -0.0006 -0.0008  0.0013  0.0000  0.0003  0.0197
  42.  O 3 (d5)    -0.0001  0.0000  0.0002  0.0000  0.0001  0.0000 -0.0002 -0.0038
  43.  O 3 (d2)     0.0000  0.0000  0.0000  0.0000  0.0000 -0.0002  0.0000  0.0000
  44.  O 3 (d3)     0.0005  0.0002 -0.0002 -0.0001 -0.0002  0.0000 -0.0004  0.0121
  45.  O 3 (d4)    -0.0004 -0.0001  0.0002  0.0001  0.0002  0.0000  0.0001 -0.0112
  46.  O 3 (d1)     0.0000  0.0000  0.0000  0.0000  0.0000 -0.0003  0.0000  0.0000

           AO          9      10      11      12      13      14      15      16
      ------------ ------- ------- ------- ------- ------- ------- ------- -------
   1.  S 1 (s)      0.0000  0.0593  0.0000  0.0066  0.0000  0.0000  0.0000  0.0212
   2.  S 1 (s)      0.0000 -0.2653  0.0000 -0.0323  0.0000  0.0000  0.0000 -0.1029
   3.  S 1 (px)     0.0000  0.0000  0.0000  0.0000 -0.1791  0.0000  0.0000  0.0000
   4.  S 1 (py)    -0.1181  0.0000 -0.1650  0.0000  0.0000  0.0135  0.0000  0.0000
   5.  S 1 (pz)     0.0000 -0.0388  0.0000 -0.1739  0.0000  0.0000  0.0000 -0.1368
   6.  S 1 (s)      0.0000  0.6229  0.0000  0.0651  0.0000  0.0000  0.0000  0.2146
   7.  S 1 (px)     0.0000  0.0000  0.0000  0.0000  0.4656  0.0000  0.0000  0.0000
   8.  S 1 (py)     0.2509  0.0000  0.4305  0.0000  0.0000 -0.0427  0.0000  0.0000
   9.  S 1 (pz)     0.0000  0.0999  0.0000  0.4540  0.0000  0.0000  0.0000  0.3764
  10.  S 1 (s)      0.0000  0.1786  0.0000  0.1196  0.0000  0.0000  0.0000  0.4210
  11.  S 1 (px)     0.0000  0.0000  0.0000  0.0000  0.1510  0.0000  0.0000  0.0000
  12.  S 1 (py)    -0.0332  0.0000  0.0036  0.0000  0.0000  0.1018  0.0000  0.0000
  13.  S 1 (pz)     0.0000  0.0474  0.0000  0.1017  0.0000  0.0000  0.0000  0.0662
  14.  S 1 (d5)     0.0000  0.0003  0.0000 -0.0516  0.0000  0.0000  0.0000  0.0791
  15.  S 1 (d2)     0.0000  0.0000  0.0000  0.0000 -0.0510  0.0000  0.0000  0.0000
  16.  S 1 (d3)    -0.0753  0.0000 -0.0599  0.0000  0.0000  0.1011  0.0000  0.0000
  17.  S 1 (d4)     0.0000  0.0053  0.0000 -0.0054  0.0000  0.0000  0.0000  0.1125
  18.  S 1 (d1)     0.0000  0.0000  0.0000  0.0000  0.0000  0.0000  0.1267  0.0000
  19.  O 2 (s)     -0.1509  0.0951  0.0580 -0.0229  0.0000 -0.0045  0.0000  0.0022
  20.  O 2 (s)      0.3364 -0.2240 -0.1399  0.0560  0.0000  0.0165  0.0000  0.0040
  21.  O 2 (px)     0.0000  0.0000  0.0000  0.0000  0.3166  0.0000  0.4263  0.0000
  22.  O 2 (py)    -0.0652 -0.1588 -0.2509  0.2802  0.0000  0.3342  0.0000  0.0711
  23.  O 2 (pz)     0.0476  0.1203  0.2763  0.1904  0.0000  0.3105  0.0000 -0.3801
  24.  O 2 (s)      0.3295 -0.3029 -0.2250  0.0911  0.0000 -0.0158  0.0000 -0.0611
  25.  O 2 (px)     0.0000  0.0000  0.0000  0.0000  0.2229  0.0000  0.3622  0.0000
  26.  O 2 (py)    -0.0263 -0.0778 -0.1301  0.1786  0.0000  0.2437  0.0000  0.0455
  27.  O 2 (pz)     0.0215  0.0527  0.1638  0.1361  0.0000  0.2364  0.0000 -0.3080
  28.  O 2 (d5)    -0.0002 -0.0018  0.0046  0.0202  0.0000  0.0257  0.0000 -0.0104
  29.  O 2 (d2)     0.0000  0.0000  0.0000  0.0000  0.0160  0.0000  0.0197  0.0000
  30.  O 2 (d3)    -0.0087 -0.0104 -0.0196 -0.0037  0.0000 -0.0110  0.0000  0.0188
  31.  O 2 (d4)    -0.0064 -0.0066 -0.0085  0.0189  0.0000  0.0160  0.0000  0.0025
  32.  O 2 (d1)     0.0000  0.0000  0.0000  0.0000 -0.0284  0.0000 -0.0315  0.0000
  33.  O 3 (s)      0.1509  0.0951 -0.0580 -0.0229  0.0000  0.0045  0.0000  0.0022
  34.  O 3 (s)     -0.3364 -0.2240  0.1399  0.0560  0.0000 -0.0165  0.0000  0.0040
  35.  O 3 (px)     0.0000  0.0000  0.0000  0.0000  0.3166  0.0000 -0.4263  0.0000
  36.  O 3 (py)    -0.0652  0.1588 -0.2509 -0.2802  0.0000  0.3342  0.0000 -0.0711
  37.  O 3 (pz)    -0.0476  0.1203 -0.2763  0.1904  0.0000 -0.3105  0.0000 -0.3801
  38.  O 3 (s)     -0.3295 -0.3029  0.2250  0.0911  0.0000  0.0158  0.0000 -0.0611
  39.  O 3 (px)     0.0000  0.0000  0.0000  0.0000  0.2229  0.0000 -0.3622  0.0000
  40.  O 3 (py)    -0.0263  0.0778 -0.1301 -0.1786  0.0000  0.2437  0.0000 -0.0455
  41.  O 3 (pz)    -0.0215  0.0527 -0.1638  0.1361  0.0000 -0.2364  0.0000 -0.3080
  42.  O 3 (d5)     0.0002 -0.0018 -0.0046  0.0202  0.0000 -0.0257  0.0000 -0.0104
  43.  O 3 (d2)     0.0000  0.0000  0.0000  0.0000  0.0160  0.0000 -0.0197  0.0000
  44.  O 3 (d3)    -0.0087  0.0104 -0.0196  0.0037  0.0000 -0.0110  0.0000 -0.0188
  45.  O 3 (d4)     0.0064 -0.0066  0.0085  0.0189  0.0000 -0.0160  0.0000  0.0025
  46.  O 3 (d1)     0.0000  0.0000  0.0000  0.0000  0.0284  0.0000 -0.0315  0.0000

           AO         17      18      19      20      21      22      23      24
      ------------ ------- ------- ------- ------- ------- ------- ------- -------
   1.  S 1 (s)      0.0000  0.0175  0.0000 -0.0646  0.0000  0.0353  0.0000  0.0000
   2.  S 1 (s)      0.0000 -0.1149  0.0000  0.0986  0.0000 -0.0638  0.0000  0.0000
   3.  S 1 (px)    -0.2044  0.0000  0.0000  0.0000  0.2754  0.0000  0.0000 -0.0277
   4.  S 1 (py)     0.0000  0.0000 -0.1152  0.0000  0.0000  0.0000  0.3102  0.0000
   5.  S 1 (pz)     0.0000  0.1149  0.0000  0.1121  0.0000  0.2661  0.0000  0.0000
   6.  S 1 (s)      0.0000  0.0919  0.0000 -1.4877  0.0000  0.7676  0.0000  0.0000
   7.  S 1 (px)     0.5763  0.0000  0.0000  0.0000 -1.1343  0.0000  0.0000  0.1315
   8.  S 1 (py)     0.0000  0.0000  0.3332  0.0000  0.0000  0.0000 -1.2377  0.0000
   9.  S 1 (pz)     0.0000 -0.3458  0.0000 -0.4934  0.0000 -1.0678  0.0000  0.0000
  10.  S 1 (s)      0.0000  1.2231  0.0000  1.8604  0.0000 -0.8507  0.0000  0.0000
  11.  S 1 (px)     0.5068  0.0000  0.0000  0.0000  1.3296  0.0000  0.0000 -0.1362
  12.  S 1 (py)     0.0000  0.0000  1.4486  0.0000  0.0000  0.0000  1.2581  0.0000
  13.  S 1 (pz)     0.0000 -1.0555  0.0000  0.4200  0.0000  1.1985  0.0000  0.0000
  14.  S 1 (d5)     0.0000 -0.0550  0.0000  0.0112  0.0000  0.0974  0.0000  0.0000
  15.  S 1 (d2)     0.0670  0.0000  0.0000  0.0000  0.0743  0.0000  0.0000  0.9277
  16.  S 1 (d3)     0.0000  0.0000  0.1465  0.0000  0.0000  0.0000 -0.3046  0.0000
  17.  S 1 (d4)     0.0000  0.1532  0.0000 -0.0359  0.0000  0.1901  0.0000  0.0000
  18.  S 1 (d1)     0.0000  0.0000  0.0000  0.0000  0.0000  0.0000  0.0000  0.0000
  19.  O 2 (s)      0.0000  0.0572  0.0507  0.0096  0.0000  0.0042 -0.0075  0.0000
  20.  O 2 (s)      0.0000 -0.0911 -0.0656  0.0082  0.0000 -0.0756  0.0872  0.0000
  21.  O 2 (px)    -0.3183  0.0000  0.0000  0.0000  0.0030  0.0000  0.0000  0.2259
  22.  O 2 (py)     0.0000  0.2469  0.0327 -0.0942  0.0000  0.2233 -0.2034  0.0000
  23.  O 2 (pz)     0.0000  0.0410 -0.1976  0.0650  0.0000 -0.0789  0.1517  0.0000
  24.  O 2 (s)      0.0000 -0.7192 -0.7736 -0.3077  0.0000  0.3564 -0.3400  0.0000
  25.  O 2 (px)    -0.3688  0.0000  0.0000  0.0000 -0.1178  0.0000  0.0000 -0.0501
  26.  O 2 (py)     0.0000  0.4656  0.1316  0.0354  0.0000  0.0414 -0.1357  0.0000
  27.  O 2 (pz)     0.0000  0.0446 -0.3196 -0.0581  0.0000 -0.1047  0.0470  0.0000
  28.  O 2 (d5)     0.0000 -0.0044  0.0049 -0.0060  0.0000 -0.0395 -0.0262  0.0000
  29.  O 2 (d2)    -0.0019  0.0000  0.0000  0.0000 -0.0174  0.0000  0.0000  0.0173
  30.  O 2 (d3)     0.0000  0.0089  0.0058  0.0295  0.0000 -0.0082  0.0563  0.0000
  31.  O 2 (d4)     0.0000  0.0164  0.0050  0.0153  0.0000 -0.0474  0.0201  0.0000
  32.  O 2 (d1)     0.0066  0.0000  0.0000  0.0000  0.0370  0.0000  0.0000  0.0882
  33.  O 3 (s)      0.0000  0.0572 -0.0507  0.0096  0.0000  0.0042  0.0075  0.0000
  34.  O 3 (s)      0.0000 -0.0911  0.0656  0.0082  0.0000 -0.0756 -0.0872  0.0000
  35.  O 3 (px)    -0.3183  0.0000  0.0000  0.0000  0.0030  0.0000  0.0000  0.2259
  36.  O 3 (py)     0.0000 -0.2469  0.0327  0.0942  0.0000 -0.2233 -0.2034  0.0000
  37.  O 3 (pz)     0.0000  0.0410  0.1976  0.0650  0.0000 -0.0789 -0.1517  0.0000
  38.  O 3 (s)      0.0000 -0.7192  0.7736 -0.3077  0.0000  0.3564  0.3400  0.0000
  39.  O 3 (px)    -0.3688  0.0000  0.0000  0.0000 -0.1178  0.0000  0.0000 -0.0501
  40.  O 3 (py)     0.0000 -0.4656  0.1316 -0.0354  0.0000 -0.0414 -0.1357  0.0000
  41.  O 3 (pz)     0.0000  0.0446  0.3196 -0.0581  0.0000 -0.1047 -0.0470  0.0000
  42.  O 3 (d5)     0.0000 -0.0044 -0.0049 -0.0060  0.0000 -0.0395  0.0262  0.0000
  43.  O 3 (d2)    -0.0019  0.0000  0.0000  0.0000 -0.0174  0.0000  0.0000  0.0173
  44.  O 3 (d3)     0.0000 -0.0089  0.0058 -0.0295  0.0000  0.0082  0.0563  0.0000
  45.  O 3 (d4)     0.0000  0.0164 -0.0050  0.0153  0.0000 -0.0474 -0.0201  0.0000
  46.  O 3 (d1)    -0.0066  0.0000  0.0000  0.0000 -0.0370  0.0000  0.0000 -0.0882

           AO         25      26      27      28      29      30      31      32
      ------------ ------- ------- ------- ------- ------- ------- ------- -------
   1.  S 1 (s)     -0.0015  0.0000  0.0224  0.0000  0.0000 -0.0053  0.0000  0.0000
   2.  S 1 (s)     -0.0010  0.0000 -0.0112  0.0000  0.0000 -0.0040  0.0000  0.0000
   3.  S 1 (px)     0.0000  0.0000  0.0000  0.0000  0.0000  0.0000  0.0000 -0.0137
   4.  S 1 (py)     0.0000  0.0000  0.0000 -0.1288  0.0000  0.0000 -0.0327  0.0000
   5.  S 1 (pz)    -0.0283  0.0000  0.0757  0.0000  0.0000 -0.0218  0.0000  0.0000
   6.  S 1 (s)     -0.0468  0.0000  0.6446  0.0000  0.0000 -0.1746  0.0000  0.0000
   7.  S 1 (px)     0.0000  0.0000  0.0000  0.0000  0.0000  0.0000  0.0000  0.0306
   8.  S 1 (py)     0.0000  0.0000  0.0000  0.8127  0.0000  0.0000  0.1609  0.0000
   9.  S 1 (pz)     0.1501  0.0000 -0.4753  0.0000  0.0000  0.1106  0.0000  0.0000
  10.  S 1 (s)      0.0229  0.0000  0.6373  0.0000  0.0000 -0.0269  0.0000  0.0000
  11.  S 1 (px)     0.0000  0.0000  0.0000  0.0000  0.0000  0.0000  0.0000 -0.5513
  12.  S 1 (py)     0.0000  0.0000  0.0000  0.1931  0.0000  0.0000 -0.2600  0.0000
  13.  S 1 (pz)    -0.1421  0.0000 -0.1657  0.0000  0.0000 -0.4638  0.0000  0.0000
  14.  S 1 (d5)     0.8531  0.0000 -0.0276  0.0000  0.0000  0.3936  0.0000  0.0000
  15.  S 1 (d2)     0.0000  0.0000  0.0000  0.0000  0.0000  0.0000  0.0000  0.2758
  16.  S 1 (d3)     0.0000  0.0000  0.0000 -0.6187  0.0000  0.0000 -0.2740  0.0000
  17.  S 1 (d4)    -0.1871  0.0000 -0.6865  0.0000  0.0000  0.1468  0.0000  0.0000
  18.  S 1 (d1)     0.0000  0.8745  0.0000  0.0000 -0.3302  0.0000  0.0000  0.0000
  19.  O 2 (s)      0.0034  0.0000  0.0612  0.0609  0.0000  0.0032 -0.0022  0.0000
  20.  O 2 (s)     -0.0426  0.0000 -0.2526 -0.2616  0.0000 -0.1183  0.1261  0.0000
  21.  O 2 (px)     0.0000 -0.2960  0.0000  0.0000 -0.6345  0.0000  0.0000 -0.6565
  22.  O 2 (py)     0.1541  0.0000 -0.3210 -0.2165  0.0000 -0.2778 -0.2668  0.0000
  23.  O 2 (pz)     0.2584  0.0000  0.0391  0.2484  0.0000 -0.5215 -0.5784  0.0000
  24.  O 2 (s)      0.0231  0.0000 -0.3541 -0.2958  0.0000  0.1132 -0.1423  0.0000
  25.  O 2 (px)     0.0000  0.0280  0.0000  0.0000  0.7818  0.0000  0.0000  0.9003
  26.  O 2 (py)    -0.0779  0.0000  0.8858  0.8325  0.0000  0.2653  0.5083  0.0000
  27.  O 2 (pz)    -0.0791  0.0000 -0.3910 -0.5787  0.0000  0.8086  0.6541  0.0000
  28.  O 2 (d5)    -0.0336  0.0000  0.0400 -0.0396  0.0000 -0.0617 -0.0626  0.0000
  29.  O 2 (d2)     0.0000  0.0902  0.0000  0.0000 -0.0487  0.0000  0.0000 -0.0299
  30.  O 2 (d3)     0.0734  0.0000 -0.0274 -0.0136  0.0000  0.0702  0.0193  0.0000
  31.  O 2 (d4)    -0.0663  0.0000 -0.0091 -0.0326  0.0000 -0.0182 -0.0728  0.0000
  32.  O 2 (d1)     0.0000 -0.0906  0.0000  0.0000  0.0758  0.0000  0.0000  0.0781
  33.  O 3 (s)      0.0034  0.0000  0.0612 -0.0609  0.0000  0.0032  0.0022  0.0000
  34.  O 3 (s)     -0.0426  0.0000 -0.2526  0.2616  0.0000 -0.1183 -0.1261  0.0000
  35.  O 3 (px)     0.0000  0.2960  0.0000  0.0000  0.6345  0.0000  0.0000 -0.6565
  36.  O 3 (py)    -0.1541  0.0000  0.3210 -0.2165  0.0000  0.2778 -0.2668  0.0000
  37.  O 3 (pz)     0.2584  0.0000  0.0391 -0.2484  0.0000 -0.5215  0.5784  0.0000
  38.  O 3 (s)      0.0231  0.0000 -0.3541  0.2958  0.0000  0.1132  0.1423  0.0000
  39.  O 3 (px)     0.0000 -0.0280  0.0000  0.0000 -0.7818  0.0000  0.0000  0.9003
  40.  O 3 (py)     0.0779  0.0000 -0.8858  0.8325  0.0000 -0.2653  0.5083  0.0000
  41.  O 3 (pz)    -0.0791  0.0000 -0.3910  0.5787  0.0000  0.8086 -0.6541  0.0000
  42.  O 3 (d5)    -0.0336  0.0000  0.0400  0.0396  0.0000 -0.0617  0.0626  0.0000
  43.  O 3 (d2)     0.0000 -0.0902  0.0000  0.0000  0.0487  0.0000  0.0000 -0.0299
  44.  O 3 (d3)    -0.0734  0.0000  0.0274 -0.0136  0.0000 -0.0702  0.0193  0.0000
  45.  O 3 (d4)    -0.0663  0.0000 -0.0091  0.0326  0.0000 -0.0182  0.0728  0.0000
  46.  O 3 (d1)     0.0000 -0.0906  0.0000  0.0000  0.0758  0.0000  0.0000 -0.0781

           AO         33      34      35      36      37      38      39      40
      ------------ ------- ------- ------- ------- ------- ------- ------- -------
   1.  S 1 (s)     -0.0009  0.0000  0.0000 -0.0032  0.0000  0.0000  0.0000  0.0005
   2.  S 1 (s)      0.0881  0.0000  0.0000  0.0216  0.0000  0.0000  0.0000  0.0051
   3.  S 1 (px)     0.0000  0.0000  0.0000  0.0000  0.0000  0.0237  0.0000  0.0000
   4.  S 1 (py)     0.0000  0.0851  0.0143  0.0000  0.0000  0.0000  0.0101  0.0000
   5.  S 1 (pz)    -0.0517  0.0000  0.0000 -0.0207  0.0000  0.0000  0.0000  0.0002
   6.  S 1 (s)      0.3168  0.0000  0.0000 -0.0618  0.0000  0.0000  0.0000  0.0409
   7.  S 1 (px)     0.0000  0.0000  0.0000  0.0000  0.0000 -0.0979  0.0000  0.0000
   8.  S 1 (py)     0.0000 -0.1948 -0.3528  0.0000  0.0000  0.0000  0.0006  0.0000
   9.  S 1 (pz)     0.0894  0.0000  0.0000  0.2347  0.0000  0.0000  0.0000 -0.0267
  10.  S 1 (s)     -0.2567  0.0000  0.0000 -1.7842  0.0000  0.0000  0.0000  0.1247
  11.  S 1 (px)     0.0000  0.0000  0.0000  0.0000  0.0000 -0.0089  0.0000  0.0000
  12.  S 1 (py)     0.0000 -0.5537 -1.0142  0.0000  0.0000  0.0000  0.0023  0.0000
  13.  S 1 (pz)     0.0919  0.0000  0.0000  0.8754  0.0000  0.0000  0.0000 -0.0656
  14.  S 1 (d5)     0.0780  0.0000  0.0000 -0.0466  0.0000  0.0000  0.0000 -0.1004
  15.  S 1 (d2)     0.0000  0.0000  0.0000  0.0000  0.0000 -0.0579  0.0000  0.0000
  16.  S 1 (d3)     0.0000  0.7553  0.0775  0.0000  0.0000  0.0000  0.0203  0.0000
  17.  S 1 (d4)     0.7145  0.0000  0.0000  0.2864  0.0000  0.0000  0.0000  0.1336
  18.  S 1 (d1)     0.0000  0.0000  0.0000  0.0000  0.0322  0.0000  0.0000  0.0000
  19.  O 2 (s)     -0.0216 -0.0197  0.0435  0.0303  0.0000  0.0000 -0.0051 -0.0057
  20.  O 2 (s)      0.0967 -0.1132 -1.1317 -1.1431  0.0000  0.0000  0.0877  0.1195
  21.  O 2 (px)     0.0000  0.0000  0.0000  0.0000  0.0248 -0.0346  0.0000  0.0000
  22.  O 2 (py)    -0.4890 -0.6043  0.1218  0.0938  0.0000  0.0000 -0.0771 -0.0645
  23.  O 2 (pz)     0.3691  0.1326 -0.1767  0.0630  0.0000  0.0000 -0.0154  0.0129
  24.  O 2 (s)      0.1242  0.6029  1.8056  2.0758  0.0000  0.0000 -0.0942 -0.1713
  25.  O 2 (px)     0.0000  0.0000  0.0000  0.0000 -0.0294  0.0435  0.0000  0.0000
  26.  O 2 (py)     0.3802  0.3463 -0.4132 -0.6788  0.0000  0.0000  0.1014  0.0962
  27.  O 2 (pz)    -0.2577  0.0473  0.5108  0.0676  0.0000  0.0000  0.0154 -0.0138
  28.  O 2 (d5)    -0.1083  0.1214 -0.0862  0.1156  0.0000  0.0000 -0.3192  0.4546
  29.  O 2 (d2)     0.0000  0.0000  0.0000  0.0000  0.5256  0.6870  0.0000  0.0000
  30.  O 2 (d3)     0.0112  0.0316  0.1309  0.1347  0.0000  0.0000 -0.3773  0.2985
  31.  O 2 (d4)    -0.0012  0.0361  0.1112  0.1377  0.0000  0.0000  0.5018 -0.4441
  32.  O 2 (d1)     0.0000  0.0000  0.0000  0.0000  0.4738  0.1710  0.0000  0.0000
  33.  O 3 (s)     -0.0216  0.0197 -0.0435  0.0303  0.0000  0.0000  0.0051 -0.0057
  34.  O 3 (s)      0.0967  0.1132  1.1317 -1.1431  0.0000  0.0000 -0.0877  0.1195
  35.  O 3 (px)     0.0000  0.0000  0.0000  0.0000 -0.0248 -0.0346  0.0000  0.0000
  36.  O 3 (py)     0.4890 -0.6043  0.1218 -0.0938  0.0000  0.0000 -0.0771  0.0645
  37.  O 3 (pz)     0.3691 -0.1326  0.1767  0.0630  0.0000  0.0000  0.0154  0.0129
  38.  O 3 (s)      0.1242 -0.6029 -1.8056  2.0758  0.0000  0.0000  0.0942 -0.1713
  39.  O 3 (px)     0.0000  0.0000  0.0000  0.0000  0.0294  0.0435  0.0000  0.0000
  40.  O 3 (py)    -0.3802  0.3463 -0.4132  0.6788  0.0000  0.0000  0.1014 -0.0962
  41.  O 3 (pz)    -0.2577 -0.0473 -0.5108  0.0676  0.0000  0.0000 -0.0154 -0.0138
  42.  O 3 (d5)    -0.1083 -0.1214  0.0862  0.1156  0.0000  0.0000  0.3192  0.4546
  43.  O 3 (d2)     0.0000  0.0000  0.0000  0.0000 -0.5256  0.6870  0.0000  0.0000
  44.  O 3 (d3)    -0.0112  0.0316  0.1309 -0.1347  0.0000  0.0000 -0.3773 -0.2985
  45.  O 3 (d4)    -0.0012 -0.0361 -0.1112  0.1377  0.0000  0.0000 -0.5018 -0.4441
  46.  O 3 (d1)     0.0000  0.0000  0.0000  0.0000  0.4738 -0.1710  0.0000  0.0000

           AO         41      42      43      44      45      46
      ------------ ------- ------- ------- ------- ------- -------
   1.  S 1 (s)      0.0000  0.0000  0.0000  0.0002 -0.0525  0.0000
   2.  S 1 (s)      0.0000  0.0000  0.0000 -0.0005  0.0764  0.0000
   3.  S 1 (px)     0.0000 -0.0827  0.0000  0.0000  0.0000  0.0000
   4.  S 1 (py)     0.0399  0.0000  0.0000  0.0000  0.0000 -0.2601
   5.  S 1 (pz)     0.0000  0.0000  0.0000  0.0753 -0.1391  0.0000
   6.  S 1 (s)      0.0000  0.0000  0.0000  0.0166 -1.5111  0.0000
   7.  S 1 (px)     0.0000  0.3392  0.0000  0.0000  0.0000  0.0000
   8.  S 1 (py)    -0.2404  0.0000  0.0000  0.0000  0.0000  1.8274
   9.  S 1 (pz)     0.0000  0.0000  0.0000 -0.3414  1.0013  0.0000
  10.  S 1 (s)      0.0000  0.0000  0.0000  0.3267 -0.9073  0.0000
  11.  S 1 (px)     0.0000  0.1070  0.0000  0.0000  0.0000  0.0000
  12.  S 1 (py)    -0.1317  0.0000  0.0000  0.0000  0.0000  0.2542
  13.  S 1 (pz)     0.0000  0.0000  0.0000 -0.2767  0.2412  0.0000
  14.  S 1 (d5)     0.0000  0.0000  0.0000  0.5639  0.1174  0.0000
  15.  S 1 (d2)     0.0000 -0.3959  0.0000  0.0000  0.0000  0.0000
  16.  S 1 (d3)    -0.3803  0.0000  0.0000  0.0000  0.0000 -0.8778
  17.  S 1 (d4)     0.0000  0.0000  0.0000  0.2855  0.7077  0.0000
  18.  S 1 (d1)     0.0000  0.0000  0.6090  0.0000  0.0000  0.0000
  19.  O 2 (s)      0.0106  0.0000  0.0000 -0.0063 -0.0215  0.0282
  20.  O 2 (s)     -0.1913  0.0000  0.0000  0.2022 -0.6405  0.5332
  21.  O 2 (px)     0.0000  0.0993  0.0659  0.0000  0.0000  0.0000
  22.  O 2 (py)     0.0414  0.0000  0.0000 -0.0942  0.0484  0.0068
  23.  O 2 (pz)    -0.1427  0.0000  0.0000 -0.0297 -0.0189 -0.0028
  24.  O 2 (s)      0.2564  0.0000  0.0000 -0.3747  1.6075 -1.4849
  25.  O 2 (px)     0.0000 -0.2239 -0.1781  0.0000  0.0000  0.0000
  26.  O 2 (py)    -0.0210  0.0000  0.0000  0.2518 -0.9340  0.9167
  27.  O 2 (pz)     0.2222  0.0000  0.0000  0.1805  0.4791 -0.5614
  28.  O 2 (d5)     0.6175  0.0000  0.0000  0.5631 -0.0939  0.1536
  29.  O 2 (d2)     0.0000 -0.1946 -0.4896  0.0000  0.0000  0.0000
  30.  O 2 (d3)    -0.2905  0.0000  0.0000 -0.3964 -0.6914  0.7211
  31.  O 2 (d4)     0.1992  0.0000  0.0000  0.3255 -0.5949  0.6297
  32.  O 2 (d1)     0.0000  0.7160  0.5562  0.0000  0.0000  0.0000
  33.  O 3 (s)     -0.0106  0.0000  0.0000 -0.0063 -0.0215 -0.0282
  34.  O 3 (s)      0.1913  0.0000  0.0000  0.2022 -0.6405 -0.5332
  35.  O 3 (px)     0.0000  0.0993 -0.0659  0.0000  0.0000  0.0000
  36.  O 3 (py)     0.0414  0.0000  0.0000  0.0942 -0.0484  0.0068
  37.  O 3 (pz)     0.1427  0.0000  0.0000 -0.0297 -0.0189  0.0028
  38.  O 3 (s)     -0.2564  0.0000  0.0000 -0.3747  1.6075  1.4849
  39.  O 3 (px)     0.0000 -0.2239  0.1781  0.0000  0.0000  0.0000
  40.  O 3 (py)    -0.0210  0.0000  0.0000 -0.2518  0.9340  0.9167
  41.  O 3 (pz)    -0.2222  0.0000  0.0000  0.1805  0.4791  0.5614
  42.  O 3 (d5)    -0.6175  0.0000  0.0000  0.5631 -0.0939 -0.1536
  43.  O 3 (d2)     0.0000 -0.1946  0.4896  0.0000  0.0000  0.0000
  44.  O 3 (d3)    -0.2905  0.0000  0.0000  0.3964  0.6914  0.7211
  45.  O 3 (d4)    -0.1992  0.0000  0.0000  0.3255 -0.5949 -0.6297
  46.  O 3 (d1)     0.0000 -0.7160  0.5562  0.0000  0.0000  0.0000


 AO overlap matrix:

           AO          1       2       3       4       5       6       7       8
      ------------ ------- ------- ------- ------- ------- ------- ------- -------
   1.  S 1 (s)      1.0000  0.2627  0.0000  0.0000  0.0000  0.0102  0.0000  0.0000
   2.  S 1 (s)      0.2627  1.0000  0.0000  0.0000  0.0000  0.3228  0.0000  0.0000
   3.  S 1 (px)     0.0000  0.0000  1.0000  0.0000  0.0000  0.0000  0.3105  0.0000
   4.  S 1 (py)     0.0000  0.0000  0.0000  1.0000  0.0000  0.0000  0.0000  0.3105
   5.  S 1 (pz)     0.0000  0.0000  0.0000  0.0000  1.0000  0.0000  0.0000  0.0000
   6.  S 1 (s)      0.0102  0.3228  0.0000  0.0000  0.0000  1.0000  0.0000  0.0000
   7.  S 1 (px)     0.0000  0.0000  0.3105  0.0000  0.0000  0.0000  1.0000  0.0000
   8.  S 1 (py)     0.0000  0.0000  0.0000  0.3105  0.0000  0.0000  0.0000  1.0000
   9.  S 1 (pz)     0.0000  0.0000  0.0000  0.0000  0.3105  0.0000  0.0000  0.0000
  10.  S 1 (s)      0.0323  0.2491  0.0000  0.0000  0.0000  0.8283  0.0000  0.0000
  11.  S 1 (px)     0.0000  0.0000  0.0696  0.0000  0.0000  0.0000  0.6335  0.0000
  12.  S 1 (py)     0.0000  0.0000  0.0000  0.0696  0.0000  0.0000  0.0000  0.6335
  13.  S 1 (pz)     0.0000  0.0000  0.0000  0.0000  0.0696  0.0000  0.0000  0.0000
  14.  S 1 (d5)     0.0000  0.0000  0.0000  0.0000  0.0000  0.0000  0.0000  0.0000
  15.  S 1 (d2)     0.0000  0.0000  0.0000  0.0000  0.0000  0.0000  0.0000  0.0000
  16.  S 1 (d3)     0.0000  0.0000  0.0000  0.0000  0.0000  0.0000  0.0000  0.0000
  17.  S 1 (d4)     0.0000  0.0000  0.0000  0.0000  0.0000  0.0000  0.0000  0.0000
  18.  S 1 (d1)     0.0000  0.0000  0.0000  0.0000  0.0000  0.0000  0.0000  0.0000
  19.  O 2 (s)      0.0000  0.0000  0.0000  0.0000  0.0000  0.0162  0.0000  0.0321
  20.  O 2 (s)      0.0001  0.0036  0.0000  0.0049 -0.0028  0.1258  0.0000  0.2053
  21.  O 2 (px)     0.0000  0.0000  0.0013  0.0000  0.0000  0.0000  0.0637  0.0000
  22.  O 2 (py)    -0.0003 -0.0076  0.0000 -0.0093  0.0062 -0.1158  0.0000 -0.1445
  23.  O 2 (pz)     0.0001  0.0044  0.0000  0.0062 -0.0023  0.0671  0.0000  0.1207
  24.  O 2 (s)      0.0075  0.0642  0.0000  0.0321 -0.0186  0.3162  0.0000  0.3360
  25.  O 2 (px)     0.0000  0.0000  0.0256  0.0000  0.0000  0.0000  0.2678  0.0000
  26.  O 2 (py)    -0.0186 -0.1451  0.0000 -0.0475  0.0424 -0.4339  0.0000 -0.2288
  27.  O 2 (pz)     0.0108  0.0841  0.0000  0.0424  0.0010  0.2515  0.0000  0.2878
  28.  O 2 (d5)    -0.0005 -0.0066  0.0000 -0.0011  0.0128 -0.0221  0.0000  0.0407
  29.  O 2 (d2)     0.0000  0.0000  0.0070  0.0000  0.0000  0.0000  0.0849  0.0000
  30.  O 2 (d3)    -0.0031 -0.0407  0.0000 -0.0426  0.0167 -0.1355  0.0000 -0.1836
  31.  O 2 (d4)    -0.0027 -0.0351  0.0000 -0.0307  0.0248 -0.1169  0.0000 -0.0852
  32.  O 2 (d1)     0.0000  0.0000 -0.0121  0.0000  0.0000  0.0000 -0.1464  0.0000
  33.  O 3 (s)      0.0000  0.0000  0.0000  0.0000  0.0000  0.0162  0.0000 -0.0321
  34.  O 3 (s)      0.0001  0.0036  0.0000 -0.0049 -0.0028  0.1258  0.0000 -0.2053
  35.  O 3 (px)     0.0000  0.0000  0.0013  0.0000  0.0000  0.0000  0.0637  0.0000
  36.  O 3 (py)     0.0003  0.0076  0.0000 -0.0093 -0.0062  0.1158  0.0000 -0.1445
  37.  O 3 (pz)     0.0001  0.0044  0.0000 -0.0062 -0.0023  0.0671  0.0000 -0.1207
  38.  O 3 (s)      0.0075  0.0642  0.0000 -0.0321 -0.0186  0.3162  0.0000 -0.3360
  39.  O 3 (px)     0.0000  0.0000  0.0256  0.0000  0.0000  0.0000  0.2678  0.0000
  40.  O 3 (py)     0.0186  0.1451  0.0000 -0.0475 -0.0424  0.4339  0.0000 -0.2288
  41.  O 3 (pz)     0.0108  0.0841  0.0000 -0.0424  0.0010  0.2515  0.0000 -0.2878
  42.  O 3 (d5)    -0.0005 -0.0066  0.0000  0.0011  0.0128 -0.0221  0.0000 -0.0407
  43.  O 3 (d2)     0.0000  0.0000  0.0070  0.0000  0.0000  0.0000  0.0849  0.0000
  44.  O 3 (d3)     0.0031  0.0407  0.0000 -0.0426 -0.0167  0.1355  0.0000 -0.1836
  45.  O 3 (d4)    -0.0027 -0.0351  0.0000  0.0307  0.0248 -0.1169  0.0000  0.0852
  46.  O 3 (d1)     0.0000  0.0000  0.0121  0.0000  0.0000  0.0000  0.1464  0.0000

           AO          9      10      11      12      13      14      15      16
      ------------ ------- ------- ------- ------- ------- ------- ------- -------
   1.  S 1 (s)      0.0000  0.0323  0.0000  0.0000  0.0000  0.0000  0.0000  0.0000
   2.  S 1 (s)      0.0000  0.2491  0.0000  0.0000  0.0000  0.0000  0.0000  0.0000
   3.  S 1 (px)     0.0000  0.0000  0.0696  0.0000  0.0000  0.0000  0.0000  0.0000
   4.  S 1 (py)     0.0000  0.0000  0.0000  0.0696  0.0000  0.0000  0.0000  0.0000
   5.  S 1 (pz)     0.3105  0.0000  0.0000  0.0000  0.0696  0.0000  0.0000  0.0000
   6.  S 1 (s)      0.0000  0.8283  0.0000  0.0000  0.0000  0.0000  0.0000  0.0000
   7.  S 1 (px)     0.0000  0.0000  0.6335  0.0000  0.0000  0.0000  0.0000  0.0000
   8.  S 1 (py)     0.0000  0.0000  0.0000  0.6335  0.0000  0.0000  0.0000  0.0000
   9.  S 1 (pz)     1.0000  0.0000  0.0000  0.0000  0.6335  0.0000  0.0000  0.0000
  10.  S 1 (s)      0.0000  1.0000  0.0000  0.0000  0.0000  0.0000  0.0000  0.0000
  11.  S 1 (px)     0.0000  0.0000  1.0000  0.0000  0.0000  0.0000  0.0000  0.0000
  12.  S 1 (py)     0.0000  0.0000  0.0000  1.0000  0.0000  0.0000  0.0000  0.0000
  13.  S 1 (pz)     0.6335  0.0000  0.0000  0.0000  1.0000  0.0000  0.0000  0.0000
  14.  S 1 (d5)     0.0000  0.0000  0.0000  0.0000  0.0000  1.0000  0.0000  0.0000
  15.  S 1 (d2)     0.0000  0.0000  0.0000  0.0000  0.0000  0.0000  1.0000  0.0000
  16.  S 1 (d3)     0.0000  0.0000  0.0000  0.0000  0.0000  0.0000  0.0000  1.0000
  17.  S 1 (d4)     0.0000  0.0000  0.0000  0.0000  0.0000  0.0000  0.0000  0.0000
  18.  S 1 (d1)     0.0000  0.0000  0.0000  0.0000  0.0000  0.0000  0.0000  0.0000
  19.  O 2 (s)     -0.0186  0.0374  0.0000  0.0609 -0.0353 -0.0034  0.0000 -0.0209
  20.  O 2 (s)     -0.1190  0.2216  0.0000  0.3264 -0.1892 -0.0250  0.0000 -0.1531
  21.  O 2 (px)     0.0000  0.0000  0.1036  0.0000  0.0000  0.0000 -0.0471  0.0000
  22.  O 2 (py)     0.1207 -0.0856  0.0000 -0.0243  0.0741 -0.0102  0.0000  0.1777
  23.  O 2 (pz)    -0.0062  0.0496  0.0000  0.0741  0.0606 -0.0756  0.0000 -0.0490
  24.  O 2 (s)     -0.1948  0.4661  0.0000  0.5373 -0.3114 -0.0243  0.0000 -0.1489
  25.  O 2 (px)     0.0000  0.0000  0.4282  0.0000  0.0000  0.0000 -0.1187  0.0000
  26.  O 2 (py)     0.2878 -0.3539  0.0000  0.0203  0.2364 -0.0751  0.0000  0.1452
  27.  O 2 (pz)     0.1010  0.2051  0.0000  0.2364  0.2912 -0.1620  0.0000  0.0518
  28.  O 2 (d5)     0.1234 -0.0071  0.0000  0.0421  0.0666 -0.1268  0.0000  0.1418
  29.  O 2 (d2)     0.0000  0.0000  0.0525  0.0000  0.0000  0.0000 -0.0243  0.0000
  30.  O 2 (d3)     0.0092 -0.0434  0.0000 -0.0101 -0.0544  0.1418  0.0000  0.0774
  31.  O 2 (d4)     0.1342 -0.0375  0.0000  0.0367  0.0313 -0.0953  0.0000  0.1588
  32.  O 2 (d1)     0.0000  0.0000 -0.0907  0.0000  0.0000  0.0000  0.1457  0.0000
  33.  O 3 (s)     -0.0186  0.0374  0.0000 -0.0609 -0.0353 -0.0034  0.0000  0.0209
  34.  O 3 (s)     -0.1190  0.2216  0.0000 -0.3264 -0.1892 -0.0250  0.0000  0.1531
  35.  O 3 (px)     0.0000  0.0000  0.1036  0.0000  0.0000  0.0000 -0.0471  0.0000
  36.  O 3 (py)    -0.1207  0.0856  0.0000 -0.0243 -0.0741  0.0102  0.0000  0.1777
  37.  O 3 (pz)    -0.0062  0.0496  0.0000 -0.0741  0.0606 -0.0756  0.0000  0.0490
  38.  O 3 (s)     -0.1948  0.4661  0.0000 -0.5373 -0.3114 -0.0243  0.0000  0.1489
  39.  O 3 (px)     0.0000  0.0000  0.4282  0.0000  0.0000  0.0000 -0.1187  0.0000
  40.  O 3 (py)    -0.2878  0.3539  0.0000  0.0203 -0.2364  0.0751  0.0000  0.1452
  41.  O 3 (pz)     0.1010  0.2051  0.0000 -0.2364  0.2912 -0.1620  0.0000 -0.0518
  42.  O 3 (d5)     0.1234 -0.0071  0.0000 -0.0421  0.0666 -0.1268  0.0000 -0.1418
  43.  O 3 (d2)     0.0000  0.0000  0.0525  0.0000  0.0000  0.0000 -0.0243  0.0000
  44.  O 3 (d3)    -0.0092  0.0434  0.0000 -0.0101  0.0544 -0.1418  0.0000  0.0774
  45.  O 3 (d4)     0.1342 -0.0375  0.0000 -0.0367  0.0313 -0.0953  0.0000 -0.1588
  46.  O 3 (d1)     0.0000  0.0000  0.0907  0.0000  0.0000  0.0000 -0.1457  0.0000

           AO         17      18      19      20      21      22      23      24
      ------------ ------- ------- ------- ------- ------- ------- ------- -------
   1.  S 1 (s)      0.0000  0.0000  0.0000  0.0001  0.0000 -0.0003  0.0001  0.0075
   2.  S 1 (s)      0.0000  0.0000  0.0000  0.0036  0.0000 -0.0076  0.0044  0.0642
   3.  S 1 (px)     0.0000  0.0000  0.0000  0.0000  0.0013  0.0000  0.0000  0.0000
   4.  S 1 (py)     0.0000  0.0000  0.0000  0.0049  0.0000 -0.0093  0.0062  0.0321
   5.  S 1 (pz)     0.0000  0.0000  0.0000 -0.0028  0.0000  0.0062 -0.0023 -0.0186
   6.  S 1 (s)      0.0000  0.0000  0.0162  0.1258  0.0000 -0.1158  0.0671  0.3162
   7.  S 1 (px)     0.0000  0.0000  0.0000  0.0000  0.0637  0.0000  0.0000  0.0000
   8.  S 1 (py)     0.0000  0.0000  0.0321  0.2053  0.0000 -0.1445  0.1207  0.3360
   9.  S 1 (pz)     0.0000  0.0000 -0.0186 -0.1190  0.0000  0.1207 -0.0062 -0.1948
  10.  S 1 (s)      0.0000  0.0000  0.0374  0.2216  0.0000 -0.0856  0.0496  0.4661
  11.  S 1 (px)     0.0000  0.0000  0.0000  0.0000  0.1036  0.0000  0.0000  0.0000
  12.  S 1 (py)     0.0000  0.0000  0.0609  0.3264  0.0000 -0.0243  0.0741  0.5373
  13.  S 1 (pz)     0.0000  0.0000 -0.0353 -0.1892  0.0000  0.0741  0.0606 -0.3114
  14.  S 1 (d5)     0.0000  0.0000 -0.0034 -0.0250  0.0000 -0.0102 -0.0756 -0.0243
  15.  S 1 (d2)     0.0000  0.0000  0.0000  0.0000 -0.0471  0.0000  0.0000  0.0000
  16.  S 1 (d3)     0.0000  0.0000 -0.0209 -0.1531  0.0000  0.1777 -0.0490 -0.1489
  17.  S 1 (d4)     1.0000  0.0000 -0.0180 -0.1321  0.0000  0.1126 -0.1124 -0.1284
  18.  S 1 (d1)     0.0000  1.0000  0.0000  0.0000  0.0812  0.0000  0.0000  0.0000
  19.  O 2 (s)     -0.0180  0.0000  1.0000  0.2337  0.0000  0.0000  0.0000  0.1673
  20.  O 2 (s)     -0.1321  0.0000  0.2337  1.0000  0.0000  0.0000  0.0000  0.7636
  21.  O 2 (px)     0.0000  0.0812  0.0000  0.0000  1.0000  0.0000  0.0000  0.0000
  22.  O 2 (py)     0.1126  0.0000  0.0000  0.0000  0.0000  1.0000  0.0000  0.0000
  23.  O 2 (pz)    -0.1124  0.0000  0.0000  0.0000  0.0000  0.0000  1.0000  0.0000
  24.  O 2 (s)     -0.1284  0.0000  0.1673  0.7636  0.0000  0.0000  0.0000  1.0000
  25.  O 2 (px)     0.0000  0.2047  0.0000  0.0000  0.5015  0.0000  0.0000  0.0000
  26.  O 2 (py)     0.0229  0.0000  0.0000  0.0000  0.0000  0.5015  0.0000  0.0000
  27.  O 2 (pz)    -0.1319  0.0000  0.0000  0.0000  0.0000  0.0000  0.5015  0.0000
  28.  O 2 (d5)    -0.0953  0.0000  0.0000  0.0000  0.0000  0.0000  0.0000  0.0000
  29.  O 2 (d2)     0.0000  0.1457  0.0000  0.0000  0.0000  0.0000  0.0000  0.0000
  30.  O 2 (d3)     0.1588  0.0000  0.0000  0.0000  0.0000  0.0000  0.0000  0.0000
  31.  O 2 (d4)     0.0715  0.0000  0.0000  0.0000  0.0000  0.0000  0.0000  0.0000
  32.  O 2 (d1)     0.0000 -0.1912  0.0000  0.0000  0.0000  0.0000  0.0000  0.0000
  33.  O 3 (s)     -0.0180  0.0000  0.0000  0.0000  0.0000  0.0000  0.0000  0.0004
  34.  O 3 (s)     -0.1321  0.0000  0.0000  0.0000  0.0000  0.0000  0.0000  0.0056
  35.  O 3 (px)     0.0000 -0.0812  0.0000  0.0000  0.0000  0.0000  0.0000  0.0000
  36.  O 3 (py)    -0.1126  0.0000  0.0000  0.0000  0.0000 -0.0001  0.0000  0.0081
  37.  O 3 (pz)    -0.1124  0.0000  0.0000  0.0000  0.0000  0.0000  0.0000  0.0000
  38.  O 3 (s)     -0.1284  0.0000  0.0004  0.0056  0.0000 -0.0081  0.0000  0.0429
  39.  O 3 (px)     0.0000 -0.2047  0.0000  0.0000  0.0032  0.0000  0.0000  0.0000
  40.  O 3 (py)    -0.0229  0.0000  0.0018  0.0220  0.0000 -0.0290  0.0000  0.1078
  41.  O 3 (pz)    -0.1319  0.0000  0.0000  0.0000  0.0000  0.0000  0.0032  0.0000
  42.  O 3 (d5)    -0.0953  0.0000  0.0000 -0.0002  0.0000  0.0006  0.0000 -0.0100
  43.  O 3 (d2)     0.0000 -0.1457  0.0000  0.0000  0.0000  0.0000  0.0000  0.0000
  44.  O 3 (d3)    -0.1588  0.0000  0.0000  0.0000  0.0000  0.0000  0.0001  0.0000
  45.  O 3 (d4)     0.0715  0.0000  0.0000 -0.0004  0.0000  0.0010  0.0000 -0.0174
  46.  O 3 (d1)     0.0000 -0.1912  0.0000  0.0000  0.0001  0.0000  0.0000  0.0000

           AO         25      26      27      28      29      30      31      32
      ------------ ------- ------- ------- ------- ------- ------- ------- -------
   1.  S 1 (s)      0.0000 -0.0186  0.0108 -0.0005  0.0000 -0.0031 -0.0027  0.0000
   2.  S 1 (s)      0.0000 -0.1451  0.0841 -0.0066  0.0000 -0.0407 -0.0351  0.0000
   3.  S 1 (px)     0.0256  0.0000  0.0000  0.0000  0.0070  0.0000  0.0000 -0.0121
   4.  S 1 (py)     0.0000 -0.0475  0.0424 -0.0011  0.0000 -0.0426 -0.0307  0.0000
   5.  S 1 (pz)     0.0000  0.0424  0.0010  0.0128  0.0000  0.0167  0.0248  0.0000
   6.  S 1 (s)      0.0000 -0.4339  0.2515 -0.0221  0.0000 -0.1355 -0.1169  0.0000
   7.  S 1 (px)     0.2678  0.0000  0.0000  0.0000  0.0849  0.0000  0.0000 -0.1464
   8.  S 1 (py)     0.0000 -0.2288  0.2878  0.0407  0.0000 -0.1836 -0.0852  0.0000
   9.  S 1 (pz)     0.0000  0.2878  0.1010  0.1234  0.0000  0.0092  0.1342  0.0000
  10.  S 1 (s)      0.0000 -0.3539  0.2051 -0.0071  0.0000 -0.0434 -0.0375  0.0000
  11.  S 1 (px)     0.4282  0.0000  0.0000  0.0000  0.0525  0.0000  0.0000 -0.0907
  12.  S 1 (py)     0.0000  0.0203  0.2364  0.0421  0.0000 -0.0101  0.0367  0.0000
  13.  S 1 (pz)     0.0000  0.2364  0.2912  0.0666  0.0000 -0.0544  0.0313  0.0000
  14.  S 1 (d5)     0.0000 -0.0751 -0.1620 -0.1268  0.0000  0.1418 -0.0953  0.0000
  15.  S 1 (d2)    -0.1187  0.0000  0.0000  0.0000 -0.0243  0.0000  0.0000  0.1457
  16.  S 1 (d3)     0.0000  0.1452  0.0518  0.1418  0.0000  0.0774  0.1588  0.0000
  17.  S 1 (d4)     0.0000  0.0229 -0.1319 -0.0953  0.0000  0.1588  0.0715  0.0000
  18.  S 1 (d1)     0.2047  0.0000  0.0000  0.0000  0.1457  0.0000  0.0000 -0.1912
  19.  O 2 (s)      0.0000  0.0000  0.0000  0.0000  0.0000  0.0000  0.0000  0.0000
  20.  O 2 (s)      0.0000  0.0000  0.0000  0.0000  0.0000  0.0000  0.0000  0.0000
  21.  O 2 (px)     0.5015  0.0000  0.0000  0.0000  0.0000  0.0000  0.0000  0.0000
  22.  O 2 (py)     0.0000  0.5015  0.0000  0.0000  0.0000  0.0000  0.0000  0.0000
  23.  O 2 (pz)     0.0000  0.0000  0.5015  0.0000  0.0000  0.0000  0.0000  0.0000
  24.  O 2 (s)      0.0000  0.0000  0.0000  0.0000  0.0000  0.0000  0.0000  0.0000
  25.  O 2 (px)     1.0000  0.0000  0.0000  0.0000  0.0000  0.0000  0.0000  0.0000
  26.  O 2 (py)     0.0000  1.0000  0.0000  0.0000  0.0000  0.0000  0.0000  0.0000
  27.  O 2 (pz)     0.0000  0.0000  1.0000  0.0000  0.0000  0.0000  0.0000  0.0000
  28.  O 2 (d5)     0.0000  0.0000  0.0000  1.0000  0.0000  0.0000  0.0000  0.0000
  29.  O 2 (d2)     0.0000  0.0000  0.0000  0.0000  1.0000  0.0000  0.0000  0.0000
  30.  O 2 (d3)     0.0000  0.0000  0.0000  0.0000  0.0000  1.0000  0.0000  0.0000
  31.  O 2 (d4)     0.0000  0.0000  0.0000  0.0000  0.0000  0.0000  1.0000  0.0000
  32.  O 2 (d1)     0.0000  0.0000  0.0000  0.0000  0.0000  0.0000  0.0000  1.0000
  33.  O 3 (s)      0.0000 -0.0018  0.0000  0.0000  0.0000  0.0000  0.0000  0.0000
  34.  O 3 (s)      0.0000 -0.0220  0.0000 -0.0002  0.0000  0.0000 -0.0004  0.0000
  35.  O 3 (px)     0.0032  0.0000  0.0000  0.0000  0.0000  0.0000  0.0000 -0.0001
  36.  O 3 (py)     0.0000 -0.0290  0.0000 -0.0006  0.0000  0.0000 -0.0010  0.0000
  37.  O 3 (pz)     0.0000  0.0000  0.0032  0.0000  0.0000 -0.0001  0.0000  0.0000
  38.  O 3 (s)      0.0000 -0.1078  0.0000 -0.0100  0.0000  0.0000 -0.0174  0.0000
  39.  O 3 (px)     0.0429  0.0000  0.0000  0.0000  0.0000  0.0000  0.0000 -0.0138
  40.  O 3 (py)     0.0000 -0.2274  0.0000 -0.0296  0.0000  0.0000 -0.0513  0.0000
  41.  O 3 (pz)     0.0000  0.0000  0.0429  0.0000  0.0000 -0.0138  0.0000  0.0000
  42.  O 3 (d5)     0.0000  0.0296  0.0000  0.0021  0.0000  0.0000  0.0035  0.0000
  43.  O 3 (d2)     0.0000  0.0000  0.0000  0.0000  0.0001  0.0000  0.0000  0.0000
  44.  O 3 (d3)     0.0000  0.0000  0.0138  0.0000  0.0000 -0.0016  0.0000  0.0000
  45.  O 3 (d4)     0.0000  0.0513  0.0000  0.0035  0.0000  0.0000  0.0062  0.0000
  46.  O 3 (d1)     0.0138  0.0000  0.0000  0.0000  0.0000  0.0000  0.0000 -0.0016

           AO         33      34      35      36      37      38      39      40
      ------------ ------- ------- ------- ------- ------- ------- ------- -------
   1.  S 1 (s)      0.0000  0.0001  0.0000  0.0003  0.0001  0.0075  0.0000  0.0186
   2.  S 1 (s)      0.0000  0.0036  0.0000  0.0076  0.0044  0.0642  0.0000  0.1451
   3.  S 1 (px)     0.0000  0.0000  0.0013  0.0000  0.0000  0.0000  0.0256  0.0000
   4.  S 1 (py)     0.0000 -0.0049  0.0000 -0.0093 -0.0062 -0.0321  0.0000 -0.0475
   5.  S 1 (pz)     0.0000 -0.0028  0.0000 -0.0062 -0.0023 -0.0186  0.0000 -0.0424
   6.  S 1 (s)      0.0162  0.1258  0.0000  0.1158  0.0671  0.3162  0.0000  0.4339
   7.  S 1 (px)     0.0000  0.0000  0.0637  0.0000  0.0000  0.0000  0.2678  0.0000
   8.  S 1 (py)    -0.0321 -0.2053  0.0000 -0.1445 -0.1207 -0.3360  0.0000 -0.2288
   9.  S 1 (pz)    -0.0186 -0.1190  0.0000 -0.1207 -0.0062 -0.1948  0.0000 -0.2878
  10.  S 1 (s)      0.0374  0.2216  0.0000  0.0856  0.0496  0.4661  0.0000  0.3539
  11.  S 1 (px)     0.0000  0.0000  0.1036  0.0000  0.0000  0.0000  0.4282  0.0000
  12.  S 1 (py)    -0.0609 -0.3264  0.0000 -0.0243 -0.0741 -0.5373  0.0000  0.0203
  13.  S 1 (pz)    -0.0353 -0.1892  0.0000 -0.0741  0.0606 -0.3114  0.0000 -0.2364
  14.  S 1 (d5)    -0.0034 -0.0250  0.0000  0.0102 -0.0756 -0.0243  0.0000  0.0751
  15.  S 1 (d2)     0.0000  0.0000 -0.0471  0.0000  0.0000  0.0000 -0.1187  0.0000
  16.  S 1 (d3)     0.0209  0.1531  0.0000  0.1777  0.0490  0.1489  0.0000  0.1452
  17.  S 1 (d4)    -0.0180 -0.1321  0.0000 -0.1126 -0.1124 -0.1284  0.0000 -0.0229
  18.  S 1 (d1)     0.0000  0.0000 -0.0812  0.0000  0.0000  0.0000 -0.2047  0.0000
  19.  O 2 (s)      0.0000  0.0000  0.0000  0.0000  0.0000  0.0004  0.0000  0.0018
  20.  O 2 (s)      0.0000  0.0000  0.0000  0.0000  0.0000  0.0056  0.0000  0.0220
  21.  O 2 (px)     0.0000  0.0000  0.0000  0.0000  0.0000  0.0000  0.0032  0.0000
  22.  O 2 (py)     0.0000  0.0000  0.0000 -0.0001  0.0000 -0.0081  0.0000 -0.0290
  23.  O 2 (pz)     0.0000  0.0000  0.0000  0.0000  0.0000  0.0000  0.0000  0.0000
  24.  O 2 (s)      0.0004  0.0056  0.0000  0.0081  0.0000  0.0429  0.0000  0.1078
  25.  O 2 (px)     0.0000  0.0000  0.0032  0.0000  0.0000  0.0000  0.0429  0.0000
  26.  O 2 (py)    -0.0018 -0.0220  0.0000 -0.0290  0.0000 -0.1078  0.0000 -0.2274
  27.  O 2 (pz)     0.0000  0.0000  0.0000  0.0000  0.0032  0.0000  0.0000  0.0000
  28.  O 2 (d5)     0.0000 -0.0002  0.0000 -0.0006  0.0000 -0.0100  0.0000 -0.0296
  29.  O 2 (d2)     0.0000  0.0000  0.0000  0.0000  0.0000  0.0000  0.0000  0.0000
  30.  O 2 (d3)     0.0000  0.0000  0.0000  0.0000 -0.0001  0.0000  0.0000  0.0000
  31.  O 2 (d4)     0.0000 -0.0004  0.0000 -0.0010  0.0000 -0.0174  0.0000 -0.0513
  32.  O 2 (d1)     0.0000  0.0000 -0.0001  0.0000  0.0000  0.0000 -0.0138  0.0000
  33.  O 3 (s)      1.0000  0.2337  0.0000  0.0000  0.0000  0.1673  0.0000  0.0000
  34.  O 3 (s)      0.2337  1.0000  0.0000  0.0000  0.0000  0.7636  0.0000  0.0000
  35.  O 3 (px)     0.0000  0.0000  1.0000  0.0000  0.0000  0.0000  0.5015  0.0000
  36.  O 3 (py)     0.0000  0.0000  0.0000  1.0000  0.0000  0.0000  0.0000  0.5015
  37.  O 3 (pz)     0.0000  0.0000  0.0000  0.0000  1.0000  0.0000  0.0000  0.0000
  38.  O 3 (s)      0.1673  0.7636  0.0000  0.0000  0.0000  1.0000  0.0000  0.0000
  39.  O 3 (px)     0.0000  0.0000  0.5015  0.0000  0.0000  0.0000  1.0000  0.0000
  40.  O 3 (py)     0.0000  0.0000  0.0000  0.5015  0.0000  0.0000  0.0000  1.0000
  41.  O 3 (pz)     0.0000  0.0000  0.0000  0.0000  0.5015  0.0000  0.0000  0.0000
  42.  O 3 (d5)     0.0000  0.0000  0.0000  0.0000  0.0000  0.0000  0.0000  0.0000
  43.  O 3 (d2)     0.0000  0.0000  0.0000  0.0000  0.0000  0.0000  0.0000  0.0000
  44.  O 3 (d3)     0.0000  0.0000  0.0000  0.0000  0.0000  0.0000  0.0000  0.0000
  45.  O 3 (d4)     0.0000  0.0000  0.0000  0.0000  0.0000  0.0000  0.0000  0.0000
  46.  O 3 (d1)     0.0000  0.0000  0.0000  0.0000  0.0000  0.0000  0.0000  0.0000

           AO         41      42      43      44      45      46
      ------------ ------- ------- ------- ------- ------- -------
   1.  S 1 (s)      0.0108 -0.0005  0.0000  0.0031 -0.0027  0.0000
   2.  S 1 (s)      0.0841 -0.0066  0.0000  0.0407 -0.0351  0.0000
   3.  S 1 (px)     0.0000  0.0000  0.0070  0.0000  0.0000  0.0121
   4.  S 1 (py)    -0.0424  0.0011  0.0000 -0.0426  0.0307  0.0000
   5.  S 1 (pz)     0.0010  0.0128  0.0000 -0.0167  0.0248  0.0000
   6.  S 1 (s)      0.2515 -0.0221  0.0000  0.1355 -0.1169  0.0000
   7.  S 1 (px)     0.0000  0.0000  0.0849  0.0000  0.0000  0.1464
   8.  S 1 (py)    -0.2878 -0.0407  0.0000 -0.1836  0.0852  0.0000
   9.  S 1 (pz)     0.1010  0.1234  0.0000 -0.0092  0.1342  0.0000
  10.  S 1 (s)      0.2051 -0.0071  0.0000  0.0434 -0.0375  0.0000
  11.  S 1 (px)     0.0000  0.0000  0.0525  0.0000  0.0000  0.0907
  12.  S 1 (py)    -0.2364 -0.0421  0.0000 -0.0101 -0.0367  0.0000
  13.  S 1 (pz)     0.2912  0.0666  0.0000  0.0544  0.0313  0.0000
  14.  S 1 (d5)    -0.1620 -0.1268  0.0000 -0.1418 -0.0953  0.0000
  15.  S 1 (d2)     0.0000  0.0000 -0.0243  0.0000  0.0000 -0.1457
  16.  S 1 (d3)    -0.0518 -0.1418  0.0000  0.0774 -0.1588  0.0000
  17.  S 1 (d4)    -0.1319 -0.0953  0.0000 -0.1588  0.0715  0.0000
  18.  S 1 (d1)     0.0000  0.0000 -0.1457  0.0000  0.0000 -0.1912
  19.  O 2 (s)      0.0000  0.0000  0.0000  0.0000  0.0000  0.0000
  20.  O 2 (s)      0.0000 -0.0002  0.0000  0.0000 -0.0004  0.0000
  21.  O 2 (px)     0.0000  0.0000  0.0000  0.0000  0.0000  0.0001
  22.  O 2 (py)     0.0000  0.0006  0.0000  0.0000  0.0010  0.0000
  23.  O 2 (pz)     0.0032  0.0000  0.0000  0.0001  0.0000  0.0000
  24.  O 2 (s)      0.0000 -0.0100  0.0000  0.0000 -0.0174  0.0000
  25.  O 2 (px)     0.0000  0.0000  0.0000  0.0000  0.0000  0.0138
  26.  O 2 (py)     0.0000  0.0296  0.0000  0.0000  0.0513  0.0000
  27.  O 2 (pz)     0.0429  0.0000  0.0000  0.0138  0.0000  0.0000
  28.  O 2 (d5)     0.0000  0.0021  0.0000  0.0000  0.0035  0.0000
  29.  O 2 (d2)     0.0000  0.0000  0.0001  0.0000  0.0000  0.0000
  30.  O 2 (d3)    -0.0138  0.0000  0.0000 -0.0016  0.0000  0.0000
  31.  O 2 (d4)     0.0000  0.0035  0.0000  0.0000  0.0062  0.0000
  32.  O 2 (d1)     0.0000  0.0000  0.0000  0.0000  0.0000 -0.0016
  33.  O 3 (s)      0.0000  0.0000  0.0000  0.0000  0.0000  0.0000
  34.  O 3 (s)      0.0000  0.0000  0.0000  0.0000  0.0000  0.0000
  35.  O 3 (px)     0.0000  0.0000  0.0000  0.0000  0.0000  0.0000
  36.  O 3 (py)     0.0000  0.0000  0.0000  0.0000  0.0000  0.0000
  37.  O 3 (pz)     0.5015  0.0000  0.0000  0.0000  0.0000  0.0000
  38.  O 3 (s)      0.0000  0.0000  0.0000  0.0000  0.0000  0.0000
  39.  O 3 (px)     0.0000  0.0000  0.0000  0.0000  0.0000  0.0000
  40.  O 3 (py)     0.0000  0.0000  0.0000  0.0000  0.0000  0.0000
  41.  O 3 (pz)     1.0000  0.0000  0.0000  0.0000  0.0000  0.0000
  42.  O 3 (d5)     0.0000  1.0000  0.0000  0.0000  0.0000  0.0000
  43.  O 3 (d2)     0.0000  0.0000  1.0000  0.0000  0.0000  0.0000
  44.  O 3 (d3)     0.0000  0.0000  0.0000  1.0000  0.0000  0.0000
  45.  O 3 (d4)     0.0000  0.0000  0.0000  0.0000  1.0000  0.0000
  46.  O 3 (d1)     0.0000  0.0000  0.0000  0.0000  0.0000  1.0000


 AO bond-order matrix:

           AO          1       2       3       4       5       6       7       8
      ------------ ------- ------- ------- ------- ------- ------- ------- -------
   1.  S 1 (s)      2.1573 -0.6102  0.0000  0.0000 -0.0088  0.0955  0.0000  0.0000
   2.  S 1 (s)     -0.6102  2.3695  0.0000  0.0000  0.0398 -0.4888  0.0000  0.0000
   3.  S 1 (px)     0.0000  0.0000  2.0388  0.0000  0.0000  0.0000 -0.1247  0.0000
   4.  S 1 (py)     0.0000  0.0000  0.0000  2.0552  0.0000  0.0000  0.0000 -0.1557
   5.  S 1 (pz)    -0.0088  0.0398  0.0000  0.0000  2.0827 -0.0920  0.0000  0.0000
   6.  S 1 (s)      0.0955 -0.4888  0.0000  0.0000 -0.0920  1.1665  0.0000  0.0000
   7.  S 1 (px)     0.0000  0.0000 -0.1247  0.0000  0.0000  0.0000  0.4345  0.0000
   8.  S 1 (py)     0.0000  0.0000  0.0000 -0.1557  0.0000  0.0000  0.0000  0.5014
   9.  S 1 (pz)     0.0274 -0.1198  0.0000  0.0000 -0.2401  0.2608  0.0000  0.0000
  10.  S 1 (s)      0.0435 -0.1948  0.0000  0.0000 -0.1734  0.4139  0.0000  0.0000
  11.  S 1 (px)     0.0000  0.0000 -0.0638  0.0000  0.0000  0.0000  0.1404  0.0000
  12.  S 1 (py)     0.0000  0.0000  0.0000  0.0024  0.0000  0.0000  0.0000 -0.0225
  13.  S 1 (pz)     0.0129 -0.0572  0.0000  0.0000 -0.0609  0.1239  0.0000  0.0000
  14.  S 1 (d5)     0.0023 -0.0103  0.0000  0.0000 -0.0063  0.0209  0.0000  0.0000
  15.  S 1 (d2)     0.0000  0.0000  0.0171  0.0000  0.0000  0.0000 -0.0476  0.0000
  16.  S 1 (d3)     0.0000  0.0000  0.0000  0.0359  0.0000  0.0000  0.0000 -0.0981
  17.  S 1 (d4)     0.0033 -0.0097  0.0000  0.0000 -0.0336  0.0205  0.0000  0.0000
  18.  S 1 (d1)     0.0000  0.0000  0.0000  0.0000  0.0000  0.0000  0.0000  0.0000
  19.  O 2 (s)     -0.0002  0.0021  0.0000  0.0153 -0.0140  0.0186  0.0000 -0.0240
  20.  O 2 (s)     -0.0021  0.0017  0.0000 -0.0316  0.0280 -0.0529  0.0000  0.0470
  21.  O 2 (px)     0.0000  0.0000 -0.1132  0.0000  0.0000  0.0000  0.2948  0.0000
  22.  O 2 (py)    -0.0194  0.0848  0.0000  0.1058 -0.1129 -0.1961  0.0000 -0.2773
  23.  O 2 (pz)     0.0046 -0.0160  0.0000 -0.0930  0.0334  0.0470  0.0000  0.2353
  24.  O 2 (s)     -0.0095  0.0530  0.0000 -0.0076  0.0425 -0.1774  0.0000 -0.0271
  25.  O 2 (px)     0.0000  0.0000 -0.0801  0.0000  0.0000  0.0000  0.2076  0.0000
  26.  O 2 (py)    -0.0117  0.0407  0.0000  0.0596 -0.0760 -0.0877  0.0000 -0.1460
  27.  O 2 (pz)    -0.0018  0.0173  0.0000 -0.0554  0.0357 -0.0339  0.0000  0.1316
  28.  O 2 (d5)    -0.0009  0.0033  0.0000 -0.0010 -0.0049 -0.0070  0.0000  0.0016
  29.  O 2 (d2)     0.0000  0.0000 -0.0061  0.0000  0.0000  0.0000  0.0149  0.0000
  30.  O 2 (d3)    -0.0025  0.0069  0.0000  0.0078 -0.0035 -0.0146  0.0000 -0.0203
  31.  O 2 (d4)    -0.0023  0.0065  0.0000  0.0042 -0.0079 -0.0132  0.0000 -0.0119
  32.  O 2 (d1)     0.0000  0.0000  0.0108  0.0000  0.0000  0.0000 -0.0265  0.0000
  33.  O 3 (s)     -0.0002  0.0021  0.0000 -0.0153 -0.0140  0.0186  0.0000  0.0240
  34.  O 3 (s)     -0.0021  0.0017  0.0000  0.0316  0.0280 -0.0529  0.0000 -0.0470
  35.  O 3 (px)     0.0000  0.0000 -0.1132  0.0000  0.0000  0.0000  0.2948  0.0000
  36.  O 3 (py)     0.0194 -0.0848  0.0000  0.1058  0.1129  0.1961  0.0000 -0.2773
  37.  O 3 (pz)     0.0046 -0.0160  0.0000  0.0930  0.0334  0.0470  0.0000 -0.2353
  38.  O 3 (s)     -0.0095  0.0530  0.0000  0.0076  0.0425 -0.1774  0.0000  0.0271
  39.  O 3 (px)     0.0000  0.0000 -0.0801  0.0000  0.0000  0.0000  0.2076  0.0000
  40.  O 3 (py)     0.0117 -0.0407  0.0000  0.0596  0.0760  0.0877  0.0000 -0.1460
  41.  O 3 (pz)    -0.0018  0.0173  0.0000  0.0554  0.0357 -0.0339  0.0000 -0.1316
  42.  O 3 (d5)    -0.0009  0.0033  0.0000  0.0010 -0.0049 -0.0070  0.0000 -0.0016
  43.  O 3 (d2)     0.0000  0.0000 -0.0061  0.0000  0.0000  0.0000  0.0149  0.0000
  44.  O 3 (d3)     0.0025 -0.0069  0.0000  0.0078  0.0035  0.0146  0.0000 -0.0203
  45.  O 3 (d4)    -0.0023  0.0065  0.0000 -0.0042 -0.0079 -0.0132  0.0000  0.0119
  46.  O 3 (d1)     0.0000  0.0000 -0.0108  0.0000  0.0000  0.0000  0.0265  0.0000

           AO          9      10      11      12      13      14      15      16
      ------------ ------- ------- ------- ------- ------- ------- ------- -------
   1.  S 1 (s)      0.0274  0.0435  0.0000  0.0000  0.0129  0.0023  0.0000  0.0000
   2.  S 1 (s)     -0.1198 -0.1948  0.0000  0.0000 -0.0572 -0.0103  0.0000  0.0000
   3.  S 1 (px)     0.0000  0.0000 -0.0638  0.0000  0.0000  0.0000  0.0171  0.0000
   4.  S 1 (py)     0.0000  0.0000  0.0000  0.0024  0.0000  0.0000  0.0000  0.0359
   5.  S 1 (pz)    -0.2401 -0.1734  0.0000  0.0000 -0.0609 -0.0063  0.0000  0.0000
   6.  S 1 (s)      0.2608  0.4139  0.0000  0.0000  0.1239  0.0209  0.0000  0.0000
   7.  S 1 (px)     0.0000  0.0000  0.1404  0.0000  0.0000  0.0000 -0.0476  0.0000
   8.  S 1 (py)     0.0000  0.0000  0.0000 -0.0225  0.0000  0.0000  0.0000 -0.0981
   9.  S 1 (pz)     0.7408  0.4625  0.0000  0.0000  0.1448  0.0147  0.0000  0.0000
  10.  S 1 (s)      0.4625  0.4470  0.0000  0.0000  0.0967  0.0545  0.0000  0.0000
  11.  S 1 (px)     0.0000  0.0000  0.0456  0.0000  0.0000  0.0000 -0.0154  0.0000
  12.  S 1 (py)     0.0000  0.0000  0.0000  0.0230  0.0000  0.0000  0.0000  0.0252
  13.  S 1 (pz)     0.1448  0.0967  0.0000  0.0000  0.0358 -0.0005  0.0000  0.0000
  14.  S 1 (d5)     0.0147  0.0545  0.0000  0.0000 -0.0005  0.0180  0.0000  0.0000
  15.  S 1 (d2)     0.0000  0.0000 -0.0154  0.0000  0.0000  0.0000  0.0052  0.0000
  16.  S 1 (d3)     0.0000  0.0000  0.0000  0.0252  0.0000  0.0000  0.0000  0.0390
  17.  S 1 (d4)     0.0907  0.0959  0.0000  0.0000  0.0116  0.0191  0.0000  0.0000
  18.  S 1 (d1)     0.0000  0.0000  0.0000  0.0000  0.0000  0.0000  0.0000  0.0000
  19.  O 2 (s)      0.0273  0.0385  0.0000  0.0130 -0.0063  0.0053  0.0000  0.0149
  20.  O 2 (s)     -0.0541 -0.0666  0.0000 -0.0199  0.0080 -0.0103  0.0000 -0.0305
  21.  O 2 (px)     0.0000  0.0000  0.0956  0.0000  0.0000  0.0000 -0.0323  0.0000
  22.  O 2 (py)     0.2952  0.0712  0.0000  0.0706  0.0461 -0.0163  0.0000  0.1074
  23.  O 2 (pz)    -0.0995 -0.2321  0.0000  0.0620  0.0026 -0.0806  0.0000  0.0225
  24.  O 2 (s)     -0.0861 -0.1414  0.0000 -0.0267 -0.0011 -0.0242  0.0000 -0.0258
  25.  O 2 (px)     0.0000  0.0000  0.0673  0.0000  0.0000  0.0000 -0.0228  0.0000
  26.  O 2 (py)     0.1905  0.0538  0.0000  0.0504  0.0323 -0.0105  0.0000  0.0688
  27.  O 2 (pz)    -0.1021 -0.2082  0.0000  0.0479 -0.0069 -0.0631  0.0000  0.0249
  28.  O 2 (d5)     0.0110 -0.0045  0.0000  0.0053  0.0023 -0.0037  0.0000  0.0047
  29.  O 2 (d2)     0.0000  0.0000  0.0048  0.0000  0.0000  0.0000 -0.0016  0.0000
  30.  O 2 (d3)     0.0114  0.0114  0.0000 -0.0018  0.0000  0.0036  0.0000  0.0014
  31.  O 2 (d4)     0.0201  0.0044  0.0000  0.0036  0.0029 -0.0014  0.0000  0.0052
  32.  O 2 (d1)     0.0000  0.0000 -0.0086  0.0000  0.0000  0.0000  0.0029  0.0000
  33.  O 3 (s)      0.0273  0.0385  0.0000 -0.0130 -0.0063  0.0053  0.0000 -0.0149
  34.  O 3 (s)     -0.0541 -0.0666  0.0000  0.0199  0.0080 -0.0103  0.0000  0.0305
  35.  O 3 (px)     0.0000  0.0000  0.0956  0.0000  0.0000  0.0000 -0.0323  0.0000
  36.  O 3 (py)    -0.2952 -0.0712  0.0000  0.0706 -0.0461  0.0163  0.0000  0.1074
  37.  O 3 (pz)    -0.0995 -0.2321  0.0000 -0.0620  0.0026 -0.0806  0.0000 -0.0225
  38.  O 3 (s)     -0.0861 -0.1414  0.0000  0.0267 -0.0011 -0.0242  0.0000  0.0258
  39.  O 3 (px)     0.0000  0.0000  0.0673  0.0000  0.0000  0.0000 -0.0228  0.0000
  40.  O 3 (py)    -0.1905 -0.0538  0.0000  0.0504 -0.0323  0.0105  0.0000  0.0688
  41.  O 3 (pz)    -0.1021 -0.2082  0.0000 -0.0479 -0.0069 -0.0631  0.0000 -0.0249
  42.  O 3 (d5)     0.0110 -0.0045  0.0000 -0.0053  0.0023 -0.0037  0.0000 -0.0047
  43.  O 3 (d2)     0.0000  0.0000  0.0048  0.0000  0.0000  0.0000 -0.0016  0.0000
  44.  O 3 (d3)    -0.0114 -0.0114  0.0000 -0.0018  0.0000 -0.0036  0.0000  0.0014
  45.  O 3 (d4)     0.0201  0.0044  0.0000 -0.0036  0.0029 -0.0014  0.0000 -0.0052
  46.  O 3 (d1)     0.0000  0.0000  0.0086  0.0000  0.0000  0.0000 -0.0029  0.0000

           AO         17      18      19      20      21      22      23      24
      ------------ ------- ------- ------- ------- ------- ------- ------- -------
   1.  S 1 (s)      0.0033  0.0000 -0.0002 -0.0021  0.0000 -0.0194  0.0046 -0.0095
   2.  S 1 (s)     -0.0097  0.0000  0.0021  0.0017  0.0000  0.0848 -0.0160  0.0530
   3.  S 1 (px)     0.0000  0.0000  0.0000  0.0000 -0.1132  0.0000  0.0000  0.0000
   4.  S 1 (py)     0.0000  0.0000  0.0153 -0.0316  0.0000  0.1058 -0.0930 -0.0076
   5.  S 1 (pz)    -0.0336  0.0000 -0.0140  0.0280  0.0000 -0.1129  0.0334  0.0425
   6.  S 1 (s)      0.0205  0.0000  0.0186 -0.0529  0.0000 -0.1961  0.0470 -0.1774
   7.  S 1 (px)     0.0000  0.0000  0.0000  0.0000  0.2948  0.0000  0.0000  0.0000
   8.  S 1 (py)     0.0000  0.0000 -0.0240  0.0470  0.0000 -0.2773  0.2353 -0.0271
   9.  S 1 (pz)     0.0907  0.0000  0.0273 -0.0541  0.0000  0.2952 -0.0995 -0.0861
  10.  S 1 (s)      0.0959  0.0000  0.0385 -0.0666  0.0000  0.0712 -0.2321 -0.1414
  11.  S 1 (px)     0.0000  0.0000  0.0000  0.0000  0.0956  0.0000  0.0000  0.0000
  12.  S 1 (py)     0.0000  0.0000  0.0130 -0.0199  0.0000  0.0706  0.0620 -0.0267
  13.  S 1 (pz)     0.0116  0.0000 -0.0063  0.0080  0.0000  0.0461  0.0026 -0.0011
  14.  S 1 (d5)     0.0191  0.0000  0.0053 -0.0103  0.0000 -0.0163 -0.0806 -0.0242
  15.  S 1 (d2)     0.0000  0.0000  0.0000  0.0000 -0.0323  0.0000  0.0000  0.0000
  16.  S 1 (d3)     0.0000  0.0000  0.0149 -0.0305  0.0000  0.1074  0.0225 -0.0258
  17.  S 1 (d4)     0.0294  0.0000  0.0130 -0.0274  0.0000  0.0189 -0.0904 -0.0430
  18.  S 1 (d1)     0.0000  0.0321  0.0000  0.0000  0.1080  0.0000  0.0000  0.0000
  19.  O 2 (s)      0.0130  0.0000  2.0890 -0.1937  0.0000 -0.0358  0.0168 -0.2787
  20.  O 2 (s)     -0.0274  0.0000 -0.1937  0.5366  0.0000  0.0915 -0.0440  0.5901
  21.  O 2 (px)     0.0000  0.1080  0.0000  0.0000  0.5639  0.0000  0.0000  0.0000
  22.  O 2 (py)     0.0189  0.0000 -0.0358  0.0915  0.0000  0.5900  0.0691  0.1496
  23.  O 2 (pz)    -0.0904  0.0000  0.0168 -0.0440  0.0000  0.0691  0.7448 -0.0682
  24.  O 2 (s)     -0.0430  0.0000 -0.2787  0.5901  0.0000  0.1496 -0.0682  0.6857
  25.  O 2 (px)     0.0000  0.0918  0.0000  0.0000  0.4499  0.0000  0.0000  0.0000
  26.  O 2 (py)     0.0114  0.0000 -0.0159  0.0569  0.0000  0.3704  0.0875  0.0827
  27.  O 2 (pz)    -0.0719  0.0000  0.0054 -0.0232  0.0000  0.0854  0.5399 -0.0254
  28.  O 2 (d5)    -0.0022  0.0000  0.0004  0.0002  0.0000  0.0260  0.0333  0.0009
  29.  O 2 (d2)     0.0000  0.0050  0.0000  0.0000  0.0269  0.0000  0.0000  0.0000
  30.  O 2 (d3)     0.0052  0.0000  0.0024 -0.0032  0.0000  0.0096 -0.0379  0.0000
  31.  O 2 (d4)     0.0013  0.0000  0.0019 -0.0026  0.0000  0.0307  0.0073  0.0000
  32.  O 2 (d1)     0.0000 -0.0080  0.0000  0.0000 -0.0448  0.0000  0.0000  0.0000
  33.  O 3 (s)      0.0130  0.0000  0.0009 -0.0013  0.0000 -0.0080 -0.0148 -0.0117
  34.  O 3 (s)     -0.0274  0.0000 -0.0013  0.0036  0.0000  0.0167  0.0261  0.0222
  35.  O 3 (px)     0.0000 -0.1080  0.0000  0.0000 -0.1630  0.0000  0.0000  0.0000
  36.  O 3 (py)    -0.0189  0.0000  0.0080 -0.0167  0.0000  0.1255  0.0562 -0.0308
  37.  O 3 (pz)    -0.0904  0.0000 -0.0148  0.0261  0.0000 -0.0562  0.0448  0.1374
  38.  O 3 (s)     -0.0430  0.0000 -0.0117  0.0222  0.0000  0.0308  0.1374  0.0477
  39.  O 3 (px)     0.0000 -0.0918  0.0000  0.0000 -0.1676  0.0000  0.0000  0.0000
  40.  O 3 (py)    -0.0114  0.0000  0.0007 -0.0033  0.0000  0.0927  0.0663 -0.0157
  41.  O 3 (pz)    -0.0719  0.0000 -0.0123  0.0240  0.0000 -0.0606  0.0612  0.1086
  42.  O 3 (d5)    -0.0022  0.0000 -0.0004  0.0014  0.0000 -0.0039 -0.0037  0.0069
  43.  O 3 (d2)     0.0000 -0.0050  0.0000  0.0000 -0.0066  0.0000  0.0000  0.0000
  44.  O 3 (d3)    -0.0052  0.0000 -0.0010  0.0018  0.0000 -0.0024  0.0009  0.0069
  45.  O 3 (d4)     0.0013  0.0000  0.0002  0.0001  0.0000 -0.0008 -0.0019  0.0017
  46.  O 3 (d1)     0.0000 -0.0080  0.0000  0.0000 -0.0088  0.0000  0.0000  0.0000

           AO         25      26      27      28      29      30      31      32
      ------------ ------- ------- ------- ------- ------- ------- ------- -------
   1.  S 1 (s)      0.0000 -0.0117 -0.0018 -0.0009  0.0000 -0.0025 -0.0023  0.0000
   2.  S 1 (s)      0.0000  0.0407  0.0173  0.0033  0.0000  0.0069  0.0065  0.0000
   3.  S 1 (px)    -0.0801  0.0000  0.0000  0.0000 -0.0061  0.0000  0.0000  0.0108
   4.  S 1 (py)     0.0000  0.0596 -0.0554 -0.0010  0.0000  0.0078  0.0042  0.0000
   5.  S 1 (pz)     0.0000 -0.0760  0.0357 -0.0049  0.0000 -0.0035 -0.0079  0.0000
   6.  S 1 (s)      0.0000 -0.0877 -0.0339 -0.0070  0.0000 -0.0146 -0.0132  0.0000
   7.  S 1 (px)     0.2076  0.0000  0.0000  0.0000  0.0149  0.0000  0.0000 -0.0265
   8.  S 1 (py)     0.0000 -0.1460  0.1316  0.0016  0.0000 -0.0203 -0.0119  0.0000
   9.  S 1 (pz)     0.0000  0.1905 -0.1021  0.0110  0.0000  0.0114  0.0201  0.0000
  10.  S 1 (s)      0.0000  0.0538 -0.2082 -0.0045  0.0000  0.0114  0.0044  0.0000
  11.  S 1 (px)     0.0673  0.0000  0.0000  0.0000  0.0048  0.0000  0.0000 -0.0086
  12.  S 1 (py)     0.0000  0.0504  0.0479  0.0053  0.0000 -0.0018  0.0036  0.0000
  13.  S 1 (pz)     0.0000  0.0323 -0.0069  0.0023  0.0000  0.0000  0.0029  0.0000
  14.  S 1 (d5)     0.0000 -0.0105 -0.0631 -0.0037  0.0000  0.0036 -0.0014  0.0000
  15.  S 1 (d2)    -0.0228  0.0000  0.0000  0.0000 -0.0016  0.0000  0.0000  0.0029
  16.  S 1 (d3)     0.0000  0.0688  0.0249  0.0047  0.0000  0.0014  0.0052  0.0000
  17.  S 1 (d4)     0.0000  0.0114 -0.0719 -0.0022  0.0000  0.0052  0.0013  0.0000
  18.  S 1 (d1)     0.0918  0.0000  0.0000  0.0000  0.0050  0.0000  0.0000 -0.0080
  19.  O 2 (s)      0.0000 -0.0159  0.0054  0.0004  0.0000  0.0024  0.0019  0.0000
  20.  O 2 (s)      0.0000  0.0569 -0.0232  0.0002  0.0000 -0.0032 -0.0026  0.0000
  21.  O 2 (px)     0.4499  0.0000  0.0000  0.0000  0.0269  0.0000  0.0000 -0.0448
  22.  O 2 (py)     0.0000  0.3704  0.0854  0.0260  0.0000  0.0096  0.0307  0.0000
  23.  O 2 (pz)     0.0000  0.0875  0.5399  0.0333  0.0000 -0.0379  0.0073  0.0000
  24.  O 2 (s)      0.0000  0.0827 -0.0254  0.0009  0.0000  0.0000  0.0000  0.0000
  25.  O 2 (px)     0.3617  0.0000  0.0000  0.0000  0.0214  0.0000  0.0000 -0.0355
  26.  O 2 (py)     0.0000  0.2380  0.0821  0.0182  0.0000  0.0032  0.0193  0.0000
  27.  O 2 (pz)     0.0000  0.0821  0.3994  0.0253  0.0000 -0.0262  0.0070  0.0000
  28.  O 2 (d5)     0.0000  0.0182  0.0253  0.0024  0.0000 -0.0012  0.0016  0.0000
  29.  O 2 (d2)     0.0214  0.0000  0.0000  0.0000  0.0013  0.0000  0.0000 -0.0022
  30.  O 2 (d3)     0.0000  0.0032 -0.0262 -0.0012  0.0000  0.0024  0.0005  0.0000
  31.  O 2 (d4)     0.0000  0.0193  0.0070  0.0016  0.0000  0.0005  0.0018  0.0000
  32.  O 2 (d1)    -0.0355  0.0000  0.0000  0.0000 -0.0022  0.0000  0.0000  0.0036
  33.  O 3 (s)      0.0000 -0.0007 -0.0123 -0.0004  0.0000  0.0010  0.0002  0.0000
  34.  O 3 (s)      0.0000  0.0033  0.0240  0.0014  0.0000 -0.0018  0.0001  0.0000
  35.  O 3 (px)    -0.1676  0.0000  0.0000  0.0000 -0.0066  0.0000  0.0000  0.0088
  36.  O 3 (py)     0.0000  0.0927  0.0606  0.0039  0.0000 -0.0024  0.0008  0.0000
  37.  O 3 (pz)     0.0000 -0.0663  0.0612 -0.0037  0.0000 -0.0009 -0.0019  0.0000
  38.  O 3 (s)      0.0000  0.0157  0.1086  0.0069  0.0000 -0.0069  0.0017  0.0000
  39.  O 3 (px)    -0.1629  0.0000  0.0000  0.0000 -0.0071  0.0000  0.0000  0.0101
  40.  O 3 (py)     0.0000  0.0700  0.0608  0.0045  0.0000 -0.0029  0.0013  0.0000
[...]
                                         0.0000  0.1385 -0.0006  0.0000  0.0000
                                        -0.4874  0.0015  0.8602 -0.0016  0.0000
                                         0.0000  0.0298  0.0224  0.0440
  13. (1.58683) LP ( 3) O  3            s(  0.00%)p 1.00( 99.54%)d 0.00(  0.46%)
                                         0.0000  0.0000  0.0000  0.9976 -0.0169
                                         0.0000  0.0000  0.0000  0.0000  0.0580
                                         0.0352  0.0000  0.0000  0.0000
  14. (1.99924) BD ( 1) S  1- O  2
               ( 25.19%)   0.5019* S  1 s(  0.00%)p 1.00( 96.94%)d 0.03(  3.06%)
                                         0.0000  0.0000  0.0000  0.0000  0.0000
                                         0.9836  0.0433  0.0000  0.0000  0.0000
                                         0.0000  0.0000  0.0000  0.1553 -0.0808
                                         0.0000  0.0000  0.0000
               ( 74.81%)   0.8649* O  2 s(  0.00%)p 1.00( 99.54%)d 0.00(  0.46%)
                                         0.0000  0.0000  0.0000  0.9976 -0.0116
                                         0.0000  0.0000  0.0000  0.0000 -0.0583
                                         0.0346  0.0000  0.0000  0.0000
  15. (1.99419) BD ( 2) S  1- O  2
               ( 30.17%)   0.5493* S  1 s( 17.33%)p 4.61( 79.92%)d 0.16(  2.75%)
                                         0.0000  0.0000  0.3888 -0.1489  0.0000
                                         0.0000  0.0000  0.0000  0.6866 -0.0922
                                         0.0000 -0.5647  0.0199  0.0000  0.0000
                                        -0.1417 -0.0853 -0.0121
               ( 69.83%)   0.8356* O  2 s( 24.83%)p 3.00( 74.43%)d 0.03(  0.74%)
                                         0.0000  0.4982  0.0109  0.0000  0.0000
                                        -0.7824 -0.0123  0.3633  0.0040  0.0000
                                         0.0000 -0.0618 -0.0576 -0.0161
  16. (1.99419) BD ( 1) S  1- O  3
               ( 30.17%)   0.5493* S  1 s( 17.33%)p 4.61( 79.92%)d 0.16(  2.75%)
                                         0.0000  0.0000  0.3888 -0.1489  0.0000
                                         0.0000  0.0000  0.0000 -0.6866  0.0922
                                         0.0000 -0.5647  0.0199  0.0000  0.0000
                                         0.1417 -0.0853 -0.0121
               ( 69.83%)   0.8356* O  3 s( 24.83%)p 3.00( 74.43%)d 0.03(  0.74%)
                                         0.0000  0.4982  0.0109  0.0000  0.0000
                                         0.7824  0.0123  0.3633  0.0040  0.0000
                                         0.0000  0.0618 -0.0576 -0.0161
 ---------------- non-Lewis ----------------------------------------------------
  17. (0.36207) BD*( 1) S  1- O  2
               ( 74.81%)   0.8649* S  1 s(  0.00%)p 1.00( 96.94%)d 0.03(  3.06%)
                                         0.0000  0.0000  0.0000  0.0000  0.0000
                                         0.9836  0.0433  0.0000  0.0000  0.0000
                                         0.0000  0.0000  0.0000  0.1553 -0.0808
                                         0.0000  0.0000  0.0000
               ( 25.19%)  -0.5019* O  2 s(  0.00%)p 1.00( 99.54%)d 0.00(  0.46%)
                                         0.0000  0.0000  0.0000  0.9976 -0.0116
                                         0.0000  0.0000  0.0000  0.0000 -0.0583
                                         0.0346  0.0000  0.0000  0.0000
  18. (0.07130) BD*( 2) S  1- O  2
               ( 69.83%)   0.8356* S  1 s( 17.33%)p 4.61( 79.92%)d 0.16(  2.75%)
                                         0.0000  0.0000  0.3888 -0.1489  0.0000
                                         0.0000  0.0000  0.0000  0.6866 -0.0922
                                         0.0000 -0.5647  0.0199  0.0000  0.0000
                                        -0.1417 -0.0853 -0.0121
               ( 30.17%)  -0.5493* O  2 s( 24.83%)p 3.00( 74.43%)d 0.03(  0.74%)
                                         0.0000  0.4982  0.0109  0.0000  0.0000
                                        -0.7824 -0.0123  0.3633  0.0040  0.0000
                                         0.0000 -0.0618 -0.0576 -0.0161
  19. (0.07130) BD*( 1) S  1- O  3
               ( 69.83%)   0.8356* S  1 s( 17.33%)p 4.61( 79.92%)d 0.16(  2.75%)
                                         0.0000  0.0000  0.3888 -0.1489  0.0000
                                         0.0000  0.0000  0.0000 -0.6866  0.0922
                                         0.0000 -0.5647  0.0199  0.0000  0.0000
                                         0.1417 -0.0853 -0.0121
               ( 30.17%)  -0.5493* O  3 s( 24.83%)p 3.00( 74.43%)d 0.03(  0.74%)
                                         0.0000  0.4982  0.0109  0.0000  0.0000
                                         0.7824  0.0123  0.3633  0.0040  0.0000
                                         0.0000  0.0618 -0.0576 -0.0161
  20. (0.05217) RY ( 1) S  1            s( 31.40%)p 0.14(  4.39%)d 2.05( 64.21%)
                                         0.0000  0.0000  0.0581  0.5573  0.0000
                                         0.0000  0.0000  0.0000  0.0000  0.0000
                                         0.0000 -0.2066  0.0343  0.0000  0.0000
                                         0.0000  0.5909  0.5412
  21. (0.05030) RY ( 2) S  1            s(  0.00%)p 1.00(  2.39%)d40.76( 97.61%)
                                         0.0000  0.0000  0.0000  0.0000  0.0000
                                        -0.1546 -0.0068  0.0000  0.0000  0.0000
                                         0.0000  0.0000  0.0000  0.9879  0.0127
                                         0.0000  0.0000  0.0000
  22. (0.02921) RY ( 3) S  1            s(  0.00%)p 1.00( 27.42%)d 2.65( 72.58%)
                                         0.0000  0.0000  0.0000  0.0000  0.0000
                                         0.0000  0.0000  0.0000  0.2385  0.4662
                                         0.0000  0.0000  0.0000  0.0000  0.0000
                                         0.8519  0.0000  0.0000
  23. (0.00121) RY ( 4) S  1            s( 60.90%)p 0.13(  7.82%)d 0.51( 31.28%)
                                         0.0000  0.0000  0.0683  0.7774  0.0000
                                         0.0000  0.0000  0.0000  0.0000  0.0000
                                         0.0000 -0.0964 -0.2626  0.0000  0.0000
                                         0.0000 -0.4152 -0.3746
  24. (0.00115) RY ( 5) S  1            s(  0.00%)p 1.00( 76.59%)d 0.31( 23.41%)
                                         0.0000  0.0000  0.0000  0.0000  0.0000
                                         0.0000  0.0000  0.0000  0.0176  0.8750
                                         0.0000  0.0000  0.0000  0.0000  0.0000
                                        -0.4838  0.0000  0.0000
  25. (0.00000) RY ( 6) S  1            s(  0.00%)p 1.00( 18.11%)d 4.52( 81.89%)
  26. (0.00000) RY ( 7) S  1            s(  1.59%)p19.08( 30.30%)d42.89( 68.11%)
  27. (0.00000) RY ( 8) S  1            s(  2.41%)p26.14( 62.99%)d14.36( 34.60%)
  28. (0.00000) RY ( 9) S  1            s(  0.00%)p 1.00( 82.56%)d 0.21( 17.44%)
  29. (0.00198) RY ( 1) O  2            s( 29.12%)p 2.38( 69.22%)d 0.06(  1.66%)
                                         0.0000  0.0035  0.5396  0.0000  0.0000
                                         0.0016  0.3431  0.0067  0.7580  0.0000
                                         0.0000  0.0980  0.0466 -0.0694
  30. (0.00080) RY ( 2) O  2            s(  0.00%)p 1.00( 98.52%)d 0.02(  1.48%)
                                         0.0000  0.0000  0.0000  0.0125  0.9925
                                         0.0000  0.0000  0.0000  0.0000 -0.0490
                                        -0.1115  0.0000  0.0000  0.0000
  31. (0.00043) RY ( 3) O  2            s( 59.47%)p 0.59( 34.85%)d 0.10(  5.68%)
                                         0.0000  0.0028  0.7712  0.0000  0.0000
                                         0.0032 -0.4566  0.0063 -0.3741  0.0000
                                         0.0000  0.2373 -0.0117 -0.0190
  32. (0.00008) RY ( 4) O  2            s(  2.65%)p 0.30(  0.79%)d36.49( 96.57%)
  33. (0.00001) RY ( 5) O  2            s(  4.29%)p14.29( 61.25%)d 8.04( 34.47%)
  34. (0.00000) RY ( 6) O  2            s(  0.01%)p99.99( 30.16%)d99.99( 69.83%)
  35. (0.00000) RY ( 7) O  2            s(  0.00%)p 1.00(  1.48%)d66.56( 98.52%)
  36. (0.00000) RY ( 8) O  2            s(  4.52%)p 1.06(  4.79%)d20.04( 90.68%)
  37. (0.00000) RY ( 9) O  2            s(  0.00%)p 1.00(  0.46%)d99.99( 99.54%)
  38. (0.00198) RY ( 1) O  3            s( 29.12%)p 2.38( 69.22%)d 0.06(  1.66%)
                                         0.0000  0.0035  0.5396  0.0000  0.0000
                                        -0.0016 -0.3431  0.0067  0.7580  0.0000
                                         0.0000 -0.0980  0.0466 -0.0694
  39. (0.00076) RY ( 2) O  3            s(  0.00%)p 1.00( 98.52%)d 0.02(  1.48%)
                                         0.0000  0.0000  0.0000  0.0179  0.9924
                                         0.0000  0.0000  0.0000  0.0000  0.0493
                                        -0.1113  0.0000  0.0000  0.0000
  40. (0.00043) RY ( 3) O  3            s( 59.47%)p 0.59( 34.85%)d 0.10(  5.68%)
                                         0.0000  0.0028  0.7712  0.0000  0.0000
                                        -0.0032  0.4566  0.0063 -0.3741  0.0000
                                         0.0000 -0.2373 -0.0117 -0.0190
  41. (0.00008) RY ( 4) O  3            s(  2.65%)p 0.30(  0.79%)d36.49( 96.57%)
  42. (0.00001) RY ( 5) O  3            s(  4.29%)p14.29( 61.25%)d 8.04( 34.47%)
  43. (0.00000) RY ( 6) O  3            s(  0.01%)p99.99( 30.16%)d99.99( 69.83%)
  44. (0.00000) RY ( 7) O  3            s(  0.00%)p 1.00(  1.48%)d66.56( 98.52%)
  45. (0.00000) RY ( 8) O  3            s(  4.52%)p 1.06(  4.79%)d20.04( 90.68%)
  46. (0.00000) RY ( 9) O  3            s(  0.00%)p 1.00(  0.46%)d99.99( 99.54%)


 NHO DIRECTIONALITY AND BOND BENDING (deviation from line of nuclear centers at
                                      the position of maximum hybrid amplitude)

         [Thresholds for printing:  angular deviation  >  1.0 degree]
                                    p- or d-character  > 25.0%
                                    orbital occupancy  >  0.10e

                        Line of Centers        Hybrid 1             Hybrid 2
                        ---------------  -------------------  ------------------
           NBO            Theta   Phi    Theta   Phi    Dev   Theta   Phi    Dev
 ===============================================================================
   8. LP ( 1) S  1          --     --      0.0    0.0   --      --     --    --
   9. LP ( 1) O  2          --     --    134.0   90.0   --      --     --    --
  10. LP ( 2) O  2          --     --     27.6   90.0   --      --     --    --
  11. LP ( 1) O  3          --     --    134.0  270.0   --      --     --    --
  12. LP ( 2) O  3          --     --     27.6  270.0   --      --     --    --
  13. LP ( 3) O  3          --     --     89.5  179.2   --      --     --    --
  14. BD ( 1) S  1- O  2  120.1   90.0    98.0  161.9  70.4    89.5  180.8  89.0
  15. BD ( 2) S  1- O  2  120.1   90.0   127.6   90.0   7.5    64.5  270.0   4.6
  16. BD ( 1) S  1- O  3  120.1  270.0   127.6  270.0   7.5    64.5   90.0   4.6


 3-Center, 4-Electron A:-B-:C Hyperbonds (A-B :C <=> A: B-C)
              [threshold for detection: 33.3%]

                                                  NBOs       3-center hybrids
                                              -------------  ----------------
       Hyperbond A:-B-:C   %A-B/%B-C   occ    BD(A-B) LP(C)  h(A)  h(B)  h(C)
      -------------------  ---------  ------  ------- -----  ----  ----  ----
   1.  O  2:- S  1-: O  3  53.1/46.9  3.9481      14     13    14    15    13


 SECOND ORDER PERTURBATION THEORY ANALYSIS OF FOCK MATRIX IN NBO BASIS

     Threshold for printing:   0.50 kcal/mol
                                                          E(2) E(NL)-E(L) F(L,NL)
      Donor (L) NBO              Acceptor (NL) NBO      kcal/mol   a.u.    a.u.
 ===============================================================================

 within unit  1
    8. LP ( 1) S  1            29. RY ( 1) O  2            1.35    2.32   0.050
    8. LP ( 1) S  1            38. RY ( 1) O  3            1.35    2.32   0.050
    9. LP ( 1) O  2            20. RY ( 1) S  1            0.68    1.83   0.031
   10. LP ( 2) O  2            19. BD*( 1) S  1- O  3     28.41    1.05   0.154
   10. LP ( 2) O  2            20. RY ( 1) S  1           16.34    1.37   0.134
   10. LP ( 2) O  2            22. RY ( 3) S  1            3.52    1.54   0.066
   10. LP ( 2) O  2            23. RY ( 4) S  1            1.91    1.25   0.044
   10. LP ( 2) O  2            24. RY ( 5) S  1            0.79    1.25   0.028
   10. LP ( 2) O  2            34. RY ( 6) O  2            0.71    2.44   0.037
   11. LP ( 1) O  3            20. RY ( 1) S  1            0.68    1.83   0.031
   12. LP ( 2) O  3            18. BD*( 2) S  1- O  2     28.41    1.05   0.154
   12. LP ( 2) O  3            20. RY ( 1) S  1           16.34    1.37   0.134
   12. LP ( 2) O  3            22. RY ( 3) S  1            3.52    1.54   0.066
   12. LP ( 2) O  3            23. RY ( 4) S  1            1.91    1.25   0.044
   12. LP ( 2) O  3            24. RY ( 5) S  1            0.79    1.25   0.028
   12. LP ( 2) O  3            43. RY ( 6) O  3            0.71    2.44   0.037
   13. LP ( 3) O  3            17. BD*( 1) S  1- O  2    140.68    0.39   0.209
   13. LP ( 3) O  3            21. RY ( 2) S  1           26.12    1.45   0.173
   13. LP ( 3) O  3            25. RY ( 6) S  1            4.17    1.25   0.064
   13. LP ( 3) O  3            46. RY ( 9) O  3            1.70    2.60   0.059
   14. BD ( 1) S  1- O  2      17. BD*( 1) S  1- O  2      1.92    0.56   0.029
   14. BD ( 1) S  1- O  2      39. RY ( 2) O  3            0.87    1.84   0.036
   15. BD ( 2) S  1- O  2      19. BD*( 1) S  1- O  3      3.65    1.62   0.069
   15. BD ( 2) S  1- O  2      22. RY ( 3) S  1            0.64    2.11   0.033
   15. BD ( 2) S  1- O  2      38. RY ( 1) O  3            0.51    2.65   0.033
   16. BD ( 1) S  1- O  3      18. BD*( 2) S  1- O  2      3.65    1.62   0.069
   16. BD ( 1) S  1- O  3      22. RY ( 3) S  1            0.64    2.11   0.033
   16. BD ( 1) S  1- O  3      29. RY ( 1) O  2            0.51    2.65   0.033


 NATURAL BOND ORBITALS (Summary):

                                                     Principal Delocalizations
           NBO                 Occupancy    Energy   (geminal,vicinal,remote)
 ===============================================================================
 Molecular unit  1  (O2S)
 ------ Lewis --------------------------------------
    1. CR ( 1) S  1             2.00000   -75.61067
    2. CR ( 2) S  1             2.00000   -25.76228
    3. CR ( 3) S  1             2.00000    -6.86138
    4. CR ( 4) S  1             1.99999    -6.86149
    5. CR ( 5) S  1             2.00000    -6.85891
    6. CR ( 1) O  2             1.99999   -20.63337
    7. CR ( 1) O  3             1.99999   -20.63337
    8. LP ( 1) S  1             1.99773    -0.77043  29(v),38(v)
    9. LP ( 1) O  2             1.99698    -0.98741  20(v)
   10. LP ( 2) O  2             1.89431    -0.53213  19(v),20(v),22(v),23(v)
                                                     24(v),34(g)
   11. LP ( 1) O  3             1.99698    -0.98741  20(v)
   12. LP ( 2) O  3             1.89431    -0.53213  18(v),20(v),22(v),23(v)
                                                     24(v),43(g)
   13. LP ( 3) O  3             1.58683    -0.42593  17(v),21(v),25(v),46(g)
   14. BD ( 1) S  1- O  2       1.99924    -0.59123  17(g),39(v)
   15. BD ( 2) S  1- O  2       1.99419    -1.10153  19(g),22(g),38(v)
   16. BD ( 1) S  1- O  3       1.99419    -1.10153  18(g),22(g),29(v)
 ------ non-Lewis ----------------------------------
   17. BD*( 1) S  1- O  2       0.36207    -0.03508
   18. BD*( 2) S  1- O  2       0.07130     0.52206
   19. BD*( 1) S  1- O  3       0.07130     0.52206
   20. RY ( 1) S  1             0.05217     0.84268
   21. RY ( 2) S  1             0.05030     1.02014
   22. RY ( 3) S  1             0.02921     1.00983
   23. RY ( 4) S  1             0.00121     0.72056
   24. RY ( 5) S  1             0.00115     0.72181
   25. RY ( 6) S  1             0.00000     0.82340
   26. RY ( 7) S  1             0.00000     0.81255
   27. RY ( 8) S  1             0.00000     0.69974
   28. RY ( 9) S  1             0.00000     0.57949
   29. RY ( 1) O  2             0.00198     1.54598
   30. RY ( 2) O  2             0.00080     1.24717
   31. RY ( 3) O  2             0.00043     1.90586
   32. RY ( 4) O  2             0.00008     2.36041
   33. RY ( 5) O  2             0.00001     1.51639
   34. RY ( 6) O  2             0.00000     1.90387
   35. RY ( 7) O  2             0.00000     2.03382
   36. RY ( 8) O  2             0.00000     2.02965
   37. RY ( 9) O  2             0.00000     2.17799
   38. RY ( 1) O  3             0.00198     1.54598
   39. RY ( 2) O  3             0.00076     1.24729
   40. RY ( 3) O  3             0.00043     1.90586
   41. RY ( 4) O  3             0.00008     2.36041
   42. RY ( 5) O  3             0.00001     1.51639
   43. RY ( 6) O  3             0.00000     1.90387
   44. RY ( 7) O  3             0.00000     2.03382
   45. RY ( 8) O  3             0.00000     2.02965
   46. RY ( 9) O  3             0.00000     2.17799
          -------------------------------
                 Total Lewis   31.35473  ( 97.9835%)
           Valence non-Lewis    0.50467  (  1.5771%)
           Rydberg non-Lewis    0.14060  (  0.4394%)
          -------------------------------
               Total unit  1   32.00000  (100.0000%)
              Charge unit  1    0.00000

 $CHOOSE
   LONE 1 1 2 2 3 3 END
   BOND D 1 2 S 1 3 END
 $END

 NBO analysis completed in 0.73 CPU seconds (1 wall second)
 Maximum scratch memory used by NBO was 370704 words (2.83 MB)
 Maximum scratch memory used by G16NBO was 11585 words (0.09 MB)

 Opening RunExU unformatted file "/cluster/work/users/beto93/mol54/Gau-1371883.EUF"
 Read unf file /cluster/work/users/beto93/mol54/Gau-1371883.EUF:
 Label Gaussian matrix elements                                         IVers= 2 NLab= 2 Version=ES64L-G16RevC.01
 Title mol54-NBO                                                       
 NAtoms=     3 NBasis=    46 NBsUse=    46 ICharg=     0 Multip=     1 NE=    32 Len12L=8 Len4L=8 IOpCl= 0 ICGU=111
 GAUSSIAN SCALARS                    NI= 1 NR= 1 NTot=       1 LenBuf=    2 NRI=1 N=    1000
 NPA CHARGES                         NI= 0 NR= 1 NTot=       3 LenBuf= 4000 NRI=1 N=       3
 Recovered energy= -547.155289560     dipole=     -0.000000000000      0.000000000007      0.927502688318
 Unable to Open any file for archive entry.
 1\1\GINC-C1-55\SP\RHF\6-31G(d)\O2S1\BETO93\18-Nov-2024\0\\#RHF/6-31G* 
 int=nobasistransform Symmetry=None 5D 7F Pop=NBO7Read\\mol54-NBO\\0,1\
 S,0,0.,0.,0.370268\O,0,0.,1.277617,-0.370268\O,0,0.,-1.277617,-0.37026
 8\\Version=ES64L-G16RevC.01\HF=-547.1552896\RMSD=4.150e-09\Dipole=0.,0
 .,0.9275027\Quadrupole=2.4883971,-3.3928314,0.9044343,0.,0.,0.\PG=Unkn
 own\\@
 The archive entry for this job was punched.


 NOTHING WILL BE ATTEMPTED IF ALL POSSIBLE OBJECTIONS
 MUST FIRST BE OVERCOME.

                               -- THE GOLDEN PRINCIPLE,
                    PAUL DICKSON'S "THE OFFICIAL RULES"
 Job cpu time:       0 days  0 hours  0 minutes  9.2 seconds.
 Elapsed time:       0 days  0 hours  0 minutes  3.0 seconds.
 File lengths (MBytes):  RWF=     10 Int=      0 D2E=      0 Chk=      1 Scr=      1
 Normal termination of Gaussian 16 at Mon Nov 18 16:40:07 2024.
