 Entering Gaussian System, Link 0=g16
 Initial command:
 /cluster/software/Gaussian/g16_C.01/l1.exe "/cluster/work/users/beto93/mol85/Gau-671333.inp" -scrdir="/cluster/work/users/beto93/mol85/"
 Entering Link 1 = /cluster/software/Gaussian/g16_C.01/l1.exe PID=    671334.
  
 Copyright (c) 1988-2019, Gaussian, Inc.  All Rights Reserved.
  
 This is part of the Gaussian(R) 16 program.  It is based on
 the Gaussian(R) 09 system (copyright 2009, Gaussian, Inc.),
 the Gaussian(R) 03 system (copyright 2003, Gaussian, Inc.),
 the Gaussian(R) 98 system (copyright 1998, Gaussian, Inc.),
 the Gaussian(R) 94 system (copyright 1995, Gaussian, Inc.),
 the Gaussian 92(TM) system (copyright 1992, Gaussian, Inc.),
 the Gaussian 90(TM) system (copyright 1990, Gaussian, Inc.),
 the Gaussian 88(TM) system (copyright 1988, Gaussian, Inc.),
 the Gaussian 86(TM) system (copyright 1986, Carnegie Mellon
 University), and the Gaussian 82(TM) system (copyright 1983,
 Carnegie Mellon University). Gaussian is a federally registered
 trademark of Gaussian, Inc.
  
 This software contains proprietary and confidential information,
 including trade secrets, belonging to Gaussian, Inc.
  
 This software is provided under written license and may be
 used, copied, transmitted, or stored only in accord with that
 written license.
  
 The following legend is applicable only to US Government
 contracts under FAR:
  
                    RESTRICTED RIGHTS LEGEND
  
 Use, reproduction and disclosure by the US Government is
 subject to restrictions as set forth in subparagraphs (a)
 and (c) of the Commercial Computer Software - Restricted
 Rights clause in FAR 52.227-19.
  
 Gaussian, Inc.
 340 Quinnipiac St., Bldg. 40, Wallingford CT 06492
  
  
 ---------------------------------------------------------------
 Warning -- This program may not be used in any manner that
 competes with the business of Gaussian, Inc. or will provide
 assistance to any competitor of Gaussian, Inc.  The licensee
 of this program is prohibited from giving any competitor of
 Gaussian, Inc. access to this program.  By using this program,
 the user acknowledges that Gaussian, Inc. is engaged in the
 business of creating and licensing software in the field of
 computational chemistry and represents and warrants to the
 licensee that it is not a competitor of Gaussian, Inc. and that
 it will not use this program in any manner prohibited above.
 ---------------------------------------------------------------
  

 Cite this work as:
 Gaussian 16, Revision C.01,
 M. J. Frisch, G. W. Trucks, H. B. Schlegel, G. E. Scuseria, 
 M. A. Robb, J. R. Cheeseman, G. Scalmani, V. Barone, 
 G. A. Petersson, H. Nakatsuji, X. Li, M. Caricato, A. V. Marenich, 
 J. Bloino, B. G. Janesko, R. Gomperts, B. Mennucci, H. P. Hratchian, 
 J. V. Ortiz, A. F. Izmaylov, J. L. Sonnenberg, D. Williams-Young, 
 F. Ding, F. Lipparini, F. Egidi, J. Goings, B. Peng, A. Petrone, 
 T. Henderson, D. Ranasinghe, V. G. Zakrzewski, J. Gao, N. Rega, 
 G. Zheng, W. Liang, M. Hada, M. Ehara, K. Toyota, R. Fukuda, 
 J. Hasegawa, M. Ishida, T. Nakajima, Y. Honda, O. Kitao, H. Nakai, 
 T. Vreven, K. Throssell, J. A. Montgomery, Jr., J. E. Peralta, 
 F. Ogliaro, M. J. Bearpark, J. J. Heyd, E. N. Brothers, K. N. Kudin, 
 V. N. Staroverov, T. A. Keith, R. Kobayashi, J. Normand, 
 K. Raghavachari, A. P. Rendell, J. C. Burant, S. S. Iyengar, 
 J. Tomasi, M. Cossi, J. M. Millam, M. Klene, C. Adamo, R. Cammi, 
 J. W. Ochterski, R. L. Martin, K. Morokuma, O. Farkas, 
 J. B. Foresman, and D. J. Fox, Gaussian, Inc., Wallingford CT, 2019.
 
 ******************************************
 Gaussian 16:  ES64L-G16RevC.01  3-Jul-2019
                18-Nov-2024 
 ******************************************
 %LindaWorkers=c1-40-ib
 %NProcShared=4
 Will use up to    4 processors via shared memory.
 %mem=25GB
 %chk=mol85.chk
 SetLPE:    new flags="-opt 'Tsnet.Node.lindarsharg: ssh'  -nodelist 'c1-40-ib.saga' -env GAUSS_MDEF=3355443200 -env GAUSS_EXEDIR="/cluster/software/Gaussian/g16_C.01/bsd:/cluster/software/Gaussian/g16_C.01""
 Will use up to    1 processors via Linda.
 -----------------------------------------------------------------
 #RHF/6-31G* int=nobasistransform Symmetry=None 5D 7F Pop=NBO7Read
 -----------------------------------------------------------------
 1/38=1,163=2,172=1/1;
 2/12=2,15=3,17=6,18=5,40=1/2;
 3/5=1,6=6,7=1,8=11,11=1,25=1,30=1,60=-1,116=1/1,2,3;
 4//1;
 5/5=2,38=5/2;
 6/7=2,8=2,9=2,10=2,28=1,40=2,113=1,114=1,124=2103/1,12;
 99/5=1,9=1/99;
 ---------
 mol85-NBO
 ---------
 Symbolic Z-matrix:
 Charge =  0 Multiplicity = 1
 C                     0.        1.13134   0.31042 
 C                     0.       -1.13134   0.31042 
 C                     0.74795   0.       -0.31181 
 C                    -0.74795   0.       -0.31181 
 H                     0.        1.23703   1.39762 
 H                     0.        2.07737  -0.22767 
 H                     0.       -1.23703   1.39762 
 H                     0.       -2.07737  -0.22767 
 H                     1.41441   0.       -1.16163 
 H                    -1.41441   0.       -1.16163 
 
                          Input orientation:                          
 ---------------------------------------------------------------------
 Center     Atomic      Atomic             Coordinates (Angstroms)
 Number     Number       Type             X           Y           Z
 ---------------------------------------------------------------------
      1          6           0        0.000000    1.131343    0.310424
      2          6           0        0.000000   -1.131343    0.310424
      3          6           0        0.747952    0.000000   -0.311812
      4          6           0       -0.747952    0.000000   -0.311812
      5          1           0        0.000000    1.237033    1.397617
      6          1           0        0.000000    2.077375   -0.227668
      7          1           0        0.000000   -1.237033    1.397617
      8          1           0        0.000000   -2.077375   -0.227668
      9          1           0        1.414410    0.000000   -1.161626
     10          1           0       -1.414410    0.000000   -1.161626
 ---------------------------------------------------------------------
                    Distance matrix (angstroms):
                    1          2          3          4          5
     1  C    0.000000
     2  C    2.262686   0.000000
     3  C    1.492162   1.492162   0.000000
     4  C    1.492162   1.492162   1.495904   0.000000
     5  H    1.092318   2.605992   2.238712   2.238712   0.000000
     6  H    1.088356   3.253523   2.209525   2.209525   1.829679
     7  H    2.605992   1.092318   2.238712   2.238712   2.474066
     8  H    3.253523   1.088356   2.209525   2.209525   3.691457
     9  H    2.333972   2.333972   1.079977   2.323358   3.174985
    10  H    2.333972   2.333972   2.323358   1.079977   3.174985
                    6          7          8          9         10
     6  H    0.000000
     7  H    3.691457   0.000000
     8  H    4.154750   1.829679   0.000000
     9  H    2.681104   3.174985   2.681104   0.000000
    10  H    2.681104   3.174985   2.681104   2.828820   0.000000
 Symmetry turned off by external request.
 Stoichiometry    C4H6
 Rotational constants (GHZ):          17.5074429           9.3746374           8.4285686
 Standard basis: 6-31G(d) (5D, 7F)
    68 basis functions,   136 primitive gaussians,    72 cartesian basis functions
    15 alpha electrons       15 beta electrons
       nuclear repulsion energy       116.5839423635 Hartrees.
 NAtoms=   10 NActive=   10 NUniq=   10 SFac= 1.00D+00 NAtFMM=   60 NAOKFM=F Big=F
 Integral buffers will be    131072 words long.
 Raffenetti 1 integral format.
 Two-electron integral symmetry is turned off.
 One-electron integrals computed using PRISM.
 NBasis=    68 RedAO= T EigKep=  4.00D-03  NBF=    68
 NBsUse=    68 1.00D-06 EigRej= -1.00D+00 NBFU=    68
 ExpMin= 1.61D-01 ExpMax= 3.05D+03 ExpMxC= 4.57D+02 IAcc=3 IRadAn=         5 AccDes= 0.00D+00
 Harris functional with IExCor=  205 and IRadAn=       5 diagonalized for initial guess.
 HarFok:  IExCor=  205 AccDes= 0.00D+00 IRadAn=         5 IDoV= 1 UseB2=F ITyADJ=14
 ICtDFT=  3500011 ScaDFX=  1.000000  1.000000  1.000000  1.000000
 FoFCou: FMM=F IPFlag=           0 FMFlag=      100000 FMFlg1=           0
         NFxFlg=           0 DoJE=T BraDBF=F KetDBF=T FulRan=T
         wScrn=  0.000000 ICntrl=       500 IOpCl=  0 I1Cent=   200000004 NGrid=           0
         NMat0=    1 NMatS0=      1 NMatT0=    0 NMatD0=    1 NMtDS0=    0 NMtDT0=    0
 Symmetry not used in FoFCou.
 Keep R1 ints in memory in canonical form, NReq=3610627.
 Requested convergence on RMS density matrix=1.00D-08 within 128 cycles.
 Requested convergence on MAX density matrix=1.00D-06.
 Requested convergence on             energy=1.00D-06.
 No special actions if energy rises.
 SCF Done:  E(RHF) =  -154.870290872     A.U. after   11 cycles
            NFock= 11  Conv=0.30D-08     -V/T= 2.0001

 **********************************************************************

            Population analysis using the SCF Density.

 **********************************************************************

 Alpha  occ. eigenvalues --  -11.23616 -11.23609 -11.23125 -11.23063  -1.21418
 Alpha  occ. eigenvalues --   -0.92730  -0.78300  -0.78146  -0.69041  -0.58591
 Alpha  occ. eigenvalues --   -0.57745  -0.51181  -0.45885  -0.43396  -0.34722
 Alpha virt. eigenvalues --    0.24852   0.26254   0.27817   0.29799   0.31043
 Alpha virt. eigenvalues --    0.34025   0.35208   0.37769   0.42145   0.42245
 Alpha virt. eigenvalues --    0.44070   0.69788   0.73094   0.73717   0.77833
 Alpha virt. eigenvalues --    0.84119   0.88482   0.90696   0.92941   0.93612
 Alpha virt. eigenvalues --    0.93889   0.96814   1.11387   1.11518   1.13661
 Alpha virt. eigenvalues --    1.15945   1.20242   1.20697   1.22442   1.40491
 Alpha virt. eigenvalues --    1.43903   1.47125   1.74828   1.85510   1.90704
 Alpha virt. eigenvalues --    1.98338   2.02188   2.14575   2.14711   2.27201
 Alpha virt. eigenvalues --    2.29979   2.36016   2.48952   2.54468   2.70195
 Alpha virt. eigenvalues --    2.71250   2.76324   2.81999   2.91343   2.97337
 Alpha virt. eigenvalues --    3.03770   3.13185   3.14092
          Condensed to atoms (all electrons):
               1          2          3          4          5          6
     1  C    5.132656  -0.065253   0.275809   0.275809   0.375898   0.399942
     2  C   -0.065253   5.132656   0.275809   0.275809  -0.013562   0.007897
     3  C    0.275809   0.275809   5.237376   0.151213  -0.028009  -0.029986
     4  C    0.275809   0.275809   0.151213   5.237376  -0.028009  -0.029986
     5  H    0.375898  -0.013562  -0.028009  -0.028009   0.543247  -0.028984
     6  H    0.399942   0.007897  -0.029986  -0.029986  -0.028984   0.503809
     7  H   -0.013562   0.375898  -0.028009  -0.028009   0.009347  -0.000163
     8  H    0.007897   0.399942  -0.029986  -0.029986  -0.000163  -0.000185
     9  H   -0.018960  -0.018960   0.390077  -0.015495   0.000318  -0.000550
    10  H   -0.018960  -0.018960  -0.015495   0.390077   0.000318  -0.000550
               7          8          9         10
     1  C   -0.013562   0.007897  -0.018960  -0.018960
     2  C    0.375898   0.399942  -0.018960  -0.018960
     3  C   -0.028009  -0.029986   0.390077  -0.015495
     4  C   -0.028009  -0.029986  -0.015495   0.390077
     5  H    0.009347  -0.000163   0.000318   0.000318
     6  H   -0.000163  -0.000185  -0.000550  -0.000550
     7  H    0.543247  -0.028984   0.000318   0.000318
     8  H   -0.028984   0.503809  -0.000550  -0.000550
     9  H    0.000318  -0.000550   0.465323  -0.003242
    10  H    0.000318  -0.000550  -0.003242   0.465323
 Mulliken charges:
               1
     1  C   -0.351276
     2  C   -0.351276
     3  C   -0.198798
     4  C   -0.198798
     5  H    0.169599
     6  H    0.178755
     7  H    0.169599
     8  H    0.178755
     9  H    0.201721
    10  H    0.201721
 Sum of Mulliken charges =   0.00000
 Mulliken charges with hydrogens summed into heavy atoms:
               1
     1  C   -0.002923
     2  C   -0.002923
     3  C    0.002923
     4  C    0.002923
 Electronic spatial extent (au):  <R**2>=            222.8158
 Charge=              0.0000 electrons
 Dipole moment (field-independent basis, Debye):
    X=             -0.0000    Y=              0.0000    Z=             -0.7951  Tot=              0.7951
 Quadrupole moment (field-independent basis, Debye-Ang):
   XX=            -26.8914   YY=            -24.0264   ZZ=            -24.0007
   XY=              0.0000   XZ=             -0.0000   YZ=              0.0000
 Traceless Quadrupole moment (field-independent basis, Debye-Ang):
   XX=             -1.9186   YY=              0.9464   ZZ=              0.9721
   XY=              0.0000   XZ=             -0.0000   YZ=              0.0000
 Octapole moment (field-independent basis, Debye-Ang**2):
  XXX=              0.0000  YYY=              0.0000  ZZZ=             -0.1159  XYY=             -0.0000
  XXY=             -0.0000  XXZ=             -3.7884  XZZ=             -0.0000  YZZ=              0.0000
  YYZ=             -1.1061  XYZ=             -0.0000
 Hexadecapole moment (field-independent basis, Debye-Ang**3):
 XXXX=            -80.7906 YYYY=           -147.6670 ZZZZ=            -63.2736 XXXY=              0.0000
 XXXZ=             -0.0000 YYYX=              0.0000 YYYZ=              0.0000 ZZZX=              0.0000
 ZZZY=              0.0000 XXYY=            -42.6357 XXZZ=            -21.3962 YYZZ=            -36.5603
 XXYZ=              0.0000 YYXZ=             -0.0000 ZZXY=              0.0000
 N-N= 1.165839423635D+02 E-N=-5.932778811273D+02  KE= 1.548607542188D+02
 Running external command "gaunbo7 R"
         input file       "/cluster/work/users/beto93/mol85/Gau-671334.EIn"
         output file      "/cluster/work/users/beto93/mol85/Gau-671334.EOu"
         message file     "/cluster/work/users/beto93/mol85/Gau-671334.EMs"
         fchk file        "/cluster/work/users/beto93/mol85/Gau-671334.EFC"
         mat. el file     "/cluster/work/users/beto93/mol85/Gau-671334.EUF"

 Writing WrtUnf unformatted file "/cluster/work/users/beto93/mol85/Gau-671334.EUF"
 Gaussian matrix elements                                         Version   2 NLab=11 Len12L=8 Len4L=8
 Write SHELL TO ATOM MAP                   from file      0 offset           0 length                  28 to matrix element file.
 Write SHELL TYPES                         from file      0 offset           0 length                  28 to matrix element file.
 Write NUMBER OF PRIMITIVES PER SHELL      from file      0 offset           0 length                  28 to matrix element file.
 Write PRIMITIVE EXPONENTS                 from file      0 offset           0 length                  68 to matrix element file.
 Write CONTRACTION COEFFICIENTS            from file      0 offset           0 length                  68 to matrix element file.
 Write P(S=P) CONTRACTION COEFFICIENTS     from file      0 offset           0 length                  68 to matrix element file.
 Write COORDINATES OF EACH SHELL           from file      0 offset           0 length                  84 to matrix element file.
 Write BONDS PER ATOM                      from file      0 offset           0 length                  10 to matrix element file.
 Write BONDED ATOMS                        from file      0 offset           0 length                  22 to matrix element file.
 Write BOND TYPES                          from file      0 offset           0 length                  22 to matrix element file.
 Write ONIOM CHARGE/MULT                   from file      0 offset           0 length                  32 to matrix element file.
 Write ONIOM ATOM LAYERS                   from file      0 offset           0 length                  10 to matrix element file.
 Write ONIOM ATOM MODIFIERS                from file      0 offset           0 length                  10 to matrix element file.
 Write ONIOM ATOM TYPES                    from file      0 offset           0 length                  10 to matrix element file.
 Write ONIOM LINK ATOMS                    from file      0 offset           0 length                  10 to matrix element file.
 Write ONIOM LINK CHARGES                  from file      0 offset           0 length                  10 to matrix element file.
 Write ONIOM LINK DISTANCES                from file      0 offset           0 length                  40 to matrix element file.
 Write SYMINF INTS                         from file      0 offset           0 length                  26 to matrix element file.
 Write ROTTR TO SO                         from file      0 offset           0 length                  12 to matrix element file.
 Write GAUSSIAN SCALARS                    from file    501 offset           0 to matrix element file.
 Write OPTIMIZATION FLAGS                  from file      0 offset           0 length                  10 to matrix element file.
 Write INTEGER ISO                         from file      0 offset           0 length                  10 to matrix element file.
 Write INTEGER SPIN                        from file      0 offset           0 length                  10 to matrix element file.
 Write REAL ZEFFECTIVE                     from file      0 offset           0 length                  10 to matrix element file.
 Write REAL GFACTOR                        from file      0 offset           0 length                  10 to matrix element file.
 Write REAL ZNUCLEAR                       from file      0 offset           0 length                  10 to matrix element file.
 Write MULLIKEN CHARGES                    from file      0 offset           0 length                  10 to matrix element file.
 Write NUCLEAR GRADIENT                    from file  10584 offset           0 length                  30 to matrix element file.
 Array NUCLEAR FORCE CONSTANTS              on  file  10585 does not exist.
 Write ELECTRIC DIPOLE MOMENT              from file      0 offset           0 length                   3 to matrix element file.
 Write NON-ADIABATIC COUPLING              from file  10810 offset           0 length                  30 to matrix element file.
 Write FINITE EM FIELD                     from file  10521 offset           0 length                  35 to matrix element file.
 Write OVERLAP                             from file  10514 offset           0 length                2346 to matrix element file.
 Write CORE HAMILTONIAN ALPHA              from file  10515 offset           0 length                2346 to matrix element file.
 Write CORE HAMILTONIAN BETA               from file  10515 offset        2346 length                2346 to matrix element file.
 Write KINETIC ENERGY                      from file  10516 offset           0 length                2346 to matrix element file.
 Write ORTHOGONAL BASIS                    from file  10685 offset           0 length                4624 to matrix element file.
 Write DIPOLE INTEGRALS                    from file  10518 offset           0 length                7038 to matrix element file.
 Array DIP VEL INTEGRALS                    on  file  10572 does not exist.
 Array R X DEL INTEGRALS                    on  file  10572 does not exist.
 Write ALPHA ORBITAL ENERGIES              from file      0 offset           0 length                  68 to matrix element file.
 Write ALPHA MO COEFFICIENTS               from file  10524 offset           0 length                4624 to matrix element file.
 Write ALPHA DENSITY MATRIX                from file      0 offset           0 length                2346 to matrix element file.
 Write ALPHA FOCK MATRIX                   from file  10536 offset           0 length                2346 to matrix element file.
 Write ENERGY-WEIGHTED DENSITY             from file  10571 offset           0 length                2346 to matrix element file.
 Write ALPHA SCF DENSITY MATRIX            from file      0 offset           0 length                2346 to matrix element file.
 No 2e integrals to process.
 Perform NBO analysis...executing G16NBO...

 *********************************** NBO 7.0 ***********************************
             N A T U R A L   A T O M I C   O R B I T A L   A N D
          N A T U R A L   B O N D   O R B I T A L   A N A L Y S I S
 **************************** Espen Tangen (S101595) ***************************
  (c) Copyright 1996-2021 Board of Regents of the University of Wisconsin System
      on behalf of the Theoretical Chemistry Institute.  All rights reserved.

          Cite this program [NBO 7.0.10 (8-Feb-2021)] as:

          NBO 7.0.  E. D. Glendening, J. K. Badenhoop, A. E. Reed,
          J. E. Carpenter, J. A. Bohmann, C. M. Morales, P. Karafiloglou,
          C. R. Landis, and F. Weinhold, Theoretical Chemistry Institute,
          University of Wisconsin, Madison, WI (2018)

       /NPA    / : Natural Population Analysis
       /AOPNAO / : Print the AO to PNAO transformation
       /AONAO  / : Print the AO to NAO transformation
       /AOMO   / : Print the MOs in the AO basis
       /BOAO   / : Print the AO bond-order matrix
       /DMAO   / : Print the AO density matrix
       /DMPNAO / : Print the PNAO density matrix
       /DMNAO  / : Print the NAO density matrix
       /DMMO   / : Print the MO density matrix
       /SAO    / : Print the AO overlap matrix
       /SPNAO  / : Print the PNAO overlap matrix
       /DETAIL / : Write details of NBO search
       /ARCHIVE/ : Write the archive file to lfn47
       /AOINFO / : Write AO information to lfn31
       /FILE   / : Set to mol85.gen*

 Filename set to mol85.gen1

 Job title: mol85-NBO


 MOs in the AO basis:

           AO          1       2       3       4       5       6       7       8
      ------------ ------- ------- ------- ------- ------- ------- ------- -------
   1.  C 1 (s)      0.6973  0.7045 -0.0999  0.0000 -0.0940 -0.1400  0.0000 -0.0901
   2.  C 1 (s)      0.0176  0.0186 -0.0028  0.0000  0.1794  0.2729  0.0000  0.1717
   3.  C 1 (px)     0.0000  0.0000  0.0000 -0.0001  0.0000  0.0000  0.1285  0.0000
   4.  C 1 (py)    -0.0007 -0.0006  0.0001  0.0000 -0.0935  0.0064  0.0000  0.1000
   5.  C 1 (pz)    -0.0005 -0.0005  0.0000  0.0000 -0.0446 -0.0310  0.0000  0.1248
   6.  C 1 (s)     -0.0074 -0.0140  0.0091  0.0000  0.1081  0.2717  0.0000  0.2262
   7.  C 1 (px)     0.0000  0.0000  0.0000  0.0015  0.0000  0.0000  0.0433  0.0000
   8.  C 1 (py)    -0.0011  0.0021 -0.0034  0.0000 -0.0055  0.0032  0.0000  0.0192
   9.  C 1 (pz)     0.0010  0.0017  0.0002  0.0000 -0.0019 -0.0143  0.0000  0.0342
  10.  C 1 (d5)     0.0000  0.0001  0.0003  0.0000 -0.0022  0.0069  0.0000  0.0098
  11.  C 1 (d2)     0.0000  0.0000  0.0000  0.0002  0.0000  0.0000 -0.0086  0.0000
  12.  C 1 (d3)     0.0000  0.0001 -0.0004  0.0000  0.0092  0.0002  0.0000 -0.0119
  13.  C 1 (d4)    -0.0003 -0.0001  0.0002  0.0000 -0.0098 -0.0084  0.0000 -0.0060
  14.  C 1 (d1)     0.0000  0.0000  0.0000  0.0004  0.0000  0.0000 -0.0152  0.0000
  15.  C 2 (s)      0.6973 -0.7045 -0.0999  0.0000 -0.0940  0.1400  0.0000 -0.0901
  16.  C 2 (s)      0.0176 -0.0186 -0.0028  0.0000  0.1794 -0.2729  0.0000  0.1717
  17.  C 2 (px)     0.0000  0.0000  0.0000 -0.0001  0.0000  0.0000  0.1285  0.0000
  18.  C 2 (py)     0.0007 -0.0006 -0.0001  0.0000  0.0935  0.0064  0.0000 -0.1000
  19.  C 2 (pz)    -0.0005  0.0005  0.0000  0.0000 -0.0446  0.0310  0.0000  0.1248
  20.  C 2 (s)     -0.0074  0.0140  0.0091  0.0000  0.1081 -0.2717  0.0000  0.2262
  21.  C 2 (px)     0.0000  0.0000  0.0000  0.0015  0.0000  0.0000  0.0433  0.0000
  22.  C 2 (py)     0.0011  0.0021  0.0034  0.0000  0.0055  0.0032  0.0000 -0.0192
  23.  C 2 (pz)     0.0010 -0.0017  0.0002  0.0000 -0.0019  0.0143  0.0000  0.0342
  24.  C 2 (d5)     0.0000 -0.0001  0.0003  0.0000 -0.0022 -0.0069  0.0000  0.0098
  25.  C 2 (d2)     0.0000  0.0000  0.0000  0.0002  0.0000  0.0000 -0.0086  0.0000
  26.  C 2 (d3)     0.0000  0.0001  0.0004  0.0000 -0.0092  0.0002  0.0000  0.0119
  27.  C 2 (d4)    -0.0003  0.0001  0.0002  0.0000 -0.0098  0.0084  0.0000 -0.0060
  28.  C 2 (d1)     0.0000  0.0000  0.0000 -0.0004  0.0000  0.0000  0.0152  0.0000
  29.  C 3 (s)      0.0998  0.0000  0.6974  0.7044 -0.1213  0.0000 -0.1293  0.0666
  30.  C 3 (s)      0.0029  0.0000  0.0185  0.0183  0.2317  0.0000  0.2513 -0.1300
  31.  C 3 (px)    -0.0002  0.0000 -0.0013 -0.0013 -0.1227  0.0000  0.1172  0.0284
  32.  C 3 (py)     0.0000 -0.0002  0.0000  0.0000  0.0000  0.1667  0.0000  0.0000
  33.  C 3 (pz)     0.0001  0.0000  0.0002  0.0001  0.0369  0.0000 -0.0370  0.1301
  34.  C 3 (s)      0.0008  0.0000 -0.0117 -0.0136  0.1398  0.0000  0.3132 -0.1647
  35.  C 3 (px)     0.0017  0.0000  0.0034  0.0029 -0.0161  0.0000  0.0224  0.0107
  36.  C 3 (py)     0.0000  0.0032  0.0000  0.0000  0.0000  0.0265  0.0000  0.0000
  37.  C 3 (pz)    -0.0014  0.0000 -0.0036  0.0005  0.0031  0.0000 -0.0163  0.0462
  38.  C 3 (d5)     0.0003  0.0000  0.0002 -0.0003 -0.0084  0.0000  0.0088  0.0007
  39.  C 3 (d2)     0.0003  0.0000 -0.0002 -0.0004 -0.0102  0.0000 -0.0182  0.0000
  40.  C 3 (d3)     0.0000 -0.0003  0.0000  0.0000  0.0000  0.0118  0.0000  0.0000
  41.  C 3 (d4)     0.0001  0.0000 -0.0001  0.0005  0.0081  0.0000 -0.0063 -0.0146
  42.  C 3 (d1)     0.0000  0.0005  0.0000  0.0000  0.0000 -0.0191  0.0000  0.0000
  43.  C 4 (s)      0.0998  0.0000  0.6974 -0.7044 -0.1213  0.0000  0.1293  0.0666
  44.  C 4 (s)      0.0029  0.0000  0.0185 -0.0183  0.2317  0.0000 -0.2513 -0.1300
  45.  C 4 (px)     0.0002  0.0000  0.0013 -0.0013  0.1227  0.0000  0.1172 -0.0284
  46.  C 4 (py)     0.0000 -0.0002  0.0000  0.0000  0.0000  0.1667  0.0000  0.0000
  47.  C 4 (pz)     0.0001  0.0000  0.0002 -0.0001  0.0369  0.0000  0.0370  0.1301
  48.  C 4 (s)      0.0008  0.0000 -0.0117  0.0136  0.1398  0.0000 -0.3132 -0.1647
  49.  C 4 (px)    -0.0017  0.0000 -0.0034  0.0029  0.0161  0.0000  0.0224 -0.0107
  50.  C 4 (py)     0.0000  0.0032  0.0000  0.0000  0.0000  0.0265  0.0000  0.0000
  51.  C 4 (pz)    -0.0014  0.0000 -0.0036 -0.0005  0.0031  0.0000  0.0163  0.0462
  52.  C 4 (d5)     0.0003  0.0000  0.0002  0.0003 -0.0084  0.0000 -0.0088  0.0007
  53.  C 4 (d2)    -0.0003  0.0000  0.0002 -0.0004  0.0102  0.0000 -0.0182  0.0000
  54.  C 4 (d3)     0.0000 -0.0003  0.0000  0.0000  0.0000  0.0118  0.0000  0.0000
  55.  C 4 (d4)     0.0001  0.0000 -0.0001 -0.0005  0.0081  0.0000  0.0063 -0.0146
  56.  C 4 (d1)     0.0000 -0.0005  0.0000  0.0000  0.0000  0.0191  0.0000  0.0000
  57.  H 5 (s)     -0.0003  0.0000 -0.0005  0.0000  0.0341  0.0871  0.0000  0.1395
  58.  H 5 (s)      0.0014  0.0016 -0.0008  0.0000 -0.0018  0.0256  0.0000  0.0675
  59.  H 6 (s)     -0.0001  0.0001 -0.0001  0.0000  0.0327  0.1086  0.0000  0.0896
  60.  H 6 (s)      0.0025  0.0018  0.0004  0.0000 -0.0024  0.0301  0.0000  0.0440
  61.  H 7 (s)     -0.0003  0.0000 -0.0005  0.0000  0.0341 -0.0871  0.0000  0.1395
  62.  H 7 (s)      0.0014 -0.0016 -0.0008  0.0000 -0.0018 -0.0256  0.0000  0.0675
  63.  H 8 (s)     -0.0001 -0.0001 -0.0001  0.0000  0.0327 -0.1086  0.0000  0.0896
  64.  H 8 (s)      0.0025 -0.0018  0.0004  0.0000 -0.0024 -0.0301  0.0000  0.0440
  65.  H 9 (s)     -0.0004  0.0000 -0.0006  0.0000  0.0371  0.0000  0.1629 -0.0979
  66.  H 9 (s)     -0.0011  0.0000 -0.0001  0.0019 -0.0002  0.0000  0.0772 -0.0407
  67.  H10 (s)     -0.0004  0.0000 -0.0006  0.0000  0.0371  0.0000 -0.1629 -0.0979
  68.  H10 (s)     -0.0011  0.0000 -0.0001 -0.0019 -0.0002  0.0000 -0.0772 -0.0407

           AO          9      10      11      12      13      14      15      16
      ------------ ------- ------- ------- ------- ------- ------- ------- -------
   1.  C 1 (s)     -0.0239 -0.0145  0.0154  0.0163  0.0000  0.0000 -0.0079  0.0228
   2.  C 1 (s)      0.0442  0.0272 -0.0346 -0.0377  0.0000  0.0000  0.0002 -0.0185
   3.  C 1 (px)     0.0000  0.0000  0.0000  0.0000  0.2446  0.3207  0.0000  0.0000
   4.  C 1 (py)     0.2225  0.1153 -0.0862  0.3066  0.0000  0.0000 -0.0504 -0.1234
   5.  C 1 (pz)    -0.0478  0.2946  0.2376 -0.1100  0.0000  0.0000 -0.1190  0.0624
   6.  C 1 (s)      0.0820  0.0370  0.0047 -0.0531  0.0000  0.0000  0.1594 -0.5818
   7.  C 1 (px)     0.0000  0.0000  0.0000  0.0000  0.1470  0.1903  0.0000  0.0000
   8.  C 1 (py)     0.0717  0.0486 -0.0766  0.1610  0.0000  0.0000 -0.0767 -0.3787
   9.  C 1 (pz)    -0.0273  0.1469  0.1300 -0.0793  0.0000  0.0000 -0.0998  0.1329
  10.  C 1 (d5)     0.0068  0.0175  0.0095 -0.0072  0.0000  0.0000 -0.0293 -0.0073
  11.  C 1 (d2)     0.0000  0.0000  0.0000  0.0000 -0.0035 -0.0147  0.0000  0.0000
  12.  C 1 (d3)    -0.0124 -0.0057  0.0052 -0.0252  0.0000  0.0000 -0.0152 -0.0119
  13.  C 1 (d4)     0.0012 -0.0003  0.0137 -0.0124  0.0000  0.0000  0.0058 -0.0139
  14.  C 1 (d1)     0.0000  0.0000  0.0000  0.0000 -0.0213 -0.0178  0.0000  0.0000
  15.  C 2 (s)     -0.0239  0.0145  0.0154 -0.0163  0.0000  0.0000 -0.0079  0.0228
  16.  C 2 (s)      0.0442 -0.0272 -0.0346  0.0377  0.0000  0.0000  0.0002 -0.0185
  17.  C 2 (px)     0.0000  0.0000  0.0000  0.0000  0.2446 -0.3207  0.0000  0.0000
  18.  C 2 (py)    -0.2225  0.1153  0.0862  0.3066  0.0000  0.0000  0.0504  0.1234
  19.  C 2 (pz)    -0.0478 -0.2946  0.2376  0.1100  0.0000  0.0000 -0.1190  0.0624
  20.  C 2 (s)      0.0820 -0.0370  0.0047  0.0531  0.0000  0.0000  0.1594 -0.5818
  21.  C 2 (px)     0.0000  0.0000  0.0000  0.0000  0.1470 -0.1903  0.0000  0.0000
  22.  C 2 (py)    -0.0717  0.0486  0.0766  0.1610  0.0000  0.0000  0.0767  0.3787
  23.  C 2 (pz)    -0.0273 -0.1469  0.1300  0.0793  0.0000  0.0000 -0.0998  0.1329
  24.  C 2 (d5)     0.0068 -0.0175  0.0095  0.0072  0.0000  0.0000 -0.0293 -0.0073
  25.  C 2 (d2)     0.0000  0.0000  0.0000  0.0000 -0.0035  0.0147  0.0000  0.0000
  26.  C 2 (d3)     0.0124 -0.0057 -0.0052 -0.0252  0.0000  0.0000  0.0152  0.0119
  27.  C 2 (d4)     0.0012  0.0003  0.0137  0.0124  0.0000  0.0000  0.0058 -0.0139
  28.  C 2 (d1)     0.0000  0.0000  0.0000  0.0000  0.0213 -0.0178  0.0000  0.0000
  29.  C 3 (s)     -0.0105  0.0000 -0.0267  0.0000 -0.0282  0.0000 -0.0148  0.0498
  30.  C 3 (s)      0.0142  0.0000  0.0526  0.0000  0.0598  0.0000  0.0411 -0.0752
  31.  C 3 (px)     0.1710  0.0000  0.1939  0.0000 -0.0776  0.0000  0.2727 -0.0906
  32.  C 3 (py)     0.0000 -0.1867  0.0000 -0.1732  0.0000  0.2939  0.0000  0.0000
  33.  C 3 (pz)    -0.1842  0.0000 -0.0355  0.0000  0.2882  0.0000  0.2600  0.0980
  34.  C 3 (s)      0.0411  0.0000  0.0701  0.0000  0.1191  0.0000 -0.0217 -0.8777
  35.  C 3 (px)     0.0566  0.0000  0.0958  0.0000 -0.0453  0.0000  0.2318 -0.3765
  36.  C 3 (py)     0.0000 -0.0627  0.0000 -0.0724  0.0000  0.1850  0.0000  0.0000
  37.  C 3 (pz)    -0.0749  0.0000 -0.0394  0.0000  0.1800  0.0000  0.1842  0.3029
  38.  C 3 (d5)     0.0071  0.0000  0.0180  0.0000 -0.0062  0.0000  0.0049  0.0099
  39.  C 3 (d2)     0.0027  0.0000 -0.0134  0.0000  0.0113  0.0000 -0.0220 -0.0176
  40.  C 3 (d3)     0.0000  0.0005  0.0000 -0.0117  0.0000  0.0173  0.0000  0.0000
  41.  C 3 (d4)    -0.0057  0.0000  0.0008  0.0000 -0.0204  0.0000 -0.0199  0.0075
  42.  C 3 (d1)     0.0000  0.0200  0.0000  0.0181  0.0000 -0.0021  0.0000  0.0000
  43.  C 4 (s)     -0.0105  0.0000 -0.0267  0.0000  0.0282  0.0000 -0.0148  0.0498
  44.  C 4 (s)      0.0142  0.0000  0.0526  0.0000 -0.0598  0.0000  0.0411 -0.0752
  45.  C 4 (px)    -0.1710  0.0000 -0.1939  0.0000 -0.0776  0.0000 -0.2727  0.0906
  46.  C 4 (py)     0.0000 -0.1867  0.0000 -0.1732  0.0000 -0.2939  0.0000  0.0000
  47.  C 4 (pz)    -0.1842  0.0000 -0.0355  0.0000 -0.2882  0.0000  0.2600  0.0980
  48.  C 4 (s)      0.0411  0.0000  0.0701  0.0000 -0.1191  0.0000 -0.0217 -0.8777
  49.  C 4 (px)    -0.0566  0.0000 -0.0958  0.0000 -0.0453  0.0000 -0.2318  0.3765
  50.  C 4 (py)     0.0000 -0.0627  0.0000 -0.0724  0.0000 -0.1850  0.0000  0.0000
  51.  C 4 (pz)    -0.0749  0.0000 -0.0394  0.0000 -0.1800  0.0000  0.1842  0.3029
  52.  C 4 (d5)     0.0071  0.0000  0.0180  0.0000  0.0062  0.0000  0.0049  0.0099
  53.  C 4 (d2)    -0.0027  0.0000  0.0134  0.0000  0.0113  0.0000  0.0220  0.0176
  54.  C 4 (d3)     0.0000  0.0005  0.0000 -0.0117  0.0000 -0.0173  0.0000  0.0000
  55.  C 4 (d4)    -0.0057  0.0000  0.0008  0.0000  0.0204  0.0000 -0.0199  0.0075
  56.  C 4 (d1)     0.0000 -0.0200  0.0000 -0.0181  0.0000 -0.0021  0.0000  0.0000
  57.  H 5 (s)      0.0100  0.1965  0.1264 -0.0733  0.0000  0.0000 -0.1314 -0.0102
  58.  H 5 (s)      0.0113  0.1349  0.0891 -0.0521  0.0000  0.0000 -0.1766 -0.0429
  59.  H 6 (s)      0.1414 -0.0099 -0.1368  0.2091  0.0000  0.0000  0.0352  0.0421
  60.  H 6 (s)      0.0893 -0.0035 -0.0881  0.1794  0.0000  0.0000  0.0522  0.8786
  61.  H 7 (s)      0.0100 -0.1965  0.1264  0.0733  0.0000  0.0000 -0.1314 -0.0102
  62.  H 7 (s)      0.0113 -0.1349  0.0891  0.0521  0.0000  0.0000 -0.1766 -0.0429
  63.  H 8 (s)      0.1414  0.0099 -0.1368 -0.2091  0.0000  0.0000  0.0352  0.0421
  64.  H 8 (s)      0.0893  0.0035 -0.0881 -0.1794  0.0000  0.0000  0.0522  0.8786
  65.  H 9 (s)      0.1396  0.0000  0.1276  0.0000 -0.1706  0.0000  0.0097  0.0394
  66.  H 9 (s)      0.0807  0.0000  0.0867  0.0000 -0.1508  0.0000  0.0217  1.1120
  67.  H10 (s)      0.1396  0.0000  0.1276  0.0000  0.1706  0.0000  0.0097  0.0394
  68.  H10 (s)      0.0807  0.0000  0.0867  0.0000  0.1508  0.0000  0.0217  1.1120

           AO         17      18      19      20      21      22      23      24
      ------------ ------- ------- ------- ------- ------- ------- ------- -------
   1.  C 1 (s)      0.0000 -0.0879 -0.1063  0.0000  0.0390 -0.0167  0.0000  0.0000
   2.  C 1 (s)      0.0000  0.0918  0.0623  0.0000 -0.0528  0.0480  0.0000  0.0000
   3.  C 1 (px)    -0.2553  0.0000  0.0000  0.0090  0.0000  0.0000 -0.1882  0.0438
   4.  C 1 (py)     0.0000  0.0530  0.0922  0.0000 -0.0355 -0.1888  0.0000  0.0000
   5.  C 1 (pz)     0.0000  0.1252  0.0130  0.0000  0.2048  0.1885  0.0000  0.0000
   6.  C 1 (s)      0.0000  1.3670  2.1110  0.0000 -0.2013 -0.0317  0.0000  0.0000
   7.  C 1 (px)    -0.5886  0.0000  0.0000 -0.3044  0.0000  0.0000 -1.0566 -0.8166
   8.  C 1 (py)     0.0000  0.2838  0.1719  0.0000 -0.3687 -0.7822  0.0000  0.0000
   9.  C 1 (pz)     0.0000  0.4848 -0.0860  0.0000  1.1172  1.0296  0.0000  0.0000
  10.  C 1 (d5)     0.0000  0.0024 -0.0086  0.0000 -0.0047 -0.0070  0.0000  0.0000
  11.  C 1 (d2)     0.0086  0.0000  0.0000 -0.0103  0.0000  0.0000 -0.0238  0.0028
  12.  C 1 (d3)     0.0000  0.0027 -0.0033  0.0000  0.0021 -0.0024  0.0000  0.0000
  13.  C 1 (d4)     0.0000 -0.0073 -0.0111  0.0000 -0.0055  0.0018  0.0000  0.0000
  14.  C 1 (d1)    -0.0174  0.0000  0.0000 -0.0054  0.0000  0.0000 -0.0129 -0.0206
  15.  C 2 (s)      0.0000 -0.0879  0.1063  0.0000  0.0390  0.0167  0.0000  0.0000
  16.  C 2 (s)      0.0000  0.0918 -0.0623  0.0000 -0.0528 -0.0480  0.0000  0.0000
  17.  C 2 (px)    -0.2553  0.0000  0.0000  0.0090  0.0000  0.0000  0.1882  0.0438
  18.  C 2 (py)     0.0000 -0.0530  0.0922  0.0000  0.0355 -0.1888  0.0000  0.0000
  19.  C 2 (pz)     0.0000  0.1252 -0.0130  0.0000  0.2048 -0.1885  0.0000  0.0000
  20.  C 2 (s)      0.0000  1.3670 -2.1110  0.0000 -0.2013  0.0317  0.0000  0.0000
  21.  C 2 (px)    -0.5886  0.0000  0.0000 -0.3044  0.0000  0.0000  1.0566 -0.8166
  22.  C 2 (py)     0.0000 -0.2838  0.1719  0.0000  0.3687 -0.7822  0.0000  0.0000
  23.  C 2 (pz)     0.0000  0.4848  0.0860  0.0000  1.1172 -1.0296  0.0000  0.0000
  24.  C 2 (d5)     0.0000  0.0024  0.0086  0.0000 -0.0047  0.0070  0.0000  0.0000
  25.  C 2 (d2)     0.0086  0.0000  0.0000 -0.0103  0.0000  0.0000  0.0238  0.0028
  26.  C 2 (d3)     0.0000 -0.0027 -0.0033  0.0000 -0.0021 -0.0024  0.0000  0.0000
  27.  C 2 (d4)     0.0000 -0.0073  0.0111  0.0000 -0.0055 -0.0018  0.0000  0.0000
  28.  C 2 (d1)     0.0174  0.0000  0.0000  0.0054  0.0000  0.0000 -0.0129  0.0206
  29.  C 3 (s)     -0.0357  0.0320  0.0000 -0.1094 -0.0490  0.0000  0.0000 -0.0741
  30.  C 3 (s)      0.0576 -0.0120  0.0000  0.0741  0.0796  0.0000  0.0000  0.0057
  31.  C 3 (px)     0.2025 -0.0249  0.0000 -0.0160  0.0163  0.0000  0.0000 -0.1631
  32.  C 3 (py)     0.0000  0.0000 -0.0624  0.0000  0.0000 -0.0338  0.3000  0.0000
  33.  C 3 (pz)     0.1898  0.0025  0.0000 -0.1346 -0.0559  0.0000  0.0000  0.1817
  34.  C 3 (s)      0.3260 -0.4115  0.0000  2.0760  0.9763  0.0000  0.0000  2.1348
  35.  C 3 (px)     0.5894 -0.2041  0.0000 -0.3423  0.2630  0.0000  0.0000 -2.0933
  36.  C 3 (py)     0.0000  0.0000 -0.6290  0.0000  0.0000  0.0608  1.2159  0.0000
  37.  C 3 (pz)     0.4746 -0.0288  0.0000 -0.6764 -0.6149  0.0000  0.0000  1.0203
  38.  C 3 (d5)     0.0006  0.0021  0.0000  0.0011  0.0125  0.0000  0.0000 -0.0032
  39.  C 3 (d2)     0.0011 -0.0088  0.0000 -0.0107  0.0002  0.0000  0.0000 -0.0078
  40.  C 3 (d3)     0.0000  0.0000  0.0123  0.0000  0.0000  0.0181 -0.0133  0.0000
  41.  C 3 (d4)     0.0161 -0.0016  0.0000 -0.0054  0.0150  0.0000  0.0000 -0.0036
  42.  C 3 (d1)     0.0000  0.0000  0.0039  0.0000  0.0000 -0.0009 -0.0013  0.0000
  43.  C 4 (s)      0.0357  0.0320  0.0000  0.1094 -0.0490  0.0000  0.0000  0.0741
  44.  C 4 (s)     -0.0576 -0.0120  0.0000 -0.0741  0.0796  0.0000  0.0000 -0.0057
  45.  C 4 (px)     0.2025  0.0249  0.0000 -0.0160 -0.0163  0.0000  0.0000 -0.1631
  46.  C 4 (py)     0.0000  0.0000 -0.0624  0.0000  0.0000 -0.0338 -0.3000  0.0000
  47.  C 4 (pz)    -0.1898  0.0025  0.0000  0.1346 -0.0559  0.0000  0.0000 -0.1817
  48.  C 4 (s)     -0.3260 -0.4115  0.0000 -2.0760  0.9763  0.0000  0.0000 -2.1348
  49.  C 4 (px)     0.5894  0.2041  0.0000 -0.3423 -0.2630  0.0000  0.0000 -2.0933
  50.  C 4 (py)     0.0000  0.0000 -0.6290  0.0000  0.0000  0.0608 -1.2159  0.0000
  51.  C 4 (pz)    -0.4746 -0.0288  0.0000  0.6764 -0.6149  0.0000  0.0000 -1.0203
  52.  C 4 (d5)    -0.0006  0.0021  0.0000 -0.0011  0.0125  0.0000  0.0000  0.0032
  53.  C 4 (d2)     0.0011  0.0088  0.0000 -0.0107 -0.0002  0.0000  0.0000 -0.0078
  54.  C 4 (d3)     0.0000  0.0000  0.0123  0.0000  0.0000  0.0181  0.0133  0.0000
  55.  C 4 (d4)    -0.0161 -0.0016  0.0000  0.0054  0.0150  0.0000  0.0000  0.0036
  56.  C 4 (d1)     0.0000  0.0000 -0.0039  0.0000  0.0000  0.0009 -0.0013  0.0000
  57.  H 5 (s)      0.0000  0.0104 -0.0480  0.0000 -0.0029 -0.0226  0.0000  0.0000
  58.  H 5 (s)      0.0000 -1.2455 -0.9325  0.0000 -1.0302 -1.1917  0.0000  0.0000
  59.  H 6 (s)      0.0000 -0.0175  0.0383  0.0000  0.0137  0.0066  0.0000  0.0000
  60.  H 6 (s)      0.0000 -0.6313 -1.0263  0.0000  1.1611  1.4297  0.0000  0.0000
  61.  H 7 (s)      0.0000  0.0104  0.0480  0.0000 -0.0029  0.0226  0.0000  0.0000
  62.  H 7 (s)      0.0000 -1.2455  0.9325  0.0000 -1.0302  1.1917  0.0000  0.0000
  63.  H 8 (s)      0.0000 -0.0175 -0.0383  0.0000  0.0137 -0.0066  0.0000  0.0000
  64.  H 8 (s)      0.0000 -0.6313  1.0263  0.0000  1.1611 -1.4297  0.0000  0.0000
  65.  H 9 (s)     -0.0200  0.0456  0.0000  0.0100  0.0050  0.0000  0.0000  0.0103
  66.  H 9 (s)     -0.2296  0.4322  0.0000 -1.3805 -1.0722  0.0000  0.0000  1.3438
  67.  H10 (s)      0.0200  0.0456  0.0000 -0.0100  0.0050  0.0000  0.0000 -0.0103
  68.  H10 (s)      0.2296  0.4322  0.0000  1.3805 -1.0722  0.0000  0.0000 -1.3438

           AO         25      26      27      28      29      30      31      32
      ------------ ------- ------- ------- ------- ------- ------- ------- -------
   1.  C 1 (s)     -0.0714  0.0433  0.0260 -0.0050  0.0000 -0.0132  0.0328  0.0000
   2.  C 1 (s)     -0.0327 -0.0266  0.1054 -0.1979  0.0000  0.0788 -0.3428  0.0000
   3.  C 1 (px)     0.0000  0.0000  0.0000  0.0000 -0.5149  0.0000  0.0000 -0.1034
   4.  C 1 (py)    -0.0595  0.1764 -0.3455 -0.0537  0.0000 -0.3130  0.5153  0.0000
   5.  C 1 (pz)    -0.0274  0.1427 -0.3116  0.1831  0.0000 -0.0488  0.1371  0.0000
   6.  C 1 (s)      2.3611 -1.2649 -0.3852  0.9125  0.0000 -0.7410 -0.0032  0.0000
   7.  C 1 (px)     0.0000  0.0000  0.0000  0.0000  0.3397  0.0000  0.0000  0.0702
   8.  C 1 (py)    -1.9833  1.2118  1.2453 -0.2599  0.0000  0.9506 -0.3106  0.0000
   9.  C 1 (pz)    -0.4187  1.2185  0.8140 -0.3711  0.0000  0.2331  0.1449  0.0000
  10.  C 1 (d5)     0.0160 -0.0069 -0.0533  0.0401  0.0000  0.0023 -0.0320  0.0000
  11.  C 1 (d2)     0.0000  0.0000  0.0000  0.0000  0.0227  0.0000  0.0000 -0.0842
  12.  C 1 (d3)    -0.0158 -0.0026  0.0326  0.0515  0.0000  0.0085 -0.0368  0.0000
  13.  C 1 (d4)     0.0011  0.0242 -0.0049  0.0533  0.0000  0.0677 -0.0130  0.0000
  14.  C 1 (d1)     0.0000  0.0000  0.0000  0.0000  0.0712  0.0000  0.0000 -0.0587
  15.  C 2 (s)     -0.0714 -0.0433 -0.0260 -0.0050  0.0000 -0.0132  0.0328  0.0000
  16.  C 2 (s)     -0.0327  0.0266 -0.1054 -0.1979  0.0000  0.0788 -0.3428  0.0000
  17.  C 2 (px)     0.0000  0.0000  0.0000  0.0000  0.5149  0.0000  0.0000 -0.1034
  18.  C 2 (py)     0.0595  0.1764 -0.3455  0.0537  0.0000  0.3130 -0.5153  0.0000
  19.  C 2 (pz)    -0.0274 -0.1427  0.3116  0.1831  0.0000 -0.0488  0.1371  0.0000
  20.  C 2 (s)      2.3611  1.2649  0.3852  0.9125  0.0000 -0.7410 -0.0032  0.0000
  21.  C 2 (px)     0.0000  0.0000  0.0000  0.0000 -0.3397  0.0000  0.0000  0.0702
  22.  C 2 (py)     1.9833  1.2118  1.2453  0.2599  0.0000 -0.9506  0.3106  0.0000
  23.  C 2 (pz)    -0.4187 -1.2185 -0.8140 -0.3711  0.0000  0.2331  0.1449  0.0000
  24.  C 2 (d5)     0.0160  0.0069  0.0533  0.0401  0.0000  0.0023 -0.0320  0.0000
  25.  C 2 (d2)     0.0000  0.0000  0.0000  0.0000 -0.0227  0.0000  0.0000 -0.0842
  26.  C 2 (d3)     0.0158 -0.0026  0.0326 -0.0515  0.0000 -0.0085  0.0368  0.0000
  27.  C 2 (d4)     0.0011 -0.0242  0.0049  0.0533  0.0000  0.0677 -0.0130  0.0000
  28.  C 2 (d1)     0.0000  0.0000  0.0000  0.0000  0.0712  0.0000  0.0000  0.0587
  29.  C 3 (s)      0.0649  0.0000  0.0000  0.0156  0.0000 -0.0157 -0.0767 -0.0297
  30.  C 3 (s)     -0.0082  0.0000  0.0000 -0.2519  0.0000 -0.1220 -0.1264  0.3273
  31.  C 3 (px)     0.1604  0.0000  0.0000 -0.2847  0.0000  0.4513  0.1819 -0.6899
  32.  C 3 (py)     0.0000  0.0843  0.2693  0.0000 -0.4168  0.0000  0.0000  0.0000
  33.  C 3 (pz)    -0.0834  0.0000  0.0000 -0.0174  0.0000  0.3172  0.3190  0.0044
  34.  C 3 (s)     -2.0270  0.0000  0.0000 -0.0710  0.0000  0.8167  0.1513 -1.4365
  35.  C 3 (px)     0.9977  0.0000  0.0000  0.7910  0.0000 -0.8567 -0.4131  1.8199
  36.  C 3 (py)     0.0000  1.5444  0.0734  0.0000  0.8321  0.0000  0.0000  0.0000
  37.  C 3 (pz)    -1.4388  0.0000  0.0000 -0.3168  0.0000  0.0336 -0.1835 -0.6720
  38.  C 3 (d5)     0.0224  0.0000  0.0000 -0.0402  0.0000  0.0013  0.0674  0.0145
  39.  C 3 (d2)     0.0145  0.0000  0.0000  0.0938  0.0000 -0.0265  0.1063  0.0297
  40.  C 3 (d3)     0.0000 -0.0041  0.0647  0.0000 -0.0525  0.0000  0.0000  0.0000
  41.  C 3 (d4)    -0.0175  0.0000  0.0000 -0.0076  0.0000 -0.0952  0.0125 -0.0997
  42.  C 3 (d1)     0.0000  0.0245 -0.0685  0.0000  0.0187  0.0000  0.0000  0.0000
  43.  C 4 (s)      0.0649  0.0000  0.0000  0.0156  0.0000 -0.0157 -0.0767  0.0297
  44.  C 4 (s)     -0.0082  0.0000  0.0000 -0.2519  0.0000 -0.1220 -0.1264 -0.3273
  45.  C 4 (px)    -0.1604  0.0000  0.0000  0.2847  0.0000 -0.4513 -0.1819 -0.6899
  46.  C 4 (py)     0.0000  0.0843  0.2693  0.0000  0.4168  0.0000  0.0000  0.0000
  47.  C 4 (pz)    -0.0834  0.0000  0.0000 -0.0174  0.0000  0.3172  0.3190 -0.0044
  48.  C 4 (s)     -2.0270  0.0000  0.0000 -0.0710  0.0000  0.8167  0.1513  1.4365
  49.  C 4 (px)    -0.9977  0.0000  0.0000 -0.7910  0.0000  0.8567  0.4131  1.8199
  50.  C 4 (py)     0.0000  1.5444  0.0734  0.0000 -0.8321  0.0000  0.0000  0.0000
  51.  C 4 (pz)    -1.4388  0.0000  0.0000 -0.3168  0.0000  0.0336 -0.1835  0.6720
  52.  C 4 (d5)     0.0224  0.0000  0.0000 -0.0402  0.0000  0.0013  0.0674 -0.0145
  53.  C 4 (d2)    -0.0145  0.0000  0.0000 -0.0938  0.0000  0.0265 -0.1063  0.0297
  54.  C 4 (d3)     0.0000 -0.0041  0.0647  0.0000  0.0525  0.0000  0.0000  0.0000
  55.  C 4 (d4)    -0.0175  0.0000  0.0000 -0.0076  0.0000 -0.0952  0.0125  0.0997
  56.  C 4 (d1)     0.0000 -0.0245  0.0685  0.0000  0.0187  0.0000  0.0000  0.0000
  57.  H 5 (s)      0.0545 -0.0499 -0.2859  0.1237  0.0000  0.0296 -0.0697  0.0000
  58.  H 5 (s)     -0.1330 -0.9873 -0.1774 -0.1537  0.0000  0.0116 -0.0250  0.0000
  59.  H 6 (s)      0.0373 -0.1000 -0.0655 -0.3028  0.0000 -0.2872  0.1845  0.0000
  60.  H 6 (s)      0.4366 -0.3053 -0.2158  0.1351  0.0000 -0.0519 -0.1303  0.0000
  61.  H 7 (s)      0.0545  0.0499  0.2859  0.1237  0.0000  0.0296 -0.0697  0.0000
  62.  H 7 (s)     -0.1330  0.9873  0.1774 -0.1537  0.0000  0.0116 -0.0250  0.0000
  63.  H 8 (s)      0.0373  0.1000  0.0655 -0.3028  0.0000 -0.2872  0.1845  0.0000
  64.  H 8 (s)      0.4366  0.3053  0.2158  0.1351  0.0000 -0.0519 -0.1303  0.0000
  65.  H 9 (s)      0.0056  0.0000  0.0000 -0.4227  0.0000 -0.1008 -0.3093 -0.3478
  66.  H 9 (s)     -0.9343  0.0000  0.0000 -0.0938  0.0000  0.1907  0.2827 -0.4408
  67.  H10 (s)      0.0056  0.0000  0.0000 -0.4227  0.0000 -0.1008 -0.3093  0.3478
  68.  H10 (s)     -0.9343  0.0000  0.0000 -0.0938  0.0000  0.1907  0.2827  0.4408

           AO         33      34      35      36      37      38      39      40
      ------------ ------- ------- ------- ------- ------- ------- ------- -------
   1.  C 1 (s)      0.0000 -0.0425 -0.0501  0.0000  0.0000 -0.0196 -0.0181  0.0149
   2.  C 1 (s)      0.0000 -0.2016  0.1896  0.0000  0.0000  0.2019 -0.0946  0.1101
   3.  C 1 (px)     0.7256  0.0000  0.0000  0.2774  0.5807  0.0000  0.0000  0.0000
   4.  C 1 (py)     0.0000 -0.0469 -0.2842  0.0000  0.0000 -0.0800  0.5194  0.1982
   5.  C 1 (pz)     0.0000 -0.2827 -0.1587  0.0000  0.0000  0.4454 -0.6931 -0.6221
   6.  C 1 (s)      0.0000  0.0295 -0.6878  0.0000  0.0000 -1.7681 -0.0783 -0.6628
   7.  C 1 (px)    -0.6398  0.0000  0.0000 -0.7462 -1.2622  0.0000  0.0000  0.0000
   8.  C 1 (py)     0.0000  0.3275  0.4285  0.0000  0.0000  0.9619 -1.5995 -0.1780
   9.  C 1 (pz)     0.0000  1.0273  0.2834  0.0000  0.0000 -1.1415  1.7228  1.1326
  10.  C 1 (d5)     0.0000 -0.0341 -0.0210  0.0000  0.0000  0.0146  0.0029  0.1203
  11.  C 1 (d2)    -0.0385  0.0000  0.0000  0.0624  0.0347  0.0000  0.0000  0.0000
  12.  C 1 (d3)     0.0000 -0.0742 -0.0929  0.0000  0.0000 -0.0312  0.0112  0.0440
  13.  C 1 (d4)     0.0000  0.0552  0.0387  0.0000  0.0000  0.0644  0.0786  0.0621
  14.  C 1 (d1)     0.0108  0.0000  0.0000  0.0267  0.0759  0.0000  0.0000  0.0000
  15.  C 2 (s)      0.0000 -0.0425  0.0501  0.0000  0.0000 -0.0196  0.0181  0.0149
  16.  C 2 (s)      0.0000 -0.2016 -0.1896  0.0000  0.0000  0.2019  0.0946  0.1101
  17.  C 2 (px)     0.7256  0.0000  0.0000  0.2774 -0.5807  0.0000  0.0000  0.0000
  18.  C 2 (py)     0.0000  0.0469 -0.2842  0.0000  0.0000  0.0800  0.5194 -0.1982
  19.  C 2 (pz)     0.0000 -0.2827  0.1587  0.0000  0.0000  0.4454  0.6931 -0.6221
  20.  C 2 (s)      0.0000  0.0295  0.6878  0.0000  0.0000 -1.7681  0.0783 -0.6628
  21.  C 2 (px)    -0.6398  0.0000  0.0000 -0.7462  1.2622  0.0000  0.0000  0.0000
  22.  C 2 (py)     0.0000 -0.3275  0.4285  0.0000  0.0000 -0.9619 -1.5995  0.1780
  23.  C 2 (pz)     0.0000  1.0273 -0.2834  0.0000  0.0000 -1.1415 -1.7228  1.1326
  24.  C 2 (d5)     0.0000 -0.0341  0.0210  0.0000  0.0000  0.0146 -0.0029  0.1203
  25.  C 2 (d2)    -0.0385  0.0000  0.0000  0.0624 -0.0347  0.0000  0.0000  0.0000
  26.  C 2 (d3)     0.0000  0.0742 -0.0929  0.0000  0.0000  0.0312  0.0112 -0.0440
  27.  C 2 (d4)     0.0000  0.0552 -0.0387  0.0000  0.0000  0.0644 -0.0786  0.0621
  28.  C 2 (d1)    -0.0108  0.0000  0.0000 -0.0267  0.0759  0.0000  0.0000  0.0000
  29.  C 3 (s)      0.0583  0.0108  0.0000  0.0056  0.0000 -0.0478  0.0000 -0.0171
  30.  C 3 (s)     -0.0990 -0.7322  0.0000 -0.1234  0.0000  0.2400  0.0000  0.2385
  31.  C 3 (px)     0.0323  0.0284  0.0000 -0.2356  0.0000  0.3694  0.0000  0.1646
  32.  C 3 (py)     0.0000  0.0000 -0.7477  0.0000 -0.6209  0.0000 -0.0447  0.0000
  33.  C 3 (pz)     0.2435 -0.2609  0.0000 -0.6860  0.0000 -0.5830  0.0000 -0.2366
  34.  C 3 (s)     -0.6134  1.2594  0.0000  0.5813  0.0000 -0.3394  0.0000 -0.0660
  35.  C 3 (px)     1.4582 -0.3046  0.0000 -0.2633  0.0000 -1.2869  0.0000 -0.4677
  36.  C 3 (py)     0.0000  0.0000  0.9040  0.0000  1.5636  0.0000  0.2842  0.0000
  37.  C 3 (pz)    -0.7669  0.0589  0.0000  1.7210  0.0000  1.9333  0.0000  0.4150
  38.  C 3 (d5)    -0.0498  0.0607  0.0000  0.0351  0.0000  0.0032  0.0000 -0.0965
  39.  C 3 (d2)    -0.0208  0.0416  0.0000 -0.0269  0.0000  0.0712  0.0000  0.1058
  40.  C 3 (d3)     0.0000  0.0000  0.0819  0.0000  0.0399  0.0000  0.0079  0.0000
  41.  C 3 (d4)    -0.0449 -0.0662  0.0000 -0.0095  0.0000 -0.0516  0.0000 -0.0522
  42.  C 3 (d1)     0.0000  0.0000 -0.0133  0.0000 -0.0424  0.0000  0.0499  0.0000
  43.  C 4 (s)     -0.0583  0.0108  0.0000 -0.0056  0.0000 -0.0478  0.0000 -0.0171
  44.  C 4 (s)      0.0990 -0.7322  0.0000  0.1234  0.0000  0.2400  0.0000  0.2385
  45.  C 4 (px)     0.0323 -0.0284  0.0000 -0.2356  0.0000 -0.3694  0.0000 -0.1646
  46.  C 4 (py)     0.0000  0.0000 -0.7477  0.0000  0.6209  0.0000 -0.0447  0.0000
  47.  C 4 (pz)    -0.2435 -0.2609  0.0000  0.6860  0.0000 -0.5830  0.0000 -0.2366
  48.  C 4 (s)      0.6134  1.2594  0.0000 -0.5813  0.0000 -0.3394  0.0000 -0.0660
  49.  C 4 (px)     1.4582  0.3046  0.0000 -0.2633  0.0000  1.2869  0.0000  0.4677
  50.  C 4 (py)     0.0000  0.0000  0.9040  0.0000 -1.5636  0.0000  0.2842  0.0000
  51.  C 4 (pz)     0.7669  0.0589  0.0000 -1.7210  0.0000  1.9333  0.0000  0.4150
  52.  C 4 (d5)     0.0498  0.0607  0.0000 -0.0351  0.0000  0.0032  0.0000 -0.0965
  53.  C 4 (d2)    -0.0208 -0.0416  0.0000 -0.0269  0.0000 -0.0712  0.0000 -0.1058
  54.  C 4 (d3)     0.0000  0.0000  0.0819  0.0000 -0.0399  0.0000  0.0079  0.0000
  55.  C 4 (d4)     0.0449 -0.0662  0.0000  0.0095  0.0000 -0.0516  0.0000 -0.0522
  56.  C 4 (d1)     0.0000  0.0000  0.0133  0.0000 -0.0424  0.0000 -0.0499  0.0000
  57.  H 5 (s)      0.0000 -0.4921 -0.2234  0.0000  0.0000 -0.1523  0.0553  0.4147
  58.  H 5 (s)      0.0000 -0.4225  0.1193  0.0000  0.0000  0.8949 -0.8919 -0.9807
  59.  H 6 (s)      0.0000 -0.0939 -0.1074  0.0000  0.0000  0.0347 -0.1457 -0.1314
  60.  H 6 (s)      0.0000  0.0497 -0.1968  0.0000  0.0000 -0.4542  1.5109  0.8032
  61.  H 7 (s)      0.0000 -0.4921  0.2234  0.0000  0.0000 -0.1523 -0.0553  0.4147
  62.  H 7 (s)      0.0000 -0.4225 -0.1193  0.0000  0.0000  0.8949  0.8919 -0.9807
  63.  H 8 (s)      0.0000 -0.0939  0.1074  0.0000  0.0000  0.0347  0.1457 -0.1314
  64.  H 8 (s)      0.0000  0.0497  0.1968  0.0000  0.0000 -0.4542 -1.5109  0.8032
  65.  H 9 (s)      0.0208 -0.0610  0.0000  0.1743  0.0000 -0.2602  0.0000 -0.2082
  66.  H 9 (s)     -0.7514 -0.0791  0.0000  0.6070  0.0000  1.7101  0.0000  0.7306
  67.  H10 (s)     -0.0208 -0.0610  0.0000 -0.1743  0.0000 -0.2602  0.0000 -0.2082
  68.  H10 (s)      0.7514 -0.0791  0.0000 -0.6070  0.0000  1.7101  0.0000  0.7306

           AO         41      42      43      44      45      46      47      48
      ------------ ------- ------- ------- ------- ------- ------- ------- -------
   1.  C 1 (s)     -0.0021  0.0000  0.0248 -0.0402 -0.0393  0.0000 -0.0866 -0.0182
   2.  C 1 (s)      0.3186  0.0000 -0.7528  0.6366 -1.4088  0.0000 -1.5380 -0.0395
   3.  C 1 (px)     0.0000  0.1226  0.0000  0.0000  0.0000 -0.1087  0.0000  0.0000
   4.  C 1 (py)    -0.0800  0.0000 -0.5083  0.3713  0.1113  0.0000 -0.0780 -0.1922
   5.  C 1 (pz)    -0.1420  0.0000 -0.0636  0.3177  0.0046  0.0000  0.1193 -0.2043
   6.  C 1 (s)     -0.3198  0.0000  1.1557 -0.8073  4.1128  0.0000  5.0056  3.1528
   7.  C 1 (px)     0.0000 -0.2541  0.0000  0.0000  0.0000 -0.7858  0.0000  0.0000
   8.  C 1 (py)     0.8431  0.0000  0.7875 -0.6450 -0.7251  0.0000 -0.6898 -1.6426
   9.  C 1 (pz)    -0.1938  0.0000  0.0645 -0.7966 -0.6952  0.0000 -1.5244  0.9543
  10.  C 1 (d5)     0.1542  0.0000  0.0625 -0.1014 -0.0499  0.0000 -0.0071 -0.1793
  11.  C 1 (d2)     0.0000 -0.0638  0.0000  0.0000  0.0000  0.0182  0.0000  0.0000
  12.  C 1 (d3)     0.1347  0.0000 -0.1012  0.0713  0.0449  0.0000  0.0126  0.0926
  13.  C 1 (d4)    -0.0232  0.0000 -0.0549  0.0543  0.0440  0.0000  0.2057 -0.1616
  14.  C 1 (d1)     0.0000  0.0627  0.0000  0.0000  0.0000  0.0619  0.0000  0.0000
  15.  C 2 (s)      0.0021  0.0000  0.0248  0.0402 -0.0393  0.0000  0.0866 -0.0182
  16.  C 2 (s)     -0.3186  0.0000 -0.7528 -0.6366 -1.4088  0.0000  1.5380 -0.0395
  17.  C 2 (px)     0.0000  0.1226  0.0000  0.0000  0.0000 -0.1087  0.0000  0.0000
  18.  C 2 (py)    -0.0800  0.0000  0.5083  0.3713 -0.1113  0.0000 -0.0780  0.1922
  19.  C 2 (pz)     0.1420  0.0000 -0.0636 -0.3177  0.0046  0.0000 -0.1193 -0.2043
  20.  C 2 (s)      0.3198  0.0000  1.1557  0.8073  4.1128  0.0000 -5.0056  3.1528
  21.  C 2 (px)     0.0000 -0.2541  0.0000  0.0000  0.0000 -0.7858  0.0000  0.0000
  22.  C 2 (py)     0.8431  0.0000 -0.7875 -0.6450  0.7251  0.0000 -0.6898  1.6426
  23.  C 2 (pz)     0.1938  0.0000  0.0645  0.7966 -0.6952  0.0000  1.5244  0.9543
  24.  C 2 (d5)    -0.1542  0.0000  0.0625  0.1014 -0.0499  0.0000  0.0071 -0.1793
  25.  C 2 (d2)     0.0000 -0.0638  0.0000  0.0000  0.0000  0.0182  0.0000  0.0000
  26.  C 2 (d3)     0.1347  0.0000  0.1012  0.0713 -0.0449  0.0000  0.0126 -0.0926
  27.  C 2 (d4)     0.0232  0.0000 -0.0549 -0.0543  0.0440  0.0000 -0.2057 -0.1616
  28.  C 2 (d1)     0.0000 -0.0627  0.0000  0.0000  0.0000 -0.0619  0.0000  0.0000
  29.  C 3 (s)      0.0000 -0.0273 -0.0089  0.0000  0.0280 -0.0684  0.0000  0.0671
  30.  C 3 (s)      0.0000  0.1447 -0.2259  0.0000  0.7815 -1.8115  0.0000  0.8668
  31.  C 3 (px)     0.0000  0.4601  0.0891  0.0000 -0.0068 -0.1011  0.0000 -0.0453
  32.  C 3 (py)    -0.0906  0.0000  0.0000  0.1151  0.0000  0.0000  0.0141  0.0000
  33.  C 3 (pz)     0.0000 -0.3760 -0.0980  0.0000 -0.0772  0.0341  0.0000  0.0312
  34.  C 3 (s)      0.0000  0.2572  0.3713  0.0000 -3.2835  5.9134  0.0000 -2.1812
  35.  C 3 (px)     0.0000 -0.8186 -0.1953  0.0000  0.2878 -1.6794  0.0000  1.5859
  36.  C 3 (py)    -0.0115  0.0000  0.0000 -0.4902  0.0000  0.0000 -2.0477  0.0000
  37.  C 3 (pz)     0.0000  0.5528  0.1974  0.0000 -0.3358 -0.0807  0.0000 -2.2900
  38.  C 3 (d5)     0.0000 -0.1188  0.0299  0.0000  0.0078  0.0028  0.0000 -0.2395
  39.  C 3 (d2)     0.0000  0.0812  0.0146  0.0000 -0.0388  0.0648  0.0000 -0.1839
  40.  C 3 (d3)    -0.0881  0.0000  0.0000  0.0210  0.0000  0.0000 -0.0229  0.0000
  41.  C 3 (d4)     0.0000 -0.0403  0.0137  0.0000 -0.0032  0.0140  0.0000  0.0955
  42.  C 3 (d1)    -0.1744  0.0000  0.0000  0.0133  0.0000  0.0000  0.1309  0.0000
  43.  C 4 (s)      0.0000  0.0273 -0.0089  0.0000  0.0280  0.0684  0.0000  0.0671
  44.  C 4 (s)      0.0000 -0.1447 -0.2259  0.0000  0.7815  1.8115  0.0000  0.8668
  45.  C 4 (px)     0.0000  0.4601 -0.0891  0.0000  0.0068 -0.1011  0.0000  0.0453
  46.  C 4 (py)    -0.0906  0.0000  0.0000  0.1151  0.0000  0.0000  0.0141  0.0000
  47.  C 4 (pz)     0.0000  0.3760 -0.0980  0.0000 -0.0772 -0.0341  0.0000  0.0312
  48.  C 4 (s)      0.0000 -0.2572  0.3713  0.0000 -3.2835 -5.9134  0.0000 -2.1812
  49.  C 4 (px)     0.0000 -0.8186  0.1953  0.0000 -0.2878 -1.6794  0.0000 -1.5859
  50.  C 4 (py)    -0.0115  0.0000  0.0000 -0.4902  0.0000  0.0000 -2.0477  0.0000
  51.  C 4 (pz)     0.0000 -0.5528  0.1974  0.0000 -0.3358  0.0807  0.0000 -2.2900
  52.  C 4 (d5)     0.0000  0.1188  0.0299  0.0000  0.0078 -0.0028  0.0000 -0.2395
  53.  C 4 (d2)     0.0000  0.0812 -0.0146  0.0000  0.0388  0.0648  0.0000  0.1839
  54.  C 4 (d3)    -0.0881  0.0000  0.0000  0.0210  0.0000  0.0000 -0.0229  0.0000
  55.  C 4 (d4)     0.0000  0.0403  0.0137  0.0000 -0.0032 -0.0140  0.0000  0.0955
  56.  C 4 (d1)     0.1744  0.0000  0.0000 -0.0133  0.0000  0.0000 -0.1309  0.0000
  57.  H 5 (s)      0.4507  0.0000  0.3087 -0.5248 -0.0747  0.0000 -0.1010 -0.3817
  58.  H 5 (s)     -0.4528  0.0000 -0.5333  1.2179 -0.3552  0.0000 -0.0150 -0.5824
  59.  H 6 (s)     -0.5714  0.0000  0.5531 -0.4788 -0.3630  0.0000 -0.4405  0.1743
  60.  H 6 (s)      0.0664  0.0000 -1.1285  0.7043 -0.4514  0.0000 -0.5742  0.3549
  61.  H 7 (s)     -0.4507  0.0000  0.3087  0.5248 -0.0747  0.0000  0.1010 -0.3817
  62.  H 7 (s)      0.4528  0.0000 -0.5333 -1.2179 -0.3552  0.0000  0.0150 -0.5824
  63.  H 8 (s)      0.5714  0.0000  0.5531  0.4788 -0.3630  0.0000  0.4405  0.1743
  64.  H 8 (s)     -0.0664  0.0000 -1.1285 -0.7043 -0.4514  0.0000  0.5742  0.3549
  65.  H 9 (s)      0.0000 -0.7466 -0.1350  0.0000  0.2249 -0.1919  0.0000 -0.6316
  66.  H 9 (s)      0.0000  1.1363  0.1871  0.0000  0.2809 -0.5694  0.0000 -0.8072
  67.  H10 (s)      0.0000  0.7466 -0.1350  0.0000  0.2249  0.1919  0.0000 -0.6316
  68.  H10 (s)      0.0000 -1.1363  0.1871  0.0000  0.2809  0.5694  0.0000 -0.8072

           AO         49      50      51      52      53      54      55      56
      ------------ ------- ------- ------- ------- ------- ------- ------- -------
   1.  C 1 (s)      0.0000 -0.0428 -0.0260  0.0000 -0.0424  0.0000 -0.0151  0.0000
   2.  C 1 (s)      0.0000 -0.7174 -0.1287  0.0000 -0.2350  0.0000  0.5262  0.0000
   3.  C 1 (px)     0.1134  0.0000  0.0000 -0.1600  0.0000  0.1455  0.0000  0.0515
   4.  C 1 (py)     0.0000  0.2162  0.1614  0.0000 -0.1070  0.0000 -0.2339  0.0000
   5.  C 1 (pz)     0.0000  0.0483  0.0041  0.0000  0.0841  0.0000 -0.1197  0.0000
   6.  C 1 (s)      0.0000  1.4933 -0.8910  0.0000  0.9503  0.0000 -0.5046  0.0000
   7.  C 1 (px)     0.1266  0.0000  0.0000 -0.0611  0.0000 -0.2083  0.0000 -0.2420
   8.  C 1 (py)     0.0000 -1.1489  0.8166  0.0000 -0.1229  0.0000  0.5001  0.0000
   9.  C 1 (pz)     0.0000  0.7387 -0.5798  0.0000  0.0628  0.0000  0.3783  0.0000
  10.  C 1 (d5)     0.0000  0.1286  0.1214  0.0000  0.3066  0.0000  0.3512  0.0000
  11.  C 1 (d2)    -0.3469  0.0000  0.0000 -0.5334  0.0000  0.5797  0.0000 -0.2013
  12.  C 1 (d3)     0.0000  0.0936 -0.1012  0.0000  0.0603  0.0000 -0.3468  0.0000
  13.  C 1 (d4)     0.0000 -0.1633 -0.4057  0.0000  0.0161  0.0000  0.0610  0.0000
  14.  C 1 (d1)     0.4144  0.0000  0.0000  0.0638  0.0000  0.1394  0.0000  0.5839
  15.  C 2 (s)      0.0000  0.0428 -0.0260  0.0000 -0.0424  0.0000  0.0151  0.0000
  16.  C 2 (s)      0.0000  0.7174 -0.1287  0.0000 -0.2350  0.0000 -0.5262  0.0000
  17.  C 2 (px)    -0.1134  0.0000  0.0000 -0.1600  0.0000 -0.1455  0.0000  0.0515
  18.  C 2 (py)     0.0000  0.2162 -0.1614  0.0000  0.1070  0.0000 -0.2339  0.0000
  19.  C 2 (pz)     0.0000 -0.0483  0.0041  0.0000  0.0841  0.0000  0.1197  0.0000
  20.  C 2 (s)      0.0000 -1.4933 -0.8910  0.0000  0.9503  0.0000  0.5046  0.0000
  21.  C 2 (px)    -0.1266  0.0000  0.0000 -0.0611  0.0000  0.2083  0.0000 -0.2420
  22.  C 2 (py)     0.0000 -1.1489 -0.8166  0.0000  0.1229  0.0000  0.5001  0.0000
  23.  C 2 (pz)     0.0000 -0.7387 -0.5798  0.0000  0.0628  0.0000 -0.3783  0.0000
  24.  C 2 (d5)     0.0000 -0.1286  0.1214  0.0000  0.3066  0.0000 -0.3512  0.0000
  25.  C 2 (d2)     0.3469  0.0000  0.0000 -0.5334  0.0000 -0.5797  0.0000 -0.2013
  26.  C 2 (d3)     0.0000  0.0936  0.1012  0.0000 -0.0603  0.0000 -0.3468  0.0000
  27.  C 2 (d4)     0.0000  0.1633 -0.4057  0.0000  0.0161  0.0000 -0.0610  0.0000
  28.  C 2 (d1)     0.4144  0.0000  0.0000 -0.0638  0.0000  0.1394  0.0000 -0.5839
  29.  C 3 (s)      0.0000  0.0000 -0.0362  0.0203  0.0265  0.0000  0.0000 -0.0381
  30.  C 3 (s)      0.0000  0.0000 -0.5914 -0.1747 -0.0985  0.0000  0.0000  0.2019
  31.  C 3 (px)     0.0000  0.0000  0.3183  0.0525  0.2091  0.0000  0.0000 -0.2052
  32.  C 3 (py)     0.1522 -0.1682  0.0000  0.0000  0.0000  0.2204  0.2248  0.0000
  33.  C 3 (pz)     0.0000  0.0000 -0.2261 -0.1084  0.1378  0.0000  0.0000  0.1103
  34.  C 3 (s)      0.0000  0.0000  0.9731  0.3934 -0.6084  0.0000  0.0000  0.4278
  35.  C 3 (px)     0.0000  0.0000 -0.7449 -0.7917 -0.1935  0.0000  0.0000 -0.2631
  36.  C 3 (py)    -0.3762 -0.0708  0.0000  0.0000  0.0000  0.0216 -0.0562  0.0000
  37.  C 3 (pz)     0.0000  0.0000  1.0299  0.9942 -0.1452  0.0000  0.0000  0.2954
  38.  C 3 (d5)     0.0000  0.0000  0.1090 -0.3069 -0.3608  0.0000  0.0000  0.1673
  39.  C 3 (d2)     0.0000  0.0000 -0.2722 -0.0408  0.3088  0.0000  0.0000  0.2668
  40.  C 3 (d3)    -0.3678 -0.3424  0.0000  0.0000  0.0000 -0.3044 -0.3937  0.0000
  41.  C 3 (d4)     0.0000  0.0000  0.2793 -0.2135  0.3230  0.0000  0.0000  0.2278
  42.  C 3 (d1)    -0.0905 -0.3887  0.0000  0.0000  0.0000  0.1674  0.2204  0.0000
  43.  C 4 (s)      0.0000  0.0000 -0.0362 -0.0203  0.0265  0.0000  0.0000  0.0381
  44.  C 4 (s)      0.0000  0.0000 -0.5914  0.1747 -0.0985  0.0000  0.0000 -0.2019
  45.  C 4 (px)     0.0000  0.0000 -0.3183  0.0525 -0.2091  0.0000  0.0000 -0.2052
  46.  C 4 (py)    -0.1522 -0.1682  0.0000  0.0000  0.0000 -0.2204  0.2248  0.0000
  47.  C 4 (pz)     0.0000  0.0000 -0.2261  0.1084  0.1378  0.0000  0.0000 -0.1103
  48.  C 4 (s)      0.0000  0.0000  0.9731 -0.3934 -0.6084  0.0000  0.0000 -0.4278
  49.  C 4 (px)     0.0000  0.0000  0.7449 -0.7917  0.1935  0.0000  0.0000 -0.2631
  50.  C 4 (py)     0.3762 -0.0708  0.0000  0.0000  0.0000 -0.0216 -0.0562  0.0000
  51.  C 4 (pz)     0.0000  0.0000  1.0299 -0.9942 -0.1452  0.0000  0.0000 -0.2954
  52.  C 4 (d5)     0.0000  0.0000  0.1090  0.3069 -0.3608  0.0000  0.0000 -0.1673
  53.  C 4 (d2)     0.0000  0.0000  0.2722 -0.0408 -0.3088  0.0000  0.0000  0.2668
  54.  C 4 (d3)     0.3678 -0.3424  0.0000  0.0000  0.0000  0.3044 -0.3937  0.0000
  55.  C 4 (d4)     0.0000  0.0000  0.2793  0.2135  0.3230  0.0000  0.0000 -0.2278
  56.  C 4 (d1)    -0.0905  0.3887  0.0000  0.0000  0.0000  0.1674 -0.2204  0.0000
  57.  H 5 (s)      0.0000 -0.5380  0.1407  0.0000 -0.4067  0.0000 -0.2703  0.0000
  58.  H 5 (s)      0.0000 -0.3445  0.2229  0.0000 -0.0600  0.0000 -0.0392  0.0000
  59.  H 6 (s)      0.0000  0.1581 -0.4959  0.0000  0.0334  0.0000 -0.1388  0.0000
  60.  H 6 (s)      0.0000  0.3698 -0.2410  0.0000 -0.1438  0.0000  0.0652  0.0000
  61.  H 7 (s)      0.0000  0.5380  0.1407  0.0000 -0.4067  0.0000  0.2703  0.0000
  62.  H 7 (s)      0.0000  0.3445  0.2229  0.0000 -0.0600  0.0000  0.0392  0.0000
  63.  H 8 (s)      0.0000 -0.1581 -0.4959  0.0000  0.0334  0.0000  0.1388  0.0000
  64.  H 8 (s)      0.0000 -0.3698 -0.2410  0.0000 -0.1438  0.0000 -0.0652  0.0000
  65.  H 9 (s)      0.0000  0.0000 -0.1978  0.4113  0.3391  0.0000  0.0000  0.1149
  66.  H 9 (s)      0.0000  0.0000  0.5173  0.4868 -0.0172  0.0000  0.0000  0.1274
  67.  H10 (s)      0.0000  0.0000 -0.1978 -0.4113  0.3391  0.0000  0.0000 -0.1149
  68.  H10 (s)      0.0000  0.0000  0.5173 -0.4868 -0.0172  0.0000  0.0000 -0.1274

           AO         57      58      59      60      61      62      63      64
      ------------ ------- ------- ------- ------- ------- ------- ------- -------
   1.  C 1 (s)      0.0241  0.0000 -0.0401  0.0000  0.0447 -0.0039 -0.0397  0.0000
   2.  C 1 (s)     -0.1905  0.0000 -0.5251  0.0000  0.1885 -0.1229  0.1175  0.0000
   3.  C 1 (px)     0.0000  0.0461  0.0000 -0.1628  0.0000  0.0000  0.0000 -0.0770
   4.  C 1 (py)     0.2222  0.0000  0.1641  0.0000  0.1946  0.0768 -0.3660  0.0000
   5.  C 1 (pz)     0.2146  0.0000 -0.0292  0.0000  0.0805  0.0976 -0.1980  0.0000
   6.  C 1 (s)     -1.2269  0.0000  1.6166  0.0000 -1.0527  0.0766  3.5818  0.0000
   7.  C 1 (px)     0.0000 -0.1094  0.0000 -0.3503  0.0000  0.0000  0.0000 -0.2777
   8.  C 1 (py)     0.4070  0.0000 -0.2827  0.0000  0.5709 -0.1477 -1.4419  0.0000
   9.  C 1 (pz)     0.1362  0.0000 -0.4699  0.0000  0.6251  0.1346  0.1631  0.0000
  10.  C 1 (d5)     0.3465  0.0000 -0.0439  0.0000  0.3809  0.6752  0.2456  0.0000
  11.  C 1 (d2)     0.0000 -0.1225  0.0000  0.3976  0.0000  0.0000  0.0000 -0.1367
  12.  C 1 (d3)     0.3065  0.0000 -0.3375  0.0000 -0.6878  0.2836  0.0242  0.0000
  13.  C 1 (d4)    -0.2042  0.0000 -0.6585  0.0000  0.1701 -0.0786 -0.4475  0.0000
  14.  C 1 (d1)     0.0000  0.3334  0.0000  0.3003  0.0000  0.0000  0.0000  0.2304
  15.  C 2 (s)      0.0241  0.0000  0.0401  0.0000  0.0447  0.0039 -0.0397  0.0000
  16.  C 2 (s)     -0.1905  0.0000  0.5251  0.0000  0.1885  0.1229  0.1175  0.0000
  17.  C 2 (px)     0.0000 -0.0461  0.0000 -0.1628  0.0000  0.0000  0.0000 -0.0770
  18.  C 2 (py)    -0.2222  0.0000  0.1641  0.0000 -0.1946  0.0768  0.3660  0.0000
  19.  C 2 (pz)     0.2146  0.0000  0.0292  0.0000  0.0805 -0.0976 -0.1980  0.0000
  20.  C 2 (s)     -1.2269  0.0000 -1.6166  0.0000 -1.0527 -0.0766  3.5818  0.0000
  21.  C 2 (px)     0.0000  0.1094  0.0000 -0.3503  0.0000  0.0000  0.0000 -0.2777
  22.  C 2 (py)    -0.4070  0.0000 -0.2827  0.0000 -0.5709 -0.1477  1.4419  0.0000
  23.  C 2 (pz)     0.1362  0.0000  0.4699  0.0000  0.6251 -0.1346  0.1631  0.0000
  24.  C 2 (d5)     0.3465  0.0000  0.0439  0.0000  0.3809 -0.6752  0.2456  0.0000
  25.  C 2 (d2)     0.0000  0.1225  0.0000  0.3976  0.0000  0.0000  0.0000 -0.1367
  26.  C 2 (d3)    -0.3065  0.0000 -0.3375  0.0000  0.6878  0.2836 -0.0242  0.0000
  27.  C 2 (d4)    -0.2042  0.0000  0.6585  0.0000  0.1701  0.0786 -0.4475  0.0000
  28.  C 2 (d1)     0.0000  0.3334  0.0000 -0.3003  0.0000  0.0000  0.0000 -0.2304
  29.  C 3 (s)     -0.0503  0.0000  0.0000 -0.0881 -0.0451  0.0000  0.1085 -0.0636
  30.  C 3 (s)     -0.5704  0.0000  0.0000 -0.1210  0.3416  0.0000  1.3158 -0.2512
  31.  C 3 (px)     0.0536  0.0000  0.0000 -0.4106 -0.2821  0.0000 -0.3273 -0.1133
  32.  C 3 (py)     0.0000  0.0985  0.0496  0.0000  0.0000 -0.0212  0.0000  0.0000
  33.  C 3 (pz)    -0.0326  0.0000  0.0000  0.0954  0.2250  0.0000  0.1650 -0.0181
  34.  C 3 (s)      1.3444  0.0000  0.0000  2.3355  1.0810  0.0000 -3.0741  1.8539
  35.  C 3 (px)    -0.5885  0.0000  0.0000 -1.1983 -0.1027  0.0000  1.9151 -0.8267
  36.  C 3 (py)     0.0000 -0.1807 -0.5546  0.0000  0.0000  0.0905  0.0000  0.0000
  37.  C 3 (pz)     0.6939  0.0000  0.0000  0.3756 -0.0245  0.0000 -1.9636  0.3507
  38.  C 3 (d5)    -0.1979  0.0000  0.0000 -0.7449 -0.1856  0.0000  0.4022  0.0209
  39.  C 3 (d2)    -0.1636  0.0000  0.0000 -0.0171 -0.2918  0.0000  0.3739 -0.8049
  40.  C 3 (d3)     0.0000  0.3805  0.1460  0.0000  0.0000  0.4093  0.0000  0.0000
  41.  C 3 (d4)    -0.4501  0.0000  0.0000  0.1583 -0.1885  0.0000 -0.0816  0.3748
  42.  C 3 (d1)     0.0000  0.6119  0.0834  0.0000  0.0000  0.1505  0.0000  0.0000
  43.  C 4 (s)     -0.0503  0.0000  0.0000  0.0881 -0.0451  0.0000  0.1085  0.0636
  44.  C 4 (s)     -0.5704  0.0000  0.0000  0.1210  0.3416  0.0000  1.3158  0.2512
  45.  C 4 (px)    -0.0536  0.0000  0.0000 -0.4106  0.2821  0.0000  0.3273 -0.1133
  46.  C 4 (py)     0.0000 -0.0985  0.0496  0.0000  0.0000 -0.0212  0.0000  0.0000
  47.  C 4 (pz)    -0.0326  0.0000  0.0000 -0.0954  0.2250  0.0000  0.1650  0.0181
  48.  C 4 (s)      1.3444  0.0000  0.0000 -2.3355  1.0810  0.0000 -3.0741 -1.8539
  49.  C 4 (px)     0.5885  0.0000  0.0000 -1.1983  0.1027  0.0000 -1.9151 -0.8267
  50.  C 4 (py)     0.0000  0.1807 -0.5546  0.0000  0.0000  0.0905  0.0000  0.0000
  51.  C 4 (pz)     0.6939  0.0000  0.0000 -0.3756 -0.0245  0.0000 -1.9636 -0.3507
  52.  C 4 (d5)    -0.1979  0.0000  0.0000  0.7449 -0.1856  0.0000  0.4022 -0.0209
  53.  C 4 (d2)     0.1636  0.0000  0.0000 -0.0171  0.2918  0.0000 -0.3739 -0.8049
  54.  C 4 (d3)     0.0000 -0.3805  0.1460  0.0000  0.0000  0.4093  0.0000  0.0000
  55.  C 4 (d4)    -0.4501  0.0000  0.0000 -0.1583 -0.1885  0.0000 -0.0816 -0.3748
  56.  C 4 (d1)     0.0000  0.6119 -0.0834  0.0000  0.0000 -0.1505  0.0000  0.0000
  57.  H 5 (s)     -0.2103  0.0000  0.0307  0.0000 -0.2099 -0.4948 -0.4244  0.0000
  58.  H 5 (s)      0.0581  0.0000 -0.0687  0.0000 -0.0840  0.1496 -0.2488  0.0000
  59.  H 6 (s)      0.2037  0.0000 -0.6366  0.0000 -0.1544  0.1728 -0.1782  0.0000
  60.  H 6 (s)     -0.0584  0.0000  0.0016  0.0000  0.1368 -0.0119  0.1943  0.0000
  61.  H 7 (s)     -0.2103  0.0000 -0.0307  0.0000 -0.2099  0.4948 -0.4244  0.0000
  62.  H 7 (s)      0.0581  0.0000  0.0687  0.0000 -0.0840 -0.1496 -0.2488  0.0000
  63.  H 8 (s)      0.2037  0.0000  0.6366  0.0000 -0.1544 -0.1728 -0.1782  0.0000
  64.  H 8 (s)     -0.0584  0.0000 -0.0016  0.0000  0.1368  0.0119  0.1943  0.0000
  65.  H 9 (s)      0.1203  0.0000  0.0000  0.1751 -0.1158  0.0000 -0.0749 -0.5019
  66.  H 9 (s)      0.1851  0.0000  0.0000  0.0967 -0.0963  0.0000 -0.8614  0.2979
  67.  H10 (s)      0.1203  0.0000  0.0000 -0.1751 -0.1158  0.0000 -0.0749  0.5019
  68.  H10 (s)      0.1851  0.0000  0.0000 -0.0967 -0.0963  0.0000 -0.8614 -0.2979

           AO         65      66      67      68
      ------------ ------- ------- ------- -------
   1.  C 1 (s)     -0.0898 -0.0012  0.0000  0.0000
   2.  C 1 (s)     -0.2153  0.0339  0.0000  0.0000
   3.  C 1 (px)     0.0000  0.0000  0.1244 -0.2580
   4.  C 1 (py)    -0.3018 -0.0357  0.0000  0.0000
   5.  C 1 (pz)    -0.1894 -0.0540  0.0000  0.0000
   6.  C 1 (s)      1.9613  0.4895  0.0000  0.0000
   7.  C 1 (px)     0.0000  0.0000  0.2910 -0.4867
   8.  C 1 (py)    -1.0450 -0.2693  0.0000  0.0000
   9.  C 1 (pz)    -0.4524  0.2318  0.0000  0.0000
  10.  C 1 (d5)    -0.2166  0.4327  0.0000  0.0000
  11.  C 1 (d2)     0.0000  0.0000 -0.2763  0.3464
  12.  C 1 (d3)     0.6239  0.3506  0.0000  0.0000
  13.  C 1 (d4)    -0.3319  0.4363  0.0000  0.0000
  14.  C 1 (d1)     0.0000  0.0000 -0.4803  0.6355
  15.  C 2 (s)      0.0898 -0.0012  0.0000  0.0000
  16.  C 2 (s)      0.2153  0.0339  0.0000  0.0000
  17.  C 2 (px)     0.0000  0.0000  0.1244  0.2580
  18.  C 2 (py)    -0.3018  0.0357  0.0000  0.0000
  19.  C 2 (pz)     0.1894 -0.0540  0.0000  0.0000
  20.  C 2 (s)     -1.9613  0.4895  0.0000  0.0000
  21.  C 2 (px)     0.0000  0.0000  0.2910  0.4867
  22.  C 2 (py)    -1.0450  0.2693  0.0000  0.0000
  23.  C 2 (pz)     0.4524  0.2318  0.0000  0.0000
  24.  C 2 (d5)     0.2166  0.4327  0.0000  0.0000
  25.  C 2 (d2)     0.0000  0.0000 -0.2763 -0.3464
  26.  C 2 (d3)     0.6239 -0.3506  0.0000  0.0000
  27.  C 2 (d4)     0.3319  0.4363  0.0000  0.0000
  28.  C 2 (d1)     0.0000  0.0000  0.4803  0.6355
  29.  C 3 (s)      0.0000  0.0057 -0.0044  0.0000
  30.  C 3 (s)      0.0000  0.2162 -0.0719  0.0000
  31.  C 3 (px)     0.0000 -0.0269 -0.1613  0.0000
  32.  C 3 (py)    -0.3776  0.0000  0.0000  0.3175
  33.  C 3 (pz)     0.0000  0.0319 -0.1421  0.0000
  34.  C 3 (s)      0.0000 -0.3378  0.2823  0.0000
  35.  C 3 (px)     0.0000  0.3089 -0.4637  0.0000
  36.  C 3 (py)    -0.8487  0.0000  0.0000  0.7469
  37.  C 3 (pz)     0.0000 -0.3782 -0.2185  0.0000
  38.  C 3 (d5)     0.0000  0.4017 -0.2046  0.0000
  39.  C 3 (d2)     0.0000 -0.3360  0.2778  0.0000
  40.  C 3 (d3)    -0.4270  0.0000  0.0000  0.5491
  41.  C 3 (d4)     0.0000  0.2858  0.8412  0.0000
  42.  C 3 (d1)     0.6082  0.0000  0.0000 -0.6285
  43.  C 4 (s)      0.0000  0.0057  0.0044  0.0000
  44.  C 4 (s)      0.0000  0.2162  0.0719  0.0000
  45.  C 4 (px)     0.0000  0.0269 -0.1613  0.0000
  46.  C 4 (py)    -0.3776  0.0000  0.0000 -0.3175
  47.  C 4 (pz)     0.0000  0.0319  0.1421  0.0000
  48.  C 4 (s)      0.0000 -0.3378 -0.2823  0.0000
  49.  C 4 (px)     0.0000 -0.3089 -0.4637  0.0000
  50.  C 4 (py)    -0.8487  0.0000  0.0000 -0.7469
  51.  C 4 (pz)     0.0000 -0.3782  0.2185  0.0000
  52.  C 4 (d5)     0.0000  0.4017  0.2046  0.0000
  53.  C 4 (d2)     0.0000  0.3360  0.2778  0.0000
  54.  C 4 (d3)    -0.4270  0.0000  0.0000 -0.5491
  55.  C 4 (d4)     0.0000  0.2858 -0.8412  0.0000
  56.  C 4 (d1)    -0.6082  0.0000  0.0000 -0.6285
  57.  H 5 (s)     -0.0402 -0.3155  0.0000  0.0000
  58.  H 5 (s)      0.0377 -0.0466  0.0000  0.0000
  59.  H 6 (s)      0.0543  0.3536  0.0000  0.0000
  60.  H 6 (s)      0.1174 -0.0447  0.0000  0.0000
  61.  H 7 (s)      0.0402 -0.3155  0.0000  0.0000
  62.  H 7 (s)     -0.0377 -0.0466  0.0000  0.0000
  63.  H 8 (s)     -0.0543  0.3536  0.0000  0.0000
  64.  H 8 (s)     -0.1174 -0.0447  0.0000  0.0000
  65.  H 9 (s)      0.0000 -0.3799  0.0165  0.0000
  66.  H 9 (s)      0.0000 -0.0317  0.0077  0.0000
  67.  H10 (s)      0.0000 -0.3799 -0.0165  0.0000
  68.  H10 (s)      0.0000 -0.0317 -0.0077  0.0000


 AO overlap matrix:

           AO          1       2       3       4       5       6       7       8
      ------------ ------- ------- ------- ------- ------- ------- ------- -------
   1.  C 1 (s)      1.0000  0.2191  0.0000  0.0000  0.0000  0.1843  0.0000  0.0000
   2.  C 1 (s)      0.2191  1.0000  0.0000  0.0000  0.0000  0.8123  0.0000  0.0000
   3.  C 1 (px)     0.0000  0.0000  1.0000  0.0000  0.0000  0.0000  0.5698  0.0000
   4.  C 1 (py)     0.0000  0.0000  0.0000  1.0000  0.0000  0.0000  0.0000  0.5698
   5.  C 1 (pz)     0.0000  0.0000  0.0000  0.0000  1.0000  0.0000  0.0000  0.0000
   6.  C 1 (s)      0.1843  0.8123  0.0000  0.0000  0.0000  1.0000  0.0000  0.0000
   7.  C 1 (px)     0.0000  0.0000  0.5698  0.0000  0.0000  0.0000  1.0000  0.0000
   8.  C 1 (py)     0.0000  0.0000  0.0000  0.5698  0.0000  0.0000  0.0000  1.0000
   9.  C 1 (pz)     0.0000  0.0000  0.0000  0.0000  0.5698  0.0000  0.0000  0.0000
  10.  C 1 (d5)     0.0000  0.0000  0.0000  0.0000  0.0000  0.0000  0.0000  0.0000
  11.  C 1 (d2)     0.0000  0.0000  0.0000  0.0000  0.0000  0.0000  0.0000  0.0000
  12.  C 1 (d3)     0.0000  0.0000  0.0000  0.0000  0.0000  0.0000  0.0000  0.0000
  13.  C 1 (d4)     0.0000  0.0000  0.0000  0.0000  0.0000  0.0000  0.0000  0.0000
  14.  C 1 (d1)     0.0000  0.0000  0.0000  0.0000  0.0000  0.0000  0.0000  0.0000
  15.  C 2 (s)      0.0000  0.0001  0.0000 -0.0002  0.0000  0.0094  0.0000 -0.0319
  16.  C 2 (s)      0.0001  0.0089  0.0000 -0.0187  0.0000  0.0803  0.0000 -0.2126
  17.  C 2 (px)     0.0000  0.0000  0.0040  0.0000  0.0000  0.0000  0.0514  0.0000
  18.  C 2 (py)     0.0002  0.0187  0.0000 -0.0362  0.0000  0.0903  0.0000 -0.1948
  19.  C 2 (pz)     0.0000  0.0000  0.0000  0.0000  0.0040  0.0000  0.0000  0.0000
  20.  C 2 (s)      0.0094  0.0803  0.0000 -0.0903  0.0000  0.2139  0.0000 -0.3757
  21.  C 2 (px)     0.0000  0.0000  0.0514  0.0000  0.0000  0.0000  0.2139  0.0000
  22.  C 2 (py)     0.0319  0.2126  0.0000 -0.1948  0.0000  0.3757  0.0000 -0.4459
  23.  C 2 (pz)     0.0000  0.0000  0.0000  0.0000  0.0514  0.0000  0.0000  0.0000
  24.  C 2 (d5)     0.0000 -0.0082  0.0000  0.0170  0.0000 -0.0265  0.0000  0.0467
  25.  C 2 (d2)     0.0000  0.0000  0.0000  0.0000  0.0000  0.0000  0.0000  0.0000
  26.  C 2 (d3)     0.0000  0.0000  0.0000  0.0000  0.0059  0.0000  0.0000  0.0000
  27.  C 2 (d4)     0.0000 -0.0142  0.0000  0.0295  0.0000 -0.0459  0.0000  0.0809
  28.  C 2 (d1)     0.0000  0.0000  0.0059  0.0000  0.0000  0.0000  0.0523  0.0000
  29.  C 3 (s)      0.0000  0.0095  0.0115 -0.0174 -0.0096  0.0505  0.0566 -0.0856
  30.  C 3 (s)      0.0095  0.1388  0.1043 -0.1578 -0.0868  0.2978  0.2593 -0.3922
  31.  C 3 (px)    -0.0115 -0.1043 -0.0132  0.1326  0.0729 -0.1159  0.0946  0.1588
  32.  C 3 (py)     0.0174  0.1578  0.1326 -0.1261 -0.1103  0.1753  0.1588 -0.0406
  33.  C 3 (pz)     0.0096  0.0868  0.0729 -0.1103  0.0138  0.0964  0.0873 -0.1321
  34.  C 3 (s)      0.0505  0.2978  0.1159 -0.1753 -0.0964  0.5113  0.2969 -0.4490
  35.  C 3 (px)    -0.0566 -0.2593  0.0946  0.1588  0.0873 -0.2969  0.3390  0.2607
  36.  C 3 (py)     0.0856  0.3922  0.1588 -0.0406 -0.1321  0.4490  0.2607  0.1170
  37.  C 3 (pz)     0.0471  0.2157  0.0873 -0.1321  0.1269  0.2470  0.1434 -0.2169
  38.  C 3 (d5)    -0.0055 -0.0455 -0.0109  0.0165  0.0966 -0.0233  0.0198 -0.0299
  39.  C 3 (d2)    -0.0084 -0.0689 -0.0191  0.1053 -0.0028 -0.0352  0.0269  0.0510
  40.  C 3 (d3)     0.0127  0.1041  0.1053 -0.1088  0.0042  0.0532  0.0510 -0.0166
  41.  C 3 (d4)    -0.0065 -0.0533 -0.1146 -0.0103  0.0448 -0.0272 -0.0990 -0.0707
  42.  C 3 (d1)    -0.0153 -0.1252 -0.0347  0.1307  0.1053 -0.0640  0.0489  0.0199
  43.  C 4 (s)      0.0000  0.0095 -0.0115 -0.0174 -0.0096  0.0505 -0.0566 -0.0856
  44.  C 4 (s)      0.0095  0.1388 -0.1043 -0.1578 -0.0868  0.2978 -0.2593 -0.3922
  45.  C 4 (px)     0.0115  0.1043 -0.0132 -0.1326 -0.0729  0.1159  0.0946 -0.1588
  46.  C 4 (py)     0.0174  0.1578 -0.1326 -0.1261 -0.1103  0.1753 -0.1588 -0.0406
  47.  C 4 (pz)     0.0096  0.0868 -0.0729 -0.1103  0.0138  0.0964 -0.0873 -0.1321
  48.  C 4 (s)      0.0505  0.2978 -0.1159 -0.1753 -0.0964  0.5113 -0.2969 -0.4490
  49.  C 4 (px)     0.0566  0.2593  0.0946 -0.1588 -0.0873  0.2969  0.3390 -0.2607
  50.  C 4 (py)     0.0856  0.3922 -0.1588 -0.0406 -0.1321  0.4490 -0.2607  0.1170
  51.  C 4 (pz)     0.0471  0.2157 -0.0873 -0.1321  0.1269  0.2470 -0.1434 -0.2169
  52.  C 4 (d5)    -0.0055 -0.0455  0.0109  0.0165  0.0966 -0.0233 -0.0198 -0.0299
  53.  C 4 (d2)     0.0084  0.0689 -0.0191 -0.1053  0.0028  0.0352  0.0269 -0.0510
  54.  C 4 (d3)     0.0127  0.1041 -0.1053 -0.1088  0.0042  0.0532 -0.0510 -0.0166
  55.  C 4 (d4)    -0.0065 -0.0533  0.1146 -0.0103  0.0448 -0.0272  0.0990 -0.0707
  56.  C 4 (d1)     0.0153  0.1252 -0.0347 -0.1307 -0.1053  0.0640  0.0489 -0.0199
  57.  H 5 (s)      0.0324  0.2722  0.0000  0.0356  0.3662  0.3761  0.0000  0.0498
  58.  H 5 (s)      0.0919  0.4751  0.0000  0.0257  0.2645  0.7035  0.0000  0.0564
  59.  H 6 (s)      0.0330  0.2747  0.0000  0.3220 -0.1831  0.3777  0.0000  0.4478
  60.  H 6 (s)      0.0924  0.4769  0.0000  0.2310 -0.1314  0.7053  0.0000  0.5062
  61.  H 7 (s)      0.0000  0.0007  0.0000 -0.0017  0.0008  0.0250  0.0000 -0.0736
  62.  H 7 (s)      0.0041  0.0409  0.0000 -0.0457  0.0210  0.1353  0.0000 -0.2432
  63.  H 8 (s)      0.0000  0.0000  0.0000  0.0000  0.0000  0.0040  0.0000 -0.0160
  64.  H 8 (s)      0.0005  0.0077  0.0000 -0.0112 -0.0019  0.0443  0.0000 -0.1078
  65.  H 9 (s)      0.0000  0.0030  0.0043 -0.0034 -0.0045  0.0478  0.0842 -0.0674
  66.  H 9 (s)      0.0086  0.0739  0.0501 -0.0401 -0.0521  0.2010  0.2157 -0.1725
  67.  H10 (s)      0.0000  0.0030 -0.0043 -0.0034 -0.0045  0.0478 -0.0842 -0.0674
  68.  H10 (s)      0.0086  0.0739 -0.0501 -0.0401 -0.0521  0.2010 -0.2157 -0.1725

           AO          9      10      11      12      13      14      15      16
      ------------ ------- ------- ------- ------- ------- ------- ------- -------
   1.  C 1 (s)      0.0000  0.0000  0.0000  0.0000  0.0000  0.0000  0.0000  0.0001
   2.  C 1 (s)      0.0000  0.0000  0.0000  0.0000  0.0000  0.0000  0.0001  0.0089
   3.  C 1 (px)     0.0000  0.0000  0.0000  0.0000  0.0000  0.0000  0.0000  0.0000
   4.  C 1 (py)     0.0000  0.0000  0.0000  0.0000  0.0000  0.0000 -0.0002 -0.0187
   5.  C 1 (pz)     0.5698  0.0000  0.0000  0.0000  0.0000  0.0000  0.0000  0.0000
   6.  C 1 (s)      0.0000  0.0000  0.0000  0.0000  0.0000  0.0000  0.0094  0.0803
   7.  C 1 (px)     0.0000  0.0000  0.0000  0.0000  0.0000  0.0000  0.0000  0.0000
   8.  C 1 (py)     0.0000  0.0000  0.0000  0.0000  0.0000  0.0000 -0.0319 -0.2126
   9.  C 1 (pz)     1.0000  0.0000  0.0000  0.0000  0.0000  0.0000  0.0000  0.0000
  10.  C 1 (d5)     0.0000  1.0000  0.0000  0.0000  0.0000  0.0000  0.0000 -0.0082
  11.  C 1 (d2)     0.0000  0.0000  1.0000  0.0000  0.0000  0.0000  0.0000  0.0000
  12.  C 1 (d3)     0.0000  0.0000  0.0000  1.0000  0.0000  0.0000  0.0000  0.0000
  13.  C 1 (d4)     0.0000  0.0000  0.0000  0.0000  1.0000  0.0000  0.0000 -0.0142
  14.  C 1 (d1)     0.0000  0.0000  0.0000  0.0000  0.0000  1.0000  0.0000  0.0000
  15.  C 2 (s)      0.0000  0.0000  0.0000  0.0000  0.0000  0.0000  1.0000  0.2191
  16.  C 2 (s)      0.0000 -0.0082  0.0000  0.0000 -0.0142  0.0000  0.2191  1.0000
  17.  C 2 (px)     0.0000  0.0000  0.0000  0.0000  0.0000 -0.0059  0.0000  0.0000
  18.  C 2 (py)     0.0000 -0.0170  0.0000  0.0000 -0.0295  0.0000  0.0000  0.0000
  19.  C 2 (pz)     0.0514  0.0000  0.0000 -0.0059  0.0000  0.0000  0.0000  0.0000
  20.  C 2 (s)      0.0000 -0.0265  0.0000  0.0000 -0.0459  0.0000  0.1843  0.8123
  21.  C 2 (px)     0.0000  0.0000  0.0000  0.0000  0.0000 -0.0523  0.0000  0.0000
  22.  C 2 (py)     0.0000 -0.0467  0.0000  0.0000 -0.0809  0.0000  0.0000  0.0000
  23.  C 2 (pz)     0.2139  0.0000  0.0000 -0.0523  0.0000  0.0000  0.0000  0.0000
  24.  C 2 (d5)     0.0000  0.0093  0.0000  0.0000  0.0150  0.0000  0.0000  0.0000
  25.  C 2 (d2)     0.0000  0.0000  0.0007  0.0000  0.0000  0.0000  0.0000  0.0000
[...]
                                         0.0000  0.0000  0.0000 -0.0146  0.9160
                                         0.0000  0.0000  0.0000  0.0000 -0.1623
                                        -0.3665  0.0000  0.0000  0.0000
  40. (0.00002) RY ( 5) C  2            s(  1.94%)p13.72( 26.56%)d36.94( 71.50%)
  41. (0.00001) RY ( 6) C  2            s(  0.00%)p 1.00(  8.55%)d10.70( 91.45%)
  42. (0.00000) RY ( 7) C  2            s( 16.51%)p 0.42(  6.93%)d 4.64( 76.56%)
  43. (0.00000) RY ( 8) C  2            s(  5.04%)p 0.72(  3.63%)d18.11( 91.33%)
  44. (0.00000) RY ( 9) C  2            s(  0.00%)p 1.00(  7.77%)d11.88( 92.23%)
  45. (0.00309) RY ( 1) C  3            s(  3.74%)p24.77( 92.69%)d 0.95(  3.56%)
                                         0.0000 -0.0122  0.1931  0.0140 -0.3578
                                         0.0000  0.0000 -0.0238 -0.8934  0.0000
                                        -0.1349  0.0000  0.0542 -0.1203
  46. (0.00255) RY ( 2) C  3            s(  0.00%)p 1.00( 66.00%)d 0.52( 34.00%)
                                         0.0000  0.0000  0.0000  0.0000  0.0000
                                        -0.0460  0.8111  0.0000  0.0000 -0.5335
                                         0.0000 -0.2354  0.0000  0.0000
  47. (0.00190) RY ( 3) C  3            s(  7.40%)p 6.00( 44.43%)d 6.51( 48.18%)
                                         0.0000  0.0147  0.2716 -0.0296 -0.5512
                                         0.0000  0.0000  0.0232  0.3729  0.0000
                                        -0.5445  0.0000  0.4195  0.0968
  48. (0.00074) RY ( 4) C  3            s( 41.58%)p 1.01( 41.84%)d 0.40( 16.58%)
                                         0.0000 -0.0300  0.6441 -0.0054  0.6388
                                         0.0000  0.0000 -0.0033 -0.1014  0.0000
                                        -0.3091  0.0000  0.0522  0.2599
  49. (0.00024) RY ( 5) C  3            s(  0.00%)p 1.00( 20.04%)d 3.99( 79.96%)
                                         0.0000  0.0000  0.0000  0.0000  0.0000
                                         0.0287  0.4467  0.0000  0.0000  0.8269
                                         0.0000 -0.3404  0.0000  0.0000
  50. (0.00005) RY ( 6) C  3            s(  7.04%)p 0.87(  6.12%)d12.33( 86.84%)
  51. (0.00002) RY ( 7) C  3            s(  0.00%)p 1.00( 14.26%)d 6.01( 85.74%)
  52. (0.00000) RY ( 8) C  3            s( 37.71%)p 0.31( 11.58%)d 1.35( 50.72%)
  53. (0.00000) RY ( 9) C  3            s(  2.83%)p 1.26(  3.56%)d33.13( 93.62%)
  54. (0.00309) RY ( 1) C  4            s(  3.74%)p24.77( 92.69%)d 0.95(  3.56%)
                                         0.0000 -0.0122  0.1931 -0.0140  0.3578
                                         0.0000  0.0000 -0.0238 -0.8934  0.0000
                                         0.1349  0.0000  0.0542 -0.1203
  55. (0.00255) RY ( 2) C  4            s(  0.00%)p 1.00( 66.00%)d 0.52( 34.00%)
                                         0.0000  0.0000  0.0000  0.0000  0.0000
                                        -0.0460  0.8111  0.0000  0.0000  0.5335
                                         0.0000 -0.2354  0.0000  0.0000
  56. (0.00190) RY ( 3) C  4            s(  7.40%)p 6.00( 44.43%)d 6.51( 48.18%)
                                         0.0000  0.0147  0.2716  0.0296  0.5512
                                         0.0000  0.0000  0.0232  0.3729  0.0000
                                         0.5445  0.0000  0.4195  0.0968
  57. (0.00074) RY ( 4) C  4            s( 41.58%)p 1.01( 41.84%)d 0.40( 16.58%)
                                         0.0000 -0.0300  0.6441  0.0054 -0.6388
                                         0.0000  0.0000 -0.0033 -0.1014  0.0000
                                         0.3091  0.0000  0.0522  0.2599
  58. (0.00024) RY ( 5) C  4            s(  0.00%)p 1.00( 20.04%)d 3.99( 79.96%)
                                         0.0000  0.0000  0.0000  0.0000  0.0000
                                        -0.0287 -0.4467  0.0000  0.0000  0.8269
                                         0.0000  0.3404  0.0000  0.0000
  59. (0.00005) RY ( 6) C  4            s(  7.04%)p 0.87(  6.12%)d12.33( 86.84%)
  60. (0.00002) RY ( 7) C  4            s(  0.00%)p 1.00( 14.26%)d 6.01( 85.74%)
  61. (0.00000) RY ( 8) C  4            s( 37.71%)p 0.31( 11.58%)d 1.35( 50.72%)
  62. (0.00000) RY ( 9) C  4            s(  2.83%)p 1.26(  3.56%)d33.13( 93.62%)
  63. (0.00200) RY ( 1) H  5            s(100.00%)
                                        -0.0058  1.0000
  64. (0.00093) RY ( 1) H  6            s(100.00%)
                                        -0.0016  1.0000
  65. (0.00200) RY ( 1) H  7            s(100.00%)
                                        -0.0058  1.0000
  66. (0.00093) RY ( 1) H  8            s(100.00%)
                                        -0.0016  1.0000
  67. (0.00063) RY ( 1) H  9            s(100.00%)
                                        -0.0030  1.0000
  68. (0.00063) RY ( 1) H 10            s(100.00%)
                                        -0.0030  1.0000


 NHO DIRECTIONALITY AND BOND BENDING (deviation from line of nuclear centers at
                                      the position of maximum hybrid amplitude)

         [Thresholds for printing:  angular deviation  >  1.0 degree]
                                    p- or d-character  > 25.0%
                                    orbital occupancy  >  0.10e

                        Line of Centers        Hybrid 1             Hybrid 2
                        ---------------  -------------------  ------------------
           NBO            Theta   Phi    Theta   Phi    Dev   Theta   Phi    Dev
 ===============================================================================
   5. BD ( 1) C  1- C  3  114.6  303.5   106.5  322.4  19.4    58.2  101.0  21.0
   6. BD ( 1) C  1- C  4  114.6  236.5   106.5  217.6  19.4    58.2   79.0  21.0
   9. BD ( 1) C  2- C  3  114.6   56.5   106.5   37.6  19.4    58.2  259.0  21.0
  10. BD ( 1) C  2- C  4  114.6  123.5   106.5  142.4  19.4    58.2  281.0  21.0
  13. BD ( 1) C  3- C  4   90.0  180.0   113.6  180.0  23.6   113.6    0.0  23.6
  14. BD ( 1) C  3- H  9  141.9    0.0   139.8    0.0   2.1     --     --    --
  15. BD ( 1) C  4- H 10  141.9  180.0   139.8  180.0   2.1     --     --    --


 SECOND ORDER PERTURBATION THEORY ANALYSIS OF FOCK MATRIX IN NBO BASIS

     Threshold for printing:   0.50 kcal/mol
                                                          E(2) E(NL)-E(L) F(L,NL)
      Donor (L) NBO              Acceptor (NL) NBO      kcal/mol   a.u.    a.u.
 ===============================================================================

 within unit  1
    5. BD ( 1) C  1- C  3      17. BD*( 1) C  1- C  4      5.87    1.27   0.077
    5. BD ( 1) C  1- C  3      18. BD*( 1) C  1- H  5      0.76    1.39   0.029
    5. BD ( 1) C  1- C  3      23. BD*( 1) C  2- H  8      2.22    1.40   0.050
    5. BD ( 1) C  1- C  3      24. BD*( 1) C  3- C  4     10.33    1.16   0.098
    5. BD ( 1) C  1- C  3      25. BD*( 1) C  3- H  9      0.63    1.42   0.027
    5. BD ( 1) C  1- C  3      26. BD*( 1) C  4- H 10     10.37    1.42   0.108
    5. BD ( 1) C  1- C  3      36. RY ( 1) C  2            1.91    1.93   0.054
    5. BD ( 1) C  1- C  3      54. RY ( 1) C  4            0.90    1.61   0.034
    5. BD ( 1) C  1- C  3      55. RY ( 2) C  4            1.35    1.90   0.045
    6. BD ( 1) C  1- C  4      16. BD*( 1) C  1- C  3      5.87    1.27   0.077
    6. BD ( 1) C  1- C  4      18. BD*( 1) C  1- H  5      0.76    1.39   0.029
    6. BD ( 1) C  1- C  4      23. BD*( 1) C  2- H  8      2.22    1.40   0.050
    6. BD ( 1) C  1- C  4      24. BD*( 1) C  3- C  4     10.33    1.16   0.098
    6. BD ( 1) C  1- C  4      25. BD*( 1) C  3- H  9     10.37    1.42   0.108
    6. BD ( 1) C  1- C  4      26. BD*( 1) C  4- H 10      0.63    1.42   0.027
    6. BD ( 1) C  1- C  4      36. RY ( 1) C  2            1.91    1.93   0.054
    6. BD ( 1) C  1- C  4      45. RY ( 1) C  3            0.90    1.61   0.034
    6. BD ( 1) C  1- C  4      46. RY ( 2) C  3            1.35    1.90   0.045
    7. BD ( 1) C  1- H  5      25. BD*( 1) C  3- H  9      1.12    1.43   0.036
    7. BD ( 1) C  1- H  5      26. BD*( 1) C  4- H 10      1.12    1.43   0.036
    7. BD ( 1) C  1- H  5      45. RY ( 1) C  3            0.93    1.61   0.035
    7. BD ( 1) C  1- H  5      54. RY ( 1) C  4            0.93    1.61   0.035
    8. BD ( 1) C  1- H  6      20. BD*( 1) C  2- C  3      2.36    1.28   0.049
    8. BD ( 1) C  1- H  6      21. BD*( 1) C  2- C  4      2.36    1.28   0.049
    8. BD ( 1) C  1- H  6      47. RY ( 3) C  3            0.54    2.53   0.033
    8. BD ( 1) C  1- H  6      56. RY ( 3) C  4            0.54    2.53   0.033
    9. BD ( 1) C  2- C  3      19. BD*( 1) C  1- H  6      2.22    1.40   0.050
    9. BD ( 1) C  2- C  3      21. BD*( 1) C  2- C  4      5.87    1.27   0.077
    9. BD ( 1) C  2- C  3      22. BD*( 1) C  2- H  7      0.76    1.39   0.029
    9. BD ( 1) C  2- C  3      24. BD*( 1) C  3- C  4     10.33    1.16   0.098
    9. BD ( 1) C  2- C  3      25. BD*( 1) C  3- H  9      0.63    1.42   0.027
    9. BD ( 1) C  2- C  3      26. BD*( 1) C  4- H 10     10.37    1.42   0.108
    9. BD ( 1) C  2- C  3      27. RY ( 1) C  1            1.91    1.93   0.054
    9. BD ( 1) C  2- C  3      54. RY ( 1) C  4            0.90    1.61   0.034
    9. BD ( 1) C  2- C  3      55. RY ( 2) C  4            1.35    1.90   0.045
   10. BD ( 1) C  2- C  4      19. BD*( 1) C  1- H  6      2.22    1.40   0.050
   10. BD ( 1) C  2- C  4      20. BD*( 1) C  2- C  3      5.87    1.27   0.077
   10. BD ( 1) C  2- C  4      22. BD*( 1) C  2- H  7      0.76    1.39   0.029
   10. BD ( 1) C  2- C  4      24. BD*( 1) C  3- C  4     10.33    1.16   0.098
   10. BD ( 1) C  2- C  4      25. BD*( 1) C  3- H  9     10.37    1.42   0.108
   10. BD ( 1) C  2- C  4      26. BD*( 1) C  4- H 10      0.63    1.42   0.027
   10. BD ( 1) C  2- C  4      27. RY ( 1) C  1            1.91    1.93   0.054
   10. BD ( 1) C  2- C  4      45. RY ( 1) C  3            0.90    1.61   0.034
   10. BD ( 1) C  2- C  4      46. RY ( 2) C  3            1.35    1.90   0.045
   11. BD ( 1) C  2- H  7      25. BD*( 1) C  3- H  9      1.12    1.43   0.036
   11. BD ( 1) C  2- H  7      26. BD*( 1) C  4- H 10      1.12    1.43   0.036
   11. BD ( 1) C  2- H  7      45. RY ( 1) C  3            0.93    1.61   0.035
   11. BD ( 1) C  2- H  7      54. RY ( 1) C  4            0.93    1.61   0.035
   12. BD ( 1) C  2- H  8      16. BD*( 1) C  1- C  3      2.36    1.28   0.049
   12. BD ( 1) C  2- H  8      17. BD*( 1) C  1- C  4      2.36    1.28   0.049
   12. BD ( 1) C  2- H  8      47. RY ( 3) C  3            0.54    2.53   0.033
   12. BD ( 1) C  2- H  8      56. RY ( 3) C  4            0.54    2.53   0.033
   13. BD ( 1) C  3- C  4      16. BD*( 1) C  1- C  3      9.20    1.15   0.092
   13. BD ( 1) C  3- C  4      17. BD*( 1) C  1- C  4      9.20    1.15   0.092
   13. BD ( 1) C  3- C  4      18. BD*( 1) C  1- H  5     15.82    1.28   0.127
   13. BD ( 1) C  3- C  4      20. BD*( 1) C  2- C  3      9.20    1.15   0.092
   13. BD ( 1) C  3- C  4      21. BD*( 1) C  2- C  4      9.20    1.15   0.092
   13. BD ( 1) C  3- C  4      22. BD*( 1) C  2- H  7     15.82    1.28   0.127
   13. BD ( 1) C  3- C  4      25. BD*( 1) C  3- H  9      1.16    1.31   0.035
   13. BD ( 1) C  3- C  4      26. BD*( 1) C  4- H 10      1.16    1.31   0.035
   13. BD ( 1) C  3- C  4      28. RY ( 2) C  1            6.57    2.02   0.103
   13. BD ( 1) C  3- C  4      37. RY ( 2) C  2            6.57    2.02   0.103
   13. BD ( 1) C  3- C  4      52. RY ( 8) C  3            0.54    2.47   0.033
   13. BD ( 1) C  3- C  4      61. RY ( 8) C  4            0.54    2.47   0.033
   13. BD ( 1) C  3- C  4      63. RY ( 1) H  5            0.51    1.34   0.023
   13. BD ( 1) C  3- C  4      65. RY ( 1) H  7            0.51    1.34   0.023
   14. BD ( 1) C  3- H  9      18. BD*( 1) C  1- H  5      0.64    1.43   0.027
   14. BD ( 1) C  3- H  9      22. BD*( 1) C  2- H  7      0.64    1.43   0.027
   14. BD ( 1) C  3- H  9      27. RY ( 1) C  1            0.76    1.96   0.035
   14. BD ( 1) C  3- H  9      36. RY ( 1) C  2            0.76    1.96   0.035
   15. BD ( 1) C  4- H 10      18. BD*( 1) C  1- H  5      0.64    1.43   0.027
   15. BD ( 1) C  4- H 10      22. BD*( 1) C  2- H  7      0.64    1.43   0.027
   15. BD ( 1) C  4- H 10      27. RY ( 1) C  1            0.76    1.96   0.035
   15. BD ( 1) C  4- H 10      36. RY ( 1) C  2            0.76    1.96   0.035


 NATURAL BOND ORBITALS (Summary):

                                                     Principal Delocalizations
           NBO                 Occupancy    Energy   (geminal,vicinal,remote)
 ===============================================================================
 Molecular unit  1  (C4H6)
 ------ Lewis --------------------------------------
    1. CR ( 1) C  1             1.99999   -11.23600
    2. CR ( 1) C  2             1.99999   -11.23600
    3. CR ( 1) C  3             1.99999   -11.23091
    4. CR ( 1) C  4             1.99999   -11.23091
    5. BD ( 1) C  1- C  3       1.95987    -0.64818  26(v),24(g),17(g),23(v)
                                                     36(v),55(v),54(v),18(g)
                                                     25(g)
    6. BD ( 1) C  1- C  4       1.95987    -0.64818  25(v),24(g),16(g),23(v)
                                                     36(v),46(v),45(v),18(g)
                                                     26(g)
    7. BD ( 1) C  1- H  5       1.99405    -0.65034  25(v),26(v),45(v),54(v)
    8. BD ( 1) C  1- H  6       1.99044    -0.65847  20(v),21(v),47(v),56(v)
    9. BD ( 1) C  2- C  3       1.95987    -0.64818  26(v),24(g),21(g),19(v)
                                                     27(v),55(v),54(v),22(g)
                                                     25(g)
   10. BD ( 1) C  2- C  4       1.95987    -0.64818  25(v),24(g),20(g),19(v)
                                                     27(v),46(v),45(v),22(g)
                                                     26(g)
   11. BD ( 1) C  2- H  7       1.99405    -0.65034  25(v),26(v),45(v),54(v)
   12. BD ( 1) C  2- H  8       1.99044    -0.65847  16(v),17(v),47(v),56(v)
   13. BD ( 1) C  3- C  4       1.88935    -0.53144  18(v),22(v),16(g),17(g)
                                                     20(g),21(g),28(v),37(v)
                                                     25(g),26(g),52(g),61(g)
                                                     63(r),65(r)
   14. BD ( 1) C  3- H  9       1.99460    -0.68093  27(v),36(v),18(v),22(v)
   15. BD ( 1) C  4- H 10       1.99460    -0.68093  27(v),36(v),18(v),22(v)
 ------ non-Lewis ----------------------------------
   16. BD*( 1) C  1- C  3       0.02244     0.61828
   17. BD*( 1) C  1- C  4       0.02244     0.61828
   18. BD*( 1) C  1- H  5       0.02854     0.74449
   19. BD*( 1) C  1- H  6       0.00942     0.75508
   20. BD*( 1) C  2- C  3       0.02244     0.61828
   21. BD*( 1) C  2- C  4       0.02244     0.61828
   22. BD*( 1) C  2- H  7       0.02854     0.74449
   23. BD*( 1) C  2- H  8       0.00942     0.75508
   24. BD*( 1) C  3- C  4       0.05434     0.51141
   25. BD*( 1) C  3- H  9       0.02342     0.77546
   26. BD*( 1) C  4- H 10       0.02342     0.77546
   27. RY ( 1) C  1             0.00536     1.27867
   28. RY ( 2) C  1             0.00508     1.48599
   29. RY ( 3) C  1             0.00028     1.35385
   30. RY ( 4) C  1             0.00020     0.99063
   31. RY ( 5) C  1             0.00002     2.09662
   32. RY ( 6) C  1             0.00001     2.15920
   33. RY ( 7) C  1             0.00000     2.14532
   34. RY ( 8) C  1             0.00000     2.30525
   35. RY ( 9) C  1             0.00000     2.29041
   36. RY ( 1) C  2             0.00536     1.27867
   37. RY ( 2) C  2             0.00508     1.48599
   38. RY ( 3) C  2             0.00028     1.35385
   39. RY ( 4) C  2             0.00020     0.99063
   40. RY ( 5) C  2             0.00002     2.09662
   41. RY ( 6) C  2             0.00001     2.15920
   42. RY ( 7) C  2             0.00000     2.14532
   43. RY ( 8) C  2             0.00000     2.30525
   44. RY ( 9) C  2             0.00000     2.29041
   45. RY ( 1) C  3             0.00309     0.96022
   46. RY ( 2) C  3             0.00255     1.24932
   47. RY ( 3) C  3             0.00190     1.87230
   48. RY ( 4) C  3             0.00074     1.21986
   49. RY ( 5) C  3             0.00024     2.28119
   50. RY ( 6) C  3             0.00005     2.44606
   51. RY ( 7) C  3             0.00002     2.05367
   52. RY ( 8) C  3             0.00000     1.94131
   53. RY ( 9) C  3             0.00000     2.44906
   54. RY ( 1) C  4             0.00309     0.96022
   55. RY ( 2) C  4             0.00255     1.24932
   56. RY ( 3) C  4             0.00190     1.87230
   57. RY ( 4) C  4             0.00074     1.21986
   58. RY ( 5) C  4             0.00024     2.28119
   59. RY ( 6) C  4             0.00005     2.44606
   60. RY ( 7) C  4             0.00002     2.05367
   61. RY ( 8) C  4             0.00000     1.94131
   62. RY ( 9) C  4             0.00000     2.44906
   63. RY ( 1) H  5             0.00200     0.80898
   64. RY ( 1) H  6             0.00093     0.78527
   65. RY ( 1) H  7             0.00200     0.80898
   66. RY ( 1) H  8             0.00093     0.78527
   67. RY ( 1) H  9             0.00063     0.72837
   68. RY ( 1) H 10             0.00063     0.72837
          -------------------------------
                 Total Lewis   29.68694  ( 98.9565%)
           Valence non-Lewis    0.26688  (  0.8896%)
           Rydberg non-Lewis    0.04618  (  0.1539%)
          -------------------------------
               Total unit  1   30.00000  (100.0000%)
              Charge unit  1    0.00000

 $CHOOSE
   BOND S 1 3 S 1 4 S 1 5 S 1 6 S 2 3 S 2 4 S 2 7 S 2 8 S 3 4 S 3 9 S 4 10 END
 $END

 NBO analysis completed in 1.28 CPU seconds (2 wall seconds)
 Maximum scratch memory used by NBO was 351903 words (2.68 MB)
 Maximum scratch memory used by G16NBO was 15620 words (0.12 MB)

 Opening RunExU unformatted file "/cluster/work/users/beto93/mol85/Gau-671334.EUF"
 Read unf file /cluster/work/users/beto93/mol85/Gau-671334.EUF:
 Label Gaussian matrix elements                                         IVers= 2 NLab= 2 Version=ES64L-G16RevC.01
 Title mol85-NBO                                                       
 NAtoms=    10 NBasis=    68 NBsUse=    68 ICharg=     0 Multip=     1 NE=    30 Len12L=8 Len4L=8 IOpCl= 0 ICGU=111
 GAUSSIAN SCALARS                    NI= 1 NR= 1 NTot=       1 LenBuf=    2 NRI=1 N=    1000
 NPA CHARGES                         NI= 0 NR= 1 NTot=      10 LenBuf= 4000 NRI=1 N=      10
 Recovered energy= -154.870290872     dipole=     -0.000000000000      0.000000000000     -0.312812347381
 Unable to Open any file for archive entry.
 1\1\GINC-C1-40\SP\RHF\6-31G(d)\C4H6\BETO93\18-Nov-2024\0\\#RHF/6-31G* 
 int=nobasistransform Symmetry=None 5D 7F Pop=NBO7Read\\mol85-NBO\\0,1\
 C,0,0.,1.131343,0.310424\C,0,0.,-1.131343,0.310424\C,0,0.747952,0.,-0.
 311812\C,0,-0.747952,0.,-0.311812\H,0,0.,1.237033,1.397617\H,0,0.,2.07
 7375,-0.227668\H,0,0.,-1.237033,1.397617\H,0,0.,-2.077375,-0.227668\H,
 0,1.41441,0.,-1.161626\H,0,-1.41441,0.,-1.161626\\Version=ES64L-G16Rev
 C.01\HF=-154.8702909\RMSD=2.971e-09\Dipole=0.,0.,-0.3128123\Quadrupole
 =-1.4263991,0.7036529,0.7227462,0.,0.,0.\PG=Unknown\\@
 The archive entry for this job was punched.


 HE WHO LAUGHS LAST PROBABLY DIDN'T GET THE JOKE.
 Job cpu time:       0 days  0 hours  0 minutes 12.9 seconds.
 Elapsed time:       0 days  0 hours  0 minutes  4.2 seconds.
 File lengths (MBytes):  RWF=     10 Int=      0 D2E=      0 Chk=      2 Scr=      1
 Normal termination of Gaussian 16 at Mon Nov 18 16:40:43 2024.
