 Entering Gaussian System, Link 0=g16
 Initial command:
 /cluster/software/Gaussian/g16_C.01/l1.exe "/cluster/work/users/beto93/CH3OH/Gau-160481.inp" -scrdir="/cluster/work/users/beto93/CH3OH/"
 Entering Link 1 = /cluster/software/Gaussian/g16_C.01/l1.exe PID=    160484.
  
 Copyright (c) 1988-2019, Gaussian, Inc.  All Rights Reserved.
  
 This is part of the Gaussian(R) 16 program.  It is based on
 the Gaussian(R) 09 system (copyright 2009, Gaussian, Inc.),
 the Gaussian(R) 03 system (copyright 2003, Gaussian, Inc.),
 the Gaussian(R) 98 system (copyright 1998, Gaussian, Inc.),
 the Gaussian(R) 94 system (copyright 1995, Gaussian, Inc.),
 the Gaussian 92(TM) system (copyright 1992, Gaussian, Inc.),
 the Gaussian 90(TM) system (copyright 1990, Gaussian, Inc.),
 the Gaussian 88(TM) system (copyright 1988, Gaussian, Inc.),
 the Gaussian 86(TM) system (copyright 1986, Carnegie Mellon
 University), and the Gaussian 82(TM) system (copyright 1983,
 Carnegie Mellon University). Gaussian is a federally registered
 trademark of Gaussian, Inc.
  
 This software contains proprietary and confidential information,
 including trade secrets, belonging to Gaussian, Inc.
  
 This software is provided under written license and may be
 used, copied, transmitted, or stored only in accord with that
 written license.
  
 The following legend is applicable only to US Government
 contracts under FAR:
  
                    RESTRICTED RIGHTS LEGEND
  
 Use, reproduction and disclosure by the US Government is
 subject to restrictions as set forth in subparagraphs (a)
 and (c) of the Commercial Computer Software - Restricted
 Rights clause in FAR 52.227-19.
  
 Gaussian, Inc.
 340 Quinnipiac St., Bldg. 40, Wallingford CT 06492
  
  
 ---------------------------------------------------------------
 Warning -- This program may not be used in any manner that
 competes with the business of Gaussian, Inc. or will provide
 assistance to any competitor of Gaussian, Inc.  The licensee
 of this program is prohibited from giving any competitor of
 Gaussian, Inc. access to this program.  By using this program,
 the user acknowledges that Gaussian, Inc. is engaged in the
 business of creating and licensing software in the field of
 computational chemistry and represents and warrants to the
 licensee that it is not a competitor of Gaussian, Inc. and that
 it will not use this program in any manner prohibited above.
 ---------------------------------------------------------------
  

 Cite this work as:
 Gaussian 16, Revision C.01,
 M. J. Frisch, G. W. Trucks, H. B. Schlegel, G. E. Scuseria, 
 M. A. Robb, J. R. Cheeseman, G. Scalmani, V. Barone, 
 G. A. Petersson, H. Nakatsuji, X. Li, M. Caricato, A. V. Marenich, 
 J. Bloino, B. G. Janesko, R. Gomperts, B. Mennucci, H. P. Hratchian, 
 J. V. Ortiz, A. F. Izmaylov, J. L. Sonnenberg, D. Williams-Young, 
 F. Ding, F. Lipparini, F. Egidi, J. Goings, B. Peng, A. Petrone, 
 T. Henderson, D. Ranasinghe, V. G. Zakrzewski, J. Gao, N. Rega, 
 G. Zheng, W. Liang, M. Hada, M. Ehara, K. Toyota, R. Fukuda, 
 J. Hasegawa, M. Ishida, T. Nakajima, Y. Honda, O. Kitao, H. Nakai, 
 T. Vreven, K. Throssell, J. A. Montgomery, Jr., J. E. Peralta, 
 F. Ogliaro, M. J. Bearpark, J. J. Heyd, E. N. Brothers, K. N. Kudin, 
 V. N. Staroverov, T. A. Keith, R. Kobayashi, J. Normand, 
 K. Raghavachari, A. P. Rendell, J. C. Burant, S. S. Iyengar, 
 J. Tomasi, M. Cossi, J. M. Millam, M. Klene, C. Adamo, R. Cammi, 
 J. W. Ochterski, R. L. Martin, K. Morokuma, O. Farkas, 
 J. B. Foresman, and D. J. Fox, Gaussian, Inc., Wallingford CT, 2019.
 
 ******************************************
 Gaussian 16:  ES64L-G16RevC.01  3-Jul-2019
                24-Jul-2024 
 ******************************************
 %LindaWorkers=c1-8-ib
 %NProcShared=4
 Will use up to    4 processors via shared memory.
 %mem=25GB
 %chk=a.chk
 SetLPE:    new flags="-opt 'Tsnet.Node.lindarsharg: ssh'  -nodelist 'c1-8-ib.saga' -env GAUSS_MDEF=3355443200 -env GAUSS_EXEDIR="/cluster/software/Gaussian/g16_C.01/bsd:/cluster/software/Gaussian/g16_C.01""
 Will use up to    1 processors via Linda.
 -----------------------
 #RHF/4-31G Pop=NBO7Read
 -----------------------
 1/38=1,163=2,172=1/1;
 2/12=2,17=6,18=5,40=1/2;
 3/5=1,11=1,25=1,30=1,116=1/1,2,3;
 4//1;
 5/5=2,38=5/2;
 6/7=2,8=2,9=2,10=2,28=1,40=2,113=1,114=1,124=2103/1,12;
 99/5=1,9=1/99;
 -----
 NBO-a
 -----
 Symbolic Z-matrix:
 Charge =  0 Multiplicity = 1
 C                    -0.00466   0.00807  -0.01444 
 O                    -0.69557   1.20477  -0.39396 
 H                     0.01702  -0.02947   1.07616 
 H                     1.02883  -0.00899  -0.37608 
 H                    -0.50663  -0.89548  -0.37608 
 H                    -0.68258   1.18227  -1.38474 
 
                          Input orientation:                          
 ---------------------------------------------------------------------
 Center     Atomic      Atomic             Coordinates (Angstroms)
 Number     Number       Type             X           Y           Z
 ---------------------------------------------------------------------
      1          6           0       -0.004656    0.008066   -0.014442
      2          8           0       -0.695573    1.204768   -0.393961
      3          1           0        0.017016   -0.029474    1.076161
      4          1           0        1.028828   -0.008985   -0.376080
      5          1           0       -0.506631   -0.895483   -0.376082
      6          1           0       -0.682583    1.182270   -1.384739
 ---------------------------------------------------------------------
                    Distance matrix (angstroms):
                    1          2          3          4          5
     1  C    0.000000
     2  O    1.433003   0.000000
     3  H    1.091464   2.047534   0.000000
     4  H    1.095063   2.108809   1.770081   0.000000
     5  H    1.095063   2.108808   1.770081   1.772996   0.000000
     6  H    1.927707   0.991119   2.830864   2.316335   2.316335
                    6
     6  H    0.000000
 Stoichiometry    CH4O
 Framework group  C1[X(CH4O)]
 Deg. of freedom    12
 Full point group                 C1      NOp   1
 Largest Abelian subgroup         C1      NOp   1
 Largest concise Abelian subgroup C1      NOp   1
                         Standard orientation:                         
 ---------------------------------------------------------------------
 Center     Atomic      Atomic             Coordinates (Angstroms)
 Number     Number       Type             X           Y           Z
 ---------------------------------------------------------------------
      1          6           0        0.666681   -0.016874   -0.000000
      2          8           0       -0.759100    0.126815   -0.000000
      3          1           0        1.099950    0.984911    0.000001
      4          1           0        1.032252   -0.545686   -0.886498
      5          1           0        1.032251   -0.545686    0.886498
      6          1           0       -1.091740   -0.806816   -0.000000
 ---------------------------------------------------------------------
 Rotational constants (GHZ):         125.8119119          24.5243414          23.5541269
 Standard basis: 4-31G (6D, 7F)
 There are    26 symmetry adapted cartesian basis functions of A   symmetry.
 There are    26 symmetry adapted basis functions of A   symmetry.
    26 basis functions,    56 primitive gaussians,    26 cartesian basis functions
     9 alpha electrons        9 beta electrons
       nuclear repulsion energy        39.9744304770 Hartrees.
 NAtoms=    6 NActive=    6 NUniq=    6 SFac= 1.00D+00 NAtFMM=   60 NAOKFM=F Big=F
 Integral buffers will be    131072 words long.
 Raffenetti 1 integral format.
 Two-electron integral symmetry is turned on.
 One-electron integrals computed using PRISM.
 NBasis=    26 RedAO= T EigKep=  2.04D-02  NBF=    26
 NBsUse=    26 1.00D-06 EigRej= -1.00D+00 NBFU=    26
 ExpMin= 1.61D-01 ExpMax= 8.83D+02 ExpMxC= 8.83D+02 IAcc=3 IRadAn=         5 AccDes= 0.00D+00
 Harris functional with IExCor=  205 and IRadAn=       5 diagonalized for initial guess.
 HarFok:  IExCor=  205 AccDes= 0.00D+00 IRadAn=         5 IDoV= 1 UseB2=F ITyADJ=14
 ICtDFT=  3500011 ScaDFX=  1.000000  1.000000  1.000000  1.000000
 FoFCou: FMM=F IPFlag=           0 FMFlag=      100000 FMFlg1=           0
         NFxFlg=           0 DoJE=T BraDBF=F KetDBF=T FulRan=T
         wScrn=  0.000000 ICntrl=       500 IOpCl=  0 I1Cent=   200000004 NGrid=           0
         NMat0=    1 NMatS0=      1 NMatT0=    0 NMatD0=    1 NMtDS0=    0 NMtDT0=    0
 Petite list used in FoFCou.
 Keep R1 ints in memory in canonical form, NReq=871923.
 Requested convergence on RMS density matrix=1.00D-08 within 128 cycles.
 Requested convergence on MAX density matrix=1.00D-06.
 Requested convergence on             energy=1.00D-06.
 No special actions if energy rises.
 SCF Done:  E(RHF) =  -114.867186688     A.U. after   11 cycles
            NFock= 11  Conv=0.14D-08     -V/T= 2.0004

 **********************************************************************

            Population analysis using the SCF Density.

 **********************************************************************

 Orbital symmetries:
       Occupied  (A) (A) (A) (A) (A) (A) (A) (A) (A)
       Virtual   (A) (A) (A) (A) (A) (A) (A) (A) (A) (A) (A) (A)
                 (A) (A) (A) (A) (A)
 The electronic state is 1-A.
 Alpha  occ. eigenvalues --  -20.52414 -11.25690  -1.35262  -0.92808  -0.67692
 Alpha  occ. eigenvalues --   -0.62028  -0.58098  -0.49667  -0.44758
 Alpha virt. eigenvalues --    0.21711   0.27136   0.31328   0.31877   0.38551
 Alpha virt. eigenvalues --    0.85282   0.87184   0.87262   1.10506   1.17193
 Alpha virt. eigenvalues --    1.19543   1.20029   1.35097   1.38483   1.45440
 Alpha virt. eigenvalues --    1.54077   2.14733
          Condensed to atoms (all electrons):
               1          2          3          4          5          6
     1  C    4.880853   0.157189   0.388953   0.378645   0.378646  -0.042670
     2  O    0.157189   8.426658  -0.035161  -0.040325  -0.040325   0.254765
     3  H    0.388953  -0.035161   0.526639  -0.033764  -0.033764   0.005783
     4  H    0.378645  -0.040325  -0.033764   0.599779  -0.044691  -0.004174
     5  H    0.378646  -0.040325  -0.033764  -0.044691   0.599779  -0.004174
     6  H   -0.042670   0.254765   0.005783  -0.004174  -0.004174   0.396430
 Mulliken charges:
               1
     1  C   -0.141615
     2  O   -0.722801
     3  H    0.181316
     4  H    0.144530
     5  H    0.144530
     6  H    0.394040
 Sum of Mulliken charges =  -0.00000
 Mulliken charges with hydrogens summed into heavy atoms:
               1
     1  C    0.328761
     2  O   -0.328761
 Electronic spatial extent (au):  <R**2>=             85.1171
 Charge=             -0.0000 electrons
 Dipole moment (field-independent basis, Debye):
    X=              1.4331    Y=             -1.9817    Z=             -0.0000  Tot=              2.4456
 Quadrupole moment (field-independent basis, Debye-Ang):
   XX=            -13.1529   YY=            -12.0495   ZZ=            -13.7373
   XY=              2.5734   XZ=             -0.0000   YZ=              0.0000
 Traceless Quadrupole moment (field-independent basis, Debye-Ang):
   XX=             -0.1730   YY=              0.9304   ZZ=             -0.7574
   XY=              2.5734   XZ=             -0.0000   YZ=              0.0000
 Octapole moment (field-independent basis, Debye-Ang**2):
  XXX=             -2.8993  YYY=             -0.8766  ZZZ=             -0.0000  XYY=             -1.7196
  XXY=             -2.5091  XXZ=             -0.0000  XZZ=             -0.4463  YZZ=             -0.6304
  YYZ=              0.0000  XYZ=              0.0000
 Hexadecapole moment (field-independent basis, Debye-Ang**3):
 XXXX=            -61.1234 YYYY=            -19.0795 ZZZZ=            -18.7957 XXXY=              3.8243
 XXXZ=             -0.0000 YYYX=              3.0672 YYYZ=              0.0000 ZZZX=             -0.0000
 ZZZY=              0.0000 XXYY=            -12.1496 XXZZ=            -13.7804 YYZZ=             -6.4904
 XXYZ=              0.0000 YYXZ=              0.0000 ZZXY=             -0.0479
 N-N= 3.997443047704D+01 E-N=-3.507389066555D+02  KE= 1.148240009291D+02
 Running external command "gaunbo7 R"
         input file       "/cluster/work/users/beto93/CH3OH/Gau-160484.EIn"
         output file      "/cluster/work/users/beto93/CH3OH/Gau-160484.EOu"
         message file     "/cluster/work/users/beto93/CH3OH/Gau-160484.EMs"
         fchk file        "/cluster/work/users/beto93/CH3OH/Gau-160484.EFC"
         mat. el file     "/cluster/work/users/beto93/CH3OH/Gau-160484.EUF"

 Writing WrtUnf unformatted file "/cluster/work/users/beto93/CH3OH/Gau-160484.EUF"
 Gaussian matrix elements                                         Version   2 NLab=11 Len12L=8 Len4L=8
 Write SHELL TO ATOM MAP                   from file      0 offset           0 length                  14 to matrix element file.
 Write SHELL TYPES                         from file      0 offset           0 length                  14 to matrix element file.
 Write NUMBER OF PRIMITIVES PER SHELL      from file      0 offset           0 length                  14 to matrix element file.
 Write PRIMITIVE EXPONENTS                 from file      0 offset           0 length                  32 to matrix element file.
 Write CONTRACTION COEFFICIENTS            from file      0 offset           0 length                  32 to matrix element file.
 Write P(S=P) CONTRACTION COEFFICIENTS     from file      0 offset           0 length                  32 to matrix element file.
 Write COORDINATES OF EACH SHELL           from file      0 offset           0 length                  42 to matrix element file.
 Write BONDS PER ATOM                      from file      0 offset           0 length                   6 to matrix element file.
 Write BONDED ATOMS                        from file      0 offset           0 length                  10 to matrix element file.
 Write BOND TYPES                          from file      0 offset           0 length                  10 to matrix element file.
 Write ONIOM CHARGE/MULT                   from file      0 offset           0 length                  32 to matrix element file.
 Write ONIOM ATOM LAYERS                   from file      0 offset           0 length                   6 to matrix element file.
 Write ONIOM ATOM MODIFIERS                from file      0 offset           0 length                   6 to matrix element file.
 Write ONIOM ATOM TYPES                    from file      0 offset           0 length                   6 to matrix element file.
 Write ONIOM LINK ATOMS                    from file      0 offset           0 length                   6 to matrix element file.
 Write ONIOM LINK CHARGES                  from file      0 offset           0 length                   6 to matrix element file.
 Write ONIOM LINK DISTANCES                from file      0 offset           0 length                  24 to matrix element file.
 Write SYMINF INTS                         from file      0 offset           0 length                  26 to matrix element file.
 Write ROTTR TO SO                         from file      0 offset           0 length                  12 to matrix element file.
 Write GAUSSIAN SCALARS                    from file    501 offset           0 to matrix element file.
 Write OPTIMIZATION FLAGS                  from file      0 offset           0 length                   6 to matrix element file.
 Write INTEGER ISO                         from file      0 offset           0 length                   6 to matrix element file.
 Write INTEGER SPIN                        from file      0 offset           0 length                   6 to matrix element file.
 Write REAL ZEFFECTIVE                     from file      0 offset           0 length                   6 to matrix element file.
 Write REAL GFACTOR                        from file      0 offset           0 length                   6 to matrix element file.
 Write REAL ZNUCLEAR                       from file      0 offset           0 length                   6 to matrix element file.
 Write MULLIKEN CHARGES                    from file      0 offset           0 length                   6 to matrix element file.
 Write NUCLEAR GRADIENT                    from file  10584 offset           0 length                  18 to matrix element file.
 Array NUCLEAR FORCE CONSTANTS              on  file  10585 does not exist.
 Write ELECTRIC DIPOLE MOMENT              from file      0 offset           0 length                   3 to matrix element file.
 Write NON-ADIABATIC COUPLING              from file  10810 offset           0 length                  18 to matrix element file.
 Write FINITE EM FIELD                     from file  10521 offset           0 length                  35 to matrix element file.
 Write OVERLAP                             from file  10514 offset           0 length                 351 to matrix element file.
 Write CORE HAMILTONIAN ALPHA              from file  10515 offset           0 length                 351 to matrix element file.
 Write CORE HAMILTONIAN BETA               from file  10515 offset         351 length                 351 to matrix element file.
 Write KINETIC ENERGY                      from file  10516 offset           0 length                 351 to matrix element file.
 Write ORTHOGONAL BASIS                    from file  10685 offset           0 length                 676 to matrix element file.
 Write DIPOLE INTEGRALS                    from file  10518 offset           0 length                1053 to matrix element file.
 Array DIP VEL INTEGRALS                    on  file  10572 does not exist.
 Array R X DEL INTEGRALS                    on  file  10572 does not exist.
 Write ALPHA ORBITAL ENERGIES              from file      0 offset           0 length                  26 to matrix element file.
 Write ALPHA MO COEFFICIENTS               from file  10524 offset           0 length                 676 to matrix element file.
 Write ALPHA DENSITY MATRIX                from file      0 offset           0 length                 351 to matrix element file.
 Write ALPHA FOCK MATRIX                   from file  10536 offset           0 length                 351 to matrix element file.
 Write ENERGY-WEIGHTED DENSITY             from file  10571 offset           0 length                 351 to matrix element file.
 Write ALPHA SCF DENSITY MATRIX            from file      0 offset           0 length                 351 to matrix element file.
 No 2e integrals to process.
 Perform NBO analysis...executing G16NBO...

 *********************************** NBO 7.0 ***********************************
             N A T U R A L   A T O M I C   O R B I T A L   A N D
          N A T U R A L   B O N D   O R B I T A L   A N A L Y S I S
 **************************** Espen Tangen (S101595) ***************************
  (c) Copyright 1996-2021 Board of Regents of the University of Wisconsin System
      on behalf of the Theoretical Chemistry Institute.  All rights reserved.

          Cite this program [NBO 7.0.10 (8-Feb-2021)] as:

          NBO 7.0.  E. D. Glendening, J. K. Badenhoop, A. E. Reed,
          J. E. Carpenter, J. A. Bohmann, C. M. Morales, P. Karafiloglou,
          C. R. Landis, and F. Weinhold, Theoretical Chemistry Institute,
          University of Wisconsin, Madison, WI (2018)

       /NPA    / : Natural Population Analysis
       /AOPNAO / : Print the AO to PNAO transformation
       /AONAO  / : Print the AO to NAO transformation
       /AONO   / : Print the NOs in the AO basis
       /AOMO   / : Print the MOs in the AO basis
       /BOAO   / : Print the AO bond-order matrix
       /DMAO   / : Print the AO density matrix
       /DMPNAO / : Print the PNAO density matrix
       /DMNAO  / : Print the NAO density matrix
       /DMMO   / : Print the MO density matrix
       /SAO    / : Print the AO overlap matrix
       /SPNAO  / : Print the PNAO overlap matrix
       /DETAIL / : Write details of NBO search
       /ARCHIVE/ : Write the archive file to lfn47
       /AOINFO / : Write AO information to lfn31
       /FILE   / : Set to inpGenNbo

 Filename set to inpGenNbo

 Job title: NBO-a


 MOs in the AO basis:

           AO          1       2       3       4       5       6       7       8
      ------------ ------- ------- ------- ------- ------- ------- ------- -------
   1.  C 1 (s)     -0.0002  0.9935 -0.0705 -0.1802  0.0128  0.0000 -0.0031  0.0096
   2.  C 1 (s)     -0.0016  0.0576  0.1209  0.3003 -0.0120  0.0000  0.0116 -0.0235
   3.  C 1 (px)    -0.0010 -0.0001 -0.0883  0.0709 -0.1489  0.0000 -0.2980  0.0911
   4.  C 1 (py)    -0.0002 -0.0001  0.0037  0.0027  0.2360  0.0000 -0.2196 -0.2874
   5.  C 1 (pz)     0.0000  0.0000  0.0000  0.0000  0.0000  0.3633  0.0000  0.0000
   6.  C 1 (s)      0.0122 -0.0400  0.0546  0.4320 -0.0542  0.0000 -0.0346  0.0090
   7.  C 1 (px)    -0.0056 -0.0018  0.0170  0.0328 -0.0490  0.0000 -0.1361  0.0176
   8.  C 1 (py)     0.0009  0.0000 -0.0096 -0.0125  0.1440  0.0000 -0.1669 -0.1408
   9.  C 1 (pz)     0.0000  0.0000  0.0000  0.0000  0.0000  0.2082  0.0000  0.0000
  10.  O 2 (s)      0.9919  0.0000 -0.2043  0.0628 -0.0398  0.0000  0.0255 -0.0532
  11.  O 2 (s)      0.0519  0.0001  0.4084 -0.1268  0.0842  0.0000 -0.0646  0.1192
  12.  O 2 (px)     0.0019 -0.0003  0.0572  0.1546  0.1954  0.0000  0.3859 -0.1809
  13.  O 2 (py)    -0.0022 -0.0001 -0.0800  0.0597  0.3518  0.0000 -0.0796  0.3739
  14.  O 2 (pz)     0.0000  0.0000  0.0000  0.0000  0.0000  0.3230  0.0000  0.0000
  15.  O 2 (s)     -0.0287  0.0028  0.5250 -0.2222  0.1628  0.0000 -0.0754  0.2206
  16.  O 2 (px)    -0.0060  0.0010  0.0562  0.0649  0.1200  0.0000  0.2898 -0.1639
  17.  O 2 (py)     0.0040  0.0008 -0.0558  0.0337  0.2216  0.0000 -0.0640  0.3079
  18.  O 2 (pz)     0.0000  0.0000  0.0000  0.0000  0.0000  0.2279  0.0000  0.0000
  19.  H 3 (s)     -0.0010 -0.0006  0.0247  0.1434  0.0783  0.0000 -0.2159 -0.1957
  20.  H 3 (s)     -0.0009  0.0080  0.0048  0.0372  0.0377  0.0000 -0.1429 -0.1757
  21.  H 4 (s)     -0.0009 -0.0006  0.0245  0.1399 -0.1099 -0.1914  0.0088  0.1245
  22.  H 4 (s)     -0.0006  0.0079 -0.0017  0.0317 -0.0645 -0.1409  0.0003  0.1256
  23.  H 5 (s)     -0.0009 -0.0006  0.0245  0.1399 -0.1099  0.1914  0.0088  0.1245
  24.  H 5 (s)     -0.0006  0.0079 -0.0017  0.0317 -0.0645  0.1409  0.0003  0.1256
  25.  H 6 (s)      0.0013  0.0004  0.1210 -0.1010 -0.2274  0.0000 -0.0794 -0.1519
  26.  H 6 (s)      0.0042  0.0015 -0.0062 -0.0311 -0.1127  0.0000 -0.0654 -0.1014

           AO          9      10      11      12      13      14      15      16
      ------------ ------- ------- ------- ------- ------- ------- ------- -------
   1.  C 1 (s)      0.0000  0.0532 -0.1458 -0.0068  0.0000  0.0681  0.0284  0.0000
   2.  C 1 (s)      0.0000 -0.0051  0.0760 -0.0031  0.0000 -0.0488 -0.2592  0.0000
   3.  C 1 (px)     0.0000 -0.1470  0.0445 -0.0749  0.0000  0.2375  0.7404  0.0000
   4.  C 1 (py)     0.0000  0.0522 -0.0041 -0.3173  0.0000 -0.0629 -0.4711  0.0000
   5.  C 1 (pz)    -0.2246  0.0000  0.0000  0.0000  0.3518  0.0000  0.0000 -0.6802
   6.  C 1 (s)      0.0000 -0.9265  2.1610  0.0436  0.0000 -0.7876  0.1721  0.0000
   7.  C 1 (px)     0.0000 -0.5160  0.1914 -0.3770  0.0000  1.4346 -0.9549 -0.0001
   8.  C 1 (py)     0.0000  0.1341 -0.0019 -1.3261  0.0000 -0.4236  1.0192 -0.0001
   9.  C 1 (pz)    -0.1007  0.0000  0.0000  0.0000  1.3620  0.0000  0.0000  1.6054
  10.  O 2 (s)      0.0000  0.0696  0.0482  0.0096  0.0000 -0.0493 -0.0002  0.0000
  11.  O 2 (s)      0.0000 -0.0777 -0.0466 -0.0087  0.0000  0.0524  0.0650  0.0000
  12.  O 2 (px)     0.0000  0.0234 -0.0638 -0.0782  0.0000  0.3390  0.2441  0.0000
  13.  O 2 (py)     0.0000  0.2094  0.1378  0.0478  0.0000  0.1070 -0.0755  0.0000
  14.  O 2 (pz)     0.5409  0.0000  0.0000  0.0000 -0.0754  0.0000  0.0000 -0.2429
  15.  O 2 (s)      0.0000 -0.8890 -0.6536 -0.1437  0.0000  0.7308 -0.5229  0.0000
  16.  O 2 (px)     0.0000  0.0494 -0.1553 -0.1552  0.0000  0.9556 -0.0944  0.0000
  17.  O 2 (py)     0.0000  0.4438  0.2893  0.1635  0.0000  0.2431 -0.0043  0.0000
  18.  O 2 (pz)     0.4730  0.0000  0.0000  0.0000 -0.2147  0.0000  0.0000 -0.1280
  19.  H 3 (s)      0.0000  0.0069 -0.0014  0.0724  0.0000 -0.0486 -0.3292  0.0000
  20.  H 3 (s)      0.0000  0.3475 -0.9753  1.8285  0.0000  0.2604 -0.0374  0.0000
  21.  H 4 (s)      0.1731  0.0024 -0.0043 -0.0289  0.0358 -0.0589  0.3353  0.5585
  22.  H 4 (s)      0.1799  0.5705 -0.9889 -0.7907  1.5500 -0.3255  0.0988  0.2197
  23.  H 5 (s)     -0.1731  0.0024 -0.0043 -0.0289 -0.0358 -0.0589  0.3353 -0.5585
  24.  H 5 (s)     -0.1799  0.5705 -0.9889 -0.7907 -1.5500 -0.3255  0.0988 -0.2197
  25.  H 6 (s)      0.0000  0.0693  0.0491 -0.0233  0.0000  0.0309  0.2681  0.0000
  26.  H 6 (s)      0.0000  1.1712  0.7088 -0.1093  0.0000  0.8238 -0.1398  0.0000

           AO         17      18      19      20      21      22      23      24
      ------------ ------- ------- ------- ------- ------- ------- ------- -------
   1.  C 1 (s)     -0.0268 -0.0033  0.0000 -0.0754 -0.0462  0.0000 -0.0380 -0.0752
   2.  C 1 (s)      0.2483 -0.0280  0.0000  0.4040  0.2741  0.0000 -0.8222 -1.8864
   3.  C 1 (px)    -0.7425 -0.1247  0.0000  0.3996  0.2294  0.0000 -0.1840 -0.0533
   4.  C 1 (py)    -0.5175  0.6010  0.0000  0.3908 -0.6036  0.0000 -0.0720 -0.0410
   5.  C 1 (pz)     0.0000  0.0000 -0.9578  0.0000  0.0000 -0.0826  0.0000  0.0000
   6.  C 1 (s)     -0.1070 -0.0268  0.0000 -0.3870 -0.4717  0.0000  2.0691  3.3511
   7.  C 1 (px)     0.9958  0.0198  0.0000 -0.2147 -0.1527  0.0000  0.1249  0.4995
   8.  C 1 (py)     1.2325 -0.9973  0.0000 -0.5166  0.6717  0.0000 -0.3602  0.1268
   9.  C 1 (pz)     0.0001  0.0000  1.2942  0.0000  0.0000 -0.5308  0.0000  0.0000
  10.  O 2 (s)      0.0295  0.0312  0.0000  0.0124  0.0161  0.0000  0.0641 -0.0037
  11.  O 2 (s)     -0.1902 -0.1229  0.0000 -0.1550 -0.1432  0.0000 -0.6027  0.0503
  12.  O 2 (px)    -0.1013 -0.1321  0.0000 -0.1409 -0.1998  0.0000  0.4604 -0.5912
  13.  O 2 (py)    -0.0057  0.3070  0.0000 -0.2960  0.4168  0.0000 -0.4704 -0.0428
  14.  O 2 (pz)     0.0000  0.0000  0.2504  0.0000  0.0000 -0.9190  0.0000  0.0000
  15.  O 2 (s)      0.3414  0.1271  0.0000  0.0864  0.1780  0.0000  0.2856 -0.3690
  16.  O 2 (px)     0.0227  0.2738  0.0000  0.0708  0.2861  0.0000 -0.7010  0.5949
  17.  O 2 (py)    -0.1459  0.2657  0.0000  0.2341 -0.2719  0.0000  0.8142  0.0158
  18.  O 2 (pz)     0.0000  0.0000 -0.3638  0.0000  0.0000  1.1757  0.0000  0.0000
  19.  H 3 (s)     -0.5797 -0.3065  0.0000 -0.9934  0.2576  0.0000  0.2042 -0.1707
  20.  H 3 (s)     -0.2806  0.8352  0.0000  1.0365 -0.6247  0.0000 -0.5411 -0.8392
  21.  H 4 (s)      0.1265  0.2655 -0.6885 -0.4315 -0.6443 -0.3642 -0.3064 -0.0993
  22.  H 4 (s)      0.0454 -0.4466  1.2470  0.1009  0.7863  0.1103 -0.2856 -0.7688
  23.  H 5 (s)      0.1264  0.2655  0.6885 -0.4315 -0.6443  0.3642 -0.3064 -0.0993
  24.  H 5 (s)      0.0454 -0.4466 -1.2470  0.1009  0.7863 -0.1103 -0.2856 -0.7688
  25.  H 6 (s)      0.0409  1.0946  0.0000 -0.1939  0.5487  0.0000  0.5096 -0.1427
  26.  H 6 (s)      0.2682 -0.7400  0.0000  0.0822 -0.5330  0.0000 -0.4719  0.2532

           AO         25      26
      ------------ ------- -------
   1.  C 1 (s)     -0.0503  0.0944
   2.  C 1 (s)     -0.8159  0.5672
   3.  C 1 (px)     0.0277  0.3141
   4.  C 1 (py)     0.1826  0.0107
   5.  C 1 (pz)     0.0000  0.0000
   6.  C 1 (s)      2.1128 -2.8073
   7.  C 1 (px)    -0.2802  0.7231
   8.  C 1 (py)     0.2025 -0.0606
   9.  C 1 (pz)     0.0000  0.0000
  10.  O 2 (s)      0.0153  0.0198
  11.  O 2 (s)     -0.3441 -1.6929
  12.  O 2 (px)     0.5045 -0.3590
  13.  O 2 (py)     0.6874  0.0888
  14.  O 2 (pz)     0.0000  0.0000
  15.  O 2 (s)      0.2576  3.1331
  16.  O 2 (px)    -1.1398  1.2651
  17.  O 2 (py)    -1.2727 -0.5146
  18.  O 2 (pz)     0.0000  0.0000
  19.  H 3 (s)     -0.4591  0.2935
  20.  H 3 (s)     -0.0672  0.2703
  21.  H 4 (s)     -0.1114  0.3349
  22.  H 4 (s)     -0.2952  0.2037
  23.  H 5 (s)     -0.1114  0.3349
  24.  H 5 (s)     -0.2952  0.2037
  25.  H 6 (s)     -0.3871 -0.4998
  26.  H 6 (s)     -0.7673 -0.0742


 NOs in the AO basis:

           AO          1       2       3       4       5       6       7       8
      ------------ ------- ------- ------- ------- ------- ------- ------- -------
   1.  C 1 (s)      0.4559  0.7626 -0.3017  0.3407  0.0096  0.0769  0.1341  0.0548
   2.  C 1 (s)     -0.0249 -0.0410 -0.1296  0.0244  0.1645  0.1746 -0.1737 -0.0382
   3.  C 1 (px)     0.0158  0.0600 -0.0044 -0.0264 -0.0651 -0.1754 -0.3017  0.0318
   4.  C 1 (py)    -0.0647 -0.0001 -0.1854  0.0025 -0.0126 -0.1573  0.0406 -0.3460
   5.  C 1 (pz)    -0.0174 -0.0589  0.0065  0.1254  0.0004 -0.0119  0.0081 -0.0398
   6.  C 1 (s)     -0.0853 -0.1157 -0.1200 -0.0073  0.1107  0.2068 -0.3226 -0.0364
   7.  C 1 (px)     0.0030  0.0159 -0.0152 -0.0138  0.0248 -0.0868 -0.1171 -0.0072
   8.  C 1 (py)    -0.0255  0.0164 -0.0830 -0.0011 -0.0188 -0.1198  0.0017 -0.2137
   9.  C 1 (pz)    -0.0113 -0.0232  0.0016  0.0473  0.0008 -0.0024  0.0057 -0.0227
  10.  O 2 (s)     -0.8316  0.4472  0.1506  0.2539 -0.1766  0.1326 -0.0688  0.0210
  11.  O 2 (s)      0.0144  0.0553  0.1791 -0.0009  0.3913 -0.1167  0.0780 -0.0530
  12.  O 2 (px)    -0.0715 -0.1381 -0.1210  0.0424  0.0581  0.3658  0.2412 -0.0975
  13.  O 2 (py)     0.1673  0.0742  0.3618  0.0095 -0.0541  0.1327 -0.1337 -0.2774
  14.  O 2 (pz)    -0.0516  0.2275 -0.0517 -0.5387  0.0144  0.1062  0.0358 -0.0333
  15.  O 2 (s)      0.1337  0.0523  0.2933 -0.0231  0.4963 -0.1615  0.1375 -0.0903
  16.  O 2 (px)    -0.0538 -0.1009 -0.1061  0.0280  0.0484  0.2320  0.2202 -0.0463
  17.  O 2 (py)     0.1270  0.0655  0.2873  0.0055 -0.0354  0.0862 -0.1162 -0.1647
  18.  O 2 (pz)    -0.0408  0.1950 -0.0436 -0.4602  0.0119  0.0893  0.0288 -0.0232
  19.  H 3 (s)     -0.0699 -0.0225 -0.1924 -0.0048  0.0349 -0.0914 -0.1250 -0.2099
  20.  H 3 (s)     -0.0523 -0.0031 -0.1540 -0.0014  0.0023 -0.1034 -0.0324 -0.1255
  21.  H 4 (s)      0.0180  0.0343  0.0242 -0.1193  0.0526  0.1000 -0.1627  0.1232
  22.  H 4 (s)      0.0374  0.0754  0.0627 -0.1323  0.0132  0.0492 -0.0833  0.0931
  23.  H 5 (s)      0.0049 -0.0692  0.0396  0.1091  0.0509  0.0703 -0.1584  0.0810
  24.  H 5 (s)      0.0329 -0.0405  0.0822  0.1279  0.0100  0.0108 -0.0841  0.0617
  25.  H 6 (s)     -0.0680  0.0007 -0.1472 -0.0195  0.1016 -0.2049  0.0301  0.1608
  26.  H 6 (s)     -0.0447  0.0045 -0.1032 -0.0078 -0.0130 -0.1066 -0.0116  0.0620

           AO          9      10      11      12      13      14      15      16
      ------------ ------- ------- ------- ------- ------- ------- ------- -------
   1.  C 1 (s)     -0.0352 -0.0294 -0.0539  0.0093  0.0998  0.0205  0.1054  0.0379
   2.  C 1 (s)      0.0079 -0.0789 -0.3754 -0.1452 -0.4443  0.3494 -0.5421 -0.2731
   3.  C 1 (px)    -0.0220 -0.3426  0.0639  0.6055 -0.0337  0.0508  0.0576 -0.5994
   4.  C 1 (py)     0.0403 -0.0524 -0.4020  0.4729  0.0424  0.0298  0.0856 -0.2649
   5.  C 1 (pz)    -0.4013 -0.1592 -0.1048  0.1932 -0.1436 -0.5898 -0.2033  0.5979
   6.  C 1 (s)      0.0075  0.0932  1.0415  0.0011 -0.8011 -0.8229 -0.6843  0.1102
   7.  C 1 (px)    -0.0061  0.4063 -0.1650 -0.1223 -0.0689 -0.4230 -0.1207  0.0197
   8.  C 1 (py)     0.0217  0.3197  2.1679 -0.4091 -0.1086 -0.2084  0.0021  0.1823
   9.  C 1 (pz)    -0.2236  0.0544  0.4196  0.0166 -0.0918  2.2396 -0.0244  0.0204
  10.  O 2 (s)      0.0447  0.1015 -0.0056 -0.0016 -0.0105 -0.0029 -0.0247  0.0251
  11.  O 2 (s)      0.0046 -0.6909  0.1469  0.0769 -0.0087  0.3288  0.0648 -0.0592
  12.  O 2 (px)     0.0385 -0.1704 -0.0860  0.0818  0.1336  0.0213  0.1463 -0.0803
  13.  O 2 (py)     0.0115 -0.0527  0.1954  0.4784 -0.0162 -0.0266  0.1028  0.3483
  14.  O 2 (pz)    -0.1892 -0.0929  0.0745  0.0625  0.6946  0.1034 -0.6593  0.0090
  15.  O 2 (s)      0.0011  0.0611 -0.3491 -0.1967  0.1192 -0.6223  0.1240 -0.0556
  16.  O 2 (px)     0.0264  0.3307 -0.2750  0.5584  0.1364 -0.0703  0.1397 -0.1686
  17.  O 2 (py)     0.0026  0.7195 -0.7903  0.0689  0.0331  0.1765 -0.2242 -0.2110
  18.  O 2 (pz)    -0.1128  0.1001 -0.1755 -0.0919 -0.7220 -0.5147  0.7171 -0.0721
  19.  H 3 (s)      0.0227 -0.1070 -0.2768  0.0213  0.0451 -0.1594 -0.0460  0.5641
  20.  H 3 (s)      0.0146 -0.4612 -1.8575 -0.2112  0.5322  0.7398  0.5350 -0.2484
  21.  H 4 (s)      0.2090 -0.1564 -0.1388  0.0835 -0.0282 -0.0844  0.2050  0.3243
  22.  H 4 (s)      0.1629  0.1221  1.0678  0.0288  0.1672  1.8648  0.2327  0.4078
  23.  H 5 (s)     -0.2387 -0.1276 -0.3047 -0.0447  0.0632  0.1460  0.0473 -0.0124
  24.  H 5 (s)     -0.1905  0.2191  0.7162 -0.1404  0.7592 -1.5723  0.5643 -0.2157
  25.  H 6 (s)     -0.0148  0.2263 -0.1001  0.6211 -0.0021 -0.0047 -0.0451  0.3059
  26.  H 6 (s)     -0.0061  1.0497 -0.3493  0.0702  0.0249  0.2869 -0.1077 -0.2816

           AO         17      18      19      20      21      22      23      24
      ------------ ------- ------- ------- ------- ------- ------- ------- -------
   1.  C 1 (s)     -0.0009  0.0154  0.0333 -0.0237  0.0294 -0.0620  0.0123  0.0001
   2.  C 1 (s)     -0.1065 -0.1082 -0.3129 -0.1053  0.0192  0.2312  0.2482 -0.2996
   3.  C 1 (px)     0.4664 -0.4662  0.1184  0.0223  0.0532 -0.3102 -0.0838  0.2959
   4.  C 1 (py)    -0.6299 -0.1453  0.3662 -0.1663 -0.4318  0.3162 -0.0470 -0.3954
   5.  C 1 (pz)     0.2807 -0.2409  0.5849  0.2875  0.0978  0.1638  0.0592 -0.1400
   6.  C 1 (s)      0.0715  0.3841  0.0292 -0.2456 -0.0828 -0.0046 -0.4384 -0.0428
   7.  C 1 (px)    -0.0404  1.4793  0.1487  0.5638  0.3543  0.1835  0.1992 -0.4491
   8.  C 1 (py)     0.2259  0.2756  0.1433 -0.0642  0.4150 -0.6807  0.5325  0.1427
   9.  C 1 (pz)     0.1523  0.3734 -0.1357 -0.5921 -0.1799  0.0811 -0.3462 -0.0280
  10.  O 2 (s)     -0.0023 -0.0494 -0.0155 -0.0362 -0.0006  0.0115  0.0136  0.0030
  11.  O 2 (s)     -0.1876  0.6717 -0.0058  0.3775  0.0892  0.1938 -0.2418  0.0159
  12.  O 2 (px)     0.2786 -0.0904 -0.1225 -0.4237  0.4543 -0.1732  0.1574 -0.6985
  13.  O 2 (py)     0.0605 -0.0484 -0.5690  0.1150 -0.3928 -0.0562  0.4560 -0.1559
  14.  O 2 (pz)     0.0516  0.0576  0.0239 -0.0849 -0.0813  0.0279  0.0474  0.0193
  15.  O 2 (s)      0.1687 -0.3801  0.0244 -0.2347 -0.0003 -0.1584  0.3734 -0.2290
  16.  O 2 (px)     0.0248  0.7269  0.3444  0.7620 -0.0408 -0.0690 -0.1072  0.9144
  17.  O 2 (py)    -0.0830  0.3398  0.3836 -0.1006  0.7342  0.2816 -0.7068  0.3649
  18.  O 2 (pz)    -0.1965 -0.1666 -0.0665  0.2689  0.1831 -0.1256  0.0457 -0.0087
  19.  H 3 (s)     -0.0500  0.1967 -0.3416 -0.2298  0.0211 -0.7023 -0.8258  0.0958
  20.  H 3 (s)      0.2703 -0.8137 -0.0854  0.2864 -0.3383  0.9656  0.7668  0.2095
  21.  H 4 (s)      0.2768  0.4505  0.5794 -0.8054 -0.4350  0.0608  0.3446  0.2766
  22.  H 4 (s)     -0.4211 -0.6690 -0.0328  0.3322  0.5911 -0.3209 -0.4274 -0.3883
  23.  H 5 (s)     -0.7948  0.0068  0.1287 -0.0213  0.2636 -0.7287  0.6813  0.2782
  24.  H 5 (s)      0.2575 -0.3342 -0.1830 -0.1393 -0.2079  0.3078 -0.3107 -0.0868
  25.  H 6 (s)     -0.2616  0.0183 -0.4430 -0.3796  0.7709  0.6616 -0.1072  0.4364
  26.  H 6 (s)      0.3591  1.0089  0.6030  0.7171 -0.2441 -0.6875  0.0696 -0.0860

           AO         25      26
      ------------ ------- -------
   1.  C 1 (s)      0.0113 -0.1516
   2.  C 1 (s)     -0.5720 -2.0193
   3.  C 1 (px)     0.0756 -0.2146
   4.  C 1 (py)     0.0922  0.1199
   5.  C 1 (pz)    -0.2022 -0.0875
   6.  C 1 (s)      0.1939  5.5745
   7.  C 1 (px)     1.3696 -0.3611
   8.  C 1 (py)    -0.3756 -0.3560
   9.  C 1 (pz)     0.6907  0.1276
  10.  O 2 (s)     -0.0043  0.0257
  11.  O 2 (s)     -1.3276  0.5872
  12.  O 2 (px)    -0.2301  0.2142
  13.  O 2 (py)     0.0774  0.0015
  14.  O 2 (pz)     0.0429  0.0143
  15.  O 2 (s)      2.7710 -1.8999
  16.  O 2 (px)     0.9060 -1.1869
  17.  O 2 (py)    -0.5410  0.1935
  18.  O 2 (pz)    -0.1649 -0.0211
  19.  H 3 (s)      0.0660 -0.3617
  20.  H 3 (s)     -0.2204 -0.6020
  21.  H 4 (s)     -0.0405 -0.3052
  22.  H 4 (s)      0.0359 -1.1350
  23.  H 5 (s)      0.0835 -0.1271
  24.  H 5 (s)     -1.0548 -1.4538
  25.  H 6 (s)     -0.2795  0.1872
  26.  H 6 (s)     -0.5970 -0.2184


 AO overlap matrix:

           AO          1       2       3       4       5       6       7       8
      ------------ ------- ------- ------- ------- ------- ------- ------- -------
   1.  C 1 (s)      1.0000  0.1903  0.0000  0.0000  0.0000  0.1846  0.0000  0.0000
   2.  C 1 (s)      0.1903  1.0000  0.0000  0.0000  0.0000  0.8114  0.0000  0.0000
   3.  C 1 (px)     0.0000  0.0000  1.0000  0.0000  0.0000  0.0000  0.5686  0.0000
   4.  C 1 (py)     0.0000  0.0000  0.0000  1.0000  0.0000  0.0000  0.0000  0.5686
   5.  C 1 (pz)     0.0000  0.0000  0.0000  0.0000  1.0000  0.0000  0.0000  0.0000
   6.  C 1 (s)      0.1846  0.8114  0.0000  0.0000  0.0000  1.0000  0.0000  0.0000
   7.  C 1 (px)     0.0000  0.0000  0.5686  0.0000  0.0000  0.0000  1.0000  0.0000
   8.  C 1 (py)     0.0000  0.0000  0.0000  0.5686  0.0000  0.0000  0.0000  1.0000
   9.  C 1 (pz)     0.0000  0.0000  0.0000  0.0000  0.5686  0.0000  0.0000  0.0000
  10.  O 2 (s)      0.0000  0.0050 -0.0127  0.0013  0.0000  0.0319 -0.0724  0.0073
  11.  O 2 (s)      0.0010  0.0710 -0.1273  0.0128  0.0000  0.2004 -0.3909  0.0394
  12.  O 2 (px)     0.0028  0.1009 -0.1620  0.0197  0.0000  0.1254 -0.1415  0.0252
  13.  O 2 (py)    -0.0003 -0.0102  0.0197  0.0311  0.0000 -0.0126  0.0252  0.1061
  14.  O 2 (pz)     0.0000  0.0000  0.0000  0.0000  0.0331  0.0000  0.0000  0.0000
  15.  O 2 (s)      0.0345  0.2365 -0.2469  0.0249  0.0000  0.4262 -0.5976  0.0602
  16.  O 2 (px)     0.0941  0.4485 -0.3244  0.0500  0.0000  0.4805 -0.2575  0.0679
  17.  O 2 (py)    -0.0095 -0.0452  0.0500  0.1669  0.0000 -0.0484  0.0679  0.4094
  18.  O 2 (pz)     0.0000  0.0000  0.0000  0.0000  0.1720  0.0000  0.0000  0.0000
  19.  H 3 (s)      0.0300  0.2587  0.1377  0.3184  0.0000  0.3755  0.2092  0.4836
  20.  H 3 (s)      0.0866  0.4547  0.0978  0.2261  0.0000  0.6919  0.2270  0.5249
  21.  H 4 (s)      0.0295  0.2564  0.1151 -0.1664 -0.2790  0.3739  0.1758 -0.2542
  22.  H 4 (s)      0.0862  0.4531  0.0822 -0.1189 -0.1994  0.6902  0.1911 -0.2764
  23.  H 5 (s)      0.0295  0.2564  0.1151 -0.1664  0.2790  0.3739  0.1758 -0.2542
  24.  H 5 (s)      0.0862  0.4531  0.0822 -0.1189  0.1994  0.6902  0.1911 -0.2764
  25.  H 6 (s)      0.0002  0.0156 -0.0279 -0.0125  0.0000  0.1012 -0.2278 -0.1023
  26.  H 6 (s)      0.0211  0.1475 -0.1235 -0.0555  0.0000  0.3191 -0.4249 -0.1909

           AO          9      10      11      12      13      14      15      16
      ------------ ------- ------- ------- ------- ------- ------- ------- -------
   1.  C 1 (s)      0.0000  0.0000  0.0010  0.0028 -0.0003  0.0000  0.0345  0.0941
   2.  C 1 (s)      0.0000  0.0050  0.0710  0.1009 -0.0102  0.0000  0.2365  0.4485
   3.  C 1 (px)     0.0000 -0.0127 -0.1273 -0.1620  0.0197  0.0000 -0.2469 -0.3244
   4.  C 1 (py)     0.0000  0.0013  0.0128  0.0197  0.0311  0.0000  0.0249  0.0500
   5.  C 1 (pz)     0.5686  0.0000  0.0000  0.0000  0.0000  0.0331  0.0000  0.0000
   6.  C 1 (s)      0.0000  0.0319  0.2004  0.1254 -0.0126  0.0000  0.4262  0.4805
   7.  C 1 (px)     0.0000 -0.0724 -0.3909 -0.1415  0.0252  0.0000 -0.5976 -0.2575
   8.  C 1 (py)     0.0000  0.0073  0.0394  0.0252  0.1061  0.0000  0.0602  0.0679
   9.  C 1 (pz)     1.0000  0.0000  0.0000  0.0000  0.0000  0.1087  0.0000  0.0000
  10.  O 2 (s)      0.0000  1.0000  0.2124  0.0000  0.0000  0.0000  0.1636  0.0000
  11.  O 2 (s)      0.0000  0.2124  1.0000  0.0000  0.0000  0.0000  0.7652  0.0000
  12.  O 2 (px)     0.0000  0.0000  0.0000  1.0000  0.0000  0.0000  0.0000  0.5029
  13.  O 2 (py)     0.0000  0.0000  0.0000  0.0000  1.0000  0.0000  0.0000  0.0000
  14.  O 2 (pz)     0.1087  0.0000  0.0000  0.0000  0.0000  1.0000  0.0000  0.0000
  15.  O 2 (s)      0.0000  0.1636  0.7652  0.0000  0.0000  0.0000  1.0000  0.0000
  16.  O 2 (px)     0.0000  0.0000  0.0000  0.5029  0.0000  0.0000  0.0000  1.0000
  17.  O 2 (py)     0.0000  0.0000  0.0000  0.0000  0.5029  0.0000  0.0000  0.0000
  18.  O 2 (pz)     0.4163  0.0000  0.0000  0.0000  0.0000  0.5029  0.0000  0.0000
  19.  H 3 (s)      0.0000  0.0000  0.0022  0.0039  0.0018  0.0000  0.0402  0.1060
  20.  H 3 (s)      0.0000  0.0101  0.0729  0.0522  0.0241  0.0000  0.2021  0.2741
  21.  H 4 (s)     -0.4262  0.0000  0.0015  0.0026 -0.0010 -0.0013  0.0335  0.0851
  22.  H 4 (s)     -0.4634  0.0088  0.0642  0.0442 -0.0166 -0.0219  0.1841  0.2406
  23.  H 5 (s)      0.4262  0.0000  0.0015  0.0026 -0.0010  0.0013  0.0335  0.0851
  24.  H 5 (s)      0.4634  0.0088  0.0642  0.0442 -0.0166  0.0219  0.1841  0.2406
  25.  H 6 (s)      0.0000  0.0283  0.2187 -0.0860 -0.2415  0.0000  0.4048 -0.1942
  26.  H 6 (s)      0.0000  0.0625  0.3584 -0.0474 -0.1329  0.0000  0.6571 -0.1595

           AO         17      18      19      20      21      22      23      24
      ------------ ------- ------- ------- ------- ------- ------- ------- -------
   1.  C 1 (s)     -0.0095  0.0000  0.0300  0.0866  0.0295  0.0862  0.0295  0.0862
   2.  C 1 (s)     -0.0452  0.0000  0.2587  0.4547  0.2564  0.4531  0.2564  0.4531
   3.  C 1 (px)     0.0500  0.0000  0.1377  0.0978  0.1151  0.0822  0.1151  0.0822
   4.  C 1 (py)     0.1669  0.0000  0.3184  0.2261 -0.1664 -0.1189 -0.1664 -0.1189
   5.  C 1 (pz)     0.0000  0.1720  0.0000  0.0000 -0.2790 -0.1994  0.2790  0.1994
   6.  C 1 (s)     -0.0484  0.0000  0.3755  0.6919  0.3739  0.6902  0.3739  0.6902
   7.  C 1 (px)     0.0679  0.0000  0.2092  0.2270  0.1758  0.1911  0.1758  0.1911
   8.  C 1 (py)     0.4094  0.0000  0.4836  0.5249 -0.2542 -0.2764 -0.2542 -0.2764
   9.  C 1 (pz)     0.0000  0.4163  0.0000  0.0000 -0.4262 -0.4634  0.4262  0.4634
  10.  O 2 (s)      0.0000  0.0000  0.0000  0.0101  0.0000  0.0088  0.0000  0.0088
  11.  O 2 (s)      0.0000  0.0000  0.0022  0.0729  0.0015  0.0642  0.0015  0.0642
  12.  O 2 (px)     0.0000  0.0000  0.0039  0.0522  0.0026  0.0442  0.0026  0.0442
  13.  O 2 (py)     0.5029  0.0000  0.0018  0.0241 -0.0010 -0.0166 -0.0010 -0.0166
  14.  O 2 (pz)     0.0000  0.5029  0.0000  0.0000 -0.0013 -0.0219  0.0013  0.0219
  15.  O 2 (s)      0.0000  0.0000  0.0402  0.2021  0.0335  0.1841  0.0335  0.1841
  16.  O 2 (px)     0.0000  0.0000  0.1060  0.2741  0.0851  0.2406  0.0851  0.2406
  17.  O 2 (py)     1.0000  0.0000  0.0489  0.1265 -0.0319 -0.0903 -0.0319 -0.0903
  18.  O 2 (pz)     0.0000  1.0000  0.0000  0.0000 -0.0421 -0.1190  0.0421  0.1190
  19.  H 3 (s)      0.0489  0.0000  1.0000  0.6583  0.0192  0.1516  0.0192  0.1516
  20.  H 3 (s)      0.1265  0.0000  0.6583  1.0000  0.1516  0.4057  0.1516  0.4057
  21.  H 4 (s)     -0.0319 -0.0421  0.0192  0.1516  1.0000  0.6583  0.0190  0.1509
  22.  H 4 (s)     -0.0903 -0.1190  0.1516  0.4057  0.6583  1.0000  0.1509  0.4045
  23.  H 5 (s)     -0.0319  0.0421  0.0192  0.1516  0.0190  0.1509  1.0000  0.6583
  24.  H 5 (s)     -0.0903  0.1190  0.1516  0.4057  0.1509  0.4045  0.6583  1.0000
  25.  H 6 (s)     -0.5449  0.0000  0.0001  0.0156  0.0014  0.0535  0.0014  0.0535
  26.  H 6 (s)     -0.4476  0.0000  0.0156  0.0995  0.0535  0.2133  0.0535  0.2133

           AO         25      26
      ------------ ------- -------
   1.  C 1 (s)      0.0002  0.0211
   2.  C 1 (s)      0.0156  0.1475
   3.  C 1 (px)    -0.0279 -0.1235
   4.  C 1 (py)    -0.0125 -0.0555
   5.  C 1 (pz)     0.0000  0.0000
   6.  C 1 (s)      0.1012  0.3191
   7.  C 1 (px)    -0.2278 -0.4249
   8.  C 1 (py)    -0.1023 -0.1909
   9.  C 1 (pz)     0.0000  0.0000
  10.  O 2 (s)      0.0283  0.0625
  11.  O 2 (s)      0.2187  0.3584
  12.  O 2 (px)    -0.0860 -0.0474
  13.  O 2 (py)    -0.2415 -0.1329
  14.  O 2 (pz)     0.0000  0.0000
  15.  O 2 (s)      0.4048  0.6571
  16.  O 2 (px)    -0.1942 -0.1595
  17.  O 2 (py)    -0.5449 -0.4476
  18.  O 2 (pz)     0.0000  0.0000
  19.  H 3 (s)      0.0001  0.0156
  20.  H 3 (s)      0.0156  0.0995
  21.  H 4 (s)      0.0014  0.0535
  22.  H 4 (s)      0.0535  0.2133
  23.  H 5 (s)      0.0014  0.0535
  24.  H 5 (s)      0.0535  0.2133
  25.  H 6 (s)      1.0000  0.6583
  26.  H 6 (s)      0.6583  1.0000


 AO bond-order matrix:

           AO          1       2       3       4       5       6       7       8
      ------------ ------- ------- ------- ------- ------- ------- ------- -------
   1.  C 1 (s)      2.0495 -0.0117 -0.0136  0.0001  0.0000 -0.2440 -0.0179  0.0078
   2.  C 1 (s)     -0.0117  0.2179  0.0136  0.0053  0.0000  0.2681  0.0208 -0.0106
   3.  C 1 (px)    -0.0136  0.0136  0.2641  0.0080  0.0000  0.0900  0.1005  0.0309
   4.  C 1 (py)     0.0001  0.0053  0.0080  0.3729  0.0000 -0.0128  0.0268  0.2220
   5.  C 1 (pz)     0.0000  0.0000  0.0000  0.0000  0.3648  0.0000  0.0000  0.0000
   6.  C 1 (s)     -0.2440  0.2681  0.0900 -0.0128  0.0000  0.3911  0.0452 -0.0184
   7.  C 1 (px)    -0.0179  0.0208  0.1005  0.0268  0.0000  0.0452  0.0453  0.0252
   8.  C 1 (py)     0.0078 -0.0106  0.0309  0.2220  0.0000 -0.0184  0.0252  0.1373
   9.  C 1 (pz)     0.0000  0.0000  0.0000  0.0000  0.1965  0.0000  0.0000  0.0000
  10.  O 2 (s)      0.0036 -0.0108  0.0300 -0.0009  0.0000  0.0578 -0.0189 -0.0009
  11.  O 2 (s)     -0.0069  0.0133 -0.0551  0.0020  0.0000 -0.0662  0.0185  0.0077
  12.  O 2 (px)    -0.0653  0.1194 -0.3093  0.0280  0.0000  0.0888 -0.1185 -0.0266
  13.  O 2 (py)     0.0062 -0.0113  0.0334 -0.0142  0.0000  0.0169  0.0015  0.0227
  14.  O 2 (pz)     0.0000  0.0000  0.0000  0.0000 -0.0082  0.0000  0.0000  0.0000
  15.  O 2 (s)      0.0205 -0.0220 -0.0876 -0.0141  0.0000 -0.1440  0.0159  0.0054
  16.  O 2 (px)    -0.0311  0.0642 -0.2390  0.0243  0.0000  0.0260 -0.0902 -0.0188
  17.  O 2 (py)     0.0093 -0.0144  0.0429 -0.0445  0.0000  0.0090  0.0068 -0.0013
  18.  O 2 (pz)     0.0000  0.0000  0.0000  0.0000 -0.0468  0.0000  0.0000  0.0000
  19.  H 3 (s)     -0.0568  0.0944  0.0856  0.2452  0.0000  0.1296  0.0544  0.1457
  20.  H 3 (s)      0.0003  0.0285  0.0463  0.1817  0.0000  0.0346  0.0316  0.1070
  21.  H 4 (s)     -0.0556  0.0869  0.0657 -0.1263 -0.2168  0.1371  0.0228 -0.0736
  22.  H 4 (s)      0.0053  0.0152  0.0467 -0.1026 -0.1832  0.0357  0.0127 -0.0548
  23.  H 5 (s)     -0.0556  0.0869  0.0657 -0.1263  0.2168  0.1371  0.0228 -0.0736
  24.  H 5 (s)      0.0053  0.0152  0.0467 -0.1026  0.1832  0.0357  0.0127 -0.0548
  25.  H 6 (s)      0.0119 -0.0206  0.0517  0.0152  0.0000 -0.0466  0.0360  0.0040
  26.  H 6 (s)      0.0105 -0.0141  0.0507  0.0336  0.0000 -0.0127  0.0230  0.0188

           AO          9      10      11      12      13      14      15      16
      ------------ ------- ------- ------- ------- ------- ------- ------- -------
   1.  C 1 (s)      0.0000  0.0036 -0.0069 -0.0653  0.0062  0.0000  0.0205 -0.0311
   2.  C 1 (s)      0.0000 -0.0108  0.0133  0.1194 -0.0113  0.0000 -0.0220  0.0642
   3.  C 1 (px)     0.0000  0.0300 -0.0551 -0.3093  0.0334  0.0000 -0.0876 -0.2390
   4.  C 1 (py)     0.0000 -0.0009  0.0020  0.0280 -0.0142  0.0000 -0.0141  0.0243
   5.  C 1 (pz)     0.1965  0.0000  0.0000  0.0000  0.0000 -0.0082  0.0000  0.0000
   6.  C 1 (s)      0.0000  0.0578 -0.0662  0.0888  0.0169  0.0000 -0.1440  0.0260
   7.  C 1 (px)     0.0000 -0.0189  0.0185 -0.1185  0.0015  0.0000  0.0159 -0.0902
   8.  C 1 (py)     0.0000 -0.0009  0.0077 -0.0266  0.0227  0.0000  0.0054 -0.0188
   9.  C 1 (pz)     0.1070  0.0000  0.0000  0.0000  0.0000  0.0255  0.0000  0.0000
  10.  O 2 (s)      0.0000  2.0693 -0.1026  0.0232 -0.0360  0.0000 -0.3396 -0.0041
  11.  O 2 (s)      0.0000 -0.1026  0.4220 -0.0524  0.0780  0.0000  0.5719 -0.0275
  12.  O 2 (px)     0.0000  0.0232 -0.0524  0.4939 -0.0499  0.0000 -0.0830  0.3563
  13.  O 2 (py)     0.0000 -0.0360  0.0780 -0.0499  0.5598  0.0000  0.1811 -0.0854
  14.  O 2 (pz)     0.0255  0.0000  0.0000  0.0000  0.0000  0.7938  0.0000  0.0000
  15.  O 2 (s)      0.0000 -0.3396  0.5719 -0.0830  0.1811  0.0000  0.8132 -0.0464
  16.  O 2 (px)     0.0000 -0.0041 -0.0275  0.3563 -0.0854  0.0000 -0.0464  0.2653
  17.  O 2 (py)     0.0000 -0.0188  0.0654 -0.0701  0.4093  0.0000  0.1439 -0.0868
  18.  O 2 (pz)    -0.0004  0.0000  0.0000  0.0000  0.0000  0.6589  0.0000  0.0000
  19.  H 3 (s)      0.0000  0.0096 -0.0219 -0.0180 -0.0437  0.0000 -0.0660 -0.0208
  20.  H 3 (s)      0.0000  0.0094 -0.0227 -0.0199 -0.0785  0.0000 -0.0551 -0.0108
  21.  H 4 (s)     -0.1146  0.0017 -0.0055 -0.0352  0.0272  0.0636 -0.0186 -0.0412
  22.  H 4 (s)     -0.0949 -0.0047  0.0096 -0.0608  0.0525  0.1036  0.0186 -0.0525
  23.  H 5 (s)      0.1146  0.0017 -0.0055 -0.0352  0.0272 -0.0636 -0.0186 -0.0412
  24.  H 5 (s)      0.0949 -0.0047  0.0096 -0.0608  0.0525 -0.1036  0.0186 -0.0525
  25.  H 6 (s)      0.0000 -0.0294  0.0603 -0.1126 -0.2924  0.0000  0.0427 -0.0504
  26.  H 6 (s)      0.0000  0.0233 -0.0314 -0.0682 -0.1474  0.0000 -0.0645 -0.0365

           AO         17      18      19      20      21      22      23      24
      ------------ ------- ------- ------- ------- ------- ------- ------- -------
   1.  C 1 (s)      0.0093  0.0000 -0.0568  0.0003 -0.0556  0.0053 -0.0556  0.0053
   2.  C 1 (s)     -0.0144  0.0000  0.0944  0.0285  0.0869  0.0152  0.0869  0.0152
   3.  C 1 (px)     0.0429  0.0000  0.0856  0.0463  0.0657  0.0467  0.0657  0.0467
   4.  C 1 (py)    -0.0445  0.0000  0.2452  0.1817 -0.1263 -0.1026 -0.1263 -0.1026
   5.  C 1 (pz)     0.0000 -0.0468  0.0000  0.0000 -0.2168 -0.1832  0.2168  0.1832
   6.  C 1 (s)      0.0090  0.0000  0.1296  0.0346  0.1371  0.0357  0.1371  0.0357
   7.  C 1 (px)     0.0068  0.0000  0.0544  0.0316  0.0228  0.0127  0.0228  0.0127
   8.  C 1 (py)    -0.0013  0.0000  0.1457  0.1070 -0.0736 -0.0548 -0.0736 -0.0548
   9.  C 1 (pz)     0.0000 -0.0004  0.0000  0.0000 -0.1146 -0.0949  0.1146  0.0949
  10.  O 2 (s)     -0.0188  0.0000  0.0096  0.0094  0.0017 -0.0047  0.0017 -0.0047
  11.  O 2 (s)      0.0654  0.0000 -0.0219 -0.0227 -0.0055  0.0096 -0.0055  0.0096
  12.  O 2 (px)    -0.0701  0.0000 -0.0180 -0.0199 -0.0352 -0.0608 -0.0352 -0.0608
  13.  O 2 (py)     0.4093  0.0000 -0.0437 -0.0785  0.0272  0.0525  0.0272  0.0525
  14.  O 2 (pz)     0.0000  0.6589  0.0000  0.0000  0.0636  0.1036 -0.0636 -0.1036
  15.  O 2 (s)      0.1439  0.0000 -0.0660 -0.0551 -0.0186  0.0186 -0.0186  0.0186
  16.  O 2 (px)    -0.0868  0.0000 -0.0208 -0.0108 -0.0412 -0.0525 -0.0412 -0.0525
  17.  O 2 (py)     0.3046  0.0000 -0.0513 -0.0712  0.0335  0.0510  0.0335  0.0510
  18.  O 2 (pz)     0.0000  0.5513  0.0000  0.0000  0.0765  0.1060 -0.0765 -0.1060
  19.  H 3 (s)     -0.0513  0.0000  0.2244  0.1472 -0.0284 -0.0504 -0.0284 -0.0504
  20.  H 3 (s)     -0.0712  0.0000  0.1472  0.1083 -0.0439 -0.0466 -0.0439 -0.0466
  21.  H 4 (s)      0.0335  0.0765 -0.0284 -0.0439  0.2289  0.1705 -0.0376 -0.0620
  22.  H 4 (s)      0.0510  0.1060 -0.0504 -0.0466  0.1705  0.1465 -0.0620 -0.0625
  23.  H 5 (s)      0.0335 -0.0765 -0.0284 -0.0439 -0.0376 -0.0620  0.2289  0.1705
  24.  H 5 (s)      0.0510 -0.1060 -0.0504 -0.0466 -0.0620 -0.0625  0.1705  0.1465
  25.  H 6 (s)     -0.2045  0.0000  0.0351  0.0526 -0.0115 -0.0157 -0.0115 -0.0157
  26.  H 6 (s)     -0.1054  0.0000  0.0410  0.0434 -0.0106 -0.0129 -0.0106 -0.0129

           AO         25      26
      ------------ ------- -------
   1.  C 1 (s)      0.0119  0.0105
   2.  C 1 (s)     -0.0206 -0.0141
   3.  C 1 (px)     0.0517  0.0507
   4.  C 1 (py)     0.0152  0.0336
   5.  C 1 (pz)     0.0000  0.0000
   6.  C 1 (s)     -0.0466 -0.0127
   7.  C 1 (px)     0.0360  0.0230
   8.  C 1 (py)     0.0040  0.0188
   9.  C 1 (pz)     0.0000  0.0000
  10.  O 2 (s)     -0.0294  0.0233
  11.  O 2 (s)      0.0603 -0.0314
  12.  O 2 (px)    -0.1126 -0.0682
  13.  O 2 (py)    -0.2924 -0.1474
  14.  O 2 (pz)     0.0000  0.0000
  15.  O 2 (s)      0.0427 -0.0645
  16.  O 2 (px)    -0.0504 -0.0365
  17.  O 2 (py)    -0.2045 -0.1054
  18.  O 2 (pz)     0.0000  0.0000
  19.  H 3 (s)      0.0351  0.0410
  20.  H 3 (s)      0.0526  0.0434
  21.  H 4 (s)     -0.0115 -0.0106
  22.  H 4 (s)     -0.0157 -0.0129
  23.  H 5 (s)     -0.0115 -0.0106
  24.  H 5 (s)     -0.0157 -0.0129
  25.  H 6 (s)      0.2119  0.0972
  26.  H 6 (s)      0.0972  0.0566


 AO density matrix:

           AO          1       2       3       4       5       6       7       8
      ------------ ------- ------- ------- ------- ------- ------- ------- -------
   1.  C 1 (s)      1.9986  0.4069 -0.0035  0.0001  0.0000  0.3665 -0.0058  0.0004
   2.  C 1 (s)      0.4069  1.4797  0.0797 -0.0038  0.0000  1.6348  0.1546 -0.0090
   3.  C 1 (px)    -0.0035  0.0797  1.0231  0.0202  0.0000  0.1314  1.0244  0.0232
   4.  C 1 (py)     0.0001 -0.0038  0.0202  1.2354  0.0000 -0.0078  0.0212  1.3765
   5.  C 1 (pz)     0.0000  0.0000  0.0000  0.0000  1.2111  0.0000  0.0000  0.0000
   6.  C 1 (s)      0.3665  1.6348  0.1314 -0.0078  0.0000  1.8655  0.1013 -0.0094
   7.  C 1 (px)    -0.0058  0.1546  1.0244  0.0212  0.0000  0.1013  1.2700  0.0180
   8.  C 1 (py)     0.0004 -0.0090  0.0232  1.3765  0.0000 -0.0094  0.0180  1.5765
   9.  C 1 (pz)     0.0000  0.0000  0.0000  0.0000  1.3662  0.0000  0.0000  0.0000
  10.  O 2 (s)      0.0001  0.0061 -0.0156  0.0017  0.0000  0.0586 -0.1327  0.0132
  11.  O 2 (s)     -0.0012  0.2285 -0.4707  0.0470  0.0000  0.5053 -1.0246  0.1118
  12.  O 2 (px)    -0.0060  0.4799 -0.8579  0.0748  0.0000  0.3827 -0.5834  0.0733
  13.  O 2 (py)     0.0005 -0.0460  0.1091  0.1048  0.0000 -0.0555  0.1442  0.3493
  14.  O 2 (pz)     0.0000  0.0000  0.0000  0.0000  0.1374  0.0000  0.0000  0.0000
  15.  O 2 (s)      0.0681  0.4704 -0.4607  0.0563  0.0000  0.7811 -1.0223  0.1029
  16.  O 2 (px)     0.1841  0.9477 -0.7463  0.0959  0.0000  0.8921 -0.4308  0.1037
  17.  O 2 (py)    -0.0192 -0.0807  0.0973  0.3693  0.0000 -0.1059  0.1554  0.6536
  18.  O 2 (pz)     0.0000  0.0000  0.0000  0.0000  0.3923  0.0000  0.0000  0.0000
  19.  H 3 (s)      0.0502  0.7233  0.4208  1.0048  0.0000  0.8176  0.4573  1.0912
  20.  H 3 (s)      0.1635  1.1172  0.3743  0.7739  0.0000  1.2733  0.3851  0.8600
  21.  H 4 (s)      0.0492  0.7210  0.3280 -0.5286 -0.8810  0.8199  0.3598 -0.5773
  22.  H 4 (s)      0.1626  1.1158  0.3094 -0.4142 -0.6868  1.2746  0.3164 -0.4625
  23.  H 5 (s)      0.0492  0.7210  0.3280 -0.5286  0.8810  0.8199  0.3598 -0.5773
  24.  H 5 (s)      0.1626  1.1158  0.3094 -0.4142  0.6868  1.2746  0.3164 -0.4625
  25.  H 6 (s)      0.0013  0.0136 -0.0140 -0.0514  0.0000  0.1762 -0.3687 -0.2184
  26.  H 6 (s)      0.0415  0.2950 -0.1227 -0.1521  0.0000  0.5183 -0.5296 -0.2653

           AO          9      10      11      12      13      14      15      16
      ------------ ------- ------- ------- ------- ------- ------- ------- -------
   1.  C 1 (s)      0.0000  0.0001 -0.0012 -0.0060  0.0005  0.0000  0.0681  0.1841
   2.  C 1 (s)      0.0000  0.0061  0.2285  0.4799 -0.0460  0.0000  0.4704  0.9477
   3.  C 1 (px)     0.0000 -0.0156 -0.4707 -0.8579  0.1091  0.0000 -0.4607 -0.7463
   4.  C 1 (py)     0.0000  0.0017  0.0470  0.0748  0.1048  0.0000  0.0563  0.0959
   5.  C 1 (pz)     1.3662  0.0000  0.0000  0.0000  0.0000  0.1374  0.0000  0.0000
   6.  C 1 (s)      0.0000  0.0586  0.5053  0.3827 -0.0555  0.0000  0.7811  0.8921
   7.  C 1 (px)     0.0000 -0.1327 -1.0246 -0.5834  0.1442  0.0000 -1.0223 -0.4308
   8.  C 1 (py)     0.0000  0.0132  0.1118  0.0733  0.3493  0.0000  0.1029  0.1037
   9.  C 1 (pz)     1.5709  0.0000  0.0000  0.0000  0.0000  0.3714  0.0000  0.0000
  10.  O 2 (s)      0.0000  1.9989  0.4431  0.0037 -0.0056  0.0000  0.3155  0.0028
  11.  O 2 (s)      0.0000  0.4431  1.6733 -0.0703  0.1053  0.0000  1.7286 -0.0738
  12.  O 2 (px)     0.0000  0.0037 -0.0703  1.2007 -0.0750  0.0000 -0.0159  1.2924
  13.  O 2 (py)     0.0000 -0.0056  0.1053 -0.0750  1.3073  0.0000 -0.0067 -0.0271
  14.  O 2 (pz)     0.3714  0.0000  0.0000  0.0000  0.0000  1.5900  0.0000  0.0000
  15.  O 2 (s)      0.0000  0.3155  1.7286 -0.0159 -0.0067  0.0000  1.8430  0.0512
  16.  O 2 (px)     0.0000  0.0028 -0.0738  1.2924 -0.0271  0.0000  0.0512  1.5451
  17.  O 2 (py)     0.0000 -0.0025  0.0717 -0.0312  1.3885  0.0000 -0.0512  0.0129
  18.  O 2 (pz)     0.6395  0.0000  0.0000  0.0000  0.0000  1.4774  0.0000  0.0000
  19.  H 3 (s)      0.0000  0.0019 -0.0410 -0.0095 -0.0432  0.0000  0.0953  0.2579
  20.  H 3 (s)      0.0000  0.0187  0.1762  0.1112  0.0545  0.0000  0.3683  0.4957
  21.  H 4 (s)     -0.9691  0.0011 -0.0180 -0.0511  0.0383  0.0805  0.0889  0.1902
  22.  H 4 (s)     -0.7695  0.0160  0.1594  0.0739 -0.0441 -0.0396  0.3417  0.4327
  23.  H 5 (s)      0.9691  0.0011 -0.0180 -0.0511  0.0383 -0.0805  0.0889  0.1902
  24.  H 5 (s)      0.7695  0.0160  0.1594  0.0739 -0.0441  0.0396  0.3417  0.4327
  25.  H 6 (s)      0.0000  0.0460  0.6553 -0.3507 -0.9937  0.0000  0.7691 -0.4109
  26.  H 6 (s)      0.0000  0.1123  0.9847 -0.2255 -0.6809  0.0000  1.1195 -0.2020

           AO         17      18      19      20      21      22      23      24
      ------------ ------- ------- ------- ------- ------- ------- ------- -------
   1.  C 1 (s)     -0.0192  0.0000  0.0502  0.1635  0.0492  0.1626  0.0492  0.1626
   2.  C 1 (s)     -0.0807  0.0000  0.7233  1.1172  0.7210  1.1158  0.7210  1.1158
   3.  C 1 (px)     0.0973  0.0000  0.4208  0.3743  0.3280  0.3094  0.3280  0.3094
   4.  C 1 (py)     0.3693  0.0000  1.0048  0.7739 -0.5286 -0.4142 -0.5286 -0.4142
   5.  C 1 (pz)     0.0000  0.3923  0.0000  0.0000 -0.8810 -0.6868  0.8810  0.6868
   6.  C 1 (s)     -0.1059  0.0000  0.8176  1.2733  0.8199  1.2746  0.8199  1.2746
   7.  C 1 (px)     0.1554  0.0000  0.4573  0.3851  0.3598  0.3164  0.3598  0.3164
   8.  C 1 (py)     0.6536  0.0000  1.0912  0.8600 -0.5773 -0.4625 -0.5773 -0.4625
   9.  C 1 (pz)     0.0000  0.6395  0.0000  0.0000 -0.9691 -0.7695  0.9691  0.7695
  10.  O 2 (s)     -0.0025  0.0000  0.0019  0.0187  0.0011  0.0160  0.0011  0.0160
  11.  O 2 (s)      0.0717  0.0000 -0.0410  0.1762 -0.0180  0.1594 -0.0180  0.1594
  12.  O 2 (px)    -0.0312  0.0000 -0.0095  0.1112 -0.0511  0.0739 -0.0511  0.0739
  13.  O 2 (py)     1.3885  0.0000 -0.0432  0.0545  0.0383 -0.0441  0.0383 -0.0441
  14.  O 2 (pz)     0.0000  1.4774  0.0000  0.0000  0.0805 -0.0396 -0.0805  0.0396
  15.  O 2 (s)     -0.0512  0.0000  0.0953  0.3683  0.0889  0.3417  0.0889  0.3417
  16.  O 2 (px)     0.0129  0.0000  0.2579  0.4957  0.1902  0.4327  0.1902  0.4327
  17.  O 2 (py)     1.5322  0.0000  0.1445  0.1862 -0.0920 -0.1659 -0.0920 -0.1659
  18.  O 2 (pz)     0.0000  1.4312  0.0000  0.0000 -0.1211 -0.1876  0.1211  0.1876
  19.  H 3 (s)      0.1445  0.0000  1.3314  1.2977  0.0321  0.3119  0.0321  0.3119
  20.  H 3 (s)      0.1862  0.0000  1.2977  1.4404  0.3125  0.6795  0.3125  0.6795
  21.  H 4 (s)     -0.0920 -0.1211  0.0321  0.3125  1.3397  1.3098  0.0165  0.3017
  22.  H 4 (s)     -0.1659 -0.1876  0.3119  0.6795  1.3098  1.4538  0.3017  0.6729
  23.  H 5 (s)     -0.0920  0.1211  0.0321  0.3125  0.0165  0.3017  1.3397  1.3098
  24.  H 5 (s)     -0.1659  0.1876  0.3119  0.6795  0.3017  0.6729  1.3098  1.4538
  25.  H 6 (s)     -1.0821  0.0000  0.0673  0.0448 -0.0226  0.0937 -0.0226  0.0937
  26.  H 6 (s)     -0.7866  0.0000  0.0432  0.1742  0.1467  0.3272  0.1467  0.3272

           AO         25      26
      ------------ ------- -------
   1.  C 1 (s)      0.0013  0.0415
   2.  C 1 (s)      0.0136  0.2950
   3.  C 1 (px)    -0.0140 -0.1227
   4.  C 1 (py)    -0.0514 -0.1521
   5.  C 1 (pz)     0.0000  0.0000
   6.  C 1 (s)      0.1762  0.5183
   7.  C 1 (px)    -0.3687 -0.5296
   8.  C 1 (py)    -0.2184 -0.2653
   9.  C 1 (pz)     0.0000  0.0000
  10.  O 2 (s)      0.0460  0.1123
  11.  O 2 (s)      0.6553  0.9847
  12.  O 2 (px)    -0.3507 -0.2255
  13.  O 2 (py)    -0.9937 -0.6809
  14.  O 2 (pz)     0.0000  0.0000
  15.  O 2 (s)      0.7691  1.1195
  16.  O 2 (px)    -0.4109 -0.2020
  17.  O 2 (py)    -1.0821 -0.7866
  18.  O 2 (pz)     0.0000  0.0000
  19.  H 3 (s)      0.0673  0.0432
  20.  H 3 (s)      0.0448  0.1742
  21.  H 4 (s)     -0.0226  0.1467
  22.  H 4 (s)      0.0937  0.3272
  23.  H 5 (s)     -0.0226  0.1467
  24.  H 5 (s)      0.0937  0.3272
  25.  H 6 (s)      1.2140  1.0623
  26.  H 6 (s)      1.0623  1.1049


 MO density matrix:

      MO     1       2       3       4       5       6       7       8       9
     ---- ------  ------  ------  ------  ------  ------  ------  ------  ------
   1.     2.0000  0.0000  0.0000  0.0000  0.0000  0.0000  0.0000  0.0000  0.0000
   2.     0.0000  2.0000  0.0000  0.0000  0.0000  0.0000  0.0000  0.0000  0.0000
   3.     0.0000  0.0000  2.0000  0.0000  0.0000  0.0000  0.0000  0.0000  0.0000
   4.     0.0000  0.0000  0.0000  2.0000  0.0000  0.0000  0.0000  0.0000  0.0000
   5.     0.0000  0.0000  0.0000  0.0000  2.0000  0.0000  0.0000  0.0000  0.0000
   6.     0.0000  0.0000  0.0000  0.0000  0.0000  2.0000  0.0000  0.0000  0.0000
   7.     0.0000  0.0000  0.0000  0.0000  0.0000  0.0000  2.0000  0.0000  0.0000
   8.     0.0000  0.0000  0.0000  0.0000  0.0000  0.0000  0.0000  2.0000  0.0000
   9.     0.0000  0.0000  0.0000  0.0000  0.0000  0.0000  0.0000  0.0000  2.0000
  10.     0.0000  0.0000  0.0000  0.0000  0.0000  0.0000  0.0000  0.0000  0.0000
  11.     0.0000  0.0000  0.0000  0.0000  0.0000  0.0000  0.0000  0.0000  0.0000
  12.     0.0000  0.0000  0.0000  0.0000  0.0000  0.0000  0.0000  0.0000  0.0000
  13.     0.0000  0.0000  0.0000  0.0000  0.0000  0.0000  0.0000  0.0000  0.0000
  14.     0.0000  0.0000  0.0000  0.0000  0.0000  0.0000  0.0000  0.0000  0.0000
  15.     0.0000  0.0000  0.0000  0.0000  0.0000  0.0000  0.0000  0.0000  0.0000
  16.     0.0000  0.0000  0.0000  0.0000  0.0000  0.0000  0.0000  0.0000  0.0000
  17.     0.0000  0.0000  0.0000  0.0000  0.0000  0.0000  0.0000  0.0000  0.0000
  18.     0.0000  0.0000  0.0000  0.0000  0.0000  0.0000  0.0000  0.0000  0.0000
  19.     0.0000  0.0000  0.0000  0.0000  0.0000  0.0000  0.0000  0.0000  0.0000
  20.     0.0000  0.0000  0.0000  0.0000  0.0000  0.0000  0.0000  0.0000  0.0000
  21.     0.0000  0.0000  0.0000  0.0000  0.0000  0.0000  0.0000  0.0000  0.0000
  22.     0.0000  0.0000  0.0000  0.0000  0.0000  0.0000  0.0000  0.0000  0.0000
  23.     0.0000  0.0000  0.0000  0.0000  0.0000  0.0000  0.0000  0.0000  0.0000
  24.     0.0000  0.0000  0.0000  0.0000  0.0000  0.0000  0.0000  0.0000  0.0000
  25.     0.0000  0.0000  0.0000  0.0000  0.0000  0.0000  0.0000  0.0000  0.0000
  26.     0.0000  0.0000  0.0000  0.0000  0.0000  0.0000  0.0000  0.0000  0.0000

      MO    10      11      12      13      14      15      16      17      18
     ---- ------  ------  ------  ------  ------  ------  ------  ------  ------
   1.     0.0000  0.0000  0.0000  0.0000  0.0000  0.0000  0.0000  0.0000  0.0000
   2.     0.0000  0.0000  0.0000  0.0000  0.0000  0.0000  0.0000  0.0000  0.0000
   3.     0.0000  0.0000  0.0000  0.0000  0.0000  0.0000  0.0000  0.0000  0.0000
   4.     0.0000  0.0000  0.0000  0.0000  0.0000  0.0000  0.0000  0.0000  0.0000
   5.     0.0000  0.0000  0.0000  0.0000  0.0000  0.0000  0.0000  0.0000  0.0000
   6.     0.0000  0.0000  0.0000  0.0000  0.0000  0.0000  0.0000  0.0000  0.0000
   7.     0.0000  0.0000  0.0000  0.0000  0.0000  0.0000  0.0000  0.0000  0.0000
   8.     0.0000  0.0000  0.0000  0.0000  0.0000  0.0000  0.0000  0.0000  0.0000
   9.     0.0000  0.0000  0.0000  0.0000  0.0000  0.0000  0.0000  0.0000  0.0000
  10.     0.0000  0.0000  0.0000  0.0000  0.0000  0.0000  0.0000  0.0000  0.0000
  11.     0.0000  0.0000  0.0000  0.0000  0.0000  0.0000  0.0000  0.0000  0.0000
  12.     0.0000  0.0000  0.0000  0.0000  0.0000  0.0000  0.0000  0.0000  0.0000
  13.     0.0000  0.0000  0.0000  0.0000  0.0000  0.0000  0.0000  0.0000  0.0000
  14.     0.0000  0.0000  0.0000  0.0000  0.0000  0.0000  0.0000  0.0000  0.0000
  15.     0.0000  0.0000  0.0000  0.0000  0.0000  0.0000  0.0000  0.0000  0.0000
  16.     0.0000  0.0000  0.0000  0.0000  0.0000  0.0000  0.0000  0.0000  0.0000
  17.     0.0000  0.0000  0.0000  0.0000  0.0000  0.0000  0.0000  0.0000  0.0000
  18.     0.0000  0.0000  0.0000  0.0000  0.0000  0.0000  0.0000  0.0000  0.0000
  19.     0.0000  0.0000  0.0000  0.0000  0.0000  0.0000  0.0000  0.0000  0.0000
  20.     0.0000  0.0000  0.0000  0.0000  0.0000  0.0000  0.0000  0.0000  0.0000
  21.     0.0000  0.0000  0.0000  0.0000  0.0000  0.0000  0.0000  0.0000  0.0000
  22.     0.0000  0.0000  0.0000  0.0000  0.0000  0.0000  0.0000  0.0000  0.0000
  23.     0.0000  0.0000  0.0000  0.0000  0.0000  0.0000  0.0000  0.0000  0.0000
  24.     0.0000  0.0000  0.0000  0.0000  0.0000  0.0000  0.0000  0.0000  0.0000
  25.     0.0000  0.0000  0.0000  0.0000  0.0000  0.0000  0.0000  0.0000  0.0000
  26.     0.0000  0.0000  0.0000  0.0000  0.0000  0.0000  0.0000  0.0000  0.0000

      MO    19      20      21      22      23      24      25      26
     ---- ------  ------  ------  ------  ------  ------  ------  ------
   1.     0.0000  0.0000  0.0000  0.0000  0.0000  0.0000  0.0000  0.0000
   2.     0.0000  0.0000  0.0000  0.0000  0.0000  0.0000  0.0000  0.0000
   3.     0.0000  0.0000  0.0000  0.0000  0.0000  0.0000  0.0000  0.0000
   4.     0.0000  0.0000  0.0000  0.0000  0.0000  0.0000  0.0000  0.0000
   5.     0.0000  0.0000  0.0000  0.0000  0.0000  0.0000  0.0000  0.0000
   6.     0.0000  0.0000  0.0000  0.0000  0.0000  0.0000  0.0000  0.0000
   7.     0.0000  0.0000  0.0000  0.0000  0.0000  0.0000  0.0000  0.0000
   8.     0.0000  0.0000  0.0000  0.0000  0.0000  0.0000  0.0000  0.0000
   9.     0.0000  0.0000  0.0000  0.0000  0.0000  0.0000  0.0000  0.0000
  10.     0.0000  0.0000  0.0000  0.0000  0.0000  0.0000  0.0000  0.0000
  11.     0.0000  0.0000  0.0000  0.0000  0.0000  0.0000  0.0000  0.0000
  12.     0.0000  0.0000  0.0000  0.0000  0.0000  0.0000  0.0000  0.0000
  13.     0.0000  0.0000  0.0000  0.0000  0.0000  0.0000  0.0000  0.0000
  14.     0.0000  0.0000  0.0000  0.0000  0.0000  0.0000  0.0000  0.0000
  15.     0.0000  0.0000  0.0000  0.0000  0.0000  0.0000  0.0000  0.0000
  16.     0.0000  0.0000  0.0000  0.0000  0.0000  0.0000  0.0000  0.0000
  17.     0.0000  0.0000  0.0000  0.0000  0.0000  0.0000  0.0000  0.0000
  18.     0.0000  0.0000  0.0000  0.0000  0.0000  0.0000  0.0000  0.0000
  19.     0.0000  0.0000  0.0000  0.0000  0.0000  0.0000  0.0000  0.0000
  20.     0.0000  0.0000  0.0000  0.0000  0.0000  0.0000  0.0000  0.0000
  21.     0.0000  0.0000  0.0000  0.0000  0.0000  0.0000  0.0000  0.0000
  22.     0.0000  0.0000  0.0000  0.0000  0.0000  0.0000  0.0000  0.0000
  23.     0.0000  0.0000  0.0000  0.0000  0.0000  0.0000  0.0000  0.0000
  24.     0.0000  0.0000  0.0000  0.0000  0.0000  0.0000  0.0000  0.0000
  25.     0.0000  0.0000  0.0000  0.0000  0.0000  0.0000  0.0000  0.0000
  26.     0.0000  0.0000  0.0000  0.0000  0.0000  0.0000  0.0000  0.0000


 NATURAL POPULATIONS:  Natural atomic orbital occupancies

  NAO Atom No lang   Type(AO)    Occupancy      Energy
 -------------------------------------------------------
   1    C  1  s      Cor( 1s)     1.99994     -11.25652
   2    C  1  s      Val( 2s)     1.10162      -0.24419
   3    C  1  s      Ryd( 3s)     0.00136       1.44995
   4    C  1  px     Val( 2p)     0.76081       0.01349
   5    C  1  px     Ryd( 3p)     0.00251       0.84655
   6    C  1  py     Val( 2p)     1.24147      -0.10387
   7    C  1  py     Ryd( 3p)     0.00097       0.89634
   8    C  1  pz     Val( 2p)     1.21479      -0.09041
   9    C  1  pz     Ryd( 3p)     0.00006       0.91398

  10    O  2  s      Cor( 1s)     1.99995     -20.52355
  11    O  2  s      Val( 2s)     1.71824      -0.98887
  12    O  2  s      Ryd( 3s)     0.00055       1.98535
  13    O  2  px     Val( 2p)     1.44390      -0.31464
  14    O  2  px     Ryd( 3p)     0.00132       1.43352
  15    O  2  py     Val( 2p)     1.63068      -0.38242
  16    O  2  py     Ryd( 3p)     0.00135       1.43382
  17    O  2  pz     Val( 2p)     1.97731      -0.48498
  18    O  2  pz     Ryd( 3p)     0.00184       1.32904

  19    H  3  s      Val( 1s)     0.77187       0.17160
  20    H  3  s      Ryd( 2s)     0.00103       0.77940

  21    H  4  s      Val( 1s)     0.79999       0.14159
  22    H  4  s      Ryd( 2s)     0.00160       0.78152

  23    H  5  s      Val( 1s)     0.79999       0.14159
  24    H  5  s      Ryd( 2s)     0.00160       0.78152

  25    H  6  s      Val( 1s)     0.52360       0.25612
  26    H  6  s      Ryd( 2s)     0.00162       0.80422


 Summary of Natural Population Analysis:

                                     Natural Population
             Natural    ---------------------------------------------
  Atom No    Charge        Core      Valence    Rydberg      Total
 --------------------------------------------------------------------
    C  1   -0.32353      1.99994     4.31869    0.00490     6.32353
    O  2   -0.77516      1.99995     6.77014    0.00507     8.77516
    H  3    0.22709      0.00000     0.77187    0.00103     0.77291
    H  4    0.19841      0.00000     0.79999    0.00160     0.80159
    H  5    0.19841      0.00000     0.79999    0.00160     0.80159
    H  6    0.47479      0.00000     0.52360    0.00162     0.52521
 ====================================================================
 * Total *  0.00000      3.99989    13.98428    0.01583    18.00000

                                 Natural Population
 ---------------------------------------------------------
   Core                       3.99989 ( 99.9973% of    4)
   Valence                   13.98428 ( 99.8877% of   14)
   Natural Minimal Basis     17.98417 ( 99.9121% of   18)
   Natural Rydberg Basis      0.01583 (  0.0879% of   18)
 ---------------------------------------------------------

    Atom No         Natural Electron Configuration
 ----------------------------------------------------------------------------
      C  1      [core]2s( 1.10)2p( 3.22)
      O  2      [core]2s( 1.72)2p( 5.05)
      H  3            1s( 0.77)
      H  4            1s( 0.80)
      H  5            1s( 0.80)
      H  6            1s( 0.52)


 PNAOs in the AO basis:

           AO          1       2       3       4       5       6       7       8
      ------------ ------- ------- ------- ------- ------- ------- ------- -------
   1.  C 1 (s)      0.9926 -0.2222 -0.0760  0.0000  0.0000  0.0000  0.0000  0.0000
   2.  C 1 (s)      0.0499  0.1956  1.7033  0.0000  0.0000  0.0000  0.0000  0.0000
   3.  C 1 (px)     0.0000  0.0000  0.0000  0.4258  1.1386  0.0000  0.0000  0.0000
   4.  C 1 (py)     0.0000  0.0000  0.0000  0.0000  0.0000  0.4258  1.1386  0.0000
   5.  C 1 (pz)     0.0000  0.0000  0.0000  0.0000  0.0000  0.0000  0.0000  0.4258
   6.  C 1 (s)     -0.0154  0.8533 -1.4857  0.0000  0.0000  0.0000  0.0000  0.0000
   7.  C 1 (px)     0.0000  0.0000  0.0000  0.6945 -0.9977  0.0000  0.0000  0.0000
   8.  C 1 (py)     0.0000  0.0000  0.0000  0.0000  0.0000  0.6945 -0.9977  0.0000
   9.  C 1 (pz)     0.0000  0.0000  0.0000  0.0000  0.0000  0.0000  0.0000  0.6945
  10.  O 2 (s)      0.0000  0.0000  0.0000  0.0000  0.0000  0.0000  0.0000  0.0000
  11.  O 2 (s)      0.0000  0.0000  0.0000  0.0000  0.0000  0.0000  0.0000  0.0000
  12.  O 2 (px)     0.0000  0.0000  0.0000  0.0000  0.0000  0.0000  0.0000  0.0000
  13.  O 2 (py)     0.0000  0.0000  0.0000  0.0000  0.0000  0.0000  0.0000  0.0000
  14.  O 2 (pz)     0.0000  0.0000  0.0000  0.0000  0.0000  0.0000  0.0000  0.0000
  15.  O 2 (s)      0.0000  0.0000  0.0000  0.0000  0.0000  0.0000  0.0000  0.0000
  16.  O 2 (px)     0.0000  0.0000  0.0000  0.0000  0.0000  0.0000  0.0000  0.0000
  17.  O 2 (py)     0.0000  0.0000  0.0000  0.0000  0.0000  0.0000  0.0000  0.0000
  18.  O 2 (pz)     0.0000  0.0000  0.0000  0.0000  0.0000  0.0000  0.0000  0.0000
  19.  H 3 (s)      0.0000  0.0000  0.0000  0.0000  0.0000  0.0000  0.0000  0.0000
  20.  H 3 (s)      0.0000  0.0000  0.0000  0.0000  0.0000  0.0000  0.0000  0.0000
  21.  H 4 (s)      0.0000  0.0000  0.0000  0.0000  0.0000  0.0000  0.0000  0.0000
  22.  H 4 (s)      0.0000  0.0000  0.0000  0.0000  0.0000  0.0000  0.0000  0.0000
  23.  H 5 (s)      0.0000  0.0000  0.0000  0.0000  0.0000  0.0000  0.0000  0.0000
  24.  H 5 (s)      0.0000  0.0000  0.0000  0.0000  0.0000  0.0000  0.0000  0.0000
  25.  H 6 (s)      0.0000  0.0000  0.0000  0.0000  0.0000  0.0000  0.0000  0.0000
  26.  H 6 (s)      0.0000  0.0000  0.0000  0.0000  0.0000  0.0000  0.0000  0.0000

           AO          9      10      11      12      13      14      15      16
      ------------ ------- ------- ------- ------- ------- ------- ------- -------
   1.  C 1 (s)      0.0000  0.0000  0.0000  0.0000  0.0000  0.0000  0.0000  0.0000
   2.  C 1 (s)      0.0000  0.0000  0.0000  0.0000  0.0000  0.0000  0.0000  0.0000
   3.  C 1 (px)     0.0000  0.0000  0.0000  0.0000  0.0000  0.0000  0.0000  0.0000
   4.  C 1 (py)     0.0000  0.0000  0.0000  0.0000  0.0000  0.0000  0.0000  0.0000
   5.  C 1 (pz)     1.1386  0.0000  0.0000  0.0000  0.0000  0.0000  0.0000  0.0000
   6.  C 1 (s)      0.0000  0.0000  0.0000  0.0000  0.0000  0.0000  0.0000  0.0000
   7.  C 1 (px)     0.0000  0.0000  0.0000  0.0000  0.0000  0.0000  0.0000  0.0000
   8.  C 1 (py)     0.0000  0.0000  0.0000  0.0000  0.0000  0.0000  0.0000  0.0000
   9.  C 1 (pz)    -0.9977  0.0000  0.0000  0.0000  0.0000  0.0000  0.0000  0.0000
  10.  O 2 (s)      0.0000  0.9916 -0.2263 -0.1130  0.0000  0.0000  0.0000  0.0000
  11.  O 2 (s)      0.0000  0.0470  0.4276  1.5080  0.0000  0.0000  0.0000  0.0000
  12.  O 2 (px)     0.0000  0.0000  0.0000  0.0000  0.5317  1.0275  0.0000  0.0000
  13.  O 2 (py)     0.0000  0.0000  0.0000  0.0000  0.0000  0.0000  0.5317  1.0275
  14.  O 2 (pz)     0.0000  0.0000  0.0000  0.0000  0.0000  0.0000  0.0000  0.0000
  15.  O 2 (s)      0.0000 -0.0139  0.6539 -1.4089  0.0000  0.0000  0.0000  0.0000
  16.  O 2 (px)     0.0000  0.0000  0.0000  0.0000  0.6207 -0.9763  0.0000  0.0000
  17.  O 2 (py)     0.0000  0.0000  0.0000  0.0000  0.0000  0.0000  0.6207 -0.9763
  18.  O 2 (pz)     0.0000  0.0000  0.0000  0.0000  0.0000  0.0000  0.0000  0.0000
  19.  H 3 (s)      0.0000  0.0000  0.0000  0.0000  0.0000  0.0000  0.0000  0.0000
  20.  H 3 (s)      0.0000  0.0000  0.0000  0.0000  0.0000  0.0000  0.0000  0.0000
  21.  H 4 (s)      0.0000  0.0000  0.0000  0.0000  0.0000  0.0000  0.0000  0.0000
  22.  H 4 (s)      0.0000  0.0000  0.0000  0.0000  0.0000  0.0000  0.0000  0.0000
  23.  H 5 (s)      0.0000  0.0000  0.0000  0.0000  0.0000  0.0000  0.0000  0.0000
  24.  H 5 (s)      0.0000  0.0000  0.0000  0.0000  0.0000  0.0000  0.0000  0.0000
  25.  H 6 (s)      0.0000  0.0000  0.0000  0.0000  0.0000  0.0000  0.0000  0.0000
  26.  H 6 (s)      0.0000  0.0000  0.0000  0.0000  0.0000  0.0000  0.0000  0.0000

           AO         17      18      19      20      21      22      23      24
      ------------ ------- ------- ------- ------- ------- ------- ------- -------
   1.  C 1 (s)      0.0000  0.0000  0.0000  0.0000  0.0000  0.0000  0.0000  0.0000
   2.  C 1 (s)      0.0000  0.0000  0.0000  0.0000  0.0000  0.0000  0.0000  0.0000
   3.  C 1 (px)     0.0000  0.0000  0.0000  0.0000  0.0000  0.0000  0.0000  0.0000
   4.  C 1 (py)     0.0000  0.0000  0.0000  0.0000  0.0000  0.0000  0.0000  0.0000
   5.  C 1 (pz)     0.0000  0.0000  0.0000  0.0000  0.0000  0.0000  0.0000  0.0000
   6.  C 1 (s)      0.0000  0.0000  0.0000  0.0000  0.0000  0.0000  0.0000  0.0000
   7.  C 1 (px)     0.0000  0.0000  0.0000  0.0000  0.0000  0.0000  0.0000  0.0000
   8.  C 1 (py)     0.0000  0.0000  0.0000  0.0000  0.0000  0.0000  0.0000  0.0000
   9.  C 1 (pz)     0.0000  0.0000  0.0000  0.0000  0.0000  0.0000  0.0000  0.0000
  10.  O 2 (s)      0.0000  0.0000  0.0000  0.0000  0.0000  0.0000  0.0000  0.0000
  11.  O 2 (s)      0.0000  0.0000  0.0000  0.0000  0.0000  0.0000  0.0000  0.0000
  12.  O 2 (px)     0.0000  0.0000  0.0000  0.0000  0.0000  0.0000  0.0000  0.0000
  13.  O 2 (py)     0.0000  0.0000  0.0000  0.0000  0.0000  0.0000  0.0000  0.0000
  14.  O 2 (pz)     0.5317  1.0275  0.0000  0.0000  0.0000  0.0000  0.0000  0.0000
  15.  O 2 (s)      0.0000  0.0000  0.0000  0.0000  0.0000  0.0000  0.0000  0.0000
  16.  O 2 (px)     0.0000  0.0000  0.0000  0.0000  0.0000  0.0000  0.0000  0.0000
  17.  O 2 (py)     0.0000  0.0000  0.0000  0.0000  0.0000  0.0000  0.0000  0.0000
  18.  O 2 (pz)     0.6207 -0.9763  0.0000  0.0000  0.0000  0.0000  0.0000  0.0000
  19.  H 3 (s)      0.0000  0.0000  0.4842  1.2371  0.0000  0.0000  0.0000  0.0000
  20.  H 3 (s)      0.0000  0.0000  0.6125 -1.1788  0.0000  0.0000  0.0000  0.0000
  21.  H 4 (s)      0.0000  0.0000  0.0000  0.0000  0.4821  1.2379  0.0000  0.0000
  22.  H 4 (s)      0.0000  0.0000  0.0000  0.0000  0.6145 -1.1778  0.0000  0.0000
  23.  H 5 (s)      0.0000  0.0000  0.0000  0.0000  0.0000  0.0000  0.4821  1.2379
  24.  H 5 (s)      0.0000  0.0000  0.0000  0.0000  0.0000  0.0000  0.6145 -1.1778
  25.  H 6 (s)      0.0000  0.0000  0.0000  0.0000  0.0000  0.0000  0.0000  0.0000
  26.  H 6 (s)      0.0000  0.0000  0.0000  0.0000  0.0000  0.0000  0.0000  0.0000

           AO         25      26
      ------------ ------- -------
   1.  C 1 (s)      0.0000  0.0000
   2.  C 1 (s)      0.0000  0.0000
   3.  C 1 (px)     0.0000  0.0000
   4.  C 1 (py)     0.0000  0.0000
   5.  C 1 (pz)     0.0000  0.0000
   6.  C 1 (s)      0.0000  0.0000
   7.  C 1 (px)     0.0000  0.0000
   8.  C 1 (py)     0.0000  0.0000
   9.  C 1 (pz)     0.0000  0.0000
  10.  O 2 (s)      0.0000  0.0000
  11.  O 2 (s)      0.0000  0.0000
  12.  O 2 (px)     0.0000  0.0000
  13.  O 2 (py)     0.0000  0.0000
  14.  O 2 (pz)     0.0000  0.0000
  15.  O 2 (s)      0.0000  0.0000
  16.  O 2 (px)     0.0000  0.0000
  17.  O 2 (py)     0.0000  0.0000
  18.  O 2 (pz)     0.0000  0.0000
  19.  H 3 (s)      0.0000  0.0000
  20.  H 3 (s)      0.0000  0.0000
  21.  H 4 (s)      0.0000  0.0000
  22.  H 4 (s)      0.0000  0.0000
  23.  H 5 (s)      0.0000  0.0000
  24.  H 5 (s)      0.0000  0.0000
  25.  H 6 (s)      0.6303 -1.1694
  26.  H 6 (s)      0.4654  1.2443


 PNAO overlap matrix:

           NAO         1       2       3       4       5       6       7       8
      ------------ ------- ------- ------- ------- ------- ------- ------- -------
   1.  C 1( 1s )    1.0000  0.0000  0.0000  0.0000  0.0000  0.0000  0.0000  0.0000
   2.  C 1( 2s )    0.0000  1.0000  0.0000  0.0000  0.0000  0.0000  0.0000  0.0000
   3.  C 1( 3s )    0.0000  0.0000  1.0000  0.0000  0.0000  0.0000  0.0000  0.0000
   4.  C 1( 2px)    0.0000  0.0000  0.0000  1.0000  0.0000  0.0000  0.0000  0.0000
   5.  C 1( 3px)    0.0000  0.0000  0.0000  0.0000  1.0000  0.0000  0.0000  0.0000
   6.  C 1( 2py)    0.0000  0.0000  0.0000  0.0000  0.0000  1.0000  0.0000  0.0000
   7.  C 1( 3py)    0.0000  0.0000  0.0000  0.0000  0.0000  0.0000  1.0000  0.0000
   8.  C 1( 2pz)    0.0000  0.0000  0.0000  0.0000  0.0000  0.0000  0.0000  1.0000
   9.  C 1( 3pz)    0.0000  0.0000  0.0000  0.0000  0.0000  0.0000  0.0000  0.0000
  10.  O 2( 1s )   -0.0007  0.0311 -0.0437 -0.0633  0.0644  0.0064 -0.0065  0.0000
  11.  O 2( 2s )    0.0265  0.3356 -0.2191 -0.4668  0.2978  0.0470 -0.0300  0.0000
  12.  O 2( 3s )   -0.0535 -0.2915  0.0658  0.2479 -0.0809 -0.0250  0.0082  0.0000
  13.  O 2( 2px)    0.0704  0.3631  0.0188 -0.2857 -0.0929  0.0563 -0.0082  0.0000
  14.  O 2( 3px)   -0.0998 -0.3359 -0.0570  0.1376  0.0653 -0.0402  0.0077  0.0000
  15.  O 2( 2py)   -0.0071 -0.0366 -0.0019  0.0563 -0.0082  0.2669 -0.1731  0.0000
  16.  O 2( 3py)    0.0101  0.0339  0.0057 -0.0402  0.0077 -0.2577  0.1408  0.0000
  17.  O 2( 2pz)    0.0000  0.0000  0.0000  0.0000  0.0000  0.0000  0.0000  0.2725
  18.  O 2( 3pz)    0.0000  0.0000  0.0000  0.0000  0.0000  0.0000  0.0000 -0.2617
  19.  H 3( 1s )    0.0779  0.5807 -0.2171  0.2208 -0.0956  0.5105 -0.2211  0.0000
  20.  H 3( 2s )   -0.0699 -0.3274  0.1586  0.0173  0.0716  0.0400  0.1654  0.0000
  21.  H 4( 1s )    0.0774  0.5794 -0.2182  0.1855 -0.0810 -0.2684  0.1172 -0.4499
[...]
       2.000 0.002 0.000 0.000 0.000 0.000 0.000 0.000 0.000
      Eigenvector ( 1) has occupancy 1.99994
            1.0000 0.0000 0.0000 0.0000 0.0000 0.0000 0.0000 0.0000
            0.0000
           NBO accepted:    1. Label:CR ( 1)   1
        1 eigenvector(s) stashed in permanent list

 Search of NHO DM block for the following atom(s):   2
      Select eigenvectors with eigenvalue > 1.900
       2.000 1.990 1.977 0.002 0.001 0.000 0.000 0.000 0.000
      Eigenvector ( 1) has occupancy 1.99995
            1.0000 0.0000 0.0000 0.0000 0.0000 0.0000 0.0000 0.0000
            0.0000
           NBO accepted:    2. Label:CR ( 1)   2
      Eigenvector ( 2) has occupancy 1.98973
            0.0000 1.0000 0.0000 0.0000 0.0000 0.0000 0.0000 0.0000
            0.0000
           NBO accepted:    3. Label:LP ( 1)   2
      Eigenvector ( 3) has occupancy 1.97735
            0.0000 0.0000 1.0000 0.0000 0.0000 0.0000 0.0000 0.0000
            0.0000
           NBO accepted:    4. Label:LP ( 2)   2
        3 eigenvector(s) stashed in permanent list

  1-center NBOs projected from the NHO density matrix
      10.033 electrons remain (>1.900); search continues

 Search of NHO DM block for the following atom(s):   1   2
      Select eigenvectors with eigenvalue > 1.900
       1.998 0.000 0.000 0.000 0.000 0.000 0.000 0.000 0.000 0.000 0.000 0.000
       0.000 0.000 0.000 0.000 0.000 0.000
      Eigenvector ( 1) has occupancy 1.99849
            0.0000 0.0000 0.0000 0.0000 0.5777 0.0000 0.0000 0.0000
            0.0000 0.0000 0.0000 0.0000 0.0000 0.8163 0.0000 0.0000
            0.0000 0.0000
      Occupancy is 1.998 after deleting minor hybrid components
            0.0000 0.0000 0.0000 0.0000 0.5777 0.0000 0.0000 0.0000
            0.0000 0.0000 0.0000 0.0000 0.0000 0.8163 0.0000 0.0000
            0.0000 0.0000
           NBO accepted:    5. Label:BD ( 1)   1   2
      Occupancy is 0.000 for antibonding component
            0.0000 0.0000 0.0000 0.0000 0.8163 0.0000 0.0000 0.0000
            0.0000 0.0000 0.0000 0.0000 0.0000-0.5777 0.0000 0.0000
            0.0000 0.0000
           NBO accepted:    6. Label:BD*( 1)   1   2
        2 eigenvector(s) stashed in permanent list

 Search of NHO DM block for the following atom(s):   1   3
      Select eigenvectors with eigenvalue > 1.900
       1.993 0.009 0.000 0.000 0.000 0.000 0.000 0.000 0.000 0.000 0.000
      Eigenvector ( 1) has occupancy 1.99332
            0.0000 0.7846 0.0000 0.0000 0.0000 0.0000 0.0000 0.0000
            0.0000 0.6200 0.0000
      Occupancy is 1.993 after deleting minor hybrid components
            0.0000 0.7846 0.0000 0.0000 0.0000 0.0000 0.0000 0.0000
            0.0000 0.6200 0.0000
           NBO accepted:    7. Label:BD ( 1)   1   3
      Occupancy is 0.009 for antibonding component
            0.0000-0.6200 0.0000 0.0000 0.0000 0.0000 0.0000 0.0000
            0.0000 0.7846 0.0000
           NBO accepted:    8. Label:BD*( 1)   1   3
        2 eigenvector(s) stashed in permanent list

 Search of NHO DM block for the following atom(s):   1   4
      Select eigenvectors with eigenvalue > 1.900
       1.998 0.014 0.000 0.000 0.000 0.000 0.000 0.000 0.000 0.000 0.000
      Eigenvector ( 1) has occupancy 1.99785
            0.0000 0.0000 0.7771 0.0000 0.0000 0.0000 0.0000 0.0000
            0.0000 0.6294 0.0000
      Occupancy is 1.998 after deleting minor hybrid components
            0.0000 0.0000 0.7771 0.0000 0.0000 0.0000 0.0000 0.0000
            0.0000 0.6294 0.0000
           NBO accepted:    9. Label:BD ( 1)   1   4
      Occupancy is 0.014 for antibonding component
            0.0000 0.0000-0.6294 0.0000 0.0000 0.0000 0.0000 0.0000
            0.0000 0.7771 0.0000
           NBO accepted:   10. Label:BD*( 1)   1   4
        2 eigenvector(s) stashed in permanent list

 Search of NHO DM block for the following atom(s):   1   5
      Select eigenvectors with eigenvalue > 1.900
       1.998 0.014 0.000 0.000 0.000 0.000 0.000 0.000 0.000 0.000 0.000
      Eigenvector ( 1) has occupancy 1.99785
            0.0000 0.0000 0.0000 0.7771 0.0000 0.0000 0.0000 0.0000
            0.0000 0.6294 0.0000
      Occupancy is 1.998 after deleting minor hybrid components
            0.0000 0.0000 0.0000 0.7771 0.0000 0.0000 0.0000 0.0000
            0.0000 0.6294 0.0000
           NBO accepted:   11. Label:BD ( 1)   1   5
      Occupancy is 0.014 for antibonding component
            0.0000 0.0000 0.0000-0.6294 0.0000 0.0000 0.0000 0.0000
            0.0000 0.7771 0.0000
           NBO accepted:   12. Label:BD*( 1)   1   5
        2 eigenvector(s) stashed in permanent list

 Search of NHO DM block for the following atom(s):   2   6
      Select eigenvectors with eigenvalue > 1.900
       1.992 0.004 0.000 0.000 0.000 0.000 0.000 0.000 0.000 0.000 0.000
      Eigenvector ( 1) has occupancy 1.99213
            0.0000 0.0000 0.0000 0.8595 0.0000 0.0000 0.0000 0.0000
            0.0000 0.5111 0.0000
      Occupancy is 1.992 after deleting minor hybrid components
            0.0000 0.0000 0.0000 0.8595 0.0000 0.0000 0.0000 0.0000
            0.0000 0.5111 0.0000
           NBO accepted:   13. Label:BD ( 1)   2   6
      Occupancy is 0.004 for antibonding component
            0.0000 0.0000 0.0000-0.5111 0.0000 0.0000 0.0000 0.0000
            0.0000 0.8595 0.0000
           NBO accepted:   14. Label:BD*( 1)   2   6
        2 eigenvector(s) stashed in permanent list

  2-center NBOs projected from the NHO density matrix
       0.011 electrons remain in the fully projected matrix

                            Occupancies       Lewis Structure    Low   High
         Max    Occ     -------------------  -----------------   occ   occ
  Cycle  Ctr   Thresh    Lewis   non-Lewis     CR  BD  nC  LP    (L)   (NL)
 ============================================================================
    3     2     1.90    17.94660   0.05340      2   5   0   2     0      0
 ----------------------------------------------------------------------------

 Structure accepted: No low occupancy Lewis orbitals

 -------------------------------------------------------
   Core                      3.99989 ( 99.997% of   4)
   Valence Lewis            13.94671 ( 99.619% of  14)
  ==================      =============================
   Total Lewis              17.94660 ( 99.703% of  18)
  -----------------------------------------------------
   Valence non-Lewis         0.04253 (  0.236% of  18)
   Rydberg non-Lewis         0.01087 (  0.060% of  18)
  ==================      =============================
   Total non-Lewis           0.05340 (  0.297% of  18)
 -------------------------------------------------------


     (Occupancy)   Bond orbital / Coefficients / Hybrids
 ------------------ Lewis ------------------------------------------------------
   1. (1.99994) CR ( 1) C  1            s(100.00%)
                                         1.0000  0.0000  0.0000  0.0000  0.0000
                                         0.0000  0.0000  0.0000  0.0000
   2. (1.99995) CR ( 1) O  2            s(100.00%)
                                         1.0000  0.0000  0.0000  0.0000  0.0000
                                         0.0000  0.0000  0.0000  0.0000
   3. (1.98973) LP ( 1) O  2            s( 53.85%)p 0.86( 46.15%)
                                         0.0000  0.7338 -0.0053 -0.3954 -0.0020
                                         0.5524 -0.0041  0.0000  0.0000
   4. (1.97735) LP ( 2) O  2            s(  0.00%)p 1.00(100.00%)
                                         0.0000  0.0000  0.0000  0.0000  0.0000
                                         0.0000  0.0000  1.0000 -0.0043
   5. (1.99849) BD ( 1) C  1- O  2
               ( 33.37%)   0.5777* C  1 s( 20.98%)p 3.77( 79.02%)
                                         0.0000  0.4564  0.0387 -0.8855 -0.0465
                                         0.0608  0.0165  0.0000  0.0000
               ( 66.63%)   0.8163* O  2 s( 27.57%)p 2.63( 72.43%)
                                         0.0000  0.5251  0.0021  0.8460 -0.0052
                                        -0.0918  0.0124  0.0000  0.0000
   6. (1.99332) BD ( 1) C  1- H  3
               ( 61.57%)   0.7846* C  1 s( 26.12%)p 2.83( 73.88%)
                                         0.0000  0.5111 -0.0028  0.3183 -0.0078
                                         0.7983 -0.0111  0.0000  0.0000
               ( 38.43%)   0.6200* H  3 s(100.00%)
                                         1.0000  0.0015
   7. (1.99785) BD ( 1) C  1- H  4
               ( 60.39%)   0.7771* C  1 s( 26.50%)p 2.77( 73.50%)
                                         0.0000  0.5148 -0.0089  0.2357  0.0058
                                        -0.4234  0.0074 -0.7071  0.0051
               ( 39.61%)   0.6294* H  4 s(100.00%)
                                         1.0000  0.0028
   8. (1.99785) BD ( 1) C  1- H  5
               ( 60.39%)   0.7771* C  1 s( 26.50%)p 2.77( 73.50%)
                                         0.0000  0.5148 -0.0089  0.2357  0.0058
                                        -0.4234  0.0074  0.7071 -0.0051
               ( 39.61%)   0.6294* H  5 s(100.00%)
                                         1.0000  0.0028
   9. (1.99213) BD ( 1) O  2- H  6
               ( 73.88%)   0.8595* O  2 s( 18.57%)p 4.38( 81.43%)
                                         0.0000  0.4308  0.0104 -0.3574 -0.0273
                                        -0.8281 -0.0035  0.0000  0.0000
               ( 26.12%)   0.5111* H  6 s(100.00%)
                                         1.0000 -0.0031
 ---------------- non-Lewis ----------------------------------------------------
  10. (0.00048) BD*( 1) C  1- O  2
               ( 66.63%)   0.8163* C  1 s( 20.98%)p 3.77( 79.02%)
                                         0.0000  0.4564  0.0387 -0.8855 -0.0465
                                         0.0608  0.0165  0.0000  0.0000
               ( 33.37%)  -0.5777* O  2 s( 27.57%)p 2.63( 72.43%)
                                         0.0000  0.5251  0.0021  0.8460 -0.0052
                                        -0.0918  0.0124  0.0000  0.0000
  11. (0.00935) BD*( 1) C  1- H  3
               ( 38.43%)   0.6200* C  1 s( 26.12%)p 2.83( 73.88%)
                                         0.0000 -0.5111  0.0028 -0.3183  0.0078
                                        -0.7983  0.0111  0.0000  0.0000
               ( 61.57%)  -0.7846* H  3 s(100.00%)
                                        -1.0000 -0.0015
  12. (0.01414) BD*( 1) C  1- H  4
               ( 39.61%)   0.6294* C  1 s( 26.50%)p 2.77( 73.50%)
                                         0.0000 -0.5148  0.0089 -0.2357 -0.0058
                                         0.4234 -0.0074  0.7071 -0.0051
               ( 60.39%)  -0.7771* H  4 s(100.00%)
                                        -1.0000 -0.0028
  13. (0.01414) BD*( 1) C  1- H  5
               ( 39.61%)   0.6294* C  1 s( 26.50%)p 2.77( 73.50%)
                                         0.0000 -0.5148  0.0089 -0.2357 -0.0058
                                         0.4234 -0.0074 -0.7071  0.0051
               ( 60.39%)  -0.7771* H  5 s(100.00%)
                                        -1.0000 -0.0028
  14. (0.00441) BD*( 1) O  2- H  6
               ( 26.12%)   0.5111* O  2 s( 18.57%)p 4.38( 81.43%)
                                         0.0000 -0.4308 -0.0104  0.3574  0.0273
                                         0.8281  0.0035  0.0000  0.0000
               ( 73.88%)  -0.8595* H  6 s(100.00%)
                                        -1.0000  0.0031
  15. (0.00152) RY ( 1) C  1            s(  9.88%)p 9.12( 90.12%)
                                         0.0000 -0.0224  0.3135  0.0527 -0.7768
                                        -0.0056  0.5431  0.0000  0.0000
  16. (0.00007) RY ( 2) C  1            s( 66.39%)p 0.51( 33.61%)
  17. (0.00000) RY ( 3) C  1            s( 23.61%)p 3.23( 76.39%)
  18. (0.00000) RY ( 4) C  1            s(  0.00%)p 1.00(100.00%)
  19. (0.00181) RY ( 1) O  2            s(  0.00%)p 1.00(100.00%)
                                         0.0000  0.0000  0.0000  0.0000  0.0000
                                         0.0000  0.0000  0.0043  1.0000
  20. (0.00116) RY ( 2) O  2            s(  9.31%)p 9.74( 90.69%)
                                         0.0000 -0.0020  0.3052 -0.0129  0.0256
                                         0.0035  0.9519  0.0000  0.0000
  21. (0.00042) RY ( 3) O  2            s( 55.49%)p 0.80( 44.51%)
                                         0.0000  0.0091  0.7449 -0.0005  0.6163
                                        -0.0050 -0.2554  0.0000  0.0000
  22. (0.00000) RY ( 4) O  2            s( 35.21%)p 1.84( 64.79%)
  23. (0.00104) RY ( 1) H  3            s(100.00%)
                                        -0.0015  1.0000
  24. (0.00161) RY ( 1) H  4            s(100.00%)
                                        -0.0028  1.0000
  25. (0.00161) RY ( 1) H  5            s(100.00%)
                                        -0.0028  1.0000
  26. (0.00162) RY ( 1) H  6            s(100.00%)
                                         0.0031  1.0000


 NHO DIRECTIONALITY AND BOND BENDING (deviation from line of nuclear centers at
                                      the position of maximum hybrid amplitude)

         [Thresholds for printing:  angular deviation  >  1.0 degree]
                                    p- or d-character  > 25.0%
                                    orbital occupancy  >  0.10e

                        Line of Centers        Hybrid 1             Hybrid 2
                        ---------------  -------------------  ------------------
           NBO            Theta   Phi    Theta   Phi    Dev   Theta   Phi    Dev
 ===============================================================================
   3. LP ( 1) O  2          --     --     90.0  124.5   --      --     --    --
   4. LP ( 2) O  2          --     --      0.0    0.0   --      --     --    --
   6. BD ( 1) C  1- H  3   90.0   66.6    90.0   68.2   1.6     --     --    --
   7. BD ( 1) C  1- H  4  144.1  304.7   145.4  300.8   2.6     --     --    --
   8. BD ( 1) C  1- H  5   35.9  304.7    34.6  300.8   2.6     --     --    --
   9. BD ( 1) O  2- H  6   90.0  250.4    90.0  246.2   4.2     --     --    --


 SECOND ORDER PERTURBATION THEORY ANALYSIS OF FOCK MATRIX IN NBO BASIS

     Threshold for printing:   0.50 kcal/mol
                                                          E(2) E(NL)-E(L) F(L,NL)
      Donor (L) NBO              Acceptor (NL) NBO      kcal/mol   a.u.    a.u.
 ===============================================================================

 within unit  1
    3. LP ( 1) O  2            11. BD*( 1) C  1- H  3      1.67    1.46   0.044
    3. LP ( 1) O  2            12. BD*( 1) C  1- H  4      1.31    1.44   0.039
    3. LP ( 1) O  2            13. BD*( 1) C  1- H  5      1.31    1.44   0.039
    3. LP ( 1) O  2            15. RY ( 1) C  1            1.09    1.65   0.038
    4. LP ( 2) O  2            12. BD*( 1) C  1- H  4      7.13    1.16   0.081
    4. LP ( 2) O  2            13. BD*( 1) C  1- H  5      7.13    1.16   0.081
    5. BD ( 1) C  1- O  2      26. RY ( 1) H  6            0.59    1.74   0.029
    6. BD ( 1) C  1- H  3      14. BD*( 1) O  2- H  6      2.63    1.32   0.053
    6. BD ( 1) C  1- H  3      20. RY ( 2) O  2            1.38    2.13   0.048
    6. BD ( 1) C  1- H  3      24. RY ( 1) H  4            0.52    1.45   0.024
    6. BD ( 1) C  1- H  3      25. RY ( 1) H  5            0.52    1.45   0.024
    7. BD ( 1) C  1- H  4      19. RY ( 1) O  2            1.06    2.01   0.041
    8. BD ( 1) C  1- H  5      19. RY ( 1) O  2            1.06    2.01   0.041
    9. BD ( 1) O  2- H  6      11. BD*( 1) C  1- H  3      3.97    1.55   0.070
    9. BD ( 1) O  2- H  6      15. RY ( 1) C  1            0.81    1.74   0.033


 NATURAL BOND ORBITALS (Summary):

                                                     Principal Delocalizations
           NBO                 Occupancy    Energy   (geminal,vicinal,remote)
 ===============================================================================
 Molecular unit  1  (CH4O)
 ------ Lewis --------------------------------------
    1. CR ( 1) C  1             1.99994   -11.25652
    2. CR ( 1) O  2             1.99995   -20.52355
    3. LP ( 1) O  2             1.98973    -0.76619  11(v),12(v),13(v),15(v)
    4. LP ( 2) O  2             1.97735    -0.48501  12(v),13(v)
    5. BD ( 1) C  1- O  2       1.99849    -0.93684  26(v)
    6. BD ( 1) C  1- H  3       1.99332    -0.66971  14(v),20(v),24(v),25(v)
    7. BD ( 1) C  1- H  4       1.99785    -0.67884  19(v)
    8. BD ( 1) C  1- H  5       1.99785    -0.67884  19(v)
    9. BD ( 1) O  2- H  6       1.99213    -0.85616  11(v),15(v)
 ------ non-Lewis ----------------------------------
   10. BD*( 1) C  1- O  2       0.00048     0.50709
   11. BD*( 1) C  1- H  3       0.00935     0.69551
   12. BD*( 1) C  1- H  4       0.01414     0.67474
   13. BD*( 1) C  1- H  5       0.01414     0.67474
   14. BD*( 1) O  2- H  6       0.00441     0.65034
   15. RY ( 1) C  1             0.00152     0.87960
   16. RY ( 2) C  1             0.00007     1.25701
   17. RY ( 3) C  1             0.00000     1.04705
   18. RY ( 4) C  1             0.00000     0.91506
   19. RY ( 1) O  2             0.00181     1.32907
   20. RY ( 2) O  2             0.00116     1.45741
   21. RY ( 3) O  2             0.00042     1.85385
   22. RY ( 4) O  2             0.00000     1.54066
   23. RY ( 1) H  3             0.00104     0.77843
   24. RY ( 1) H  4             0.00161     0.77967
   25. RY ( 1) H  5             0.00161     0.77967
   26. RY ( 1) H  6             0.00162     0.80191
          -------------------------------
                 Total Lewis   17.94660  ( 99.7033%)
           Valence non-Lewis    0.04253  (  0.2363%)
           Rydberg non-Lewis    0.01087  (  0.0604%)
          -------------------------------
               Total unit  1   18.00000  (100.0000%)
              Charge unit  1    0.00000

 $CHOOSE
   LONE 2 2 END
   BOND S 1 2 S 1 3 S 1 4 S 1 5 S 2 6 END
 $END

 NBO analysis completed in 0.34 CPU seconds (1 wall second)
 Maximum scratch memory used by NBO was 267318 words (2.04 MB)
 Maximum scratch memory used by G16NBO was 9311 words (0.07 MB)

 Opening RunExU unformatted file "/cluster/work/users/beto93/CH3OH/Gau-160484.EUF"
 Read unf file /cluster/work/users/beto93/CH3OH/Gau-160484.EUF:
 Label Gaussian matrix elements                                         IVers= 2 NLab= 2 Version=ES64L-G16RevC.01
 Title NBO-a                                                           
 NAtoms=     6 NBasis=    26 NBsUse=    26 ICharg=     0 Multip=     1 NE=    18 Len12L=8 Len4L=8 IOpCl= 0 ICGU=111
 GAUSSIAN SCALARS                    NI= 1 NR= 1 NTot=       1 LenBuf=    2 NRI=1 N=    1000
 NPA CHARGES                         NI= 0 NR= 1 NTot=       6 LenBuf= 4000 NRI=1 N=       6
 Recovered energy= -114.867186688     dipole=      0.563831286108     -0.779670957744     -0.000000239822
 Unable to Open any file for archive entry.
 1\1\GINC-C1-8\SP\RHF\4-31G\C1H4O1\BETO93\24-Jul-2024\0\\#RHF/4-31G Pop
 =NBO7Read\\NBO-a\\0,1\C,0,-0.004656,0.008066,-0.014442\O,0,-0.695573,1
 .204768,-0.393961\H,0,0.017016,-0.029474,1.076161\H,0,1.028828,-0.0089
 85,-0.37608\H,0,-0.506631,-0.895483,-0.376082\H,0,-0.682583,1.18227,-1
 .384739\\Version=ES64L-G16RevC.01\State=1-A\HF=-114.8671867\RMSD=1.435
 e-09\Dipole=0.4034109,-0.6987263,-0.5242459\Quadrupole=-0.7493085,-1.1
 217648,1.8710733,0.3225573,0.5705666,-0.9882528\PG=C01 [X(C1H4O1)]\\@
 The archive entry for this job was punched.


 LOGIC IS A SYSTEMATIC METHOD OF COMING TO THE
 WRONG CONCLUSION WITH CONFIDENCE.
 Job cpu time:       0 days  0 hours  0 minutes  8.2 seconds.
 Elapsed time:       0 days  0 hours  0 minutes  2.8 seconds.
 File lengths (MBytes):  RWF=     10 Int=      0 D2E=      0 Chk=      1 Scr=      1
 Normal termination of Gaussian 16 at Wed Jul 24 13:56:58 2024.
