 Entering Gaussian System, Link 0=g16
 Initial command:
 /cluster/software/Gaussian/g16_C.01/l1.exe "/cluster/work/users/beto93/mol65/Gau-2207585.inp" -scrdir="/cluster/work/users/beto93/mol65/"
 Entering Link 1 = /cluster/software/Gaussian/g16_C.01/l1.exe PID=   2207586.
  
 Copyright (c) 1988-2019, Gaussian, Inc.  All Rights Reserved.
  
 This is part of the Gaussian(R) 16 program.  It is based on
 the Gaussian(R) 09 system (copyright 2009, Gaussian, Inc.),
 the Gaussian(R) 03 system (copyright 2003, Gaussian, Inc.),
 the Gaussian(R) 98 system (copyright 1998, Gaussian, Inc.),
 the Gaussian(R) 94 system (copyright 1995, Gaussian, Inc.),
 the Gaussian 92(TM) system (copyright 1992, Gaussian, Inc.),
 the Gaussian 90(TM) system (copyright 1990, Gaussian, Inc.),
 the Gaussian 88(TM) system (copyright 1988, Gaussian, Inc.),
 the Gaussian 86(TM) system (copyright 1986, Carnegie Mellon
 University), and the Gaussian 82(TM) system (copyright 1983,
 Carnegie Mellon University). Gaussian is a federally registered
 trademark of Gaussian, Inc.
  
 This software contains proprietary and confidential information,
 including trade secrets, belonging to Gaussian, Inc.
  
 This software is provided under written license and may be
 used, copied, transmitted, or stored only in accord with that
 written license.
  
 The following legend is applicable only to US Government
 contracts under FAR:
  
                    RESTRICTED RIGHTS LEGEND
  
 Use, reproduction and disclosure by the US Government is
 subject to restrictions as set forth in subparagraphs (a)
 and (c) of the Commercial Computer Software - Restricted
 Rights clause in FAR 52.227-19.
  
 Gaussian, Inc.
 340 Quinnipiac St., Bldg. 40, Wallingford CT 06492
  
  
 ---------------------------------------------------------------
 Warning -- This program may not be used in any manner that
 competes with the business of Gaussian, Inc. or will provide
 assistance to any competitor of Gaussian, Inc.  The licensee
 of this program is prohibited from giving any competitor of
 Gaussian, Inc. access to this program.  By using this program,
 the user acknowledges that Gaussian, Inc. is engaged in the
 business of creating and licensing software in the field of
 computational chemistry and represents and warrants to the
 licensee that it is not a competitor of Gaussian, Inc. and that
 it will not use this program in any manner prohibited above.
 ---------------------------------------------------------------
  

 Cite this work as:
 Gaussian 16, Revision C.01,
 M. J. Frisch, G. W. Trucks, H. B. Schlegel, G. E. Scuseria, 
 M. A. Robb, J. R. Cheeseman, G. Scalmani, V. Barone, 
 G. A. Petersson, H. Nakatsuji, X. Li, M. Caricato, A. V. Marenich, 
 J. Bloino, B. G. Janesko, R. Gomperts, B. Mennucci, H. P. Hratchian, 
 J. V. Ortiz, A. F. Izmaylov, J. L. Sonnenberg, D. Williams-Young, 
 F. Ding, F. Lipparini, F. Egidi, J. Goings, B. Peng, A. Petrone, 
 T. Henderson, D. Ranasinghe, V. G. Zakrzewski, J. Gao, N. Rega, 
 G. Zheng, W. Liang, M. Hada, M. Ehara, K. Toyota, R. Fukuda, 
 J. Hasegawa, M. Ishida, T. Nakajima, Y. Honda, O. Kitao, H. Nakai, 
 T. Vreven, K. Throssell, J. A. Montgomery, Jr., J. E. Peralta, 
 F. Ogliaro, M. J. Bearpark, J. J. Heyd, E. N. Brothers, K. N. Kudin, 
 V. N. Staroverov, T. A. Keith, R. Kobayashi, J. Normand, 
 K. Raghavachari, A. P. Rendell, J. C. Burant, S. S. Iyengar, 
 J. Tomasi, M. Cossi, J. M. Millam, M. Klene, C. Adamo, R. Cammi, 
 J. W. Ochterski, R. L. Martin, K. Morokuma, O. Farkas, 
 J. B. Foresman, and D. J. Fox, Gaussian, Inc., Wallingford CT, 2019.
 
 ******************************************
 Gaussian 16:  ES64L-G16RevC.01  3-Jul-2019
                18-Nov-2024 
 ******************************************
 %LindaWorkers=c2-23-ib
 %NProcShared=4
 Will use up to    4 processors via shared memory.
 %mem=25GB
 %chk=mol65.chk
 SetLPE:    new flags="-opt 'Tsnet.Node.lindarsharg: ssh'  -nodelist 'c2-23-ib.saga' -env GAUSS_MDEF=3355443200 -env GAUSS_EXEDIR="/cluster/software/Gaussian/g16_C.01/bsd:/cluster/software/Gaussian/g16_C.01""
 Will use up to    1 processors via Linda.
 -----------------------------------------------------------------
 #RHF/6-31G* int=nobasistransform Symmetry=None 5D 7F Pop=NBO7Read
 -----------------------------------------------------------------
 1/38=1,163=2,172=1/1;
 2/12=2,15=3,17=6,18=5,40=1/2;
 3/5=1,6=6,7=1,8=11,11=1,25=1,30=1,60=-1,116=1/1,2,3;
 4//1;
 5/5=2,38=5/2;
 6/7=2,8=2,9=2,10=2,28=1,40=2,113=1,114=1,124=2103/1,12;
 99/5=1,9=1/99;
 ---------
 mol65-NBO
 ---------
 Symbolic Z-matrix:
 Charge =  0 Multiplicity = 1
 Si                    0.        0.        0. 
 Cl                    1.16935   1.16935   1.16935 
 Cl                   -1.16935  -1.16935   1.16935 
 Cl                    1.16935  -1.16935  -1.16935 
 Cl                   -1.16935   1.16935  -1.16935 
 
                          Input orientation:                          
 ---------------------------------------------------------------------
 Center     Atomic      Atomic             Coordinates (Angstroms)
 Number     Number       Type             X           Y           Z
 ---------------------------------------------------------------------
      1         14           0        0.000000    0.000000    0.000000
      2         17           0        1.169349    1.169349    1.169349
      3         17           0       -1.169349   -1.169349    1.169349
      4         17           0        1.169349   -1.169349   -1.169349
      5         17           0       -1.169349    1.169349   -1.169349
 ---------------------------------------------------------------------
                    Distance matrix (angstroms):
                    1          2          3          4          5
     1  Si   0.000000
     2  Cl   2.025372   0.000000
     3  Cl   2.025372   3.307418   0.000000
     4  Cl   2.025372   3.307418   3.307418   0.000000
     5  Cl   2.025372   3.307418   3.307418   3.307418   0.000000
 Symmetry turned off by external request.
 Stoichiometry    Cl4Si
 Rotational constants (GHZ):           1.3211664           1.3211664           1.3211664
 Standard basis: 6-31G(d) (5D, 7F)
    90 basis functions,   260 primitive gaussians,    95 cartesian basis functions
    41 alpha electrons       41 beta electrons
       nuclear repulsion energy       526.1678359289 Hartrees.
 NAtoms=    5 NActive=    5 NUniq=    5 SFac= 1.00D+00 NAtFMM=   60 NAOKFM=F Big=F
 Integral buffers will be    131072 words long.
 Raffenetti 1 integral format.
 Two-electron integral symmetry is turned off.
 One-electron integrals computed using PRISM.
 NBasis=    90 RedAO= T EigKep=  7.19D-03  NBF=    90
 NBsUse=    90 1.00D-06 EigRej= -1.00D+00 NBFU=    90
 ExpMin= 7.78D-02 ExpMax= 2.52D+04 ExpMxC= 3.78D+03 IAcc=3 IRadAn=         5 AccDes= 0.00D+00
 Harris functional with IExCor=  205 and IRadAn=       5 diagonalized for initial guess.
 HarFok:  IExCor=  205 AccDes= 0.00D+00 IRadAn=         5 IDoV= 1 UseB2=F ITyADJ=14
 ICtDFT=  3500011 ScaDFX=  1.000000  1.000000  1.000000  1.000000
 FoFCou: FMM=F IPFlag=           0 FMFlag=      100000 FMFlg1=           0
         NFxFlg=           0 DoJE=T BraDBF=F KetDBF=T FulRan=T
         wScrn=  0.000000 ICntrl=       500 IOpCl=  0 I1Cent=   200000004 NGrid=           0
         NMat0=    1 NMatS0=      1 NMatT0=    0 NMatD0=    1 NMtDS0=    0 NMtDT0=    0
 Symmetry not used in FoFCou.
 Keep R1 ints in memory in canonical form, NReq=9248707.
 Requested convergence on RMS density matrix=1.00D-08 within 128 cycles.
 Requested convergence on MAX density matrix=1.00D-06.
 Requested convergence on             energy=1.00D-06.
 No special actions if energy rises.
 SCF Done:  E(RHF) =  -2127.03983302     A.U. after   10 cycles
            NFock= 10  Conv=0.12D-08     -V/T= 1.9997

 **********************************************************************

            Population analysis using the SCF Density.

 **********************************************************************

 Alpha  occ. eigenvalues -- -104.84936-104.84934-104.84934-104.84934 -68.94557
 Alpha  occ. eigenvalues --  -10.59163 -10.59163 -10.59163 -10.59163  -8.05981
 Alpha  occ. eigenvalues --   -8.05981  -8.05981  -8.05979  -8.05694  -8.05694
 Alpha  occ. eigenvalues --   -8.05694  -8.05694  -8.05694  -8.05694  -8.05693
 Alpha  occ. eigenvalues --   -8.05693  -6.29285  -4.39940  -4.39940  -4.39940
 Alpha  occ. eigenvalues --   -1.18866  -1.12983  -1.12983  -1.12983  -0.73355
 Alpha  occ. eigenvalues --   -0.60900  -0.60900  -0.60900  -0.52978  -0.52978
 Alpha  occ. eigenvalues --   -0.51143  -0.51143  -0.51143  -0.48046  -0.48046
 Alpha  occ. eigenvalues --   -0.48046
 Alpha virt. eigenvalues --    0.11912   0.15767   0.15767   0.15767   0.25128
 Alpha virt. eigenvalues --    0.34720   0.34720   0.34720   0.51325   0.51325
 Alpha virt. eigenvalues --    0.51325   0.55956   0.55956   0.58118   0.63688
 Alpha virt. eigenvalues --    0.63688   0.66419   0.66419   0.66419   0.70021
 Alpha virt. eigenvalues --    0.70021   0.70021   0.79517   0.79517   0.79517
 Alpha virt. eigenvalues --    0.91403   0.91403   0.91403   0.95606   1.09717
 Alpha virt. eigenvalues --    1.09717   1.09717   1.11142   1.11142   1.11387
 Alpha virt. eigenvalues --    1.11387   1.11387   1.12630   1.12630   1.12630
 Alpha virt. eigenvalues --    1.27367   1.27367   1.27367   1.29390   1.29390
 Alpha virt. eigenvalues --    1.39094   1.59408   1.59408   1.59408
          Condensed to atoms (all electrons):
               1          2          3          4          5
     1  Si  11.656817   0.344301   0.344301   0.344301   0.344301
     2  Cl   0.344301  17.027688  -0.043498  -0.043498  -0.043498
     3  Cl   0.344301  -0.043498  17.027688  -0.043498  -0.043498
     4  Cl   0.344301  -0.043498  -0.043498  17.027688  -0.043498
     5  Cl   0.344301  -0.043498  -0.043498  -0.043498  17.027688
 Mulliken charges:
               1
     1  Si   0.965978
     2  Cl  -0.241495
     3  Cl  -0.241495
     4  Cl  -0.241495
     5  Cl  -0.241495
 Sum of Mulliken charges =  -0.00000
 Mulliken charges with hydrogens summed into heavy atoms:
               1
     1  Si   0.965978
     2  Cl  -0.241495
     3  Cl  -0.241495
     4  Cl  -0.241495
     5  Cl  -0.241495
 Electronic spatial extent (au):  <R**2>=           1141.2217
 Charge=             -0.0000 electrons
 Dipole moment (field-independent basis, Debye):
    X=             -0.0000    Y=             -0.0000    Z=             -0.0000  Tot=              0.0000
 Quadrupole moment (field-independent basis, Debye-Ang):
   XX=            -65.0509   YY=            -65.0509   ZZ=            -65.0509
   XY=             -0.0000   XZ=             -0.0000   YZ=             -0.0000
 Traceless Quadrupole moment (field-independent basis, Debye-Ang):
   XX=              0.0000   YY=             -0.0000   ZZ=             -0.0000
   XY=             -0.0000   XZ=             -0.0000   YZ=             -0.0000
 Octapole moment (field-independent basis, Debye-Ang**2):
  XXX=              0.0000  YYY=             -0.0000  ZZZ=              0.0000  XYY=             -0.0000
  XXY=             -0.0000  XXZ=              0.0000  XZZ=             -0.0000  YZZ=             -0.0000
  YYZ=              0.0000  XYZ=             -0.0402
 Hexadecapole moment (field-independent basis, Debye-Ang**3):
 XXXX=           -492.0341 YYYY=           -492.0341 ZZZZ=           -492.0341 XXXY=              0.0000
 XXXZ=             -0.0000 YYYX=              0.0000 YYYZ=              0.0000 ZZZX=             -0.0000
 ZZZY=             -0.0000 XXYY=           -158.6078 XXZZ=           -158.6078 YYZZ=           -158.6078
 XXYZ=             -0.0000 YYXZ=             -0.0000 ZZXY=              0.0000
 N-N= 5.261678359289D+02 E-N=-6.118047401077D+03  KE= 2.127770403600D+03
 Running external command "gaunbo7 R"
         input file       "/cluster/work/users/beto93/mol65/Gau-2207586.EIn"
         output file      "/cluster/work/users/beto93/mol65/Gau-2207586.EOu"
         message file     "/cluster/work/users/beto93/mol65/Gau-2207586.EMs"
         fchk file        "/cluster/work/users/beto93/mol65/Gau-2207586.EFC"
         mat. el file     "/cluster/work/users/beto93/mol65/Gau-2207586.EUF"

 Writing WrtUnf unformatted file "/cluster/work/users/beto93/mol65/Gau-2207586.EUF"
 Gaussian matrix elements                                         Version   2 NLab=11 Len12L=8 Len4L=8
 Write SHELL TO ATOM MAP                   from file      0 offset           0 length                  25 to matrix element file.
 Write SHELL TYPES                         from file      0 offset           0 length                  25 to matrix element file.
 Write NUMBER OF PRIMITIVES PER SHELL      from file      0 offset           0 length                  25 to matrix element file.
 Write PRIMITIVE EXPONENTS                 from file      0 offset           0 length                  85 to matrix element file.
 Write CONTRACTION COEFFICIENTS            from file      0 offset           0 length                  85 to matrix element file.
 Write P(S=P) CONTRACTION COEFFICIENTS     from file      0 offset           0 length                  85 to matrix element file.
 Write COORDINATES OF EACH SHELL           from file      0 offset           0 length                  75 to matrix element file.
 Write BONDS PER ATOM                      from file      0 offset           0 length                   5 to matrix element file.
 Write BONDED ATOMS                        from file      0 offset           0 length                   8 to matrix element file.
 Write BOND TYPES                          from file      0 offset           0 length                   8 to matrix element file.
 Write ONIOM CHARGE/MULT                   from file      0 offset           0 length                  32 to matrix element file.
 Write ONIOM ATOM LAYERS                   from file      0 offset           0 length                   5 to matrix element file.
 Write ONIOM ATOM MODIFIERS                from file      0 offset           0 length                   5 to matrix element file.
 Write ONIOM ATOM TYPES                    from file      0 offset           0 length                   5 to matrix element file.
 Write ONIOM LINK ATOMS                    from file      0 offset           0 length                   5 to matrix element file.
 Write ONIOM LINK CHARGES                  from file      0 offset           0 length                   5 to matrix element file.
 Write ONIOM LINK DISTANCES                from file      0 offset           0 length                  20 to matrix element file.
 Write SYMINF INTS                         from file      0 offset           0 length                  26 to matrix element file.
 Write ROTTR TO SO                         from file      0 offset           0 length                  12 to matrix element file.
 Write GAUSSIAN SCALARS                    from file    501 offset           0 to matrix element file.
 Write OPTIMIZATION FLAGS                  from file      0 offset           0 length                   5 to matrix element file.
 Write INTEGER ISO                         from file      0 offset           0 length                   5 to matrix element file.
 Write INTEGER SPIN                        from file      0 offset           0 length                   5 to matrix element file.
 Write REAL ZEFFECTIVE                     from file      0 offset           0 length                   5 to matrix element file.
 Write REAL QUADRUPOLEMOMENT               from file      0 offset           0 length                   5 to matrix element file.
 Write REAL GFACTOR                        from file      0 offset           0 length                   5 to matrix element file.
 Write REAL ZNUCLEAR                       from file      0 offset           0 length                   5 to matrix element file.
 Write MULLIKEN CHARGES                    from file      0 offset           0 length                   5 to matrix element file.
 Write NUCLEAR GRADIENT                    from file  10584 offset           0 length                  15 to matrix element file.
 Array NUCLEAR FORCE CONSTANTS              on  file  10585 does not exist.
 Write ELECTRIC DIPOLE MOMENT              from file      0 offset           0 length                   3 to matrix element file.
 Write NON-ADIABATIC COUPLING              from file  10810 offset           0 length                  15 to matrix element file.
 Write FINITE EM FIELD                     from file  10521 offset           0 length                  35 to matrix element file.
 Write OVERLAP                             from file  10514 offset           0 length                4095 to matrix element file.
 Write CORE HAMILTONIAN ALPHA              from file  10515 offset           0 length                4095 to matrix element file.
 Write CORE HAMILTONIAN BETA               from file  10515 offset        4095 length                4095 to matrix element file.
 Write KINETIC ENERGY                      from file  10516 offset           0 length                4095 to matrix element file.
 Write ORTHOGONAL BASIS                    from file  10685 offset           0 length                8100 to matrix element file.
 Write DIPOLE INTEGRALS                    from file  10518 offset           0 length               12285 to matrix element file.
 Array DIP VEL INTEGRALS                    on  file  10572 does not exist.
 Array R X DEL INTEGRALS                    on  file  10572 does not exist.
 Write ALPHA ORBITAL ENERGIES              from file      0 offset           0 length                  90 to matrix element file.
 Write ALPHA MO COEFFICIENTS               from file  10524 offset           0 length                8100 to matrix element file.
 Write ALPHA DENSITY MATRIX                from file      0 offset           0 length                4095 to matrix element file.
 Write ALPHA FOCK MATRIX                   from file  10536 offset           0 length                4095 to matrix element file.
 Write ENERGY-WEIGHTED DENSITY             from file  10571 offset           0 length                4095 to matrix element file.
 Write ALPHA SCF DENSITY MATRIX            from file      0 offset           0 length                4095 to matrix element file.
 No 2e integrals to process.
 Perform NBO analysis...executing G16NBO...

 *********************************** NBO 7.0 ***********************************
             N A T U R A L   A T O M I C   O R B I T A L   A N D
          N A T U R A L   B O N D   O R B I T A L   A N A L Y S I S
 **************************** Espen Tangen (S101595) ***************************
  (c) Copyright 1996-2021 Board of Regents of the University of Wisconsin System
      on behalf of the Theoretical Chemistry Institute.  All rights reserved.

          Cite this program [NBO 7.0.10 (8-Feb-2021)] as:

          NBO 7.0.  E. D. Glendening, J. K. Badenhoop, A. E. Reed,
          J. E. Carpenter, J. A. Bohmann, C. M. Morales, P. Karafiloglou,
          C. R. Landis, and F. Weinhold, Theoretical Chemistry Institute,
          University of Wisconsin, Madison, WI (2018)

       /NPA    / : Natural Population Analysis
       /AOPNAO / : Print the AO to PNAO transformation
       /AONAO  / : Print the AO to NAO transformation
       /AOMO   / : Print the MOs in the AO basis
       /BOAO   / : Print the AO bond-order matrix
       /DMAO   / : Print the AO density matrix
       /DMPNAO / : Print the PNAO density matrix
       /DMNAO  / : Print the NAO density matrix
       /DMMO   / : Print the MO density matrix
       /SAO    / : Print the AO overlap matrix
       /SPNAO  / : Print the PNAO overlap matrix
       /DETAIL / : Write details of NBO search
       /ARCHIVE/ : Write the archive file to lfn47
       /AOINFO / : Write AO information to lfn31
       /FILE   / : Set to mol65.gen*

 Filename set to mol65.gen1

 Job title: mol65-NBO


 MOs in the AO basis:

           AO          1       2       3       4       5       6       7       8
      ------------ ------- ------- ------- ------- ------- ------- ------- -------
   1. Si 1 (s)      0.0000  0.0000  0.0000  0.0000  0.9971  0.0000  0.0000  0.0000
   2. Si 1 (s)      0.0001  0.0000  0.0000  0.0000  0.0110  0.0000  0.0000  0.0000
   3. Si 1 (px)     0.0000  0.0000  0.0000  0.0000  0.0000  0.0000 -0.0001  0.0000
   4. Si 1 (py)     0.0000  0.0000  0.0000  0.0000  0.0000  0.0000  0.0000  0.0000
   5. Si 1 (pz)     0.0000  0.0000  0.0000  0.0000  0.0000  0.0001  0.0000  0.0000
   6. Si 1 (s)      0.0007  0.0000  0.0000  0.0000 -0.0033  0.0000  0.0000  0.0000
   7. Si 1 (px)     0.0000  0.0000  0.0001  0.0000  0.0000  0.0000 -0.0001 -0.0001
   8. Si 1 (py)     0.0000 -0.0001 -0.0001  0.0000  0.0000  0.0001  0.0001 -0.0001
   9. Si 1 (pz)     0.0000 -0.0001  0.0000 -0.0001  0.0000  0.0001  0.0000  0.0001
  10. Si 1 (s)     -0.0069  0.0000  0.0000  0.0000 -0.0004  0.0000  0.0000  0.0000
  11. Si 1 (px)     0.0000 -0.0006  0.0014  0.0008  0.0000  0.0013 -0.0035 -0.0024
  12. Si 1 (py)     0.0000 -0.0010 -0.0010  0.0009  0.0000  0.0024  0.0027 -0.0026
  13. Si 1 (pz)     0.0000 -0.0012  0.0002 -0.0012  0.0000  0.0035 -0.0005  0.0027
  14. Si 1 (d5)     0.0000  0.0000  0.0000  0.0000  0.0000  0.0000  0.0000  0.0000
  15. Si 1 (d2)     0.0000  0.0000  0.0000  0.0000  0.0000 -0.0001 -0.0001  0.0001
  16. Si 1 (d3)     0.0000  0.0000  0.0000  0.0000  0.0000  0.0000  0.0001  0.0001
  17. Si 1 (d4)     0.0000  0.0000  0.0000  0.0000  0.0000  0.0000  0.0000  0.0000
  18. Si 1 (d1)     0.0000  0.0000  0.0000  0.0000  0.0000 -0.0001  0.0000 -0.0001
  19. Cl 2 (s)      0.4982  0.8339 -0.1540 -0.1602  0.0000 -0.2333  0.0441  0.0729
  20. Cl 2 (s)      0.0063  0.0105 -0.0019 -0.0020  0.0000  0.8388 -0.1585 -0.2621
  21. Cl 2 (px)     0.0000  0.0000  0.0000  0.0000  0.0000 -0.0016  0.0003  0.0005
  22. Cl 2 (py)     0.0000  0.0000  0.0000  0.0000  0.0000 -0.0016  0.0003  0.0005
  23. Cl 2 (pz)     0.0000  0.0000  0.0000  0.0000  0.0000 -0.0016  0.0003  0.0005
  24. Cl 2 (s)     -0.0026 -0.0038  0.0007  0.0007 -0.0002  0.0198 -0.0037 -0.0062
  25. Cl 2 (px)     0.0001  0.0002  0.0000  0.0000 -0.0001 -0.0007  0.0001  0.0002
  26. Cl 2 (py)     0.0001  0.0001 -0.0001  0.0000 -0.0001 -0.0007  0.0002  0.0002
  27. Cl 2 (pz)     0.0001  0.0001  0.0000 -0.0001 -0.0001 -0.0007  0.0001  0.0003
  28. Cl 2 (s)      0.0035  0.0033 -0.0006 -0.0006  0.0007 -0.0091  0.0017  0.0029
  29. Cl 2 (px)    -0.0007 -0.0006 -0.0001  0.0000 -0.0003  0.0015  0.0003 -0.0001
  30. Cl 2 (py)    -0.0007 -0.0005  0.0003  0.0000 -0.0003  0.0013 -0.0008 -0.0001
  31. Cl 2 (pz)    -0.0007 -0.0004  0.0001  0.0004 -0.0003  0.0011 -0.0002 -0.0010
  32. Cl 2 (d5)     0.0000  0.0000  0.0000  0.0000  0.0000  0.0000  0.0000  0.0001
  33. Cl 2 (d2)     0.0000  0.0000  0.0000  0.0000  0.0001  0.0001  0.0000  0.0000
  34. Cl 2 (d3)     0.0000  0.0000  0.0000  0.0000  0.0001  0.0001  0.0000  0.0000
  35. Cl 2 (d4)     0.0000  0.0000  0.0000  0.0000  0.0000  0.0000 -0.0001  0.0000
  36. Cl 2 (d1)     0.0000  0.0000  0.0000  0.0000  0.0001  0.0001  0.0000  0.0000
  37. Cl 3 (s)      0.4982 -0.1263  0.0412  0.8527  0.0000  0.0084 -0.0120 -0.2479
  38. Cl 3 (s)      0.0063 -0.0016  0.0005  0.0108  0.0000 -0.0301  0.0433  0.8914
  39. Cl 3 (px)     0.0000  0.0000  0.0000  0.0000  0.0000 -0.0001  0.0001  0.0017
  40. Cl 3 (py)     0.0000  0.0000  0.0000  0.0000  0.0000 -0.0001  0.0001  0.0017
  41. Cl 3 (pz)     0.0000  0.0000  0.0000  0.0000  0.0000  0.0000 -0.0001 -0.0017
  42. Cl 3 (s)     -0.0026  0.0006 -0.0002 -0.0039 -0.0002 -0.0007  0.0010  0.0210
  43. Cl 3 (px)    -0.0001  0.0000  0.0000 -0.0001  0.0001  0.0000  0.0000  0.0007
  44. Cl 3 (py)    -0.0001  0.0000  0.0000 -0.0001  0.0001  0.0000  0.0001  0.0007
  45. Cl 3 (pz)     0.0001 -0.0001  0.0000  0.0001 -0.0001  0.0001 -0.0001 -0.0007
  46. Cl 3 (s)      0.0035 -0.0005  0.0002  0.0034  0.0007  0.0003 -0.0005 -0.0097
  47. Cl 3 (px)     0.0007  0.0000 -0.0002  0.0005  0.0003 -0.0002  0.0006 -0.0014
  48. Cl 3 (py)     0.0007  0.0001  0.0002  0.0005  0.0003 -0.0004 -0.0006 -0.0014
  49. Cl 3 (pz)    -0.0007  0.0003 -0.0001 -0.0005 -0.0003 -0.0007  0.0002  0.0014
  50. Cl 3 (d5)     0.0000  0.0000  0.0000  0.0000  0.0000  0.0001  0.0000  0.0000
  51. Cl 3 (d2)     0.0000  0.0000  0.0000  0.0000 -0.0001  0.0000  0.0000 -0.0001
  52. Cl 3 (d3)     0.0000  0.0000  0.0000  0.0000 -0.0001  0.0000  0.0000 -0.0001
  53. Cl 3 (d4)     0.0000  0.0000  0.0000  0.0000  0.0000  0.0000  0.0001  0.0000
  54. Cl 3 (d1)     0.0000  0.0000  0.0000  0.0000  0.0001  0.0000  0.0000  0.0001
  55. Cl 4 (s)      0.4982 -0.4790 -0.6369 -0.3313  0.0000  0.1475  0.1835  0.0790
  56. Cl 4 (s)      0.0063 -0.0060 -0.0080 -0.0042  0.0000 -0.5304 -0.6599 -0.2840
  57. Cl 4 (px)     0.0000  0.0000  0.0000  0.0000  0.0000  0.0010  0.0012  0.0005
  58. Cl 4 (py)     0.0000  0.0000  0.0000  0.0000  0.0000 -0.0010 -0.0012 -0.0005
  59. Cl 4 (pz)     0.0000  0.0000  0.0000  0.0000  0.0000 -0.0010 -0.0012 -0.0005
  60. Cl 4 (s)     -0.0026  0.0022  0.0029  0.0015 -0.0002 -0.0125 -0.0156 -0.0067
  61. Cl 4 (px)     0.0001 -0.0001 -0.0001  0.0000 -0.0001  0.0005  0.0005  0.0002
  62. Cl 4 (py)    -0.0001  0.0001  0.0001  0.0001  0.0001 -0.0004 -0.0005 -0.0003
  63. Cl 4 (pz)    -0.0001  0.0001  0.0001  0.0000  0.0001 -0.0004 -0.0006 -0.0002
  64. Cl 4 (s)      0.0035 -0.0019 -0.0025 -0.0013  0.0007  0.0058  0.0072  0.0031
  65. Cl 4 (px)    -0.0007  0.0005  0.0003  0.0001 -0.0003 -0.0013 -0.0007 -0.0002
  66. Cl 4 (py)     0.0007 -0.0002 -0.0003 -0.0004  0.0003  0.0007  0.0009  0.0011
  67. Cl 4 (pz)     0.0007 -0.0002 -0.0006  0.0000  0.0003  0.0005  0.0015  0.0001
  68. Cl 4 (d5)     0.0000  0.0000  0.0000  0.0000  0.0000  0.0000  0.0001  0.0000
  69. Cl 4 (d2)     0.0000  0.0000  0.0000  0.0000 -0.0001  0.0001  0.0001  0.0000
  70. Cl 4 (d3)     0.0000  0.0000  0.0000  0.0000  0.0001 -0.0001 -0.0001  0.0000
  71. Cl 4 (d4)     0.0000  0.0000  0.0000  0.0000  0.0000  0.0001  0.0000 -0.0001
  72. Cl 4 (d1)     0.0000  0.0000  0.0000  0.0000 -0.0001  0.0001  0.0001  0.0000
  73. Cl 5 (s)      0.4982 -0.2286  0.7497 -0.3613  0.0000  0.0774 -0.2156  0.0960
  74. Cl 5 (s)      0.0063 -0.0029  0.0095 -0.0046  0.0000 -0.2783  0.7751 -0.3452
  75. Cl 5 (px)     0.0000  0.0000  0.0000  0.0000  0.0000 -0.0005  0.0015 -0.0006
  76. Cl 5 (py)     0.0000  0.0000  0.0000  0.0000  0.0000  0.0005 -0.0015  0.0007
  77. Cl 5 (pz)     0.0000  0.0000  0.0000  0.0000  0.0000 -0.0005  0.0015 -0.0007
  78. Cl 5 (s)     -0.0026  0.0010 -0.0034  0.0016 -0.0002 -0.0066  0.0183 -0.0081
  79. Cl 5 (px)    -0.0001  0.0000 -0.0001  0.0001  0.0001 -0.0002  0.0006 -0.0004
  80. Cl 5 (py)     0.0001 -0.0001  0.0001  0.0000 -0.0001  0.0003 -0.0006  0.0002
  81. Cl 5 (pz)    -0.0001  0.0000 -0.0001  0.0000  0.0001 -0.0002  0.0007 -0.0002
  82. Cl 5 (s)      0.0035 -0.0009  0.0030 -0.0014  0.0007  0.0030 -0.0084  0.0038
  83. Cl 5 (px)     0.0007 -0.0001  0.0004 -0.0005  0.0003  0.0003 -0.0010  0.0012
  84. Cl 5 (py)    -0.0007  0.0004 -0.0004  0.0001 -0.0003 -0.0010  0.0011 -0.0002
  85. Cl 5 (pz)     0.0007  0.0000  0.0006 -0.0001  0.0003 -0.0001 -0.0015  0.0002
  86. Cl 5 (d5)     0.0000  0.0000  0.0000  0.0000  0.0000 -0.0001  0.0000  0.0000
  87. Cl 5 (d2)     0.0000  0.0000  0.0000  0.0000  0.0001  0.0000  0.0001  0.0000
  88. Cl 5 (d3)     0.0000  0.0000  0.0000  0.0000 -0.0001  0.0000 -0.0001  0.0000
  89. Cl 5 (d4)     0.0000  0.0000  0.0000  0.0000  0.0000 -0.0001  0.0000  0.0001
  90. Cl 5 (d1)     0.0000  0.0000  0.0000  0.0000 -0.0001  0.0000 -0.0001  0.0000

           AO          9      10      11      12      13      14      15      16
      ------------ ------- ------- ------- ------- ------- ------- ------- -------
   1. Si 1 (s)      0.0000  0.0000  0.0000  0.0000  0.0001  0.0000  0.0000  0.0000
   2. Si 1 (s)     -0.0003  0.0000  0.0000  0.0000 -0.0005  0.0000  0.0000  0.0000
   3. Si 1 (px)     0.0000 -0.0002  0.0000  0.0001  0.0000  0.0000  0.0001  0.0001
   4. Si 1 (py)     0.0000  0.0001  0.0000  0.0002  0.0000  0.0000 -0.0001  0.0001
   5. Si 1 (pz)     0.0000  0.0000  0.0002  0.0000  0.0000  0.0001  0.0000  0.0001
   6. Si 1 (s)     -0.0019  0.0000  0.0000  0.0000  0.0003  0.0000  0.0000  0.0000
   7. Si 1 (px)     0.0000  0.0006  0.0001 -0.0005  0.0000  0.0002 -0.0004 -0.0002
   8. Si 1 (py)     0.0000 -0.0005 -0.0001 -0.0006  0.0000  0.0002  0.0003 -0.0004
   9. Si 1 (pz)     0.0000  0.0001 -0.0008  0.0000  0.0000 -0.0004 -0.0001 -0.0002
  10. Si 1 (s)      0.0176  0.0000  0.0000  0.0000 -0.0045  0.0000  0.0000  0.0000
  11. Si 1 (px)     0.0000 -0.0006 -0.0001  0.0004  0.0000 -0.0017  0.0037  0.0023
  12. Si 1 (py)     0.0000  0.0004  0.0001  0.0006  0.0000 -0.0015 -0.0028  0.0034
  13. Si 1 (pz)     0.0000 -0.0001  0.0007  0.0000  0.0000  0.0041  0.0005  0.0022
  14. Si 1 (d5)     0.0000  0.0000  0.0000  0.0000  0.0000  0.0000  0.0000  0.0000
  15. Si 1 (d2)     0.0000 -0.0008 -0.0001 -0.0011  0.0000 -0.0001 -0.0002  0.0002
  16. Si 1 (d3)     0.0000  0.0011  0.0001 -0.0008  0.0000 -0.0001  0.0002  0.0001
  17. Si 1 (d4)     0.0000  0.0000  0.0000  0.0000  0.0000  0.0000  0.0000  0.0000
  18. Si 1 (d1)     0.0000  0.0002 -0.0013  0.0000  0.0000  0.0002  0.0000  0.0001
  19. Cl 2 (s)     -0.1434 -0.0002  0.0006  0.0008 -0.0006  0.0000  0.0000  0.0000
  20. Cl 2 (s)      0.5157  0.0007 -0.0022 -0.0029  0.0021  0.0000  0.0000  0.0000
  21. Cl 2 (px)    -0.0010  0.0884 -0.2904 -0.3928  0.2866 -0.2586  0.4213 -0.0478
  22. Cl 2 (py)    -0.0010  0.0887 -0.2904 -0.3927  0.2866 -0.2349 -0.4252  0.1035
  23. Cl 2 (pz)    -0.0010  0.0886 -0.2902 -0.3929  0.2866  0.4936  0.0040 -0.0553
  24. Cl 2 (s)      0.0130 -0.0003  0.0010  0.0014 -0.0008  0.0000  0.0001  0.0004
  25. Cl 2 (px)    -0.0004  0.0021 -0.0067 -0.0091  0.0064 -0.0055  0.0090 -0.0010
  26. Cl 2 (py)    -0.0004  0.0020 -0.0067 -0.0091  0.0064 -0.0050 -0.0090  0.0022
  27. Cl 2 (pz)    -0.0004  0.0020 -0.0067 -0.0090  0.0064  0.0105  0.0001 -0.0011
  28. Cl 2 (s)     -0.0093  0.0002 -0.0008 -0.0011  0.0013 -0.0003 -0.0005 -0.0026
  29. Cl 2 (px)     0.0017 -0.0007  0.0017  0.0024 -0.0018  0.0017 -0.0027  0.0006
  30. Cl 2 (py)     0.0017 -0.0004  0.0017  0.0025 -0.0018  0.0016  0.0029 -0.0004
  31. Cl 2 (pz)     0.0017 -0.0005  0.0019  0.0023 -0.0018 -0.0032  0.0000  0.0006
  32. Cl 2 (d5)     0.0000  0.0000  0.0000  0.0000  0.0000 -0.0001  0.0000  0.0000
  33. Cl 2 (d2)     0.0000  0.0000  0.0002  0.0003 -0.0002  0.0000  0.0000  0.0000
  34. Cl 2 (d3)     0.0000 -0.0001  0.0002  0.0003 -0.0002  0.0000  0.0000  0.0000
  35. Cl 2 (d4)     0.0000  0.0000  0.0000  0.0000  0.0000  0.0000 -0.0001  0.0000
  36. Cl 2 (d1)     0.0000 -0.0001  0.0003  0.0003 -0.0002  0.0000  0.0000  0.0000
  37. Cl 3 (s)     -0.1434  0.0000  0.0006 -0.0008 -0.0006  0.0000  0.0000  0.0000
  38. Cl 3 (s)      0.5157 -0.0002 -0.0021  0.0031  0.0021  0.0000  0.0000  0.0000
  39. Cl 3 (px)     0.0010  0.0235  0.2790 -0.4099 -0.2866  0.0956  0.4656  0.1442
  40. Cl 3 (py)     0.0010  0.0238  0.2790 -0.4099 -0.2866  0.1194 -0.3810  0.2955
  41. Cl 3 (pz)    -0.0010 -0.0237 -0.2788  0.4100  0.2866  0.2154  0.0846  0.4395
  42. Cl 3 (s)      0.0130  0.0001  0.0010 -0.0015 -0.0008  0.0004  0.0000 -0.0002
  43. Cl 3 (px)     0.0004  0.0006  0.0064 -0.0095 -0.0064  0.0020  0.0099  0.0031
  44. Cl 3 (py)     0.0004  0.0005  0.0064 -0.0095 -0.0064  0.0025 -0.0081  0.0063
  45. Cl 3 (pz)    -0.0004 -0.0005 -0.0065  0.0094  0.0064  0.0046  0.0018  0.0093
  46. Cl 3 (s)     -0.0093 -0.0001 -0.0008  0.0011  0.0013 -0.0024  0.0001  0.0011
  47. Cl 3 (px)    -0.0017 -0.0003 -0.0016  0.0025  0.0018 -0.0009 -0.0031 -0.0008
  48. Cl 3 (py)    -0.0017  0.0000 -0.0016  0.0026  0.0018 -0.0010  0.0025 -0.0018
  49. Cl 3 (pz)     0.0017  0.0001  0.0018 -0.0024 -0.0018 -0.0012 -0.0006 -0.0030
  50. Cl 3 (d5)     0.0000  0.0000  0.0000  0.0000  0.0000  0.0000  0.0000 -0.0001
  51. Cl 3 (d2)     0.0000  0.0000 -0.0002  0.0003  0.0002  0.0000  0.0000  0.0000
  52. Cl 3 (d3)     0.0000 -0.0001 -0.0002  0.0003  0.0002  0.0000  0.0000  0.0000
  53. Cl 3 (d4)     0.0000  0.0000  0.0000  0.0000  0.0000  0.0000  0.0001  0.0000
  54. Cl 3 (d1)     0.0000  0.0000  0.0003 -0.0003 -0.0002  0.0000  0.0000  0.0000
  55. Cl 4 (s)     -0.1434 -0.0007 -0.0007 -0.0001 -0.0006  0.0000  0.0000  0.0000
  56. Cl 4 (s)      0.5157  0.0027  0.0025  0.0003  0.0021  0.0000  0.0000  0.0000
  57. Cl 4 (px)    -0.0010  0.3662  0.3318  0.0467  0.2866 -0.0355  0.2239  0.4420
  58. Cl 4 (py)     0.0010 -0.3663 -0.3318 -0.0464 -0.2866 -0.3819 -0.1028  0.3005
  59. Cl 4 (pz)     0.0010 -0.3664 -0.3316 -0.0465 -0.2866  0.3466  0.3263  0.1417
  60. Cl 4 (s)      0.0130 -0.0013 -0.0012 -0.0002 -0.0008 -0.0002  0.0003 -0.0002
  61. Cl 4 (px)    -0.0004  0.0085  0.0076  0.0010  0.0064 -0.0008  0.0048  0.0094
  62. Cl 4 (py)     0.0004 -0.0085 -0.0076 -0.0011 -0.0064 -0.0081 -0.0022  0.0064
  63. Cl 4 (pz)     0.0004 -0.0084 -0.0077 -0.0011 -0.0064  0.0074  0.0069  0.0030
  64. Cl 4 (s)     -0.0093  0.0010  0.0009  0.0001  0.0013  0.0014 -0.0020  0.0011
  65. Cl 4 (px)     0.0017 -0.0023 -0.0019 -0.0001 -0.0018  0.0001 -0.0013 -0.0030
  66. Cl 4 (py)    -0.0017  0.0023  0.0019  0.0005  0.0018  0.0027  0.0005 -0.0019
  67. Cl 4 (pz)    -0.0017  0.0021  0.0021  0.0003  0.0018 -0.0021 -0.0024 -0.0008
  68. Cl 4 (d5)     0.0000  0.0000  0.0000  0.0000  0.0000  0.0001  0.0000  0.0000
  69. Cl 4 (d2)     0.0000  0.0003  0.0002  0.0001  0.0002  0.0000  0.0000  0.0000
  70. Cl 4 (d3)     0.0000 -0.0003 -0.0002  0.0000 -0.0002  0.0000  0.0000  0.0000
  71. Cl 4 (d4)     0.0000  0.0000  0.0000  0.0000  0.0000  0.0000  0.0000 -0.0001
  72. Cl 4 (d1)     0.0000  0.0002  0.0003  0.0000  0.0002  0.0000  0.0000  0.0000
  73. Cl 5 (s)     -0.1434  0.0009 -0.0005  0.0001 -0.0006  0.0000  0.0000  0.0000
  74. Cl 5 (s)      0.5157 -0.0032  0.0018 -0.0005  0.0021  0.0000  0.0000  0.0000
  75. Cl 5 (px)     0.0010  0.4312 -0.2376  0.0638 -0.2866 -0.3898  0.1796  0.2500
  76. Cl 5 (py)    -0.0010 -0.4312  0.2376 -0.0635  0.2866 -0.0276 -0.0586  0.4925
  77. Cl 5 (pz)     0.0010  0.4313 -0.2373  0.0637 -0.2866  0.3624 -0.2378  0.2425
  78. Cl 5 (s)      0.0130  0.0015 -0.0008  0.0002 -0.0008 -0.0002 -0.0004 -0.0001
  79. Cl 5 (px)     0.0004  0.0100 -0.0055  0.0014 -0.0064 -0.0083  0.0038  0.0053
  80. Cl 5 (py)    -0.0004 -0.0100  0.0055 -0.0015  0.0064 -0.0006 -0.0013  0.0105
  81. Cl 5 (pz)     0.0004  0.0099 -0.0055  0.0015 -0.0064  0.0077 -0.0050  0.0052
  82. Cl 5 (s)     -0.0093 -0.0012  0.0007 -0.0002  0.0013  0.0013  0.0023  0.0003
  83. Cl 5 (px)    -0.0017 -0.0027  0.0014 -0.0002  0.0018  0.0027 -0.0009 -0.0016
  84. Cl 5 (py)     0.0017  0.0026 -0.0014  0.0005 -0.0018  0.0000  0.0001 -0.0033
  85. Cl 5 (pz)    -0.0017 -0.0025  0.0016 -0.0004  0.0018 -0.0022  0.0018 -0.0016
  86. Cl 5 (d5)     0.0000  0.0000  0.0000  0.0000  0.0000  0.0001  0.0000  0.0000
  87. Cl 5 (d2)     0.0000  0.0003 -0.0002  0.0001 -0.0002  0.0000  0.0000  0.0000
  88. Cl 5 (d3)     0.0000 -0.0004  0.0002  0.0000  0.0002  0.0000  0.0000  0.0000
  89. Cl 5 (d4)     0.0000  0.0000  0.0000  0.0000  0.0000  0.0000  0.0000  0.0001
  90. Cl 5 (d1)     0.0000 -0.0003  0.0002  0.0000  0.0002  0.0000  0.0000  0.0000

           AO         17      18      19      20      21      22      23      24
      ------------ ------- ------- ------- ------- ------- ------- ------- -------
   1. Si 1 (s)      0.0000  0.0000  0.0000  0.0000  0.0000 -0.2698  0.0000  0.0000
   2. Si 1 (s)      0.0000  0.0000  0.0000  0.0000  0.0000  1.0301  0.0000  0.0000
   3. Si 1 (px)     0.0000  0.0000  0.0000  0.0000  0.0000  0.0000 -0.3803  0.7889
   4. Si 1 (py)     0.0000  0.0000  0.0000  0.0000  0.0000  0.0000 -0.3435 -0.5942
   5. Si 1 (pz)     0.0000  0.0000  0.0000  0.0000  0.0000  0.0000  0.8517  0.1126
   6. Si 1 (s)      0.0000  0.0000  0.0000  0.0000  0.0000  0.0143  0.0000  0.0000
   7. Si 1 (px)     0.0000  0.0000  0.0000  0.0000  0.0000  0.0000 -0.0086  0.0179
   8. Si 1 (py)     0.0000  0.0000  0.0000  0.0000  0.0000  0.0000 -0.0078 -0.0134
   9. Si 1 (pz)     0.0000  0.0000  0.0000  0.0000  0.0000  0.0000  0.0193  0.0025
  10. Si 1 (s)      0.0000  0.0000  0.0000  0.0000  0.0000 -0.0032  0.0000  0.0000
  11. Si 1 (px)     0.0000  0.0000  0.0000  0.0000  0.0000  0.0000  0.0020 -0.0041
  12. Si 1 (py)     0.0000  0.0000  0.0000  0.0000  0.0000  0.0000  0.0018  0.0031
  13. Si 1 (pz)     0.0000  0.0000  0.0000  0.0000  0.0000  0.0000 -0.0045 -0.0006
  14. Si 1 (d5)     0.0000  0.0000  0.0000 -0.0002  0.0001  0.0000  0.0000  0.0000
  15. Si 1 (d2)     0.0000  0.0000  0.0000  0.0000  0.0000  0.0000 -0.0004 -0.0007
  16. Si 1 (d3)     0.0000  0.0000  0.0000  0.0000  0.0000  0.0000 -0.0004  0.0009
  17. Si 1 (d4)     0.0000  0.0000  0.0000 -0.0001 -0.0002  0.0000  0.0000  0.0000
  18. Si 1 (d1)     0.0000  0.0000  0.0000  0.0000  0.0000  0.0000  0.0010  0.0001
  19. Cl 2 (s)      0.0000  0.0000  0.0000  0.0000  0.0000  0.0000  0.0000  0.0000
  20. Cl 2 (s)      0.0000  0.0000  0.0000  0.0000  0.0000 -0.0002 -0.0001 -0.0001
  21. Cl 2 (px)    -0.3737  0.2254  0.2371 -0.0616  0.4009  0.0002  0.0001  0.0000
  22. Cl 2 (py)     0.4659  0.1609  0.0612 -0.3164 -0.2538  0.0002  0.0001  0.0001
  23. Cl 2 (pz)    -0.0922 -0.3863 -0.2983  0.3780 -0.1471  0.0002  0.0000  0.0001
  24. Cl 2 (s)      0.0000  0.0000  0.0000  0.0000  0.0000  0.0002  0.0000  0.0001
  25. Cl 2 (px)    -0.0079  0.0048  0.0050 -0.0013  0.0083 -0.0002  0.0000 -0.0001
  26. Cl 2 (py)     0.0099  0.0034  0.0013 -0.0066 -0.0053 -0.0002  0.0000 -0.0001
  27. Cl 2 (pz)    -0.0019 -0.0082 -0.0063  0.0078 -0.0030 -0.0002 -0.0001 -0.0001
  28. Cl 2 (s)      0.0000  0.0000  0.0000  0.0000  0.0000  0.0000  0.0000  0.0000
  29. Cl 2 (px)     0.0021 -0.0013 -0.0013  0.0003 -0.0017  0.0003 -0.0001  0.0004
  30. Cl 2 (py)    -0.0026 -0.0009 -0.0003  0.0014  0.0011  0.0003  0.0000  0.0000
  31. Cl 2 (pz)     0.0005  0.0022  0.0017 -0.0016  0.0006  0.0003  0.0003  0.0002
  32. Cl 2 (d5)     0.0000  0.0001  0.0001 -0.0001  0.0001  0.0000  0.0001  0.0000
  33. Cl 2 (d2)     0.0000  0.0000  0.0000 -0.0001 -0.0001  0.0000  0.0000  0.0001
  34. Cl 2 (d3)     0.0000  0.0000  0.0000  0.0000  0.0001  0.0000  0.0000  0.0000
  35. Cl 2 (d4)     0.0001  0.0000  0.0000 -0.0001 -0.0001  0.0000  0.0000  0.0001
  36. Cl 2 (d1)     0.0000  0.0000  0.0000  0.0001  0.0000  0.0000 -0.0001  0.0000
  37. Cl 3 (s)      0.0000  0.0000  0.0000  0.0000  0.0000  0.0000  0.0001  0.0000
  38. Cl 3 (s)      0.0000  0.0000  0.0000  0.0000  0.0000 -0.0002 -0.0007  0.0000
  39. Cl 3 (px)     0.1398  0.4355 -0.1936  0.0616 -0.4009 -0.0002 -0.0005  0.0000
  40. Cl 3 (py)    -0.0476 -0.0492  0.4920  0.3164  0.2538 -0.0002 -0.0005  0.0001
  41. Cl 3 (pz)     0.0922  0.3863  0.2983  0.3780 -0.1471  0.0002  0.0004  0.0000
  42. Cl 3 (s)      0.0000  0.0000  0.0000  0.0000  0.0000  0.0002  0.0006  0.0000
  43. Cl 3 (px)     0.0030  0.0092 -0.0041  0.0013 -0.0083  0.0002  0.0005 -0.0001
  44. Cl 3 (py)    -0.0010 -0.0010  0.0104  0.0066  0.0053  0.0002  0.0005  0.0000
  45. Cl 3 (pz)     0.0019  0.0082  0.0063  0.0078 -0.0030 -0.0002 -0.0005  0.0000
  46. Cl 3 (s)      0.0000  0.0000  0.0000  0.0000  0.0000  0.0000 -0.0002  0.0000
  47. Cl 3 (px)    -0.0008 -0.0024  0.0011 -0.0003  0.0017 -0.0003 -0.0010  0.0003
  48. Cl 3 (py)     0.0003  0.0003 -0.0028 -0.0014 -0.0011 -0.0003 -0.0010 -0.0001
  49. Cl 3 (pz)    -0.0005 -0.0022 -0.0017 -0.0016  0.0006  0.0003  0.0011  0.0000
  50. Cl 3 (d5)     0.0000 -0.0001 -0.0001 -0.0001  0.0001  0.0000  0.0000  0.0000
  51. Cl 3 (d2)     0.0000  0.0000  0.0000  0.0001  0.0001  0.0000 -0.0002  0.0001
  52. Cl 3 (d3)     0.0000  0.0000  0.0000  0.0000 -0.0001  0.0000 -0.0002 -0.0001
  53. Cl 3 (d4)     0.0000  0.0001 -0.0001 -0.0001 -0.0001  0.0000  0.0000 -0.0001
  54. Cl 3 (d1)     0.0000  0.0000  0.0000  0.0001  0.0000  0.0000  0.0001  0.0000
  55. Cl 4 (s)      0.0000  0.0000  0.0000  0.0000  0.0000  0.0000 -0.0001  0.0001
  56. Cl 4 (s)      0.0000  0.0000  0.0000  0.0000  0.0000 -0.0002  0.0004 -0.0006
  57. Cl 4 (px)     0.3737 -0.2254 -0.2371 -0.0616  0.4009  0.0002 -0.0002  0.0003
  58. Cl 4 (py)     0.0476  0.0492 -0.4920  0.3164  0.2538 -0.0002  0.0003 -0.0003
  59. Cl 4 (pz)     0.3261 -0.2746  0.2548 -0.3780  0.1471 -0.0002  0.0002 -0.0004
  60. Cl 4 (s)      0.0000  0.0000  0.0000  0.0000  0.0000  0.0002 -0.0003  0.0005
  61. Cl 4 (px)     0.0079 -0.0048 -0.0050 -0.0013  0.0083 -0.0002  0.0003 -0.0004
  62. Cl 4 (py)     0.0010  0.0010 -0.0104  0.0066  0.0053  0.0002 -0.0002  0.0004
  63. Cl 4 (pz)     0.0069 -0.0058  0.0054 -0.0078  0.0030  0.0002 -0.0003  0.0004
  64. Cl 4 (s)      0.0000  0.0000  0.0000  0.0000  0.0000  0.0000  0.0001 -0.0002
  65. Cl 4 (px)    -0.0021  0.0013  0.0013  0.0003 -0.0017  0.0003 -0.0006  0.0009
  66. Cl 4 (py)    -0.0003 -0.0003  0.0028 -0.0014 -0.0011 -0.0003  0.0004 -0.0009
  67. Cl 4 (pz)    -0.0018  0.0015 -0.0014  0.0016 -0.0006 -0.0003  0.0008 -0.0006
  68. Cl 4 (d5)     0.0001 -0.0001  0.0001 -0.0001  0.0001  0.0000 -0.0001 -0.0001
  69. Cl 4 (d2)     0.0000  0.0000  0.0000  0.0001  0.0001  0.0000  0.0001 -0.0001
  70. Cl 4 (d3)     0.0000  0.0000  0.0000  0.0000  0.0001  0.0000 -0.0001  0.0001
  71. Cl 4 (d4)    -0.0001  0.0000  0.0001 -0.0001 -0.0001  0.0000 -0.0001  0.0000
  72. Cl 4 (d1)     0.0000  0.0000  0.0000 -0.0001  0.0000  0.0000  0.0000 -0.0002
  73. Cl 5 (s)      0.0000  0.0000  0.0000  0.0000  0.0000  0.0000 -0.0001 -0.0001
  74. Cl 5 (s)      0.0000  0.0000  0.0000  0.0000  0.0000 -0.0002  0.0004  0.0007
  75. Cl 5 (px)    -0.1398 -0.4355  0.1936  0.0616 -0.4009 -0.0002  0.0003  0.0004
  76. Cl 5 (py)    -0.4659 -0.1609 -0.0612 -0.3164 -0.2538  0.0002 -0.0002 -0.0004
  77. Cl 5 (pz)    -0.3261  0.2746 -0.2548 -0.3780  0.1471 -0.0002  0.0002  0.0004
  78. Cl 5 (s)      0.0000  0.0000  0.0000  0.0000  0.0000  0.0002 -0.0003 -0.0006
  79. Cl 5 (px)    -0.0030 -0.0092  0.0041  0.0013 -0.0083  0.0002 -0.0002 -0.0005
  80. Cl 5 (py)    -0.0099 -0.0034 -0.0013 -0.0066 -0.0053 -0.0002  0.0003  0.0005
  81. Cl 5 (pz)    -0.0069  0.0058 -0.0054 -0.0078  0.0030  0.0002 -0.0003 -0.0004
  82. Cl 5 (s)      0.0000  0.0000  0.0000  0.0000  0.0000  0.0000  0.0001  0.0002
  83. Cl 5 (px)     0.0008  0.0024 -0.0011 -0.0003  0.0017 -0.0003  0.0003  0.0011
  84. Cl 5 (py)     0.0026  0.0009  0.0003  0.0014  0.0011  0.0003 -0.0005 -0.0010
  85. Cl 5 (pz)     0.0018 -0.0015  0.0014  0.0016 -0.0006 -0.0003  0.0007  0.0008
  86. Cl 5 (d5)    -0.0001  0.0001 -0.0001 -0.0001  0.0001  0.0000 -0.0001  0.0001
  87. Cl 5 (d2)     0.0000  0.0000  0.0000 -0.0001 -0.0001  0.0000 -0.0001 -0.0001
  88. Cl 5 (d3)     0.0000  0.0000  0.0000  0.0000 -0.0001  0.0000  0.0001  0.0001
  89. Cl 5 (d4)    -0.0001 -0.0001  0.0000 -0.0001 -0.0001  0.0000  0.0001  0.0000
  90. Cl 5 (d1)     0.0000  0.0000  0.0000 -0.0001  0.0000  0.0000  0.0000  0.0002

           AO         25      26      27      28      29      30      31      32
      ------------ ------- ------- ------- ------- ------- ------- ------- -------
   1. Si 1 (s)      0.0000  0.0285  0.0000  0.0000  0.0000  0.0453  0.0000  0.0000
   2. Si 1 (s)      0.0000 -0.1283  0.0000  0.0000  0.0000 -0.2014  0.0000  0.0000
   3. Si 1 (px)     0.4702  0.0000 -0.0340  0.0174  0.0498  0.0000 -0.0154 -0.0807
   4. Si 1 (py)     0.7190  0.0000 -0.0488  0.0119 -0.0375  0.0000 -0.0444 -0.0987
   5. Si 1 (pz)     0.4999  0.0000 -0.0198 -0.0591  0.0071  0.0000 -0.1266  0.0444
   6. Si 1 (s)      0.0000  0.2756  0.0000  0.0000  0.0000  0.5039  0.0000  0.0000
   7. Si 1 (px)     0.0106  0.0000  0.0718 -0.0368 -0.1052  0.0000  0.0403  0.2116
   8. Si 1 (py)     0.0163  0.0000  0.1033 -0.0251  0.0793  0.0000  0.1164  0.2589
   9. Si 1 (pz)     0.0113  0.0000  0.0419  0.1249 -0.0150  0.0000  0.3320 -0.1165
  10. Si 1 (s)      0.0000 -0.0779  0.0000  0.0000  0.0000  0.0325  0.0000  0.0000
  11. Si 1 (px)    -0.0025  0.0000 -0.0171  0.0088  0.0251  0.0000  0.0038  0.0201
  12. Si 1 (py)    -0.0038  0.0000 -0.0247  0.0060 -0.0189  0.0000  0.0111  0.0246
  13. Si 1 (pz)    -0.0026  0.0000 -0.0100 -0.0298  0.0036  0.0000  0.0316 -0.0111
  14. Si 1 (d5)     0.0000  0.0000  0.0000  0.0000  0.0000  0.0000  0.0000  0.0000
  15. Si 1 (d2)     0.0008  0.0000  0.0354 -0.0086  0.0271  0.0000  0.0161  0.0359
  16. Si 1 (d3)     0.0005  0.0000  0.0246 -0.0126 -0.0360  0.0000  0.0056  0.0294
  17. Si 1 (d4)     0.0000  0.0000  0.0000  0.0000  0.0000  0.0000  0.0000  0.0000
  18. Si 1 (d1)     0.0006  0.0000  0.0144  0.0428 -0.0051  0.0000  0.0460 -0.0162
  19. Cl 2 (s)      0.0002  0.0360  0.0656  0.0190 -0.0124 -0.0187 -0.0118 -0.0085
  20. Cl 2 (s)     -0.0007 -0.1661 -0.3005 -0.0872  0.0568  0.0852  0.0548  0.0397
  21. Cl 2 (px)     0.0005  0.0142  0.0135  0.0054 -0.0002  0.0566  0.1098  0.0392
  22. Cl 2 (py)     0.0005  0.0142  0.0127  0.0051 -0.0050  0.0566  0.0929  0.0288
  23. Cl 2 (pz)     0.0005  0.0142  0.0143  0.0012 -0.0025  0.0566  0.0453  0.1117
  24. Cl 2 (s)      0.0006  0.3180  0.5885  0.1708 -0.1111 -0.1799 -0.1131 -0.0819
  25. Cl 2 (px)    -0.0005 -0.0326 -0.0301 -0.0120  0.0004 -0.1419 -0.2785 -0.0983
  26. Cl 2 (py)    -0.0005 -0.0326 -0.0283 -0.0114  0.0110 -0.1419 -0.2353 -0.0715
  27. Cl 2 (pz)    -0.0005 -0.0326 -0.0318 -0.0028  0.0056 -0.1419 -0.1131 -0.2843
  28. Cl 2 (s)     -0.0002  0.1621  0.2783  0.0808 -0.0525 -0.1127 -0.1137 -0.0823
  29. Cl 2 (px)     0.0011 -0.0128 -0.0099 -0.0049 -0.0014 -0.0481 -0.1070 -0.0311
  30. Cl 2 (py)     0.0011 -0.0128 -0.0088 -0.0045  0.0052 -0.0481 -0.0877 -0.0191
  31. Cl 2 (pz)     0.0011 -0.0128 -0.0110  0.0008  0.0018 -0.0481 -0.0328 -0.1146
  32. Cl 2 (d5)     0.0000  0.0000  0.0002 -0.0008  0.0000  0.0000 -0.0068  0.0094
  33. Cl 2 (d2)     0.0002  0.0080  0.0082  0.0020 -0.0008  0.0149  0.0153  0.0152
  34. Cl 2 (d3)     0.0002  0.0080  0.0080  0.0019 -0.0022  0.0149  0.0135  0.0141
  35. Cl 2 (d4)     0.0000  0.0000  0.0001  0.0001  0.0009  0.0000  0.0018  0.0011
  36. Cl 2 (d1)     0.0002  0.0080  0.0078  0.0031 -0.0015  0.0149  0.0203  0.0064
  37. Cl 3 (s)     -0.0001  0.0360 -0.0402  0.0564  0.0033 -0.0187 -0.0042  0.0142
  38. Cl 3 (s)      0.0003 -0.1661  0.1844 -0.2587 -0.0152  0.0852  0.0197 -0.0658
  39. Cl 3 (px)     0.0002 -0.0142  0.0076 -0.0123  0.0019 -0.0566 -0.0515  0.0958
  40. Cl 3 (py)     0.0002 -0.0142  0.0068 -0.0126 -0.0028 -0.0566 -0.0683  0.0853
  41. Cl 3 (pz)    -0.0002  0.0142 -0.0105  0.0100  0.0012  0.0566 -0.0308 -0.1168
  42. Cl 3 (s)     -0.0003  0.3180 -0.3611  0.5065  0.0297 -0.1799 -0.0405  0.1358
  43. Cl 3 (px)    -0.0002  0.0326 -0.0169  0.0273 -0.0043  0.1419  0.1309 -0.2420
  44. Cl 3 (py)    -0.0002  0.0326 -0.0151  0.0280  0.0063  0.1419  0.1741 -0.2152
  45. Cl 3 (pz)     0.0002 -0.0326  0.0234 -0.0223 -0.0026 -0.1419  0.0801  0.2959
  46. Cl 3 (s)      0.0001  0.1621 -0.1707  0.2395  0.0140 -0.1127 -0.0408  0.1365
  47. Cl 3 (px)     0.0005  0.0128 -0.0051  0.0095 -0.0031  0.0481  0.0523 -0.0870
  48. Cl 3 (py)     0.0006  0.0128 -0.0040  0.0099  0.0035  0.0481  0.0717 -0.0750
  49. Cl 3 (pz)    -0.0002 -0.0128  0.0092 -0.0063 -0.0012 -0.0481  0.0425  0.1112
  50. Cl 3 (d5)     0.0001  0.0000 -0.0007 -0.0005  0.0002  0.0000 -0.0110 -0.0032
  51. Cl 3 (d2)     0.0000 -0.0080  0.0054 -0.0066  0.0002 -0.0149 -0.0018  0.0212
  52. Cl 3 (d3)     0.0001 -0.0080  0.0051 -0.0067 -0.0012 -0.0149 -0.0036  0.0200
  53. Cl 3 (d4)     0.0000  0.0000 -0.0001 -0.0001 -0.0009  0.0000 -0.0018 -0.0011
  54. Cl 3 (d1)    -0.0001  0.0080 -0.0043  0.0074  0.0003  0.0149  0.0123 -0.0178
  55. Cl 4 (s)     -0.0001  0.0360 -0.0222 -0.0412 -0.0512 -0.0187  0.0098 -0.0017
  56. Cl 4 (s)      0.0003 -0.1661  0.1016  0.1891  0.2347  0.0852 -0.0458  0.0078
  57. Cl 4 (px)    -0.0003  0.0142 -0.0071 -0.0087 -0.0093  0.0566 -0.1080 -0.0299
  58. Cl 4 (py)     0.0002 -0.0142  0.0025  0.0103  0.0100 -0.0566  0.0734 -0.0740
  59. Cl 4 (pz)     0.0002 -0.0142  0.0041  0.0065  0.0124 -0.0566  0.0257  0.0089
  60. Cl 4 (s)     -0.0003  0.3180 -0.1990 -0.3702 -0.4595 -0.1799  0.0944 -0.0160
  61. Cl 4 (px)     0.0002 -0.0326  0.0157  0.0194  0.0207 -0.1419  0.2745  0.0773
  62. Cl 4 (py)    -0.0003  0.0326 -0.0057 -0.0229 -0.0222  0.1419 -0.1856  0.1895
  63. Cl 4 (pz)    -0.0002  0.0326 -0.0092 -0.0144 -0.0275  0.1419 -0.0634 -0.0233
  64. Cl 4 (s)      0.0001  0.1621 -0.0941 -0.1750 -0.2173 -0.1127  0.0949 -0.0161
  65. Cl 4 (px)    -0.0002 -0.0128  0.0068  0.0066  0.0060 -0.0481  0.1082  0.0373
  66. Cl 4 (py)     0.0006  0.0128 -0.0006 -0.0088 -0.0069  0.0481 -0.0683  0.0825
  67. Cl 4 (pz)     0.0006  0.0128 -0.0027 -0.0034 -0.0103  0.0481 -0.0134 -0.0130
  68. Cl 4 (d5)     0.0000  0.0000  0.0001  0.0006 -0.0006  0.0000  0.0079 -0.0038
  69. Cl 4 (d2)     0.0000 -0.0080  0.0033  0.0045  0.0064 -0.0149  0.0132  0.0043
  70. Cl 4 (d3)    -0.0001  0.0080 -0.0020 -0.0050 -0.0066  0.0149 -0.0095  0.0067
  71. Cl 4 (d4)     0.0001  0.0000 -0.0008  0.0003  0.0001  0.0000 -0.0036 -0.0109
  72. Cl 4 (d1)     0.0001 -0.0080  0.0028  0.0056  0.0057 -0.0149  0.0183 -0.0045
  73. Cl 5 (s)      0.0000  0.0360 -0.0032 -0.0342  0.0603 -0.0187  0.0062 -0.0039
  74. Cl 5 (s)      0.0001 -0.1661  0.0145  0.1569 -0.2763  0.0852 -0.0287  0.0184
  75. Cl 5 (px)     0.0000 -0.0142 -0.0011  0.0090 -0.0114 -0.0566  0.0532 -0.0865
  76. Cl 5 (py)    -0.0001  0.0142 -0.0034 -0.0074  0.0121  0.0566 -0.0878 -0.0174
  77. Cl 5 (pz)     0.0000 -0.0142 -0.0003  0.0048 -0.0138 -0.0566 -0.0112 -0.0140
  78. Cl 5 (s)     -0.0001  0.3180 -0.0284 -0.3071  0.5410 -0.1799  0.0592 -0.0379
  79. Cl 5 (px)    -0.0001  0.0326  0.0025 -0.0199  0.0254  0.1419 -0.1349  0.2209
  80. Cl 5 (py)     0.0000 -0.0326  0.0076  0.0164 -0.0269 -0.1419  0.2238  0.0458
  81. Cl 5 (pz)    -0.0001  0.0326  0.0008 -0.0107  0.0306  0.1419  0.0304  0.0349
  82. Cl 5 (s)      0.0000  0.1621 -0.0134 -0.1452  0.2558 -0.1127  0.0595 -0.0381
  83. Cl 5 (px)     0.0003  0.0128  0.0020 -0.0078  0.0077  0.0481 -0.0512  0.0932
  84. Cl 5 (py)     0.0001 -0.0128  0.0043  0.0056 -0.0087 -0.0481  0.0911  0.0266
  85. Cl 5 (pz)     0.0003  0.0128  0.0009 -0.0021  0.0110  0.0481  0.0231  0.0096
  86. Cl 5 (d5)    -0.0001  0.0000  0.0003  0.0007  0.0004  0.0000  0.0099 -0.0025
  87. Cl 5 (d2)    -0.0001  0.0080  0.0004 -0.0041  0.0075  0.0149 -0.0038  0.0103
  88. Cl 5 (d3)     0.0000 -0.0080  0.0009  0.0036 -0.0077 -0.0149  0.0075  0.0008
  89. Cl 5 (d4)    -0.0001  0.0000  0.0008 -0.0003 -0.0001  0.0000  0.0036  0.0109
  90. Cl 5 (d1)     0.0000 -0.0080  0.0007  0.0048 -0.0070 -0.0149  0.0144 -0.0069

           AO         33      34      35      36      37      38      39      40
      ------------ ------- ------- ------- ------- ------- ------- ------- -------
   1. Si 1 (s)      0.0000  0.0000  0.0000  0.0000  0.0000  0.0000  0.0000  0.0000
   2. Si 1 (s)      0.0000  0.0000  0.0000  0.0000  0.0000  0.0000  0.0000  0.0000
   3. Si 1 (px)     0.1071  0.0000  0.0000  0.0184  0.0242  0.0017  0.0000  0.0000
   4. Si 1 (py)    -0.0807  0.0000  0.0000  0.0231 -0.0182  0.0079  0.0000  0.0000
   5. Si 1 (pz)     0.0153  0.0000  0.0000 -0.0073  0.0034  0.0294  0.0000  0.0000
   6. Si 1 (s)      0.0000  0.0000  0.0000  0.0000  0.0000  0.0000  0.0000  0.0000
   7. Si 1 (px)    -0.2810  0.0000  0.0000 -0.0542 -0.0710 -0.0051  0.0000  0.0000
   8. Si 1 (py)     0.2117  0.0000  0.0000 -0.0679  0.0535 -0.0231  0.0000  0.0000
   9. Si 1 (pz)    -0.0401  0.0000  0.0000  0.0214 -0.0101 -0.0862  0.0000  0.0000
  10. Si 1 (s)      0.0000  0.0000  0.0000  0.0000  0.0000  0.0000  0.0000  0.0000
  11. Si 1 (px)    -0.0267  0.0000  0.0000  0.0756  0.0990  0.0071  0.0000  0.0000
  12. Si 1 (py)     0.0201  0.0000  0.0000  0.0947 -0.0746  0.0322  0.0000  0.0000
  13. Si 1 (pz)    -0.0038  0.0000  0.0000 -0.0298  0.0141  0.1203  0.0000  0.0000
  14. Si 1 (d5)     0.0000 -0.0521 -0.0649  0.0000  0.0000  0.0000  0.0000  0.0000
  15. Si 1 (d2)     0.0294  0.0000  0.0000 -0.0756  0.0595 -0.0257  0.0000  0.0000
  16. Si 1 (d3)    -0.0390  0.0000  0.0000 -0.0603 -0.0790 -0.0057  0.0000  0.0000
  17. Si 1 (d4)     0.0000  0.0649 -0.0521  0.0000  0.0000  0.0000  0.0000  0.0000
  18. Si 1 (d1)    -0.0056  0.0000  0.0000  0.0238 -0.0113 -0.0960  0.0000  0.0000
  19. Cl 2 (s)      0.0026  0.0000  0.0000  0.0013  0.0004  0.0015  0.0000  0.0000
  20. Cl 2 (s)     -0.0123  0.0000  0.0000 -0.0046 -0.0013 -0.0053  0.0000  0.0000
  21. Cl 2 (px)     0.0355 -0.1091  0.0168 -0.0827 -0.1126 -0.0035  0.1199 -0.0810
  22. Cl 2 (py)    -0.0733  0.0400 -0.1029 -0.1046  0.0868 -0.0323 -0.0703  0.0293
  23. Cl 2 (pz)    -0.0177  0.0691  0.0861  0.0384 -0.0151 -0.1335 -0.0496  0.0517
  24. Cl 2 (s)      0.0253  0.0000  0.0000  0.0186  0.0051  0.0211  0.0000  0.0000
  25. Cl 2 (px)    -0.0918  0.2813 -0.0433  0.2142  0.2930  0.0077 -0.3120  0.2107
  26. Cl 2 (py)     0.1875 -0.1032  0.2653  0.2714 -0.2264  0.0829  0.1828 -0.0761
  27. Cl 2 (pz)     0.0447 -0.1782 -0.2220 -0.1011  0.0390  0.3464  0.1292 -0.1346
  28. Cl 2 (s)      0.0255  0.0000  0.0000 -0.0356 -0.0098 -0.0405  0.0000  0.0000
  29. Cl 2 (px)    -0.0453  0.1599 -0.0246  0.1101  0.1470  0.0077 -0.1762  0.1190
  30. Cl 2 (py)     0.0802 -0.0586  0.1507  0.1386 -0.1119  0.0451  0.1032 -0.0430
  31. Cl 2 (pz)     0.0161 -0.1012 -0.1261 -0.0471  0.0204  0.1765  0.0729 -0.0760
  32. Cl 2 (d5)     0.0001  0.0074  0.0093  0.0092 -0.0002 -0.0081 -0.0039  0.0040
  33. Cl 2 (d2)     0.0022 -0.0032  0.0082 -0.0072 -0.0069 -0.0119  0.0024 -0.0010
  34. Cl 2 (d3)    -0.0094  0.0087 -0.0013 -0.0082  0.0016 -0.0132 -0.0041  0.0028
  35. Cl 2 (d4)     0.0114 -0.0093  0.0074  0.0013 -0.0121  0.0017  0.0085 -0.0049
  36. Cl 2 (d1)    -0.0038 -0.0055 -0.0069 -0.0134 -0.0026 -0.0076  0.0017 -0.0018
  37. Cl 3 (s)     -0.0007  0.0000  0.0000 -0.0019 -0.0001  0.0008  0.0000  0.0000
  38. Cl 3 (s)      0.0033  0.0000  0.0000  0.0066  0.0003 -0.0027  0.0000  0.0000
  39. Cl 3 (px)     0.0550  0.1091 -0.0168 -0.0809 -0.1134 -0.0105  0.0586  0.0899
  40. Cl 3 (py)    -0.0539 -0.0400  0.1029 -0.1028  0.0860 -0.0394 -0.0089 -0.1416
  41. Cl 3 (pz)     0.0160  0.0691  0.0861  0.0284 -0.0165 -0.1358  0.0496 -0.0517
  42. Cl 3 (s)     -0.0068  0.0000  0.0000 -0.0265 -0.0014  0.0107  0.0000  0.0000
  43. Cl 3 (px)    -0.1413 -0.2813  0.0433  0.2091  0.2954  0.0281 -0.1524 -0.2338
  44. Cl 3 (py)     0.1380  0.1032 -0.2653  0.2663 -0.2240  0.1033  0.0232  0.3684
  45. Cl 3 (pz)    -0.0408 -0.1782 -0.2220 -0.0723  0.0432  0.3531 -0.1292  0.1346
  46. Cl 3 (s)     -0.0068  0.0000  0.0000  0.0508  0.0026 -0.0205  0.0000  0.0000
  47. Cl 3 (px)    -0.0645 -0.1599  0.0246  0.1090  0.1475  0.0121 -0.0860 -0.1320
  48. Cl 3 (py)     0.0609  0.0586 -0.1507  0.1375 -0.1114  0.0496  0.0131  0.2080
  49. Cl 3 (pz)    -0.0172 -0.1012 -0.1261 -0.0408  0.0213  0.1780 -0.0729  0.0760
  50. Cl 3 (d5)     0.0020  0.0074  0.0093 -0.0044 -0.0021 -0.0112  0.0039 -0.0040
  51. Cl 3 (d2)     0.0042  0.0032 -0.0082 -0.0123 -0.0045  0.0084  0.0003  0.0048
  52. Cl 3 (d3)    -0.0073 -0.0087  0.0013 -0.0132  0.0040  0.0072 -0.0020 -0.0031
  53. Cl 3 (d4)    -0.0114 -0.0093  0.0074 -0.0013  0.0121 -0.0017 -0.0030 -0.0104
  54. Cl 3 (d1)    -0.0002 -0.0055 -0.0069  0.0155  0.0016 -0.0010 -0.0017  0.0018
  55. Cl 4 (s)      0.0109  0.0000  0.0000  0.0001  0.0015 -0.0013  0.0000  0.0000
  56. Cl 4 (s)     -0.0508  0.0000  0.0000 -0.0004 -0.0052  0.0048  0.0000  0.0000
  57. Cl 4 (px)    -0.0478 -0.1091  0.0168 -0.0865 -0.1090 -0.0124 -0.1199  0.0810
  58. Cl 4 (py)     0.0631 -0.0400  0.1029 -0.1091  0.0810 -0.0327  0.0089  0.1416
  59. Cl 4 (pz)     0.1188 -0.0691 -0.0861  0.0339 -0.0209 -0.1339 -0.1288 -0.0606
  60. Cl 4 (s)      0.1047  0.0000  0.0000  0.0014  0.0211 -0.0192  0.0000  0.0000
  61. Cl 4 (px)     0.1198  0.2813 -0.0433  0.2252  0.2827  0.0336  0.3120 -0.2107
  62. Cl 4 (py)    -0.1591  0.1032 -0.2653  0.2842 -0.2096  0.0841 -0.0232 -0.3684
  63. Cl 4 (pz)    -0.3018  0.1782  0.2220 -0.0883  0.0558  0.3476  0.3352  0.1577
  64. Cl 4 (s)      0.1052  0.0000  0.0000 -0.0027 -0.0404  0.0369  0.0000  0.0000
  65. Cl 4 (px)     0.0371  0.1599 -0.0246  0.1125  0.1447  0.0133  0.1762 -0.1190
  66. Cl 4 (py)    -0.0547  0.0586 -0.1507  0.1414 -0.1083  0.0454 -0.0131 -0.2080
  67. Cl 4 (pz)    -0.1188  0.1012  0.1261 -0.0443  0.0240  0.1768  0.1893  0.0890
  68. Cl 4 (d5)    -0.0077  0.0074  0.0093 -0.0032  0.0081  0.0086  0.0100  0.0047
  69. Cl 4 (d2)     0.0166  0.0032 -0.0082  0.0056  0.0098 -0.0107 -0.0003 -0.0048
  70. Cl 4 (d3)    -0.0182  0.0087 -0.0013  0.0028 -0.0086  0.0127  0.0041 -0.0028
  71. Cl 4 (d4)     0.0016 -0.0093  0.0074 -0.0118 -0.0017 -0.0027 -0.0050  0.0100
  72. Cl 4 (d1)     0.0107  0.0055  0.0069 -0.0006  0.0142 -0.0064  0.0044  0.0021
  73. Cl 5 (s)     -0.0129  0.0000  0.0000  0.0005 -0.0017 -0.0009  0.0000  0.0000
  74. Cl 5 (s)      0.0598  0.0000  0.0000 -0.0016  0.0062  0.0031  0.0000  0.0000
  75. Cl 5 (px)    -0.0673  0.1091 -0.0168 -0.0882 -0.1082 -0.0054 -0.0586 -0.0899
  76. Cl 5 (py)     0.0826  0.0400 -0.1029 -0.1073  0.0801 -0.0398  0.0703 -0.0293
  77. Cl 5 (pz)    -0.1205 -0.0691 -0.0861  0.0328 -0.0107 -0.1354  0.1288  0.0606
  78. Cl 5 (s)     -0.1233  0.0000  0.0000  0.0065 -0.0248 -0.0126  0.0000  0.0000
  79. Cl 5 (px)     0.1692 -0.2813  0.0433  0.2303  0.2803  0.0132  0.1524  0.2338
  80. Cl 5 (py)    -0.2085 -0.1032  0.2653  0.2791 -0.2072  0.1045 -0.1828  0.0761
  81. Cl 5 (pz)     0.3058  0.1782  0.2220 -0.0851  0.0264  0.3519 -0.3352 -0.1577
  82. Cl 5 (s)     -0.1239  0.0000  0.0000 -0.0124  0.0476  0.0241  0.0000  0.0000
  83. Cl 5 (px)     0.0563 -0.1599  0.0246  0.1136  0.1442  0.0088  0.0860  0.1320
  84. Cl 5 (py)    -0.0740 -0.0586  0.1507  0.1403 -0.1078  0.0498 -0.1032  0.0430
  85. Cl 5 (pz)     0.1177  0.1012  0.1261 -0.0436  0.0176  0.1777 -0.1893 -0.0890
  86. Cl 5 (d5)     0.0055  0.0074  0.0093 -0.0016 -0.0058  0.0107 -0.0100 -0.0047
  87. Cl 5 (d2)     0.0187 -0.0032  0.0082  0.0005  0.0122  0.0096 -0.0024  0.0010
  88. Cl 5 (d3)    -0.0203 -0.0087  0.0013  0.0079 -0.0110 -0.0077  0.0020  0.0031
  89. Cl 5 (d4)    -0.0016 -0.0093  0.0074  0.0118  0.0017  0.0027 -0.0005  0.0053
  90. Cl 5 (d1)    -0.0146  0.0055  0.0069  0.0027 -0.0152 -0.0022 -0.0044 -0.0021

           AO         41      42      43      44      45      46      47      48
      ------------ ------- ------- ------- ------- ------- ------- ------- -------
   1. Si 1 (s)      0.0000  0.0558  0.0000  0.0000  0.0000 -0.0521  0.0000  0.0000
   2. Si 1 (s)      0.0000 -0.2613  0.0000  0.0000  0.0000 -0.0556  0.0000  0.0000
   3. Si 1 (px)     0.0000  0.0000  0.0626 -0.1474 -0.0346  0.0000  0.2570  0.0026
   4. Si 1 (py)     0.0000  0.0000 -0.1396 -0.0707  0.0487  0.0000  0.0041  0.2618
   5. Si 1 (pz)     0.0000  0.0000 -0.0587  0.0109 -0.1526  0.0000 -0.0579  0.0302
   6. Si 1 (s)      0.0000  0.7050  0.0000  0.0000  0.0000 -1.7957  0.0000  0.0000
   7. Si 1 (px)     0.0000  0.0000 -0.1999  0.4707  0.1104  0.0000 -1.2741 -0.0130
   8. Si 1 (py)     0.0000  0.0000  0.4457  0.2257 -0.1554  0.0000 -0.0203 -1.2975
   9. Si 1 (pz)     0.0000  0.0000  0.1874 -0.0347  0.4872  0.0000  0.2868 -0.1495
  10. Si 1 (s)      0.0000  1.9782  0.0000  0.0000  0.0000  3.7416  0.0000  0.0000
  11. Si 1 (px)     0.0000  0.0000 -0.6895  1.6236  0.3809  0.0000  1.6360  0.0167
  12. Si 1 (py)     0.0000  0.0000  1.5373  0.7786 -0.5359  0.0000  0.0261  1.6660
  13. Si 1 (pz)     0.0000  0.0000  0.6465 -0.1197  1.6806  0.0000 -0.3682  0.1920
  14. Si 1 (d5)     0.0000  0.0000  0.0000  0.0000  0.0000  0.0000  0.0000  0.0000
  15. Si 1 (d2)     0.0000  0.0000 -0.0986 -0.0500  0.0344  0.0000 -0.0003 -0.0206
  16. Si 1 (d3)     0.0000  0.0000  0.0442 -0.1042 -0.0244  0.0000 -0.0203 -0.0002
  17. Si 1 (d4)     0.0000  0.0000  0.0000  0.0000  0.0000  0.0000  0.0000  0.0000
  18. Si 1 (d1)     0.0000  0.0000 -0.0415  0.0077 -0.1078  0.0000  0.0046 -0.0024
  19. Cl 2 (s)      0.0000 -0.0164 -0.0082 -0.0126 -0.0084 -0.0111  0.0006  0.0009
  20. Cl 2 (s)      0.0000  0.0835  0.0467  0.0714  0.0477  0.0517 -0.0048 -0.0070
  21. Cl 2 (px)     0.0026 -0.0541 -0.0634  0.0064 -0.0229  0.0168  0.0406  0.0121
  22. Cl 2 (py)     0.1231 -0.0541  0.0225 -0.0262 -0.0583  0.0168  0.0086  0.0449
  23. Cl 2 (pz)    -0.1257 -0.0541 -0.0119 -0.0609  0.0272  0.0168  0.0008  0.0156
  24. Cl 2 (s)      0.0000 -0.1441 -0.0562 -0.0858 -0.0574 -0.1189 -0.0007 -0.0010
  25. Cl 2 (px)    -0.0068  0.1383  0.1616 -0.0179  0.0577 -0.0519 -0.1180 -0.0219
  26. Cl 2 (py)    -0.3203  0.1383 -0.0587  0.0656  0.1484 -0.0519 -0.0161 -0.1264
  27. Cl 2 (pz)     0.3271  0.1383  0.0294  0.1545 -0.0709 -0.0519  0.0089 -0.0330
  28. Cl 2 (s)      0.0000 -0.5523 -0.5249 -0.8018 -0.5359 -0.6809 -0.2094 -0.3034
  29. Cl 2 (px)    -0.0039  0.3115  0.4449  0.0687  0.2066  0.1926 -0.1740 -0.0355
  30. Cl 2 (py)    -0.1808  0.3115 -0.0633  0.2615  0.4159  0.1926 -0.0258 -0.1873
  31. Cl 2 (pz)     0.1847  0.3115  0.1400  0.4665 -0.0900  0.1926  0.0105 -0.0516
  32. Cl 2 (d5)    -0.0098  0.0000 -0.0065  0.0383 -0.0509  0.0000 -0.0098 -0.0053
  33. Cl 2 (d2)    -0.0042  0.0223  0.0230  0.0080 -0.0129 -0.0421 -0.0389 -0.0690
  34. Cl 2 (d3)    -0.0001  0.0223 -0.0155  0.0226  0.0029 -0.0421 -0.0515 -0.0561
  35. Cl 2 (d4)    -0.0054  0.0000  0.0559 -0.0212 -0.0230  0.0000  0.0114 -0.0117
  36. Cl 2 (d1)     0.0043  0.0223  0.0076 -0.0075  0.0254 -0.0421 -0.0358 -0.0575
  37. Cl 3 (s)      0.0000 -0.0164  0.0011  0.0139 -0.0101 -0.0111 -0.0010 -0.0007
  38. Cl 3 (s)      0.0000  0.0835 -0.0063 -0.0789  0.0574  0.0517  0.0075  0.0055
  39. Cl 3 (px)     0.0972  0.0541 -0.0316  0.0005  0.0599 -0.0168  0.0453  0.0097
  40. Cl 3 (py)     0.0286  0.0541  0.0543 -0.0321  0.0246 -0.0168  0.0133  0.0425
  41. Cl 3 (pz)     0.1257 -0.0541  0.0299  0.0575  0.0196  0.0168 -0.0201 -0.0056
  42. Cl 3 (s)      0.0000 -0.1441  0.0076  0.0948 -0.0690 -0.1189  0.0011  0.0008
  43. Cl 3 (px)    -0.2528 -0.1383  0.0808 -0.0030 -0.1524  0.0519 -0.1262 -0.0177
  44. Cl 3 (py)    -0.0743 -0.1383 -0.1395  0.0806 -0.0617  0.0519 -0.0243 -0.1221
  45. Cl 3 (pz)    -0.3271  0.1383 -0.0765 -0.1458 -0.0515 -0.0519  0.0459  0.0044
  46. Cl 3 (s)      0.0000 -0.5523  0.0707  0.8859 -0.6448 -0.6809  0.3286  0.2413
  47. Cl 3 (px)    -0.1427 -0.3115  0.1961  0.1147 -0.4401 -0.1926 -0.1873 -0.0285
  48. Cl 3 (py)    -0.0420 -0.3115 -0.3121  0.3076 -0.2309 -0.1926 -0.0392 -0.1803
  49. Cl 3 (pz)    -0.1847  0.3115 -0.1863 -0.4580 -0.0303  0.1926  0.0707  0.0093
  50. Cl 3 (d5)     0.0098  0.0000 -0.0310 -0.0313 -0.0464  0.0000  0.0038  0.0084
  51. Cl 3 (d2)    -0.0010 -0.0223  0.0261  0.0074 -0.0049  0.0421 -0.0609 -0.0576
  52. Cl 3 (d3)    -0.0033 -0.0223 -0.0124  0.0220  0.0110  0.0421 -0.0735 -0.0447
  53. Cl 3 (d4)    -0.0031  0.0000 -0.0559  0.0212  0.0230  0.0000 -0.0114  0.0117
  54. Cl 3 (d1)    -0.0043  0.0223  0.0117  0.0040  0.0246 -0.0421  0.0635  0.0430
  55. Cl 4 (s)      0.0000 -0.0164  0.0158 -0.0053  0.0042 -0.0111  0.0010 -0.0009
  56. Cl 4 (s)      0.0000  0.0835 -0.0899  0.0302 -0.0239  0.0517 -0.0073  0.0068
  57. Cl 4 (px)    -0.0026 -0.0541  0.0442  0.0389  0.0335  0.0168  0.0449 -0.0112
  58. Cl 4 (py)    -0.0286  0.0541 -0.0115  0.0538 -0.0395 -0.0168 -0.0119  0.0447
  59. Cl 4 (pz)     0.0259  0.0541 -0.0459  0.0192  0.0460 -0.0168 -0.0197  0.0154
  60. Cl 4 (s)      0.0000 -0.1441  0.1080 -0.0363  0.0287 -0.1189 -0.0011  0.0010
  61. Cl 4 (px)     0.0068  0.1383 -0.1114 -0.1003 -0.0854 -0.0519 -0.1257  0.0194
  62. Cl 4 (py)     0.0743 -0.1383  0.0275 -0.1373  0.1007  0.0519  0.0204 -0.1260
  63. Cl 4 (pz)    -0.0675 -0.1383  0.1156 -0.0484 -0.1185  0.0519  0.0454 -0.0327
  64. Cl 4 (s)      0.0000 -0.5523  1.0093 -0.3389  0.2683 -0.6809 -0.3202  0.2980
  65. Cl 4 (px)     0.0039  0.3115 -0.3955 -0.1849 -0.2339  0.1926 -0.1864  0.0318
  66. Cl 4 (py)     0.0420 -0.3115  0.2021 -0.3633  0.2693 -0.1926  0.0334 -0.1867
  67. Cl 4 (pz)    -0.0381 -0.3115  0.4053 -0.1583 -0.2366 -0.1926  0.0697 -0.0510
  68. Cl 4 (d5)    -0.0020  0.0000 -0.0135  0.0088  0.0620  0.0000 -0.0036  0.0052
  69. Cl 4 (d2)     0.0010 -0.0223  0.0197  0.0158 -0.0111  0.0421  0.0589 -0.0680
  70. Cl 4 (d3)     0.0001  0.0223 -0.0050  0.0257  0.0084 -0.0421 -0.0719  0.0549
  71. Cl 4 (d4)    -0.0014  0.0000 -0.0213 -0.0603  0.0039  0.0000  0.0118  0.0119
  72. Cl 4 (d1)    -0.0009 -0.0223  0.0043  0.0002  0.0272  0.0421  0.0620 -0.0565
  73. Cl 5 (s)      0.0000 -0.0164 -0.0087  0.0040  0.0143 -0.0111 -0.0006  0.0007
  74. Cl 5 (s)      0.0000  0.0835  0.0494 -0.0227 -0.0813  0.0517  0.0046 -0.0054
  75. Cl 5 (px)    -0.0972  0.0541  0.0124  0.0448 -0.0493 -0.0168  0.0403 -0.0088
  76. Cl 5 (py)    -0.1231 -0.0541  0.0204  0.0479  0.0434  0.0168 -0.0073  0.0423
  77. Cl 5 (pz)    -0.0259  0.0541  0.0639 -0.0225  0.0008 -0.0168  0.0005 -0.0053
  78. Cl 5 (s)      0.0000 -0.1441 -0.0594  0.0273  0.0977 -0.1189  0.0007 -0.0008
  79. Cl 5 (px)     0.2528 -0.1383 -0.0306 -0.1153  0.1247  0.0519 -0.1175  0.0152
  80. Cl 5 (py)     0.3203  0.1383 -0.0533 -0.1223 -0.1093 -0.0519  0.0122 -0.1218
  81. Cl 5 (pz)     0.0675 -0.1383 -0.1627  0.0572 -0.0039  0.0519  0.0095  0.0041
  82. Cl 5 (s)      0.0000 -0.5523 -0.5551  0.2548  0.9124 -0.6809  0.2010 -0.2359
  83. Cl 5 (px)     0.1427 -0.3115 -0.1467 -0.2310  0.4129 -0.1926 -0.1731  0.0248
  84. Cl 5 (py)     0.1808  0.3115 -0.0468 -0.3173 -0.3775  0.1926  0.0201 -0.1797
  85. Cl 5 (pz)     0.0381 -0.3115 -0.4516  0.1669  0.1163 -0.1926  0.0114  0.0087
  86. Cl 5 (d5)     0.0020  0.0000  0.0510 -0.0157  0.0354  0.0000  0.0096 -0.0083
  87. Cl 5 (d2)     0.0042  0.0223  0.0228  0.0152 -0.0030 -0.0421  0.0369 -0.0566
  88. Cl 5 (d3)     0.0033 -0.0223 -0.0081  0.0263  0.0003  0.0421 -0.0499  0.0434
  89. Cl 5 (d4)     0.0099  0.0000  0.0213  0.0603 -0.0039  0.0000 -0.0118 -0.0119
  90. Cl 5 (d1)     0.0009 -0.0223  0.0150 -0.0038  0.0228  0.0421 -0.0342  0.0420

           AO         49      50      51      52      53      54      55      56
      ------------ ------- ------- ------- ------- ------- ------- ------- -------
   1. Si 1 (s)      0.0000  0.0000  0.0000  0.0000  0.0000  0.0000 -0.0022  0.0000
   2. Si 1 (s)      0.0000  0.0000  0.0000  0.0000  0.0000  0.0000  0.0996  0.0000
   3. Si 1 (px)     0.0579  0.0181  0.0249 -0.0038  0.0000  0.0000  0.0000  0.0000
   4. Si 1 (py)    -0.0300  0.0251 -0.0181  0.0008  0.0000  0.0000  0.0000  0.0000
   5. Si 1 (pz)     0.2553  0.0016  0.0035  0.0307  0.0000  0.0000  0.0000  0.0000
   6. Si 1 (s)      0.0000  0.0000  0.0000  0.0000  0.0000  0.0000  0.3669  0.0000
   7. Si 1 (px)    -0.2872  0.0172  0.0236 -0.0036  0.0000  0.0000  0.0000  0.0000
   8. Si 1 (py)     0.1487  0.0238 -0.0172  0.0008  0.0000  0.0000  0.0000  0.0000
   9. Si 1 (pz)    -1.2655  0.0015  0.0034  0.0292  0.0000  0.0000  0.0000  0.0000
  10. Si 1 (s)      0.0000  0.0000  0.0000  0.0000  0.0000  0.0000  1.2165  0.0000
  11. Si 1 (px)     0.3688  0.2278  0.3131 -0.0476  0.0000  0.0000  0.0000  0.0000
  12. Si 1 (py)    -0.1909  0.3161 -0.2284  0.0100  0.0000  0.0000  0.0000  0.0000
  13. Si 1 (pz)     1.6249  0.0198  0.0445  0.3871  0.0000  0.0000  0.0000  0.0000
  14. Si 1 (d5)     0.0000  0.0000  0.0000  0.0000  0.3974  0.2186  0.0000  0.6005
  15. Si 1 (d2)     0.0024  0.3635 -0.2627  0.0115  0.0000  0.0000  0.0000  0.0000
  16. Si 1 (d3)    -0.0046  0.2619  0.3601 -0.0548  0.0000  0.0000  0.0000  0.0000
  17. Si 1 (d4)     0.0000  0.0000  0.0000  0.0000 -0.2186  0.3974  0.0000  0.4353
  18. Si 1 (d1)    -0.0201  0.0228  0.0511  0.4451  0.0000  0.0000  0.0000  0.0000
  19. Cl 2 (s)      0.0009 -0.0254 -0.0058 -0.0158  0.0000  0.0000 -0.0011  0.0000
  20. Cl 2 (s)     -0.0067  0.0742  0.0170  0.0460  0.0000  0.0000  0.0157  0.0000
  21. Cl 2 (px)     0.0187  0.0748  0.0090  0.0522 -0.0956  0.0579  0.0880 -0.0059
  22. Cl 2 (py)     0.0075  0.0720  0.0259  0.0504 -0.0023 -0.1117  0.0880  0.0519
  23. Cl 2 (pz)     0.0436  0.0812  0.0174  0.0387  0.0979  0.0539  0.0880 -0.0460
  24. Cl 2 (s)     -0.0010 -0.4299 -0.0985 -0.2665  0.0000  0.0000  0.0212  0.0000
  25. Cl 2 (px)    -0.0434 -0.3139 -0.0518 -0.2091  0.3525 -0.2133 -0.3443  0.0251
  26. Cl 2 (py)    -0.0080 -0.3071 -0.0935 -0.2047  0.0085  0.4119 -0.3443 -0.2214
  27. Cl 2 (pz)    -0.1230 -0.3299 -0.0725 -0.1756 -0.3610 -0.1986 -0.3443  0.1963
  28. Cl 2 (s)     -0.2918  0.1131  0.0259  0.0701  0.0000  0.0000 -0.3273  0.0000
  29. Cl 2 (px)    -0.0666  0.5260  0.1221  0.3250 -0.2901  0.1756  0.4769 -0.0358
  30. Cl 2 (py)    -0.0151  0.5265  0.1189  0.3253 -0.0070 -0.3391  0.4769  0.3156
  31. Cl 2 (pz)    -0.1822  0.5248  0.1205  0.3275  0.2972  0.1635  0.4769 -0.2799
  32. Cl 2 (d5)     0.0126 -0.0338  0.0003  0.0544 -0.0575 -0.0316  0.0000 -0.1169
  33. Cl 2 (d2)    -0.0524  0.0450  0.0435  0.0484 -0.0015 -0.0721  0.0346 -0.0760
  34. Cl 2 (d3)    -0.0567  0.0548 -0.0162  0.0547 -0.0617  0.0373  0.0346  0.0086
  35. Cl 2 (d4)     0.0040 -0.0102  0.0628 -0.0067  0.0316 -0.0575  0.0000 -0.0847
  36. Cl 2 (d1)    -0.0666  0.0777  0.0134  0.0069  0.0632  0.0347  0.0346  0.0674
  37. Cl 3 (s)      0.0007  0.0236  0.0018 -0.0192  0.0000  0.0000 -0.0011  0.0000
  38. Cl 3 (s)     -0.0054 -0.0690 -0.0053  0.0559  0.0000  0.0000  0.0157  0.0000
  39. Cl 3 (px)    -0.0018  0.0690 -0.0039 -0.0602  0.0956 -0.0579 -0.0880  0.0059
  40. Cl 3 (py)    -0.0129  0.0663  0.0129 -0.0620  0.0023  0.1117 -0.0880 -0.0519
  41. Cl 3 (pz)     0.0414 -0.0767 -0.0072  0.0496  0.0979  0.0539  0.0880 -0.0460
  42. Cl 3 (s)     -0.0008  0.3997  0.0307 -0.3239  0.0000  0.0000  0.0212  0.0000
  43. Cl 3 (px)    -0.0073 -0.2905  0.0004  0.2460 -0.3525  0.2133  0.3443 -0.0251
  44. Cl 3 (py)     0.0282 -0.2837 -0.0412  0.2504 -0.0085 -0.4119  0.3443  0.2214
  45. Cl 3 (pz)    -0.1190  0.3096  0.0271 -0.2199 -0.3610 -0.1986 -0.3443  0.1963
  46. Cl 3 (s)     -0.2342 -0.1051 -0.0081  0.0852  0.0000  0.0000 -0.3273  0.0000
  47. Cl 3 (px)    -0.0077  0.4891  0.0393 -0.3956  0.2901 -0.1756 -0.4769  0.0358
  48. Cl 3 (py)     0.0438  0.4896  0.0361 -0.3952  0.0070  0.3391 -0.4769 -0.3156
  49. Cl 3 (pz)    -0.1758 -0.4876 -0.0372  0.3976  0.2972  0.1635  0.4769 -0.2799
  50. Cl 3 (d5)     0.0140  0.0391  0.0116  0.0493 -0.0575 -0.0316  0.0000 -0.1169
  51. Cl 3 (d2)     0.0447  0.0394  0.0309 -0.0613  0.0015  0.0721 -0.0346  0.0760
  52. Cl 3 (d3)     0.0403  0.0491 -0.0288 -0.0549  0.0617 -0.0373 -0.0346 -0.0086
  53. Cl 3 (d4)    -0.0040  0.0102 -0.0628  0.0067  0.0316 -0.0575  0.0000 -0.0847
  54. Cl 3 (d1)    -0.0559 -0.0764 -0.0106  0.0175  0.0632  0.0347  0.0346  0.0674
  55. Cl 4 (s)     -0.0005  0.0049 -0.0224  0.0201  0.0000  0.0000 -0.0011  0.0000
  56. Cl 4 (s)      0.0040 -0.0142  0.0654 -0.0585  0.0000  0.0000  0.0157  0.0000
  57. Cl 4 (px)     0.0006 -0.0228  0.0625 -0.0631 -0.0956  0.0579  0.0880 -0.0059
  58. Cl 4 (py)     0.0029  0.0059 -0.0651  0.0643  0.0023  0.1117 -0.0880 -0.0519
  59. Cl 4 (pz)     0.0390  0.0151 -0.0736  0.0526 -0.0979 -0.0539 -0.0880  0.0460
  60. Cl 4 (s)      0.0006  0.0825 -0.3791  0.3392  0.0000  0.0000  0.0212  0.0000
  61. Cl 4 (px)    -0.0115  0.0811 -0.2681  0.2578  0.3525 -0.2133 -0.3443  0.0251
  62. Cl 4 (py)     0.0002 -0.0393  0.2747 -0.2607 -0.0085 -0.4119  0.3443  0.2214
  63. Cl 4 (pz)    -0.1148 -0.0621  0.2957 -0.2317  0.3610  0.1986  0.3443 -0.1963
  64. Cl 4 (s)      0.1724 -0.0217  0.0997 -0.0892  0.0000  0.0000 -0.3273  0.0000
  65. Cl 4 (px)    -0.0147 -0.0994  0.4645 -0.4142 -0.2901  0.1756  0.4769 -0.0358
  66. Cl 4 (py)    -0.0017  0.1025 -0.4640  0.4140  0.0070  0.3391 -0.4769 -0.3156
  67. Cl 4 (pz)    -0.1688  0.1008 -0.4624  0.4162 -0.2972 -0.1635 -0.4769  0.2799
  68. Cl 4 (d5)    -0.0156  0.0033 -0.0422 -0.0480 -0.0575 -0.0316  0.0000 -0.1169
  69. Cl 4 (d2)    -0.0303 -0.0195 -0.0453  0.0619  0.0015  0.0721 -0.0346  0.0760
  70. Cl 4 (d3)     0.0289 -0.0404  0.0359 -0.0577 -0.0617  0.0373  0.0346  0.0086
  71. Cl 4 (d4)     0.0013  0.0631  0.0098 -0.0044  0.0316 -0.0575  0.0000 -0.0847
  72. Cl 4 (d1)    -0.0445  0.0131 -0.0753  0.0204 -0.0632 -0.0347 -0.0346 -0.0674
  73. Cl 5 (s)     -0.0011 -0.0031  0.0264  0.0149  0.0000  0.0000 -0.0011  0.0000
  74. Cl 5 (s)      0.0081  0.0090 -0.0771 -0.0434  0.0000  0.0000  0.0157  0.0000
  75. Cl 5 (px)     0.0211 -0.0170  0.0754  0.0493  0.0956 -0.0579 -0.0880  0.0059
  76. Cl 5 (py)    -0.0175  0.0001 -0.0780 -0.0481 -0.0023 -0.1117  0.0880  0.0519
  77. Cl 5 (pz)     0.0460 -0.0106  0.0837  0.0358 -0.0979 -0.0539 -0.0880  0.0460
  78. Cl 5 (s)      0.0012 -0.0522  0.4469  0.2512  0.0000  0.0000  0.0212  0.0000
  79. Cl 5 (px)    -0.0477  0.0578 -0.3204 -0.1973 -0.3525  0.2133  0.3443 -0.0251
  80. Cl 5 (py)     0.0364 -0.0159  0.3269  0.1944  0.0085  0.4119 -0.3443 -0.2214
  81. Cl 5 (pz)    -0.1273  0.0418 -0.3411 -0.1639  0.3610  0.1986  0.3443 -0.1963
  82. Cl 5 (s)      0.3536  0.0137 -0.1175 -0.0661  0.0000  0.0000 -0.3273  0.0000
  83. Cl 5 (px)    -0.0735 -0.0624  0.5473  0.3063  0.2901 -0.1756 -0.4769  0.0358
  84. Cl 5 (py)     0.0571  0.0656 -0.5468 -0.3065 -0.0070 -0.3391  0.4769  0.3156
  85. Cl 5 (pz)    -0.1891 -0.0636  0.5457  0.3089 -0.2972 -0.1635 -0.4769  0.2799
  86. Cl 5 (d5)    -0.0110 -0.0086  0.0303 -0.0557 -0.0575 -0.0316  0.0000 -0.1169
  87. Cl 5 (d2)     0.0668 -0.0251 -0.0578 -0.0478 -0.0015 -0.0721  0.0346 -0.0760
  88. Cl 5 (d3)    -0.0681 -0.0348  0.0485  0.0519  0.0617 -0.0373 -0.0346 -0.0086
  89. Cl 5 (d4)    -0.0013 -0.0631 -0.0098  0.0044  0.0316 -0.0575  0.0000 -0.0847
  90. Cl 5 (d1)    -0.0780 -0.0119  0.0781  0.0040 -0.0632 -0.0347 -0.0346 -0.0674

           AO         57      58      59      60      61      62      63      64
      ------------ ------- ------- ------- ------- ------- ------- ------- -------
   1. Si 1 (s)      0.0000  0.0000  0.0000  0.0000  0.0000  0.0000  0.0000  0.0000
   2. Si 1 (s)      0.0000  0.0000  0.0000  0.0000  0.0000  0.0000  0.0000  0.0000
   3. Si 1 (px)     0.0000 -0.0237  0.0140 -0.0116  0.0000  0.0000  0.0000 -0.0518
   4. Si 1 (py)     0.0000  0.0179  0.0144 -0.0191  0.0000  0.0000  0.0000 -0.0335
   5. Si 1 (pz)     0.0000 -0.0034 -0.0221 -0.0198  0.0000  0.0000  0.0000 -0.0015
   6. Si 1 (s)      0.0000  0.0000  0.0000  0.0000  0.0000  0.0000  0.0000  0.0000
   7. Si 1 (px)     0.0000  0.1482 -0.0874  0.0726  0.0000  0.0000  0.0000  0.0727
   8. Si 1 (py)     0.0000 -0.1116 -0.0899  0.1197  0.0000  0.0000  0.0000  0.0470
   9. Si 1 (pz)     0.0000  0.0211  0.1384  0.1236  0.0000  0.0000  0.0000  0.0021
  10. Si 1 (s)      0.0000  0.0000  0.0000  0.0000  0.0000  0.0000  0.0000  0.0000
  11. Si 1 (px)     0.0000 -0.4562  0.2691 -0.2234  0.0000  0.0000  0.0000 -2.2548
  12. Si 1 (py)     0.0000  0.3437  0.2767 -0.3684  0.0000  0.0000  0.0000 -1.4567
  13. Si 1 (pz)     0.0000 -0.0650 -0.4259 -0.3805  0.0000  0.0000  0.0000 -0.0660
  14. Si 1 (d5)    -0.4353  0.0000  0.0000  0.0000  0.0000  0.0000  0.0000  0.0000
  15. Si 1 (d2)     0.0000 -0.1885 -0.1518  0.2021  0.0000  0.0000  0.0000 -0.1647
  16. Si 1 (d3)     0.0000  0.2502 -0.1476  0.1225  0.0000  0.0000  0.0000 -0.2550
  17. Si 1 (d4)     0.6005  0.0000  0.0000  0.0000  0.0000  0.0000  0.0000  0.0000
  18. Si 1 (d1)     0.0000  0.0356  0.2336  0.2087  0.0000  0.0000  0.0000 -0.0075
  19. Cl 2 (s)      0.0000  0.0038 -0.0025  0.0206  0.0000  0.0000  0.0000 -0.0490
  20. Cl 2 (s)      0.0000 -0.0028  0.0019 -0.0152  0.0000  0.0000  0.0000  0.0178
  21. Cl 2 (px)    -0.0565  0.0994 -0.0569 -0.0556  0.0893 -0.0832 -0.0814  0.0031
  22. Cl 2 (py)     0.0232 -0.1115 -0.0589 -0.0173  0.0299  0.0227  0.1418 -0.0192
  23. Cl 2 (pz)     0.0334 -0.0038  0.1265 -0.0141 -0.1192  0.0604 -0.0604 -0.0581
  24. Cl 2 (s)      0.0000  0.0925 -0.0625  0.5068  0.0000  0.0000  0.0000 -1.2653
  25. Cl 2 (px)     0.2411 -0.4078  0.2339  0.1911 -0.3614  0.3364  0.3292  0.0031
  26. Cl 2 (py)    -0.0989  0.4445  0.2420  0.0365 -0.1210 -0.0920 -0.5736  0.0992
  27. Cl 2 (pz)    -0.1423  0.0091 -0.5068  0.0236  0.4823 -0.2444  0.2444  0.2665
  28. Cl 2 (s)      0.0000 -0.0857  0.0579 -0.4692  0.0000  0.0000  0.0000  2.6460
  29. Cl 2 (px)    -0.3438  0.5699 -0.3299 -0.0852  0.4431 -0.4125 -0.4037 -0.2127
  30. Cl 2 (py)     0.1409 -0.5573 -0.3406  0.1192  0.1483  0.1128  0.7034 -0.4488
  31. Cl 2 (pz)     0.2029  0.0185  0.6496  0.1362 -0.5915  0.2997 -0.2997 -0.8604
  32. Cl 2 (d5)     0.0847  0.0010  0.0784  0.0095 -0.0548  0.0278 -0.0278 -0.0655
  33. Cl 2 (d2)    -0.0339  0.0601  0.0122  0.0956 -0.0145 -0.0110 -0.0687 -0.0890
  34. Cl 2 (d3)     0.0828 -0.0229  0.0114  0.1106 -0.0433  0.0403  0.0394 -0.0845
  35. Cl 2 (d4)    -0.1169  0.0777  0.0007 -0.0141  0.0158 -0.0281 -0.0592  0.0253
  36. Cl 2 (d1)    -0.0489  0.0177 -0.0607  0.0943  0.0578 -0.0293  0.0293 -0.0968
  37. Cl 3 (s)      0.0000 -0.0010  0.0206 -0.0045  0.0000  0.0000  0.0000  0.0473
  38. Cl 3 (s)      0.0000  0.0007 -0.0152  0.0033  0.0000  0.0000  0.0000 -0.0172
  39. Cl 3 (px)     0.0565  0.1147  0.0434  0.0340 -0.0142 -0.1096  0.0964  0.0052
  40. Cl 3 (py)    -0.0232 -0.0962  0.0414  0.0723  0.1334  0.0492 -0.0360 -0.0171
  41. Cl 3 (pz)     0.0334  0.0227 -0.0021  0.1252  0.1192 -0.0604  0.0604  0.0597
  42. Cl 3 (s)      0.0000 -0.0248  0.5065 -0.1101  0.0000  0.0000  0.0000  1.2211
  43. Cl 3 (px)    -0.2411 -0.4651 -0.1421 -0.1448  0.0573  0.4434 -0.3901 -0.0064
  44. Cl 3 (py)     0.0989  0.3872 -0.1340 -0.2994 -0.5397 -0.1990  0.1457  0.0896
  45. Cl 3 (pz)    -0.1423 -0.0902 -0.0250 -0.4987 -0.4823  0.2444 -0.2444 -0.2728
  46. Cl 3 (s)      0.0000  0.0230 -0.4690  0.1020  0.0000  0.0000  0.0000 -2.5536
  47. Cl 3 (px)     0.3438  0.6233  0.0205  0.2279 -0.0703 -0.5437  0.4784 -0.1819
  48. Cl 3 (py)    -0.1409 -0.5039  0.0098  0.4323  0.6618  0.2441 -0.1787 -0.4181
  49. Cl 3 (pz)     0.2029  0.1111  0.2005  0.6231  0.5915 -0.2997  0.2997  0.8687
  50. Cl 3 (d5)     0.0847  0.0136  0.0172  0.0759  0.0548 -0.0278  0.0278  0.0703
  51. Cl 3 (d2)     0.0339  0.0422 -0.1050 -0.0091 -0.0646 -0.0238  0.0175 -0.0856
  52. Cl 3 (d3)    -0.0828 -0.0408 -0.1058  0.0059  0.0069  0.0531 -0.0467 -0.0811
  53. Cl 3 (d4)    -0.1169 -0.0777 -0.0007  0.0141  0.0392  0.0422 -0.0352 -0.0253
  54. Cl 3 (d1)    -0.0489 -0.0133  0.0895 -0.0685 -0.0578  0.0293 -0.0293  0.0941
  55. Cl 4 (s)      0.0000  0.0156 -0.0089 -0.0111  0.0000  0.0000  0.0000 -0.0095
  56. Cl 4 (s)      0.0000 -0.0115  0.0066  0.0082  0.0000  0.0000  0.0000  0.0035
  57. Cl 4 (px)    -0.0565  0.0338 -0.0217  0.1208 -0.0893  0.0832  0.0814  0.0514
  58. Cl 4 (py)    -0.0232 -0.0041 -0.1222  0.0353 -0.1334 -0.0492  0.0360  0.0524
  59. Cl 4 (pz)    -0.0334  0.1036  0.0631  0.0385  0.0441  0.1324  0.0454  0.0135
  60. Cl 4 (s)      0.0000  0.3830 -0.2180 -0.2739  0.0000  0.0000  0.0000 -0.2452
  61. Cl 4 (px)     0.2411 -0.1618  0.1022 -0.4700  0.3614 -0.3364 -0.3292 -0.2181
  62. Cl 4 (py)     0.0989  0.0419  0.4795 -0.1607  0.5397  0.1990 -0.1457 -0.2285
  63. Cl 4 (pz)     0.1423 -0.3935 -0.2693 -0.1735 -0.1783 -0.5354 -0.1835 -0.0611
  64. Cl 4 (s)      0.0000 -0.3547  0.2019  0.2536  0.0000  0.0000  0.0000  0.5128
  65. Cl 4 (px)    -0.3438  0.3406 -0.2072  0.5310 -0.4431  0.4125  0.4037  0.4967
  66. Cl 4 (py)    -0.1409 -0.1820 -0.5620  0.3030 -0.6618 -0.2441  0.1787  0.6016
  67. Cl 4 (pz)    -0.2029  0.3938  0.4282  0.3200  0.2186  0.6565  0.2250  0.1901
  68. Cl 4 (d5)     0.0847 -0.0522 -0.0482 -0.0346 -0.0203 -0.0609 -0.0209 -0.0170
  69. Cl 4 (d2)     0.0339 -0.0655  0.0863  0.0341  0.0646  0.0238 -0.0175  0.0270
  70. Cl 4 (d3)     0.0828  0.0538 -0.0297 -0.0955  0.0433 -0.0403 -0.0394 -0.0062
  71. Cl 4 (d4)    -0.1169  0.0109 -0.0531  0.0575 -0.0591  0.0090  0.0312  0.1176
  72. Cl 4 (d1)     0.0489 -0.1079  0.0134  0.0329 -0.0214 -0.0641 -0.0220  0.0192
  73. Cl 5 (s)      0.0000 -0.0183 -0.0092 -0.0050  0.0000  0.0000  0.0000  0.0112
  74. Cl 5 (s)      0.0000  0.0135  0.0068  0.0037  0.0000  0.0000  0.0000 -0.0041
  75. Cl 5 (px)     0.0565  0.0185 -0.1220  0.0312  0.0142  0.1096 -0.0964  0.0493
  76. Cl 5 (py)     0.0232  0.0112 -0.0219  0.1249 -0.0299 -0.0227 -0.1418  0.0544
  77. Cl 5 (pz)    -0.0334 -0.0847  0.0613  0.0726 -0.0441 -0.1324 -0.0454 -0.0119
[...]
                                         0.0000  0.0000  0.0000  0.0000  0.0000
                                         0.0036  0.2533  0.0000  0.0053  0.3774
                                         0.0000  0.0089  0.6307 -0.3001 -0.1796
                                        -0.1205  0.0574  0.5053
  66. (0.00031) RY ( 3)Cl  3            s(  0.00%)p 1.00( 60.45%)d 0.65( 39.55%)
                                         0.0000  0.0000  0.0000  0.0000  0.0000
                                         0.0082  0.5820  0.0000 -0.0072 -0.5104
                                         0.0000  0.0010  0.0717 -0.0341  0.2429
                                        -0.2770 -0.5053  0.0574
  67. (0.00006) RY ( 4)Cl  3            s(  0.00%)p 1.00( 30.07%)d 2.33( 69.93%)
  68. (0.00006) RY ( 5)Cl  3            s(  0.00%)p 1.00( 30.07%)d 2.33( 69.93%)
  69. (0.00005) RY ( 6)Cl  3            s( 12.32%)p 1.64( 20.20%)d 5.48( 67.48%)
  70. (0.00001) RY ( 7)Cl  3            s(  0.00%)p 1.00(  9.57%)d 9.45( 90.43%)
  71. (0.00001) RY ( 8)Cl  3            s(  0.00%)p 1.00(  9.57%)d 9.45( 90.43%)
  72. (0.00000) RY ( 9)Cl  3            s( 15.50%)p 3.43( 53.13%)d 2.02( 31.37%)
  73. (0.00065) RY ( 1)Cl  4            s( 72.19%)p 0.38( 27.16%)d 0.01(  0.64%)
                                         0.0000  0.0000  0.0009  0.8497  0.0000
                                        -0.0086 -0.3008  0.0000  0.0086  0.3008
                                         0.0000  0.0086  0.3008  0.0463  0.0463
                                        -0.0463  0.0000  0.0000
  74. (0.00031) RY ( 2)Cl  4            s(  0.00%)p 1.00( 60.45%)d 0.65( 39.55%)
                                         0.0000  0.0000  0.0000  0.0000  0.0000
                                         0.0009  0.0666  0.0000  0.0081  0.5800
                                         0.0000 -0.0072 -0.5134  0.2443 -0.2760
                                        -0.0317  0.2990  0.4113
  75. (0.00031) RY ( 3)Cl  4            s(  0.00%)p 1.00( 60.45%)d 0.65( 39.55%)
                                         0.0000  0.0000  0.0000  0.0000  0.0000
                                         0.0089  0.6313  0.0000  0.0036  0.2580
                                         0.0000  0.0052  0.3733 -0.1776 -0.1228
                                        -0.3004  0.4113 -0.2990
  76. (0.00006) RY ( 4)Cl  4            s(  0.00%)p 1.00( 30.07%)d 2.33( 69.93%)
  77. (0.00006) RY ( 5)Cl  4            s(  0.00%)p 1.00( 30.07%)d 2.33( 69.93%)
  78. (0.00005) RY ( 6)Cl  4            s( 12.32%)p 1.64( 20.20%)d 5.48( 67.48%)
  79. (0.00001) RY ( 7)Cl  4            s(  0.00%)p 1.00(  9.57%)d 9.45( 90.43%)
  80. (0.00001) RY ( 8)Cl  4            s(  0.00%)p 1.00(  9.57%)d 9.45( 90.43%)
  81. (0.00000) RY ( 9)Cl  4            s( 15.50%)p 3.43( 53.13%)d 2.02( 31.37%)
  82. (0.00065) RY ( 1)Cl  5            s( 72.19%)p 0.38( 27.16%)d 0.01(  0.64%)
                                         0.0000  0.0000  0.0009  0.8497  0.0000
                                         0.0086  0.3008  0.0000 -0.0086 -0.3008
                                         0.0000  0.0086  0.3008  0.0463 -0.0463
                                         0.0463  0.0000  0.0000
  83. (0.00031) RY ( 2)Cl  5            s(  0.00%)p 1.00( 60.45%)d 0.65( 39.55%)
                                         0.0000  0.0000  0.0000  0.0000  0.0000
                                         0.0023  0.1613  0.0000  0.0086  0.6123
                                         0.0000  0.0063  0.4510 -0.2146 -0.2914
                                        -0.0768 -0.3578 -0.3613
  84. (0.00031) RY ( 3)Cl  5            s(  0.00%)p 1.00( 60.45%)d 0.65( 39.55%)
                                         0.0000  0.0000  0.0000  0.0000  0.0000
                                         0.0086  0.6139  0.0000  0.0023  0.1673
                                         0.0000 -0.0063 -0.4467  0.2125 -0.0796
                                        -0.2922 -0.3613  0.3578
  85. (0.00006) RY ( 4)Cl  5            s(  0.00%)p 1.00( 30.07%)d 2.33( 69.93%)
  86. (0.00006) RY ( 5)Cl  5            s(  0.00%)p 1.00( 30.07%)d 2.33( 69.93%)
  87. (0.00005) RY ( 6)Cl  5            s( 12.32%)p 1.64( 20.20%)d 5.48( 67.48%)
  88. (0.00001) RY ( 7)Cl  5            s(  0.00%)p 1.00(  9.57%)d 9.45( 90.43%)
  89. (0.00001) RY ( 8)Cl  5            s(  0.00%)p 1.00(  9.57%)d 9.45( 90.43%)
  90. (0.00000) RY ( 9)Cl  5            s( 15.50%)p 3.43( 53.13%)d 2.02( 31.37%)


 NHO DIRECTIONALITY AND BOND BENDING (deviation from line of nuclear centers at
                                      the position of maximum hybrid amplitude)

         [Thresholds for printing:  angular deviation  >  1.0 degree]
                                    p- or d-character  > 25.0%
                                    orbital occupancy  >  0.10e

                        Line of Centers        Hybrid 1             Hybrid 2
                        ---------------  -------------------  ------------------
           NBO            Theta   Phi    Theta   Phi    Dev   Theta   Phi    Dev
 ===============================================================================
  27. LP ( 2)Cl  2          --     --     95.6  313.9   --      --     --    --
  28. LP ( 3)Cl  2          --     --     39.6  231.5   --      --     --    --
  30. LP ( 2)Cl  3          --     --     40.1   57.5   --      --     --    --
  31. LP ( 3)Cl  3          --     --     98.7  136.1   --      --     --    --
  33. LP ( 2)Cl  4          --     --     73.0   37.9   --      --     --    --
  34. LP ( 3)Cl  4          --     --     35.2  283.0   --      --     --    --
  36. LP ( 2)Cl  5          --     --    137.4  341.0   --      --     --    --
  37. LP ( 3)Cl  5          --     --    101.6  238.6   --      --     --    --


 SECOND ORDER PERTURBATION THEORY ANALYSIS OF FOCK MATRIX IN NBO BASIS

     Threshold for printing:   0.50 kcal/mol
                                                          E(2) E(NL)-E(L) F(L,NL)
      Donor (L) NBO              Acceptor (NL) NBO      kcal/mol   a.u.    a.u.
 ===============================================================================

 within unit  1
   26. LP ( 1)Cl  2            47. RY ( 2)Si  1            1.33    1.54   0.040
   26. LP ( 1)Cl  2            48. RY ( 3)Si  1            2.42    1.54   0.054
   26. LP ( 1)Cl  2            53. RY ( 8)Si  1            0.78    1.44   0.030
   27. LP ( 2)Cl  2            44. BD*( 1)Si  1-Cl  4      9.37    0.76   0.075
   27. LP ( 2)Cl  2            45. BD*( 1)Si  1-Cl  5      7.93    0.76   0.069
   27. LP ( 2)Cl  2            47. RY ( 2)Si  1            2.06    1.12   0.043
   27. LP ( 2)Cl  2            48. RY ( 3)Si  1            1.11    1.12   0.032
   27. LP ( 2)Cl  2            50. RY ( 5)Si  1            2.63    1.22   0.051
   28. LP ( 3)Cl  2            43. BD*( 1)Si  1-Cl  3     11.51    0.76   0.084
   28. LP ( 3)Cl  2            44. BD*( 1)Si  1-Cl  4      2.20    0.76   0.037
   28. LP ( 3)Cl  2            45. BD*( 1)Si  1-Cl  5      3.64    0.76   0.047
   28. LP ( 3)Cl  2            46. RY ( 1)Si  1            3.15    1.12   0.053
   28. LP ( 3)Cl  2            49. RY ( 4)Si  1            2.63    1.22   0.051
   29. LP ( 1)Cl  3            46. RY ( 1)Si  1            3.09    1.54   0.062
   29. LP ( 1)Cl  3            48. RY ( 3)Si  1            0.60    1.54   0.027
   29. LP ( 1)Cl  3            51. RY ( 6)Si  1            0.81    1.44   0.030
   30. LP ( 2)Cl  3            42. BD*( 1)Si  1-Cl  2     11.35    0.76   0.083
   30. LP ( 2)Cl  3            44. BD*( 1)Si  1-Cl  4      4.38    0.76   0.052
   30. LP ( 2)Cl  3            45. BD*( 1)Si  1-Cl  5      1.63    0.76   0.032
   30. LP ( 2)Cl  3            47. RY ( 2)Si  1            1.48    1.12   0.036
   30. LP ( 2)Cl  3            48. RY ( 3)Si  1            1.23    1.12   0.033
   30. LP ( 2)Cl  3            49. RY ( 4)Si  1            2.61    1.22   0.050
   31. LP ( 3)Cl  3            44. BD*( 1)Si  1-Cl  4      7.20    0.76   0.066
   31. LP ( 3)Cl  3            45. BD*( 1)Si  1-Cl  5      9.94    0.76   0.078
   31. LP ( 3)Cl  3            47. RY ( 2)Si  1            1.63    1.12   0.038
   31. LP ( 3)Cl  3            48. RY ( 3)Si  1            1.45    1.12   0.036
   31. LP ( 3)Cl  3            50. RY ( 5)Si  1            2.61    1.22   0.050
   32. LP ( 1)Cl  4            46. RY ( 1)Si  1            0.59    1.54   0.027
   32. LP ( 1)Cl  4            47. RY ( 2)Si  1            2.90    1.54   0.060
   32. LP ( 1)Cl  4            52. RY ( 7)Si  1            1.12    1.44   0.036
   33. LP ( 2)Cl  4            42. BD*( 1)Si  1-Cl  2     11.07    0.76   0.082
   33. LP ( 2)Cl  4            43. BD*( 1)Si  1-Cl  3      5.18    0.76   0.056
   33. LP ( 2)Cl  4            45. BD*( 1)Si  1-Cl  5      1.10    0.76   0.026
   33. LP ( 2)Cl  4            48. RY ( 3)Si  1            2.52    1.12   0.047
   33. LP ( 2)Cl  4            50. RY ( 5)Si  1            2.48    1.22   0.049
   34. LP ( 3)Cl  4            42. BD*( 1)Si  1-Cl  2      0.50    0.76   0.017
   34. LP ( 3)Cl  4            43. BD*( 1)Si  1-Cl  3      6.39    0.76   0.062
   34. LP ( 3)Cl  4            45. BD*( 1)Si  1-Cl  5     10.47    0.76   0.080
   34. LP ( 3)Cl  4            46. RY ( 1)Si  1            2.50    1.12   0.047
   34. LP ( 3)Cl  4            49. RY ( 4)Si  1            2.48    1.22   0.049
   35. LP ( 1)Cl  5            46. RY ( 1)Si  1            1.33    1.54   0.040
   35. LP ( 1)Cl  5            47. RY ( 2)Si  1            0.71    1.54   0.030
   35. LP ( 1)Cl  5            48. RY ( 3)Si  1            1.73    1.54   0.046
   35. LP ( 1)Cl  5            51. RY ( 6)Si  1            0.85    1.44   0.031
   36. LP ( 2)Cl  5            42. BD*( 1)Si  1-Cl  2      0.57    0.76   0.019
   36. LP ( 2)Cl  5            43. BD*( 1)Si  1-Cl  3      6.23    0.76   0.062
   36. LP ( 2)Cl  5            44. BD*( 1)Si  1-Cl  4     10.56    0.76   0.080
   36. LP ( 2)Cl  5            46. RY ( 1)Si  1            1.78    1.12   0.040
   36. LP ( 2)Cl  5            47. RY ( 2)Si  1            1.17    1.12   0.032
   36. LP ( 2)Cl  5            49. RY ( 4)Si  1            2.28    1.22   0.047
   37. LP ( 3)Cl  5            42. BD*( 1)Si  1-Cl  2     11.00    0.76   0.082
   37. LP ( 3)Cl  5            43. BD*( 1)Si  1-Cl  3      5.34    0.76   0.057
   37. LP ( 3)Cl  5            44. BD*( 1)Si  1-Cl  4      1.01    0.76   0.025
   37. LP ( 3)Cl  5            47. RY ( 2)Si  1            1.41    1.12   0.035
   37. LP ( 3)Cl  5            48. RY ( 3)Si  1            1.50    1.12   0.037
   37. LP ( 3)Cl  5            50. RY ( 5)Si  1            2.28    1.22   0.047
   38. BD ( 1)Si  1-Cl  2      43. BD*( 1)Si  1-Cl  3      2.99    1.12   0.052
   38. BD ( 1)Si  1-Cl  2      44. BD*( 1)Si  1-Cl  4      2.99    1.12   0.052
   38. BD ( 1)Si  1-Cl  2      45. BD*( 1)Si  1-Cl  5      2.99    1.12   0.052
   39. BD ( 1)Si  1-Cl  3      42. BD*( 1)Si  1-Cl  2      2.99    1.12   0.052
   39. BD ( 1)Si  1-Cl  3      44. BD*( 1)Si  1-Cl  4      2.99    1.12   0.052
   39. BD ( 1)Si  1-Cl  3      45. BD*( 1)Si  1-Cl  5      2.99    1.12   0.052
   39. BD ( 1)Si  1-Cl  3      46. RY ( 1)Si  1            0.60    1.47   0.027
   40. BD ( 1)Si  1-Cl  4      42. BD*( 1)Si  1-Cl  2      2.99    1.12   0.052
   40. BD ( 1)Si  1-Cl  4      43. BD*( 1)Si  1-Cl  3      2.99    1.12   0.052
   40. BD ( 1)Si  1-Cl  4      45. BD*( 1)Si  1-Cl  5      2.99    1.12   0.052
   40. BD ( 1)Si  1-Cl  4      47. RY ( 2)Si  1            0.57    1.47   0.026
   41. BD ( 1)Si  1-Cl  5      42. BD*( 1)Si  1-Cl  2      2.99    1.12   0.052
   41. BD ( 1)Si  1-Cl  5      43. BD*( 1)Si  1-Cl  3      2.99    1.12   0.052
   41. BD ( 1)Si  1-Cl  5      44. BD*( 1)Si  1-Cl  4      2.99    1.12   0.052


 NATURAL BOND ORBITALS (Summary):

                                                     Principal Delocalizations
           NBO                 Occupancy    Energy   (geminal,vicinal,remote)
 ===============================================================================
 Molecular unit  1  (SiCl4)
 ------ Lewis --------------------------------------
    1. CR ( 1)Si  1             2.00000   -59.76119
    2. CR ( 2)Si  1             2.00000   -15.47715
    3. CR ( 3)Si  1             1.99999    -4.39938
    4. CR ( 4)Si  1             1.99999    -4.39938
    5. CR ( 5)Si  1             1.99999    -4.39938
    6. CR ( 1)Cl  2             2.00000   -93.83260
    7. CR ( 2)Cl  2             1.99999   -21.60783
    8. CR ( 3)Cl  2             2.00000    -8.05788
    9. CR ( 4)Cl  2             2.00000    -8.05788
   10. CR ( 5)Cl  2             2.00000    -8.05788
   11. CR ( 1)Cl  3             2.00000   -93.83260
   12. CR ( 2)Cl  3             1.99999   -21.60783
   13. CR ( 3)Cl  3             2.00000    -8.05788
   14. CR ( 4)Cl  3             2.00000    -8.05788
   15. CR ( 5)Cl  3             2.00000    -8.05788
   16. CR ( 1)Cl  4             2.00000   -93.83260
   17. CR ( 2)Cl  4             1.99999   -21.60783
   18. CR ( 3)Cl  4             2.00000    -8.05788
   19. CR ( 4)Cl  4             2.00000    -8.05788
   20. CR ( 5)Cl  4             2.00000    -8.05788
   21. CR ( 1)Cl  5             2.00000   -93.83260
   22. CR ( 2)Cl  5             1.99999   -21.60783
   23. CR ( 3)Cl  5             2.00000    -8.05788
   24. CR ( 4)Cl  5             2.00000    -8.05788
   25. CR ( 5)Cl  5             2.00000    -8.05788
   26. LP ( 1)Cl  2             1.98669    -0.90992  48(v),47(v),53(v)
   27. LP ( 2)Cl  2             1.94338    -0.49118  44(v),45(v),50(v),47(v)
                                                     48(v)
   28. LP ( 3)Cl  2             1.94338    -0.49118  43(v),45(v),46(v),49(v)
                                                     44(v)
   29. LP ( 1)Cl  3             1.98669    -0.90992  46(v),51(v),48(v)
   30. LP ( 2)Cl  3             1.94338    -0.49118  42(v),44(v),49(v),45(v)
                                                     47(v),48(v)
   31. LP ( 3)Cl  3             1.94338    -0.49118  45(v),44(v),50(v),47(v)
                                                     48(v)
   32. LP ( 1)Cl  4             1.98669    -0.90992  47(v),52(v),46(v)
   33. LP ( 2)Cl  4             1.94338    -0.49118  42(v),43(v),48(v),50(v)
                                                     45(v)
   34. LP ( 3)Cl  4             1.94338    -0.49118  45(v),43(v),46(v),49(v)
                                                     42(v)
   35. LP ( 1)Cl  5             1.98669    -0.90992  48(v),46(v),51(v),47(v)
   36. LP ( 2)Cl  5             1.94338    -0.49118  44(v),43(v),49(v),46(v)
                                                     47(v),42(v)
   37. LP ( 3)Cl  5             1.94338    -0.49118  42(v),43(v),50(v),48(v)
                                                     47(v),44(v)
   38. BD ( 1)Si  1-Cl  2       1.98310    -0.84311  43(g),44(g),45(g)
   39. BD ( 1)Si  1-Cl  3       1.98310    -0.84311  42(g),44(g),45(g),46(g)
   40. BD ( 1)Si  1-Cl  4       1.98310    -0.84311  42(g),43(g),45(g),47(g)
   41. BD ( 1)Si  1-Cl  5       1.98310    -0.84311  42(g),43(g),44(g)
 ------ non-Lewis ----------------------------------
   42. BD*( 1)Si  1-Cl  2       0.10378     0.27239
   43. BD*( 1)Si  1-Cl  3       0.10378     0.27239
   44. BD*( 1)Si  1-Cl  4       0.10378     0.27239
   45. BD*( 1)Si  1-Cl  5       0.10378     0.27239
   46. RY ( 1)Si  1             0.03781     0.62959
   47. RY ( 2)Si  1             0.03781     0.62959
   48. RY ( 3)Si  1             0.03781     0.62959
   49. RY ( 4)Si  1             0.01322     0.73057
   50. RY ( 5)Si  1             0.01322     0.73057
   51. RY ( 6)Si  1             0.00372     0.53074
   52. RY ( 7)Si  1             0.00372     0.53074
   53. RY ( 8)Si  1             0.00372     0.53074
   54. RY ( 9)Si  1             0.00193     0.27605
   55. RY ( 1)Cl  2             0.00065     0.85921
   56. RY ( 2)Cl  2             0.00031     0.78772
   57. RY ( 3)Cl  2             0.00031     0.78772
   58. RY ( 4)Cl  2             0.00006     1.05833
   59. RY ( 5)Cl  2             0.00006     1.05833
   60. RY ( 6)Cl  2             0.00005     1.07975
   61. RY ( 7)Cl  2             0.00001     1.09697
   62. RY ( 8)Cl  2             0.00001     1.09697
   63. RY ( 9)Cl  2             0.00000     0.88750
   64. RY ( 1)Cl  3             0.00065     0.85921
   65. RY ( 2)Cl  3             0.00031     0.78772
   66. RY ( 3)Cl  3             0.00031     0.78772
   67. RY ( 4)Cl  3             0.00006     1.05833
   68. RY ( 5)Cl  3             0.00006     1.05833
   69. RY ( 6)Cl  3             0.00005     1.07975
   70. RY ( 7)Cl  3             0.00001     1.09697
   71. RY ( 8)Cl  3             0.00001     1.09697
   72. RY ( 9)Cl  3             0.00000     0.88750
   73. RY ( 1)Cl  4             0.00065     0.85921
   74. RY ( 2)Cl  4             0.00031     0.78772
   75. RY ( 3)Cl  4             0.00031     0.78772
   76. RY ( 4)Cl  4             0.00006     1.05833
   77. RY ( 5)Cl  4             0.00006     1.05833
   78. RY ( 6)Cl  4             0.00005     1.07975
   79. RY ( 7)Cl  4             0.00001     1.09697
   80. RY ( 8)Cl  4             0.00001     1.09697
   81. RY ( 9)Cl  4             0.00000     0.88750
   82. RY ( 1)Cl  5             0.00065     0.85921
   83. RY ( 2)Cl  5             0.00031     0.78772
   84. RY ( 3)Cl  5             0.00031     0.78772
   85. RY ( 4)Cl  5             0.00006     1.05833
   86. RY ( 5)Cl  5             0.00006     1.05833
   87. RY ( 6)Cl  5             0.00005     1.07975
   88. RY ( 7)Cl  5             0.00001     1.09697
   89. RY ( 8)Cl  5             0.00001     1.09697
   90. RY ( 9)Cl  5             0.00000     0.88750
          -------------------------------
                 Total Lewis   81.42611  ( 99.3001%)
           Valence non-Lewis    0.41512  (  0.5062%)
           Rydberg non-Lewis    0.15877  (  0.1936%)
          -------------------------------
               Total unit  1   82.00000  (100.0000%)
              Charge unit  1    0.00000

 $CHOOSE
   LONE 2 3 3 3 4 3 5 3 END
   BOND S 1 2 S 1 3 S 1 4 S 1 5 END
 $END

 NBO analysis completed in 1.82 CPU seconds (2 wall seconds)
 Maximum scratch memory used by NBO was 421204 words (3.21 MB)
 Maximum scratch memory used by G16NBO was 20975 words (0.16 MB)

 Opening RunExU unformatted file "/cluster/work/users/beto93/mol65/Gau-2207586.EUF"
 Read unf file /cluster/work/users/beto93/mol65/Gau-2207586.EUF:
 Label Gaussian matrix elements                                         IVers= 2 NLab= 2 Version=ES64L-G16RevC.01
 Title mol65-NBO                                                       
 NAtoms=     5 NBasis=    90 NBsUse=    90 ICharg=     0 Multip=     1 NE=    82 Len12L=8 Len4L=8 IOpCl= 0 ICGU=111
 GAUSSIAN SCALARS                    NI= 1 NR= 1 NTot=       1 LenBuf=    2 NRI=1 N=    1000
 NPA CHARGES                         NI= 0 NR= 1 NTot=       5 LenBuf= 4000 NRI=1 N=       5
 Recovered energy= -2127.03983302     dipole=     -0.000000000000     -0.000000000000     -0.000000000000
 Unable to Open any file for archive entry.
 1\1\GINC-C2-23\SP\RHF\6-31G(d)\Cl4Si1\BETO93\18-Nov-2024\0\\#RHF/6-31G
 * int=nobasistransform Symmetry=None 5D 7F Pop=NBO7Read\\mol65-NBO\\0,
 1\Si,0,0.,0.,0.\Cl,0,1.169349,1.169349,1.169349\Cl,0,-1.169349,-1.1693
 49,1.169349\Cl,0,1.169349,-1.169349,-1.169349\Cl,0,-1.169349,1.169349,
 -1.169349\\Version=ES64L-G16RevC.01\HF=-2127.039833\RMSD=1.247e-09\Dip
 ole=0.,0.,0.\Quadrupole=0.,0.,0.,0.,0.,0.\PG=Unknown\\@
 The archive entry for this job was punched.


 BE CAREFUL NOT TO BECOME TOO GOOD OF A SONGBIRD OR 
 THEY'LL THROW YOU INTO A CAGE.

                                    -- SNOOPY TO WOODSTOCK
 Job cpu time:       0 days  0 hours  0 minutes 14.1 seconds.
 Elapsed time:       0 days  0 hours  0 minutes  4.6 seconds.
 File lengths (MBytes):  RWF=     15 Int=      0 D2E=      0 Chk=      2 Scr=      1
 Normal termination of Gaussian 16 at Mon Nov 18 16:40:45 2024.
