 Entering Gaussian System, Link 0=g16
 Initial command:
 /cluster/software/Gaussian/g16_C.01/l1.exe "/cluster/work/users/beto93/mol130/Gau-1813170.inp" -scrdir="/cluster/work/users/beto93/mol130/"
 Entering Link 1 = /cluster/software/Gaussian/g16_C.01/l1.exe PID=   1813175.
  
 Copyright (c) 1988-2019, Gaussian, Inc.  All Rights Reserved.
  
 This is part of the Gaussian(R) 16 program.  It is based on
 the Gaussian(R) 09 system (copyright 2009, Gaussian, Inc.),
 the Gaussian(R) 03 system (copyright 2003, Gaussian, Inc.),
 the Gaussian(R) 98 system (copyright 1998, Gaussian, Inc.),
 the Gaussian(R) 94 system (copyright 1995, Gaussian, Inc.),
 the Gaussian 92(TM) system (copyright 1992, Gaussian, Inc.),
 the Gaussian 90(TM) system (copyright 1990, Gaussian, Inc.),
 the Gaussian 88(TM) system (copyright 1988, Gaussian, Inc.),
 the Gaussian 86(TM) system (copyright 1986, Carnegie Mellon
 University), and the Gaussian 82(TM) system (copyright 1983,
 Carnegie Mellon University). Gaussian is a federally registered
 trademark of Gaussian, Inc.
  
 This software contains proprietary and confidential information,
 including trade secrets, belonging to Gaussian, Inc.
  
 This software is provided under written license and may be
 used, copied, transmitted, or stored only in accord with that
 written license.
  
 The following legend is applicable only to US Government
 contracts under FAR:
  
                    RESTRICTED RIGHTS LEGEND
  
 Use, reproduction and disclosure by the US Government is
 subject to restrictions as set forth in subparagraphs (a)
 and (c) of the Commercial Computer Software - Restricted
 Rights clause in FAR 52.227-19.
  
 Gaussian, Inc.
 340 Quinnipiac St., Bldg. 40, Wallingford CT 06492
  
  
 ---------------------------------------------------------------
 Warning -- This program may not be used in any manner that
 competes with the business of Gaussian, Inc. or will provide
 assistance to any competitor of Gaussian, Inc.  The licensee
 of this program is prohibited from giving any competitor of
 Gaussian, Inc. access to this program.  By using this program,
 the user acknowledges that Gaussian, Inc. is engaged in the
 business of creating and licensing software in the field of
 computational chemistry and represents and warrants to the
 licensee that it is not a competitor of Gaussian, Inc. and that
 it will not use this program in any manner prohibited above.
 ---------------------------------------------------------------
  

 Cite this work as:
 Gaussian 16, Revision C.01,
 M. J. Frisch, G. W. Trucks, H. B. Schlegel, G. E. Scuseria, 
 M. A. Robb, J. R. Cheeseman, G. Scalmani, V. Barone, 
 G. A. Petersson, H. Nakatsuji, X. Li, M. Caricato, A. V. Marenich, 
 J. Bloino, B. G. Janesko, R. Gomperts, B. Mennucci, H. P. Hratchian, 
 J. V. Ortiz, A. F. Izmaylov, J. L. Sonnenberg, D. Williams-Young, 
 F. Ding, F. Lipparini, F. Egidi, J. Goings, B. Peng, A. Petrone, 
 T. Henderson, D. Ranasinghe, V. G. Zakrzewski, J. Gao, N. Rega, 
 G. Zheng, W. Liang, M. Hada, M. Ehara, K. Toyota, R. Fukuda, 
 J. Hasegawa, M. Ishida, T. Nakajima, Y. Honda, O. Kitao, H. Nakai, 
 T. Vreven, K. Throssell, J. A. Montgomery, Jr., J. E. Peralta, 
 F. Ogliaro, M. J. Bearpark, J. J. Heyd, E. N. Brothers, K. N. Kudin, 
 V. N. Staroverov, T. A. Keith, R. Kobayashi, J. Normand, 
 K. Raghavachari, A. P. Rendell, J. C. Burant, S. S. Iyengar, 
 J. Tomasi, M. Cossi, J. M. Millam, M. Klene, C. Adamo, R. Cammi, 
 J. W. Ochterski, R. L. Martin, K. Morokuma, O. Farkas, 
 J. B. Foresman, and D. J. Fox, Gaussian, Inc., Wallingford CT, 2019.
 
 ******************************************
 Gaussian 16:  ES64L-G16RevC.01  3-Jul-2019
                18-Nov-2024 
 ******************************************
 %LindaWorkers=c3-25-ib
 %NProcShared=4
 Will use up to    4 processors via shared memory.
 %mem=25GB
 %chk=mol130.chk
 SetLPE:    new flags="-opt 'Tsnet.Node.lindarsharg: ssh'  -nodelist 'c3-25-ib.saga' -env GAUSS_MDEF=3355443200 -env GAUSS_EXEDIR="/cluster/software/Gaussian/g16_C.01/bsd:/cluster/software/Gaussian/g16_C.01""
 Will use up to    1 processors via Linda.
 -----------------------------------------------------------------
 #RHF/STO-3G int=nobasistransform Symmetry=None 5D 7F Pop=NBO7Read
 -----------------------------------------------------------------
 1/38=1,163=2,172=1/1;
 2/12=2,15=3,17=6,18=5,40=1/2;
 3/6=3,8=11,11=1,25=1,30=1,60=-1,116=1/1,2,3;
 4//1;
 5/5=2,38=5/2;
 6/7=2,8=2,9=2,10=2,28=1,40=2,113=1,114=1,124=2103/1,12;
 99/5=1,9=1/99;
 ----------
 mol130-NBO
 ----------
 Symbolic Z-matrix:
 Charge =  0 Multiplicity = 1
 N                     0.        0.        0.39585 
 C                     0.        1.37802  -0.06518 
 C                     1.1934   -0.68901  -0.06518 
 C                    -1.1934   -0.68901  -0.06518 
 H                     0.        1.46114  -1.1679 
 H                     0.88616   1.89105   0.31766 
 H                    -0.88616   1.89105   0.31766 
 H                     1.26539  -0.73057  -1.1679 
 H                     1.19462  -1.71296   0.31766 
 H                     2.08078  -0.17809   0.31766 
 H                    -1.26539  -0.73057  -1.1679 
 H                    -2.08078  -0.17809   0.31766 
 H                    -1.19462  -1.71296   0.31766 
 
                          Input orientation:                          
 ---------------------------------------------------------------------
 Center     Atomic      Atomic             Coordinates (Angstroms)
 Number     Number       Type             X           Y           Z
 ---------------------------------------------------------------------
      1          7           0        0.000000    0.000000    0.395846
      2          6           0        0.000000    1.378021   -0.065175
      3          6           0        1.193401   -0.689011   -0.065175
      4          6           0       -1.193401   -0.689011   -0.065175
      5          1           0        0.000000    1.461142   -1.167899
      6          1           0        0.886156    1.891052    0.317655
      7          1           0       -0.886156    1.891052    0.317655
      8          1           0        1.265386   -0.730571   -1.167899
      9          1           0        1.194621   -1.712960    0.317655
     10          1           0        2.080777   -0.178092    0.317655
     11          1           0       -1.265386   -0.730571   -1.167899
     12          1           0       -2.080777   -0.178092    0.317655
     13          1           0       -1.194621   -1.712960    0.317655
 ---------------------------------------------------------------------
                    Distance matrix (angstroms):
                    1          2          3          4          5
     1  N    0.000000
     2  C    1.453094   0.000000
     3  C    1.453094   2.386803   0.000000
     4  C    1.453094   2.386803   2.386802   0.000000
     5  H    2.140148   1.105852   2.695063   2.695063   0.000000
     6  H    2.089848   1.093175   2.626344   3.335842   1.782404
     7  H    2.089848   1.093175   3.335842   2.626344   1.782404
     8  H    2.140148   2.695063   1.105852   2.695062   2.530772
     9  H    2.089848   3.335842   1.093175   2.626343   3.702555
    10  H    2.089848   2.626343   1.093176   3.335842   3.037037
    11  H    2.140148   2.695063   2.695062   1.105852   2.530772
    12  H    2.089848   2.626343   3.335842   1.093176   3.037037
    13  H    2.089848   3.335842   2.626343   1.093175   3.702555
                    6          7          8          9         10
     6  H    0.000000
     7  H    1.772312   0.000000
     8  H    3.037037   3.702555   0.000000
     9  H    3.617189   4.161554   1.782405   0.000000
    10  H    2.389242   3.617188   1.782405   1.772313   0.000000
    11  H    3.702555   3.037037   2.530772   3.037037   3.702555
    12  H    3.617188   2.389242   3.702555   3.617188   4.161554
    13  H    4.161554   3.617189   3.037037   2.389242   3.617188
                   11         12         13
    11  H    0.000000
    12  H    1.782405   0.000000
    13  H    1.782405   1.772313   0.000000
 Symmetry turned off by external request.
 Stoichiometry    C3H9N
 Rotational constants (GHZ):           8.7688414           8.7688366           4.9943717
 Standard basis: STO-3G (5D, 7F)
    29 basis functions,    87 primitive gaussians,    29 cartesian basis functions
    17 alpha electrons       17 beta electrons
       nuclear repulsion energy       138.8620079124 Hartrees.
 NAtoms=   13 NActive=   13 NUniq=   13 SFac= 1.00D+00 NAtFMM=   60 NAOKFM=F Big=F
 Integral buffers will be    131072 words long.
 Raffenetti 1 integral format.
 Two-electron integral symmetry is turned off.
 One-electron integrals computed using PRISM.
 NBasis=    29 RedAO= T EigKep=  2.18D-01  NBF=    29
 NBsUse=    29 1.00D-06 EigRej= -1.00D+00 NBFU=    29
 ExpMin= 1.69D-01 ExpMax= 9.91D+01 ExpMxC= 9.91D+01 IAcc=3 IRadAn=         5 AccDes= 0.00D+00
 Harris functional with IExCor=  205 and IRadAn=       5 diagonalized for initial guess.
 HarFok:  IExCor=  205 AccDes= 0.00D+00 IRadAn=         5 IDoV= 1 UseB2=F ITyADJ=14
 ICtDFT=  3500011 ScaDFX=  1.000000  1.000000  1.000000  1.000000
 FoFCou: FMM=F IPFlag=           0 FMFlag=      100000 FMFlg1=           0
         NFxFlg=           0 DoJE=T BraDBF=F KetDBF=T FulRan=T
         wScrn=  0.000000 ICntrl=       500 IOpCl=  0 I1Cent=   200000004 NGrid=           0
         NMat0=    1 NMatS0=      1 NMatT0=    0 NMatD0=    1 NMtDS0=    0 NMtDT0=    0
 Symmetry not used in FoFCou.
 Keep R1 ints in memory in canonical form, NReq=916596.
 Requested convergence on RMS density matrix=1.00D-08 within 128 cycles.
 Requested convergence on MAX density matrix=1.00D-06.
 Requested convergence on             energy=1.00D-06.
 No special actions if energy rises.
 SCF Done:  E(RHF) =  -171.189014502     A.U. after    9 cycles
            NFock=  9  Conv=0.64D-08     -V/T= 2.0093

 **********************************************************************

            Population analysis using the SCF Density.

 **********************************************************************

 Alpha  occ. eigenvalues --  -15.32483 -11.06597 -11.06597 -11.06571  -1.17678
 Alpha  occ. eigenvalues --   -0.90882  -0.90882  -0.76874  -0.60740  -0.59050
 Alpha  occ. eigenvalues --   -0.59050  -0.51360  -0.51360  -0.48650  -0.45254
 Alpha  occ. eigenvalues --   -0.45254  -0.28900
 Alpha virt. eigenvalues --    0.60727   0.62550   0.62550   0.68717   0.68717
 Alpha virt. eigenvalues --    0.69938   0.71781   0.74892   0.74892   0.74981
 Alpha virt. eigenvalues --    0.80935   0.80935
          Condensed to atoms (all electrons):
               1          2          3          4          5          6
     1  N    6.452426   0.334170   0.334170   0.334170  -0.020140  -0.021106
     2  C    0.334170   4.693901  -0.039162  -0.039162   0.375611   0.383101
     3  C    0.334170  -0.039162   4.693901  -0.039162  -0.003046  -0.003132
     4  C    0.334170  -0.039162  -0.039162   4.693901  -0.003046   0.001998
     5  H   -0.020140   0.375611  -0.003046  -0.003046   0.651327  -0.023907
     6  H   -0.021106   0.383101  -0.003132   0.001998  -0.023907   0.618889
     7  H   -0.021106   0.383101   0.001998  -0.003132  -0.023907  -0.019975
     8  H   -0.020140  -0.003046   0.375611  -0.003046   0.001634  -0.000260
     9  H   -0.021106   0.001998   0.383101  -0.003132  -0.000027   0.000063
    10  H   -0.021106  -0.003132   0.383101   0.001998  -0.000260   0.000306
    11  H   -0.020140  -0.003046  -0.003046   0.375611   0.001634  -0.000027
    12  H   -0.021106  -0.003132   0.001998   0.383101  -0.000260   0.000063
    13  H   -0.021106   0.001998  -0.003132   0.383101  -0.000027  -0.000055
               7          8          9         10         11         12
     1  N   -0.021106  -0.020140  -0.021106  -0.021106  -0.020140  -0.021106
     2  C    0.383101  -0.003046   0.001998  -0.003132  -0.003046  -0.003132
     3  C    0.001998   0.375611   0.383101   0.383101  -0.003046   0.001998
     4  C   -0.003132  -0.003046  -0.003132   0.001998   0.375611   0.383101
     5  H   -0.023907   0.001634  -0.000027  -0.000260   0.001634  -0.000260
     6  H   -0.019975  -0.000260   0.000063   0.000306  -0.000027   0.000063
     7  H    0.618889  -0.000027  -0.000055   0.000063  -0.000260   0.000306
     8  H   -0.000027   0.651327  -0.023907  -0.023907   0.001634  -0.000027
     9  H   -0.000055  -0.023907   0.618888  -0.019975  -0.000260   0.000063
    10  H    0.000063  -0.023907  -0.019975   0.618889  -0.000027  -0.000055
    11  H   -0.000260   0.001634  -0.000260  -0.000027   0.651327  -0.023907
    12  H    0.000306  -0.000027   0.000063  -0.000055  -0.023907   0.618889
    13  H    0.000063  -0.000260   0.000306   0.000063  -0.023907  -0.019975
              13
     1  N   -0.021106
     2  C    0.001998
     3  C   -0.003132
     4  C    0.383101
     5  H   -0.000027
     6  H   -0.000055
     7  H    0.000063
     8  H   -0.000260
     9  H    0.000306
    10  H    0.000063
    11  H   -0.023907
    12  H   -0.019975
    13  H    0.618888
 Mulliken charges:
               1
     1  N   -0.267881
     2  C   -0.083202
     3  C   -0.083202
     4  C   -0.083202
     5  H    0.044412
     6  H    0.064042
     7  H    0.064042
     8  H    0.044412
     9  H    0.064042
    10  H    0.064042
    11  H    0.044412
    12  H    0.064042
    13  H    0.064042
 Sum of Mulliken charges =   0.00000
 Mulliken charges with hydrogens summed into heavy atoms:
               1
     1  N   -0.267881
     2  C    0.089294
     3  C    0.089293
     4  C    0.089293
 Electronic spatial extent (au):  <R**2>=            316.7558
 Charge=              0.0000 electrons
 Dipole moment (field-independent basis, Debye):
    X=             -0.0000    Y=              0.0000    Z=             -1.0519  Tot=              1.0519
 Quadrupole moment (field-independent basis, Debye-Ang):
   XX=            -24.9255   YY=            -24.9255   ZZ=            -27.3656
   XY=             -0.0000   XZ=              0.0000   YZ=             -0.0000
 Traceless Quadrupole moment (field-independent basis, Debye-Ang):
   XX=              0.8134   YY=              0.8134   ZZ=             -1.6267
   XY=             -0.0000   XZ=              0.0000   YZ=             -0.0000
 Octapole moment (field-independent basis, Debye-Ang**2):
  XXX=             -0.0000  YYY=             -1.1030  ZZZ=             -1.7548  XYY=              0.0000
  XXY=              1.1030  XXZ=              1.5673  XZZ=             -0.0000  YZZ=              0.0000
  YYZ=              1.5673  XYZ=             -0.0000
 Hexadecapole moment (field-independent basis, Debye-Ang**3):
 XXXX=           -174.3646 YYYY=           -174.3646 ZZZZ=            -46.9482 XXXY=             -0.0000
 XXXZ=              0.0000 YYYX=             -0.0000 YYYZ=             -0.8124 ZZZX=              0.0000
 ZZZY=             -0.0000 XXYY=            -58.1215 XXZZ=            -37.6139 YYZZ=            -37.6139
 XXYZ=              0.8124 YYXZ=              0.0000 ZZXY=             -0.0000
 N-N= 1.388620079124D+02 E-N=-6.761424702982D+02  KE= 1.696041089973D+02
 Running external command "gaunbo7 R"
         input file       "/cluster/work/users/beto93/mol130/Gau-1813175.EIn"
         output file      "/cluster/work/users/beto93/mol130/Gau-1813175.EOu"
         message file     "/cluster/work/users/beto93/mol130/Gau-1813175.EMs"
         fchk file        "/cluster/work/users/beto93/mol130/Gau-1813175.EFC"
         mat. el file     "/cluster/work/users/beto93/mol130/Gau-1813175.EUF"

 Writing WrtUnf unformatted file "/cluster/work/users/beto93/mol130/Gau-1813175.EUF"
 Gaussian matrix elements                                         Version   2 NLab=11 Len12L=8 Len4L=8
 Write SHELL TO ATOM MAP                   from file      0 offset           0 length                  17 to matrix element file.
 Write SHELL TYPES                         from file      0 offset           0 length                  17 to matrix element file.
 Write NUMBER OF PRIMITIVES PER SHELL      from file      0 offset           0 length                  17 to matrix element file.
 Write PRIMITIVE EXPONENTS                 from file      0 offset           0 length                  51 to matrix element file.
 Write CONTRACTION COEFFICIENTS            from file      0 offset           0 length                  51 to matrix element file.
 Write P(S=P) CONTRACTION COEFFICIENTS     from file      0 offset           0 length                  51 to matrix element file.
 Write COORDINATES OF EACH SHELL           from file      0 offset           0 length                  51 to matrix element file.
 Write BONDS PER ATOM                      from file      0 offset           0 length                  13 to matrix element file.
 Write BONDED ATOMS                        from file      0 offset           0 length                  24 to matrix element file.
 Write BOND TYPES                          from file      0 offset           0 length                  24 to matrix element file.
 Write ONIOM CHARGE/MULT                   from file      0 offset           0 length                  32 to matrix element file.
 Write ONIOM ATOM LAYERS                   from file      0 offset           0 length                  13 to matrix element file.
 Write ONIOM ATOM MODIFIERS                from file      0 offset           0 length                  13 to matrix element file.
 Write ONIOM ATOM TYPES                    from file      0 offset           0 length                  13 to matrix element file.
 Write ONIOM LINK ATOMS                    from file      0 offset           0 length                  13 to matrix element file.
 Write ONIOM LINK CHARGES                  from file      0 offset           0 length                  13 to matrix element file.
 Write ONIOM LINK DISTANCES                from file      0 offset           0 length                  52 to matrix element file.
 Write SYMINF INTS                         from file      0 offset           0 length                  26 to matrix element file.
 Write ROTTR TO SO                         from file      0 offset           0 length                  12 to matrix element file.
 Write GAUSSIAN SCALARS                    from file    501 offset           0 to matrix element file.
 Write OPTIMIZATION FLAGS                  from file      0 offset           0 length                  13 to matrix element file.
 Write INTEGER ISO                         from file      0 offset           0 length                  13 to matrix element file.
 Write INTEGER SPIN                        from file      0 offset           0 length                  13 to matrix element file.
 Write REAL ZEFFECTIVE                     from file      0 offset           0 length                  13 to matrix element file.
 Write REAL QUADRUPOLEMOMENT               from file      0 offset           0 length                  13 to matrix element file.
 Write REAL GFACTOR                        from file      0 offset           0 length                  13 to matrix element file.
 Write REAL ZNUCLEAR                       from file      0 offset           0 length                  13 to matrix element file.
 Write MULLIKEN CHARGES                    from file      0 offset           0 length                  13 to matrix element file.
 Write NUCLEAR GRADIENT                    from file  10584 offset           0 length                  39 to matrix element file.
 Array NUCLEAR FORCE CONSTANTS              on  file  10585 does not exist.
 Write ELECTRIC DIPOLE MOMENT              from file      0 offset           0 length                   3 to matrix element file.
 Write NON-ADIABATIC COUPLING              from file  10810 offset           0 length                  39 to matrix element file.
 Write FINITE EM FIELD                     from file  10521 offset           0 length                  35 to matrix element file.
 Write OVERLAP                             from file  10514 offset           0 length                 435 to matrix element file.
 Write CORE HAMILTONIAN ALPHA              from file  10515 offset           0 length                 435 to matrix element file.
 Write CORE HAMILTONIAN BETA               from file  10515 offset         435 length                 435 to matrix element file.
 Write KINETIC ENERGY                      from file  10516 offset           0 length                 435 to matrix element file.
 Write ORTHOGONAL BASIS                    from file  10685 offset           0 length                 841 to matrix element file.
 Write DIPOLE INTEGRALS                    from file  10518 offset           0 length                1305 to matrix element file.
 Array DIP VEL INTEGRALS                    on  file  10572 does not exist.
 Array R X DEL INTEGRALS                    on  file  10572 does not exist.
 Write ALPHA ORBITAL ENERGIES              from file      0 offset           0 length                  29 to matrix element file.
 Write ALPHA MO COEFFICIENTS               from file  10524 offset           0 length                 841 to matrix element file.
 Write ALPHA DENSITY MATRIX                from file      0 offset           0 length                 435 to matrix element file.
 Write ALPHA FOCK MATRIX                   from file  10536 offset           0 length                 435 to matrix element file.
 Write ENERGY-WEIGHTED DENSITY             from file  10571 offset           0 length                 435 to matrix element file.
 Write ALPHA SCF DENSITY MATRIX            from file      0 offset           0 length                 435 to matrix element file.
 No 2e integrals to process.
 Perform NBO analysis...executing G16NBO...

 *********************************** NBO 7.0 ***********************************
             N A T U R A L   A T O M I C   O R B I T A L   A N D
          N A T U R A L   B O N D   O R B I T A L   A N A L Y S I S
 **************************** Espen Tangen (S101595) ***************************
  (c) Copyright 1996-2021 Board of Regents of the University of Wisconsin System
      on behalf of the Theoretical Chemistry Institute.  All rights reserved.

          Cite this program [NBO 7.0.10 (8-Feb-2021)] as:

          NBO 7.0.  E. D. Glendening, J. K. Badenhoop, A. E. Reed,
          J. E. Carpenter, J. A. Bohmann, C. M. Morales, P. Karafiloglou,
          C. R. Landis, and F. Weinhold, Theoretical Chemistry Institute,
          University of Wisconsin, Madison, WI (2018)

       /NPA    / : Natural Population Analysis
       /AOPNAO / : Print the AO to PNAO transformation
       /AONAO  / : Print the AO to NAO transformation
       /AOMO   / : Print the MOs in the AO basis
       /BOAO   / : Print the AO bond-order matrix
       /DMAO   / : Print the AO density matrix
       /DMPNAO / : Print the PNAO density matrix
       /DMNAO  / : Print the NAO density matrix
       /DMMO   / : Print the MO density matrix
       /SAO    / : Print the AO overlap matrix
       /SPNAO  / : Print the PNAO overlap matrix
       /DETAIL / : Write details of NBO search
       /ARCHIVE/ : Write the archive file to lfn47
       /AOINFO / : Write AO information to lfn31
       /FILE   / : Set to mol130.gen*

 Filename set to mol130.gen1

 Job title: mol130-NBO


 MOs in the AO basis:

           AO          1       2       3       4       5       6       7       8
      ------------ ------- ------- ------- ------- ------- ------- ------- -------
   1.  N 1 (s)      0.9934  0.0000  0.0000  0.0008 -0.1869  0.0000  0.0000 -0.1238
   2.  N 1 (s)      0.0313  0.0000  0.0000 -0.0089  0.6071  0.0000  0.0000  0.4888
   3.  N 1 (px)     0.0000  0.0000 -0.0043  0.0000  0.0000  0.0000  0.2078  0.0000
   4.  N 1 (py)     0.0000 -0.0043  0.0000  0.0000  0.0000  0.2078  0.0000  0.0000
   5.  N 1 (pz)    -0.0043  0.0000  0.0000  0.0017 -0.1031  0.0000  0.0000  0.0023
   6.  C 2 (s)      0.0005  0.8100  0.0000  0.5728 -0.0863 -0.1824  0.0000  0.0830
   7.  C 2 (s)     -0.0054  0.0305  0.0000  0.0210  0.2153  0.5304  0.0000 -0.2563
   8.  C 2 (px)     0.0000  0.0000 -0.0006  0.0000  0.0000  0.0000  0.0452  0.0000
   9.  C 2 (py)     0.0042 -0.0001  0.0000  0.0006 -0.0777  0.0119  0.0000 -0.1769
  10.  C 2 (pz)    -0.0013  0.0000  0.0000  0.0002  0.0174  0.0035  0.0000  0.0724
  11.  C 3 (s)      0.0005 -0.4049  0.7014  0.5729 -0.0863  0.0912 -0.1579  0.0830
  12.  C 3 (s)     -0.0054 -0.0152  0.0264  0.0210  0.2153 -0.2652  0.4594 -0.2563
  13.  C 3 (px)     0.0037 -0.0002 -0.0002  0.0005 -0.0673  0.0144  0.0202 -0.1532
  14.  C 3 (py)    -0.0021 -0.0005 -0.0002 -0.0003  0.0389  0.0369  0.0144  0.0884
  15.  C 3 (pz)    -0.0013  0.0000  0.0000  0.0002  0.0174 -0.0018  0.0030  0.0724
  16.  C 4 (s)      0.0005 -0.4049 -0.7014  0.5729 -0.0863  0.0912  0.1579  0.0830
  17.  C 4 (s)     -0.0054 -0.0152 -0.0264  0.0210  0.2153 -0.2652 -0.4594 -0.2563
  18.  C 4 (px)    -0.0037  0.0002 -0.0002 -0.0005  0.0673 -0.0144  0.0202  0.1532
  19.  C 4 (py)    -0.0021 -0.0005  0.0002 -0.0003  0.0389  0.0369 -0.0144  0.0884
  20.  C 4 (pz)    -0.0013  0.0000  0.0000  0.0002  0.0174 -0.0018 -0.0030  0.0724
  21.  H 5 (s)      0.0003 -0.0056  0.0000 -0.0039  0.0369  0.1435  0.0000 -0.1412
  22.  H 6 (s)      0.0002 -0.0056  0.0001 -0.0041  0.0350  0.1523  0.0196 -0.1254
  23.  H 7 (s)      0.0002 -0.0056 -0.0001 -0.0041  0.0350  0.1523 -0.0196 -0.1254
  24.  H 8 (s)      0.0003  0.0028 -0.0048 -0.0039  0.0369 -0.0717  0.1243 -0.1412
  25.  H 9 (s)      0.0002  0.0027 -0.0049 -0.0041  0.0350 -0.0931  0.1221 -0.1254
  26.  H10 (s)      0.0002  0.0029 -0.0048 -0.0041  0.0350 -0.0592  0.1417 -0.1254
  27.  H11 (s)      0.0003  0.0028  0.0048 -0.0039  0.0369 -0.0717 -0.1243 -0.1412
  28.  H12 (s)      0.0002  0.0029  0.0048 -0.0041  0.0350 -0.0592 -0.1417 -0.1254
  29.  H13 (s)      0.0002  0.0027  0.0049 -0.0041  0.0350 -0.0931 -0.1221 -0.1254

           AO          9      10      11      12      13      14      15      16
      ------------ ------- ------- ------- ------- ------- ------- ------- -------
   1.  N 1 (s)     -0.0241  0.0000  0.0000  0.0000  0.0000  0.0000  0.0000  0.0000
   2.  N 1 (s)      0.1060  0.0000  0.0000  0.0000  0.0000  0.0000  0.0000  0.0000
   3.  N 1 (px)     0.0000  0.3139  0.0000  0.1099  0.0000  0.0000  0.0000  0.4424
   4.  N 1 (py)     0.0000  0.0000  0.3139  0.0000  0.1099  0.0000  0.4424  0.0000
   5.  N 1 (pz)     0.3347  0.0000  0.0000  0.0000  0.0000  0.0000  0.0000  0.0000
   6.  C 2 (s)     -0.0054  0.0000  0.0224  0.0000 -0.0025  0.0000 -0.0297  0.0000
   7.  C 2 (s)      0.0165  0.0000 -0.0692  0.0000  0.0084  0.0000  0.1242  0.0000
   8.  C 2 (px)     0.0000  0.3677  0.0000 -0.1321  0.0000  0.3466  0.0000 -0.2491
   9.  C 2 (py)     0.1285  0.0000 -0.2337  0.0000  0.0513  0.0000 -0.4208  0.0000
  10.  C 2 (pz)     0.2689  0.0000  0.1158  0.0000  0.4584  0.0000 -0.0265  0.0000
  11.  C 3 (s)     -0.0054  0.0194 -0.0112 -0.0022  0.0013  0.0000  0.0149 -0.0257
  12.  C 3 (s)      0.0165 -0.0599  0.0346  0.0073 -0.0042  0.0000 -0.0621  0.1076
  13.  C 3 (px)     0.1113 -0.0834  0.2604  0.0055 -0.0794 -0.1733  0.0743 -0.3778
  14.  C 3 (py)    -0.0643  0.2604  0.2173 -0.0794 -0.0863 -0.3002 -0.2920  0.0743
  15.  C 3 (pz)     0.2689  0.1003 -0.0579  0.3970 -0.2292  0.0000  0.0132 -0.0229
  16.  C 4 (s)     -0.0054 -0.0194 -0.0112  0.0022  0.0013  0.0000  0.0149  0.0257
  17.  C 4 (s)      0.0165  0.0599  0.0346 -0.0073 -0.0042  0.0000 -0.0621 -0.1076
  18.  C 4 (px)    -0.1113 -0.0834 -0.2604  0.0055  0.0794 -0.1733 -0.0743 -0.3778
  19.  C 4 (py)    -0.0643 -0.2604  0.2173  0.0794 -0.0863  0.3002 -0.2920 -0.0743
  20.  C 4 (pz)     0.2689 -0.1003 -0.0579 -0.3970 -0.2292  0.0000  0.0132  0.0229
  21.  H 5 (s)     -0.2004  0.0000 -0.1340  0.0000 -0.4055  0.0000  0.0492  0.0000
  22.  H 6 (s)      0.1274  0.2377 -0.0760 -0.0934  0.1658  0.2591 -0.1687 -0.2261
  23.  H 7 (s)      0.1274 -0.2377 -0.0760  0.0934  0.1658 -0.2591 -0.1687  0.2261
  24.  H 8 (s)     -0.2004 -0.1161  0.0670 -0.3512  0.2028  0.0000 -0.0246  0.0426
  25.  H 9 (s)      0.1274 -0.1847 -0.1679  0.1903 -0.0020  0.2591  0.2802 -0.0330
  26.  H10 (s)      0.1274  0.0530  0.2439  0.0969 -0.1637 -0.2591 -0.1115 -0.2592
  27.  H11 (s)     -0.2004  0.1161  0.0670  0.3512  0.2028  0.0000 -0.0246 -0.0426
  28.  H12 (s)      0.1274 -0.0530  0.2439 -0.0969 -0.1637  0.2591 -0.1115  0.2592
  29.  H13 (s)      0.1274  0.1847 -0.1679 -0.1903 -0.0020 -0.2591  0.2802  0.0330

           AO         17      18      19      20      21      22      23      24
      ------------ ------- ------- ------- ------- ------- ------- ------- -------
   1.  N 1 (s)     -0.0679 -0.1666  0.0000  0.0000  0.0000  0.0000  0.0348  0.0844
   2.  N 1 (s)      0.3494  1.0624  0.0000  0.0000  0.0000  0.0000 -0.2111 -0.5323
   3.  N 1 (px)     0.0000  0.0000  0.5419  0.0000  0.0000  0.2548  0.0000  0.0000
   4.  N 1 (py)     0.0000  0.0000  0.0000  0.5419  0.2548  0.0000  0.0000  0.0000
   5.  N 1 (pz)     0.8367 -0.3459  0.0000  0.0000  0.0000  0.0000 -0.0976  0.4673
   6.  C 2 (s)      0.0160  0.0218  0.0000  0.0550  0.0454  0.0000 -0.1067 -0.1002
   7.  C 2 (s)     -0.0624 -0.0978  0.0000 -0.2900 -0.2707  0.0000  0.6635  0.6234
   8.  C 2 (px)     0.0000  0.0000  0.6482  0.0000  0.0000 -0.3066  0.0000  0.0000
   9.  C 2 (py)     0.0741  0.5562  0.0000  0.5465  0.3329  0.0000  0.2788 -0.2085
  10.  C 2 (pz)    -0.1197 -0.3522  0.0000 -0.0257  0.7242  0.0000  0.3488 -0.4179
  11.  C 3 (s)      0.0160  0.0218  0.0476 -0.0275 -0.0227  0.0393 -0.1067 -0.1002
  12.  C 3 (s)     -0.0624 -0.0978 -0.2512  0.1450  0.1353 -0.2344  0.6635  0.6234
  13.  C 3 (px)     0.0642  0.4817  0.5720  0.0440 -0.2769  0.1730  0.2415 -0.1806
  14.  C 3 (py)    -0.0371 -0.2781  0.0440  0.6228 -0.1467 -0.2769 -0.1394  0.1042
  15.  C 3 (pz)    -0.1197 -0.3522 -0.0223  0.0129 -0.3621  0.6272  0.3488 -0.4179
  16.  C 4 (s)      0.0160  0.0218 -0.0476 -0.0275 -0.0227 -0.0393 -0.1067 -0.1002
  17.  C 4 (s)     -0.0624 -0.0978  0.2512  0.1450  0.1353  0.2344  0.6635  0.6234
  18.  C 4 (px)    -0.0642 -0.4817  0.5720 -0.0440  0.2769  0.1730 -0.2415  0.1806
  19.  C 4 (py)    -0.0371 -0.2781 -0.0440  0.6228 -0.1467  0.2769 -0.1394  0.1042
  20.  C 4 (pz)    -0.1197 -0.3522  0.0223  0.0129 -0.3621 -0.6272  0.3488 -0.4179
  21.  H 5 (s)      0.2424 -0.2820  0.0000  0.0904  0.8198  0.0000  0.0357 -0.6105
  22.  H 6 (s)     -0.0862 -0.0346 -0.5437 -0.0858 -0.2864  0.2464 -0.5019 -0.0608
  23.  H 7 (s)     -0.0862 -0.0346  0.5437 -0.0858 -0.2864 -0.2464 -0.5019 -0.0608
  24.  H 8 (s)      0.2424 -0.2820  0.0783 -0.0452 -0.4099  0.7100  0.0357 -0.6105
  25.  H 9 (s)     -0.0862 -0.0346  0.1975  0.5137 -0.0702 -0.3712 -0.5019 -0.0608
  26.  H10 (s)     -0.0862 -0.0346 -0.3461 -0.4279  0.3566 -0.1249 -0.5019 -0.0608
  27.  H11 (s)      0.2424 -0.2820 -0.0783 -0.0452 -0.4099 -0.7100  0.0357 -0.6105
  28.  H12 (s)     -0.0862 -0.0346  0.3461 -0.4279  0.3566  0.1249 -0.5019 -0.0608
  29.  H13 (s)     -0.0862 -0.0346 -0.1975  0.5137 -0.0702  0.3712 -0.5019 -0.0608

           AO         25      26      27      28      29
      ------------ ------- ------- ------- ------- -------
   1.  N 1 (s)      0.0000  0.0000  0.0000  0.0000  0.0000
   2.  N 1 (s)      0.0000  0.0000  0.0000  0.0000  0.0000
   3.  N 1 (px)     0.2034  0.0000  0.0000  0.8623  0.0000
   4.  N 1 (py)     0.0000  0.2034  0.0000  0.0000  0.8623
   5.  N 1 (pz)     0.0000  0.0000  0.0000  0.0000  0.0000
   6.  C 2 (s)      0.0000 -0.1434  0.0000  0.0000  0.1235
   7.  C 2 (s)      0.0000  0.9292  0.0000  0.0000 -0.7708
   8.  C 2 (px)    -0.2380  0.0000  0.6595 -0.4730  0.0000
   9.  C 2 (py)     0.0000  0.5657  0.0000  0.0000  0.2387
  10.  C 2 (pz)     0.0000 -0.1986  0.0000  0.0000 -0.5021
  11.  C 3 (s)     -0.1242  0.0717  0.0000  0.1070 -0.0618
  12.  C 3 (s)      0.8047 -0.4646  0.0001 -0.6675  0.3854
  13.  C 3 (px)     0.3648 -0.3480 -0.3297  0.0608 -0.3082
  14.  C 3 (py)    -0.3479 -0.0370 -0.5713 -0.3082 -0.2951
  15.  C 3 (pz)    -0.1720  0.0993  0.0000 -0.4348  0.2511
  16.  C 4 (s)      0.1242  0.0717  0.0000 -0.1070 -0.0618
  17.  C 4 (s)     -0.8047 -0.4646 -0.0001  0.6675  0.3854
  18.  C 4 (px)     0.3648  0.3480 -0.3297  0.0608  0.3082
  19.  C 4 (py)     0.3479 -0.0370  0.5713  0.3082 -0.2951
  20.  C 4 (pz)     0.1720  0.0993  0.0000  0.4348  0.2511
  21.  H 5 (s)      0.0000 -0.5927  0.0000  0.0000 -0.1070
  22.  H 6 (s)      0.2032 -0.5683 -0.5032  0.2977  0.3773
  23.  H 7 (s)     -0.2032 -0.5683  0.5032 -0.2977  0.3773
  24.  H 8 (s)     -0.5133  0.2963 -0.0001 -0.0927  0.0535
  25.  H 9 (s)     -0.5936  0.1082 -0.5034  0.1779 -0.4465
  26.  H10 (s)     -0.3907  0.4601  0.5032  0.4757  0.0692
  27.  H11 (s)      0.5133  0.2963  0.0001  0.0927  0.0535
  28.  H12 (s)      0.3907  0.4601 -0.5032 -0.4757  0.0692
  29.  H13 (s)      0.5936  0.1082  0.5034 -0.1779 -0.4465


 AO overlap matrix:

           AO          1       2       3       4       5       6       7       8
      ------------ ------- ------- ------- ------- ------- ------- ------- -------
   1.  N 1 (s)      1.0000  0.2350  0.0000  0.0000  0.0000  0.0000  0.0257  0.0000
   2.  N 1 (s)      0.2350  1.0000  0.0000  0.0000  0.0000  0.0246  0.2944  0.0000
   3.  N 1 (px)     0.0000  0.0000  1.0000  0.0000  0.0000  0.0000  0.0000  0.1609
   4.  N 1 (py)     0.0000  0.0000  0.0000  1.0000  0.0000  0.0399  0.2923  0.0000
   5.  N 1 (pz)     0.0000  0.0000  0.0000  0.0000  1.0000 -0.0133 -0.0978  0.0000
   6.  C 2 (s)      0.0000  0.0246  0.0000  0.0399 -0.0133  1.0000  0.2484  0.0000
   7.  C 2 (s)      0.0257  0.2944  0.0000  0.2923 -0.0978  0.2484  1.0000  0.0000
   8.  C 2 (px)     0.0000  0.0000  0.1609  0.0000  0.0000  0.0000  0.0000  1.0000
   9.  C 2 (py)    -0.0405 -0.3371  0.0000 -0.2627  0.1417  0.0000  0.0000  0.0000
  10.  C 2 (pz)     0.0135  0.1128  0.0000  0.1417  0.1135  0.0000  0.0000  0.0000
  11.  C 3 (s)      0.0000  0.0246  0.0345 -0.0199 -0.0133  0.0000  0.0021  0.0023
  12.  C 3 (s)      0.0257  0.2944  0.2532 -0.1462 -0.0978  0.0021  0.0652  0.0476
  13.  C 3 (px)    -0.0351 -0.2919 -0.1568  0.1834  0.1227 -0.0023 -0.0476 -0.0110
  14.  C 3 (py)     0.0202  0.1685  0.1834  0.0550 -0.0709  0.0040  0.0825  0.0666
  15.  C 3 (pz)     0.0135  0.1128  0.1227 -0.0709  0.1135  0.0000  0.0000  0.0000
  16.  C 4 (s)      0.0000  0.0246 -0.0345 -0.0199 -0.0133  0.0000  0.0021 -0.0023
  17.  C 4 (s)      0.0257  0.2944 -0.2532 -0.1462 -0.0978  0.0021  0.0652 -0.0476
  18.  C 4 (px)     0.0351  0.2919 -0.1568 -0.1834 -0.1227  0.0023  0.0476 -0.0110
  19.  C 4 (py)     0.0202  0.1685 -0.1834  0.0550 -0.0709  0.0040  0.0825 -0.0666
  20.  C 4 (pz)     0.0135  0.1128 -0.1227 -0.0709  0.1135  0.0000  0.0000  0.0000
  21.  H 5 (s)      0.0044  0.0770  0.0000  0.0646 -0.0692  0.0600  0.4817  0.0000
  22.  H 6 (s)      0.0050  0.0850  0.0438  0.0935 -0.0039  0.0618  0.4889  0.3779
  23.  H 7 (s)      0.0050  0.0850 -0.0438  0.0935 -0.0039  0.0618  0.4889 -0.3779
  24.  H 8 (s)      0.0044  0.0770  0.0560 -0.0323 -0.0692  0.0012  0.0336  0.0229
  25.  H 9 (s)      0.0050  0.0850  0.0590 -0.0847 -0.0039  0.0001  0.0078  0.0046
  26.  H10 (s)      0.0050  0.0850  0.1028 -0.0088 -0.0039  0.0015  0.0388  0.0441
  27.  H11 (s)      0.0044  0.0770 -0.0560 -0.0323 -0.0692  0.0012  0.0336 -0.0229
  28.  H12 (s)      0.0050  0.0850 -0.1028 -0.0088 -0.0039  0.0015  0.0388 -0.0441
  29.  H13 (s)      0.0050  0.0850 -0.0590 -0.0847 -0.0039  0.0001  0.0078 -0.0046

           AO          9      10      11      12      13      14      15      16
      ------------ ------- ------- ------- ------- ------- ------- ------- -------
   1.  N 1 (s)     -0.0405  0.0135  0.0000  0.0257 -0.0351  0.0202  0.0135  0.0000
   2.  N 1 (s)     -0.3371  0.1128  0.0246  0.2944 -0.2919  0.1685  0.1128  0.0246
   3.  N 1 (px)     0.0000  0.0000  0.0345  0.2532 -0.1568  0.1834  0.1227 -0.0345
   4.  N 1 (py)    -0.2627  0.1417 -0.0199 -0.1462  0.1834  0.0550 -0.0709 -0.0199
   5.  N 1 (pz)     0.1417  0.1135 -0.0133 -0.0978  0.1227 -0.0709  0.1135 -0.0133
   6.  C 2 (s)      0.0000  0.0000  0.0000  0.0021 -0.0023  0.0040  0.0000  0.0000
   7.  C 2 (s)      0.0000  0.0000  0.0021  0.0652 -0.0476  0.0825  0.0000  0.0021
   8.  C 2 (px)     0.0000  0.0000  0.0023  0.0476 -0.0110  0.0666  0.0000 -0.0023
   9.  C 2 (py)     1.0000  0.0000 -0.0040 -0.0825  0.0666 -0.0879  0.0000 -0.0040
  10.  C 2 (pz)     0.0000  1.0000  0.0000  0.0000  0.0000  0.0000  0.0275  0.0000
  11.  C 3 (s)     -0.0040  0.0000  1.0000  0.2484  0.0000  0.0000  0.0000  0.0000
  12.  C 3 (s)     -0.0825  0.0000  0.2484  1.0000  0.0000  0.0000  0.0000  0.0021
  13.  C 3 (px)     0.0666  0.0000  0.0000  0.0000  1.0000  0.0000  0.0000 -0.0047
  14.  C 3 (py)    -0.0879  0.0000  0.0000  0.0000  0.0000  1.0000  0.0000  0.0000
  15.  C 3 (pz)     0.0000  0.0275  0.0000  0.0000  0.0000  0.0000  1.0000  0.0000
  16.  C 4 (s)     -0.0040  0.0000  0.0000  0.0021 -0.0047  0.0000  0.0000  1.0000
  17.  C 4 (s)     -0.0825  0.0000  0.0021  0.0652 -0.0952  0.0000  0.0000  0.2484
  18.  C 4 (px)    -0.0666  0.0000  0.0047  0.0952 -0.1264  0.0000  0.0000  0.0000
  19.  C 4 (py)    -0.0879  0.0000  0.0000  0.0000  0.0000  0.0275  0.0000  0.0000
  20.  C 4 (pz)     0.0000  0.0275  0.0000  0.0000  0.0000  0.0000  0.0275  0.0000
  21.  H 5 (s)      0.0347 -0.4605  0.0012  0.0336 -0.0216  0.0390 -0.0200  0.0012
  22.  H 6 (s)      0.2188  0.1633  0.0015  0.0388 -0.0065  0.0547  0.0081  0.0001
  23.  H 7 (s)      0.2188  0.1633  0.0001  0.0078 -0.0080  0.0099  0.0015  0.0015
  24.  H 8 (s)     -0.0382 -0.0200  0.0600  0.4817  0.0301 -0.0174 -0.4605  0.0012
  25.  H 9 (s)     -0.0118  0.0015  0.0618  0.4889  0.0005 -0.4367  0.1633  0.0015
  26.  H10 (s)     -0.0330  0.0081  0.0618  0.4889  0.3784  0.2179  0.1633  0.0001
  27.  H11 (s)     -0.0382 -0.0200  0.0012  0.0336 -0.0446 -0.0008 -0.0200  0.0600
  28.  H12 (s)     -0.0330  0.0081  0.0001  0.0078 -0.0125  0.0020  0.0015  0.0618
  29.  H13 (s)     -0.0118  0.0015  0.0015  0.0388 -0.0506 -0.0217  0.0081  0.0618

           AO         17      18      19      20      21      22      23      24
      ------------ ------- ------- ------- ------- ------- ------- ------- -------
   1.  N 1 (s)      0.0257  0.0351  0.0202  0.0135  0.0044  0.0050  0.0050  0.0044
   2.  N 1 (s)      0.2944  0.2919  0.1685  0.1128  0.0770  0.0850  0.0850  0.0770
   3.  N 1 (px)    -0.2532 -0.1568 -0.1834 -0.1227  0.0000  0.0438 -0.0438  0.0560
   4.  N 1 (py)    -0.1462 -0.1834  0.0550 -0.0709  0.0646  0.0935  0.0935 -0.0323
   5.  N 1 (pz)    -0.0978 -0.1227 -0.0709  0.1135 -0.0692 -0.0039 -0.0039 -0.0692
   6.  C 2 (s)      0.0021  0.0023  0.0040  0.0000  0.0600  0.0618  0.0618  0.0012
   7.  C 2 (s)      0.0652  0.0476  0.0825  0.0000  0.4817  0.4889  0.4889  0.0336
   8.  C 2 (px)    -0.0476 -0.0110 -0.0666  0.0000  0.0000  0.3779 -0.3779  0.0229
   9.  C 2 (py)    -0.0825 -0.0666 -0.0879  0.0000  0.0347  0.2188  0.2188 -0.0382
  10.  C 2 (pz)     0.0000  0.0000  0.0000  0.0275 -0.4605  0.1633  0.1633 -0.0200
  11.  C 3 (s)      0.0021  0.0047  0.0000  0.0000  0.0012  0.0015  0.0001  0.0600
  12.  C 3 (s)      0.0652  0.0952  0.0000  0.0000  0.0336  0.0388  0.0078  0.4817
  13.  C 3 (px)    -0.0952 -0.1264  0.0000  0.0000 -0.0216 -0.0065 -0.0080  0.0301
  14.  C 3 (py)     0.0000  0.0000  0.0275  0.0000  0.0390  0.0547  0.0099 -0.0174
  15.  C 3 (pz)     0.0000  0.0000  0.0000  0.0275 -0.0200  0.0081  0.0015 -0.4605
  16.  C 4 (s)      0.2484  0.0000  0.0000  0.0000  0.0012  0.0001  0.0015  0.0012
  17.  C 4 (s)      1.0000  0.0000  0.0000  0.0000  0.0336  0.0078  0.0388  0.0336
  18.  C 4 (px)     0.0000  1.0000  0.0000  0.0000  0.0216  0.0080  0.0065  0.0446
  19.  C 4 (py)     0.0000  0.0000  1.0000  0.0000  0.0390  0.0099  0.0547 -0.0008
  20.  C 4 (pz)     0.0000  0.0000  0.0000  1.0000 -0.0200  0.0015  0.0081 -0.0200
  21.  H 5 (s)      0.0336  0.0216  0.0390 -0.0200  1.0000  0.1686  0.1686  0.0467
  22.  H 6 (s)      0.0078  0.0080  0.0099  0.0015  0.1686  1.0000  0.1713  0.0169
  23.  H 7 (s)      0.0388  0.0065  0.0547  0.0081  0.1686  0.1713  1.0000  0.0037
  24.  H 8 (s)      0.0336  0.0446 -0.0008 -0.0200  0.0467  0.0169  0.0037  1.0000
  25.  H 9 (s)      0.0388  0.0506 -0.0217  0.0081  0.0037  0.0046  0.0012  0.1686
  26.  H10 (s)      0.0078  0.0125  0.0020  0.0015  0.0169  0.0608  0.0046  0.1686
  27.  H11 (s)      0.4817 -0.0301 -0.0174 -0.4605  0.0467  0.0037  0.0169  0.0467
  28.  H12 (s)      0.4889 -0.3784  0.2179  0.1633  0.0169  0.0046  0.0608  0.0037
  29.  H13 (s)      0.4889 -0.0005 -0.4367  0.1633  0.0037  0.0012  0.0046  0.0169

           AO         25      26      27      28      29
      ------------ ------- ------- ------- ------- -------
   1.  N 1 (s)      0.0050  0.0050  0.0044  0.0050  0.0050
   2.  N 1 (s)      0.0850  0.0850  0.0770  0.0850  0.0850
   3.  N 1 (px)     0.0590  0.1028 -0.0560 -0.1028 -0.0590
   4.  N 1 (py)    -0.0847 -0.0088 -0.0323 -0.0088 -0.0847
   5.  N 1 (pz)    -0.0039 -0.0039 -0.0692 -0.0039 -0.0039
   6.  C 2 (s)      0.0001  0.0015  0.0012  0.0015  0.0001
   7.  C 2 (s)      0.0078  0.0388  0.0336  0.0388  0.0078
   8.  C 2 (px)     0.0046  0.0441 -0.0229 -0.0441 -0.0046
   9.  C 2 (py)    -0.0118 -0.0330 -0.0382 -0.0330 -0.0118
  10.  C 2 (pz)     0.0015  0.0081 -0.0200  0.0081  0.0015
  11.  C 3 (s)      0.0618  0.0618  0.0012  0.0001  0.0015
  12.  C 3 (s)      0.4889  0.4889  0.0336  0.0078  0.0388
  13.  C 3 (px)     0.0005  0.3784 -0.0446 -0.0125 -0.0506
  14.  C 3 (py)    -0.4367  0.2179 -0.0008  0.0020 -0.0217
  15.  C 3 (pz)     0.1633  0.1633 -0.0200  0.0015  0.0081
  16.  C 4 (s)      0.0015  0.0001  0.0600  0.0618  0.0618
  17.  C 4 (s)      0.0388  0.0078  0.4817  0.4889  0.4889
  18.  C 4 (px)     0.0506  0.0125 -0.0301 -0.3784 -0.0005
  19.  C 4 (py)    -0.0217  0.0020 -0.0174  0.2179 -0.4367
  20.  C 4 (pz)     0.0081  0.0015 -0.4605  0.1633  0.1633
  21.  H 5 (s)      0.0037  0.0169  0.0467  0.0169  0.0037
  22.  H 6 (s)      0.0046  0.0608  0.0037  0.0046  0.0012
  23.  H 7 (s)      0.0012  0.0046  0.0169  0.0608  0.0046
  24.  H 8 (s)      0.1686  0.1686  0.0467  0.0037  0.0169
  25.  H 9 (s)      1.0000  0.1713  0.0169  0.0046  0.0608
  26.  H10 (s)      0.1713  1.0000  0.0037  0.0012  0.0046
  27.  H11 (s)      0.0169  0.0037  1.0000  0.1686  0.1686
  28.  H12 (s)      0.0046  0.0012  0.1686  1.0000  0.1713
  29.  H13 (s)      0.0608  0.0046  0.1686  0.1713  1.0000


 AO bond-order matrix:

           AO          1       2       3       4       5       6       7       8
      ------------ ------- ------- ------- ------- ------- ------- ------- -------
   1.  N 1 (s)      2.0844 -0.3384  0.0000  0.0000 -0.1003  0.0117 -0.0202  0.0000
   2.  N 1 (s)     -0.3384  1.4836  0.0000  0.0000  0.5324 -0.0237 -0.0299  0.0000
   3.  N 1 (px)     0.0000  0.0000  0.6990  0.0000  0.0000  0.0000  0.0000  0.0002
   4.  N 1 (py)     0.0000  0.0000  0.0000  0.6990  0.0000 -0.0955  0.2885  0.0000
   5.  N 1 (pz)    -0.1003  0.5324  0.0000  0.0000  1.6455  0.0433 -0.1388  0.0000
   6.  C 2 (s)      0.0117 -0.0237  0.0000 -0.0955  0.0433  2.0668 -0.2124  0.0000
   7.  C 2 (s)     -0.0202 -0.0299  0.0000  0.2885 -0.1388 -0.2124  0.8385  0.0000
   8.  C 2 (px)     0.0000  0.0000  0.0002  0.0000  0.0000  0.0000  0.0000  0.6737
   9.  C 2 (py)     0.0650 -0.1880  0.0000 -0.5028  0.2252 -0.0044 -0.0066  0.0000
  10.  C 2 (pz)    -0.0237  0.0652  0.0000  0.1515 -0.0235  0.0057 -0.0169  0.0000
  11.  C 3 (s)      0.0117 -0.0237 -0.0827  0.0478  0.0433 -0.0050  0.0195  0.0125
  12.  C 3 (s)     -0.0202 -0.0299  0.2498 -0.1442 -0.1388  0.0195 -0.0692 -0.0581
  13.  C 3 (px)     0.0563 -0.1628 -0.3770  0.2178  0.1950 -0.0104  0.0416  0.0072
  14.  C 3 (py)    -0.0325  0.0940  0.2178 -0.1256 -0.1126  0.0204 -0.0911 -0.0313
  15.  C 3 (pz)    -0.0237  0.0652  0.1312 -0.0757 -0.0235  0.0010 -0.0002 -0.0194
  16.  C 4 (s)      0.0117 -0.0237  0.0827  0.0478  0.0433 -0.0050  0.0195 -0.0125
  17.  C 4 (s)     -0.0202 -0.0299 -0.2498 -0.1442 -0.1388  0.0195 -0.0692  0.0581
  18.  C 4 (px)    -0.0563  0.1628 -0.3770 -0.2178 -0.1950  0.0104 -0.0416  0.0072
  19.  C 4 (py)    -0.0325  0.0940 -0.2178 -0.1256 -0.1126  0.0204 -0.0911  0.0313
  20.  C 4 (pz)    -0.0237  0.0652 -0.1312 -0.0757 -0.0235  0.0010 -0.0002  0.0194
  21.  H 5 (s)     -0.0016  0.0337  0.0000 -0.0700  0.2632 -0.0926  0.2271  0.0000
  22.  H 6 (s)      0.0240 -0.1132 -0.0632 -0.0972 -0.0668 -0.0945  0.2267  0.4935
  23.  H 7 (s)      0.0240 -0.1132  0.0632 -0.0972 -0.0668 -0.0945  0.2267 -0.4935
  24.  H 8 (s)     -0.0016  0.0337 -0.0606  0.0350  0.2632  0.0097 -0.0366 -0.0026
  25.  H 9 (s)      0.0240 -0.1132 -0.0526  0.1033 -0.0668 -0.0215  0.0882  0.0211
  26.  H10 (s)      0.0240 -0.1132 -0.1158 -0.0061 -0.0668  0.0090 -0.0327 -0.0243
  27.  H11 (s)     -0.0016  0.0337  0.0606  0.0350  0.2632  0.0097 -0.0366  0.0026
  28.  H12 (s)      0.0240 -0.1132  0.1158 -0.0061 -0.0668  0.0090 -0.0327  0.0243
  29.  H13 (s)      0.0240 -0.1132  0.0526  0.1033 -0.0668 -0.0215  0.0882 -0.0211

           AO          9      10      11      12      13      14      15      16
      ------------ ------- ------- ------- ------- ------- ------- ------- -------
   1.  N 1 (s)      0.0650 -0.0237  0.0117 -0.0202  0.0563 -0.0325 -0.0237  0.0117
   2.  N 1 (s)     -0.1880  0.0652 -0.0237 -0.0299 -0.1628  0.0940  0.0652 -0.0237
   3.  N 1 (px)     0.0000  0.0000 -0.0827  0.2498 -0.3770  0.2178  0.1312  0.0827
   4.  N 1 (py)    -0.5028  0.1515  0.0478 -0.1442  0.2178 -0.1256 -0.0757  0.0478
   5.  N 1 (pz)     0.2252 -0.0235  0.0433 -0.1388  0.1950 -0.1126 -0.0235  0.0433
   6.  C 2 (s)     -0.0044  0.0057 -0.0050  0.0195 -0.0104  0.0204  0.0010 -0.0050
   7.  C 2 (s)     -0.0066 -0.0169  0.0195 -0.0692  0.0416 -0.0911 -0.0002  0.0195
   8.  C 2 (px)     0.0000  0.0000  0.0125 -0.0581  0.0072 -0.0313 -0.0194 -0.0125
   9.  C 2 (py)     0.5875  0.0383 -0.0192  0.0815 -0.0893  0.0768  0.0154 -0.0192
  10.  C 2 (pz)     0.0383  0.6328  0.0010 -0.0002  0.0036 -0.0245 -0.0399  0.0010
  11.  C 3 (s)     -0.0192  0.0010  2.0668 -0.2124 -0.0038  0.0022  0.0057 -0.0050
  12.  C 3 (s)      0.0815 -0.0002 -0.2124  0.8385 -0.0057  0.0033 -0.0169  0.0195
  13.  C 3 (px)    -0.0893  0.0036 -0.0038 -0.0057  0.6091  0.0373  0.0332 -0.0229
  14.  C 3 (py)     0.0768 -0.0245  0.0022  0.0033  0.0373  0.6522 -0.0192 -0.0012
  15.  C 3 (pz)     0.0154 -0.0399  0.0057 -0.0169  0.0332 -0.0192  0.6328  0.0010
  16.  C 4 (s)     -0.0192  0.0010 -0.0050  0.0195 -0.0229 -0.0012  0.0010  2.0668
  17.  C 4 (s)      0.0815 -0.0002  0.0195 -0.0692  0.0997  0.0095 -0.0002 -0.2124
  18.  C 4 (px)     0.0893 -0.0036  0.0229 -0.0997  0.1117 -0.0290 -0.0231  0.0038
  19.  C 4 (py)     0.0768 -0.0245 -0.0012  0.0095  0.0290 -0.0276  0.0091  0.0022
  20.  C 4 (pz)     0.0154 -0.0399  0.0010 -0.0002  0.0231  0.0091 -0.0399  0.0057
  21.  H 5 (s)      0.0116 -0.5893  0.0097 -0.0366  0.0309 -0.0208  0.0173  0.0097
  22.  H 6 (s)      0.2570  0.2166  0.0090 -0.0327  0.0056 -0.0313 -0.0159 -0.0215
  23.  H 7 (s)      0.2570  0.2166 -0.0215  0.0882 -0.0768  0.0687  0.0160  0.0090
  24.  H 8 (s)      0.0371  0.0173 -0.0926  0.2271  0.0101 -0.0058 -0.5893  0.0097
  25.  H 9 (s)     -0.1009  0.0160 -0.0945  0.2267 -0.0242 -0.5559  0.2166  0.0090
  26.  H10 (s)      0.0205 -0.0159 -0.0945  0.2267  0.4693  0.2989  0.2166 -0.0215
  27.  H11 (s)      0.0371  0.0173  0.0097 -0.0366  0.0335 -0.0163  0.0173 -0.0926
  28.  H12 (s)      0.0205 -0.0159 -0.0215  0.0882 -0.0979  0.0322  0.0160 -0.0945
  29.  H13 (s)     -0.1009  0.0160  0.0090 -0.0327  0.0299  0.0108 -0.0159 -0.0945

           AO         17      18      19      20      21      22      23      24
      ------------ ------- ------- ------- ------- ------- ------- ------- -------
   1.  N 1 (s)     -0.0202 -0.0563 -0.0325 -0.0237 -0.0016  0.0240  0.0240 -0.0016
   2.  N 1 (s)     -0.0299  0.1628  0.0940  0.0652  0.0337 -0.1132 -0.1132  0.0337
   3.  N 1 (px)    -0.2498 -0.3770 -0.2178 -0.1312  0.0000 -0.0632  0.0632 -0.0606
   4.  N 1 (py)    -0.1442 -0.2178 -0.1256 -0.0757 -0.0700 -0.0972 -0.0972  0.0350
   5.  N 1 (pz)    -0.1388 -0.1950 -0.1126 -0.0235  0.2632 -0.0668 -0.0668  0.2632
   6.  C 2 (s)      0.0195  0.0104  0.0204  0.0010 -0.0926 -0.0945 -0.0945  0.0097
   7.  C 2 (s)     -0.0692 -0.0416 -0.0911 -0.0002  0.2271  0.2267  0.2267 -0.0366
   8.  C 2 (px)     0.0581  0.0072  0.0313  0.0194  0.0000  0.4935 -0.4935 -0.0026
   9.  C 2 (py)     0.0815  0.0893  0.0768  0.0154  0.0116  0.2570  0.2570  0.0371
  10.  C 2 (pz)    -0.0002 -0.0036 -0.0245 -0.0399 -0.5893  0.2166  0.2166  0.0173
  11.  C 3 (s)      0.0195  0.0229 -0.0012  0.0010  0.0097  0.0090 -0.0215 -0.0926
  12.  C 3 (s)     -0.0692 -0.0997  0.0095 -0.0002 -0.0366 -0.0327  0.0882  0.2271
  13.  C 3 (px)     0.0997  0.1117  0.0290  0.0231  0.0309  0.0056 -0.0768  0.0101
  14.  C 3 (py)     0.0095 -0.0290 -0.0276  0.0091 -0.0208 -0.0313  0.0687 -0.0058
  15.  C 3 (pz)    -0.0002 -0.0231  0.0091 -0.0399  0.0173 -0.0159  0.0160 -0.5893
  16.  C 4 (s)     -0.2124  0.0038  0.0022  0.0057  0.0097 -0.0215  0.0090  0.0097
  17.  C 4 (s)      0.8385  0.0057  0.0033 -0.0169 -0.0366  0.0882 -0.0327 -0.0366
  18.  C 4 (px)     0.0057  0.6091 -0.0373 -0.0332 -0.0309  0.0768 -0.0056 -0.0335
  19.  C 4 (py)     0.0033 -0.0373  0.6522 -0.0192 -0.0208  0.0687 -0.0313 -0.0163
  20.  C 4 (pz)    -0.0169 -0.0332 -0.0192  0.6328  0.0173  0.0160 -0.0159  0.0173
  21.  H 5 (s)     -0.0366 -0.0309 -0.0208  0.0173  0.6513 -0.1418 -0.1418  0.0350
  22.  H 6 (s)      0.0882  0.0768  0.0687  0.0160 -0.1418  0.6189 -0.1166 -0.0154
  23.  H 7 (s)     -0.0327 -0.0056 -0.0313 -0.0159 -0.1418 -0.1166  0.6189 -0.0073
  24.  H 8 (s)     -0.0366 -0.0335 -0.0163  0.0173  0.0350 -0.0154 -0.0073  0.6513
  25.  H 9 (s)     -0.0327 -0.0299  0.0108 -0.0159 -0.0073  0.0139 -0.0475 -0.1418
  26.  H10 (s)      0.0882  0.0979  0.0322  0.0160 -0.0154  0.0050  0.0139 -0.1418
  27.  H11 (s)      0.2271 -0.0101 -0.0058 -0.5893  0.0350 -0.0073 -0.0154  0.0350
  28.  H12 (s)      0.2267 -0.4693  0.2989  0.2166 -0.0154  0.0139  0.0050 -0.0073
  29.  H13 (s)      0.2267  0.0242 -0.5559  0.2166 -0.0073 -0.0475  0.0139 -0.0154

           AO         25      26      27      28      29
      ------------ ------- ------- ------- ------- -------
   1.  N 1 (s)      0.0240  0.0240 -0.0016  0.0240  0.0240
   2.  N 1 (s)     -0.1132 -0.1132  0.0337 -0.1132 -0.1132
   3.  N 1 (px)    -0.0526 -0.1158  0.0606  0.1158  0.0526
   4.  N 1 (py)     0.1033 -0.0061  0.0350 -0.0061  0.1033
   5.  N 1 (pz)    -0.0668 -0.0668  0.2632 -0.0668 -0.0668
   6.  C 2 (s)     -0.0215  0.0090  0.0097  0.0090 -0.0215
   7.  C 2 (s)      0.0882 -0.0327 -0.0366 -0.0327  0.0882
   8.  C 2 (px)     0.0211 -0.0243  0.0026  0.0243 -0.0211
   9.  C 2 (py)    -0.1009  0.0205  0.0371  0.0205 -0.1009
  10.  C 2 (pz)     0.0160 -0.0159  0.0173 -0.0159  0.0160
  11.  C 3 (s)     -0.0945 -0.0945  0.0097 -0.0215  0.0090
  12.  C 3 (s)      0.2267  0.2267 -0.0366  0.0882 -0.0327
  13.  C 3 (px)    -0.0242  0.4693  0.0335 -0.0979  0.0299
  14.  C 3 (py)    -0.5559  0.2989 -0.0163  0.0322  0.0108
  15.  C 3 (pz)     0.2166  0.2166  0.0173  0.0160 -0.0159
  16.  C 4 (s)      0.0090 -0.0215 -0.0926 -0.0945 -0.0945
  17.  C 4 (s)     -0.0327  0.0882  0.2271  0.2267  0.2267
  18.  C 4 (px)    -0.0299  0.0979 -0.0101 -0.4693  0.0242
  19.  C 4 (py)     0.0108  0.0322 -0.0058  0.2989 -0.5559
  20.  C 4 (pz)    -0.0159  0.0160 -0.5893  0.2166  0.2166
  21.  H 5 (s)     -0.0073 -0.0154  0.0350 -0.0154 -0.0073
  22.  H 6 (s)      0.0139  0.0050 -0.0073  0.0139 -0.0475
  23.  H 7 (s)     -0.0475  0.0139 -0.0154  0.0050  0.0139
  24.  H 8 (s)     -0.1418 -0.1418  0.0350 -0.0073 -0.0154
  25.  H 9 (s)      0.6189 -0.1166 -0.0154  0.0139  0.0050
  26.  H10 (s)     -0.1166  0.6189 -0.0073 -0.0475  0.0139
  27.  H11 (s)     -0.0154 -0.0073  0.6513 -0.1418 -0.1418
  28.  H12 (s)      0.0139 -0.0475 -0.1418  0.6189 -0.1166
  29.  H13 (s)      0.0050  0.0139 -0.1418 -0.1166  0.6189


 AO density matrix:

           AO          1       2       3       4       5       6       7       8
      ------------ ------- ------- ------- ------- ------- ------- ------- -------
   1.  N 1 (s)      1.9997  0.4749  0.0000  0.0000 -0.0051  0.0001  0.0485  0.0000
   2.  N 1 (s)      0.4749  1.9264  0.0000  0.0000  0.0728  0.0474  0.6291  0.0000
   3.  N 1 (px)     0.0000  0.0000  1.5662  0.0000  0.0000  0.0000  0.0000  0.3477
   4.  N 1 (py)     0.0000  0.0000  0.0000  1.5662  0.0000  0.0735  0.7064  0.0000
   5.  N 1 (pz)    -0.0051  0.0728  0.0000  0.0000  1.8864 -0.0246 -0.2408  0.0000
   6.  C 2 (s)      0.0001  0.0474  0.0000  0.0735 -0.0246  1.9995  0.5050  0.0000
   7.  C 2 (s)      0.0485  0.6291  0.0000  0.7064 -0.2408  0.5050  1.8571  0.0000
   8.  C 2 (px)     0.0000  0.0000  0.3477  0.0000  0.0000  0.0000  0.0000  1.6204
   9.  C 2 (py)    -0.0739 -0.7807  0.0000 -0.8265  0.4137 -0.0013  0.0519  0.0000
  10.  C 2 (pz)     0.0247  0.2697  0.0000  0.3776  0.2538  0.0004 -0.0141  0.0000
  11.  C 3 (s)      0.0001  0.0474  0.0636 -0.0367 -0.0246  0.0000  0.0044  0.0045
  12.  C 3 (s)      0.0485  0.6291  0.6118 -0.3532 -0.2408  0.0044  0.1223  0.0966
  13.  C 3 (px)    -0.0640 -0.6761 -0.5330  0.5085  0.3583 -0.0051 -0.0813 -0.0379
  14.  C 3 (py)     0.0369  0.3904  0.5085  0.0542 -0.2069  0.0081  0.1584  0.1400
  15.  C 3 (pz)     0.0247  0.2697  0.3271 -0.1888  0.2538  0.0003 -0.0065 -0.0001
  16.  C 4 (s)      0.0001  0.0474 -0.0636 -0.0367 -0.0246  0.0000  0.0044 -0.0045
  17.  C 4 (s)      0.0485  0.6291 -0.6118 -0.3532 -0.2408  0.0044  0.1223 -0.0966
  18.  C 4 (px)     0.0640  0.6761 -0.5330 -0.5085 -0.3583  0.0051  0.0813 -0.0379
  19.  C 4 (py)     0.0369  0.3904 -0.5085  0.0542 -0.2069  0.0081  0.1584 -0.1400
  20.  C 4 (pz)     0.0247  0.2697 -0.3271 -0.1888  0.2538  0.0003 -0.0065  0.0001
  21.  H 5 (s)      0.0086  0.1650  0.0000  0.1065 -0.0924  0.1131  1.0755  0.0000
  22.  H 6 (s)      0.0104  0.1616  0.0983  0.1846 -0.0231  0.1168  1.0862  1.0162
  23.  H 7 (s)      0.0104  0.1616 -0.0983  0.1846 -0.0231  0.1168  1.0862 -1.0162
  24.  H 8 (s)      0.0086  0.1650  0.0923 -0.0533 -0.0924  0.0026  0.0628  0.0488
  25.  H 9 (s)      0.0104  0.1616  0.1107 -0.1774 -0.0231 -0.0008  0.0316  0.0041
  26.  H10 (s)      0.0104  0.1616  0.2090 -0.0071 -0.0231  0.0031  0.0743  0.0925
  27.  H11 (s)      0.0086  0.1650 -0.0923 -0.0533 -0.0924  0.0026  0.0628 -0.0488
  28.  H12 (s)      0.0104  0.1616 -0.2090 -0.0071 -0.0231  0.0031  0.0743 -0.0925
  29.  H13 (s)      0.0104  0.1616 -0.1107 -0.1774 -0.0231 -0.0008  0.0316 -0.0041

           AO          9      10      11      12      13      14      15      16
      ------------ ------- ------- ------- ------- ------- ------- ------- -------
   1.  N 1 (s)     -0.0739  0.0247  0.0001  0.0485 -0.0640  0.0369  0.0247  0.0001
   2.  N 1 (s)     -0.7807  0.2697  0.0474  0.6291 -0.6761  0.3904  0.2697  0.0474
   3.  N 1 (px)     0.0000  0.0000  0.0636  0.6118 -0.5330  0.5085  0.3271 -0.0636
   4.  N 1 (py)    -0.8265  0.3776 -0.0367 -0.3532  0.5085  0.0542 -0.1888 -0.0367
   5.  N 1 (pz)     0.4137  0.2538 -0.0246 -0.2408  0.3583 -0.2069  0.2538 -0.0246
   6.  C 2 (s)     -0.0013  0.0004  0.0000  0.0044 -0.0051  0.0081  0.0003  0.0000
   7.  C 2 (s)      0.0519 -0.0141  0.0044  0.1223 -0.0813  0.1584 -0.0065  0.0044
   8.  C 2 (px)     0.0000  0.0000  0.0045  0.0966 -0.0379  0.1400 -0.0001 -0.0045
   9.  C 2 (py)     1.4827  0.0396 -0.0085 -0.1496  0.0793 -0.1646  0.0230 -0.0085
  10.  C 2 (pz)     0.0396  1.5925  0.0003 -0.0065  0.0199 -0.0116  0.0384  0.0003
  11.  C 3 (s)     -0.0085  0.0003  1.9995  0.5050 -0.0011  0.0006  0.0004  0.0000
  12.  C 3 (s)     -0.1496 -0.0065  0.5050  1.8571  0.0450 -0.0260 -0.0141  0.0044
  13.  C 3 (px)     0.0793  0.0199 -0.0011  0.0450  1.5171  0.0596  0.0343 -0.0096
  14.  C 3 (py)    -0.1646 -0.0116  0.0006 -0.0260  0.0596  1.5860 -0.0198  0.0004
  15.  C 3 (pz)     0.0230  0.0384  0.0004 -0.0141  0.0343 -0.0198  1.5925  0.0003
  16.  C 4 (s)     -0.0085  0.0003  0.0000  0.0044 -0.0096  0.0004  0.0003  1.9995
  17.  C 4 (s)     -0.1496 -0.0065  0.0044  0.1223 -0.1778 -0.0088 -0.0065  0.5050
  18.  C 4 (px)    -0.0793 -0.0199  0.0096  0.1778 -0.2279 -0.0304 -0.0200  0.0011
  19.  C 4 (py)    -0.1646 -0.0116  0.0004 -0.0088  0.0304  0.0254 -0.0114  0.0006
  20.  C 4 (pz)     0.0230  0.0384  0.0003 -0.0065  0.0200 -0.0114  0.0384  0.0004
  21.  H 5 (s)      0.0870 -1.2436  0.0026  0.0628 -0.0249  0.0707 -0.0424  0.0026
  22.  H 6 (s)      0.5888  0.4345  0.0031  0.0743  0.0052  0.1038  0.0090 -0.0008
  23.  H 7 (s)      0.5888  0.4345 -0.0008  0.0316 -0.0473  0.0321  0.0145  0.0031
  24.  H 8 (s)     -0.0569 -0.0424  0.1131  1.0755  0.0753 -0.0435 -1.2436  0.0026
  25.  H 9 (s)     -0.0570  0.0145  0.1168  1.0862  0.0019 -1.1744  0.4345  0.0031
  26.  H10 (s)     -0.0475  0.0090  0.1168  1.0862  1.0180  0.5856  0.4345 -0.0008
  27.  H11 (s)     -0.0569 -0.0424  0.0026  0.0628 -0.0737 -0.0138 -0.0424  0.1131
  28.  H12 (s)     -0.0475  0.0090 -0.0008  0.0316 -0.0514  0.0249  0.0145  0.1168
  29.  H13 (s)     -0.0570  0.0145  0.0031  0.0743 -0.0873 -0.0564  0.0090  0.1168

           AO         17      18      19      20      21      22      23      24
      ------------ ------- ------- ------- ------- ------- ------- ------- -------
   1.  N 1 (s)      0.0485  0.0640  0.0369  0.0247  0.0086  0.0104  0.0104  0.0086
   2.  N 1 (s)      0.6291  0.6761  0.3904  0.2697  0.1650  0.1616  0.1616  0.1650
   3.  N 1 (px)    -0.6118 -0.5330 -0.5085 -0.3271  0.0000  0.0983 -0.0983  0.0923
   4.  N 1 (py)    -0.3532 -0.5085  0.0542 -0.1888  0.1065  0.1846  0.1846 -0.0533
   5.  N 1 (pz)    -0.2408 -0.3583 -0.2069  0.2538 -0.0924 -0.0231 -0.0231 -0.0924
   6.  C 2 (s)      0.0044  0.0051  0.0081  0.0003  0.1131  0.1168  0.1168  0.0026
   7.  C 2 (s)      0.1223  0.0813  0.1584 -0.0065  1.0755  1.0862  1.0862  0.0628
   8.  C 2 (px)    -0.0966 -0.0379 -0.1400  0.0001  0.0000  1.0162 -1.0162  0.0488
   9.  C 2 (py)    -0.1496 -0.0793 -0.1646  0.0230  0.0870  0.5888  0.5888 -0.0569
  10.  C 2 (pz)    -0.0065 -0.0199 -0.0116  0.0384 -1.2436  0.4345  0.4345 -0.0424
  11.  C 3 (s)      0.0044  0.0096  0.0004  0.0003  0.0026  0.0031 -0.0008  0.1131
  12.  C 3 (s)      0.1223  0.1778 -0.0088 -0.0065  0.0628  0.0743  0.0316  1.0755
  13.  C 3 (px)    -0.1778 -0.2279  0.0304  0.0200 -0.0249  0.0052 -0.0473  0.0753
  14.  C 3 (py)    -0.0088 -0.0304  0.0254 -0.0114  0.0707  0.1038  0.0321 -0.0435
  15.  C 3 (pz)    -0.0065 -0.0200 -0.0114  0.0384 -0.0424  0.0090  0.0145 -1.2436
  16.  C 4 (s)      0.5050  0.0011  0.0006  0.0004  0.0026 -0.0008  0.0031  0.0026
  17.  C 4 (s)      1.8571 -0.0450 -0.0260 -0.0141  0.0628  0.0316  0.0743  0.0628
  18.  C 4 (px)    -0.0450  1.5171 -0.0596 -0.0343  0.0249  0.0473 -0.0052  0.0737
  19.  C 4 (py)    -0.0260 -0.0596  1.5860 -0.0198  0.0707  0.0321  0.1038 -0.0138
  20.  C 4 (pz)    -0.0141 -0.0343 -0.0198  1.5925 -0.0424  0.0145  0.0090 -0.0424
  21.  H 5 (s)      0.0628  0.0249  0.0707 -0.0424  1.6348  0.3208  0.3208  0.1035
  22.  H 6 (s)      0.0316  0.0473  0.0321  0.0145  0.3208  1.6333  0.3374  0.0266
  23.  H 7 (s)      0.0743 -0.0052  0.1038  0.0090  0.3208  0.3374  1.6333  0.0049
  24.  H 8 (s)      0.0628  0.0737 -0.0138 -0.0424  0.1035  0.0266  0.0049  1.6348
  25.  H 9 (s)      0.0743  0.0873 -0.0564  0.0090  0.0049  0.0124 -0.0161  0.3208
  26.  H10 (s)      0.0316  0.0514  0.0249  0.0145  0.0266  0.1209  0.0124  0.3208
  27.  H11 (s)      1.0755 -0.0753 -0.0435 -1.2436  0.1035  0.0049  0.0266  0.1035
  28.  H12 (s)      1.0862 -1.0180  0.5856  0.4345  0.0266  0.0124  0.1209  0.0049
  29.  H13 (s)      1.0862 -0.0019 -1.1744  0.4345  0.0049 -0.0161  0.0124  0.0266

           AO         25      26      27      28      29
      ------------ ------- ------- ------- ------- -------
   1.  N 1 (s)      0.0104  0.0104  0.0086  0.0104  0.0104
   2.  N 1 (s)      0.1616  0.1616  0.1650  0.1616  0.1616
   3.  N 1 (px)     0.1107  0.2090 -0.0923 -0.2090 -0.1107
   4.  N 1 (py)    -0.1774 -0.0071 -0.0533 -0.0071 -0.1774
   5.  N 1 (pz)    -0.0231 -0.0231 -0.0924 -0.0231 -0.0231
   6.  C 2 (s)     -0.0008  0.0031  0.0026  0.0031 -0.0008
   7.  C 2 (s)      0.0316  0.0743  0.0628  0.0743  0.0316
   8.  C 2 (px)     0.0041  0.0925 -0.0488 -0.0925 -0.0041
   9.  C 2 (py)    -0.0570 -0.0475 -0.0569 -0.0475 -0.0570
  10.  C 2 (pz)     0.0145  0.0090 -0.0424  0.0090  0.0145
  11.  C 3 (s)      0.1168  0.1168  0.0026 -0.0008  0.0031
  12.  C 3 (s)      1.0862  1.0862  0.0628  0.0316  0.0743
  13.  C 3 (px)     0.0019  1.0180 -0.0737 -0.0514 -0.0873
  14.  C 3 (py)    -1.1744  0.5856 -0.0138  0.0249 -0.0564
  15.  C 3 (pz)     0.4345  0.4345 -0.0424  0.0145  0.0090
  16.  C 4 (s)      0.0031 -0.0008  0.1131  0.1168  0.1168
  17.  C 4 (s)      0.0743  0.0316  1.0755  1.0862  1.0862
  18.  C 4 (px)     0.0873  0.0514 -0.0753 -1.0180 -0.0019
  19.  C 4 (py)    -0.0564  0.0249 -0.0435  0.5856 -1.1744
  20.  C 4 (pz)     0.0090  0.0145 -1.2436  0.4345  0.4345
  21.  H 5 (s)      0.0049  0.0266  0.1035  0.0266  0.0049
  22.  H 6 (s)      0.0124  0.1209  0.0049  0.0124 -0.0161
  23.  H 7 (s)     -0.0161  0.0124  0.0266  0.1209  0.0124
  24.  H 8 (s)      0.3208  0.3208  0.1035  0.0049  0.0266
  25.  H 9 (s)      1.6333  0.3374  0.0266  0.0124  0.1209
  26.  H10 (s)      0.3374  1.6333  0.0049 -0.0161  0.0124
  27.  H11 (s)      0.0266  0.0049  1.6348  0.3208  0.3208
  28.  H12 (s)      0.0124 -0.0161  0.3208  1.6333  0.3374
  29.  H13 (s)      0.1209  0.0124  0.3208  0.3374  1.6333


 MO density matrix:

      MO     1       2       3       4       5       6       7       8       9
     ---- ------  ------  ------  ------  ------  ------  ------  ------  ------
   1.     2.0000  0.0000  0.0000  0.0000  0.0000  0.0000  0.0000  0.0000  0.0000
   2.     0.0000  2.0000  0.0000  0.0000  0.0000  0.0000  0.0000  0.0000  0.0000
   3.     0.0000  0.0000  2.0000  0.0000  0.0000  0.0000  0.0000  0.0000  0.0000
   4.     0.0000  0.0000  0.0000  2.0000  0.0000  0.0000  0.0000  0.0000  0.0000
   5.     0.0000  0.0000  0.0000  0.0000  2.0000  0.0000  0.0000  0.0000  0.0000
   6.     0.0000  0.0000  0.0000  0.0000  0.0000  2.0000  0.0000  0.0000  0.0000
   7.     0.0000  0.0000  0.0000  0.0000  0.0000  0.0000  2.0000  0.0000  0.0000
   8.     0.0000  0.0000  0.0000  0.0000  0.0000  0.0000  0.0000  2.0000  0.0000
   9.     0.0000  0.0000  0.0000  0.0000  0.0000  0.0000  0.0000  0.0000  2.0000
  10.     0.0000  0.0000  0.0000  0.0000  0.0000  0.0000  0.0000  0.0000  0.0000
  11.     0.0000  0.0000  0.0000  0.0000  0.0000  0.0000  0.0000  0.0000  0.0000
  12.     0.0000  0.0000  0.0000  0.0000  0.0000  0.0000  0.0000  0.0000  0.0000
  13.     0.0000  0.0000  0.0000  0.0000  0.0000  0.0000  0.0000  0.0000  0.0000
  14.     0.0000  0.0000  0.0000  0.0000  0.0000  0.0000  0.0000  0.0000  0.0000
  15.     0.0000  0.0000  0.0000  0.0000  0.0000  0.0000  0.0000  0.0000  0.0000
  16.     0.0000  0.0000  0.0000  0.0000  0.0000  0.0000  0.0000  0.0000  0.0000
  17.     0.0000  0.0000  0.0000  0.0000  0.0000  0.0000  0.0000  0.0000  0.0000
  18.     0.0000  0.0000  0.0000  0.0000  0.0000  0.0000  0.0000  0.0000  0.0000
  19.     0.0000  0.0000  0.0000  0.0000  0.0000  0.0000  0.0000  0.0000  0.0000
  20.     0.0000  0.0000  0.0000  0.0000  0.0000  0.0000  0.0000  0.0000  0.0000
  21.     0.0000  0.0000  0.0000  0.0000  0.0000  0.0000  0.0000  0.0000  0.0000
  22.     0.0000  0.0000  0.0000  0.0000  0.0000  0.0000  0.0000  0.0000  0.0000
  23.     0.0000  0.0000  0.0000  0.0000  0.0000  0.0000  0.0000  0.0000  0.0000
  24.     0.0000  0.0000  0.0000  0.0000  0.0000  0.0000  0.0000  0.0000  0.0000
  25.     0.0000  0.0000  0.0000  0.0000  0.0000  0.0000  0.0000  0.0000  0.0000
  26.     0.0000  0.0000  0.0000  0.0000  0.0000  0.0000  0.0000  0.0000  0.0000
  27.     0.0000  0.0000  0.0000  0.0000  0.0000  0.0000  0.0000  0.0000  0.0000
  28.     0.0000  0.0000  0.0000  0.0000  0.0000  0.0000  0.0000  0.0000  0.0000
  29.     0.0000  0.0000  0.0000  0.0000  0.0000  0.0000  0.0000  0.0000  0.0000

      MO    10      11      12      13      14      15      16      17      18
     ---- ------  ------  ------  ------  ------  ------  ------  ------  ------
   1.     0.0000  0.0000  0.0000  0.0000  0.0000  0.0000  0.0000  0.0000  0.0000
   2.     0.0000  0.0000  0.0000  0.0000  0.0000  0.0000  0.0000  0.0000  0.0000
   3.     0.0000  0.0000  0.0000  0.0000  0.0000  0.0000  0.0000  0.0000  0.0000
   4.     0.0000  0.0000  0.0000  0.0000  0.0000  0.0000  0.0000  0.0000  0.0000
   5.     0.0000  0.0000  0.0000  0.0000  0.0000  0.0000  0.0000  0.0000  0.0000
   6.     0.0000  0.0000  0.0000  0.0000  0.0000  0.0000  0.0000  0.0000  0.0000
   7.     0.0000  0.0000  0.0000  0.0000  0.0000  0.0000  0.0000  0.0000  0.0000
   8.     0.0000  0.0000  0.0000  0.0000  0.0000  0.0000  0.0000  0.0000  0.0000
   9.     0.0000  0.0000  0.0000  0.0000  0.0000  0.0000  0.0000  0.0000  0.0000
  10.     2.0000  0.0000  0.0000  0.0000  0.0000  0.0000  0.0000  0.0000  0.0000
  11.     0.0000  2.0000  0.0000  0.0000  0.0000  0.0000  0.0000  0.0000  0.0000
  12.     0.0000  0.0000  2.0000  0.0000  0.0000  0.0000  0.0000  0.0000  0.0000
  13.     0.0000  0.0000  0.0000  2.0000  0.0000  0.0000  0.0000  0.0000  0.0000
  14.     0.0000  0.0000  0.0000  0.0000  2.0000  0.0000  0.0000  0.0000  0.0000
  15.     0.0000  0.0000  0.0000  0.0000  0.0000  2.0000  0.0000  0.0000  0.0000
  16.     0.0000  0.0000  0.0000  0.0000  0.0000  0.0000  2.0000  0.0000  0.0000
  17.     0.0000  0.0000  0.0000  0.0000  0.0000  0.0000  0.0000  2.0000  0.0000
  18.     0.0000  0.0000  0.0000  0.0000  0.0000  0.0000  0.0000  0.0000  0.0000
  19.     0.0000  0.0000  0.0000  0.0000  0.0000  0.0000  0.0000  0.0000  0.0000
  20.     0.0000  0.0000  0.0000  0.0000  0.0000  0.0000  0.0000  0.0000  0.0000
  21.     0.0000  0.0000  0.0000  0.0000  0.0000  0.0000  0.0000  0.0000  0.0000
  22.     0.0000  0.0000  0.0000  0.0000  0.0000  0.0000  0.0000  0.0000  0.0000
  23.     0.0000  0.0000  0.0000  0.0000  0.0000  0.0000  0.0000  0.0000  0.0000
  24.     0.0000  0.0000  0.0000  0.0000  0.0000  0.0000  0.0000  0.0000  0.0000
  25.     0.0000  0.0000  0.0000  0.0000  0.0000  0.0000  0.0000  0.0000  0.0000
  26.     0.0000  0.0000  0.0000  0.0000  0.0000  0.0000  0.0000  0.0000  0.0000
  27.     0.0000  0.0000  0.0000  0.0000  0.0000  0.0000  0.0000  0.0000  0.0000
  28.     0.0000  0.0000  0.0000  0.0000  0.0000  0.0000  0.0000  0.0000  0.0000
  29.     0.0000  0.0000  0.0000  0.0000  0.0000  0.0000  0.0000  0.0000  0.0000

      MO    19      20      21      22      23      24      25      26      27
     ---- ------  ------  ------  ------  ------  ------  ------  ------  ------
   1.     0.0000  0.0000  0.0000  0.0000  0.0000  0.0000  0.0000  0.0000  0.0000
   2.     0.0000  0.0000  0.0000  0.0000  0.0000  0.0000  0.0000  0.0000  0.0000
   3.     0.0000  0.0000  0.0000  0.0000  0.0000  0.0000  0.0000  0.0000  0.0000
   4.     0.0000  0.0000  0.0000  0.0000  0.0000  0.0000  0.0000  0.0000  0.0000
   5.     0.0000  0.0000  0.0000  0.0000  0.0000  0.0000  0.0000  0.0000  0.0000
   6.     0.0000  0.0000  0.0000  0.0000  0.0000  0.0000  0.0000  0.0000  0.0000
   7.     0.0000  0.0000  0.0000  0.0000  0.0000  0.0000  0.0000  0.0000  0.0000
   8.     0.0000  0.0000  0.0000  0.0000  0.0000  0.0000  0.0000  0.0000  0.0000
   9.     0.0000  0.0000  0.0000  0.0000  0.0000  0.0000  0.0000  0.0000  0.0000
  10.     0.0000  0.0000  0.0000  0.0000  0.0000  0.0000  0.0000  0.0000  0.0000
  11.     0.0000  0.0000  0.0000  0.0000  0.0000  0.0000  0.0000  0.0000  0.0000
  12.     0.0000  0.0000  0.0000  0.0000  0.0000  0.0000  0.0000  0.0000  0.0000
  13.     0.0000  0.0000  0.0000  0.0000  0.0000  0.0000  0.0000  0.0000  0.0000
  14.     0.0000  0.0000  0.0000  0.0000  0.0000  0.0000  0.0000  0.0000  0.0000
  15.     0.0000  0.0000  0.0000  0.0000  0.0000  0.0000  0.0000  0.0000  0.0000
  16.     0.0000  0.0000  0.0000  0.0000  0.0000  0.0000  0.0000  0.0000  0.0000
  17.     0.0000  0.0000  0.0000  0.0000  0.0000  0.0000  0.0000  0.0000  0.0000
  18.     0.0000  0.0000  0.0000  0.0000  0.0000  0.0000  0.0000  0.0000  0.0000
  19.     0.0000  0.0000  0.0000  0.0000  0.0000  0.0000  0.0000  0.0000  0.0000
  20.     0.0000  0.0000  0.0000  0.0000  0.0000  0.0000  0.0000  0.0000  0.0000
  21.     0.0000  0.0000  0.0000  0.0000  0.0000  0.0000  0.0000  0.0000  0.0000
  22.     0.0000  0.0000  0.0000  0.0000  0.0000  0.0000  0.0000  0.0000  0.0000
  23.     0.0000  0.0000  0.0000  0.0000  0.0000  0.0000  0.0000  0.0000  0.0000
  24.     0.0000  0.0000  0.0000  0.0000  0.0000  0.0000  0.0000  0.0000  0.0000
  25.     0.0000  0.0000  0.0000  0.0000  0.0000  0.0000  0.0000  0.0000  0.0000
  26.     0.0000  0.0000  0.0000  0.0000  0.0000  0.0000  0.0000  0.0000  0.0000
  27.     0.0000  0.0000  0.0000  0.0000  0.0000  0.0000  0.0000  0.0000  0.0000
  28.     0.0000  0.0000  0.0000  0.0000  0.0000  0.0000  0.0000  0.0000  0.0000
  29.     0.0000  0.0000  0.0000  0.0000  0.0000  0.0000  0.0000  0.0000  0.0000

      MO    28      29
     ---- ------  ------
   1.     0.0000  0.0000
   2.     0.0000  0.0000
   3.     0.0000  0.0000
   4.     0.0000  0.0000
   5.     0.0000  0.0000
   6.     0.0000  0.0000
   7.     0.0000  0.0000
   8.     0.0000  0.0000
   9.     0.0000  0.0000
  10.     0.0000  0.0000
  11.     0.0000  0.0000
  12.     0.0000  0.0000
  13.     0.0000  0.0000
  14.     0.0000  0.0000
  15.     0.0000  0.0000
  16.     0.0000  0.0000
  17.     0.0000  0.0000
  18.     0.0000  0.0000
  19.     0.0000  0.0000
  20.     0.0000  0.0000
  21.     0.0000  0.0000
  22.     0.0000  0.0000
  23.     0.0000  0.0000
  24.     0.0000  0.0000
  25.     0.0000  0.0000
  26.     0.0000  0.0000
  27.     0.0000  0.0000
  28.     0.0000  0.0000
  29.     0.0000  0.0000


 NATURAL POPULATIONS:  Natural atomic orbital occupancies

  NAO Atom No lang   Type(AO)    Occupancy      Energy
 -------------------------------------------------------
   1    N  1  s      Cor( 1s)     2.00000     -15.29900
   2    N  1  s      Val( 2s)     1.43348      -0.55840
   3    N  1  px     Val( 2p)     1.03877       0.05012
   4    N  1  py     Val( 2p)     1.03877       0.05012
   5    N  1  pz     Val( 2p)     1.72749      -0.22864

   6    C  2  s      Cor( 1s)     1.99999     -11.05446
   7    C  2  s      Val( 2s)     1.07660      -0.16682
   8    C  2  px     Val( 2p)     1.04130       0.06215
   9    C  2  py     Val( 2p)     0.90191       0.10105
  10    C  2  pz     Val( 2p)     1.00712       0.07966

  11    C  3  s      Cor( 1s)     1.99999     -11.05446
  12    C  3  s      Val( 2s)     1.07660      -0.16682
  13    C  3  px     Val( 2p)     0.93675       0.09132
  14    C  3  py     Val( 2p)     1.00645       0.07188
  15    C  3  pz     Val( 2p)     1.00712       0.07966

  16    C  4  s      Cor( 1s)     1.99999     -11.05446
  17    C  4  s      Val( 2s)     1.07660      -0.16682
  18    C  4  px     Val( 2p)     0.93675       0.09132
  19    C  4  py     Val( 2p)     1.00645       0.07188
  20    C  4  pz     Val( 2p)     1.00712       0.07966

  21    H  5  s      Val( 1s)     0.97692       0.06454

  22    H  6  s      Val( 1s)     0.95833       0.07696

  23    H  7  s      Val( 1s)     0.95833       0.07696

  24    H  8  s      Val( 1s)     0.97692       0.06454

  25    H  9  s      Val( 1s)     0.95833       0.07696

  26    H 10  s      Val( 1s)     0.95833       0.07696

  27    H 11  s      Val( 1s)     0.97692       0.06454

  28    H 12  s      Val( 1s)     0.95833       0.07696

  29    H 13  s      Val( 1s)     0.95833       0.07696


 Summary of Natural Population Analysis:

                                     Natural Population
             Natural    ---------------------------------------------
  Atom No    Charge        Core      Valence    Rydberg      Total
 --------------------------------------------------------------------
    N  1   -0.23852      2.00000     5.23852    0.00000     7.23852
    C  2   -0.02691      1.99999     4.02692    0.00000     6.02691
    C  3   -0.02691      1.99999     4.02692    0.00000     6.02691
    C  4   -0.02691      1.99999     4.02692    0.00000     6.02691
    H  5    0.02308      0.00000     0.97692    0.00000     0.97692
    H  6    0.04167      0.00000     0.95833    0.00000     0.95833
    H  7    0.04167      0.00000     0.95833    0.00000     0.95833
    H  8    0.02308      0.00000     0.97692    0.00000     0.97692
    H  9    0.04167      0.00000     0.95833    0.00000     0.95833
    H 10    0.04167      0.00000     0.95833    0.00000     0.95833
    H 11    0.02308      0.00000     0.97692    0.00000     0.97692
    H 12    0.04167      0.00000     0.95833    0.00000     0.95833
    H 13    0.04167      0.00000     0.95833    0.00000     0.95833
 ====================================================================
 * Total *  0.00000      7.99998    26.00002    0.00000    34.00000

                                 Natural Population
 ---------------------------------------------------------
   Core                       7.99998 ( 99.9997% of    8)
   Valence                   26.00002 (100.0001% of   26)
   Natural Minimal Basis     34.00000 (100.0000% of   34)
   Natural Rydberg Basis      0.00000 (  0.0000% of   34)
 ---------------------------------------------------------

    Atom No         Natural Electron Configuration
 ----------------------------------------------------------------------------
      N  1      [core]2s( 1.43)2p( 3.81)
      C  2      [core]2s( 1.08)2p( 2.95)
      C  3      [core]2s( 1.08)2p( 2.95)
      C  4      [core]2s( 1.08)2p( 2.95)
      H  5            1s( 0.98)
      H  6            1s( 0.96)
      H  7            1s( 0.96)
      H  8            1s( 0.98)
      H  9            1s( 0.96)
      H 10            1s( 0.96)
      H 11            1s( 0.98)
      H 12            1s( 0.96)
      H 13            1s( 0.96)


 PNAOs in the AO basis:

           AO          1       2       3       4       5       6       7       8
      ------------ ------- ------- ------- ------- ------- ------- ------- -------
   1.  N 1 (s)      0.9828 -0.3042  0.0000  0.0000  0.0000  0.0000  0.0000  0.0000
   2.  N 1 (s)      0.0647  1.0268  0.0000  0.0000  0.0000  0.0000  0.0000  0.0000
   3.  N 1 (px)     0.0000  0.0000  1.0000  0.0000  0.0000  0.0000  0.0000  0.0000
   4.  N 1 (py)     0.0000  0.0000  0.0000  1.0000  0.0000  0.0000  0.0000  0.0000
   5.  N 1 (pz)     0.0000  0.0000  0.0000  0.0000  1.0000  0.0000  0.0000  0.0000
   6.  C 2 (s)      0.0000  0.0000  0.0000  0.0000  0.0000  0.9843 -0.3112  0.0000
   7.  C 2 (s)      0.0000  0.0000  0.0000  0.0000  0.0000  0.0570  1.0308  0.0000
   8.  C 2 (px)     0.0000  0.0000  0.0000  0.0000  0.0000  0.0000  0.0000  1.0000
   9.  C 2 (py)     0.0000  0.0000  0.0000  0.0000  0.0000  0.0000  0.0000  0.0000
  10.  C 2 (pz)     0.0000  0.0000  0.0000  0.0000  0.0000  0.0000  0.0000  0.0000
  11.  C 3 (s)      0.0000  0.0000  0.0000  0.0000  0.0000  0.0000  0.0000  0.0000
  12.  C 3 (s)      0.0000  0.0000  0.0000  0.0000  0.0000  0.0000  0.0000  0.0000
  13.  C 3 (px)     0.0000  0.0000  0.0000  0.0000  0.0000  0.0000  0.0000  0.0000
  14.  C 3 (py)     0.0000  0.0000  0.0000  0.0000  0.0000  0.0000  0.0000  0.0000
  15.  C 3 (pz)     0.0000  0.0000  0.0000  0.0000  0.0000  0.0000  0.0000  0.0000
  16.  C 4 (s)      0.0000  0.0000  0.0000  0.0000  0.0000  0.0000  0.0000  0.0000
  17.  C 4 (s)      0.0000  0.0000  0.0000  0.0000  0.0000  0.0000  0.0000  0.0000
  18.  C 4 (px)     0.0000  0.0000  0.0000  0.0000  0.0000  0.0000  0.0000  0.0000
  19.  C 4 (py)     0.0000  0.0000  0.0000  0.0000  0.0000  0.0000  0.0000  0.0000
  20.  C 4 (pz)     0.0000  0.0000  0.0000  0.0000  0.0000  0.0000  0.0000  0.0000
  21.  H 5 (s)      0.0000  0.0000  0.0000  0.0000  0.0000  0.0000  0.0000  0.0000
  22.  H 6 (s)      0.0000  0.0000  0.0000  0.0000  0.0000  0.0000  0.0000  0.0000
  23.  H 7 (s)      0.0000  0.0000  0.0000  0.0000  0.0000  0.0000  0.0000  0.0000
  24.  H 8 (s)      0.0000  0.0000  0.0000  0.0000  0.0000  0.0000  0.0000  0.0000
  25.  H 9 (s)      0.0000  0.0000  0.0000  0.0000  0.0000  0.0000  0.0000  0.0000
  26.  H10 (s)      0.0000  0.0000  0.0000  0.0000  0.0000  0.0000  0.0000  0.0000
  27.  H11 (s)      0.0000  0.0000  0.0000  0.0000  0.0000  0.0000  0.0000  0.0000
  28.  H12 (s)      0.0000  0.0000  0.0000  0.0000  0.0000  0.0000  0.0000  0.0000
  29.  H13 (s)      0.0000  0.0000  0.0000  0.0000  0.0000  0.0000  0.0000  0.0000

           AO          9      10      11      12      13      14      15      16
      ------------ ------- ------- ------- ------- ------- ------- ------- -------
   1.  N 1 (s)      0.0000  0.0000  0.0000  0.0000  0.0000  0.0000  0.0000  0.0000
   2.  N 1 (s)      0.0000  0.0000  0.0000  0.0000  0.0000  0.0000  0.0000  0.0000
   3.  N 1 (px)     0.0000  0.0000  0.0000  0.0000  0.0000  0.0000  0.0000  0.0000
   4.  N 1 (py)     0.0000  0.0000  0.0000  0.0000  0.0000  0.0000  0.0000  0.0000
   5.  N 1 (pz)     0.0000  0.0000  0.0000  0.0000  0.0000  0.0000  0.0000  0.0000
   6.  C 2 (s)      0.0000  0.0000  0.0000  0.0000  0.0000  0.0000  0.0000  0.0000
   7.  C 2 (s)      0.0000  0.0000  0.0000  0.0000  0.0000  0.0000  0.0000  0.0000
   8.  C 2 (px)     0.0000  0.0000  0.0000  0.0000  0.0000  0.0000  0.0000  0.0000
   9.  C 2 (py)     1.0000  0.0000  0.0000  0.0000  0.0000  0.0000  0.0000  0.0000
  10.  C 2 (pz)     0.0000  1.0000  0.0000  0.0000  0.0000  0.0000  0.0000  0.0000
  11.  C 3 (s)      0.0000  0.0000  0.9843 -0.3112  0.0000  0.0000  0.0000  0.0000
  12.  C 3 (s)      0.0000  0.0000  0.0570  1.0308  0.0000  0.0000  0.0000  0.0000
  13.  C 3 (px)     0.0000  0.0000  0.0000  0.0000  1.0000  0.0000  0.0000  0.0000
  14.  C 3 (py)     0.0000  0.0000  0.0000  0.0000  0.0000  1.0000  0.0000  0.0000
  15.  C 3 (pz)     0.0000  0.0000  0.0000  0.0000  0.0000  0.0000  1.0000  0.0000
  16.  C 4 (s)      0.0000  0.0000  0.0000  0.0000  0.0000  0.0000  0.0000  0.9843
  17.  C 4 (s)      0.0000  0.0000  0.0000  0.0000  0.0000  0.0000  0.0000  0.0570
  18.  C 4 (px)     0.0000  0.0000  0.0000  0.0000  0.0000  0.0000  0.0000  0.0000
  19.  C 4 (py)     0.0000  0.0000  0.0000  0.0000  0.0000  0.0000  0.0000  0.0000
  20.  C 4 (pz)     0.0000  0.0000  0.0000  0.0000  0.0000  0.0000  0.0000  0.0000
  21.  H 5 (s)      0.0000  0.0000  0.0000  0.0000  0.0000  0.0000  0.0000  0.0000
  22.  H 6 (s)      0.0000  0.0000  0.0000  0.0000  0.0000  0.0000  0.0000  0.0000
  23.  H 7 (s)      0.0000  0.0000  0.0000  0.0000  0.0000  0.0000  0.0000  0.0000
  24.  H 8 (s)      0.0000  0.0000  0.0000  0.0000  0.0000  0.0000  0.0000  0.0000
  25.  H 9 (s)      0.0000  0.0000  0.0000  0.0000  0.0000  0.0000  0.0000  0.0000
  26.  H10 (s)      0.0000  0.0000  0.0000  0.0000  0.0000  0.0000  0.0000  0.0000
  27.  H11 (s)      0.0000  0.0000  0.0000  0.0000  0.0000  0.0000  0.0000  0.0000
  28.  H12 (s)      0.0000  0.0000  0.0000  0.0000  0.0000  0.0000  0.0000  0.0000
  29.  H13 (s)      0.0000  0.0000  0.0000  0.0000  0.0000  0.0000  0.0000  0.0000

           AO         17      18      19      20      21      22      23      24
      ------------ ------- ------- ------- ------- ------- ------- ------- -------
   1.  N 1 (s)      0.0000  0.0000  0.0000  0.0000  0.0000  0.0000  0.0000  0.0000
   2.  N 1 (s)      0.0000  0.0000  0.0000  0.0000  0.0000  0.0000  0.0000  0.0000
   3.  N 1 (px)     0.0000  0.0000  0.0000  0.0000  0.0000  0.0000  0.0000  0.0000
   4.  N 1 (py)     0.0000  0.0000  0.0000  0.0000  0.0000  0.0000  0.0000  0.0000
   5.  N 1 (pz)     0.0000  0.0000  0.0000  0.0000  0.0000  0.0000  0.0000  0.0000
   6.  C 2 (s)      0.0000  0.0000  0.0000  0.0000  0.0000  0.0000  0.0000  0.0000
   7.  C 2 (s)      0.0000  0.0000  0.0000  0.0000  0.0000  0.0000  0.0000  0.0000
[...]
       1.996 0.009 0.000 0.000 0.000 0.000
      Eigenvector ( 1) has occupancy 1.99569
            0.0000 0.7226 0.0000 0.0000 0.0000 0.6913
      Occupancy is 1.996 after deleting minor hybrid components
            0.0000 0.7226 0.0000 0.0000 0.0000 0.6913
           NBO accepted:   26. Label:BD ( 1)   4  12
      Occupancy is 0.009 for antibonding component
            0.0000-0.6913 0.0000 0.0000 0.0000 0.7226
           NBO accepted:   27. Label:BD*( 1)   4  12
        2 eigenvector(s) stashed in permanent list

 Search of NHO DM block for the following atom(s):   4  13
      Select eigenvectors with eigenvalue > 1.900
       1.996 0.009 0.000 0.000 0.000 0.000
      Eigenvector ( 1) has occupancy 1.99569
            0.0000 0.0000 0.7226 0.0000 0.0000 0.6913
      Occupancy is 1.996 after deleting minor hybrid components
            0.0000 0.0000 0.7226 0.0000 0.0000 0.6913
           NBO accepted:   28. Label:BD ( 1)   4  13
      Occupancy is 0.009 for antibonding component
            0.0000 0.0000-0.6913 0.0000 0.0000 0.7226
           NBO accepted:   29. Label:BD*( 1)   4  13
        2 eigenvector(s) stashed in permanent list

  2-center NBOs projected from the NHO density matrix
       0.000 electrons remain in the fully projected matrix

                            Occupancies       Lewis Structure    Low   High
         Max    Occ     -------------------  -----------------   occ   occ
  Cycle  Ctr   Thresh    Lewis   non-Lewis     CR  BD  nC  LP    (L)   (NL)
 ============================================================================
    1     2     1.90    33.84969   0.15031      4  12   0   1     0      0
 ----------------------------------------------------------------------------

 Structure accepted: No low occupancy Lewis orbitals

 -------------------------------------------------------
   Core                      7.99998 (100.000% of   8)
   Valence Lewis            25.84971 ( 99.422% of  26)
  ==================      =============================
   Total Lewis              33.84969 ( 99.558% of  34)
  -----------------------------------------------------
   Valence non-Lewis         0.15031 (  0.442% of  34)
   Rydberg non-Lewis         0.00000 (  0.000% of  34)
  ==================      =============================
   Total non-Lewis           0.15031 (  0.442% of  34)
 -------------------------------------------------------


     (Occupancy)   Bond orbital / Coefficients / Hybrids
 ------------------ Lewis ------------------------------------------------------
   1. (2.00000) CR ( 1) N  1            s(100.00%)
                                         1.0000  0.0000  0.0000  0.0000  0.0000
   2. (1.99999) CR ( 1) C  2            s(100.00%)
                                         1.0000  0.0000  0.0000  0.0000  0.0000
   3. (1.99999) CR ( 1) C  3            s(100.00%)
                                         1.0000  0.0000  0.0000  0.0000  0.0000
   4. (1.99999) CR ( 1) C  4            s(100.00%)
                                         1.0000  0.0000  0.0000  0.0000  0.0000
   5. (1.93650) LP ( 1) N  1            s( 29.35%)p 2.41( 70.65%)
                                         0.0000  0.5418  0.0000  0.0000  0.8405
   6. (1.98257) BD ( 1) N  1- C  2
               ( 55.24%)   0.7433* N  1 s( 23.55%)p 3.25( 76.45%)
                                         0.0000  0.4853  0.0000  0.8165 -0.3128
               ( 44.76%)   0.6690* C  2 s( 24.34%)p 3.11( 75.66%)
                                         0.0000  0.4934  0.0000 -0.8338  0.2476
   7. (1.98257) BD ( 1) N  1- C  3
               ( 55.24%)   0.7433* N  1 s( 23.55%)p 3.25( 76.45%)
                                         0.0000  0.4853  0.7071 -0.4082 -0.3128
               ( 44.76%)   0.6690* C  3 s( 24.34%)p 3.11( 75.66%)
                                         0.0000  0.4934 -0.7221  0.4169  0.2476
   8. (1.98257) BD ( 1) N  1- C  4
               ( 55.24%)   0.7433* N  1 s( 23.55%)p 3.25( 76.45%)
                                         0.0000  0.4853 -0.7071 -0.4082 -0.3128
               ( 44.76%)   0.6690* C  4 s( 24.34%)p 3.11( 75.66%)
                                         0.0000  0.4934  0.7221  0.4169  0.2476
   9. (1.99711) BD ( 1) C  2- H  5
               ( 51.61%)   0.7184* C  2 s( 25.05%)p 2.99( 74.95%)
                                         0.0000  0.5005  0.0000  0.0394 -0.8648
               ( 48.39%)   0.6957* H  5 s(100.00%)
                                         1.0000
  10. (1.99569) BD ( 1) C  2- H  6
               ( 52.21%)   0.7226* C  2 s( 25.30%)p 2.95( 74.70%)
                                         0.0000  0.5030  0.7071  0.3893  0.3089
               ( 47.79%)   0.6913* H  6 s(100.00%)
                                         1.0000
  11. (1.99569) BD ( 1) C  2- H  7
               ( 52.21%)   0.7226* C  2 s( 25.30%)p 2.95( 74.70%)
                                         0.0000  0.5030 -0.7071  0.3893  0.3089
               ( 47.79%)   0.6913* H  7 s(100.00%)
                                         1.0000
  12. (1.99711) BD ( 1) C  3- H  8
               ( 51.61%)   0.7184* C  3 s( 25.05%)p 2.99( 74.95%)
                                         0.0000  0.5005  0.0341 -0.0197 -0.8648
               ( 48.39%)   0.6957* H  8 s(100.00%)
                                         1.0000
  13. (1.99569) BD ( 1) C  3- H  9
               ( 52.21%)   0.7226* C  3 s( 25.30%)p 2.95( 74.70%)
                                         0.0000  0.5030 -0.0164 -0.8070  0.3089
               ( 47.79%)   0.6913* H  9 s(100.00%)
                                         1.0000
  14. (1.99569) BD ( 1) C  3- H 10
               ( 52.21%)   0.7226* C  3 s( 25.30%)p 2.95( 74.70%)
                                         0.0000  0.5030  0.6907  0.4177  0.3089
               ( 47.79%)   0.6913* H 10 s(100.00%)
                                         1.0000
  15. (1.99711) BD ( 1) C  4- H 11
               ( 51.61%)   0.7184* C  4 s( 25.05%)p 2.99( 74.95%)
                                         0.0000  0.5005 -0.0341 -0.0197 -0.8648
               ( 48.39%)   0.6957* H 11 s(100.00%)
                                         1.0000
  16. (1.99569) BD ( 1) C  4- H 12
               ( 52.21%)   0.7226* C  4 s( 25.30%)p 2.95( 74.70%)
                                         0.0000  0.5030 -0.6907  0.4177  0.3089
               ( 47.79%)   0.6913* H 12 s(100.00%)
                                         1.0000
  17. (1.99569) BD ( 1) C  4- H 13
               ( 52.21%)   0.7226* C  4 s( 25.30%)p 2.95( 74.70%)
                                         0.0000  0.5030  0.0164 -0.8070  0.3089
               ( 47.79%)   0.6913* H 13 s(100.00%)
                                         1.0000
 ---------------- non-Lewis ----------------------------------------------------
  18. (0.01208) BD*( 1) N  1- C  2
               ( 44.76%)   0.6690* N  1 s( 23.55%)p 3.25( 76.45%)
                                         0.0000 -0.4853  0.0000 -0.8165  0.3128
               ( 55.24%)  -0.7433* C  2 s( 24.34%)p 3.11( 75.66%)
                                         0.0000 -0.4934  0.0000  0.8338 -0.2476
  19. (0.01208) BD*( 1) N  1- C  3
               ( 44.76%)   0.6690* N  1 s( 23.55%)p 3.25( 76.45%)
                                         0.0000 -0.4853 -0.7071  0.4082  0.3128
               ( 55.24%)  -0.7433* C  3 s( 24.34%)p 3.11( 75.66%)
                                         0.0000 -0.4934  0.7221 -0.4169 -0.2476
  20. (0.01208) BD*( 1) N  1- C  4
               ( 44.76%)   0.6690* N  1 s( 23.55%)p 3.25( 76.45%)
                                         0.0000 -0.4853  0.7071  0.4082  0.3128
               ( 55.24%)  -0.7433* C  4 s( 24.34%)p 3.11( 75.66%)
                                         0.0000 -0.4934 -0.7221 -0.4169 -0.2476
  21. (0.02019) BD*( 1) C  2- H  5
               ( 48.39%)   0.6957* C  2 s( 25.05%)p 2.99( 74.95%)
                                         0.0000 -0.5005  0.0000 -0.0394  0.8648
               ( 51.61%)  -0.7184* H  5 s(100.00%)
                                        -1.0000
  22. (0.00892) BD*( 1) C  2- H  6
               ( 47.79%)   0.6913* C  2 s( 25.30%)p 2.95( 74.70%)
                                         0.0000 -0.5030 -0.7071 -0.3893 -0.3089
               ( 52.21%)  -0.7226* H  6 s(100.00%)
                                        -1.0000
  23. (0.00892) BD*( 1) C  2- H  7
               ( 47.79%)   0.6913* C  2 s( 25.30%)p 2.95( 74.70%)
                                         0.0000 -0.5030  0.7071 -0.3893 -0.3089
               ( 52.21%)  -0.7226* H  7 s(100.00%)
                                        -1.0000
  24. (0.02019) BD*( 1) C  3- H  8
               ( 48.39%)   0.6957* C  3 s( 25.05%)p 2.99( 74.95%)
                                         0.0000 -0.5005 -0.0341  0.0197  0.8648
               ( 51.61%)  -0.7184* H  8 s(100.00%)
                                        -1.0000
  25. (0.00892) BD*( 1) C  3- H  9
               ( 47.79%)   0.6913* C  3 s( 25.30%)p 2.95( 74.70%)
                                         0.0000 -0.5030  0.0164  0.8070 -0.3089
               ( 52.21%)  -0.7226* H  9 s(100.00%)
                                        -1.0000
  26. (0.00892) BD*( 1) C  3- H 10
               ( 47.79%)   0.6913* C  3 s( 25.30%)p 2.95( 74.70%)
                                         0.0000 -0.5030 -0.6907 -0.4177 -0.3089
               ( 52.21%)  -0.7226* H 10 s(100.00%)
                                        -1.0000
  27. (0.02019) BD*( 1) C  4- H 11
               ( 48.39%)   0.6957* C  4 s( 25.05%)p 2.99( 74.95%)
                                         0.0000 -0.5005  0.0341  0.0197  0.8648
               ( 51.61%)  -0.7184* H 11 s(100.00%)
                                        -1.0000
  28. (0.00892) BD*( 1) C  4- H 12
               ( 47.79%)   0.6913* C  4 s( 25.30%)p 2.95( 74.70%)
                                         0.0000 -0.5030  0.6907 -0.4177 -0.3089
               ( 52.21%)  -0.7226* H 12 s(100.00%)
                                        -1.0000
  29. (0.00892) BD*( 1) C  4- H 13
               ( 47.79%)   0.6913* C  4 s( 25.30%)p 2.95( 74.70%)
                                         0.0000 -0.5030 -0.0164  0.8070 -0.3089
               ( 52.21%)  -0.7226* H 13 s(100.00%)
                                        -1.0000


 NHO DIRECTIONALITY AND BOND BENDING (deviation from line of nuclear centers at
                                      the position of maximum hybrid amplitude)

         [Thresholds for printing:  angular deviation  >  1.0 degree]
                                    p- or d-character  > 25.0%
                                    orbital occupancy  >  0.10e

                        Line of Centers        Hybrid 1             Hybrid 2
                        ---------------  -------------------  ------------------
           NBO            Theta   Phi    Theta   Phi    Dev   Theta   Phi    Dev
 ===============================================================================
   5. LP ( 1) N  1          --     --      0.0    0.0   --      --     --    --
   6. BD ( 1) N  1- C  2  108.5   90.0   111.6   90.0   3.1    73.4  270.0   1.9
   7. BD ( 1) N  1- C  3  108.5  330.0   111.6  330.0   3.1    73.4  150.0   1.9
   8. BD ( 1) N  1- C  4  108.5  210.0   111.6  210.0   3.1    73.4   30.0   1.9
   9. BD ( 1) C  2- H  5  175.7   90.0   177.1   90.0   1.4     --     --    --
  10. BD ( 1) C  2- H  6   69.5   30.1    69.1   28.9   1.2     --     --    --
  11. BD ( 1) C  2- H  7   69.5  149.9    69.1  151.1   1.2     --     --    --
  12. BD ( 1) C  3- H  8  175.7  330.0   177.1  330.0   1.4     --     --    --
  13. BD ( 1) C  3- H  9   69.5  270.1    69.1  268.9   1.2     --     --    --
  14. BD ( 1) C  3- H 10   69.5   29.9    69.1   31.1   1.2     --     --    --
  15. BD ( 1) C  4- H 11  175.7  210.0   177.1  210.0   1.4     --     --    --
  16. BD ( 1) C  4- H 12   69.5  150.1    69.1  148.9   1.2     --     --    --
  17. BD ( 1) C  4- H 13   69.5  269.9    69.1  271.1   1.2     --     --    --


 SECOND ORDER PERTURBATION THEORY ANALYSIS OF FOCK MATRIX IN NBO BASIS

     Threshold for printing:   0.50 kcal/mol
                                                          E(2) E(NL)-E(L) F(L,NL)
      Donor (L) NBO              Acceptor (NL) NBO      kcal/mol   a.u.    a.u.
 ===============================================================================

 within unit  1
    5. LP ( 1) N  1            21. BD*( 1) C  2- H  5      8.70    1.10   0.087
    5. LP ( 1) N  1            22. BD*( 1) C  2- H  6      1.52    1.12   0.037
    5. LP ( 1) N  1            23. BD*( 1) C  2- H  7      1.52    1.12   0.037
    5. LP ( 1) N  1            24. BD*( 1) C  3- H  8      8.70    1.10   0.087
    5. LP ( 1) N  1            25. BD*( 1) C  3- H  9      1.52    1.12   0.037
    5. LP ( 1) N  1            26. BD*( 1) C  3- H 10      1.52    1.12   0.037
    5. LP ( 1) N  1            27. BD*( 1) C  4- H 11      8.70    1.10   0.087
    5. LP ( 1) N  1            28. BD*( 1) C  4- H 12      1.52    1.12   0.037
    5. LP ( 1) N  1            29. BD*( 1) C  4- H 13      1.52    1.12   0.037
    6. BD ( 1) N  1- C  2      19. BD*( 1) N  1- C  3      1.76    1.42   0.045
    6. BD ( 1) N  1- C  2      20. BD*( 1) N  1- C  4      1.76    1.42   0.045
    6. BD ( 1) N  1- C  2      21. BD*( 1) C  2- H  5      0.68    1.42   0.028
    6. BD ( 1) N  1- C  2      25. BD*( 1) C  3- H  9      3.04    1.44   0.059
    6. BD ( 1) N  1- C  2      29. BD*( 1) C  4- H 13      3.04    1.44   0.059
    7. BD ( 1) N  1- C  3      18. BD*( 1) N  1- C  2      1.76    1.42   0.045
    7. BD ( 1) N  1- C  3      20. BD*( 1) N  1- C  4      1.76    1.42   0.045
    7. BD ( 1) N  1- C  3      23. BD*( 1) C  2- H  7      3.04    1.44   0.059
    7. BD ( 1) N  1- C  3      24. BD*( 1) C  3- H  8      0.68    1.42   0.028
    7. BD ( 1) N  1- C  3      28. BD*( 1) C  4- H 12      3.04    1.44   0.059
    8. BD ( 1) N  1- C  4      18. BD*( 1) N  1- C  2      1.76    1.42   0.045
    8. BD ( 1) N  1- C  4      19. BD*( 1) N  1- C  3      1.76    1.42   0.045
    8. BD ( 1) N  1- C  4      22. BD*( 1) C  2- H  6      3.04    1.44   0.059
    8. BD ( 1) N  1- C  4      26. BD*( 1) C  3- H 10      3.04    1.44   0.059
    8. BD ( 1) N  1- C  4      27. BD*( 1) C  4- H 11      0.68    1.42   0.028
    9. BD ( 1) C  2- H  5      18. BD*( 1) N  1- C  2      1.19    1.32   0.035
   10. BD ( 1) C  2- H  6      20. BD*( 1) N  1- C  4      2.03    1.32   0.046
   11. BD ( 1) C  2- H  7      19. BD*( 1) N  1- C  3      2.03    1.32   0.046
   12. BD ( 1) C  3- H  8      19. BD*( 1) N  1- C  3      1.19    1.32   0.035
   13. BD ( 1) C  3- H  9      18. BD*( 1) N  1- C  2      2.03    1.32   0.046
   14. BD ( 1) C  3- H 10      20. BD*( 1) N  1- C  4      2.03    1.32   0.046
   15. BD ( 1) C  4- H 11      20. BD*( 1) N  1- C  4      1.19    1.32   0.035
   16. BD ( 1) C  4- H 12      19. BD*( 1) N  1- C  3      2.03    1.32   0.046
   17. BD ( 1) C  4- H 13      18. BD*( 1) N  1- C  2      2.03    1.32   0.046


 NATURAL BOND ORBITALS (Summary):

                                                     Principal Delocalizations
           NBO                 Occupancy    Energy   (geminal,vicinal,remote)
 ===============================================================================
 Molecular unit  1  (C3H9N)
 ------ Lewis --------------------------------------
    1. CR ( 1) N  1             2.00000   -15.29900
    2. CR ( 1) C  2             1.99999   -11.05446
    3. CR ( 1) C  3             1.99999   -11.05446
    4. CR ( 1) C  4             1.99999   -11.05446
    5. LP ( 1) N  1             1.93650    -0.40758  21(v),24(v),27(v),22(v)
                                                     23(v),25(v),26(v),28(v)
                                                     29(v)
    6. BD ( 1) N  1- C  2       1.98257    -0.72915  25(v),29(v),19(g),20(g)
                                                     21(g)
    7. BD ( 1) N  1- C  3       1.98257    -0.72915  23(v),28(v),18(g),20(g)
                                                     24(g)
    8. BD ( 1) N  1- C  4       1.98257    -0.72915  22(v),26(v),18(g),19(g)
                                                     27(g)
    9. BD ( 1) C  2- H  5       1.99711    -0.62533  18(g)
   10. BD ( 1) C  2- H  6       1.99569    -0.62686  20(v)
   11. BD ( 1) C  2- H  7       1.99569    -0.62686  19(v)
   12. BD ( 1) C  3- H  8       1.99711    -0.62533  19(g)
   13. BD ( 1) C  3- H  9       1.99569    -0.62686  18(v)
   14. BD ( 1) C  3- H 10       1.99569    -0.62686  20(v)
   15. BD ( 1) C  4- H 11       1.99711    -0.62533  20(g)
   16. BD ( 1) C  4- H 12       1.99569    -0.62686  19(v)
   17. BD ( 1) C  4- H 13       1.99569    -0.62686  18(v)
 ------ non-Lewis ----------------------------------
   18. BD*( 1) N  1- C  2       0.01208     0.68973
   19. BD*( 1) N  1- C  3       0.01208     0.68973
   20. BD*( 1) N  1- C  4       0.01208     0.68973
   21. BD*( 1) C  2- H  5       0.02019     0.69401
   22. BD*( 1) C  2- H  6       0.00892     0.71294
   23. BD*( 1) C  2- H  7       0.00892     0.71294
   24. BD*( 1) C  3- H  8       0.02019     0.69401
   25. BD*( 1) C  3- H  9       0.00892     0.71294
   26. BD*( 1) C  3- H 10       0.00892     0.71294
   27. BD*( 1) C  4- H 11       0.02019     0.69401
   28. BD*( 1) C  4- H 12       0.00892     0.71294
   29. BD*( 1) C  4- H 13       0.00892     0.71294
          -------------------------------
                 Total Lewis   33.84969  ( 99.5579%)
           Valence non-Lewis    0.15031  (  0.4421%)
           Rydberg non-Lewis    0.00000  (  0.0000%)
          -------------------------------
               Total unit  1   34.00000  (100.0000%)
              Charge unit  1    0.00000

 $CHOOSE
   LONE 1 1 END
   BOND S 1 2 S 1 3 S 1 4 S 2 5 S 2 6 S 2 7 S 3 8 S 3 9 S 3 10 S 4 11 S 4 12
        S 4 13 END
 $END

 NBO analysis completed in 0.37 CPU seconds (1 wall second)
 Maximum scratch memory used by NBO was 229114 words (1.75 MB)
 Maximum scratch memory used by G16NBO was 9673 words (0.07 MB)

 Opening RunExU unformatted file "/cluster/work/users/beto93/mol130/Gau-1813175.EUF"
 Read unf file /cluster/work/users/beto93/mol130/Gau-1813175.EUF:
 Label Gaussian matrix elements                                         IVers= 2 NLab= 2 Version=ES64L-G16RevC.01
 Title mol130-NBO                                                      
 NAtoms=    13 NBasis=    29 NBsUse=    29 ICharg=     0 Multip=     1 NE=    34 Len12L=8 Len4L=8 IOpCl= 0 ICGU=111
 GAUSSIAN SCALARS                    NI= 1 NR= 1 NTot=       1 LenBuf=    2 NRI=1 N=    1000
 NPA CHARGES                         NI= 0 NR= 1 NTot=      13 LenBuf= 4000 NRI=1 N=      13
 Recovered energy= -171.189014502     dipole=     -0.000000000000      0.000000051662     -0.413868970892
 Unable to Open any file for archive entry.
 1\1\GINC-C3-25\SP\RHF\STO-3G\C3H9N1\BETO93\18-Nov-2024\0\\#RHF/STO-3G 
 int=nobasistransform Symmetry=None 5D 7F Pop=NBO7Read\\mol130-NBO\\0,1
 \N,0,0.,0.,0.395846\C,0,0.,1.378021,-0.065175\C,0,1.193401,-0.689011,-
 0.065175\C,0,-1.193401,-0.689011,-0.065175\H,0,0.,1.461142,-1.167899\H
 ,0,0.886156,1.891052,0.317655\H,0,-0.886156,1.891052,0.317655\H,0,1.26
 5386,-0.730571,-1.167899\H,0,1.194621,-1.71296,0.317655\H,0,2.080777,-
 0.178092,0.317655\H,0,-1.265386,-0.730571,-1.167899\H,0,-2.080777,-0.1
 78092,0.317655\H,0,-1.194621,-1.71296,0.317655\\Version=ES64L-G16RevC.
 01\HF=-171.1890145\RMSD=6.375e-09\Dipole=0.,0.,-0.413869\Quadrupole=0.
 6047098,0.6047147,-1.2094245,0.,0.,-0.0000003\PG=Unknown\\@
 The archive entry for this job was punched.


 NEVER TEACH A PIG TO SING.
 IT WASTES YOUR TIME AND ANNOYS THE PIG.
     -- SEEN ON A GREETING CARD
 Job cpu time:       0 days  0 hours  0 minutes  9.0 seconds.
 Elapsed time:       0 days  0 hours  0 minutes  2.9 seconds.
 File lengths (MBytes):  RWF=     10 Int=      0 D2E=      0 Chk=      1 Scr=      1
 Normal termination of Gaussian 16 at Mon Nov 18 15:41:48 2024.
