 Entering Gaussian System, Link 0=g16
 Initial command:
 /cluster/software/Gaussian/g16_C.01/l1.exe "/cluster/work/users/beto93/mol82/Gau-27269.inp" -scrdir="/cluster/work/users/beto93/mol82/"
 Entering Link 1 = /cluster/software/Gaussian/g16_C.01/l1.exe PID=     27280.
  
 Copyright (c) 1988-2019, Gaussian, Inc.  All Rights Reserved.
  
 This is part of the Gaussian(R) 16 program.  It is based on
 the Gaussian(R) 09 system (copyright 2009, Gaussian, Inc.),
 the Gaussian(R) 03 system (copyright 2003, Gaussian, Inc.),
 the Gaussian(R) 98 system (copyright 1998, Gaussian, Inc.),
 the Gaussian(R) 94 system (copyright 1995, Gaussian, Inc.),
 the Gaussian 92(TM) system (copyright 1992, Gaussian, Inc.),
 the Gaussian 90(TM) system (copyright 1990, Gaussian, Inc.),
 the Gaussian 88(TM) system (copyright 1988, Gaussian, Inc.),
 the Gaussian 86(TM) system (copyright 1986, Carnegie Mellon
 University), and the Gaussian 82(TM) system (copyright 1983,
 Carnegie Mellon University). Gaussian is a federally registered
 trademark of Gaussian, Inc.
  
 This software contains proprietary and confidential information,
 including trade secrets, belonging to Gaussian, Inc.
  
 This software is provided under written license and may be
 used, copied, transmitted, or stored only in accord with that
 written license.
  
 The following legend is applicable only to US Government
 contracts under FAR:
  
                    RESTRICTED RIGHTS LEGEND
  
 Use, reproduction and disclosure by the US Government is
 subject to restrictions as set forth in subparagraphs (a)
 and (c) of the Commercial Computer Software - Restricted
 Rights clause in FAR 52.227-19.
  
 Gaussian, Inc.
 340 Quinnipiac St., Bldg. 40, Wallingford CT 06492
  
  
 ---------------------------------------------------------------
 Warning -- This program may not be used in any manner that
 competes with the business of Gaussian, Inc. or will provide
 assistance to any competitor of Gaussian, Inc.  The licensee
 of this program is prohibited from giving any competitor of
 Gaussian, Inc. access to this program.  By using this program,
 the user acknowledges that Gaussian, Inc. is engaged in the
 business of creating and licensing software in the field of
 computational chemistry and represents and warrants to the
 licensee that it is not a competitor of Gaussian, Inc. and that
 it will not use this program in any manner prohibited above.
 ---------------------------------------------------------------
  

 Cite this work as:
 Gaussian 16, Revision C.01,
 M. J. Frisch, G. W. Trucks, H. B. Schlegel, G. E. Scuseria, 
 M. A. Robb, J. R. Cheeseman, G. Scalmani, V. Barone, 
 G. A. Petersson, H. Nakatsuji, X. Li, M. Caricato, A. V. Marenich, 
 J. Bloino, B. G. Janesko, R. Gomperts, B. Mennucci, H. P. Hratchian, 
 J. V. Ortiz, A. F. Izmaylov, J. L. Sonnenberg, D. Williams-Young, 
 F. Ding, F. Lipparini, F. Egidi, J. Goings, B. Peng, A. Petrone, 
 T. Henderson, D. Ranasinghe, V. G. Zakrzewski, J. Gao, N. Rega, 
 G. Zheng, W. Liang, M. Hada, M. Ehara, K. Toyota, R. Fukuda, 
 J. Hasegawa, M. Ishida, T. Nakajima, Y. Honda, O. Kitao, H. Nakai, 
 T. Vreven, K. Throssell, J. A. Montgomery, Jr., J. E. Peralta, 
 F. Ogliaro, M. J. Bearpark, J. J. Heyd, E. N. Brothers, K. N. Kudin, 
 V. N. Staroverov, T. A. Keith, R. Kobayashi, J. Normand, 
 K. Raghavachari, A. P. Rendell, J. C. Burant, S. S. Iyengar, 
 J. Tomasi, M. Cossi, J. M. Millam, M. Klene, C. Adamo, R. Cammi, 
 J. W. Ochterski, R. L. Martin, K. Morokuma, O. Farkas, 
 J. B. Foresman, and D. J. Fox, Gaussian, Inc., Wallingford CT, 2019.
 
 ******************************************
 Gaussian 16:  ES64L-G16RevC.01  3-Jul-2019
                18-Nov-2024 
 ******************************************
 %LindaWorkers=c5-5-ib
 %NProcShared=4
 Will use up to    4 processors via shared memory.
 %mem=25GB
 %chk=mol82.chk
 SetLPE:    new flags="-opt 'Tsnet.Node.lindarsharg: ssh'  -nodelist 'c5-5-ib.saga' -env GAUSS_MDEF=3355443200 -env GAUSS_EXEDIR="/cluster/software/Gaussian/g16_C.01/bsd:/cluster/software/Gaussian/g16_C.01""
 Will use up to    1 processors via Linda.
 -----------------------------------------------------------------
 #RHF/STO-3G int=nobasistransform Symmetry=None 5D 7F Pop=NBO7Read
 -----------------------------------------------------------------
 1/38=1,163=2,172=1/1;
 2/12=2,15=3,17=6,18=5,40=1/2;
 3/6=3,8=11,11=1,25=1,30=1,60=-1,116=1/1,2,3;
 4//1;
 5/5=2,38=5/2;
 6/7=2,8=2,9=2,10=2,28=1,40=2,113=1,114=1,124=2103/1,12;
 99/5=1,9=1/99;
 ---------
 mol82-NBO
 ---------
 Symbolic Z-matrix:
 Charge =  0 Multiplicity = 1
 C                     0.60571   1.74655   0. 
 C                     0.60571   0.40408   0. 
 C                    -0.60571  -0.40408   0. 
 C                    -0.60571  -1.74655   0. 
 H                     1.52762   2.31744   0. 
 H                    -0.32113   2.31312   0. 
 H                     1.5535   -0.13364   0. 
 H                    -1.5535    0.13364   0. 
 H                     0.32113  -2.31312   0. 
 H                    -1.52762  -2.31744   0. 
 
                          Input orientation:                          
 ---------------------------------------------------------------------
 Center     Atomic      Atomic             Coordinates (Angstroms)
 Number     Number       Type             X           Y           Z
 ---------------------------------------------------------------------
      1          6           0        0.605711    1.746550    0.000000
      2          6           0        0.605711    0.404083    0.000000
      3          6           0       -0.605711   -0.404083    0.000000
      4          6           0       -0.605711   -1.746550    0.000000
      5          1           0        1.527617    2.317443    0.000000
      6          1           0       -0.321132    2.313116    0.000000
      7          1           0        1.553503   -0.133640    0.000000
      8          1           0       -1.553503    0.133640    0.000000
      9          1           0        0.321132   -2.313116    0.000000
     10          1           0       -1.527617   -2.317443    0.000000
 ---------------------------------------------------------------------
                    Distance matrix (angstroms):
                    1          2          3          4          5
     1  C    0.000000
     2  C    1.342467   0.000000
     3  C    2.468353   1.456254   0.000000
     4  C    3.697200   2.468353   1.342467   0.000000
     5  H    1.084357   2.123878   3.458004   4.589894   0.000000
     6  H    1.086294   2.122132   2.732061   4.069628   1.848754
     7  H    2.105570   1.089704   2.176085   2.695122   2.451220
     8  H    2.695122   2.176085   1.089704   2.105570   3.776546
     9  H    4.069628   2.732061   2.122132   1.086294   4.785152
    10  H    4.589894   3.458004   2.123878   1.084357   5.551272
                    6          7          8          9         10
     6  H    0.000000
     7  H    3.082348   0.000000
     8  H    2.503768   3.118481   0.000000
     9  H    4.670602   2.503768   3.082348   0.000000
    10  H    4.785152   3.776546   2.451220   1.848754   0.000000
 Symmetry turned off by external request.
 Stoichiometry    C4H6
 Rotational constants (GHZ):          41.9743547           4.4284248           4.0058004
 Standard basis: STO-3G (5D, 7F)
    26 basis functions,    78 primitive gaussians,    26 cartesian basis functions
    15 alpha electrons       15 beta electrons
       nuclear repulsion energy       103.6073980066 Hartrees.
 NAtoms=   10 NActive=   10 NUniq=   10 SFac= 1.00D+00 NAtFMM=   60 NAOKFM=F Big=F
 Integral buffers will be    131072 words long.
 Raffenetti 1 integral format.
 Two-electron integral symmetry is turned off.
 One-electron integrals computed using PRISM.
 NBasis=    26 RedAO= T EigKep=  1.87D-01  NBF=    26
 NBsUse=    26 1.00D-06 EigRej= -1.00D+00 NBFU=    26
 ExpMin= 1.69D-01 ExpMax= 7.16D+01 ExpMxC= 7.16D+01 IAcc=3 IRadAn=         5 AccDes= 0.00D+00
 Harris functional with IExCor=  205 and IRadAn=       5 diagonalized for initial guess.
 HarFok:  IExCor=  205 AccDes= 0.00D+00 IRadAn=         5 IDoV= 1 UseB2=F ITyADJ=14
 ICtDFT=  3500011 ScaDFX=  1.000000  1.000000  1.000000  1.000000
 FoFCou: FMM=F IPFlag=           0 FMFlag=      100000 FMFlg1=           0
         NFxFlg=           0 DoJE=T BraDBF=F KetDBF=T FulRan=T
         wScrn=  0.000000 ICntrl=       500 IOpCl=  0 I1Cent=   200000004 NGrid=           0
         NMat0=    1 NMatS0=      1 NMatT0=    0 NMatD0=    1 NMtDS0=    0 NMtDT0=    0
 Symmetry not used in FoFCou.
 Keep R1 ints in memory in canonical form, NReq=876707.
 Requested convergence on RMS density matrix=1.00D-08 within 128 cycles.
 Requested convergence on MAX density matrix=1.00D-06.
 Requested convergence on             energy=1.00D-06.
 No special actions if energy rises.
 SCF Done:  E(RHF) =  -153.017126746     A.U. after   10 cycles
            NFock= 10  Conv=0.88D-09     -V/T= 2.0073

 **********************************************************************

            Population analysis using the SCF Density.

 **********************************************************************

 Alpha  occ. eigenvalues --  -11.03109 -11.03096 -11.01696 -11.01695  -1.03162
 Alpha  occ. eigenvalues --   -0.94087  -0.77189  -0.70653  -0.59149  -0.58750
 Alpha  occ. eigenvalues --   -0.49737  -0.49392  -0.44034  -0.39511  -0.26137
 Alpha virt. eigenvalues --    0.24211   0.41678   0.58845   0.67268   0.68296
 Alpha virt. eigenvalues --    0.69359   0.69974   0.87200   0.90614   1.01204
 Alpha virt. eigenvalues --    1.07242
          Condensed to atoms (all electrons):
               1          2          3          4          5          6
     1  C    4.809449   0.591000  -0.029067   0.000724   0.392945   0.391002
     2  C    0.591000   4.768499   0.415105  -0.029067  -0.024614  -0.025301
     3  C   -0.029067   0.415105   4.768499   0.591000   0.001398  -0.004222
     4  C    0.000724  -0.029067   0.591000   4.809449  -0.000020   0.000027
     5  H    0.392945  -0.024614   0.001398  -0.000020   0.596295  -0.023787
     6  H    0.391002  -0.025301  -0.004222   0.000027  -0.023787   0.599565
     7  H   -0.027319   0.390717  -0.025635  -0.003271  -0.004542   0.001938
     8  H   -0.003271  -0.025635   0.390717  -0.027319   0.000007   0.000677
     9  H    0.000027  -0.004222  -0.025301   0.391002  -0.000001   0.000001
    10  H   -0.000020   0.001398  -0.024614   0.392945   0.000000  -0.000001
               7          8          9         10
     1  C   -0.027319  -0.003271   0.000027  -0.000020
     2  C    0.390717  -0.025635  -0.004222   0.001398
     3  C   -0.025635   0.390717  -0.025301  -0.024614
     4  C   -0.003271  -0.027319   0.391002   0.392945
     5  H   -0.004542   0.000007  -0.000001   0.000000
     6  H    0.001938   0.000677   0.000001  -0.000001
     7  H    0.604936   0.001562   0.000677   0.000007
     8  H    0.001562   0.604936   0.001938  -0.004542
     9  H    0.000677   0.001938   0.599565  -0.023787
    10  H    0.000007  -0.004542  -0.023787   0.596295
 Mulliken charges:
               1
     1  C   -0.125470
     2  C   -0.057880
     3  C   -0.057880
     4  C   -0.125470
     5  H    0.062319
     6  H    0.060101
     7  H    0.060930
     8  H    0.060930
     9  H    0.060101
    10  H    0.062319
 Sum of Mulliken charges =  -0.00000
 Mulliken charges with hydrogens summed into heavy atoms:
               1
     1  C   -0.003050
     2  C    0.003050
     3  C    0.003050
     4  C   -0.003050
 Electronic spatial extent (au):  <R**2>=            332.4520
 Charge=             -0.0000 electrons
 Dipole moment (field-independent basis, Debye):
    X=             -0.0000    Y=             -0.0000    Z=              0.0000  Tot=              0.0000
 Quadrupole moment (field-independent basis, Debye-Ang):
   XX=            -22.2471   YY=            -22.4624   ZZ=            -25.1680
   XY=             -0.1757   XZ=              0.0000   YZ=             -0.0000
 Traceless Quadrupole moment (field-independent basis, Debye-Ang):
   XX=              1.0454   YY=              0.8301   ZZ=             -1.8755
   XY=             -0.1757   XZ=              0.0000   YZ=             -0.0000
 Octapole moment (field-independent basis, Debye-Ang**2):
  XXX=             -0.0000  YYY=             -0.0000  ZZZ=              0.0000  XYY=             -0.0000
  XXY=             -0.0000  XXZ=              0.0000  XZZ=             -0.0000  YZZ=             -0.0000
  YYZ=             -0.0000  XYZ=              0.0000
 Hexadecapole moment (field-independent basis, Debye-Ang**3):
 XXXX=            -98.8493 YYYY=           -294.0096 ZZZZ=            -20.3700 XXXY=            -46.1073
 XXXZ=              0.0000 YYYX=            -46.7396 YYYZ=             -0.0000 ZZZX=              0.0000
 ZZZY=             -0.0000 XXYY=            -60.7453 XXZZ=            -22.0930 YYZZ=            -56.8126
 XXYZ=              0.0000 YYXZ=              0.0000 ZZXY=            -17.5719
 N-N= 1.036073980066D+02 E-N=-5.635291427551D+02  KE= 1.519080054023D+02
 Running external command "gaunbo7 R"
         input file       "/cluster/work/users/beto93/mol82/Gau-27280.EIn"
         output file      "/cluster/work/users/beto93/mol82/Gau-27280.EOu"
         message file     "/cluster/work/users/beto93/mol82/Gau-27280.EMs"
         fchk file        "/cluster/work/users/beto93/mol82/Gau-27280.EFC"
         mat. el file     "/cluster/work/users/beto93/mol82/Gau-27280.EUF"

 Writing WrtUnf unformatted file "/cluster/work/users/beto93/mol82/Gau-27280.EUF"
 Gaussian matrix elements                                         Version   2 NLab=11 Len12L=8 Len4L=8
 Write SHELL TO ATOM MAP                   from file      0 offset           0 length                  14 to matrix element file.
 Write SHELL TYPES                         from file      0 offset           0 length                  14 to matrix element file.
 Write NUMBER OF PRIMITIVES PER SHELL      from file      0 offset           0 length                  14 to matrix element file.
 Write PRIMITIVE EXPONENTS                 from file      0 offset           0 length                  42 to matrix element file.
 Write CONTRACTION COEFFICIENTS            from file      0 offset           0 length                  42 to matrix element file.
 Write P(S=P) CONTRACTION COEFFICIENTS     from file      0 offset           0 length                  42 to matrix element file.
 Write COORDINATES OF EACH SHELL           from file      0 offset           0 length                  42 to matrix element file.
 Write BONDS PER ATOM                      from file      0 offset           0 length                  10 to matrix element file.
 Write BONDED ATOMS                        from file      0 offset           0 length                  18 to matrix element file.
 Write BOND TYPES                          from file      0 offset           0 length                  18 to matrix element file.
 Write ONIOM CHARGE/MULT                   from file      0 offset           0 length                  32 to matrix element file.
 Write ONIOM ATOM LAYERS                   from file      0 offset           0 length                  10 to matrix element file.
 Write ONIOM ATOM MODIFIERS                from file      0 offset           0 length                  10 to matrix element file.
 Write ONIOM ATOM TYPES                    from file      0 offset           0 length                  10 to matrix element file.
 Write ONIOM LINK ATOMS                    from file      0 offset           0 length                  10 to matrix element file.
 Write ONIOM LINK CHARGES                  from file      0 offset           0 length                  10 to matrix element file.
 Write ONIOM LINK DISTANCES                from file      0 offset           0 length                  40 to matrix element file.
 Write SYMINF INTS                         from file      0 offset           0 length                  26 to matrix element file.
 Write ROTTR TO SO                         from file      0 offset           0 length                  12 to matrix element file.
 Write GAUSSIAN SCALARS                    from file    501 offset           0 to matrix element file.
 Write OPTIMIZATION FLAGS                  from file      0 offset           0 length                  10 to matrix element file.
 Write INTEGER ISO                         from file      0 offset           0 length                  10 to matrix element file.
 Write INTEGER SPIN                        from file      0 offset           0 length                  10 to matrix element file.
 Write REAL ZEFFECTIVE                     from file      0 offset           0 length                  10 to matrix element file.
 Write REAL GFACTOR                        from file      0 offset           0 length                  10 to matrix element file.
 Write REAL ZNUCLEAR                       from file      0 offset           0 length                  10 to matrix element file.
 Write MULLIKEN CHARGES                    from file      0 offset           0 length                  10 to matrix element file.
 Write NUCLEAR GRADIENT                    from file  10584 offset           0 length                  30 to matrix element file.
 Array NUCLEAR FORCE CONSTANTS              on  file  10585 does not exist.
 Write ELECTRIC DIPOLE MOMENT              from file      0 offset           0 length                   3 to matrix element file.
 Write NON-ADIABATIC COUPLING              from file  10810 offset           0 length                  30 to matrix element file.
 Write FINITE EM FIELD                     from file  10521 offset           0 length                  35 to matrix element file.
 Write OVERLAP                             from file  10514 offset           0 length                 351 to matrix element file.
 Write CORE HAMILTONIAN ALPHA              from file  10515 offset           0 length                 351 to matrix element file.
 Write CORE HAMILTONIAN BETA               from file  10515 offset         351 length                 351 to matrix element file.
 Write KINETIC ENERGY                      from file  10516 offset           0 length                 351 to matrix element file.
 Write ORTHOGONAL BASIS                    from file  10685 offset           0 length                 676 to matrix element file.
 Write DIPOLE INTEGRALS                    from file  10518 offset           0 length                1053 to matrix element file.
 Array DIP VEL INTEGRALS                    on  file  10572 does not exist.
 Array R X DEL INTEGRALS                    on  file  10572 does not exist.
 Write ALPHA ORBITAL ENERGIES              from file      0 offset           0 length                  26 to matrix element file.
 Write ALPHA MO COEFFICIENTS               from file  10524 offset           0 length                 676 to matrix element file.
 Write ALPHA DENSITY MATRIX                from file      0 offset           0 length                 351 to matrix element file.
 Write ALPHA FOCK MATRIX                   from file  10536 offset           0 length                 351 to matrix element file.
 Write ENERGY-WEIGHTED DENSITY             from file  10571 offset           0 length                 351 to matrix element file.
 Write ALPHA SCF DENSITY MATRIX            from file      0 offset           0 length                 351 to matrix element file.
 No 2e integrals to process.
 Perform NBO analysis...executing G16NBO...

 *********************************** NBO 7.0 ***********************************
             N A T U R A L   A T O M I C   O R B I T A L   A N D
          N A T U R A L   B O N D   O R B I T A L   A N A L Y S I S
 **************************** Espen Tangen (S101595) ***************************
  (c) Copyright 1996-2021 Board of Regents of the University of Wisconsin System
      on behalf of the Theoretical Chemistry Institute.  All rights reserved.

          Cite this program [NBO 7.0.10 (8-Feb-2021)] as:

          NBO 7.0.  E. D. Glendening, J. K. Badenhoop, A. E. Reed,
          J. E. Carpenter, J. A. Bohmann, C. M. Morales, P. Karafiloglou,
          C. R. Landis, and F. Weinhold, Theoretical Chemistry Institute,
          University of Wisconsin, Madison, WI (2018)

       /NPA    / : Natural Population Analysis
       /AOPNAO / : Print the AO to PNAO transformation
       /AONAO  / : Print the AO to NAO transformation
       /AOMO   / : Print the MOs in the AO basis
       /BOAO   / : Print the AO bond-order matrix
       /DMAO   / : Print the AO density matrix
       /DMPNAO / : Print the PNAO density matrix
       /DMNAO  / : Print the NAO density matrix
       /DMMO   / : Print the MO density matrix
       /SAO    / : Print the AO overlap matrix
       /SPNAO  / : Print the PNAO overlap matrix
       /DETAIL / : Write details of NBO search
       /ARCHIVE/ : Write the archive file to lfn47
       /AOINFO / : Write AO information to lfn31
       /FILE   / : Set to mol82.gen*

 Filename set to mol82.gen1

 Job title: mol82-NBO


 MOs in the AO basis:

           AO          1       2       3       4       5       6       7       8
      ------------ ------- ------- ------- ------- ------- ------- ------- -------
   1.  C 1 (s)      0.0191  0.0174  0.7014  0.7014 -0.1018 -0.1454 -0.1225  0.0535
   2.  C 1 (s)     -0.0049 -0.0047  0.0256  0.0255  0.2647  0.3916  0.3636 -0.1679
   3.  C 1 (px)     0.0001  0.0000  0.0000  0.0000 -0.0067  0.0050  0.0291  0.1000
   4.  C 1 (py)     0.0032  0.0032 -0.0011 -0.0010 -0.0825 -0.0699  0.1143 -0.1453
   5.  C 1 (pz)     0.0000  0.0000  0.0000  0.0000  0.0000  0.0000  0.0000  0.0000
   6.  C 2 (s)      0.7010  0.7017 -0.0187 -0.0169 -0.1510 -0.0958  0.0834 -0.0956
   7.  C 2 (s)      0.0300  0.0210 -0.0064 -0.0058  0.3935  0.2556 -0.2500  0.2959
   8.  C 2 (px)    -0.0028  0.0023  0.0001 -0.0001 -0.0527  0.0432  0.0831  0.2037
   9.  C 2 (py)    -0.0011  0.0025 -0.0032 -0.0032  0.0170  0.1454  0.1772 -0.0808
  10.  C 2 (pz)     0.0000  0.0000  0.0000  0.0000  0.0000  0.0000  0.0000  0.0000
  11.  C 3 (s)     -0.7010  0.7017  0.0187 -0.0169 -0.1510  0.0958  0.0834  0.0956
  12.  C 3 (s)     -0.0300  0.0210  0.0064 -0.0058  0.3935 -0.2556 -0.2500 -0.2959
  13.  C 3 (px)    -0.0028 -0.0023  0.0001  0.0001  0.0527  0.0432 -0.0831  0.2037
  14.  C 3 (py)    -0.0011 -0.0025 -0.0032  0.0032 -0.0170  0.1454 -0.1772 -0.0808
  15.  C 3 (pz)     0.0000  0.0000  0.0000  0.0000  0.0000  0.0000  0.0000  0.0000
  16.  C 4 (s)     -0.0191  0.0174 -0.7014  0.7014 -0.1018  0.1454 -0.1225 -0.0535
  17.  C 4 (s)      0.0049 -0.0047 -0.0256  0.0255  0.2647 -0.3916  0.3636  0.1679
  18.  C 4 (px)     0.0001  0.0000  0.0000  0.0000  0.0067  0.0050 -0.0291  0.1000
  19.  C 4 (py)     0.0032 -0.0032 -0.0011  0.0010  0.0825 -0.0699 -0.1143 -0.1453
  20.  C 4 (pz)     0.0000  0.0000  0.0000  0.0000  0.0000  0.0000  0.0000  0.0000
  21.  H 5 (s)      0.0000 -0.0001 -0.0048 -0.0048  0.0544  0.1072  0.1861 -0.0632
  22.  H 6 (s)      0.0000 -0.0001 -0.0048 -0.0048  0.0600  0.1023  0.1548 -0.1774
  23.  H 7 (s)     -0.0049 -0.0048  0.0003  0.0001  0.0881  0.0616 -0.0981  0.2623
  24.  H 8 (s)      0.0049 -0.0048 -0.0003  0.0001  0.0881 -0.0616 -0.0981 -0.2623
  25.  H 9 (s)      0.0000 -0.0001  0.0048 -0.0048  0.0600 -0.1023  0.1548  0.1774
  26.  H10 (s)      0.0000 -0.0001  0.0048 -0.0048  0.0544 -0.1072  0.1861  0.0632

           AO          9      10      11      12      13      14      15      16
      ------------ ------- ------- ------- ------- ------- ------- ------- -------
   1.  C 1 (s)     -0.0193  0.0075 -0.0053 -0.0272  0.0018  0.0000  0.0000  0.0000
   2.  C 1 (s)      0.0792 -0.0327  0.0104  0.0769 -0.0121  0.0000  0.0000  0.0000
   3.  C 1 (px)     0.1811  0.3039  0.3363 -0.0677 -0.2362  0.0000  0.0000  0.0000
   4.  C 1 (py)     0.3095 -0.0990 -0.1304 -0.3634 -0.0216  0.0000  0.0000  0.0000
   5.  C 1 (pz)     0.0000  0.0000  0.0000  0.0000  0.0000  0.3637  0.5297  0.6302
   6.  C 2 (s)      0.0421 -0.0082  0.0193 -0.0010  0.0195  0.0000  0.0000  0.0000
   7.  C 2 (s)     -0.1257  0.0264 -0.0785 -0.0125 -0.0733  0.0000  0.0000  0.0000
   8.  C 2 (px)     0.1136  0.2765 -0.1031 -0.0278  0.3874  0.0000  0.0000  0.0000
   9.  C 2 (py)    -0.2399  0.0880  0.1809  0.3800  0.0618  0.0000  0.0000  0.0000
  10.  C 2 (pz)     0.0000  0.0000  0.0000  0.0000  0.0000  0.4819  0.3999 -0.4606
  11.  C 3 (s)     -0.0421 -0.0082 -0.0193 -0.0010  0.0195  0.0000  0.0000  0.0000
  12.  C 3 (s)      0.1257  0.0264  0.0785 -0.0125 -0.0733  0.0000  0.0000  0.0000
  13.  C 3 (px)     0.1136 -0.2765 -0.1031  0.0278 -0.3874  0.0000  0.0000  0.0000
  14.  C 3 (py)    -0.2399 -0.0880  0.1809 -0.3800 -0.0618  0.0000  0.0000  0.0000
  15.  C 3 (pz)     0.0000  0.0000  0.0000  0.0000  0.0000  0.4819 -0.3999 -0.4606
  16.  C 4 (s)      0.0193  0.0075  0.0053 -0.0272  0.0018  0.0000  0.0000  0.0000
  17.  C 4 (s)     -0.0792 -0.0327 -0.0104  0.0769 -0.0121  0.0000  0.0000  0.0000
  18.  C 4 (px)     0.1811 -0.3039  0.3363  0.0677  0.2362  0.0000  0.0000  0.0000
  19.  C 4 (py)     0.3095  0.0990 -0.1304  0.3634  0.0216  0.0000  0.0000  0.0000
  20.  C 4 (pz)     0.0000  0.0000  0.0000  0.0000  0.0000  0.3637 -0.5297  0.6302
  21.  H 5 (s)      0.2852  0.1500  0.2169 -0.1948 -0.2370  0.0000  0.0000  0.0000
  22.  H 6 (s)      0.0378 -0.2568 -0.3255 -0.0922  0.2201  0.0000  0.0000  0.0000
  23.  H 7 (s)      0.1098  0.1598 -0.1975 -0.2098  0.3030  0.0000  0.0000  0.0000
  24.  H 8 (s)     -0.1098  0.1598  0.1975 -0.2098  0.3030  0.0000  0.0000  0.0000
  25.  H 9 (s)     -0.0378 -0.2568  0.3255 -0.0922  0.2201  0.0000  0.0000  0.0000
  26.  H10 (s)     -0.2852  0.1500 -0.2169 -0.1948 -0.2370  0.0000  0.0000  0.0000

           AO         17      18      19      20      21      22      23      24
      ------------ ------- ------- ------- ------- ------- ------- ------- -------
   1.  C 1 (s)      0.0000  0.0199 -0.0119 -0.1466 -0.0489 -0.1414 -0.0366  0.0617
   2.  C 1 (s)      0.0000 -0.1296  0.0662  0.9253  0.3390  0.9072  0.2503 -0.4475
   3.  C 1 (px)     0.0000 -0.4494 -0.4929  0.0460 -0.2162 -0.0552  0.6584  0.3799
   4.  C 1 (py)     0.0000  0.0978 -0.2123  0.2244  0.2041  0.3989 -0.2674  0.7629
   5.  C 1 (pz)    -0.4998  0.0000  0.0000  0.0000  0.0000  0.0000  0.0000  0.0000
   6.  C 2 (s)      0.0000 -0.0036  0.0835  0.1001 -0.1383  0.0210  0.0842 -0.1041
   7.  C 2 (s)      0.0000  0.0265 -0.5462 -0.6035  0.8707 -0.1093 -0.5951  0.7473
   8.  C 2 (px)     0.0000 -0.5676 -0.3698  0.0430 -0.1527 -0.0090 -0.4722 -0.2678
   9.  C 2 (py)     0.0000  0.1016  0.1141  0.0391 -0.5311 -0.1227 -0.0650  0.5225
  10.  C 2 (pz)     0.7044  0.0000  0.0000  0.0000  0.0000  0.0000  0.0000  0.0000
  11.  C 3 (s)      0.0000  0.0036  0.0835 -0.1001  0.1383  0.0210  0.0842  0.1041
  12.  C 3 (s)      0.0000 -0.0265 -0.5462  0.6035 -0.8707 -0.1093 -0.5951 -0.7473
  13.  C 3 (px)     0.0000 -0.5676  0.3698  0.0430 -0.1527  0.0090  0.4722 -0.2678
  14.  C 3 (py)     0.0000  0.1016 -0.1141  0.0391 -0.5311  0.1227  0.0650  0.5225
  15.  C 3 (pz)    -0.7044  0.0000  0.0000  0.0000  0.0000  0.0000  0.0000  0.0000
  16.  C 4 (s)      0.0000 -0.0199 -0.0119  0.1466  0.0489 -0.1414 -0.0366 -0.0617
  17.  C 4 (s)      0.0000  0.1296  0.0662 -0.9253 -0.3390  0.9072  0.2503  0.4475
  18.  C 4 (px)     0.0000 -0.4494  0.4929  0.0460 -0.2162  0.0552 -0.6584  0.3799
  19.  C 4 (py)     0.0000  0.0978  0.2123  0.2244  0.2041 -0.3989  0.2674  0.7629
  20.  C 4 (pz)     0.4998  0.0000  0.0000  0.0000  0.0000  0.0000  0.0000  0.0000
  21.  H 5 (s)      0.0000  0.4320  0.4721 -0.6204 -0.0610 -0.5922 -0.4469 -0.3810
  22.  H 6 (s)      0.0000 -0.3844 -0.3791 -0.5213 -0.4456 -0.6819  0.4263  0.1170
  23.  H 7 (s)      0.0000  0.5686  0.6258  0.2842 -0.5679  0.0657  0.5133  0.0808
  24.  H 8 (s)      0.0000 -0.5686  0.6258 -0.2842  0.5679  0.0657  0.5133 -0.0808
  25.  H 9 (s)      0.0000  0.3844 -0.3791  0.5213  0.4456 -0.6819  0.4263 -0.1170
  26.  H10 (s)      0.0000 -0.4320  0.4721  0.6204  0.0610 -0.5922 -0.4469  0.3810

           AO         25      26
      ------------ ------- -------
   1.  C 1 (s)      0.0311  0.0758
   2.  C 1 (s)     -0.2444 -0.5980
   3.  C 1 (px)    -0.5536  0.1211
   4.  C 1 (py)     0.3706  0.7248
   5.  C 1 (pz)     0.0000  0.0000
   6.  C 2 (s)      0.0080 -0.0579
   7.  C 2 (s)     -0.0267  0.4557
   8.  C 2 (px)     0.7687 -0.2951
   9.  C 2 (py)     0.5360  0.8944
  10.  C 2 (pz)     0.0000  0.0000
  11.  C 3 (s)     -0.0080 -0.0579
  12.  C 3 (s)      0.0267  0.4557
  13.  C 3 (px)     0.7687  0.2951
  14.  C 3 (py)     0.5360 -0.8944
  15.  C 3 (pz)     0.0000  0.0000
  16.  C 4 (s)     -0.0311  0.0758
  17.  C 4 (s)      0.2444 -0.5980
  18.  C 4 (px)    -0.5536 -0.1211
  19.  C 4 (py)     0.3706 -0.7248
  20.  C 4 (pz)     0.0000  0.0000
  21.  H 5 (s)      0.2817 -0.1276
  22.  H 6 (s)     -0.4007  0.0162
  23.  H 7 (s)     -0.2796  0.3207
  24.  H 8 (s)      0.2796  0.3207
  25.  H 9 (s)      0.4007  0.0162
  26.  H10 (s)     -0.2817 -0.1276


 AO overlap matrix:

           AO          1       2       3       4       5       6       7       8
      ------------ ------- ------- ------- ------- ------- ------- ------- -------
   1.  C 1 (s)      1.0000  0.2484  0.0000  0.0000  0.0000  0.0000  0.0430  0.0000
   2.  C 1 (s)      0.2484  1.0000  0.0000  0.0000  0.0000  0.0430  0.3941  0.0000
   3.  C 1 (px)     0.0000  0.0000  1.0000  0.0000  0.0000  0.0000  0.0000  0.2362
   4.  C 1 (py)     0.0000  0.0000  0.0000  1.0000  0.0000 -0.0713 -0.4084  0.0000
   5.  C 1 (pz)     0.0000  0.0000  0.0000  0.0000  1.0000  0.0000  0.0000  0.0000
   6.  C 2 (s)      0.0000  0.0430  0.0000 -0.0713  0.0000  1.0000  0.2484  0.0000
   7.  C 2 (s)      0.0430  0.3941  0.0000 -0.4084  0.0000  0.2484  1.0000  0.0000
   8.  C 2 (px)     0.0000  0.0000  0.2362  0.0000  0.0000  0.0000  0.0000  1.0000
   9.  C 2 (py)     0.0713  0.4084  0.0000 -0.3282  0.0000  0.0000  0.0000  0.0000
  10.  C 2 (pz)     0.0000  0.0000  0.0000  0.0000  0.2362  0.0000  0.0000  0.0000
  11.  C 3 (s)      0.0000  0.0015 -0.0018 -0.0031  0.0000  0.0000  0.0327 -0.0453
  12.  C 3 (s)      0.0015  0.0548 -0.0401 -0.0712  0.0000  0.0327  0.3371 -0.3056
  13.  C 3 (px)     0.0018  0.0401 -0.0096 -0.0572  0.0000  0.0453  0.3056 -0.1652
  14.  C 3 (py)     0.0031  0.0712 -0.0572 -0.0789  0.0000  0.0302  0.2039 -0.2385
  15.  C 3 (pz)     0.0000  0.0000  0.0000  0.0000  0.0227  0.0000  0.0000  0.0000
  16.  C 4 (s)      0.0000  0.0000  0.0000  0.0000  0.0000  0.0000  0.0015 -0.0018
  17.  C 4 (s)      0.0000  0.0023 -0.0014 -0.0042  0.0000  0.0015  0.0548 -0.0401
  18.  C 4 (px)     0.0000  0.0014 -0.0002 -0.0027  0.0000  0.0018  0.0401 -0.0096
  19.  C 4 (py)     0.0000  0.0042 -0.0027 -0.0071  0.0000  0.0031  0.0712 -0.0572
  20.  C 4 (pz)     0.0000  0.0000  0.0000  0.0000  0.0008  0.0000  0.0000  0.0000
  21.  H 5 (s)      0.0631  0.4940  0.3989  0.2470  0.0000  0.0059  0.1031  0.0573
  22.  H 6 (s)      0.0628  0.4929 -0.3998  0.2444  0.0000  0.0059  0.1034 -0.0578
  23.  H 7 (s)      0.0062  0.1066  0.0611 -0.1213  0.0000  0.0623  0.4909  0.4065
  24.  H 8 (s)      0.0012  0.0336 -0.0392 -0.0292  0.0000  0.0051  0.0937 -0.1206
  25.  H 9 (s)      0.0000  0.0011 -0.0001 -0.0021  0.0000  0.0010  0.0311 -0.0047
  26.  H10 (s)      0.0000  0.0002 -0.0002 -0.0004  0.0000  0.0001  0.0058 -0.0059

           AO          9      10      11      12      13      14      15      16
      ------------ ------- ------- ------- ------- ------- ------- ------- -------
   1.  C 1 (s)      0.0713  0.0000  0.0000  0.0015  0.0018  0.0031  0.0000  0.0000
   2.  C 1 (s)      0.4084  0.0000  0.0015  0.0548  0.0401  0.0712  0.0000  0.0000
   3.  C 1 (px)     0.0000  0.0000 -0.0018 -0.0401 -0.0096 -0.0572  0.0000  0.0000
   4.  C 1 (py)    -0.3282  0.0000 -0.0031 -0.0712 -0.0572 -0.0789  0.0000  0.0000
   5.  C 1 (pz)     0.0000  0.2362  0.0000  0.0000  0.0000  0.0000  0.0227  0.0000
   6.  C 2 (s)      0.0000  0.0000  0.0000  0.0327  0.0453  0.0302  0.0000  0.0000
   7.  C 2 (s)      0.0000  0.0000  0.0327  0.3371  0.3056  0.2039  0.0000  0.0015
   8.  C 2 (px)     0.0000  0.0000 -0.0453 -0.3056 -0.1652 -0.2385  0.0000 -0.0018
   9.  C 2 (py)     1.0000  0.0000 -0.0302 -0.2039 -0.2385  0.0331  0.0000 -0.0031
  10.  C 2 (pz)     0.0000  1.0000  0.0000  0.0000  0.0000  0.0000  0.1922  0.0000
  11.  C 3 (s)     -0.0302  0.0000  1.0000  0.2484  0.0000  0.0000  0.0000  0.0000
  12.  C 3 (s)     -0.2039  0.0000  0.2484  1.0000  0.0000  0.0000  0.0000  0.0430
  13.  C 3 (px)    -0.2385  0.0000  0.0000  0.0000  1.0000  0.0000  0.0000  0.0000
  14.  C 3 (py)     0.0331  0.0000  0.0000  0.0000  0.0000  1.0000  0.0000 -0.0713
  15.  C 3 (pz)     0.0000  0.1922  0.0000  0.0000  0.0000  0.0000  1.0000  0.0000
  16.  C 4 (s)     -0.0031  0.0000  0.0000  0.0430  0.0000 -0.0713  0.0000  1.0000
  17.  C 4 (s)     -0.0712  0.0000  0.0430  0.3941  0.0000 -0.4084  0.0000  0.2484
  18.  C 4 (px)    -0.0572  0.0000  0.0000  0.0000  0.2362  0.0000  0.0000  0.0000
  19.  C 4 (py)    -0.0789  0.0000  0.0713  0.4084  0.0000 -0.3282  0.0000  0.0000
  20.  C 4 (pz)     0.0000  0.0227  0.0000  0.0000  0.0000  0.0000  0.2362  0.0000
  21.  H 5 (s)      0.1189  0.0000  0.0001  0.0058  0.0059  0.0076  0.0000  0.0000
  22.  H 6 (s)      0.1191  0.0000  0.0010  0.0311  0.0047  0.0453  0.0000  0.0000
  23.  H 7 (s)     -0.2306  0.0000  0.0051  0.0937  0.1206  0.0151  0.0000  0.0012
  24.  H 8 (s)     -0.0151  0.0000  0.0623  0.4909 -0.4065  0.2306  0.0000  0.0062
  25.  H 9 (s)     -0.0453  0.0000  0.0059  0.1034  0.0578 -0.1191  0.0000  0.0628
  26.  H10 (s)     -0.0076  0.0000  0.0059  0.1031 -0.0573 -0.1189  0.0000  0.0631

           AO         17      18      19      20      21      22      23      24
      ------------ ------- ------- ------- ------- ------- ------- ------- -------
   1.  C 1 (s)      0.0000  0.0000  0.0000  0.0000  0.0631  0.0628  0.0062  0.0012
   2.  C 1 (s)      0.0023  0.0014  0.0042  0.0000  0.4940  0.4929  0.1066  0.0336
   3.  C 1 (px)    -0.0014 -0.0002 -0.0027  0.0000  0.3989 -0.3998  0.0611 -0.0392
   4.  C 1 (py)    -0.0042 -0.0027 -0.0071  0.0000  0.2470  0.2444 -0.1213 -0.0292
   5.  C 1 (pz)     0.0000  0.0000  0.0000  0.0008  0.0000  0.0000  0.0000  0.0000
   6.  C 2 (s)      0.0015  0.0018  0.0031  0.0000  0.0059  0.0059  0.0623  0.0051
   7.  C 2 (s)      0.0548  0.0401  0.0712  0.0000  0.1031  0.1034  0.4909  0.0937
   8.  C 2 (px)    -0.0401 -0.0096 -0.0572  0.0000  0.0573 -0.0578  0.4065 -0.1206
   9.  C 2 (py)    -0.0712 -0.0572 -0.0789  0.0000  0.1189  0.1191 -0.2306 -0.0151
  10.  C 2 (pz)     0.0000  0.0000  0.0000  0.0227  0.0000  0.0000  0.0000  0.0000
  11.  C 3 (s)      0.0430  0.0000  0.0713  0.0000  0.0001  0.0010  0.0051  0.0623
  12.  C 3 (s)      0.3941  0.0000  0.4084  0.0000  0.0058  0.0311  0.0937  0.4909
  13.  C 3 (px)     0.0000  0.2362  0.0000  0.0000  0.0059  0.0047  0.1206 -0.4065
  14.  C 3 (py)    -0.4084  0.0000 -0.3282  0.0000  0.0076  0.0453  0.0151  0.2306
  15.  C 3 (pz)     0.0000  0.0000  0.0000  0.2362  0.0000  0.0000  0.0000  0.0000
  16.  C 4 (s)      0.2484  0.0000  0.0000  0.0000  0.0000  0.0000  0.0012  0.0062
  17.  C 4 (s)      1.0000  0.0000  0.0000  0.0000  0.0002  0.0011  0.0336  0.1066
  18.  C 4 (px)     0.0000  1.0000  0.0000  0.0000  0.0002  0.0001  0.0392 -0.0611
  19.  C 4 (py)     0.0000  0.0000  1.0000  0.0000  0.0004  0.0021  0.0292  0.1213
  20.  C 4 (pz)     0.0000  0.0000  0.0000  1.0000  0.0000  0.0000  0.0000  0.0000
  21.  H 5 (s)      0.0002  0.0002  0.0004  0.0000  1.0000  0.1520  0.0542  0.0031
  22.  H 6 (s)      0.0011  0.0001  0.0021  0.0000  0.1520  1.0000  0.0153  0.0492
  23.  H 7 (s)      0.0336  0.0392  0.0292  0.0000  0.0542  0.0153  1.0000  0.0142
  24.  H 8 (s)      0.1066 -0.0611  0.1213  0.0000  0.0031  0.0492  0.0142  1.0000
  25.  H 9 (s)      0.4929  0.3998 -0.2444  0.0000  0.0002  0.0003  0.0492  0.0153
  26.  H10 (s)      0.4940 -0.3989 -0.2470  0.0000  0.0000  0.0002  0.0031  0.0542

           AO         25      26
      ------------ ------- -------
   1.  C 1 (s)      0.0000  0.0000
   2.  C 1 (s)      0.0011  0.0002
   3.  C 1 (px)    -0.0001 -0.0002
   4.  C 1 (py)    -0.0021 -0.0004
   5.  C 1 (pz)     0.0000  0.0000
   6.  C 2 (s)      0.0010  0.0001
   7.  C 2 (s)      0.0311  0.0058
   8.  C 2 (px)    -0.0047 -0.0059
   9.  C 2 (py)    -0.0453 -0.0076
  10.  C 2 (pz)     0.0000  0.0000
  11.  C 3 (s)      0.0059  0.0059
  12.  C 3 (s)      0.1034  0.1031
  13.  C 3 (px)     0.0578 -0.0573
  14.  C 3 (py)    -0.1191 -0.1189
  15.  C 3 (pz)     0.0000  0.0000
  16.  C 4 (s)      0.0628  0.0631
  17.  C 4 (s)      0.4929  0.4940
  18.  C 4 (px)     0.3998 -0.3989
  19.  C 4 (py)    -0.2444 -0.2470
  20.  C 4 (pz)     0.0000  0.0000
  21.  H 5 (s)      0.0002  0.0000
  22.  H 6 (s)      0.0003  0.0002
  23.  H 7 (s)      0.0492  0.0031
  24.  H 8 (s)      0.0153  0.0542
  25.  H 9 (s)      1.0000  0.1520
  26.  H10 (s)      0.1520  1.0000


 AO bond-order matrix:

           AO          1       2       3       4       5       6       7       8
      ------------ ------- ------- ------- ------- ------- ------- ------- -------
   1.  C 1 (s)      2.0703 -0.2114  0.0003 -0.0016  0.0000  0.0273 -0.0703  0.0034
   2.  C 1 (s)     -0.2114  0.7974 -0.0010  0.0308  0.0000 -0.0705  0.1028 -0.0180
   3.  C 1 (px)     0.0003 -0.0010  0.6190  0.0016  0.0000  0.0011 -0.0040  0.0073
   4.  C 1 (py)    -0.0016  0.0308  0.0016  0.6020  0.0000  0.1168 -0.2938  0.0084
   5.  C 1 (pz)     0.0000  0.0000  0.0000  0.0000  0.8257  0.0000  0.0000  0.0000
   6.  C 2 (s)      0.0273 -0.0705  0.0011  0.1168  0.0000  2.0703 -0.2110 -0.0019
   7.  C 2 (s)     -0.0703  0.1028 -0.0040 -0.2938  0.0000 -0.2110  0.7996  0.0057
   8.  C 2 (px)     0.0034 -0.0180  0.0073  0.0084  0.0000 -0.0019  0.0057  0.6078
   9.  C 2 (py)    -0.1186  0.2956  0.0029 -0.4510  0.0000  0.0013 -0.0306 -0.0091
  10.  C 2 (pz)     0.0000  0.0000  0.0000  0.0000  0.7741  0.0000  0.0000  0.0000
  11.  C 3 (s)     -0.0054  0.0168 -0.0155 -0.0167  0.0000  0.0213 -0.0573  0.0892
  12.  C 3 (s)      0.0195 -0.0546  0.0691  0.0639  0.0000 -0.0573  0.0965 -0.2545
  13.  C 3 (px)     0.0087 -0.0194  0.0187  0.0555  0.0000 -0.0892  0.2545 -0.3401
  14.  C 3 (py)     0.0222 -0.0822  0.0372  0.0660  0.0000 -0.0552  0.1475 -0.2152
  15.  C 3 (pz)     0.0000  0.0000  0.0000  0.0000 -0.0731  0.0000  0.0000  0.0000
  16.  C 4 (s)      0.0035 -0.0128  0.0030  0.0129  0.0000 -0.0054  0.0195 -0.0087
  17.  C 4 (s)     -0.0128  0.0429 -0.0130 -0.0498  0.0000  0.0168 -0.0546  0.0194
  18.  C 4 (px)    -0.0030  0.0130  0.0045 -0.0124  0.0000  0.0155 -0.0691  0.0187
  19.  C 4 (py)    -0.0129  0.0498 -0.0124 -0.0468  0.0000  0.0167 -0.0639  0.0555
  20.  C 4 (pz)     0.0000  0.0000  0.0000  0.0000 -0.2966  0.0000  0.0000  0.0000
  21.  H 5 (s)     -0.1094  0.2845  0.4772  0.2791  0.0000  0.0275 -0.0910 -0.0610
  22.  H 6 (s)     -0.1084  0.2800 -0.4791  0.2794  0.0000  0.0258 -0.0847  0.0653
  23.  H 7 (s)      0.0291 -0.1012 -0.0644  0.1053  0.0000 -0.1072  0.2773  0.4871
  24.  H 8 (s)      0.0128 -0.0483  0.0155  0.0362  0.0000  0.0272 -0.1024  0.1313
  25.  H 9 (s)     -0.0015  0.0027  0.0003 -0.0118  0.0000  0.0156 -0.0626  0.0408
  26.  H10 (s)      0.0066 -0.0248  0.0021  0.0323  0.0000 -0.0208  0.0856 -0.0682

           AO          9      10      11      12      13      14      15      16
      ------------ ------- ------- ------- ------- ------- ------- ------- -------
   1.  C 1 (s)     -0.1186  0.0000 -0.0054  0.0195  0.0087  0.0222  0.0000  0.0035
   2.  C 1 (s)      0.2956  0.0000  0.0168 -0.0546 -0.0194 -0.0822  0.0000 -0.0128
   3.  C 1 (px)     0.0029  0.0000 -0.0155  0.0691  0.0187  0.0372  0.0000  0.0030
   4.  C 1 (py)    -0.4510  0.0000 -0.0167  0.0639  0.0555  0.0660  0.0000  0.0129
   5.  C 1 (pz)     0.0000  0.7741  0.0000  0.0000  0.0000  0.0000 -0.0731  0.0000
   6.  C 2 (s)      0.0013  0.0000  0.0213 -0.0573 -0.0892 -0.0552  0.0000 -0.0054
   7.  C 2 (s)     -0.0306  0.0000 -0.0573  0.0965  0.2545  0.1475  0.0000  0.0195
   8.  C 2 (px)    -0.0091  0.0000  0.0892 -0.2545 -0.3401 -0.2152  0.0000 -0.0087
   9.  C 2 (py)     0.6113  0.0000  0.0552 -0.1475 -0.2152 -0.1394  0.0000 -0.0222
  10.  C 2 (pz)     0.0000  0.7843  0.0000  0.0000  0.0000  0.0000  0.1447  0.0000
  11.  C 3 (s)      0.0552  0.0000  2.0703 -0.2110  0.0019 -0.0013  0.0000  0.0273
  12.  C 3 (s)     -0.1475  0.0000 -0.2110  0.7996 -0.0057  0.0306  0.0000 -0.0703
  13.  C 3 (px)    -0.2152  0.0000  0.0019 -0.0057  0.6078 -0.0091  0.0000 -0.0034
  14.  C 3 (py)    -0.1394  0.0000 -0.0013  0.0306 -0.0091  0.6113  0.0000  0.1186
  15.  C 3 (pz)     0.0000  0.1447  0.0000  0.0000  0.0000  0.0000  0.7843  0.0000
  16.  C 4 (s)     -0.0222  0.0000  0.0273 -0.0703 -0.0034  0.1186  0.0000  2.0703
  17.  C 4 (s)      0.0822  0.0000 -0.0705  0.1028  0.0180 -0.2956  0.0000 -0.2114
  18.  C 4 (px)     0.0372  0.0000 -0.0011  0.0040  0.0073  0.0029  0.0000 -0.0003
  19.  C 4 (py)     0.0660  0.0000 -0.1168  0.2938  0.0084 -0.4510  0.0000  0.0016
  20.  C 4 (pz)     0.0000 -0.0731  0.0000  0.0000  0.0000  0.0000  0.7741  0.0000
  21.  H 5 (s)     -0.1001  0.0000 -0.0208  0.0856  0.0682  0.0662  0.0000  0.0066
  22.  H 6 (s)     -0.1085  0.0000  0.0156 -0.0626 -0.0408 -0.0463  0.0000 -0.0015
  23.  H 7 (s)     -0.2742  0.0000  0.0272 -0.1024 -0.1313 -0.0229  0.0000  0.0128
  24.  H 8 (s)      0.0229  0.0000 -0.1072  0.2773 -0.4871  0.2742  0.0000  0.0291
  25.  H 9 (s)      0.0463  0.0000  0.0258 -0.0847 -0.0653  0.1085  0.0000 -0.1084
  26.  H10 (s)     -0.0662  0.0000  0.0275 -0.0910  0.0610  0.1001  0.0000 -0.1094

           AO         17      18      19      20      21      22      23      24
      ------------ ------- ------- ------- ------- ------- ------- ------- -------
   1.  C 1 (s)     -0.0128 -0.0030 -0.0129  0.0000 -0.1094 -0.1084  0.0291  0.0128
   2.  C 1 (s)      0.0429  0.0130  0.0498  0.0000  0.2845  0.2800 -0.1012 -0.0483
   3.  C 1 (px)    -0.0130  0.0045 -0.0124  0.0000  0.4772 -0.4791 -0.0644  0.0155
   4.  C 1 (py)    -0.0498 -0.0124 -0.0468  0.0000  0.2791  0.2794  0.1053  0.0362
   5.  C 1 (pz)     0.0000  0.0000  0.0000 -0.2966  0.0000  0.0000  0.0000  0.0000
   6.  C 2 (s)      0.0168  0.0155  0.0167  0.0000  0.0275  0.0258 -0.1072  0.0272
   7.  C 2 (s)     -0.0546 -0.0691 -0.0639  0.0000 -0.0910 -0.0847  0.2773 -0.1024
   8.  C 2 (px)     0.0194  0.0187  0.0555  0.0000 -0.0610  0.0653  0.4871  0.1313
   9.  C 2 (py)     0.0822  0.0372  0.0660  0.0000 -0.1001 -0.1085 -0.2742  0.0229
  10.  C 2 (pz)     0.0000  0.0000  0.0000 -0.0731  0.0000  0.0000  0.0000  0.0000
  11.  C 3 (s)     -0.0705 -0.0011 -0.1168  0.0000 -0.0208  0.0156  0.0272 -0.1072
  12.  C 3 (s)      0.1028  0.0040  0.2938  0.0000  0.0856 -0.0626 -0.1024  0.2773
  13.  C 3 (px)     0.0180  0.0073  0.0084  0.0000  0.0682 -0.0408 -0.1313 -0.4871
  14.  C 3 (py)    -0.2956  0.0029 -0.4510  0.0000  0.0662 -0.0463 -0.0229  0.2742
  15.  C 3 (pz)     0.0000  0.0000  0.0000  0.7741  0.0000  0.0000  0.0000  0.0000
  16.  C 4 (s)     -0.2114 -0.0003  0.0016  0.0000  0.0066 -0.0015  0.0128  0.0291
  17.  C 4 (s)      0.7974  0.0010 -0.0308  0.0000 -0.0248  0.0027 -0.0483 -0.1012
  18.  C 4 (px)     0.0010  0.6190  0.0016  0.0000 -0.0021 -0.0003 -0.0155  0.0644
  19.  C 4 (py)    -0.0308  0.0016  0.6020  0.0000 -0.0323  0.0118 -0.0362 -0.1053
  20.  C 4 (pz)     0.0000  0.0000  0.0000  0.8257  0.0000  0.0000  0.0000  0.0000
  21.  H 5 (s)     -0.0248 -0.0021 -0.0323  0.0000  0.5963 -0.1565 -0.0838  0.0021
  22.  H 6 (s)      0.0027 -0.0003  0.0118  0.0000 -0.1565  0.5996  0.1265  0.0138
  23.  H 7 (s)     -0.0483 -0.0155 -0.0362  0.0000 -0.0838  0.1265  0.6049  0.1102
  24.  H 8 (s)     -0.1012  0.0644 -0.1053  0.0000  0.0021  0.0138  0.1102  0.6049
  25.  H 9 (s)      0.2800  0.4791 -0.2794  0.0000 -0.0060  0.0022  0.0138  0.1265
  26.  H10 (s)      0.2845 -0.4772 -0.2791  0.0000  0.0207 -0.0060  0.0021 -0.0838

           AO         25      26
      ------------ ------- -------
   1.  C 1 (s)     -0.0015  0.0066
   2.  C 1 (s)      0.0027 -0.0248
   3.  C 1 (px)     0.0003  0.0021
   4.  C 1 (py)    -0.0118  0.0323
   5.  C 1 (pz)     0.0000  0.0000
   6.  C 2 (s)      0.0156 -0.0208
   7.  C 2 (s)     -0.0626  0.0856
   8.  C 2 (px)     0.0408 -0.0682
   9.  C 2 (py)     0.0463 -0.0662
  10.  C 2 (pz)     0.0000  0.0000
  11.  C 3 (s)      0.0258  0.0275
  12.  C 3 (s)     -0.0847 -0.0910
  13.  C 3 (px)    -0.0653  0.0610
  14.  C 3 (py)     0.1085  0.1001
  15.  C 3 (pz)     0.0000  0.0000
  16.  C 4 (s)     -0.1084 -0.1094
  17.  C 4 (s)      0.2800  0.2845
  18.  C 4 (px)     0.4791 -0.4772
  19.  C 4 (py)    -0.2794 -0.2791
  20.  C 4 (pz)     0.0000  0.0000
  21.  H 5 (s)     -0.0060  0.0207
  22.  H 6 (s)      0.0022 -0.0060
  23.  H 7 (s)      0.0138  0.0021
  24.  H 8 (s)      0.1265 -0.0838
  25.  H 9 (s)      0.5996 -0.1565
  26.  H10 (s)     -0.1565  0.5963


 AO density matrix:

           AO          1       2       3       4       5       6       7       8
      ------------ ------- ------- ------- ------- ------- ------- ------- -------
   1.  C 1 (s)      1.9996  0.5047  0.0000  0.0005  0.0000  0.0002  0.0828  0.0002
   2.  C 1 (s)      0.5047  1.8567 -0.0001 -0.0134  0.0000  0.0828  0.8405 -0.0024
   3.  C 1 (px)     0.0000 -0.0001  1.6296  0.0015  0.0000  0.0000  0.0017  0.4746
   4.  C 1 (py)     0.0005 -0.0134  0.0015  1.6694  0.0000 -0.1371 -0.9199  0.0019
   5.  C 1 (pz)     0.0000  0.0000  0.0000  0.0000  1.2334  0.0000  0.0000  0.0000
   6.  C 2 (s)      0.0002  0.0828  0.0000 -0.1371  0.0000  1.9996  0.5048 -0.0003
   7.  C 2 (s)      0.0828  0.8405  0.0017 -0.9199  0.0000  0.5048  1.8529  0.0089
   8.  C 2 (px)     0.0002 -0.0024  0.4746  0.0019  0.0000 -0.0003  0.0089  1.6202
   9.  C 2 (py)     0.1372  0.9202 -0.0014 -0.8291  0.0000 -0.0007  0.0182 -0.0060
  10.  C 2 (pz)     0.0000  0.0000  0.0000  0.0000  1.1898  0.0000  0.0000  0.0000
  11.  C 3 (s)      0.0000  0.0033 -0.0032 -0.0066  0.0000  0.0002  0.0623 -0.0851
  12.  C 3 (s)      0.0034  0.1058 -0.0893 -0.1388  0.0000  0.0623  0.7313 -0.7166
  13.  C 3 (px)     0.0041  0.0740 -0.0453 -0.0868  0.0000  0.0851  0.7166 -0.4949
  14.  C 3 (py)     0.0063  0.1452 -0.1318 -0.1687  0.0000  0.0570  0.4721 -0.5869
  15.  C 3 (pz)     0.0000  0.0000  0.0000  0.0000  0.1174  0.0000  0.0000  0.0000
  16.  C 4 (s)      0.0000 -0.0003  0.0000  0.0005  0.0000  0.0000  0.0034 -0.0041
  17.  C 4 (s)     -0.0003  0.0108 -0.0023 -0.0183  0.0000  0.0033  0.1058 -0.0740
  18.  C 4 (px)     0.0000  0.0023  0.0010 -0.0019  0.0000  0.0032  0.0893 -0.0453
  19.  C 4 (py)    -0.0005  0.0183 -0.0019 -0.0274  0.0000  0.0066  0.1388 -0.0868
  20.  C 4 (pz)     0.0000  0.0000  0.0000  0.0000 -0.2780  0.0000  0.0000  0.0000
  21.  H 5 (s)      0.1186  1.1267  1.0411  0.6474  0.0000  0.0125  0.1970  0.1512
  22.  H 6 (s)      0.1181  1.1237 -1.0444  0.6426  0.0000  0.0126  0.2005 -0.1478
  23.  H 7 (s)      0.0130  0.2067  0.1570 -0.2294  0.0000  0.1173  1.1157  1.0657
  24.  H 8 (s)      0.0028  0.0572 -0.0799 -0.0341  0.0000  0.0111  0.1786 -0.2381
  25.  H 9 (s)      0.0000  0.0024  0.0014 -0.0080  0.0000  0.0027  0.0477  0.0213
  26.  H10 (s)      0.0003 -0.0054 -0.0036  0.0122  0.0000 -0.0009  0.0333 -0.0436

           AO          9      10      11      12      13      14      15      16
      ------------ ------- ------- ------- ------- ------- ------- ------- -------
   1.  C 1 (s)      0.1372  0.0000  0.0000  0.0034  0.0041  0.0063  0.0000  0.0000
   2.  C 1 (s)      0.9202  0.0000  0.0033  0.1058  0.0740  0.1452  0.0000 -0.0003
   3.  C 1 (px)    -0.0014  0.0000 -0.0032 -0.0893 -0.0453 -0.1318  0.0000  0.0000
   4.  C 1 (py)    -0.8291  0.0000 -0.0066 -0.1388 -0.0868 -0.1687  0.0000  0.0005
   5.  C 1 (pz)     0.0000  1.1898  0.0000  0.0000  0.0000  0.0000  0.1174  0.0000
   6.  C 2 (s)     -0.0007  0.0000  0.0002  0.0623  0.0851  0.0570  0.0000  0.0000
   7.  C 2 (s)      0.0182  0.0000  0.0623  0.7313  0.7166  0.4721  0.0000  0.0034
   8.  C 2 (px)    -0.0060  0.0000 -0.0851 -0.7166 -0.4949 -0.5869  0.0000 -0.0041
   9.  C 2 (py)     1.6781  0.0000 -0.0570 -0.4721 -0.5869 -0.0072  0.0000 -0.0063
  10.  C 2 (pz)     0.0000  1.2748  0.0000  0.0000  0.0000  0.0000  0.5139  0.0000
  11.  C 3 (s)     -0.0570  0.0000  1.9996  0.5048  0.0003  0.0007  0.0000  0.0002
  12.  C 3 (s)     -0.4721  0.0000  0.5048  1.8529 -0.0089 -0.0182  0.0000  0.0828
  13.  C 3 (px)    -0.5869  0.0000  0.0003 -0.0089  1.6202 -0.0060  0.0000 -0.0002
  14.  C 3 (py)    -0.0072  0.0000  0.0007 -0.0182 -0.0060  1.6781  0.0000 -0.1372
  15.  C 3 (pz)     0.0000  0.5139  0.0000  0.0000  0.0000  0.0000  1.2748  0.0000
  16.  C 4 (s)     -0.0063  0.0000  0.0002  0.0828 -0.0002 -0.1372  0.0000  1.9996
  17.  C 4 (s)     -0.1452  0.0000  0.0828  0.8405  0.0024 -0.9202  0.0000  0.5047
  18.  C 4 (px)    -0.1318  0.0000  0.0000 -0.0017  0.4746 -0.0014  0.0000  0.0000
  19.  C 4 (py)    -0.1687  0.0000  0.1371  0.9199  0.0019 -0.8291  0.0000 -0.0005
  20.  C 4 (pz)     0.0000  0.1174  0.0000  0.0000  0.0000  0.0000  1.1898  0.0000
  21.  H 5 (s)      0.2223  0.0000 -0.0009  0.0333  0.0436  0.0347  0.0000  0.0003
  22.  H 6 (s)      0.2191  0.0000  0.0027  0.0477 -0.0213  0.0733  0.0000  0.0000
  23.  H 7 (s)     -0.6064  0.0000  0.0111  0.1786  0.2381  0.0000  0.0000  0.0028
  24.  H 8 (s)      0.0000  0.0000  0.1173  1.1157 -1.0657  0.6064  0.0000  0.0130
  25.  H 9 (s)     -0.0733  0.0000  0.0126  0.2005  0.1478 -0.2191  0.0000  0.1181
  26.  H10 (s)     -0.0347  0.0000  0.0125  0.1970 -0.1512 -0.2223  0.0000  0.1186

           AO         17      18      19      20      21      22      23      24
      ------------ ------- ------- ------- ------- ------- ------- ------- -------
   1.  C 1 (s)     -0.0003  0.0000 -0.0005  0.0000  0.1186  0.1181  0.0130  0.0028
   2.  C 1 (s)      0.0108  0.0023  0.0183  0.0000  1.1267  1.1237  0.2067  0.0572
   3.  C 1 (px)    -0.0023  0.0010 -0.0019  0.0000  1.0411 -1.0444  0.1570 -0.0799
   4.  C 1 (py)    -0.0183 -0.0019 -0.0274  0.0000  0.6474  0.6426 -0.2294 -0.0341
   5.  C 1 (pz)     0.0000  0.0000  0.0000 -0.2780  0.0000  0.0000  0.0000  0.0000
   6.  C 2 (s)      0.0033  0.0032  0.0066  0.0000  0.0125  0.0126  0.1173  0.0111
   7.  C 2 (s)      0.1058  0.0893  0.1388  0.0000  0.1970  0.2005  1.1157  0.1786
   8.  C 2 (px)    -0.0740 -0.0453 -0.0868  0.0000  0.1512 -0.1478  1.0657 -0.2381
   9.  C 2 (py)    -0.1452 -0.1318 -0.1687  0.0000  0.2223  0.2191 -0.6064  0.0000
  10.  C 2 (pz)     0.0000  0.0000  0.0000  0.1174  0.0000  0.0000  0.0000  0.0000
  11.  C 3 (s)      0.0828  0.0000  0.1371  0.0000 -0.0009  0.0027  0.0111  0.1173
  12.  C 3 (s)      0.8405 -0.0017  0.9199  0.0000  0.0333  0.0477  0.1786  1.1157
  13.  C 3 (px)     0.0024  0.4746  0.0019  0.0000  0.0436 -0.0213  0.2381 -1.0657
  14.  C 3 (py)    -0.9202 -0.0014 -0.8291  0.0000  0.0347  0.0733  0.0000  0.6064
  15.  C 3 (pz)     0.0000  0.0000  0.0000  1.1898  0.0000  0.0000  0.0000  0.0000
  16.  C 4 (s)      0.5047  0.0000 -0.0005  0.0000  0.0003  0.0000  0.0028  0.0130
  17.  C 4 (s)      1.8567  0.0001  0.0134  0.0000 -0.0054  0.0024  0.0572  0.2067
  18.  C 4 (px)     0.0001  1.6296  0.0015  0.0000  0.0036 -0.0014  0.0799 -0.1570
  19.  C 4 (py)     0.0134  0.0015  1.6694  0.0000 -0.0122  0.0080  0.0341  0.2294
  20.  C 4 (pz)     0.0000  0.0000  0.0000  1.2334  0.0000  0.0000  0.0000  0.0000
  21.  H 5 (s)     -0.0054  0.0036 -0.0122  0.0000  1.6418  0.2746  0.0656  0.0076
  22.  H 6 (s)      0.0024 -0.0014  0.0080  0.0000  0.2746  1.6423  0.0820  0.1013
  23.  H 7 (s)      0.0572  0.0799  0.0341  0.0000  0.0656  0.0820  1.6378  0.0736
  24.  H 8 (s)      0.2067 -0.1570  0.2294  0.0000  0.0076  0.1013  0.0736  1.6378
  25.  H 9 (s)      1.1237  1.0444 -0.6426  0.0000 -0.0031  0.0052  0.1013  0.0820
  26.  H10 (s)      1.1267 -1.0411 -0.6474  0.0000  0.0082 -0.0031  0.0076  0.0656

           AO         25      26
      ------------ ------- -------
   1.  C 1 (s)      0.0000  0.0003
   2.  C 1 (s)      0.0024 -0.0054
   3.  C 1 (px)     0.0014 -0.0036
   4.  C 1 (py)    -0.0080  0.0122
   5.  C 1 (pz)     0.0000  0.0000
   6.  C 2 (s)      0.0027 -0.0009
   7.  C 2 (s)      0.0477  0.0333
   8.  C 2 (px)     0.0213 -0.0436
   9.  C 2 (py)    -0.0733 -0.0347
  10.  C 2 (pz)     0.0000  0.0000
  11.  C 3 (s)      0.0126  0.0125
  12.  C 3 (s)      0.2005  0.1970
  13.  C 3 (px)     0.1478 -0.1512
  14.  C 3 (py)    -0.2191 -0.2223
  15.  C 3 (pz)     0.0000  0.0000
  16.  C 4 (s)      0.1181  0.1186
  17.  C 4 (s)      1.1237  1.1267
  18.  C 4 (px)     1.0444 -1.0411
  19.  C 4 (py)    -0.6426 -0.6474
  20.  C 4 (pz)     0.0000  0.0000
  21.  H 5 (s)     -0.0031  0.0082
  22.  H 6 (s)      0.0052 -0.0031
  23.  H 7 (s)      0.1013  0.0076
  24.  H 8 (s)      0.0820  0.0656
  25.  H 9 (s)      1.6423  0.2746
  26.  H10 (s)      0.2746  1.6418


 MO density matrix:

      MO     1       2       3       4       5       6       7       8       9
     ---- ------  ------  ------  ------  ------  ------  ------  ------  ------
   1.     2.0000  0.0000  0.0000  0.0000  0.0000  0.0000  0.0000  0.0000  0.0000
   2.     0.0000  2.0000  0.0000  0.0000  0.0000  0.0000  0.0000  0.0000  0.0000
   3.     0.0000  0.0000  2.0000  0.0000  0.0000  0.0000  0.0000  0.0000  0.0000
   4.     0.0000  0.0000  0.0000  2.0000  0.0000  0.0000  0.0000  0.0000  0.0000
   5.     0.0000  0.0000  0.0000  0.0000  2.0000  0.0000  0.0000  0.0000  0.0000
   6.     0.0000  0.0000  0.0000  0.0000  0.0000  2.0000  0.0000  0.0000  0.0000
   7.     0.0000  0.0000  0.0000  0.0000  0.0000  0.0000  2.0000  0.0000  0.0000
   8.     0.0000  0.0000  0.0000  0.0000  0.0000  0.0000  0.0000  2.0000  0.0000
   9.     0.0000  0.0000  0.0000  0.0000  0.0000  0.0000  0.0000  0.0000  2.0000
  10.     0.0000  0.0000  0.0000  0.0000  0.0000  0.0000  0.0000  0.0000  0.0000
  11.     0.0000  0.0000  0.0000  0.0000  0.0000  0.0000  0.0000  0.0000  0.0000
  12.     0.0000  0.0000  0.0000  0.0000  0.0000  0.0000  0.0000  0.0000  0.0000
  13.     0.0000  0.0000  0.0000  0.0000  0.0000  0.0000  0.0000  0.0000  0.0000
  14.     0.0000  0.0000  0.0000  0.0000  0.0000  0.0000  0.0000  0.0000  0.0000
  15.     0.0000  0.0000  0.0000  0.0000  0.0000  0.0000  0.0000  0.0000  0.0000
  16.     0.0000  0.0000  0.0000  0.0000  0.0000  0.0000  0.0000  0.0000  0.0000
  17.     0.0000  0.0000  0.0000  0.0000  0.0000  0.0000  0.0000  0.0000  0.0000
  18.     0.0000  0.0000  0.0000  0.0000  0.0000  0.0000  0.0000  0.0000  0.0000
  19.     0.0000  0.0000  0.0000  0.0000  0.0000  0.0000  0.0000  0.0000  0.0000
  20.     0.0000  0.0000  0.0000  0.0000  0.0000  0.0000  0.0000  0.0000  0.0000
  21.     0.0000  0.0000  0.0000  0.0000  0.0000  0.0000  0.0000  0.0000  0.0000
  22.     0.0000  0.0000  0.0000  0.0000  0.0000  0.0000  0.0000  0.0000  0.0000
  23.     0.0000  0.0000  0.0000  0.0000  0.0000  0.0000  0.0000  0.0000  0.0000
  24.     0.0000  0.0000  0.0000  0.0000  0.0000  0.0000  0.0000  0.0000  0.0000
  25.     0.0000  0.0000  0.0000  0.0000  0.0000  0.0000  0.0000  0.0000  0.0000
  26.     0.0000  0.0000  0.0000  0.0000  0.0000  0.0000  0.0000  0.0000  0.0000

      MO    10      11      12      13      14      15      16      17      18
     ---- ------  ------  ------  ------  ------  ------  ------  ------  ------
   1.     0.0000  0.0000  0.0000  0.0000  0.0000  0.0000  0.0000  0.0000  0.0000
   2.     0.0000  0.0000  0.0000  0.0000  0.0000  0.0000  0.0000  0.0000  0.0000
   3.     0.0000  0.0000  0.0000  0.0000  0.0000  0.0000  0.0000  0.0000  0.0000
   4.     0.0000  0.0000  0.0000  0.0000  0.0000  0.0000  0.0000  0.0000  0.0000
   5.     0.0000  0.0000  0.0000  0.0000  0.0000  0.0000  0.0000  0.0000  0.0000
   6.     0.0000  0.0000  0.0000  0.0000  0.0000  0.0000  0.0000  0.0000  0.0000
   7.     0.0000  0.0000  0.0000  0.0000  0.0000  0.0000  0.0000  0.0000  0.0000
   8.     0.0000  0.0000  0.0000  0.0000  0.0000  0.0000  0.0000  0.0000  0.0000
   9.     0.0000  0.0000  0.0000  0.0000  0.0000  0.0000  0.0000  0.0000  0.0000
  10.     2.0000  0.0000  0.0000  0.0000  0.0000  0.0000  0.0000  0.0000  0.0000
  11.     0.0000  2.0000  0.0000  0.0000  0.0000  0.0000  0.0000  0.0000  0.0000
  12.     0.0000  0.0000  2.0000  0.0000  0.0000  0.0000  0.0000  0.0000  0.0000
  13.     0.0000  0.0000  0.0000  2.0000  0.0000  0.0000  0.0000  0.0000  0.0000
  14.     0.0000  0.0000  0.0000  0.0000  2.0000  0.0000  0.0000  0.0000  0.0000
  15.     0.0000  0.0000  0.0000  0.0000  0.0000  2.0000  0.0000  0.0000  0.0000
  16.     0.0000  0.0000  0.0000  0.0000  0.0000  0.0000  0.0000  0.0000  0.0000
  17.     0.0000  0.0000  0.0000  0.0000  0.0000  0.0000  0.0000  0.0000  0.0000
  18.     0.0000  0.0000  0.0000  0.0000  0.0000  0.0000  0.0000  0.0000  0.0000
  19.     0.0000  0.0000  0.0000  0.0000  0.0000  0.0000  0.0000  0.0000  0.0000
  20.     0.0000  0.0000  0.0000  0.0000  0.0000  0.0000  0.0000  0.0000  0.0000
  21.     0.0000  0.0000  0.0000  0.0000  0.0000  0.0000  0.0000  0.0000  0.0000
  22.     0.0000  0.0000  0.0000  0.0000  0.0000  0.0000  0.0000  0.0000  0.0000
  23.     0.0000  0.0000  0.0000  0.0000  0.0000  0.0000  0.0000  0.0000  0.0000
  24.     0.0000  0.0000  0.0000  0.0000  0.0000  0.0000  0.0000  0.0000  0.0000
  25.     0.0000  0.0000  0.0000  0.0000  0.0000  0.0000  0.0000  0.0000  0.0000
  26.     0.0000  0.0000  0.0000  0.0000  0.0000  0.0000  0.0000  0.0000  0.0000

      MO    19      20      21      22      23      24      25      26
     ---- ------  ------  ------  ------  ------  ------  ------  ------
   1.     0.0000  0.0000  0.0000  0.0000  0.0000  0.0000  0.0000  0.0000
   2.     0.0000  0.0000  0.0000  0.0000  0.0000  0.0000  0.0000  0.0000
   3.     0.0000  0.0000  0.0000  0.0000  0.0000  0.0000  0.0000  0.0000
   4.     0.0000  0.0000  0.0000  0.0000  0.0000  0.0000  0.0000  0.0000
   5.     0.0000  0.0000  0.0000  0.0000  0.0000  0.0000  0.0000  0.0000
   6.     0.0000  0.0000  0.0000  0.0000  0.0000  0.0000  0.0000  0.0000
   7.     0.0000  0.0000  0.0000  0.0000  0.0000  0.0000  0.0000  0.0000
   8.     0.0000  0.0000  0.0000  0.0000  0.0000  0.0000  0.0000  0.0000
   9.     0.0000  0.0000  0.0000  0.0000  0.0000  0.0000  0.0000  0.0000
  10.     0.0000  0.0000  0.0000  0.0000  0.0000  0.0000  0.0000  0.0000
  11.     0.0000  0.0000  0.0000  0.0000  0.0000  0.0000  0.0000  0.0000
  12.     0.0000  0.0000  0.0000  0.0000  0.0000  0.0000  0.0000  0.0000
  13.     0.0000  0.0000  0.0000  0.0000  0.0000  0.0000  0.0000  0.0000
  14.     0.0000  0.0000  0.0000  0.0000  0.0000  0.0000  0.0000  0.0000
  15.     0.0000  0.0000  0.0000  0.0000  0.0000  0.0000  0.0000  0.0000
  16.     0.0000  0.0000  0.0000  0.0000  0.0000  0.0000  0.0000  0.0000
  17.     0.0000  0.0000  0.0000  0.0000  0.0000  0.0000  0.0000  0.0000
  18.     0.0000  0.0000  0.0000  0.0000  0.0000  0.0000  0.0000  0.0000
  19.     0.0000  0.0000  0.0000  0.0000  0.0000  0.0000  0.0000  0.0000
  20.     0.0000  0.0000  0.0000  0.0000  0.0000  0.0000  0.0000  0.0000
  21.     0.0000  0.0000  0.0000  0.0000  0.0000  0.0000  0.0000  0.0000
  22.     0.0000  0.0000  0.0000  0.0000  0.0000  0.0000  0.0000  0.0000
  23.     0.0000  0.0000  0.0000  0.0000  0.0000  0.0000  0.0000  0.0000
  24.     0.0000  0.0000  0.0000  0.0000  0.0000  0.0000  0.0000  0.0000
  25.     0.0000  0.0000  0.0000  0.0000  0.0000  0.0000  0.0000  0.0000
  26.     0.0000  0.0000  0.0000  0.0000  0.0000  0.0000  0.0000  0.0000


 NATURAL POPULATIONS:  Natural atomic orbital occupancies

  NAO Atom No lang   Type(AO)    Occupancy      Energy
 -------------------------------------------------------
   1    C  1  s      Cor( 1s)     2.00000     -11.00733
   2    C  1  s      Val( 2s)     1.09485      -0.15439
   3    C  1  px     Val( 2p)     0.98944       0.13890
   4    C  1  py     Val( 2p)     0.98294       0.16520
   5    C  1  pz     Val( 2p)     1.00650      -0.00459

   6    C  2  s      Cor( 1s)     2.00000     -11.02169
   7    C  2  s      Val( 2s)     1.08630      -0.14871
   8    C  2  px     Val( 2p)     0.96871       0.15202
   9    C  2  py     Val( 2p)     0.98309       0.17366
  10    C  2  pz     Val( 2p)     0.99350       0.00579

  11    C  3  s      Cor( 1s)     2.00000     -11.02169
  12    C  3  s      Val( 2s)     1.08630      -0.14871
  13    C  3  px     Val( 2p)     0.96871       0.15202
  14    C  3  py     Val( 2p)     0.98309       0.17366
  15    C  3  pz     Val( 2p)     0.99350       0.00579

  16    C  4  s      Cor( 1s)     2.00000     -11.00733
  17    C  4  s      Val( 2s)     1.09485      -0.15439
  18    C  4  px     Val( 2p)     0.98944       0.13890
  19    C  4  py     Val( 2p)     0.98294       0.16520
  20    C  4  pz     Val( 2p)     1.00650      -0.00459

  21    H  5  s      Val( 1s)     0.96419       0.07547

  22    H  6  s      Val( 1s)     0.96603       0.07401

  23    H  7  s      Val( 1s)     0.96445       0.07414

  24    H  8  s      Val( 1s)     0.96445       0.07414

  25    H  9  s      Val( 1s)     0.96603       0.07401

  26    H 10  s      Val( 1s)     0.96419       0.07547


 Summary of Natural Population Analysis:

                                     Natural Population
             Natural    ---------------------------------------------
  Atom No    Charge        Core      Valence    Rydberg      Total
 --------------------------------------------------------------------
    C  1   -0.07373      2.00000     4.07373    0.00000     6.07373
    C  2   -0.03160      2.00000     4.03160    0.00000     6.03160
    C  3   -0.03160      2.00000     4.03160    0.00000     6.03160
    C  4   -0.07373      2.00000     4.07373    0.00000     6.07373
    H  5    0.03581      0.00000     0.96419    0.00000     0.96419
    H  6    0.03397      0.00000     0.96603    0.00000     0.96603
    H  7    0.03555      0.00000     0.96445    0.00000     0.96445
    H  8    0.03555      0.00000     0.96445    0.00000     0.96445
    H  9    0.03397      0.00000     0.96603    0.00000     0.96603
    H 10    0.03581      0.00000     0.96419    0.00000     0.96419
 ====================================================================
 * Total *  0.00000      8.00000    22.00000    0.00000    30.00000

                                 Natural Population
 ---------------------------------------------------------
   Core                       8.00000 ( 99.9999% of    8)
   Valence                   22.00000 (100.0000% of   22)
   Natural Minimal Basis     30.00000 (100.0000% of   30)
   Natural Rydberg Basis      0.00000 (  0.0000% of   30)
 ---------------------------------------------------------

    Atom No         Natural Electron Configuration
 ----------------------------------------------------------------------------
      C  1      [core]2s( 1.09)2p( 2.98)
      C  2      [core]2s( 1.09)2p( 2.95)
      C  3      [core]2s( 1.09)2p( 2.95)
      C  4      [core]2s( 1.09)2p( 2.98)
      H  5            1s( 0.96)
      H  6            1s( 0.97)
      H  7            1s( 0.96)
      H  8            1s( 0.96)
      H  9            1s( 0.97)
      H 10            1s( 0.96)


 PNAOs in the AO basis:

           AO          1       2       3       4       5       6       7       8
      ------------ ------- ------- ------- ------- ------- ------- ------- -------
   1.  C 1 (s)      0.9850 -0.3090  0.0000  0.0000  0.0000  0.0000  0.0000  0.0000
   2.  C 1 (s)      0.0546  1.0309  0.0000  0.0000  0.0000  0.0000  0.0000  0.0000
   3.  C 1 (px)     0.0000  0.0000  1.0000  0.0000  0.0000  0.0000  0.0000  0.0000
   4.  C 1 (py)     0.0000  0.0000  0.0000  1.0000  0.0000  0.0000  0.0000  0.0000
   5.  C 1 (pz)     0.0000  0.0000  0.0000  0.0000  1.0000  0.0000  0.0000  0.0000
   6.  C 2 (s)      0.0000  0.0000  0.0000  0.0000  0.0000  0.9852 -0.3085  0.0000
   7.  C 2 (s)      0.0000  0.0000  0.0000  0.0000  0.0000  0.0541  1.0309  0.0000
   8.  C 2 (px)     0.0000  0.0000  0.0000  0.0000  0.0000  0.0000  0.0000  1.0000
   9.  C 2 (py)     0.0000  0.0000  0.0000  0.0000  0.0000  0.0000  0.0000  0.0000
  10.  C 2 (pz)     0.0000  0.0000  0.0000  0.0000  0.0000  0.0000  0.0000  0.0000
  11.  C 3 (s)      0.0000  0.0000  0.0000  0.0000  0.0000  0.0000  0.0000  0.0000
  12.  C 3 (s)      0.0000  0.0000  0.0000  0.0000  0.0000  0.0000  0.0000  0.0000
  13.  C 3 (px)     0.0000  0.0000  0.0000  0.0000  0.0000  0.0000  0.0000  0.0000
  14.  C 3 (py)     0.0000  0.0000  0.0000  0.0000  0.0000  0.0000  0.0000  0.0000
  15.  C 3 (pz)     0.0000  0.0000  0.0000  0.0000  0.0000  0.0000  0.0000  0.0000
  16.  C 4 (s)      0.0000  0.0000  0.0000  0.0000  0.0000  0.0000  0.0000  0.0000
  17.  C 4 (s)      0.0000  0.0000  0.0000  0.0000  0.0000  0.0000  0.0000  0.0000
  18.  C 4 (px)     0.0000  0.0000  0.0000  0.0000  0.0000  0.0000  0.0000  0.0000
  19.  C 4 (py)     0.0000  0.0000  0.0000  0.0000  0.0000  0.0000  0.0000  0.0000
  20.  C 4 (pz)     0.0000  0.0000  0.0000  0.0000  0.0000  0.0000  0.0000  0.0000
  21.  H 5 (s)      0.0000  0.0000  0.0000  0.0000  0.0000  0.0000  0.0000  0.0000
  22.  H 6 (s)      0.0000  0.0000  0.0000  0.0000  0.0000  0.0000  0.0000  0.0000
  23.  H 7 (s)      0.0000  0.0000  0.0000  0.0000  0.0000  0.0000  0.0000  0.0000
  24.  H 8 (s)      0.0000  0.0000  0.0000  0.0000  0.0000  0.0000  0.0000  0.0000
  25.  H 9 (s)      0.0000  0.0000  0.0000  0.0000  0.0000  0.0000  0.0000  0.0000
  26.  H10 (s)      0.0000  0.0000  0.0000  0.0000  0.0000  0.0000  0.0000  0.0000

           AO          9      10      11      12      13      14      15      16
      ------------ ------- ------- ------- ------- ------- ------- ------- -------
   1.  C 1 (s)      0.0000  0.0000  0.0000  0.0000  0.0000  0.0000  0.0000  0.0000
   2.  C 1 (s)      0.0000  0.0000  0.0000  0.0000  0.0000  0.0000  0.0000  0.0000
   3.  C 1 (px)     0.0000  0.0000  0.0000  0.0000  0.0000  0.0000  0.0000  0.0000
   4.  C 1 (py)     0.0000  0.0000  0.0000  0.0000  0.0000  0.0000  0.0000  0.0000
   5.  C 1 (pz)     0.0000  0.0000  0.0000  0.0000  0.0000  0.0000  0.0000  0.0000
   6.  C 2 (s)      0.0000  0.0000  0.0000  0.0000  0.0000  0.0000  0.0000  0.0000
   7.  C 2 (s)      0.0000  0.0000  0.0000  0.0000  0.0000  0.0000  0.0000  0.0000
   8.  C 2 (px)     0.0000  0.0000  0.0000  0.0000  0.0000  0.0000  0.0000  0.0000
   9.  C 2 (py)     1.0000  0.0000  0.0000  0.0000  0.0000  0.0000  0.0000  0.0000
  10.  C 2 (pz)     0.0000  1.0000  0.0000  0.0000  0.0000  0.0000  0.0000  0.0000
  11.  C 3 (s)      0.0000  0.0000  0.9852 -0.3085  0.0000  0.0000  0.0000  0.0000
  12.  C 3 (s)      0.0000  0.0000  0.0541  1.0309  0.0000  0.0000  0.0000  0.0000
  13.  C 3 (px)     0.0000  0.0000  0.0000  0.0000  1.0000  0.0000  0.0000  0.0000
  14.  C 3 (py)     0.0000  0.0000  0.0000  0.0000  0.0000  1.0000  0.0000  0.0000
  15.  C 3 (pz)     0.0000  0.0000  0.0000  0.0000  0.0000  0.0000  1.0000  0.0000
  16.  C 4 (s)      0.0000  0.0000  0.0000  0.0000  0.0000  0.0000  0.0000  0.9850
  17.  C 4 (s)      0.0000  0.0000  0.0000  0.0000  0.0000  0.0000  0.0000  0.0546
  18.  C 4 (px)     0.0000  0.0000  0.0000  0.0000  0.0000  0.0000  0.0000  0.0000
  19.  C 4 (py)     0.0000  0.0000  0.0000  0.0000  0.0000  0.0000  0.0000  0.0000
  20.  C 4 (pz)     0.0000  0.0000  0.0000  0.0000  0.0000  0.0000  0.0000  0.0000
  21.  H 5 (s)      0.0000  0.0000  0.0000  0.0000  0.0000  0.0000  0.0000  0.0000
  22.  H 6 (s)      0.0000  0.0000  0.0000  0.0000  0.0000  0.0000  0.0000  0.0000
  23.  H 7 (s)      0.0000  0.0000  0.0000  0.0000  0.0000  0.0000  0.0000  0.0000
  24.  H 8 (s)      0.0000  0.0000  0.0000  0.0000  0.0000  0.0000  0.0000  0.0000
  25.  H 9 (s)      0.0000  0.0000  0.0000  0.0000  0.0000  0.0000  0.0000  0.0000
  26.  H10 (s)      0.0000  0.0000  0.0000  0.0000  0.0000  0.0000  0.0000  0.0000

           AO         17      18      19      20      21      22      23      24
      ------------ ------- ------- ------- ------- ------- ------- ------- -------
   1.  C 1 (s)      0.0000  0.0000  0.0000  0.0000  0.0000  0.0000  0.0000  0.0000
   2.  C 1 (s)      0.0000  0.0000  0.0000  0.0000  0.0000  0.0000  0.0000  0.0000
   3.  C 1 (px)     0.0000  0.0000  0.0000  0.0000  0.0000  0.0000  0.0000  0.0000
   4.  C 1 (py)     0.0000  0.0000  0.0000  0.0000  0.0000  0.0000  0.0000  0.0000
   5.  C 1 (pz)     0.0000  0.0000  0.0000  0.0000  0.0000  0.0000  0.0000  0.0000
   6.  C 2 (s)      0.0000  0.0000  0.0000  0.0000  0.0000  0.0000  0.0000  0.0000
   7.  C 2 (s)      0.0000  0.0000  0.0000  0.0000  0.0000  0.0000  0.0000  0.0000
   8.  C 2 (px)     0.0000  0.0000  0.0000  0.0000  0.0000  0.0000  0.0000  0.0000
   9.  C 2 (py)     0.0000  0.0000  0.0000  0.0000  0.0000  0.0000  0.0000  0.0000
  10.  C 2 (pz)     0.0000  0.0000  0.0000  0.0000  0.0000  0.0000  0.0000  0.0000
  11.  C 3 (s)      0.0000  0.0000  0.0000  0.0000  0.0000  0.0000  0.0000  0.0000
  12.  C 3 (s)      0.0000  0.0000  0.0000  0.0000  0.0000  0.0000  0.0000  0.0000
  13.  C 3 (px)     0.0000  0.0000  0.0000  0.0000  0.0000  0.0000  0.0000  0.0000
  14.  C 3 (py)     0.0000  0.0000  0.0000  0.0000  0.0000  0.0000  0.0000  0.0000
  15.  C 3 (pz)     0.0000  0.0000  0.0000  0.0000  0.0000  0.0000  0.0000  0.0000
  16.  C 4 (s)     -0.3090  0.0000  0.0000  0.0000  0.0000  0.0000  0.0000  0.0000
  17.  C 4 (s)      1.0309  0.0000  0.0000  0.0000  0.0000  0.0000  0.0000  0.0000
  18.  C 4 (px)     0.0000  1.0000  0.0000  0.0000  0.0000  0.0000  0.0000  0.0000
  19.  C 4 (py)     0.0000  0.0000  1.0000  0.0000  0.0000  0.0000  0.0000  0.0000
  20.  C 4 (pz)     0.0000  0.0000  0.0000  1.0000  0.0000  0.0000  0.0000  0.0000
  21.  H 5 (s)      0.0000  0.0000  0.0000  0.0000  1.0000  0.0000  0.0000  0.0000
  22.  H 6 (s)      0.0000  0.0000  0.0000  0.0000  0.0000  1.0000  0.0000  0.0000
  23.  H 7 (s)      0.0000  0.0000  0.0000  0.0000  0.0000  0.0000  1.0000  0.0000
  24.  H 8 (s)      0.0000  0.0000  0.0000  0.0000  0.0000  0.0000  0.0000  1.0000
  25.  H 9 (s)      0.0000  0.0000  0.0000  0.0000  0.0000  0.0000  0.0000  0.0000
  26.  H10 (s)      0.0000  0.0000  0.0000  0.0000  0.0000  0.0000  0.0000  0.0000

           AO         25      26
      ------------ ------- -------
   1.  C 1 (s)      0.0000  0.0000
   2.  C 1 (s)      0.0000  0.0000
   3.  C 1 (px)     0.0000  0.0000
   4.  C 1 (py)     0.0000  0.0000
   5.  C 1 (pz)     0.0000  0.0000
   6.  C 2 (s)      0.0000  0.0000
   7.  C 2 (s)      0.0000  0.0000
   8.  C 2 (px)     0.0000  0.0000
   9.  C 2 (py)     0.0000  0.0000
  10.  C 2 (pz)     0.0000  0.0000
  11.  C 3 (s)      0.0000  0.0000
  12.  C 3 (s)      0.0000  0.0000
  13.  C 3 (px)     0.0000  0.0000
  14.  C 3 (py)     0.0000  0.0000
  15.  C 3 (pz)     0.0000  0.0000
  16.  C 4 (s)      0.0000  0.0000
  17.  C 4 (s)      0.0000  0.0000
  18.  C 4 (px)     0.0000  0.0000
  19.  C 4 (py)     0.0000  0.0000
  20.  C 4 (pz)     0.0000  0.0000
  21.  H 5 (s)      0.0000  0.0000
  22.  H 6 (s)      0.0000  0.0000
  23.  H 7 (s)      0.0000  0.0000
  24.  H 8 (s)      0.0000  0.0000
  25.  H 9 (s)      1.0000  0.0000
  26.  H10 (s)      0.0000  1.0000


 PNAO overlap matrix:

           NAO         1       2       3       4       5       6       7       8
      ------------ ------- ------- ------- ------- ------- ------- ------- -------
   1.  C 1( 1s )    1.0000  0.0000  0.0000  0.0000  0.0000  0.0058  0.0652  0.0000
   2.  C 1( 2s )    0.0000  1.0000  0.0000  0.0000  0.0000  0.0649  0.3914  0.0000
   3.  C 1( 2px)    0.0000  0.0000  1.0000  0.0000  0.0000  0.0000  0.0000  0.2362
   4.  C 1( 2py)    0.0000  0.0000  0.0000  1.0000  0.0000 -0.0924 -0.3991  0.0000
   5.  C 1( 2pz)    0.0000  0.0000  0.0000  0.0000  1.0000  0.0000  0.0000  0.0000
   6.  C 2( 1s )    0.0058  0.0649  0.0000 -0.0924  0.0000  1.0000  0.0000  0.0000
   7.  C 2( 2s )    0.0652  0.3914  0.0000 -0.3991  0.0000  0.0000  1.0000  0.0000
   8.  C 2( 2px)    0.0000  0.0000  0.2362  0.0000  0.0000  0.0000  0.0000  1.0000
   9.  C 2( 2py)    0.0926  0.3990  0.0000 -0.3282  0.0000  0.0000  0.0000  0.0000
  10.  C 2( 2pz)    0.0000  0.0000  0.0000  0.0000  0.2362  0.0000  0.0000  0.0000
  11.  C 3( 1s )    0.0003  0.0046 -0.0039 -0.0069  0.0000  0.0045  0.0515 -0.0611
  12.  C 3( 2s )    0.0046  0.0573 -0.0408 -0.0724  0.0000  0.0515  0.3375 -0.3011
  13.  C 3( 2px)    0.0039  0.0408 -0.0096 -0.0572  0.0000  0.0611  0.3011 -0.1652
  14.  C 3( 2py)    0.0070  0.0724 -0.0572 -0.0789  0.0000  0.0408  0.2008 -0.2385
  15.  C 3( 2pz)    0.0000  0.0000  0.0000  0.0000  0.0227  0.0000  0.0000  0.0000
  16.  C 4( 1s )    0.0000  0.0001 -0.0001 -0.0002  0.0000  0.0003  0.0046 -0.0039
  17.  C 4( 2s )    0.0001  0.0024 -0.0015 -0.0043  0.0000  0.0046  0.0573 -0.0408
  18.  C 4( 2px)    0.0001  0.0015 -0.0002 -0.0027  0.0000  0.0039  0.0408 -0.0096
  19.  C 4( 2py)    0.0002  0.0043 -0.0027 -0.0071  0.0000  0.0069  0.0724 -0.0572
  20.  C 4( 2pz)    0.0000  0.0000  0.0000  0.0000  0.0008  0.0000  0.0000  0.0000
  21.  H 5( 1s )    0.0891  0.4898  0.3989  0.2470  0.0000  0.0114  0.1045  0.0573
  22.  H 6( 1s )    0.0888  0.4887 -0.3998  0.2444  0.0000  0.0114  0.1048 -0.0578
  23.  H 7( 1s )    0.0119  0.1079  0.0611 -0.1213  0.0000  0.0880  0.4869  0.4065
  24.  H 8( 1s )    0.0030  0.0343 -0.0392 -0.0292  0.0000  0.0101  0.0950 -0.1206
  25.  H 9( 1s )    0.0001  0.0011 -0.0001 -0.0021  0.0000  0.0027  0.0317 -0.0047
  26.  H10( 1s )    0.0000  0.0002 -0.0002 -0.0004  0.0000  0.0004  0.0059 -0.0059

           NAO         9      10      11      12      13      14      15      16
      ------------ ------- ------- ------- ------- ------- ------- ------- -------
   1.  C 1( 1s )    0.0926  0.0000  0.0003  0.0046  0.0039  0.0070  0.0000  0.0000
   2.  C 1( 2s )    0.3990  0.0000  0.0046  0.0573  0.0408  0.0724  0.0000  0.0001
   3.  C 1( 2px)    0.0000  0.0000 -0.0039 -0.0408 -0.0096 -0.0572  0.0000 -0.0001
   4.  C 1( 2py)   -0.3282  0.0000 -0.0069 -0.0724 -0.0572 -0.0789  0.0000 -0.0002
   5.  C 1( 2pz)    0.0000  0.2362  0.0000  0.0000  0.0000  0.0000  0.0227  0.0000
   6.  C 2( 1s )    0.0000  0.0000  0.0045  0.0515  0.0611  0.0408  0.0000  0.0003
   7.  C 2( 2s )    0.0000  0.0000  0.0515  0.3375  0.3011  0.2008  0.0000  0.0046
   8.  C 2( 2px)    0.0000  0.0000 -0.0611 -0.3011 -0.1652 -0.2385  0.0000 -0.0039
   9.  C 2( 2py)    1.0000  0.0000 -0.0408 -0.2008 -0.2385  0.0331  0.0000 -0.0070
  10.  C 2( 2pz)    0.0000  1.0000  0.0000  0.0000  0.0000  0.0000  0.1922  0.0000
  11.  C 3( 1s )   -0.0408  0.0000  1.0000  0.0000  0.0000  0.0000  0.0000  0.0058
  12.  C 3( 2s )   -0.2008  0.0000  0.0000  1.0000  0.0000  0.0000  0.0000  0.0652
  13.  C 3( 2px)   -0.2385  0.0000  0.0000  0.0000  1.0000  0.0000  0.0000  0.0000
  14.  C 3( 2py)    0.0331  0.0000  0.0000  0.0000  0.0000  1.0000  0.0000 -0.0926
  15.  C 3( 2pz)    0.0000  0.1922  0.0000  0.0000  0.0000  0.0000  1.0000  0.0000
  16.  C 4( 1s )   -0.0070  0.0000  0.0058  0.0652  0.0000 -0.0926  0.0000  1.0000
  17.  C 4( 2s )   -0.0724  0.0000  0.0649  0.3914  0.0000 -0.3990  0.0000  0.0000
  18.  C 4( 2px)   -0.0572  0.0000  0.0000  0.0000  0.2362  0.0000  0.0000  0.0000
  19.  C 4( 2py)   -0.0789  0.0000  0.0924  0.3991  0.0000 -0.3282  0.0000  0.0000
  20.  C 4( 2pz)    0.0000  0.0227  0.0000  0.0000  0.0000  0.0000  0.2362  0.0000
  21.  H 5( 1s )    0.1189  0.0000  0.0004  0.0059  0.0059  0.0076  0.0000  0.0000
  22.  H 6( 1s )    0.1191  0.0000  0.0027  0.0317  0.0047  0.0453  0.0000  0.0001
  23.  H 7( 1s )   -0.2306  0.0000  0.0101  0.0950  0.1206  0.0151  0.0000  0.0030
  24.  H 8( 1s )   -0.0151  0.0000  0.0880  0.4869 -0.4065  0.2306  0.0000  0.0119
  25.  H 9( 1s )   -0.0453  0.0000  0.0114  0.1048  0.0578 -0.1191  0.0000  0.0888
  26.  H10( 1s )   -0.0076  0.0000  0.0114  0.1045 -0.0573 -0.1189  0.0000  0.0891

           NAO        17      18      19      20      21      22      23      24
      ------------ ------- ------- ------- ------- ------- ------- ------- -------
   1.  C 1( 1s )    0.0001  0.0001  0.0002  0.0000  0.0891  0.0888  0.0119  0.0030
   2.  C 1( 2s )    0.0024  0.0015  0.0043  0.0000  0.4898  0.4887  0.1079  0.0343
   3.  C 1( 2px)   -0.0015 -0.0002 -0.0027  0.0000  0.3989 -0.3998  0.0611 -0.0392
   4.  C 1( 2py)   -0.0043 -0.0027 -0.0071  0.0000  0.2470  0.2444 -0.1213 -0.0292
   5.  C 1( 2pz)    0.0000  0.0000  0.0000  0.0008  0.0000  0.0000  0.0000  0.0000
   6.  C 2( 1s )    0.0046  0.0039  0.0069  0.0000  0.0114  0.0114  0.0880  0.0101
   7.  C 2( 2s )    0.0573  0.0408  0.0724  0.0000  0.1045  0.1048  0.4869  0.0950
   8.  C 2( 2px)   -0.0408 -0.0096 -0.0572  0.0000  0.0573 -0.0578  0.4065 -0.1206
   9.  C 2( 2py)   -0.0724 -0.0572 -0.0789  0.0000  0.1189  0.1191 -0.2306 -0.0151
  10.  C 2( 2pz)    0.0000  0.0000  0.0000  0.0227  0.0000  0.0000  0.0000  0.0000
  11.  C 3( 1s )    0.0649  0.0000  0.0924  0.0000  0.0004  0.0027  0.0101  0.0880
  12.  C 3( 2s )    0.3914  0.0000  0.3991  0.0000  0.0059  0.0317  0.0950  0.4869
  13.  C 3( 2px)    0.0000  0.2362  0.0000  0.0000  0.0059  0.0047  0.1206 -0.4065
  14.  C 3( 2py)   -0.3990  0.0000 -0.3282  0.0000  0.0076  0.0453  0.0151  0.2306
  15.  C 3( 2pz)    0.0000  0.0000  0.0000  0.2362  0.0000  0.0000  0.0000  0.0000
  16.  C 4( 1s )    0.0000  0.0000  0.0000  0.0000  0.0000  0.0001  0.0030  0.0119
  17.  C 4( 2s )    1.0000  0.0000  0.0000  0.0000  0.0002  0.0011  0.0343  0.1079
  18.  C 4( 2px)    0.0000  1.0000  0.0000  0.0000  0.0002  0.0001  0.0392 -0.0611
  19.  C 4( 2py)    0.0000  0.0000  1.0000  0.0000  0.0004  0.0021  0.0292  0.1213
  20.  C 4( 2pz)    0.0000  0.0000  0.0000  1.0000  0.0000  0.0000  0.0000  0.0000
  21.  H 5( 1s )    0.0002  0.0002  0.0004  0.0000  1.0000  0.1520  0.0542  0.0031
  22.  H 6( 1s )    0.0011  0.0001  0.0021  0.0000  0.1520  1.0000  0.0153  0.0492
  23.  H 7( 1s )    0.0343  0.0392  0.0292  0.0000  0.0542  0.0153  1.0000  0.0142
  24.  H 8( 1s )    0.1079 -0.0611  0.1213  0.0000  0.0031  0.0492  0.0142  1.0000
  25.  H 9( 1s )    0.4887  0.3998 -0.2444  0.0000  0.0002  0.0003  0.0492  0.0153
  26.  H10( 1s )    0.4898 -0.3989 -0.2470  0.0000  0.0000  0.0002  0.0031  0.0542

           NAO        25      26
      ------------ ------- -------
   1.  C 1( 1s )    0.0001  0.0000
   2.  C 1( 2s )    0.0011  0.0002
   3.  C 1( 2px)   -0.0001 -0.0002
   4.  C 1( 2py)   -0.0021 -0.0004
   5.  C 1( 2pz)    0.0000  0.0000
   6.  C 2( 1s )    0.0027  0.0004
   7.  C 2( 2s )    0.0317  0.0059
   8.  C 2( 2px)   -0.0047 -0.0059
   9.  C 2( 2py)   -0.0453 -0.0076
  10.  C 2( 2pz)    0.0000  0.0000
  11.  C 3( 1s )    0.0114  0.0114
  12.  C 3( 2s )    0.1048  0.1045
  13.  C 3( 2px)    0.0578 -0.0573
  14.  C 3( 2py)   -0.1191 -0.1189
  15.  C 3( 2pz)    0.0000  0.0000
  16.  C 4( 1s )    0.0888  0.0891
  17.  C 4( 2s )    0.4887  0.4898
  18.  C 4( 2px)    0.3998 -0.3989
  19.  C 4( 2py)   -0.2444 -0.2470
  20.  C 4( 2pz)    0.0000  0.0000
  21.  H 5( 1s )    0.0002  0.0000
  22.  H 6( 1s )    0.0003  0.0002
  23.  H 7( 1s )    0.0492  0.0031
  24.  H 8( 1s )    0.0153  0.0542
  25.  H 9( 1s )    1.0000  0.1520
  26.  H10( 1s )    0.1520  1.0000


 PNAO density matrix:

           NAO         1       2       3       4       5       6       7       8
      ------------ ------- ------- ------- ------- ------- ------- ------- -------
   1.  C 1( 1s )    2.0000  0.0000  0.0000 -0.0002  0.0000  0.0115  0.1300  0.0000
   2.  C 1( 2s )    0.0000  1.8426 -0.0001 -0.0139  0.0000  0.1296  0.8406 -0.0026
   3.  C 1( 2px)    0.0000 -0.0001  1.6296  0.0015  0.0000  0.0001  0.0018  0.4746
   4.  C 1( 2py)   -0.0002 -0.0139  0.0015  1.6694  0.0000 -0.1849 -0.9060  0.0019
   5.  C 1( 2pz)    0.0000  0.0000  0.0000  0.0000  1.2334  0.0000  0.0000  0.0000
   6.  C 2( 1s )    0.0115  0.1296  0.0001 -0.1849  0.0000  2.0000  0.0000  0.0002
   7.  C 2( 2s )    0.1300  0.8406  0.0018 -0.9060  0.0000  0.0000  1.8385  0.0092
[...]
            0.0000 0.0000 0.0000 0.7196 0.0000 0.6944
      Occupancy is 1.987 after deleting minor hybrid components
            0.0000 0.0000 0.0000 0.7196 0.0000 0.6944
           NBO accepted:   21. Label:BD ( 1)   3   8
      Occupancy is 0.012 for antibonding component
            0.0000 0.0000 0.0000-0.6944 0.0000 0.7196
           NBO accepted:   22. Label:BD*( 1)   3   8
        2 eigenvector(s) stashed in permanent list

 Search of NHO DM block for the following atom(s):   4   9
      Select eigenvectors with eigenvalue > 1.900
       1.992 0.009 0.000 0.000 0.000 0.000
      Eigenvector ( 1) has occupancy 1.99181
            0.0000 0.0000 0.0000 0.0000 0.7192 0.6948
      Occupancy is 1.992 after deleting minor hybrid components
            0.0000 0.0000 0.0000 0.0000 0.7192 0.6948
           NBO accepted:   23. Label:BD ( 1)   4   9
      Occupancy is 0.009 for antibonding component
            0.0000 0.0000 0.0000 0.0000-0.6948 0.7192
           NBO accepted:   24. Label:BD*( 1)   4   9
        2 eigenvector(s) stashed in permanent list

 Search of NHO DM block for the following atom(s):   4  10
      Select eigenvectors with eigenvalue > 1.900
       1.992 0.007 0.000 0.000 0.000 0.000
      Eigenvector ( 1) has occupancy 1.99231
            0.0000 0.0000 0.0000 0.7197 0.0000 0.6943
      Occupancy is 1.992 after deleting minor hybrid components
            0.0000 0.0000 0.0000 0.7197 0.0000 0.6943
           NBO accepted:   25. Label:BD ( 1)   4  10
      Occupancy is 0.007 for antibonding component
            0.0000 0.0000 0.0000-0.6943 0.0000 0.7197
           NBO accepted:   26. Label:BD*( 1)   4  10
        2 eigenvector(s) stashed in permanent list

  2-center NBOs projected from the NHO density matrix
       0.000 electrons remain in the fully projected matrix

                            Occupancies       Lewis Structure    Low   High
         Max    Occ     -------------------  -----------------   occ   occ
  Cycle  Ctr   Thresh    Lewis   non-Lewis     CR  BD  nC  LP    (L)   (NL)
 ============================================================================
    1     2     1.90    29.82773   0.17227      4  11   0   0     0      0
 ----------------------------------------------------------------------------

 Structure accepted: No low occupancy Lewis orbitals

 -------------------------------------------------------
   Core                      8.00000 (100.000% of   8)
   Valence Lewis            21.82774 ( 99.217% of  22)
  ==================      =============================
   Total Lewis              29.82773 ( 99.426% of  30)
  -----------------------------------------------------
   Valence non-Lewis         0.17227 (  0.574% of  30)
   Rydberg non-Lewis         0.00000 (  0.000% of  30)
  ==================      =============================
   Total non-Lewis           0.17227 (  0.574% of  30)
 -------------------------------------------------------


     (Occupancy)   Bond orbital / Coefficients / Hybrids
 ------------------ Lewis ------------------------------------------------------
   1. (2.00000) CR ( 1) C  1            s(100.00%)
                                         1.0000  0.0000  0.0000  0.0000  0.0000
   2. (2.00000) CR ( 1) C  2            s(100.00%)
                                         1.0000  0.0000  0.0000  0.0000  0.0000
   3. (2.00000) CR ( 1) C  3            s(100.00%)
                                         1.0000  0.0000  0.0000  0.0000  0.0000
   4. (2.00000) CR ( 1) C  4            s(100.00%)
                                         1.0000  0.0000  0.0000  0.0000  0.0000
   5. (1.99526) BD ( 1) C  1- C  2
               ( 49.87%)   0.7062* C  1 s( 37.10%)p 1.70( 62.90%)
                                         0.0000  0.6091 -0.0004 -0.7931  0.0000
               ( 50.13%)   0.7080* C  2 s( 36.91%)p 1.71( 63.09%)
                                         0.0000  0.6075 -0.0119  0.7942  0.0000
   6. (1.95443) BD ( 2) C  1- C  2
               ( 50.34%)   0.7095* C  1 s(  0.00%)p 1.00(100.00%)
                                         0.0000  0.0000  0.0000  0.0000  1.0000
               ( 49.66%)   0.7047* C  2 s(  0.00%)p 1.00(100.00%)
                                         0.0000  0.0000  0.0000  0.0000  1.0000
   7. (1.99231) BD ( 1) C  1- H  5
               ( 51.79%)   0.7197* C  1 s( 31.60%)p 2.16( 68.40%)
                                         0.0000  0.5622  0.7057  0.4313  0.0000
               ( 48.21%)   0.6943* H  5 s(100.00%)
                                         1.0000
   8. (1.99181) BD ( 1) C  1- H  6
               ( 51.73%)   0.7192* C  1 s( 31.30%)p 2.19( 68.70%)
                                         0.0000  0.5595 -0.7086  0.4300  0.0000
               ( 48.27%)   0.6948* H  6 s(100.00%)
                                         1.0000
   9. (1.98569) BD ( 1) C  2- C  3
               ( 50.00%)   0.7071* C  2 s( 32.39%)p 2.09( 67.61%)
                                         0.0000  0.5691 -0.6909 -0.4457  0.0000
               ( 50.00%)   0.7071* C  3 s( 32.39%)p 2.09( 67.61%)
                                         0.0000  0.5691  0.6909  0.4457  0.0000
  10. (1.98720) BD ( 1) C  2- H  7
               ( 51.78%)   0.7196* C  2 s( 30.70%)p 2.26( 69.30%)
                                         0.0000  0.5541  0.7228 -0.4130  0.0000
               ( 48.22%)   0.6944* H  7 s(100.00%)
                                         1.0000
  11. (1.99526) BD ( 1) C  3- C  4
               ( 50.13%)   0.7080* C  3 s( 36.91%)p 1.71( 63.09%)
                                         0.0000  0.6075  0.0119 -0.7942  0.0000
               ( 49.87%)   0.7062* C  4 s( 37.10%)p 1.70( 62.90%)
                                         0.0000  0.6091  0.0004  0.7931  0.0000
  12. (1.95443) BD ( 2) C  3- C  4
               ( 49.66%)   0.7047* C  3 s(  0.00%)p 1.00(100.00%)
                                         0.0000  0.0000  0.0000  0.0000  1.0000
               ( 50.34%)   0.7095* C  4 s(  0.00%)p 1.00(100.00%)
                                         0.0000  0.0000  0.0000  0.0000  1.0000
  13. (1.98720) BD ( 1) C  3- H  8
               ( 51.78%)   0.7196* C  3 s( 30.70%)p 2.26( 69.30%)
                                         0.0000  0.5541 -0.7228  0.4130  0.0000
               ( 48.22%)   0.6944* H  8 s(100.00%)
                                         1.0000
  14. (1.99181) BD ( 1) C  4- H  9
               ( 51.73%)   0.7192* C  4 s( 31.30%)p 2.19( 68.70%)
                                         0.0000  0.5595  0.7086 -0.4300  0.0000
               ( 48.27%)   0.6948* H  9 s(100.00%)
                                         1.0000
  15. (1.99231) BD ( 1) C  4- H 10
               ( 51.79%)   0.7197* C  4 s( 31.60%)p 2.16( 68.40%)
                                         0.0000  0.5622 -0.7057 -0.4313  0.0000
               ( 48.21%)   0.6943* H 10 s(100.00%)
                                         1.0000
 ---------------- non-Lewis ----------------------------------------------------
  16. (0.00462) BD*( 1) C  1- C  2
               ( 50.13%)   0.7080* C  1 s( 37.10%)p 1.70( 62.90%)
                                         0.0000  0.6091 -0.0004 -0.7931  0.0000
               ( 49.87%)  -0.7062* C  2 s( 36.91%)p 1.71( 63.09%)
                                         0.0000  0.6075 -0.0119  0.7942  0.0000
  17. (0.04557) BD*( 2) C  1- C  2
               ( 49.66%)   0.7047* C  1 s(  0.00%)p 1.00(100.00%)
                                         0.0000  0.0000  0.0000  0.0000 -1.0000
               ( 50.34%)  -0.7095* C  2 s(  0.00%)p 1.00(100.00%)
                                         0.0000  0.0000  0.0000  0.0000 -1.0000
  18. (0.00725) BD*( 1) C  1- H  5
               ( 48.21%)   0.6943* C  1 s( 31.60%)p 2.16( 68.40%)
                                         0.0000 -0.5622 -0.7057 -0.4313  0.0000
               ( 51.79%)  -0.7197* H  5 s(100.00%)
                                        -1.0000
  19. (0.00867) BD*( 1) C  1- H  6
               ( 48.27%)   0.6948* C  1 s( 31.30%)p 2.19( 68.70%)
                                         0.0000 -0.5595  0.7086 -0.4300  0.0000
               ( 51.73%)  -0.7192* H  6 s(100.00%)
                                        -1.0000
  20. (0.01568) BD*( 1) C  2- C  3
               ( 50.00%)   0.7071* C  2 s( 32.39%)p 2.09( 67.61%)
                                         0.0000  0.5691 -0.6909 -0.4457  0.0000
               ( 50.00%)  -0.7071* C  3 s( 32.39%)p 2.09( 67.61%)
                                         0.0000  0.5691  0.6909  0.4457  0.0000
  21. (0.01218) BD*( 1) C  2- H  7
               ( 48.22%)   0.6944* C  2 s( 30.70%)p 2.26( 69.30%)
                                         0.0000 -0.5541 -0.7228  0.4130  0.0000
               ( 51.78%)  -0.7196* H  7 s(100.00%)
                                        -1.0000
  22. (0.00462) BD*( 1) C  3- C  4
               ( 49.87%)   0.7062* C  3 s( 36.91%)p 1.71( 63.09%)
                                         0.0000 -0.6075 -0.0119  0.7942  0.0000
               ( 50.13%)  -0.7080* C  4 s( 37.10%)p 1.70( 62.90%)
                                         0.0000 -0.6091 -0.0004 -0.7931  0.0000
  23. (0.04557) BD*( 2) C  3- C  4
               ( 50.34%)   0.7095* C  3 s(  0.00%)p 1.00(100.00%)
                                         0.0000  0.0000  0.0000  0.0000  1.0000
               ( 49.66%)  -0.7047* C  4 s(  0.00%)p 1.00(100.00%)
                                         0.0000  0.0000  0.0000  0.0000  1.0000
  24. (0.01218) BD*( 1) C  3- H  8
               ( 48.22%)   0.6944* C  3 s( 30.70%)p 2.26( 69.30%)
                                         0.0000 -0.5541  0.7228 -0.4130  0.0000
               ( 51.78%)  -0.7196* H  8 s(100.00%)
                                        -1.0000
  25. (0.00867) BD*( 1) C  4- H  9
               ( 48.27%)   0.6948* C  4 s( 31.30%)p 2.19( 68.70%)
                                         0.0000 -0.5595 -0.7086  0.4300  0.0000
               ( 51.73%)  -0.7192* H  9 s(100.00%)
                                        -1.0000
  26. (0.00725) BD*( 1) C  4- H 10
               ( 48.21%)   0.6943* C  4 s( 31.60%)p 2.16( 68.40%)
                                         0.0000 -0.5622  0.7057  0.4313  0.0000
               ( 51.79%)  -0.7197* H 10 s(100.00%)
                                        -1.0000


 NHO DIRECTIONALITY AND BOND BENDING (deviation from line of nuclear centers at
                                      the position of maximum hybrid amplitude)

         [Thresholds for printing:  angular deviation  >  1.0 degree]
                                    p- or d-character  > 25.0%
                                    orbital occupancy  >  0.10e

                        Line of Centers        Hybrid 1             Hybrid 2
                        ---------------  -------------------  ------------------
           NBO            Theta   Phi    Theta   Phi    Dev   Theta   Phi    Dev
 ===============================================================================
   5. BD ( 1) C  1- C  2   90.0  270.0     --     --    --     90.0   91.1   1.1
   6. BD ( 2) C  1- C  2   90.0  270.0   179.8   90.0  90.2   179.8  304.3  90.1
   9. BD ( 1) C  2- C  3   90.0  213.7    90.0  212.4   1.3    90.0   32.4   1.3
  11. BD ( 1) C  3- C  4   90.0  270.0    90.0  271.1   1.1     --     --    --
  12. BD ( 2) C  3- C  4   90.0  270.0   179.8  124.3  90.1     0.2  270.0  90.2


 SECOND ORDER PERTURBATION THEORY ANALYSIS OF FOCK MATRIX IN NBO BASIS

     Threshold for printing:   0.50 kcal/mol
                                                          E(2) E(NL)-E(L) F(L,NL)
      Donor (L) NBO              Acceptor (NL) NBO      kcal/mol   a.u.    a.u.
 ===============================================================================

 within unit  1
    5. BD ( 1) C  1- C  2      19. BD*( 1) C  1- H  6      0.51    1.51   0.025
    5. BD ( 1) C  1- C  2      20. BD*( 1) C  2- C  3      0.51    1.57   0.025
    5. BD ( 1) C  1- C  2      21. BD*( 1) C  2- H  7      0.51    1.51   0.025
    5. BD ( 1) C  1- C  2      22. BD*( 1) C  3- C  4      1.41    1.73   0.044
    5. BD ( 1) C  1- C  2      24. BD*( 1) C  3- H  8      0.69    1.51   0.029
    6. BD ( 2) C  1- C  2      23. BD*( 2) C  3- C  4     19.26    0.63   0.098
    7. BD ( 1) C  1- H  5      19. BD*( 1) C  1- H  6      1.16    1.37   0.036
    7. BD ( 1) C  1- H  5      20. BD*( 1) C  2- C  3      3.28    1.44   0.061
    7. BD ( 1) C  1- H  5      21. BD*( 1) C  2- H  7      1.45    1.37   0.040
    8. BD ( 1) C  1- H  6      16. BD*( 1) C  1- C  2      0.53    1.60   0.026
    8. BD ( 1) C  1- H  6      18. BD*( 1) C  1- H  5      1.19    1.37   0.036
    8. BD ( 1) C  1- H  6      20. BD*( 1) C  2- C  3      1.77    1.44   0.045
    8. BD ( 1) C  1- H  6      21. BD*( 1) C  2- H  7      3.36    1.37   0.061
    9. BD ( 1) C  2- C  3      18. BD*( 1) C  1- H  5      2.97    1.44   0.058
    9. BD ( 1) C  2- C  3      19. BD*( 1) C  1- H  6      1.42    1.43   0.040
    9. BD ( 1) C  2- C  3      21. BD*( 1) C  2- H  7      1.27    1.43   0.038
    9. BD ( 1) C  2- C  3      24. BD*( 1) C  3- H  8      1.27    1.43   0.038
    9. BD ( 1) C  2- C  3      25. BD*( 1) C  4- H  9      1.42    1.43   0.040
    9. BD ( 1) C  2- C  3      26. BD*( 1) C  4- H 10      2.97    1.44   0.058
   10. BD ( 1) C  2- H  7      16. BD*( 1) C  1- C  2      0.51    1.59   0.025
   10. BD ( 1) C  2- H  7      18. BD*( 1) C  1- H  5      1.52    1.37   0.041
   10. BD ( 1) C  2- H  7      19. BD*( 1) C  1- H  6      3.77    1.37   0.064
   10. BD ( 1) C  2- H  7      20. BD*( 1) C  2- C  3      1.21    1.43   0.037
   10. BD ( 1) C  2- H  7      22. BD*( 1) C  3- C  4      0.98    1.59   0.035
   10. BD ( 1) C  2- H  7      24. BD*( 1) C  3- H  8      2.48    1.37   0.052
   11. BD ( 1) C  3- C  4      16. BD*( 1) C  1- C  2      1.41    1.73   0.044
   11. BD ( 1) C  3- C  4      20. BD*( 1) C  2- C  3      0.51    1.57   0.025
   11. BD ( 1) C  3- C  4      21. BD*( 1) C  2- H  7      0.69    1.51   0.029
   11. BD ( 1) C  3- C  4      24. BD*( 1) C  3- H  8      0.51    1.51   0.025
   11. BD ( 1) C  3- C  4      25. BD*( 1) C  4- H  9      0.51    1.51   0.025
   12. BD ( 2) C  3- C  4      17. BD*( 2) C  1- C  2     19.26    0.63   0.098
   13. BD ( 1) C  3- H  8      16. BD*( 1) C  1- C  2      0.98    1.59   0.035
   13. BD ( 1) C  3- H  8      20. BD*( 1) C  2- C  3      1.21    1.43   0.037
   13. BD ( 1) C  3- H  8      21. BD*( 1) C  2- H  7      2.48    1.37   0.052
   13. BD ( 1) C  3- H  8      22. BD*( 1) C  3- C  4      0.51    1.59   0.025
   13. BD ( 1) C  3- H  8      25. BD*( 1) C  4- H  9      3.77    1.37   0.064
   13. BD ( 1) C  3- H  8      26. BD*( 1) C  4- H 10      1.52    1.37   0.041
   14. BD ( 1) C  4- H  9      20. BD*( 1) C  2- C  3      1.77    1.44   0.045
   14. BD ( 1) C  4- H  9      22. BD*( 1) C  3- C  4      0.53    1.60   0.026
   14. BD ( 1) C  4- H  9      24. BD*( 1) C  3- H  8      3.36    1.37   0.061
   14. BD ( 1) C  4- H  9      26. BD*( 1) C  4- H 10      1.19    1.37   0.036
   15. BD ( 1) C  4- H 10      20. BD*( 1) C  2- C  3      3.28    1.44   0.061
   15. BD ( 1) C  4- H 10      24. BD*( 1) C  3- H  8      1.45    1.37   0.040
   15. BD ( 1) C  4- H 10      25. BD*( 1) C  4- H  9      1.16    1.37   0.036


 NATURAL BOND ORBITALS (Summary):

                                                     Principal Delocalizations
           NBO                 Occupancy    Energy   (geminal,vicinal,remote)
 ===============================================================================
 Molecular unit  1  (C4H6)
 ------ Lewis --------------------------------------
    1. CR ( 1) C  1             2.00000   -11.00733
    2. CR ( 1) C  2             2.00000   -11.02169
    3. CR ( 1) C  3             2.00000   -11.02169
    4. CR ( 1) C  4             2.00000   -11.00733
    5. BD ( 1) C  1- C  2       1.99526    -0.77153  22(v),24(v),19(g),21(g)
                                                     20(g)
    6. BD ( 2) C  1- C  2       1.95443    -0.31326  23(v)
    7. BD ( 1) C  1- H  5       1.99231    -0.63518  20(v),21(v),19(g)
    8. BD ( 1) C  1- H  6       1.99181    -0.63395  21(v),20(v),18(g),16(g)
    9. BD ( 1) C  2- C  3       1.98569    -0.69829  18(v),26(v),19(v),25(v)
                                                     21(g),24(g)
   10. BD ( 1) C  2- H  7       1.98720    -0.63162  19(v),24(v),18(v),20(g)
                                                     22(v),16(g)
   11. BD ( 1) C  3- C  4       1.99526    -0.77153  16(v),21(v),25(g),24(g)
                                                     20(g)
   12. BD ( 2) C  3- C  4       1.95443    -0.31326  17(v)
   13. BD ( 1) C  3- H  8       1.98720    -0.63162  25(v),21(v),26(v),20(g)
                                                     16(v),22(g)
   14. BD ( 1) C  4- H  9       1.99181    -0.63395  24(v),20(v),26(g),22(g)
   15. BD ( 1) C  4- H 10       1.99231    -0.63518  20(v),24(v),25(g)
 ------ non-Lewis ----------------------------------
   16. BD*( 1) C  1- C  2       0.00462     0.96250
   17. BD*( 2) C  1- C  2       0.04557     0.31446
   18. BD*( 1) C  1- H  5       0.00725     0.73766
   19. BD*( 1) C  1- H  6       0.00867     0.73509
   20. BD*( 1) C  2- C  3       0.01568     0.80255
   21. BD*( 1) C  2- H  7       0.01218     0.73520
   22. BD*( 1) C  3- C  4       0.00462     0.96250
   23. BD*( 2) C  3- C  4       0.04557     0.31446
   24. BD*( 1) C  3- H  8       0.01218     0.73520
   25. BD*( 1) C  4- H  9       0.00867     0.73509
   26. BD*( 1) C  4- H 10       0.00725     0.73766
          -------------------------------
                 Total Lewis   29.82773  ( 99.4258%)
           Valence non-Lewis    0.17227  (  0.5742%)
           Rydberg non-Lewis    0.00000  (  0.0000%)
          -------------------------------
               Total unit  1   30.00000  (100.0000%)
              Charge unit  1    0.00000

 $CHOOSE
   BOND D 1 2 S 1 5 S 1 6 S 2 3 S 2 7 D 3 4 S 3 8 S 4 9 S 4 10 END
 $END

 NBO analysis completed in 0.28 CPU seconds (0 wall seconds)
 Maximum scratch memory used by NBO was 227350 words (1.73 MB)
 Maximum scratch memory used by G16NBO was 9361 words (0.07 MB)

 Opening RunExU unformatted file "/cluster/work/users/beto93/mol82/Gau-27280.EUF"
 Read unf file /cluster/work/users/beto93/mol82/Gau-27280.EUF:
 Label Gaussian matrix elements                                         IVers= 2 NLab= 2 Version=ES64L-G16RevC.01
 Title mol82-NBO                                                       
 NAtoms=    10 NBasis=    26 NBsUse=    26 ICharg=     0 Multip=     1 NE=    30 Len12L=8 Len4L=8 IOpCl= 0 ICGU=111
 GAUSSIAN SCALARS                    NI= 1 NR= 1 NTot=       1 LenBuf=    2 NRI=1 N=    1000
 NPA CHARGES                         NI= 0 NR= 1 NTot=      10 LenBuf= 4000 NRI=1 N=      10
 Recovered energy= -153.017126746     dipole=     -0.000000000000     -0.000000000000      0.000000000000
 Unable to Open any file for archive entry.
 1\1\GINC-C5-5\SP\RHF\STO-3G\C4H6\BETO93\18-Nov-2024\0\\#RHF/STO-3G int
 =nobasistransform Symmetry=None 5D 7F Pop=NBO7Read\\mol82-NBO\\0,1\C,0
 ,0.605711,1.74655,0.\C,0,0.605711,0.404083,0.\C,0,-0.605711,-0.404083,
 0.\C,0,-0.605711,-1.74655,0.\H,0,1.527617,2.317443,0.\H,0,-0.321132,2.
 313116,0.\H,0,1.553503,-0.13364,0.\H,0,-1.553503,0.13364,0.\H,0,0.3211
 32,-2.313116,0.\H,0,-1.527617,-2.317443,0.\\Version=ES64L-G16RevC.01\H
 F=-153.0171267\RMSD=8.835e-10\Dipole=0.,0.,0.\Quadrupole=0.7772473,0.6
 171513,-1.3943986,-0.1306588,0.,0.\PG=Unknown\\@
 The archive entry for this job was punched.


 K N O W I N G  IS A BARRIER WHICH PREVENTS LEARNING

                     -- TEACHING OF THE BENE GESSERIT
 Job cpu time:       0 days  0 hours  0 minutes 11.6 seconds.
 Elapsed time:       0 days  0 hours  0 minutes  3.8 seconds.
 File lengths (MBytes):  RWF=     10 Int=      0 D2E=      0 Chk=      1 Scr=      1
 Normal termination of Gaussian 16 at Mon Nov 18 15:41:34 2024.
