 Entering Gaussian System, Link 0=g16
 Initial command:
 /cluster/software/Gaussian/g16_C.01/l1.exe "/cluster/work/users/beto93/mol61/Gau-980976.inp" -scrdir="/cluster/work/users/beto93/mol61/"
 Entering Link 1 = /cluster/software/Gaussian/g16_C.01/l1.exe PID=    980978.
  
 Copyright (c) 1988-2019, Gaussian, Inc.  All Rights Reserved.
  
 This is part of the Gaussian(R) 16 program.  It is based on
 the Gaussian(R) 09 system (copyright 2009, Gaussian, Inc.),
 the Gaussian(R) 03 system (copyright 2003, Gaussian, Inc.),
 the Gaussian(R) 98 system (copyright 1998, Gaussian, Inc.),
 the Gaussian(R) 94 system (copyright 1995, Gaussian, Inc.),
 the Gaussian 92(TM) system (copyright 1992, Gaussian, Inc.),
 the Gaussian 90(TM) system (copyright 1990, Gaussian, Inc.),
 the Gaussian 88(TM) system (copyright 1988, Gaussian, Inc.),
 the Gaussian 86(TM) system (copyright 1986, Carnegie Mellon
 University), and the Gaussian 82(TM) system (copyright 1983,
 Carnegie Mellon University). Gaussian is a federally registered
 trademark of Gaussian, Inc.
  
 This software contains proprietary and confidential information,
 including trade secrets, belonging to Gaussian, Inc.
  
 This software is provided under written license and may be
 used, copied, transmitted, or stored only in accord with that
 written license.
  
 The following legend is applicable only to US Government
 contracts under FAR:
  
                    RESTRICTED RIGHTS LEGEND
  
 Use, reproduction and disclosure by the US Government is
 subject to restrictions as set forth in subparagraphs (a)
 and (c) of the Commercial Computer Software - Restricted
 Rights clause in FAR 52.227-19.
  
 Gaussian, Inc.
 340 Quinnipiac St., Bldg. 40, Wallingford CT 06492
  
  
 ---------------------------------------------------------------
 Warning -- This program may not be used in any manner that
 competes with the business of Gaussian, Inc. or will provide
 assistance to any competitor of Gaussian, Inc.  The licensee
 of this program is prohibited from giving any competitor of
 Gaussian, Inc. access to this program.  By using this program,
 the user acknowledges that Gaussian, Inc. is engaged in the
 business of creating and licensing software in the field of
 computational chemistry and represents and warrants to the
 licensee that it is not a competitor of Gaussian, Inc. and that
 it will not use this program in any manner prohibited above.
 ---------------------------------------------------------------
  

 Cite this work as:
 Gaussian 16, Revision C.01,
 M. J. Frisch, G. W. Trucks, H. B. Schlegel, G. E. Scuseria, 
 M. A. Robb, J. R. Cheeseman, G. Scalmani, V. Barone, 
 G. A. Petersson, H. Nakatsuji, X. Li, M. Caricato, A. V. Marenich, 
 J. Bloino, B. G. Janesko, R. Gomperts, B. Mennucci, H. P. Hratchian, 
 J. V. Ortiz, A. F. Izmaylov, J. L. Sonnenberg, D. Williams-Young, 
 F. Ding, F. Lipparini, F. Egidi, J. Goings, B. Peng, A. Petrone, 
 T. Henderson, D. Ranasinghe, V. G. Zakrzewski, J. Gao, N. Rega, 
 G. Zheng, W. Liang, M. Hada, M. Ehara, K. Toyota, R. Fukuda, 
 J. Hasegawa, M. Ishida, T. Nakajima, Y. Honda, O. Kitao, H. Nakai, 
 T. Vreven, K. Throssell, J. A. Montgomery, Jr., J. E. Peralta, 
 F. Ogliaro, M. J. Bearpark, J. J. Heyd, E. N. Brothers, K. N. Kudin, 
 V. N. Staroverov, T. A. Keith, R. Kobayashi, J. Normand, 
 K. Raghavachari, A. P. Rendell, J. C. Burant, S. S. Iyengar, 
 J. Tomasi, M. Cossi, J. M. Millam, M. Klene, C. Adamo, R. Cammi, 
 J. W. Ochterski, R. L. Martin, K. Morokuma, O. Farkas, 
 J. B. Foresman, and D. J. Fox, Gaussian, Inc., Wallingford CT, 2019.
 
 ******************************************
 Gaussian 16:  ES64L-G16RevC.01  3-Jul-2019
                18-Nov-2024 
 ******************************************
 %LindaWorkers=c1-28-ib
 %NProcShared=4
 Will use up to    4 processors via shared memory.
 %mem=25GB
 %chk=mol61.chk
 SetLPE:    new flags="-opt 'Tsnet.Node.lindarsharg: ssh'  -nodelist 'c1-28-ib.saga' -env GAUSS_MDEF=3355443200 -env GAUSS_EXEDIR="/cluster/software/Gaussian/g16_C.01/bsd:/cluster/software/Gaussian/g16_C.01""
 Will use up to    1 processors via Linda.
 -----------------------------------------------------------------
 #RHF/6-31G* int=nobasistransform Symmetry=None 5D 7F Pop=NBO7Read
 -----------------------------------------------------------------
 1/38=1,163=2,172=1/1;
 2/12=2,15=3,17=6,18=5,40=1/2;
 3/5=1,6=6,7=1,8=11,11=1,25=1,30=1,60=-1,116=1/1,2,3;
 4//1;
 5/5=2,38=5/2;
 6/7=2,8=2,9=2,10=2,28=1,40=2,113=1,114=1,124=2103/1,12;
 99/5=1,9=1/99;
 ---------
 mol61-NBO
 ---------
 Symbolic Z-matrix:
 Charge =  0 Multiplicity = 1
 O                     0.        0.       -1.69924 
 C                     0.        0.       -0.52049 
 S                     0.        0.        1.04481 
 
                          Input orientation:                          
 ---------------------------------------------------------------------
 Center     Atomic      Atomic             Coordinates (Angstroms)
 Number     Number       Type             X           Y           Z
 ---------------------------------------------------------------------
      1          8           0        0.000000    0.000000   -1.699243
      2          6           0        0.000000    0.000000   -0.520492
      3         16           0        0.000000    0.000000    1.044806
 ---------------------------------------------------------------------
                    Distance matrix (angstroms):
                    1          2          3
     1  O    0.000000
     2  C    1.178751   0.000000
     3  S    2.744049   1.565298   0.000000
 Symmetry turned off by external request.
 Stoichiometry    COS
 Rotational constants (GHZ):           0.0000000           5.9924171           5.9924171
 Standard basis: 6-31G(d) (5D, 7F)
    46 basis functions,   108 primitive gaussians,    49 cartesian basis functions
    15 alpha electrons       15 beta electrons
       nuclear repulsion energy        78.6874026680 Hartrees.
 NAtoms=    3 NActive=    3 NUniq=    3 SFac= 1.00D+00 NAtFMM=   60 NAOKFM=F Big=F
 Integral buffers will be    131072 words long.
 Raffenetti 1 integral format.
 Two-electron integral symmetry is turned off.
 One-electron integrals computed using PRISM.
 NBasis=    46 RedAO= T EigKep=  1.11D-02  NBF=    46
 NBsUse=    46 1.00D-06 EigRej= -1.00D+00 NBFU=    46
 ExpMin= 1.17D-01 ExpMax= 2.19D+04 ExpMxC= 3.30D+03 IAcc=3 IRadAn=         5 AccDes= 0.00D+00
 Harris functional with IExCor=  205 and IRadAn=       5 diagonalized for initial guess.
 HarFok:  IExCor=  205 AccDes= 0.00D+00 IRadAn=         5 IDoV= 1 UseB2=F ITyADJ=14
 ICtDFT=  3500011 ScaDFX=  1.000000  1.000000  1.000000  1.000000
 FoFCou: FMM=F IPFlag=           0 FMFlag=      100000 FMFlg1=           0
         NFxFlg=           0 DoJE=T BraDBF=F KetDBF=T FulRan=T
         wScrn=  0.000000 ICntrl=       500 IOpCl=  0 I1Cent=   200000004 NGrid=           0
         NMat0=    1 NMatS0=      1 NMatT0=    0 NMatD0=    1 NMtDS0=    0 NMtDT0=    0
 Symmetry not used in FoFCou.
 Keep R1 ints in memory in canonical form, NReq=1419299.
 Requested convergence on RMS density matrix=1.00D-08 within 128 cycles.
 Requested convergence on MAX density matrix=1.00D-06.
 Requested convergence on             energy=1.00D-06.
 No special actions if energy rises.
 SCF Done:  E(RHF) =  -510.254275988     A.U. after   11 cycles
            NFock= 11  Conv=0.69D-08     -V/T= 2.0006

 **********************************************************************

            Population analysis using the SCF Density.

 **********************************************************************

 Alpha  occ. eigenvalues --  -91.97966 -20.67110 -11.45286  -8.99704  -6.67979
 Alpha  occ. eigenvalues --   -6.67566  -6.67566  -1.49512  -1.09824  -0.77355
 Alpha  occ. eigenvalues --   -0.65098  -0.65098  -0.63651  -0.42076  -0.42076
 Alpha virt. eigenvalues --    0.11513   0.11513   0.21144   0.25807   0.47931
 Alpha virt. eigenvalues --    0.51103   0.51103   0.71369   0.73666   0.73666
 Alpha virt. eigenvalues --    0.87362   1.00509   1.00509   1.02501   1.02501
 Alpha virt. eigenvalues --    1.04931   1.24194   1.25562   1.25562   1.50722
 Alpha virt. eigenvalues --    1.72903   1.72903   1.87736   1.87736   1.95916
 Alpha virt. eigenvalues --    2.20659   2.20659   2.91345   2.91345   3.13838
 Alpha virt. eigenvalues --    3.36044
          Condensed to atoms (all electrons):
               1          2          3
     1  O    7.900046   0.568945  -0.049028
     2  C    0.568945   4.504739   0.470894
     3  S   -0.049028   0.470894  15.613592
 Mulliken charges:
               1
     1  O   -0.419963
     2  C    0.455422
     3  S   -0.035458
 Sum of Mulliken charges =  -0.00000
 Mulliken charges with hydrogens summed into heavy atoms:
               1
     1  O   -0.419963
     2  C    0.455422
     3  S   -0.035458
 Electronic spatial extent (au):  <R**2>=            204.9374
 Charge=             -0.0000 electrons
 Dipole moment (field-independent basis, Debye):
    X=             -0.0000    Y=             -0.0000    Z=              0.6604  Tot=              0.6604
 Quadrupole moment (field-independent basis, Debye-Ang):
   XX=            -23.5577   YY=            -23.5577   ZZ=            -25.8813
   XY=              0.0000   XZ=              0.0000   YZ=             -0.0000
 Traceless Quadrupole moment (field-independent basis, Debye-Ang):
   XX=              0.7745   YY=              0.7745   ZZ=             -1.5491
   XY=              0.0000   XZ=              0.0000   YZ=             -0.0000
 Octapole moment (field-independent basis, Debye-Ang**2):
  XXX=              0.0000  YYY=             -0.0000  ZZZ=              4.5234  XYY=             -0.0000
  XXY=             -0.0000  XXZ=             -3.1304  XZZ=             -0.0000  YZZ=              0.0000
  YYZ=             -3.1304  XYZ=              0.0000
 Hexadecapole moment (field-independent basis, Debye-Ang**3):
 XXXX=            -26.4141 YYYY=            -26.4141 ZZZZ=           -208.4144 XXXY=              0.0000
 XXXZ=             -0.0000 YYYX=              0.0000 YYYZ=             -0.0000 ZZZX=              0.0000
 ZZZY=             -0.0000 XXYY=             -8.8047 XXZZ=            -39.6304 YYZZ=            -39.6304
 XXYZ=              0.0000 YYXZ=              0.0000 ZZXY=              0.0000
 N-N= 7.868740266799D+01 E-N=-1.369288863817D+03  KE= 5.099628177687D+02
 Running external command "gaunbo7 R"
         input file       "/cluster/work/users/beto93/mol61/Gau-980978.EIn"
         output file      "/cluster/work/users/beto93/mol61/Gau-980978.EOu"
         message file     "/cluster/work/users/beto93/mol61/Gau-980978.EMs"
         fchk file        "/cluster/work/users/beto93/mol61/Gau-980978.EFC"
         mat. el file     "/cluster/work/users/beto93/mol61/Gau-980978.EUF"

 Writing WrtUnf unformatted file "/cluster/work/users/beto93/mol61/Gau-980978.EUF"
 Gaussian matrix elements                                         Version   2 NLab=11 Len12L=8 Len4L=8
 Write SHELL TO ATOM MAP                   from file      0 offset           0 length                  13 to matrix element file.
 Write SHELL TYPES                         from file      0 offset           0 length                  13 to matrix element file.
 Write NUMBER OF PRIMITIVES PER SHELL      from file      0 offset           0 length                  13 to matrix element file.
 Write PRIMITIVE EXPONENTS                 from file      0 offset           0 length                  39 to matrix element file.
 Write CONTRACTION COEFFICIENTS            from file      0 offset           0 length                  39 to matrix element file.
 Write P(S=P) CONTRACTION COEFFICIENTS     from file      0 offset           0 length                  39 to matrix element file.
 Write COORDINATES OF EACH SHELL           from file      0 offset           0 length                  39 to matrix element file.
 Write BONDS PER ATOM                      from file      0 offset           0 length                   3 to matrix element file.
 Write BONDED ATOMS                        from file      0 offset           0 length                   4 to matrix element file.
 Write BOND TYPES                          from file      0 offset           0 length                   4 to matrix element file.
 Write ONIOM CHARGE/MULT                   from file      0 offset           0 length                  32 to matrix element file.
 Write ONIOM ATOM LAYERS                   from file      0 offset           0 length                   3 to matrix element file.
 Write ONIOM ATOM MODIFIERS                from file      0 offset           0 length                   3 to matrix element file.
 Write ONIOM ATOM TYPES                    from file      0 offset           0 length                   3 to matrix element file.
 Write ONIOM LINK ATOMS                    from file      0 offset           0 length                   3 to matrix element file.
 Write ONIOM LINK CHARGES                  from file      0 offset           0 length                   3 to matrix element file.
 Write ONIOM LINK DISTANCES                from file      0 offset           0 length                  12 to matrix element file.
 Write SYMINF INTS                         from file      0 offset           0 length                  26 to matrix element file.
 Write ROTTR TO SO                         from file      0 offset           0 length                  12 to matrix element file.
 Write GAUSSIAN SCALARS                    from file    501 offset           0 to matrix element file.
 Write OPTIMIZATION FLAGS                  from file      0 offset           0 length                   3 to matrix element file.
 Write INTEGER ISO                         from file      0 offset           0 length                   3 to matrix element file.
 Write REAL ZEFFECTIVE                     from file      0 offset           0 length                   3 to matrix element file.
 Write REAL ZNUCLEAR                       from file      0 offset           0 length                   3 to matrix element file.
 Write MULLIKEN CHARGES                    from file      0 offset           0 length                   3 to matrix element file.
 Write NUCLEAR GRADIENT                    from file  10584 offset           0 length                   9 to matrix element file.
 Array NUCLEAR FORCE CONSTANTS              on  file  10585 does not exist.
 Write ELECTRIC DIPOLE MOMENT              from file      0 offset           0 length                   3 to matrix element file.
 Write NON-ADIABATIC COUPLING              from file  10810 offset           0 length                   9 to matrix element file.
 Write FINITE EM FIELD                     from file  10521 offset           0 length                  35 to matrix element file.
 Write OVERLAP                             from file  10514 offset           0 length                1081 to matrix element file.
 Write CORE HAMILTONIAN ALPHA              from file  10515 offset           0 length                1081 to matrix element file.
 Write CORE HAMILTONIAN BETA               from file  10515 offset        1081 length                1081 to matrix element file.
 Write KINETIC ENERGY                      from file  10516 offset           0 length                1081 to matrix element file.
 Write ORTHOGONAL BASIS                    from file  10685 offset           0 length                2116 to matrix element file.
 Write DIPOLE INTEGRALS                    from file  10518 offset           0 length                3243 to matrix element file.
 Array DIP VEL INTEGRALS                    on  file  10572 does not exist.
 Array R X DEL INTEGRALS                    on  file  10572 does not exist.
 Write ALPHA ORBITAL ENERGIES              from file      0 offset           0 length                  46 to matrix element file.
 Write ALPHA MO COEFFICIENTS               from file  10524 offset           0 length                2116 to matrix element file.
 Write ALPHA DENSITY MATRIX                from file      0 offset           0 length                1081 to matrix element file.
 Write ALPHA FOCK MATRIX                   from file  10536 offset           0 length                1081 to matrix element file.
 Write ENERGY-WEIGHTED DENSITY             from file  10571 offset           0 length                1081 to matrix element file.
 Write ALPHA SCF DENSITY MATRIX            from file      0 offset           0 length                1081 to matrix element file.
 No 2e integrals to process.
 Perform NBO analysis...executing G16NBO...

 *********************************** NBO 7.0 ***********************************
             N A T U R A L   A T O M I C   O R B I T A L   A N D
          N A T U R A L   B O N D   O R B I T A L   A N A L Y S I S
 **************************** Espen Tangen (S101595) ***************************
  (c) Copyright 1996-2021 Board of Regents of the University of Wisconsin System
      on behalf of the Theoretical Chemistry Institute.  All rights reserved.

          Cite this program [NBO 7.0.10 (8-Feb-2021)] as:

          NBO 7.0.  E. D. Glendening, J. K. Badenhoop, A. E. Reed,
          J. E. Carpenter, J. A. Bohmann, C. M. Morales, P. Karafiloglou,
          C. R. Landis, and F. Weinhold, Theoretical Chemistry Institute,
          University of Wisconsin, Madison, WI (2018)

       /NPA    / : Natural Population Analysis
       /AOPNAO / : Print the AO to PNAO transformation
       /AONAO  / : Print the AO to NAO transformation
       /AOMO   / : Print the MOs in the AO basis
       /BOAO   / : Print the AO bond-order matrix
       /DMAO   / : Print the AO density matrix
       /DMPNAO / : Print the PNAO density matrix
       /DMNAO  / : Print the NAO density matrix
       /DMMO   / : Print the MO density matrix
       /SAO    / : Print the AO overlap matrix
       /SPNAO  / : Print the PNAO overlap matrix
       /DETAIL / : Write details of NBO search
       /ARCHIVE/ : Write the archive file to lfn47
       /AOINFO / : Write AO information to lfn31
       /FILE   / : Set to mol61.gen*

 Filename set to mol61.gen1

 Job title: mol61-NBO


 MOs in the AO basis:

           AO          1       2       3       4       5       6       7       8
      ------------ ------- ------- ------- ------- ------- ------- ------- -------
   1.  O 1 (s)      0.0000  0.9959 -0.0004  0.0001 -0.0001  0.0000  0.0000 -0.1995
   2.  O 1 (s)     -0.0004  0.0232  0.0007  0.0008 -0.0010  0.0000  0.0000  0.4346
   3.  O 1 (px)     0.0000  0.0000  0.0000  0.0000  0.0000  0.0000 -0.0001  0.0000
   4.  O 1 (py)     0.0000  0.0000  0.0000  0.0000  0.0000 -0.0001  0.0000  0.0000
   5.  O 1 (pz)    -0.0001  0.0024 -0.0002  0.0000  0.0002  0.0000  0.0000  0.1450
   6.  O 1 (s)      0.0015 -0.0137 -0.0057 -0.0046  0.0072  0.0000  0.0000  0.4165
   7.  O 1 (px)     0.0000  0.0000  0.0000  0.0000  0.0000  0.0000  0.0001  0.0000
   8.  O 1 (py)     0.0000  0.0000  0.0000  0.0000  0.0000  0.0001  0.0000  0.0000
   9.  O 1 (pz)     0.0003 -0.0039 -0.0030 -0.0011  0.0013  0.0000  0.0000  0.0586
  10.  O 1 (d5)    -0.0001  0.0002 -0.0007  0.0000  0.0000  0.0000  0.0000  0.0145
  11.  O 1 (d2)     0.0000  0.0000  0.0000  0.0000  0.0000  0.0000 -0.0001  0.0000
  12.  O 1 (d3)     0.0000  0.0000  0.0000  0.0000  0.0000 -0.0001  0.0000  0.0000
  13.  O 1 (d4)     0.0000  0.0000  0.0000  0.0000  0.0000  0.0000  0.0000  0.0000
  14.  O 1 (d1)     0.0000  0.0000  0.0000  0.0000  0.0000  0.0000  0.0000  0.0000
  15.  C 2 (s)     -0.0001  0.0003  0.9963 -0.0003  0.0006  0.0000  0.0000 -0.1149
  16.  C 2 (s)      0.0000  0.0008  0.0244  0.0004 -0.0009  0.0000  0.0000  0.2169
  17.  C 2 (px)     0.0000  0.0000  0.0000  0.0000  0.0000  0.0001 -0.0002  0.0000
  18.  C 2 (py)     0.0000  0.0000  0.0000  0.0000  0.0000 -0.0002 -0.0001  0.0000
  19.  C 2 (pz)     0.0002  0.0004 -0.0010 -0.0004  0.0004  0.0000  0.0000 -0.1950
  20.  C 2 (s)      0.0001  0.0033 -0.0074  0.0004  0.0021  0.0000  0.0000  0.0618
  21.  C 2 (px)     0.0000  0.0000  0.0000  0.0000  0.0000 -0.0001  0.0003  0.0000
  22.  C 2 (py)     0.0000  0.0000  0.0000  0.0000  0.0000  0.0003  0.0001  0.0000
  23.  C 2 (pz)     0.0019 -0.0075 -0.0059 -0.0052  0.0102  0.0000  0.0000  0.0580
  24.  C 2 (d5)     0.0005 -0.0012  0.0023 -0.0003 -0.0001  0.0000  0.0000  0.0382
  25.  C 2 (d2)     0.0000  0.0000  0.0000  0.0000  0.0000  0.0001 -0.0004  0.0000
  26.  C 2 (d3)     0.0000  0.0000  0.0000  0.0000  0.0000 -0.0004 -0.0001  0.0000
  27.  C 2 (d4)     0.0000  0.0000  0.0000  0.0000  0.0000  0.0000  0.0000  0.0000
  28.  C 2 (d1)     0.0000  0.0000  0.0000  0.0000  0.0000  0.0000  0.0000  0.0000
  29.  S 3 (s)      0.9967  0.0000  0.0000 -0.2818 -0.0017  0.0000  0.0000  0.0031
  30.  S 3 (s)      0.0123  0.0001  0.0002  1.0306  0.0062  0.0000  0.0000 -0.0159
  31.  S 3 (px)     0.0000  0.0000  0.0000  0.0000  0.0000 -0.3441  0.9322  0.0000
  32.  S 3 (py)     0.0000  0.0000  0.0000  0.0000  0.0000  0.9322  0.3441  0.0000
  33.  S 3 (pz)    -0.0002  0.0002 -0.0001 -0.0047  0.9925  0.0000  0.0000  0.0075
  34.  S 3 (s)     -0.0041  0.0015 -0.0001  0.0215 -0.0037  0.0000  0.0000  0.0204
  35.  S 3 (px)     0.0000  0.0000  0.0000  0.0000  0.0000 -0.0073  0.0198  0.0000
  36.  S 3 (py)     0.0000  0.0000  0.0000  0.0000  0.0000  0.0198  0.0073  0.0000
  37.  S 3 (pz)     0.0008 -0.0013  0.0002 -0.0026  0.0259  0.0000  0.0000 -0.0126
  38.  S 3 (s)      0.0009  0.0023  0.0050 -0.0032 -0.0056  0.0000  0.0000 -0.0242
  39.  S 3 (px)     0.0000  0.0000  0.0000  0.0000  0.0000  0.0018 -0.0048  0.0000
  40.  S 3 (py)     0.0000  0.0000  0.0000  0.0000  0.0000 -0.0048 -0.0018  0.0000
  41.  S 3 (pz)     0.0003 -0.0009 -0.0030 -0.0005 -0.0028  0.0000  0.0000  0.0148
  42.  S 3 (d5)    -0.0003  0.0003 -0.0008  0.0010 -0.0018  0.0000  0.0000  0.0043
  43.  S 3 (d2)     0.0000  0.0000  0.0000  0.0000  0.0000  0.0002 -0.0004  0.0000
  44.  S 3 (d3)     0.0000  0.0000  0.0000  0.0000  0.0000 -0.0004 -0.0002  0.0000
  45.  S 3 (d4)     0.0000  0.0000  0.0000  0.0000  0.0000  0.0000  0.0000  0.0000
  46.  S 3 (d1)     0.0000  0.0000  0.0000  0.0000  0.0000  0.0000  0.0000  0.0000

           AO          9      10      11      12      13      14      15      16
      ------------ ------- ------- ------- ------- ------- ------- ------- -------
   1.  O 1 (s)      0.0445  0.1008  0.0000  0.0000  0.0102  0.0000  0.0000  0.0000
   2.  O 1 (s)     -0.1022 -0.2472  0.0000  0.0000 -0.0307  0.0000  0.0000  0.0000
   3.  O 1 (px)     0.0000  0.0000  0.4833  0.1440  0.0000 -0.2108  0.1758 -0.1464
   4.  O 1 (py)     0.0000  0.0000 -0.1440  0.4833  0.0000 -0.1758 -0.2108 -0.2826
   5.  O 1 (pz)     0.0158  0.4814  0.0000  0.0000  0.2031  0.0000  0.0000  0.0000
   6.  O 1 (s)     -0.1111 -0.3609  0.0000  0.0000 -0.0359  0.0000  0.0000  0.0000
   7.  O 1 (px)     0.0000  0.0000  0.3105  0.0925  0.0000 -0.1872  0.1561 -0.2049
   8.  O 1 (py)     0.0000  0.0000 -0.0925  0.3105  0.0000 -0.1561 -0.1872 -0.3955
   9.  O 1 (pz)     0.0099  0.2505  0.0000  0.0000  0.1237  0.0000  0.0000  0.0000
  10.  O 1 (d5)    -0.0020  0.0256  0.0000  0.0000  0.0134  0.0000  0.0000  0.0000
  11.  O 1 (d2)     0.0000  0.0000  0.0389  0.0116  0.0000 -0.0091  0.0076  0.0038
  12.  O 1 (d3)     0.0000  0.0000 -0.0116  0.0389  0.0000 -0.0076 -0.0091  0.0073
  13.  O 1 (d4)     0.0000  0.0000  0.0000  0.0000  0.0000  0.0000  0.0000  0.0000
  14.  O 1 (d1)     0.0000  0.0000  0.0000  0.0000  0.0000  0.0000  0.0000  0.0000
  15.  C 2 (s)     -0.1134 -0.1045  0.0000  0.0000  0.0669  0.0000  0.0000  0.0000
  16.  C 2 (s)      0.2459  0.2379  0.0000  0.0000 -0.1530  0.0000  0.0000  0.0000
  17.  C 2 (px)     0.0000  0.0000  0.3176  0.0946  0.0000  0.0853 -0.0712  0.2243
  18.  C 2 (py)     0.0000  0.0000 -0.0946  0.3176  0.0000  0.0712  0.0853  0.4330
  19.  C 2 (pz)     0.2472 -0.2031  0.0000  0.0000 -0.3163  0.0000  0.0000  0.0000
  20.  C 2 (s)      0.1798  0.1634  0.0000  0.0000 -0.2673  0.0000  0.0000  0.0000
  21.  C 2 (px)     0.0000  0.0000  0.1503  0.0448  0.0000  0.0718 -0.0599  0.3328
  22.  C 2 (py)     0.0000  0.0000 -0.0448  0.1503  0.0000  0.0599  0.0718  0.6425
  23.  C 2 (pz)     0.0471  0.0273  0.0000  0.0000 -0.0565  0.0000  0.0000  0.0000
  24.  C 2 (d5)     0.0186  0.0165  0.0000  0.0000 -0.0029  0.0000  0.0000  0.0000
  25.  C 2 (d2)     0.0000  0.0000 -0.0236 -0.0070  0.0000  0.0393 -0.0328  0.0138
  26.  C 2 (d3)     0.0000  0.0000  0.0070 -0.0236  0.0000  0.0328  0.0393  0.0266
  27.  C 2 (d4)     0.0000  0.0000  0.0000  0.0000  0.0000  0.0000  0.0000  0.0000
  28.  C 2 (d1)     0.0000  0.0000  0.0000  0.0000  0.0000  0.0000  0.0000  0.0000
  29.  S 3 (s)      0.0585 -0.0238  0.0000  0.0000  0.0420  0.0000  0.0000  0.0000
  30.  S 3 (s)     -0.2707  0.1088  0.0000  0.0000 -0.1978  0.0000  0.0000  0.0000
  31.  S 3 (px)     0.0000  0.0000 -0.0596 -0.0178  0.0000 -0.1782  0.1486  0.0472
  32.  S 3 (py)     0.0000  0.0000  0.0178 -0.0596  0.0000 -0.1486 -0.1782  0.0912
  33.  S 3 (pz)     0.0795  0.0274  0.0000  0.0000 -0.1800  0.0000  0.0000  0.0000
  34.  S 3 (s)      0.5358 -0.2370  0.0000  0.0000  0.4196  0.0000  0.0000  0.0000
  35.  S 3 (px)     0.0000  0.0000  0.1524  0.0454  0.0000  0.4744 -0.3956 -0.1268
  36.  S 3 (py)     0.0000  0.0000 -0.0454  0.1524  0.0000  0.3956  0.4744 -0.2449
  37.  S 3 (pz)    -0.1658 -0.0682  0.0000  0.0000  0.4472  0.0000  0.0000  0.0000
  38.  S 3 (s)      0.1445 -0.1532  0.0000  0.0000  0.3608  0.0000  0.0000  0.0000
  39.  S 3 (px)     0.0000  0.0000  0.0465  0.0139  0.0000  0.2622 -0.2187 -0.2204
  40.  S 3 (py)     0.0000  0.0000 -0.0139  0.0465  0.0000  0.2187  0.2622 -0.4254
  41.  S 3 (pz)     0.0088  0.0029  0.0000  0.0000  0.0790  0.0000  0.0000  0.0000
  42.  S 3 (d5)     0.0447  0.0075  0.0000  0.0000 -0.0588  0.0000  0.0000  0.0000
  43.  S 3 (d2)     0.0000  0.0000 -0.0280 -0.0083  0.0000 -0.0336  0.0281 -0.0528
  44.  S 3 (d3)     0.0000  0.0000  0.0083 -0.0280  0.0000 -0.0281 -0.0336 -0.1019
  45.  S 3 (d4)     0.0000  0.0000  0.0000  0.0000  0.0000  0.0000  0.0000  0.0000
  46.  S 3 (d1)     0.0000  0.0000  0.0000  0.0000  0.0000  0.0000  0.0000  0.0000

           AO         17      18      19      20      21      22      23      24
      ------------ ------- ------- ------- ------- ------- ------- ------- -------
   1.  O 1 (s)      0.0000  0.0167 -0.0797 -0.0382  0.0000  0.0000 -0.0538  0.0000
   2.  O 1 (s)      0.0000 -0.0587  0.0662  0.0886  0.0000  0.0000  0.0423  0.0000
   3.  O 1 (px)    -0.2826  0.0000  0.0000  0.0000 -0.0508 -0.0383  0.0000 -0.0054
   4.  O 1 (py)     0.1464  0.0000  0.0000  0.0000  0.0383 -0.0508  0.0000 -0.0767
   5.  O 1 (pz)     0.0000 -0.1062  0.1517  0.0677  0.0000  0.0000 -0.2976  0.0000
   6.  O 1 (s)      0.0000  0.0096  1.7455  0.6296  0.0000  0.0000  2.1006  0.0000
   7.  O 1 (px)    -0.3955  0.0000  0.0000  0.0000  0.0039  0.0030  0.0000 -0.0069
   8.  O 1 (py)     0.2049  0.0000  0.0000  0.0000 -0.0030  0.0039  0.0000 -0.0975
   9.  O 1 (pz)     0.0000 -0.1347  0.6845  0.3053  0.0000  0.0000  0.8108  0.0000
  10.  O 1 (d5)     0.0000 -0.0059  0.0371  0.0172  0.0000  0.0000  0.1419  0.0000
  11.  O 1 (d2)     0.0073  0.0000  0.0000  0.0000 -0.0014 -0.0010  0.0000 -0.0063
  12.  O 1 (d3)    -0.0038  0.0000  0.0000  0.0000  0.0010 -0.0014  0.0000 -0.0892
  13.  O 1 (d4)     0.0000  0.0000  0.0000  0.0000  0.0000  0.0000  0.0000  0.0000
  14.  O 1 (d1)     0.0000  0.0000  0.0000  0.0000  0.0000  0.0000  0.0000  0.0000
  15.  C 2 (s)      0.0000 -0.1144  0.0320  0.0349  0.0000  0.0000 -0.0852  0.0000
  16.  C 2 (s)      0.0000  0.1446 -0.0179 -0.0714  0.0000  0.0000  0.3266  0.0000
  17.  C 2 (px)     0.4330  0.0000  0.0000  0.0000 -0.0635 -0.0479  0.0000 -0.0731
  18.  C 2 (py)    -0.2243  0.0000  0.0000  0.0000  0.0479 -0.0635  0.0000 -1.0373
  19.  C 2 (pz)     0.0000  0.1991  0.0558 -0.0162  0.0000  0.0000 -0.0864  0.0000
  20.  C 2 (s)      0.0000  1.9679 -0.6321 -0.7669  0.0000  0.0000 -1.3337  0.0000
  21.  C 2 (px)     0.6425  0.0000  0.0000  0.0000 -0.0260 -0.0196  0.0000  0.0934
  22.  C 2 (py)    -0.3328  0.0000  0.0000  0.0000  0.0196 -0.0260  0.0000  1.3248
  23.  C 2 (pz)     0.0000  0.7407  1.8887  0.5018  0.0000  0.0000  2.5675  0.0000
  24.  C 2 (d5)     0.0000 -0.0100  0.0347  0.0074  0.0000  0.0000 -0.1962  0.0000
  25.  C 2 (d2)     0.0266  0.0000  0.0000  0.0000 -0.0344 -0.0259  0.0000  0.0020
  26.  C 2 (d3)    -0.0138  0.0000  0.0000  0.0000  0.0259 -0.0344  0.0000  0.0280
  27.  C 2 (d4)     0.0000  0.0000  0.0000  0.0000  0.0000  0.0000  0.0000  0.0000
  28.  C 2 (d1)     0.0000  0.0000  0.0000  0.0000  0.0000  0.0000  0.0000  0.0000
  29.  S 3 (s)      0.0000 -0.0173  0.0358 -0.0554  0.0000  0.0000 -0.0340  0.0000
  30.  S 3 (s)      0.0000  0.1036 -0.0927  0.0662  0.0000  0.0000  0.0104  0.0000
  31.  S 3 (px)     0.0912  0.0000  0.0000  0.0000  0.2278  0.1718  0.0000 -0.0024
  32.  S 3 (py)    -0.0472  0.0000  0.0000  0.0000 -0.1718  0.2278  0.0000 -0.0334
  33.  S 3 (pz)     0.0000 -0.0992  0.0942  0.1884  0.0000  0.0000 -0.2179  0.0000
  34.  S 3 (s)      0.0000 -0.1178  0.6716 -1.3519  0.0000  0.0000 -0.9346  0.0000
  35.  S 3 (px)    -0.2449  0.0000  0.0000  0.0000 -0.9321 -0.7029  0.0000  0.0090
  36.  S 3 (py)     0.1268  0.0000  0.0000  0.0000  0.7029 -0.9321  0.0000  0.1273
  37.  S 3 (pz)     0.0000  0.2620 -0.2309 -0.7041  0.0000  0.0000  1.0197  0.0000
  38.  S 3 (s)      0.0000 -1.4395 -1.7465  1.4383  0.0000  0.0000 -0.2247  0.0000
  39.  S 3 (px)    -0.4254  0.0000  0.0000  0.0000  1.0065  0.7590  0.0000 -0.0376
  40.  S 3 (py)     0.2204  0.0000  0.0000  0.0000 -0.7590  1.0065  0.0000 -0.5339
  41.  S 3 (pz)     0.0000  1.6883  0.8093  0.5126  0.0000  0.0000 -0.4418  0.0000
  42.  S 3 (d5)     0.0000  0.1406  0.0155 -0.0708  0.0000  0.0000 -0.0073  0.0000
  43.  S 3 (d2)    -0.1019  0.0000  0.0000  0.0000  0.0611  0.0460  0.0000 -0.0073
  44.  S 3 (d3)     0.0528  0.0000  0.0000  0.0000 -0.0460  0.0611  0.0000 -0.1035
  45.  S 3 (d4)     0.0000  0.0000  0.0000  0.0000  0.0000  0.0000  0.0000  0.0000
  46.  S 3 (d1)     0.0000  0.0000  0.0000  0.0000  0.0000  0.0000  0.0000  0.0000

           AO         25      26      27      28      29      30      31      32
      ------------ ------- ------- ------- ------- ------- ------- ------- -------
   1.  O 1 (s)      0.0000  0.0652  0.0000  0.0000  0.0000  0.0000 -0.0579 -0.0189
   2.  O 1 (s)      0.0000 -0.2810  0.0000  0.0000  0.0000  0.0000  0.1927  0.2082
   3.  O 1 (px)    -0.0767  0.0000  0.0000  0.0000 -0.3524 -0.1643  0.0000  0.0000
   4.  O 1 (py)     0.0054  0.0000  0.0000  0.0000  0.1643 -0.3524  0.0000  0.0000
   5.  O 1 (pz)     0.0000 -0.1991  0.0000  0.0000  0.0000  0.0000 -0.4282  0.5417
   6.  O 1 (s)      0.0000 -0.1165  0.0000  0.0000  0.0000  0.0000  0.7117  0.1036
   7.  O 1 (px)    -0.0975  0.0000  0.0000  0.0000  0.1650  0.0770  0.0000  0.0000
   8.  O 1 (py)     0.0069  0.0000  0.0000  0.0000 -0.0770  0.1650  0.0000  0.0000
   9.  O 1 (pz)     0.0000 -0.7035  0.0000  0.0000  0.0000  0.0000  1.2129 -0.8012
  10.  O 1 (d5)     0.0000  0.1004  0.0000  0.0000  0.0000  0.0000 -0.0384 -0.0590
  11.  O 1 (d2)    -0.0892  0.0000  0.0000  0.0000  0.0374  0.0175  0.0000  0.0000
  12.  O 1 (d3)     0.0063  0.0000  0.0000  0.0000 -0.0175  0.0374  0.0000  0.0000
  13.  O 1 (d4)     0.0000  0.0000 -0.0004  0.0086  0.0000  0.0000  0.0000  0.0000
  14.  O 1 (d1)     0.0000  0.0000  0.0086  0.0004  0.0000  0.0000  0.0000  0.0000
  15.  C 2 (s)      0.0000 -0.0659  0.0000  0.0000  0.0000  0.0000 -0.0454  0.0296
  16.  C 2 (s)      0.0000 -0.0506  0.0000  0.0000  0.0000  0.0000 -1.5629 -1.3528
  17.  C 2 (px)    -1.0373  0.0000  0.0000  0.0000 -0.0035 -0.0016  0.0000  0.0000
  18.  C 2 (py)     0.0731  0.0000  0.0000  0.0000  0.0016 -0.0035  0.0000  0.0000
  19.  C 2 (pz)     0.0000 -0.9094  0.0000  0.0000  0.0000  0.0000  0.1415 -0.4301
  20.  C 2 (s)      0.0000  2.1932  0.0000  0.0000  0.0000  0.0000  2.0725  3.3339
  21.  C 2 (px)     1.3248  0.0000  0.0000  0.0000  0.3302  0.1540  0.0000  0.0000
  22.  C 2 (py)    -0.0934  0.0000  0.0000  0.0000 -0.1540  0.3302  0.0000  0.0000
  23.  C 2 (pz)     0.0000  1.1074  0.0000  0.0000  0.0000  0.0000  1.4755  2.1321
  24.  C 2 (d5)     0.0000 -0.0808  0.0000  0.0000  0.0000  0.0000 -0.1322  0.1584
  25.  C 2 (d2)     0.0280  0.0000  0.0000  0.0000 -0.1468 -0.0685  0.0000  0.0000
  26.  C 2 (d3)    -0.0020  0.0000  0.0000  0.0000  0.0685 -0.1468  0.0000  0.0000
  27.  C 2 (d4)     0.0000  0.0000 -0.0039  0.0896  0.0000  0.0000  0.0000  0.0000
  28.  C 2 (d1)     0.0000  0.0000  0.0896  0.0039  0.0000  0.0000  0.0000  0.0000
  29.  S 3 (s)      0.0000  0.0187  0.0000  0.0000  0.0000  0.0000  0.0073 -0.0117
  30.  S 3 (s)      0.0000 -0.0403  0.0000  0.0000  0.0000  0.0000 -0.0194 -0.0055
  31.  S 3 (px)    -0.0334  0.0000  0.0000  0.0000 -0.0408 -0.0190  0.0000  0.0000
  32.  S 3 (py)     0.0024  0.0000  0.0000  0.0000  0.0190 -0.0408  0.0000  0.0000
  33.  S 3 (pz)     0.0000  0.1082  0.0000  0.0000  0.0000  0.0000  0.0177 -0.0756
  34.  S 3 (s)      0.0000  0.3966  0.0000  0.0000  0.0000  0.0000  0.1361 -0.3877
  35.  S 3 (px)     0.1273  0.0000  0.0000  0.0000  0.1696  0.0791  0.0000  0.0000
  36.  S 3 (py)    -0.0090  0.0000  0.0000  0.0000 -0.0791  0.1696  0.0000  0.0000
  37.  S 3 (pz)     0.0000 -0.3514  0.0000  0.0000  0.0000  0.0000  0.0546  0.5768
  38.  S 3 (s)      0.0000 -1.7404  0.0000  0.0000  0.0000  0.0000 -1.7735 -1.9591
  39.  S 3 (px)    -0.5339  0.0000  0.0000  0.0000 -0.2898 -0.1351  0.0000  0.0000
  40.  S 3 (py)     0.0376  0.0000  0.0000  0.0000  0.1351 -0.2898  0.0000  0.0000
  41.  S 3 (pz)     0.0000  1.2864  0.0000  0.0000  0.0000  0.0000  1.1346  0.9959
  42.  S 3 (d5)     0.0000 -0.4247  0.0000  0.0000  0.0000  0.0000 -0.2556  0.2203
  43.  S 3 (d2)    -0.1035  0.0000  0.0000  0.0000  0.8011  0.3736  0.0000  0.0000
  44.  S 3 (d3)     0.0073  0.0000  0.0000  0.0000 -0.3736  0.8011  0.0000  0.0000
  45.  S 3 (d4)     0.0000  0.0000 -0.0431  0.9911  0.0000  0.0000  0.0000  0.0000
  46.  S 3 (d1)     0.0000  0.0000  0.9911  0.0431  0.0000  0.0000  0.0000  0.0000

           AO         33      34      35      36      37      38      39      40
      ------------ ------- ------- ------- ------- ------- ------- ------- -------
   1.  O 1 (s)      0.0000  0.0000 -0.0178  0.0000  0.0000  0.0000  0.0000  0.0182
   2.  O 1 (s)      0.0000  0.0000 -0.1345  0.0000  0.0000  0.0000  0.0000 -1.7008
   3.  O 1 (px)    -0.7233  0.4506  0.0000  0.0000  0.0000  0.2161  0.1493  0.0000
   4.  O 1 (py)    -0.4506 -0.7233  0.0000  0.0000  0.0000 -0.1493  0.2161  0.0000
   5.  O 1 (pz)     0.0000  0.0000  0.5377  0.0000  0.0000  0.0000  0.0000  0.0273
   6.  O 1 (s)      0.0000  0.0000  0.9804  0.0000  0.0000  0.0000  0.0000  4.7350
   7.  O 1 (px)     1.1353 -0.7072  0.0000  0.0000  0.0000 -0.1374 -0.0949  0.0000
   8.  O 1 (py)     0.7072  1.1353  0.0000  0.0000  0.0000  0.0949 -0.1374  0.0000
   9.  O 1 (pz)     0.0000  0.0000 -0.1482  0.0000  0.0000  0.0000  0.0000  1.4143
  10.  O 1 (d5)     0.0000  0.0000 -0.1545  0.0000  0.0000  0.0000  0.0000 -0.2182
  11.  O 1 (d2)    -0.0725  0.0452  0.0000  0.0000  0.0000 -0.4808 -0.3322  0.0000
  12.  O 1 (d3)    -0.0452 -0.0725  0.0000  0.0000  0.0000  0.3322 -0.4808  0.0000
  13.  O 1 (d4)     0.0000  0.0000  0.0000 -0.0758  0.5259  0.0000  0.0000  0.0000
  14.  O 1 (d1)     0.0000  0.0000  0.0000  0.5259  0.0758  0.0000  0.0000  0.0000
  15.  C 2 (s)      0.0000  0.0000 -0.0276  0.0000  0.0000  0.0000  0.0000 -0.0158
  16.  C 2 (s)      0.0000  0.0000  0.0636  0.0000  0.0000  0.0000  0.0000 -0.4953
  17.  C 2 (px)     0.1636 -0.1019  0.0000  0.0000  0.0000  0.1746  0.1206  0.0000
  18.  C 2 (py)     0.1019  0.1636  0.0000  0.0000  0.0000 -0.1206  0.1746  0.0000
  19.  C 2 (pz)     0.0000  0.0000  0.7307  0.0000  0.0000  0.0000  0.0000 -0.0762
  20.  C 2 (s)      0.0000  0.0000  0.8434  0.0000  0.0000  0.0000  0.0000 -1.8847
  21.  C 2 (px)    -0.7403  0.4611  0.0000  0.0000  0.0000  0.1530  0.1057  0.0000
  22.  C 2 (py)    -0.4611 -0.7403  0.0000  0.0000  0.0000 -0.1057  0.1530  0.0000
  23.  C 2 (pz)     0.0000  0.0000  1.1817  0.0000  0.0000  0.0000  0.0000  2.8440
  24.  C 2 (d5)     0.0000  0.0000 -0.0014  0.0000  0.0000  0.0000  0.0000 -0.3766
  25.  C 2 (d2)     0.1643 -0.1023  0.0000  0.0000  0.0000  0.4920  0.3399  0.0000
  26.  C 2 (d3)     0.1023  0.1643  0.0000  0.0000  0.0000 -0.3399  0.4920  0.0000
  27.  C 2 (d4)     0.0000  0.0000  0.0000 -0.1104  0.7661  0.0000  0.0000  0.0000
  28.  C 2 (d1)     0.0000  0.0000  0.0000  0.7661  0.1104  0.0000  0.0000  0.0000
  29.  S 3 (s)      0.0000  0.0000 -0.0153  0.0000  0.0000  0.0000  0.0000 -0.0091
  30.  S 3 (s)      0.0000  0.0000  0.0593  0.0000  0.0000  0.0000  0.0000 -0.0653
  31.  S 3 (px)     0.0071 -0.0044  0.0000  0.0000  0.0000  0.0307  0.0212  0.0000
  32.  S 3 (py)     0.0044  0.0071  0.0000  0.0000  0.0000 -0.0212  0.0307  0.0000
  33.  S 3 (pz)     0.0000  0.0000 -0.1371  0.0000  0.0000  0.0000  0.0000 -0.0004
  34.  S 3 (s)      0.0000  0.0000 -0.2525  0.0000  0.0000  0.0000  0.0000 -0.4784
  35.  S 3 (px)    -0.0263  0.0164  0.0000  0.0000  0.0000 -0.1076 -0.0743  0.0000
  36.  S 3 (py)    -0.0164 -0.0263  0.0000  0.0000  0.0000  0.0743 -0.1076  0.0000
  37.  S 3 (pz)     0.0000  0.0000  0.6399  0.0000  0.0000  0.0000  0.0000  0.1423
  38.  S 3 (s)      0.0000  0.0000 -1.1244  0.0000  0.0000  0.0000  0.0000 -0.5143
  39.  S 3 (px)     0.2602 -0.1621  0.0000  0.0000  0.0000 -0.0781 -0.0539  0.0000
  40.  S 3 (py)     0.1621  0.2602  0.0000  0.0000  0.0000  0.0539 -0.0781  0.0000
  41.  S 3 (pz)     0.0000  0.0000  0.6019  0.0000  0.0000  0.0000  0.0000  0.1410
  42.  S 3 (d5)     0.0000  0.0000 -0.9331  0.0000  0.0000  0.0000  0.0000  0.3280
  43.  S 3 (d2)    -0.2480  0.1545  0.0000  0.0000  0.0000  0.3458  0.2389  0.0000
  44.  S 3 (d3)    -0.1545 -0.2480  0.0000  0.0000  0.0000 -0.2389  0.3458  0.0000
  45.  S 3 (d4)     0.0000  0.0000  0.0000  0.0163 -0.1134  0.0000  0.0000  0.0000
  46.  S 3 (d1)     0.0000  0.0000  0.0000 -0.1134 -0.0163  0.0000  0.0000  0.0000

           AO         41      42      43      44      45      46
      ------------ ------- ------- ------- ------- ------- -------
   1.  O 1 (s)      0.0000  0.0000  0.0000  0.0000 -0.0083 -0.0703
   2.  O 1 (s)      0.0000  0.0000  0.0000  0.0000 -1.2295 -0.1542
   3.  O 1 (px)     0.0000  0.0000  0.0432  0.0311  0.0000  0.0000
   4.  O 1 (py)     0.0000  0.0000 -0.0311  0.0432  0.0000  0.0000
   5.  O 1 (pz)     0.0000  0.0000  0.0000  0.0000 -0.3778  0.6346
   6.  O 1 (s)      0.0000  0.0000  0.0000  0.0000  2.8713  2.4139
   7.  O 1 (px)     0.0000  0.0000  0.3782  0.2724  0.0000  0.0000
   8.  O 1 (py)     0.0000  0.0000 -0.2724  0.3782  0.0000  0.0000
   9.  O 1 (pz)     0.0000  0.0000  0.0000  0.0000  1.3919  1.4877
  10.  O 1 (d5)     0.0000  0.0000  0.0000  0.0000  0.7537  1.3191
  11.  O 1 (d2)     0.0000  0.0000  0.8486  0.6112  0.0000  0.0000
  12.  O 1 (d3)     0.0000  0.0000 -0.6112  0.8486  0.0000  0.0000
  13.  O 1 (d4)     0.6453 -0.5662  0.0000  0.0000  0.0000  0.0000
  14.  O 1 (d1)     0.5662  0.6453  0.0000  0.0000  0.0000  0.0000
  15.  C 2 (s)      0.0000  0.0000  0.0000  0.0000 -0.1324 -0.0056
  16.  C 2 (s)      0.0000  0.0000  0.0000  0.0000 -1.1299 -1.2575
  17.  C 2 (px)     0.0000  0.0000 -0.2410 -0.1736  0.0000  0.0000
  18.  C 2 (py)     0.0000  0.0000  0.1736 -0.2410  0.0000  0.0000
  19.  C 2 (pz)     0.0000  0.0000  0.0000  0.0000  0.6969  1.1853
  20.  C 2 (s)      0.0000  0.0000  0.0000  0.0000  0.2315 -2.0820
  21.  C 2 (px)     0.0000  0.0000 -0.1987 -0.1431  0.0000  0.0000
  22.  C 2 (py)     0.0000  0.0000  0.1431 -0.1987  0.0000  0.0000
  23.  C 2 (pz)     0.0000  0.0000  0.0000  0.0000  1.8782  0.1503
  24.  C 2 (d5)     0.0000  0.0000  0.0000  0.0000  0.7910 -1.3085
  25.  C 2 (d2)     0.0000  0.0000  0.8568  0.6171  0.0000  0.0000
  26.  C 2 (d3)     0.0000  0.0000 -0.6171  0.8568  0.0000  0.0000
  27.  C 2 (d4)    -0.4836  0.4243  0.0000  0.0000  0.0000  0.0000
  28.  C 2 (d1)    -0.4243 -0.4836  0.0000  0.0000  0.0000  0.0000
  29.  S 3 (s)      0.0000  0.0000  0.0000  0.0000 -0.0224  0.0139
  30.  S 3 (s)      0.0000  0.0000  0.0000  0.0000  0.0324 -0.0658
  31.  S 3 (px)     0.0000  0.0000  0.0284  0.0205  0.0000  0.0000
  32.  S 3 (py)     0.0000  0.0000 -0.0205  0.0284  0.0000  0.0000
  33.  S 3 (pz)     0.0000  0.0000  0.0000  0.0000 -0.1202  0.0998
  34.  S 3 (s)      0.0000  0.0000  0.0000  0.0000 -0.6034  0.2405
  35.  S 3 (px)     0.0000  0.0000 -0.1086 -0.0782  0.0000  0.0000
  36.  S 3 (py)     0.0000  0.0000  0.0782 -0.1086  0.0000  0.0000
  37.  S 3 (pz)     0.0000  0.0000  0.0000  0.0000  0.7375 -0.5380
  38.  S 3 (s)      0.0000  0.0000  0.0000  0.0000 -0.9262  0.5626
  39.  S 3 (px)     0.0000  0.0000  0.0694  0.0500  0.0000  0.0000
  40.  S 3 (py)     0.0000  0.0000 -0.0500  0.0694  0.0000  0.0000
  41.  S 3 (pz)     0.0000  0.0000  0.0000  0.0000  0.4051 -0.2901
  42.  S 3 (d5)     0.0000  0.0000  0.0000  0.0000 -0.4015  0.4230
  43.  S 3 (d2)     0.0000  0.0000  0.1814  0.1306  0.0000  0.0000
  44.  S 3 (d3)     0.0000  0.0000 -0.1306  0.1814  0.0000  0.0000
  45.  S 3 (d4)     0.0510 -0.0448  0.0000  0.0000  0.0000  0.0000
  46.  S 3 (d1)     0.0448  0.0510  0.0000  0.0000  0.0000  0.0000


 AO overlap matrix:

           AO          1       2       3       4       5       6       7       8
      ------------ ------- ------- ------- ------- ------- ------- ------- -------
   1.  O 1 (s)      1.0000  0.2337  0.0000  0.0000  0.0000  0.1673  0.0000  0.0000
   2.  O 1 (s)      0.2337  1.0000  0.0000  0.0000  0.0000  0.7636  0.0000  0.0000
   3.  O 1 (px)     0.0000  0.0000  1.0000  0.0000  0.0000  0.0000  0.5015  0.0000
   4.  O 1 (py)     0.0000  0.0000  0.0000  1.0000  0.0000  0.0000  0.0000  0.5015
   5.  O 1 (pz)     0.0000  0.0000  0.0000  0.0000  1.0000  0.0000  0.0000  0.0000
   6.  O 1 (s)      0.1673  0.7636  0.0000  0.0000  0.0000  1.0000  0.0000  0.0000
   7.  O 1 (px)     0.0000  0.0000  0.5015  0.0000  0.0000  0.0000  1.0000  0.0000
   8.  O 1 (py)     0.0000  0.0000  0.0000  0.5015  0.0000  0.0000  0.0000  1.0000
   9.  O 1 (pz)     0.0000  0.0000  0.0000  0.0000  0.5015  0.0000  0.0000  0.0000
  10.  O 1 (d5)     0.0000  0.0000  0.0000  0.0000  0.0000  0.0000  0.0000  0.0000
  11.  O 1 (d2)     0.0000  0.0000  0.0000  0.0000  0.0000  0.0000  0.0000  0.0000
  12.  O 1 (d3)     0.0000  0.0000  0.0000  0.0000  0.0000  0.0000  0.0000  0.0000
  13.  O 1 (d4)     0.0000  0.0000  0.0000  0.0000  0.0000  0.0000  0.0000  0.0000
  14.  O 1 (d1)     0.0000  0.0000  0.0000  0.0000  0.0000  0.0000  0.0000  0.0000
  15.  C 2 (s)      0.0000  0.0103  0.0000  0.0000  0.0240  0.0717  0.0000  0.0000
  16.  C 2 (s)      0.0244  0.1895  0.0000  0.0000  0.2186  0.3928  0.0000  0.0000
  17.  C 2 (px)     0.0000  0.0000  0.1005  0.0000  0.0000  0.0000  0.2980  0.0000
  18.  C 2 (py)     0.0000  0.0000  0.0000  0.1005  0.0000  0.0000  0.0000  0.2980
  19.  C 2 (pz)    -0.0495 -0.2956  0.0000  0.0000 -0.2902 -0.3449  0.0000  0.0000
  20.  C 2 (s)      0.0527  0.3005  0.0000  0.0000  0.1487  0.5733  0.0000  0.0000
  21.  C 2 (px)     0.0000  0.0000  0.1626  0.0000  0.0000  0.0000  0.5578  0.0000
  22.  C 2 (py)     0.0000  0.0000  0.0000  0.1626  0.0000  0.0000  0.0000  0.5578
  23.  C 2 (pz)    -0.0945 -0.4672  0.0000  0.0000 -0.0737 -0.6457  0.0000  0.0000
  24.  C 2 (d5)     0.0702  0.3186  0.0000  0.0000  0.3044  0.1736  0.0000  0.0000
  25.  C 2 (d2)     0.0000  0.0000 -0.1963  0.0000  0.0000  0.0000 -0.2598  0.0000
  26.  C 2 (d3)     0.0000  0.0000  0.0000 -0.1963  0.0000  0.0000  0.0000 -0.2598
  27.  C 2 (d4)     0.0000  0.0000  0.0000  0.0000  0.0000  0.0000  0.0000  0.0000
  28.  C 2 (d1)     0.0000  0.0000  0.0000  0.0000  0.0000  0.0000  0.0000  0.0000
  29.  S 3 (s)      0.0000  0.0000  0.0000  0.0000  0.0000  0.0000  0.0000  0.0000
  30.  S 3 (s)      0.0000  0.0000  0.0000  0.0000  0.0000  0.0006  0.0000  0.0000
  31.  S 3 (px)     0.0000  0.0000  0.0000  0.0000  0.0000  0.0000  0.0002  0.0000
  32.  S 3 (py)     0.0000  0.0000  0.0000  0.0000  0.0000  0.0000  0.0000  0.0002
  33.  S 3 (pz)     0.0000  0.0000  0.0000  0.0000  0.0000 -0.0007  0.0000  0.0000
  34.  S 3 (s)      0.0000  0.0010  0.0000  0.0000  0.0018  0.0182  0.0000  0.0000
  35.  S 3 (px)     0.0000  0.0000  0.0004  0.0000  0.0000  0.0000  0.0136  0.0000
  36.  S 3 (py)     0.0000  0.0000  0.0000  0.0004  0.0000  0.0000  0.0000  0.0136
  37.  S 3 (pz)    -0.0001 -0.0032  0.0000  0.0000 -0.0054 -0.0366  0.0000  0.0000
  38.  S 3 (s)      0.0041  0.0301  0.0000  0.0000  0.0243  0.0979  0.0000  0.0000
  39.  S 3 (px)     0.0000  0.0000  0.0137  0.0000  0.0000  0.0000  0.0899  0.0000
  40.  S 3 (py)     0.0000  0.0000  0.0000  0.0137  0.0000  0.0000  0.0000  0.0899
  41.  S 3 (pz)    -0.0144 -0.0954  0.0000  0.0000 -0.0643 -0.2423  0.0000  0.0000
  42.  S 3 (d5)     0.0000  0.0004  0.0000  0.0000  0.0009  0.0179  0.0000  0.0000
  43.  S 3 (d2)     0.0000  0.0000 -0.0001  0.0000  0.0000  0.0000 -0.0115  0.0000
  44.  S 3 (d3)     0.0000  0.0000  0.0000 -0.0001  0.0000  0.0000  0.0000 -0.0115
  45.  S 3 (d4)     0.0000  0.0000  0.0000  0.0000  0.0000  0.0000  0.0000  0.0000
  46.  S 3 (d1)     0.0000  0.0000  0.0000  0.0000  0.0000  0.0000  0.0000  0.0000

           AO          9      10      11      12      13      14      15      16
      ------------ ------- ------- ------- ------- ------- ------- ------- -------
   1.  O 1 (s)      0.0000  0.0000  0.0000  0.0000  0.0000  0.0000  0.0000  0.0244
   2.  O 1 (s)      0.0000  0.0000  0.0000  0.0000  0.0000  0.0000  0.0103  0.1895
   3.  O 1 (px)     0.0000  0.0000  0.0000  0.0000  0.0000  0.0000  0.0000  0.0000
   4.  O 1 (py)     0.0000  0.0000  0.0000  0.0000  0.0000  0.0000  0.0000  0.0000
   5.  O 1 (pz)     0.5015  0.0000  0.0000  0.0000  0.0000  0.0000  0.0240  0.2186
   6.  O 1 (s)      0.0000  0.0000  0.0000  0.0000  0.0000  0.0000  0.0717  0.3928
   7.  O 1 (px)     0.0000  0.0000  0.0000  0.0000  0.0000  0.0000  0.0000  0.0000
   8.  O 1 (py)     0.0000  0.0000  0.0000  0.0000  0.0000  0.0000  0.0000  0.0000
   9.  O 1 (pz)     1.0000  0.0000  0.0000  0.0000  0.0000  0.0000  0.1566  0.5901
  10.  O 1 (d5)     0.0000  1.0000  0.0000  0.0000  0.0000  0.0000  0.1101  0.2850
  11.  O 1 (d2)     0.0000  0.0000  1.0000  0.0000  0.0000  0.0000  0.0000  0.0000
  12.  O 1 (d3)     0.0000  0.0000  0.0000  1.0000  0.0000  0.0000  0.0000  0.0000
  13.  O 1 (d4)     0.0000  0.0000  0.0000  0.0000  1.0000  0.0000  0.0000  0.0000
  14.  O 1 (d1)     0.0000  0.0000  0.0000  0.0000  0.0000  1.0000  0.0000  0.0000
  15.  C 2 (s)      0.1566  0.1101  0.0000  0.0000  0.0000  0.0000  1.0000  0.2191
  16.  C 2 (s)      0.5901  0.2850  0.0000  0.0000  0.0000  0.0000  0.2191  1.0000
  17.  C 2 (px)     0.0000  0.0000  0.2753  0.0000  0.0000  0.0000  0.0000  0.0000
  18.  C 2 (py)     0.0000  0.0000  0.0000  0.2753  0.0000  0.0000  0.0000  0.0000
  19.  C 2 (pz)    -0.2562 -0.2565  0.0000  0.0000  0.0000  0.0000  0.0000  0.0000
  20.  C 2 (s)      0.5104  0.0920  0.0000  0.0000  0.0000  0.0000  0.1843  0.8123
  21.  C 2 (px)     0.0000  0.0000  0.1742  0.0000  0.0000  0.0000  0.0000  0.0000
  22.  C 2 (py)     0.0000  0.0000  0.0000  0.1742  0.0000  0.0000  0.0000  0.0000
  23.  C 2 (pz)    -0.0170  0.0621  0.0000  0.0000  0.0000  0.0000  0.0000  0.0000
  24.  C 2 (d5)     0.0005  0.1319  0.0000  0.0000  0.0000  0.0000  0.0000  0.0000
  25.  C 2 (d2)     0.0000  0.0000 -0.4081  0.0000  0.0000  0.0000  0.0000  0.0000
  26.  C 2 (d3)     0.0000  0.0000  0.0000 -0.4081  0.0000  0.0000  0.0000  0.0000
  27.  C 2 (d4)     0.0000  0.0000  0.0000  0.0000  0.1374  0.0000  0.0000  0.0000
  28.  C 2 (d1)     0.0000  0.0000  0.0000  0.0000  0.0000  0.1374  0.0000  0.0000
  29.  S 3 (s)      0.0002  0.0000  0.0000  0.0000  0.0000  0.0000  0.0000  0.0011
  30.  S 3 (s)      0.0030  0.0000  0.0000  0.0000  0.0000  0.0000  0.0000  0.0145
  31.  S 3 (px)     0.0000  0.0000  0.0000  0.0000  0.0000  0.0000  0.0000  0.0000
  32.  S 3 (py)     0.0000  0.0000  0.0000  0.0000  0.0000  0.0000  0.0000  0.0000
  33.  S 3 (pz)    -0.0029  0.0000  0.0000  0.0000  0.0000  0.0000  0.0000 -0.0159
  34.  S 3 (s)      0.0545  0.0066  0.0000  0.0000  0.0000  0.0000  0.0195  0.1746
  35.  S 3 (px)     0.0000  0.0000  0.0027  0.0000  0.0000  0.0000  0.0000  0.0000
  36.  S 3 (py)     0.0000  0.0000  0.0000  0.0027  0.0000  0.0000  0.0000  0.0000
  37.  S 3 (pz)    -0.0989 -0.0171  0.0000  0.0000  0.0000  0.0000 -0.0456 -0.2935
  38.  S 3 (s)      0.1596  0.0283  0.0000  0.0000  0.0000  0.0000  0.0525  0.3033
  39.  S 3 (px)     0.0000  0.0000  0.0276  0.0000  0.0000  0.0000  0.0000  0.0000
  40.  S 3 (py)     0.0000  0.0000  0.0000  0.0276  0.0000  0.0000  0.0000  0.0000
  41.  S 3 (pz)    -0.3052 -0.0558  0.0000  0.0000  0.0000  0.0000 -0.1035 -0.4990
  42.  S 3 (d5)     0.0548  0.0063  0.0000  0.0000  0.0000  0.0000  0.0302  0.2156
  43.  S 3 (d2)     0.0000  0.0000 -0.0012  0.0000  0.0000  0.0000  0.0000  0.0000
  44.  S 3 (d3)     0.0000  0.0000  0.0000 -0.0012  0.0000  0.0000  0.0000  0.0000
  45.  S 3 (d4)     0.0000  0.0000  0.0000  0.0000  0.0001  0.0000  0.0000  0.0000
  46.  S 3 (d1)     0.0000  0.0000  0.0000  0.0000  0.0000  0.0001  0.0000  0.0000

           AO         17      18      19      20      21      22      23      24
      ------------ ------- ------- ------- ------- ------- ------- ------- -------
   1.  O 1 (s)      0.0000  0.0000 -0.0495  0.0527  0.0000  0.0000 -0.0945  0.0702
   2.  O 1 (s)      0.0000  0.0000 -0.2956  0.3005  0.0000  0.0000 -0.4672  0.3186
   3.  O 1 (px)     0.1005  0.0000  0.0000  0.0000  0.1626  0.0000  0.0000  0.0000
   4.  O 1 (py)     0.0000  0.1005  0.0000  0.0000  0.0000  0.1626  0.0000  0.0000
   5.  O 1 (pz)     0.0000  0.0000 -0.2902  0.1487  0.0000  0.0000 -0.0737  0.3044
   6.  O 1 (s)      0.0000  0.0000 -0.3449  0.5733  0.0000  0.0000 -0.6457  0.1736
   7.  O 1 (px)     0.2980  0.0000  0.0000  0.0000  0.5578  0.0000  0.0000  0.0000
   8.  O 1 (py)     0.0000  0.2980  0.0000  0.0000  0.0000  0.5578  0.0000  0.0000
   9.  O 1 (pz)     0.0000  0.0000 -0.2562  0.5104  0.0000  0.0000 -0.0170  0.0005
  10.  O 1 (d5)     0.0000  0.0000 -0.2565  0.0920  0.0000  0.0000  0.0621  0.1319
  11.  O 1 (d2)     0.2753  0.0000  0.0000  0.0000  0.1742  0.0000  0.0000  0.0000
  12.  O 1 (d3)     0.0000  0.2753  0.0000  0.0000  0.0000  0.1742  0.0000  0.0000
  13.  O 1 (d4)     0.0000  0.0000  0.0000  0.0000  0.0000  0.0000  0.0000  0.0000
  14.  O 1 (d1)     0.0000  0.0000  0.0000  0.0000  0.0000  0.0000  0.0000  0.0000
  15.  C 2 (s)      0.0000  0.0000  0.0000  0.1843  0.0000  0.0000  0.0000  0.0000
  16.  C 2 (s)      0.0000  0.0000  0.0000  0.8123  0.0000  0.0000  0.0000  0.0000
  17.  C 2 (px)     1.0000  0.0000  0.0000  0.0000  0.5698  0.0000  0.0000  0.0000
  18.  C 2 (py)     0.0000  1.0000  0.0000  0.0000  0.0000  0.5698  0.0000  0.0000
  19.  C 2 (pz)     0.0000  0.0000  1.0000  0.0000  0.0000  0.0000  0.5698  0.0000
  20.  C 2 (s)      0.0000  0.0000  0.0000  1.0000  0.0000  0.0000  0.0000  0.0000
  21.  C 2 (px)     0.5698  0.0000  0.0000  0.0000  1.0000  0.0000  0.0000  0.0000
  22.  C 2 (py)     0.0000  0.5698  0.0000  0.0000  0.0000  1.0000  0.0000  0.0000
  23.  C 2 (pz)     0.0000  0.0000  0.5698  0.0000  0.0000  0.0000  1.0000  0.0000
  24.  C 2 (d5)     0.0000  0.0000  0.0000  0.0000  0.0000  0.0000  0.0000  1.0000
  25.  C 2 (d2)     0.0000  0.0000  0.0000  0.0000  0.0000  0.0000  0.0000  0.0000
  26.  C 2 (d3)     0.0000  0.0000  0.0000  0.0000  0.0000  0.0000  0.0000  0.0000
  27.  C 2 (d4)     0.0000  0.0000  0.0000  0.0000  0.0000  0.0000  0.0000  0.0000
  28.  C 2 (d1)     0.0000  0.0000  0.0000  0.0000  0.0000  0.0000  0.0000  0.0000
  29.  S 3 (s)      0.0000  0.0000  0.0030  0.0098  0.0000  0.0000  0.0236  0.0022
  30.  S 3 (s)      0.0000  0.0000  0.0337  0.0798  0.0000  0.0000  0.1815  0.0342
  31.  S 3 (px)     0.0048  0.0000  0.0000  0.0000  0.0262  0.0000  0.0000  0.0000
  32.  S 3 (py)     0.0000  0.0048  0.0000  0.0000  0.0000  0.0262  0.0000  0.0000
  33.  S 3 (pz)     0.0000  0.0000 -0.0328 -0.0318  0.0000  0.0000 -0.0465 -0.0409
  34.  S 3 (s)      0.0000  0.0000  0.2215  0.3496  0.0000  0.0000  0.5601  0.1633
  35.  S 3 (px)     0.1034  0.0000  0.0000  0.0000  0.2804  0.0000  0.0000  0.0000
  36.  S 3 (py)     0.0000  0.1034  0.0000  0.0000  0.0000  0.2804  0.0000  0.0000
  37.  S 3 (pz)     0.0000  0.0000 -0.3152 -0.3407  0.0000  0.0000 -0.2937 -0.2135
  38.  S 3 (s)      0.0000  0.0000  0.1844  0.5327  0.0000  0.0000  0.5305  0.0588
  39.  S 3 (px)     0.1821  0.0000  0.0000  0.0000  0.5240  0.0000  0.0000  0.0000
  40.  S 3 (py)     0.0000  0.1821  0.0000  0.0000  0.0000  0.5240  0.0000  0.0000
  41.  S 3 (pz)     0.0000  0.0000 -0.1298 -0.6366  0.0000  0.0000 -0.1100  0.0123
  42.  S 3 (d5)     0.0000  0.0000  0.2656  0.1257  0.0000  0.0000  0.0356  0.2452
  43.  S 3 (d2)    -0.1320  0.0000  0.0000  0.0000 -0.1792  0.0000  0.0000  0.0000
  44.  S 3 (d3)     0.0000 -0.1320  0.0000  0.0000  0.0000 -0.1792  0.0000  0.0000
  45.  S 3 (d4)     0.0000  0.0000  0.0000  0.0000  0.0000  0.0000  0.0000  0.0000
  46.  S 3 (d1)     0.0000  0.0000  0.0000  0.0000  0.0000  0.0000  0.0000  0.0000

           AO         25      26      27      28      29      30      31      32
      ------------ ------- ------- ------- ------- ------- ------- ------- -------
   1.  O 1 (s)      0.0000  0.0000  0.0000  0.0000  0.0000  0.0000  0.0000  0.0000
   2.  O 1 (s)      0.0000  0.0000  0.0000  0.0000  0.0000  0.0000  0.0000  0.0000
   3.  O 1 (px)    -0.1963  0.0000  0.0000  0.0000  0.0000  0.0000  0.0000  0.0000
   4.  O 1 (py)     0.0000 -0.1963  0.0000  0.0000  0.0000  0.0000  0.0000  0.0000
   5.  O 1 (pz)     0.0000  0.0000  0.0000  0.0000  0.0000  0.0000  0.0000  0.0000
   6.  O 1 (s)      0.0000  0.0000  0.0000  0.0000  0.0000  0.0006  0.0000  0.0000
   7.  O 1 (px)    -0.2598  0.0000  0.0000  0.0000  0.0000  0.0000  0.0002  0.0000
   8.  O 1 (py)     0.0000 -0.2598  0.0000  0.0000  0.0000  0.0000  0.0000  0.0002
   9.  O 1 (pz)     0.0000  0.0000  0.0000  0.0000  0.0002  0.0030  0.0000  0.0000
  10.  O 1 (d5)     0.0000  0.0000  0.0000  0.0000  0.0000  0.0000  0.0000  0.0000
  11.  O 1 (d2)    -0.4081  0.0000  0.0000  0.0000  0.0000  0.0000  0.0000  0.0000
  12.  O 1 (d3)     0.0000 -0.4081  0.0000  0.0000  0.0000  0.0000  0.0000  0.0000
  13.  O 1 (d4)     0.0000  0.0000  0.1374  0.0000  0.0000  0.0000  0.0000  0.0000
  14.  O 1 (d1)     0.0000  0.0000  0.0000  0.1374  0.0000  0.0000  0.0000  0.0000
  15.  C 2 (s)      0.0000  0.0000  0.0000  0.0000  0.0000  0.0000  0.0000  0.0000
  16.  C 2 (s)      0.0000  0.0000  0.0000  0.0000  0.0011  0.0145  0.0000  0.0000
  17.  C 2 (px)     0.0000  0.0000  0.0000  0.0000  0.0000  0.0000  0.0048  0.0000
  18.  C 2 (py)     0.0000  0.0000  0.0000  0.0000  0.0000  0.0000  0.0000  0.0048
  19.  C 2 (pz)     0.0000  0.0000  0.0000  0.0000  0.0030  0.0337  0.0000  0.0000
  20.  C 2 (s)      0.0000  0.0000  0.0000  0.0000  0.0098  0.0798  0.0000  0.0000
  21.  C 2 (px)     0.0000  0.0000  0.0000  0.0000  0.0000  0.0000  0.0262  0.0000
  22.  C 2 (py)     0.0000  0.0000  0.0000  0.0000  0.0000  0.0000  0.0000  0.0262
  23.  C 2 (pz)     0.0000  0.0000  0.0000  0.0000  0.0236  0.1815  0.0000  0.0000
  24.  C 2 (d5)     0.0000  0.0000  0.0000  0.0000  0.0022  0.0342  0.0000  0.0000
  25.  C 2 (d2)     1.0000  0.0000  0.0000  0.0000  0.0000  0.0000  0.0083  0.0000
  26.  C 2 (d3)     0.0000  1.0000  0.0000  0.0000  0.0000  0.0000  0.0000  0.0083
  27.  C 2 (d4)     0.0000  0.0000  1.0000  0.0000  0.0000  0.0000  0.0000  0.0000
  28.  C 2 (d1)     0.0000  0.0000  0.0000  1.0000  0.0000  0.0000  0.0000  0.0000
  29.  S 3 (s)      0.0000  0.0000  0.0000  0.0000  1.0000  0.2627  0.0000  0.0000
  30.  S 3 (s)      0.0000  0.0000  0.0000  0.0000  0.2627  1.0000  0.0000  0.0000
  31.  S 3 (px)     0.0083  0.0000  0.0000  0.0000  0.0000  0.0000  1.0000  0.0000
  32.  S 3 (py)     0.0000  0.0083  0.0000  0.0000  0.0000  0.0000  0.0000  1.0000
  33.  S 3 (pz)     0.0000  0.0000  0.0000  0.0000  0.0000  0.0000  0.0000  0.0000
  34.  S 3 (s)      0.0000  0.0000  0.0000  0.0000  0.0102  0.3228  0.0000  0.0000
  35.  S 3 (px)     0.1385  0.0000  0.0000  0.0000  0.0000  0.0000  0.3105  0.0000
  36.  S 3 (py)     0.0000  0.1385  0.0000  0.0000  0.0000  0.0000  0.0000  0.3105
  37.  S 3 (pz)     0.0000  0.0000  0.0000  0.0000  0.0000  0.0000  0.0000  0.0000
  38.  S 3 (s)      0.0000  0.0000  0.0000  0.0000  0.0323  0.2491  0.0000  0.0000
  39.  S 3 (px)     0.1007  0.0000  0.0000  0.0000  0.0000  0.0000  0.0696  0.0000
  40.  S 3 (py)     0.0000  0.1007  0.0000  0.0000  0.0000  0.0000  0.0000  0.0696
  41.  S 3 (pz)     0.0000  0.0000  0.0000  0.0000  0.0000  0.0000  0.0000  0.0000
  42.  S 3 (d5)     0.0000  0.0000  0.0000  0.0000  0.0000  0.0000  0.0000  0.0000
  43.  S 3 (d2)    -0.2246  0.0000  0.0000  0.0000  0.0000  0.0000  0.0000  0.0000
  44.  S 3 (d3)     0.0000 -0.2246  0.0000  0.0000  0.0000  0.0000  0.0000  0.0000
  45.  S 3 (d4)     0.0000  0.0000  0.0426  0.0000  0.0000  0.0000  0.0000  0.0000
  46.  S 3 (d1)     0.0000  0.0000  0.0000  0.0426  0.0000  0.0000  0.0000  0.0000

           AO         33      34      35      36      37      38      39      40
      ------------ ------- ------- ------- ------- ------- ------- ------- -------
   1.  O 1 (s)      0.0000  0.0000  0.0000  0.0000 -0.0001  0.0041  0.0000  0.0000
   2.  O 1 (s)      0.0000  0.0010  0.0000  0.0000 -0.0032  0.0301  0.0000  0.0000
   3.  O 1 (px)     0.0000  0.0000  0.0004  0.0000  0.0000  0.0000  0.0137  0.0000
   4.  O 1 (py)     0.0000  0.0000  0.0000  0.0004  0.0000  0.0000  0.0000  0.0137
   5.  O 1 (pz)     0.0000  0.0018  0.0000  0.0000 -0.0054  0.0243  0.0000  0.0000
   6.  O 1 (s)     -0.0007  0.0182  0.0000  0.0000 -0.0366  0.0979  0.0000  0.0000
   7.  O 1 (px)     0.0000  0.0000  0.0136  0.0000  0.0000  0.0000  0.0899  0.0000
   8.  O 1 (py)     0.0000  0.0000  0.0000  0.0136  0.0000  0.0000  0.0000  0.0899
   9.  O 1 (pz)    -0.0029  0.0545  0.0000  0.0000 -0.0989  0.1596  0.0000  0.0000
  10.  O 1 (d5)     0.0000  0.0066  0.0000  0.0000 -0.0171  0.0283  0.0000  0.0000
  11.  O 1 (d2)     0.0000  0.0000  0.0027  0.0000  0.0000  0.0000  0.0276  0.0000
  12.  O 1 (d3)     0.0000  0.0000  0.0000  0.0027  0.0000  0.0000  0.0000  0.0276
  13.  O 1 (d4)     0.0000  0.0000  0.0000  0.0000  0.0000  0.0000  0.0000  0.0000
  14.  O 1 (d1)     0.0000  0.0000  0.0000  0.0000  0.0000  0.0000  0.0000  0.0000
  15.  C 2 (s)      0.0000  0.0195  0.0000  0.0000 -0.0456  0.0525  0.0000  0.0000
  16.  C 2 (s)     -0.0159  0.1746  0.0000  0.0000 -0.2935  0.3033  0.0000  0.0000
  17.  C 2 (px)     0.0000  0.0000  0.1034  0.0000  0.0000  0.0000  0.1821  0.0000
  18.  C 2 (py)     0.0000  0.0000  0.0000  0.1034  0.0000  0.0000  0.0000  0.1821
  19.  C 2 (pz)    -0.0328  0.2215  0.0000  0.0000 -0.3152  0.1844  0.0000  0.0000
  20.  C 2 (s)     -0.0318  0.3496  0.0000  0.0000 -0.3407  0.5327  0.0000  0.0000
  21.  C 2 (px)     0.0000  0.0000  0.2804  0.0000  0.0000  0.0000  0.5240  0.0000
  22.  C 2 (py)     0.0000  0.0000  0.0000  0.2804  0.0000  0.0000  0.0000  0.5240
  23.  C 2 (pz)    -0.0465  0.5601  0.0000  0.0000 -0.2937  0.5305  0.0000  0.0000
  24.  C 2 (d5)    -0.0409  0.1633  0.0000  0.0000 -0.2135  0.0588  0.0000  0.0000
  25.  C 2 (d2)     0.0000  0.0000  0.1385  0.0000  0.0000  0.0000  0.1007  0.0000
  26.  C 2 (d3)     0.0000  0.0000  0.0000  0.1385  0.0000  0.0000  0.0000  0.1007
  27.  C 2 (d4)     0.0000  0.0000  0.0000  0.0000  0.0000  0.0000  0.0000  0.0000
  28.  C 2 (d1)     0.0000  0.0000  0.0000  0.0000  0.0000  0.0000  0.0000  0.0000
  29.  S 3 (s)      0.0000  0.0102  0.0000  0.0000  0.0000  0.0323  0.0000  0.0000
  30.  S 3 (s)      0.0000  0.3228  0.0000  0.0000  0.0000  0.2491  0.0000  0.0000
  31.  S 3 (px)     0.0000  0.0000  0.3105  0.0000  0.0000  0.0000  0.0696  0.0000
  32.  S 3 (py)     0.0000  0.0000  0.0000  0.3105  0.0000  0.0000  0.0000  0.0696
  33.  S 3 (pz)     1.0000  0.0000  0.0000  0.0000  0.3105  0.0000  0.0000  0.0000
  34.  S 3 (s)      0.0000  1.0000  0.0000  0.0000  0.0000  0.8283  0.0000  0.0000
  35.  S 3 (px)     0.0000  0.0000  1.0000  0.0000  0.0000  0.0000  0.6335  0.0000
  36.  S 3 (py)     0.0000  0.0000  0.0000  1.0000  0.0000  0.0000  0.0000  0.6335
  37.  S 3 (pz)     0.3105  0.0000  0.0000  0.0000  1.0000  0.0000  0.0000  0.0000
  38.  S 3 (s)      0.0000  0.8283  0.0000  0.0000  0.0000  1.0000  0.0000  0.0000
  39.  S 3 (px)     0.0000  0.0000  0.6335  0.0000  0.0000  0.0000  1.0000  0.0000
  40.  S 3 (py)     0.0000  0.0000  0.0000  0.6335  0.0000  0.0000  0.0000  1.0000
  41.  S 3 (pz)     0.0696  0.0000  0.0000  0.0000  0.6335  0.0000  0.0000  0.0000
  42.  S 3 (d5)     0.0000  0.0000  0.0000  0.0000  0.0000  0.0000  0.0000  0.0000
  43.  S 3 (d2)     0.0000  0.0000  0.0000  0.0000  0.0000  0.0000  0.0000  0.0000
  44.  S 3 (d3)     0.0000  0.0000  0.0000  0.0000  0.0000  0.0000  0.0000  0.0000
  45.  S 3 (d4)     0.0000  0.0000  0.0000  0.0000  0.0000  0.0000  0.0000  0.0000
  46.  S 3 (d1)     0.0000  0.0000  0.0000  0.0000  0.0000  0.0000  0.0000  0.0000

           AO         41      42      43      44      45      46
      ------------ ------- ------- ------- ------- ------- -------
   1.  O 1 (s)     -0.0144  0.0000  0.0000  0.0000  0.0000  0.0000
   2.  O 1 (s)     -0.0954  0.0004  0.0000  0.0000  0.0000  0.0000
   3.  O 1 (px)     0.0000  0.0000 -0.0001  0.0000  0.0000  0.0000
   4.  O 1 (py)     0.0000  0.0000  0.0000 -0.0001  0.0000  0.0000
   5.  O 1 (pz)    -0.0643  0.0009  0.0000  0.0000  0.0000  0.0000
   6.  O 1 (s)     -0.2423  0.0179  0.0000  0.0000  0.0000  0.0000
   7.  O 1 (px)     0.0000  0.0000 -0.0115  0.0000  0.0000  0.0000
   8.  O 1 (py)     0.0000  0.0000  0.0000 -0.0115  0.0000  0.0000
   9.  O 1 (pz)    -0.3052  0.0548  0.0000  0.0000  0.0000  0.0000
  10.  O 1 (d5)    -0.0558  0.0063  0.0000  0.0000  0.0000  0.0000
  11.  O 1 (d2)     0.0000  0.0000 -0.0012  0.0000  0.0000  0.0000
  12.  O 1 (d3)     0.0000  0.0000  0.0000 -0.0012  0.0000  0.0000
  13.  O 1 (d4)     0.0000  0.0000  0.0000  0.0000  0.0001  0.0000
  14.  O 1 (d1)     0.0000  0.0000  0.0000  0.0000  0.0000  0.0001
  15.  C 2 (s)     -0.1035  0.0302  0.0000  0.0000  0.0000  0.0000
  16.  C 2 (s)     -0.4990  0.2156  0.0000  0.0000  0.0000  0.0000
  17.  C 2 (px)     0.0000  0.0000 -0.1320  0.0000  0.0000  0.0000
  18.  C 2 (py)     0.0000  0.0000  0.0000 -0.1320  0.0000  0.0000
  19.  C 2 (pz)    -0.1298  0.2656  0.0000  0.0000  0.0000  0.0000
  20.  C 2 (s)     -0.6366  0.1257  0.0000  0.0000  0.0000  0.0000
  21.  C 2 (px)     0.0000  0.0000 -0.1792  0.0000  0.0000  0.0000
  22.  C 2 (py)     0.0000  0.0000  0.0000 -0.1792  0.0000  0.0000
  23.  C 2 (pz)    -0.1100  0.0356  0.0000  0.0000  0.0000  0.0000
  24.  C 2 (d5)     0.0123  0.2452  0.0000  0.0000  0.0000  0.0000
  25.  C 2 (d2)     0.0000  0.0000 -0.2246  0.0000  0.0000  0.0000
  26.  C 2 (d3)     0.0000  0.0000  0.0000 -0.2246  0.0000  0.0000
  27.  C 2 (d4)     0.0000  0.0000  0.0000  0.0000  0.0426  0.0000
  28.  C 2 (d1)     0.0000  0.0000  0.0000  0.0000  0.0000  0.0426
  29.  S 3 (s)      0.0000  0.0000  0.0000  0.0000  0.0000  0.0000
  30.  S 3 (s)      0.0000  0.0000  0.0000  0.0000  0.0000  0.0000
  31.  S 3 (px)     0.0000  0.0000  0.0000  0.0000  0.0000  0.0000
  32.  S 3 (py)     0.0000  0.0000  0.0000  0.0000  0.0000  0.0000
  33.  S 3 (pz)     0.0696  0.0000  0.0000  0.0000  0.0000  0.0000
  34.  S 3 (s)      0.0000  0.0000  0.0000  0.0000  0.0000  0.0000
  35.  S 3 (px)     0.0000  0.0000  0.0000  0.0000  0.0000  0.0000
  36.  S 3 (py)     0.0000  0.0000  0.0000  0.0000  0.0000  0.0000
  37.  S 3 (pz)     0.6335  0.0000  0.0000  0.0000  0.0000  0.0000
  38.  S 3 (s)      0.0000  0.0000  0.0000  0.0000  0.0000  0.0000
  39.  S 3 (px)     0.0000  0.0000  0.0000  0.0000  0.0000  0.0000
  40.  S 3 (py)     0.0000  0.0000  0.0000  0.0000  0.0000  0.0000
  41.  S 3 (pz)     1.0000  0.0000  0.0000  0.0000  0.0000  0.0000
  42.  S 3 (d5)     0.0000  1.0000  0.0000  0.0000  0.0000  0.0000
  43.  S 3 (d2)     0.0000  0.0000  1.0000  0.0000  0.0000  0.0000
  44.  S 3 (d3)     0.0000  0.0000  0.0000  1.0000  0.0000  0.0000
  45.  S 3 (d4)     0.0000  0.0000  0.0000  0.0000  1.0000  0.0000
  46.  S 3 (d1)     0.0000  0.0000  0.0000  0.0000  0.0000  1.0000


 AO bond-order matrix:

           AO          1       2       3       4       5       6       7       8
      ------------ ------- ------- ------- ------- ------- ------- ------- -------
   1.  O 1 (s)      2.0877 -0.1867  0.0000  0.0000  0.0496 -0.2768  0.0000  0.0000
   2.  O 1 (s)     -0.1867  0.5238  0.0000  0.0000 -0.1275  0.5647  0.0000  0.0000
   3.  O 1 (px)     0.0000  0.0000  0.6592  0.0000  0.0000  0.0000  0.4605  0.0000
   4.  O 1 (py)     0.0000  0.0000  0.0000  0.6592  0.0000  0.0000  0.0000  0.4605
   5.  O 1 (pz)     0.0496 -0.1275  0.0000  0.0000  0.5886 -0.2449  0.0000  0.0000
   6.  O 1 (s)     -0.2768  0.5647  0.0000  0.0000 -0.2449  0.6354  0.0000  0.0000
   7.  O 1 (px)     0.0000  0.0000  0.4605  0.0000  0.0000  0.0000  0.3287  0.0000
   8.  O 1 (py)     0.0000  0.0000  0.0000  0.4605  0.0000  0.0000  0.0000  0.3287
   9.  O 1 (pz)     0.0227 -0.0827  0.0000  0.0000  0.3088 -0.1429  0.0000  0.0000
  10.  O 1 (d5)    -0.0001 -0.0005  0.0000  0.0000  0.0343 -0.0069  0.0000  0.0000
  11.  O 1 (d2)     0.0000  0.0000  0.0474  0.0000  0.0000  0.0000  0.0320  0.0000
  12.  O 1 (d3)     0.0000  0.0000  0.0000  0.0474  0.0000  0.0000  0.0000  0.0320
  13.  O 1 (d4)     0.0000  0.0000  0.0000  0.0000  0.0000  0.0000  0.0000  0.0000
  14.  O 1 (d1)     0.0000  0.0000  0.0000  0.0000  0.0000  0.0000  0.0000  0.0000
  15.  C 2 (s)      0.0158 -0.0277  0.0000  0.0000 -0.1107 -0.0113  0.0000  0.0000
  16.  C 2 (s)     -0.0181  0.0301  0.0000  0.0000  0.2375 -0.0351  0.0000  0.0000
  17.  C 2 (px)     0.0000  0.0000  0.2733  0.0000  0.0000  0.0000  0.1606  0.0000
  18.  C 2 (py)     0.0000  0.0000  0.0000  0.2733  0.0000  0.0000  0.0000  0.1606
  19.  C 2 (pz)     0.0532 -0.1003  0.0000  0.0000 -0.3728 -0.0481  0.0000  0.0000
  20.  C 2 (s)      0.0254 -0.0473  0.0000  0.0000  0.0723 -0.0872  0.0000  0.0000
  21.  C 2 (px)     0.0000  0.0000  0.1069  0.0000  0.0000  0.0000  0.0561  0.0000
  22.  C 2 (py)     0.0000  0.0000  0.0000  0.1069  0.0000  0.0000  0.0000  0.0561
  23.  C 2 (pz)    -0.0296  0.0304  0.0000  0.0000  0.0216  0.0227  0.0000  0.0000
  24.  C 2 (d5)    -0.0127  0.0214  0.0000  0.0000  0.0263  0.0160  0.0000  0.0000
  25.  C 2 (d2)     0.0000  0.0000 -0.0529  0.0000  0.0000  0.0000 -0.0409  0.0000
  26.  C 2 (d3)     0.0000  0.0000  0.0000 -0.0529  0.0000  0.0000  0.0000 -0.0409
  27.  C 2 (d4)     0.0000  0.0000  0.0000  0.0000  0.0000  0.0000  0.0000  0.0000
  28.  C 2 (d1)     0.0000  0.0000  0.0000  0.0000  0.0000  0.0000  0.0000  0.0000
  29.  S 3 (s)      0.0001 -0.0014  0.0000  0.0000 -0.0033  0.0093  0.0000  0.0000
  30.  S 3 (s)      0.0004  0.0016  0.0000  0.0000  0.0113 -0.0268  0.0000  0.0000
  31.  S 3 (px)     0.0000  0.0000  0.0645  0.0000  0.0000  0.0000  0.0730  0.0000
  32.  S 3 (py)     0.0000  0.0000  0.0000  0.0645  0.0000  0.0000  0.0000  0.0730
  33.  S 3 (pz)     0.0061 -0.0142  0.0000  0.0000 -0.0417 -0.0040  0.0000  0.0000
  34.  S 3 (s)      0.0034 -0.0002  0.0000  0.0000 -0.0349  0.0386  0.0000  0.0000
  35.  S 3 (px)     0.0000  0.0000 -0.1787  0.0000  0.0000  0.0000 -0.1980  0.0000
  36.  S 3 (py)     0.0000  0.0000  0.0000 -0.1787  0.0000  0.0000  0.0000 -0.1980
  37.  S 3 (pz)    -0.0169  0.0291  0.0000  0.0000  0.1071  0.0439  0.0000  0.0000
  38.  S 3 (s)      0.0036  0.0032  0.0000  0.0000 -0.0034  0.0323  0.0000  0.0000
  39.  S 3 (px)     0.0000  0.0000 -0.1385  0.0000  0.0000  0.0000 -0.1350  0.0000
  40.  S 3 (py)     0.0000  0.0000  0.0000 -0.1385  0.0000  0.0000  0.0000 -0.1350
  41.  S 3 (pz)    -0.0048  0.0048  0.0000  0.0000  0.0395  0.0026  0.0000  0.0000
  42.  S 3 (d5)     0.0032 -0.0055  0.0000  0.0000 -0.0140 -0.0076  0.0000  0.0000
  43.  S 3 (d2)     0.0000  0.0000 -0.0054  0.0000  0.0000  0.0000  0.0024  0.0000
  44.  S 3 (d3)     0.0000  0.0000  0.0000 -0.0054  0.0000  0.0000  0.0000  0.0024
  45.  S 3 (d4)     0.0000  0.0000  0.0000  0.0000  0.0000  0.0000  0.0000  0.0000
  46.  S 3 (d1)     0.0000  0.0000  0.0000  0.0000  0.0000  0.0000  0.0000  0.0000

           AO          9      10      11      12      13      14      15      16
      ------------ ------- ------- ------- ------- ------- ------- ------- -------
   1.  O 1 (s)      0.0227 -0.0001  0.0000  0.0000  0.0000  0.0000  0.0158 -0.0181
   2.  O 1 (s)     -0.0827 -0.0005  0.0000  0.0000  0.0000  0.0000 -0.0277  0.0301
   3.  O 1 (px)     0.0000  0.0000  0.0474  0.0000  0.0000  0.0000  0.0000  0.0000
   4.  O 1 (py)     0.0000  0.0000  0.0000  0.0474  0.0000  0.0000  0.0000  0.0000
   5.  O 1 (pz)     0.3088  0.0343  0.0000  0.0000  0.0000  0.0000 -0.1107  0.2375
   6.  O 1 (s)     -0.1429 -0.0069  0.0000  0.0000  0.0000  0.0000 -0.0113 -0.0351
   7.  O 1 (px)     0.0000  0.0000  0.0320  0.0000  0.0000  0.0000  0.0000  0.0000
   8.  O 1 (py)     0.0000  0.0000  0.0000  0.0320  0.0000  0.0000  0.0000  0.0000
   9.  O 1 (pz)     0.1633  0.0178  0.0000  0.0000  0.0000  0.0000 -0.0576  0.1115
  10.  O 1 (d5)     0.0178  0.0021  0.0000  0.0000  0.0000  0.0000 -0.0078  0.0134
  11.  O 1 (d2)     0.0000  0.0000  0.0036  0.0000  0.0000  0.0000  0.0000  0.0000
  12.  O 1 (d3)     0.0000  0.0000  0.0000  0.0036  0.0000  0.0000  0.0000  0.0000
  13.  O 1 (d4)     0.0000  0.0000  0.0000  0.0000  0.0000  0.0000  0.0000  0.0000
  14.  O 1 (d1)     0.0000  0.0000  0.0000  0.0000  0.0000  0.0000  0.0000  0.0000
  15.  C 2 (s)     -0.0576 -0.0078  0.0000  0.0000  0.0000  0.0000  2.0681 -0.1272
  16.  C 2 (s)      0.1115  0.0134  0.0000  0.0000  0.0000  0.0000 -0.1272  0.3762
  17.  C 2 (px)     0.0000  0.0000  0.0243  0.0000  0.0000  0.0000  0.0000  0.0000
  18.  C 2 (py)     0.0000  0.0000  0.0000  0.0243  0.0000  0.0000  0.0000  0.0000
  19.  C 2 (pz)    -0.1980 -0.0255  0.0000  0.0000  0.0000  0.0000 -0.0132  0.0371
  20.  C 2 (s)      0.0266  0.0023  0.0000  0.0000  0.0000  0.0000 -0.1397  0.2745
  21.  C 2 (px)     0.0000  0.0000  0.0105  0.0000  0.0000  0.0000  0.0000  0.0000
  22.  C 2 (py)     0.0000  0.0000  0.0000  0.0105  0.0000  0.0000  0.0000  0.0000
  23.  C 2 (pz)     0.0076  0.0014  0.0000  0.0000  0.0000  0.0000 -0.0490  0.0783
  24.  C 2 (d5)     0.0124  0.0018  0.0000  0.0000  0.0000  0.0000 -0.0123  0.0345
  25.  C 2 (d2)     0.0000  0.0000 -0.0032  0.0000  0.0000  0.0000  0.0000  0.0000
  26.  C 2 (d3)     0.0000  0.0000  0.0000 -0.0032  0.0000  0.0000  0.0000  0.0000
  27.  C 2 (d4)     0.0000  0.0000  0.0000  0.0000  0.0000  0.0000  0.0000  0.0000
  28.  C 2 (d1)     0.0000  0.0000  0.0000  0.0000  0.0000  0.0000  0.0000  0.0000
  29.  S 3 (s)      0.0013 -0.0005  0.0000  0.0000  0.0000  0.0000 -0.0034  0.0058
  30.  S 3 (s)     -0.0039  0.0009  0.0000  0.0000  0.0000  0.0000  0.0156 -0.0269
  31.  S 3 (px)     0.0000  0.0000  0.0003  0.0000  0.0000  0.0000  0.0000  0.0000
  32.  S 3 (py)     0.0000  0.0000  0.0000  0.0003  0.0000  0.0000  0.0000  0.0000
  33.  S 3 (pz)    -0.0257 -0.0036  0.0000  0.0000  0.0000  0.0000 -0.0485  0.1087
  34.  S 3 (s)     -0.0020 -0.0025  0.0000  0.0000  0.0000  0.0000 -0.0207  0.0312
  35.  S 3 (px)     0.0000  0.0000 -0.0017  0.0000  0.0000  0.0000  0.0000  0.0000
  36.  S 3 (py)     0.0000  0.0000  0.0000 -0.0017  0.0000  0.0000  0.0000  0.0000
  37.  S 3 (pz)     0.0718  0.0088  0.0000  0.0000  0.0000  0.0000  0.1151 -0.2564
  38.  S 3 (s)      0.0125  0.0005  0.0000  0.0000  0.0000  0.0000  0.0631 -0.1225
  39.  S 3 (px)     0.0000  0.0000 -0.0041  0.0000  0.0000  0.0000  0.0000  0.0000
  40.  S 3 (py)     0.0000  0.0000  0.0000 -0.0041  0.0000  0.0000  0.0000  0.0000
  41.  S 3 (pz)     0.0229  0.0027  0.0000  0.0000  0.0000  0.0000 -0.0014 -0.0122
  42.  S 3 (d5)    -0.0094 -0.0012  0.0000  0.0000  0.0000  0.0000 -0.0221  0.0454
  43.  S 3 (d2)     0.0000  0.0000 -0.0013  0.0000  0.0000  0.0000  0.0000  0.0000
  44.  S 3 (d3)     0.0000  0.0000  0.0000 -0.0013  0.0000  0.0000  0.0000  0.0000
  45.  S 3 (d4)     0.0000  0.0000  0.0000  0.0000  0.0000  0.0000  0.0000  0.0000
  46.  S 3 (d1)     0.0000  0.0000  0.0000  0.0000  0.0000  0.0000  0.0000  0.0000

           AO         17      18      19      20      21      22      23      24
      ------------ ------- ------- ------- ------- ------- ------- ------- -------
   1.  O 1 (s)      0.0000  0.0000  0.0532  0.0254  0.0000  0.0000 -0.0296 -0.0127
   2.  O 1 (s)      0.0000  0.0000 -0.1003 -0.0473  0.0000  0.0000  0.0304  0.0214
   3.  O 1 (px)     0.2733  0.0000  0.0000  0.0000  0.1069  0.0000  0.0000  0.0000
   4.  O 1 (py)     0.0000  0.2733  0.0000  0.0000  0.0000  0.1069  0.0000  0.0000
   5.  O 1 (pz)     0.0000  0.0000 -0.3728  0.0723  0.0000  0.0000  0.0216  0.0263
   6.  O 1 (s)      0.0000  0.0000 -0.0481 -0.0872  0.0000  0.0000  0.0227  0.0160
   7.  O 1 (px)     0.1606  0.0000  0.0000  0.0000  0.0561  0.0000  0.0000  0.0000
   8.  O 1 (py)     0.0000  0.1606  0.0000  0.0000  0.0000  0.0561  0.0000  0.0000
   9.  O 1 (pz)     0.0000  0.0000 -0.1980  0.0266  0.0000  0.0000  0.0076  0.0124
  10.  O 1 (d5)     0.0000  0.0000 -0.0255  0.0023  0.0000  0.0000  0.0014  0.0018
  11.  O 1 (d2)     0.0243  0.0000  0.0000  0.0000  0.0105  0.0000  0.0000  0.0000
  12.  O 1 (d3)     0.0000  0.0243  0.0000  0.0000  0.0000  0.0105  0.0000  0.0000
  13.  O 1 (d4)     0.0000  0.0000  0.0000  0.0000  0.0000  0.0000  0.0000  0.0000
  14.  O 1 (d1)     0.0000  0.0000  0.0000  0.0000  0.0000  0.0000  0.0000  0.0000
  15.  C 2 (s)      0.0000  0.0000 -0.0132 -0.1397  0.0000  0.0000 -0.0490 -0.0123
  16.  C 2 (s)      0.0000  0.0000  0.0371  0.2745  0.0000  0.0000  0.0783  0.0345
  17.  C 2 (px)     0.2444  0.0000  0.0000  0.0000  0.1248  0.0000  0.0000  0.0000
  18.  C 2 (py)     0.0000  0.2444  0.0000  0.0000  0.0000  0.1248  0.0000  0.0000
  19.  C 2 (pz)     0.0000  0.0000  0.4809  0.1676  0.0000  0.0000  0.0254 -0.0106
  20.  C 2 (s)      0.0000  0.0000  0.1676  0.2688  0.0000  0.0000  0.0633  0.0183
  21.  C 2 (px)     0.1248  0.0000  0.0000  0.0000  0.0667  0.0000  0.0000  0.0000
  22.  C 2 (py)     0.0000  0.1248  0.0000  0.0000  0.0000  0.0667  0.0000  0.0000
  23.  C 2 (pz)     0.0000  0.0000  0.0254  0.0633  0.0000  0.0000  0.0195  0.0074
  24.  C 2 (d5)     0.0000  0.0000 -0.0106  0.0183  0.0000  0.0000  0.0074  0.0042
  25.  C 2 (d2)    -0.0049  0.0000  0.0000  0.0000  0.0019  0.0000  0.0000  0.0000
  26.  C 2 (d3)     0.0000 -0.0049  0.0000  0.0000  0.0000  0.0019  0.0000  0.0000
  27.  C 2 (d4)     0.0000  0.0000  0.0000  0.0000  0.0000  0.0000  0.0000  0.0000
  28.  C 2 (d1)     0.0000  0.0000  0.0000  0.0000  0.0000  0.0000  0.0000  0.0000
  29.  S 3 (s)      0.0000  0.0000  0.0115 -0.0087  0.0000  0.0000  0.0065  0.0026
  30.  S 3 (s)      0.0000  0.0000 -0.0475  0.0428  0.0000  0.0000 -0.0097 -0.0072
  31.  S 3 (px)    -0.0933  0.0000  0.0000  0.0000 -0.0622  0.0000  0.0000  0.0000
  32.  S 3 (py)     0.0000 -0.0933  0.0000  0.0000  0.0000 -0.0622  0.0000  0.0000
  33.  S 3 (pz)     0.0000  0.0000  0.1398  0.1389  0.0000  0.0000  0.0505  0.0053
  34.  S 3 (s)      0.0000  0.0000  0.0878 -0.1066  0.0000  0.0000 -0.0078  0.0113
  35.  S 3 (px)     0.2427  0.0000  0.0000  0.0000  0.1655  0.0000  0.0000  0.0000
  36.  S 3 (py)     0.0000  0.2427  0.0000  0.0000  0.0000  0.1655  0.0000  0.0000
  37.  S 3 (pz)     0.0000  0.0000 -0.3322 -0.3225  0.0000  0.0000 -0.0708 -0.0119
  38.  S 3 (s)      0.0000  0.0000 -0.0851 -0.1941  0.0000  0.0000 -0.0385 -0.0036
  39.  S 3 (px)     0.1080  0.0000  0.0000  0.0000  0.0791  0.0000  0.0000  0.0000
  40.  S 3 (py)     0.0000  0.1080  0.0000  0.0000  0.0000  0.0791  0.0000  0.0000
  41.  S 3 (pz)     0.0000  0.0000 -0.0526 -0.0363  0.0000  0.0000 -0.0062  0.0011
  42.  S 3 (d5)     0.0000  0.0000  0.0546  0.0505  0.0000  0.0000  0.0117  0.0026
  43.  S 3 (d2)    -0.0291  0.0000  0.0000  0.0000 -0.0174  0.0000  0.0000  0.0000
  44.  S 3 (d3)     0.0000 -0.0291  0.0000  0.0000  0.0000 -0.0174  0.0000  0.0000
  45.  S 3 (d4)     0.0000  0.0000  0.0000  0.0000  0.0000  0.0000  0.0000  0.0000
  46.  S 3 (d1)     0.0000  0.0000  0.0000  0.0000  0.0000  0.0000  0.0000  0.0000

           AO         25      26      27      28      29      30      31      32
      ------------ ------- ------- ------- ------- ------- ------- ------- -------
   1.  O 1 (s)      0.0000  0.0000  0.0000  0.0000  0.0001  0.0004  0.0000  0.0000
   2.  O 1 (s)      0.0000  0.0000  0.0000  0.0000 -0.0014  0.0016  0.0000  0.0000
   3.  O 1 (px)    -0.0529  0.0000  0.0000  0.0000  0.0000  0.0000  0.0645  0.0000
   4.  O 1 (py)     0.0000 -0.0529  0.0000  0.0000  0.0000  0.0000  0.0000  0.0645
   5.  O 1 (pz)     0.0000  0.0000  0.0000  0.0000 -0.0033  0.0113  0.0000  0.0000
   6.  O 1 (s)      0.0000  0.0000  0.0000  0.0000  0.0093 -0.0268  0.0000  0.0000
   7.  O 1 (px)    -0.0409  0.0000  0.0000  0.0000  0.0000  0.0000  0.0730  0.0000
   8.  O 1 (py)     0.0000 -0.0409  0.0000  0.0000  0.0000  0.0000  0.0000  0.0730
   9.  O 1 (pz)     0.0000  0.0000  0.0000  0.0000  0.0013 -0.0039  0.0000  0.0000
  10.  O 1 (d5)     0.0000  0.0000  0.0000  0.0000 -0.0005  0.0009  0.0000  0.0000
  11.  O 1 (d2)    -0.0032  0.0000  0.0000  0.0000  0.0000  0.0000  0.0003  0.0000
  12.  O 1 (d3)     0.0000 -0.0032  0.0000  0.0000  0.0000  0.0000  0.0000  0.0003
  13.  O 1 (d4)     0.0000  0.0000  0.0000  0.0000  0.0000  0.0000  0.0000  0.0000
  14.  O 1 (d1)     0.0000  0.0000  0.0000  0.0000  0.0000  0.0000  0.0000  0.0000
  15.  C 2 (s)      0.0000  0.0000  0.0000  0.0000 -0.0034  0.0156  0.0000  0.0000
  16.  C 2 (s)      0.0000  0.0000  0.0000  0.0000  0.0058 -0.0269  0.0000  0.0000
  17.  C 2 (px)    -0.0049  0.0000  0.0000  0.0000  0.0000  0.0000 -0.0933  0.0000
  18.  C 2 (py)     0.0000 -0.0049  0.0000  0.0000  0.0000  0.0000  0.0000 -0.0933
  19.  C 2 (pz)     0.0000  0.0000  0.0000  0.0000  0.0115 -0.0475  0.0000  0.0000
  20.  C 2 (s)      0.0000  0.0000  0.0000  0.0000 -0.0087  0.0428  0.0000  0.0000
  21.  C 2 (px)     0.0019  0.0000  0.0000  0.0000  0.0000  0.0000 -0.0622  0.0000
  22.  C 2 (py)     0.0000  0.0019  0.0000  0.0000  0.0000  0.0000  0.0000 -0.0622
  23.  C 2 (pz)     0.0000  0.0000  0.0000  0.0000  0.0065 -0.0097  0.0000  0.0000
  24.  C 2 (d5)     0.0000  0.0000  0.0000  0.0000  0.0026 -0.0072  0.0000  0.0000
  25.  C 2 (d2)     0.0064  0.0000  0.0000  0.0000  0.0000  0.0000 -0.0215  0.0000
  26.  C 2 (d3)     0.0000  0.0064  0.0000  0.0000  0.0000  0.0000  0.0000 -0.0215
  27.  C 2 (d4)     0.0000  0.0000  0.0000  0.0000  0.0000  0.0000  0.0000  0.0000
  28.  C 2 (d1)     0.0000  0.0000  0.0000  0.0000  0.0000  0.0000  0.0000  0.0000
  29.  S 3 (s)      0.0000  0.0000  0.0000  0.0000  2.1571 -0.6100  0.0000  0.0000
  30.  S 3 (s)      0.0000  0.0000  0.0000  0.0000 -0.6100  2.3737  0.0000  0.0000
  31.  S 3 (px)    -0.0215  0.0000  0.0000  0.0000  0.0000  0.0000  2.0901  0.0000
  32.  S 3 (py)     0.0000 -0.0215  0.0000  0.0000  0.0000  0.0000  0.0000  2.0901
  33.  S 3 (pz)     0.0000  0.0000  0.0000  0.0000 -0.0081  0.0364  0.0000  0.0000
  34.  S 3 (s)      0.0000  0.0000  0.0000  0.0000  0.0890 -0.4641  0.0000  0.0000
  35.  S 3 (px)     0.0554  0.0000  0.0000  0.0000  0.0000  0.0000 -0.2645  0.0000
  36.  S 3 (py)     0.0000  0.0554  0.0000  0.0000  0.0000  0.0000  0.0000 -0.2645
  37.  S 3 (pz)     0.0000  0.0000  0.0000  0.0000  0.0242 -0.1066  0.0000  0.0000
  38.  S 3 (s)      0.0000  0.0000  0.0000  0.0000  0.0579 -0.2601  0.0000  0.0000
  39.  S 3 (px)     0.0326  0.0000  0.0000  0.0000  0.0000  0.0000 -0.1746  0.0000
  40.  S 3 (py)     0.0000  0.0326  0.0000  0.0000  0.0000  0.0000  0.0000 -0.1746
[...]
                                         0.0000  0.0000 -0.0257
  10. (1.62623) LP ( 2) S  3            s(  0.00%)p 1.00( 99.65%)d 0.00(  0.35%)
                                         0.0000  0.0000  0.0000  0.0000  0.0000
                                         0.9974  0.0217  0.0000  0.0360  0.0008
                                         0.0000  0.0000  0.0000  0.0000 -0.0593
                                        -0.0021  0.0000  0.0000
  11. (1.62623) LP ( 3) S  3            s(  0.00%)p 1.00( 99.65%)d 0.00(  0.35%)
                                         0.0000  0.0000  0.0000  0.0000  0.0000
                                        -0.0360 -0.0008  0.0000  0.9974  0.0217
                                         0.0000  0.0000  0.0000  0.0000  0.0021
                                        -0.0593  0.0000  0.0000
  12. (1.99946) BD ( 1) O  1- C  2
               ( 66.52%)   0.8156* O  1 s( 43.21%)p 1.30( 56.26%)d 0.01(  0.53%)
                                         0.0000  0.6569  0.0227  0.0000  0.0000
                                         0.0000  0.0000  0.7499 -0.0147  0.0000
                                         0.0000  0.0000  0.0000  0.0731
               ( 33.48%)   0.5786* C  2 s( 41.79%)p 1.39( 57.91%)d 0.01(  0.30%)
                                         0.0000  0.6440  0.0563  0.0000  0.0000
                                         0.0000  0.0000 -0.7563 -0.0843  0.0000
                                         0.0000  0.0000  0.0000  0.0551
  13. (1.99879) BD ( 2) O  1- C  2
               ( 76.58%)   0.8751* O  1 s(  0.00%)p 1.00( 99.57%)d 0.00(  0.43%)
                                         0.0000  0.0000  0.0000  0.9355 -0.0019
                                         0.3471 -0.0007  0.0000  0.0000  0.0000
                                         0.0614  0.0228  0.0000  0.0000
               ( 23.42%)   0.4839* C  2 s(  0.00%)p 1.00( 99.49%)d 0.01(  0.51%)
                                         0.0000  0.0000  0.0000  0.9351  0.0110
                                         0.3469  0.0041  0.0000  0.0000  0.0000
                                        -0.0670 -0.0248  0.0000  0.0000
  14. (1.99879) BD ( 3) O  1- C  2
               ( 76.58%)   0.8751* O  1 s(  0.00%)p 1.00( 99.57%)d 0.00(  0.43%)
                                         0.0000  0.0000  0.0000 -0.3471  0.0007
                                         0.9355 -0.0019  0.0000  0.0000  0.0000
                                        -0.0228  0.0614  0.0000  0.0000
               ( 23.42%)   0.4839* C  2 s(  0.00%)p 1.00( 99.49%)d 0.01(  0.51%)
                                         0.0000  0.0000  0.0000 -0.3469 -0.0041
                                         0.9351  0.0110  0.0000  0.0000  0.0000
                                         0.0248 -0.0670  0.0000  0.0000
  15. (1.99839) BD ( 1) C  2- S  3
               ( 59.51%)   0.7715* C  2 s( 57.87%)p 0.72( 41.92%)d 0.00(  0.21%)
                                         0.0000  0.7602 -0.0267  0.0000  0.0000
                                         0.0000  0.0000  0.6473  0.0124  0.0000
                                         0.0000  0.0000  0.0000  0.0459
               ( 40.49%)   0.6363* S  3 s( 19.31%)p 4.11( 79.39%)d 0.07(  1.30%)
                                         0.0000  0.0000  0.4293 -0.0937  0.0000
                                         0.0000  0.0000  0.0000  0.0000  0.0000
                                         0.0000 -0.8876  0.0778  0.0000  0.0000
                                         0.0000  0.0000  0.1141
 ---------------- non-Lewis ----------------------------------------------------
  16. (0.01209) BD*( 1) O  1- C  2
               ( 33.48%)   0.5786* O  1 s( 43.21%)p 1.30( 56.26%)d 0.01(  0.53%)
                                         0.0000 -0.6569 -0.0227  0.0000  0.0000
                                         0.0000  0.0000 -0.7499  0.0147  0.0000
                                         0.0000  0.0000  0.0000 -0.0731
               ( 66.52%)  -0.8156* C  2 s( 41.79%)p 1.39( 57.91%)d 0.01(  0.30%)
                                         0.0000 -0.6440 -0.0563  0.0000  0.0000
                                         0.0000  0.0000  0.7563  0.0843  0.0000
                                         0.0000  0.0000  0.0000 -0.0551
  17. (0.35745) BD*( 2) O  1- C  2
               ( 23.42%)   0.4839* O  1 s(  0.00%)p 1.00( 99.57%)d 0.00(  0.43%)
                                         0.0000  0.0000  0.0000 -0.9355  0.0019
                                        -0.3471  0.0007  0.0000  0.0000  0.0000
                                        -0.0614 -0.0228  0.0000  0.0000
               ( 76.58%)  -0.8751* C  2 s(  0.00%)p 1.00( 99.49%)d 0.01(  0.51%)
                                         0.0000  0.0000  0.0000 -0.9351 -0.0110
                                        -0.3469 -0.0041  0.0000  0.0000  0.0000
                                         0.0670  0.0248  0.0000  0.0000
  18. (0.35745) BD*( 3) O  1- C  2
               ( 23.42%)   0.4839* O  1 s(  0.00%)p 1.00( 99.57%)d 0.00(  0.43%)
                                         0.0000  0.0000  0.0000  0.3471 -0.0007
                                        -0.9355  0.0019  0.0000  0.0000  0.0000
                                         0.0228 -0.0614  0.0000  0.0000
               ( 76.58%)  -0.8751* C  2 s(  0.00%)p 1.00( 99.49%)d 0.01(  0.51%)
                                         0.0000  0.0000  0.0000  0.3469  0.0041
                                        -0.9351 -0.0110  0.0000  0.0000  0.0000
                                        -0.0248  0.0670  0.0000  0.0000
  19. (0.00913) BD*( 1) C  2- S  3
               ( 40.49%)   0.6363* C  2 s( 57.87%)p 0.72( 41.92%)d 0.00(  0.21%)
                                         0.0000  0.7602 -0.0267  0.0000  0.0000
                                         0.0000  0.0000  0.6473  0.0124  0.0000
                                         0.0000  0.0000  0.0000  0.0459
               ( 59.51%)  -0.7715* S  3 s( 19.31%)p 4.11( 79.39%)d 0.07(  1.30%)
                                         0.0000  0.0000  0.4293 -0.0937  0.0000
                                         0.0000  0.0000  0.0000  0.0000  0.0000
                                         0.0000 -0.8876  0.0778  0.0000  0.0000
                                         0.0000  0.0000  0.1141
  20. (0.00292) RY ( 1) O  1            s(  0.00%)p 1.00( 99.97%)d 0.00(  0.03%)
                                         0.0000  0.0000  0.0000  0.0000 -0.0454
                                         0.0009  0.9988  0.0000  0.0000  0.0000
                                        -0.0008  0.0173  0.0000  0.0000
  21. (0.00292) RY ( 2) O  1            s(  0.00%)p 1.00( 99.97%)d 0.00(  0.03%)
                                         0.0000  0.0000  0.0000  0.0009  0.9988
                                         0.0000  0.0454  0.0000  0.0000  0.0000
                                         0.0173  0.0008  0.0000  0.0000
  22. (0.00115) RY ( 3) O  1            s( 93.99%)p 0.01(  0.87%)d 0.05(  5.14%)
                                         0.0000 -0.0109  0.9694  0.0000  0.0000
                                         0.0000  0.0000 -0.0434 -0.0825  0.0000
                                         0.0000  0.0000  0.0000  0.2268
  23. (0.00001) RY ( 4) O  1            s(  0.17%)p99.99( 96.52%)d19.60(  3.31%)
  24. (0.00000) RY ( 5) O  1            s(  5.84%)p 0.56(  3.25%)d15.57( 90.91%)
  25. (0.00000) RY ( 6) O  1            s(  0.00%)p 0.00(  0.00%)d 1.00(100.00%)
  26. (0.00000) RY ( 7) O  1            s(  0.00%)p 0.00(  0.00%)d 1.00(100.00%)
  27. (0.00000) RY ( 8) O  1            s(  0.00%)p 1.00(  0.46%)d99.99( 99.54%)
  28. (0.00000) RY ( 9) O  1            s(  0.00%)p 1.00(  0.46%)d99.99( 99.54%)
  29. (0.02046) RY ( 1) C  2            s(  6.05%)p15.52( 93.95%)d 0.00(  0.00%)
                                         0.0000 -0.0479  0.2414  0.0000  0.0000
                                         0.0000  0.0000  0.0848 -0.9655  0.0000
                                         0.0000  0.0000  0.0000 -0.0004
  30. (0.01341) RY ( 2) C  2            s(  0.00%)p 1.00( 25.39%)d 2.94( 74.61%)
                                         0.0000  0.0000  0.0000  0.0528 -0.3889
                                         0.0425 -0.3132  0.0000  0.0000  0.0000
                                         0.6728  0.5417  0.0000  0.0000
  31. (0.01341) RY ( 3) C  2            s(  0.00%)p 1.00( 25.39%)d 2.94( 74.61%)
                                         0.0000  0.0000  0.0000 -0.0425  0.3132
                                         0.0528 -0.3889  0.0000  0.0000  0.0000
                                        -0.5417  0.6728  0.0000  0.0000
  32. (0.00005) RY ( 4) C  2            s( 92.34%)p 0.07(  6.15%)d 0.02(  1.51%)
  33. (0.00000) RY ( 5) C  2            s(  1.95%)p 0.04(  0.08%)d50.34( 97.98%)
  34. (0.00000) RY ( 6) C  2            s(  0.00%)p 0.00(  0.00%)d 1.00(100.00%)
  35. (0.00000) RY ( 7) C  2            s(  0.00%)p 0.00(  0.00%)d 1.00(100.00%)
  36. (0.00000) RY ( 8) C  2            s(  0.00%)p 1.00( 75.12%)d 0.33( 24.88%)
  37. (0.00000) RY ( 9) C  2            s(  0.00%)p 1.00( 75.12%)d 0.33( 24.88%)
  38. (0.00121) RY ( 1) S  3            s(  0.00%)p 1.00( 70.44%)d 0.42( 29.56%)
                                         0.0000  0.0000  0.0000  0.0000  0.0000
                                         0.0139  0.8315  0.0000  0.0019  0.1134
                                         0.0000  0.0000  0.0000  0.0000  0.5387
                                         0.0735  0.0000  0.0000
  39. (0.00121) RY ( 2) S  3            s(  0.00%)p 1.00( 70.44%)d 0.42( 29.56%)
                                         0.0000  0.0000  0.0000  0.0000  0.0000
                                        -0.0019 -0.1134  0.0000  0.0139  0.8315
                                         0.0000  0.0000  0.0000  0.0000 -0.0735
                                         0.5387  0.0000  0.0000
  40. (0.00010) RY ( 3) S  3            s(  9.18%)p 9.64( 88.44%)d 0.26(  2.38%)
  41. (0.00001) RY ( 4) S  3            s(  3.01%)p 0.71(  2.14%)d31.56( 94.86%)
  42. (0.00000) RY ( 5) S  3            s( 87.07%)p 0.13( 11.54%)d 0.02(  1.39%)
  43. (0.00000) RY ( 6) S  3            s(  0.00%)p 0.00(  0.00%)d 1.00(100.00%)
  44. (0.00000) RY ( 7) S  3            s(  0.00%)p 1.00( 29.91%)d 2.34( 70.09%)
  45. (0.00000) RY ( 8) S  3            s(  0.00%)p 1.00( 29.91%)d 2.34( 70.09%)
  46. (0.00000) RY ( 9) S  3            s(  0.00%)p 0.00(  0.00%)d 1.00(100.00%)


 NHO DIRECTIONALITY AND BOND BENDING (deviation from line of nuclear centers at
                                      the position of maximum hybrid amplitude)

         [Thresholds for printing:  angular deviation  >  1.0 degree]
                                    p- or d-character  > 25.0%
                                    orbital occupancy  >  0.10e

                        Line of Centers        Hybrid 1             Hybrid 2
                        ---------------  -------------------  ------------------
           NBO            Theta   Phi    Theta   Phi    Dev   Theta   Phi    Dev
 ===============================================================================
   8. LP ( 1) O  1          --     --    180.0    0.0   --      --     --    --
  10. LP ( 2) S  3          --     --     97.9    2.1   --      --     --    --
  11. LP ( 3) S  3          --     --     97.9  272.1   --      --     --    --
  13. BD ( 2) O  1- C  2    0.0    0.0    89.2  200.4  89.2    92.8  200.4  87.2
  14. BD ( 3) O  1- C  2    0.0    0.0    89.2  290.4  89.2    92.8  290.4  87.2


 3-Center, 4-Electron A:-B-:C Hyperbonds (A-B :C <=> A: B-C)
              [threshold for detection: 33.3%]

                                                  NBOs       3-center hybrids
                                              -------------  ----------------
       Hyperbond A:-B-:C   %A-B/%B-C   occ    BD(A-B) LP(C)  h(A)  h(B)  h(C)
      -------------------  ---------  ------  ------- -----  ----  ----  ----
   1.  O  1:- C  2-: S  3  53.5/46.5  3.9825      13     10    14    15    10
   2.  O  1:- C  2-: S  3  53.5/46.5  3.9825      14     11    16    17    11


 SECOND ORDER PERTURBATION THEORY ANALYSIS OF FOCK MATRIX IN NBO BASIS

     Threshold for printing:   0.50 kcal/mol
                                                          E(2) E(NL)-E(L) F(L,NL)
      Donor (L) NBO              Acceptor (NL) NBO      kcal/mol   a.u.    a.u.
 ===============================================================================

 within unit  1
    8. LP ( 1) O  1            19. BD*( 1) C  2- S  3      9.13    1.46   0.103
    8. LP ( 1) O  1            29. RY ( 1) C  2           14.45    1.61   0.136
    9. LP ( 1) S  3            16. BD*( 1) O  1- C  2     11.70    1.71   0.126
    9. LP ( 1) S  3            29. RY ( 1) C  2            4.76    1.49   0.075
    9. LP ( 1) S  3            32. RY ( 4) C  2            0.85    1.70   0.034
   10. LP ( 2) S  3            17. BD*( 2) O  1- C  2    130.28    0.42   0.209
   10. LP ( 2) S  3            18. BD*( 3) O  1- C  2     14.23    0.42   0.069
   10. LP ( 2) S  3            30. RY ( 2) C  2            2.81    2.28   0.071
   10. LP ( 2) S  3            31. RY ( 3) C  2            1.57    2.28   0.053
   10. LP ( 2) S  3            37. RY ( 9) C  2            2.67    1.44   0.055
   10. LP ( 2) S  3            38. RY ( 1) S  3            4.43    0.97   0.058
   10. LP ( 2) S  3            45. RY ( 8) S  3            1.39    1.35   0.039
   11. LP ( 3) S  3            17. BD*( 2) O  1- C  2     14.23    0.42   0.069
   11. LP ( 3) S  3            18. BD*( 3) O  1- C  2    130.28    0.42   0.209
   11. LP ( 3) S  3            30. RY ( 2) C  2            1.57    2.28   0.053
   11. LP ( 3) S  3            31. RY ( 3) C  2            2.81    2.28   0.071
   11. LP ( 3) S  3            36. RY ( 8) C  2            2.67    1.44   0.055
   11. LP ( 3) S  3            39. RY ( 2) S  3            4.43    0.97   0.058
   11. LP ( 3) S  3            44. RY ( 7) S  3            1.39    1.35   0.039
   12. BD ( 1) O  1- C  2      19. BD*( 1) C  2- S  3      1.61    1.93   0.050
   13. BD ( 2) O  1- C  2      17. BD*( 2) O  1- C  2      0.84    0.73   0.022
   13. BD ( 2) O  1- C  2      38. RY ( 1) S  3            0.92    1.28   0.031
   14. BD ( 3) O  1- C  2      18. BD*( 3) O  1- C  2      0.84    0.73   0.022
   14. BD ( 3) O  1- C  2      39. RY ( 2) S  3            0.92    1.28   0.031
   15. BD ( 1) C  2- S  3      16. BD*( 1) O  1- C  2      1.00    1.93   0.039
   15. BD ( 1) C  2- S  3      22. RY ( 3) O  1            1.85    2.94   0.066


 NATURAL BOND ORBITALS (Summary):

                                                     Principal Delocalizations
           NBO                 Occupancy    Energy   (geminal,vicinal,remote)
 ===============================================================================
 Molecular unit  1  (COS)
 ------ Lewis --------------------------------------
    1. CR ( 1) O  1             1.99999   -20.66909
    2. CR ( 1) C  2             1.99999   -11.45277
    3. CR ( 1) S  3             2.00000   -83.56465
    4. CR ( 2) S  3             2.00000   -17.41155
    5. CR ( 3) S  3             2.00000    -6.67564
    6. CR ( 4) S  3             2.00000    -6.67564
    7. CR ( 5) S  3             1.99999    -6.67978
    8. LP ( 1) O  1             1.97774    -0.88322  29(v),19(v)
    9. LP ( 1) S  3             1.98144    -0.75746  16(v),29(v),32(v)
   10. LP ( 2) S  3             1.62623    -0.32391  17(v),18(v),38(g),30(v)
                                                     37(v),31(v),45(g)
   11. LP ( 3) S  3             1.62623    -0.32391  18(v),17(v),39(g),31(v)
                                                     36(v),30(v),44(g)
   12. BD ( 1) O  1- C  2       1.99946    -1.35247  19(g)
   13. BD ( 2) O  1- C  2       1.99879    -0.63508  38(v),17(g)
   14. BD ( 3) O  1- C  2       1.99879    -0.63508  39(v),18(g)
   15. BD ( 1) C  2- S  3       1.99839    -0.97732  22(v),16(g)
 ------ non-Lewis ----------------------------------
   16. BD*( 1) O  1- C  2       0.01209     0.94768
   17. BD*( 2) O  1- C  2       0.35745     0.09849
   18. BD*( 3) O  1- C  2       0.35745     0.09849
   19. BD*( 1) C  2- S  3       0.00913     0.57669
   20. RY ( 1) O  1             0.00292     1.23355
   21. RY ( 2) O  1             0.00292     1.23355
   22. RY ( 3) O  1             0.00115     1.96236
   23. RY ( 4) O  1             0.00001     1.40646
   24. RY ( 5) O  1             0.00000     2.84860
   25. RY ( 6) O  1             0.00000     2.03185
   26. RY ( 7) O  1             0.00000     2.03185
   27. RY ( 8) O  1             0.00000     2.25202
   28. RY ( 9) O  1             0.00000     2.25202
   29. RY ( 1) C  2             0.02046     0.73139
   30. RY ( 2) C  2             0.01341     1.95487
   31. RY ( 3) C  2             0.01341     1.95487
   32. RY ( 4) C  2             0.00005     0.94238
   33. RY ( 5) C  2             0.00000     2.94998
   34. RY ( 6) C  2             0.00000     1.89334
   35. RY ( 7) C  2             0.00000     1.89334
   36. RY ( 8) C  2             0.00000     1.11729
   37. RY ( 9) C  2             0.00000     1.11729
   38. RY ( 1) S  3             0.00121     0.64392
   39. RY ( 2) S  3             0.00121     0.64392
   40. RY ( 3) S  3             0.00010     0.45957
   41. RY ( 4) S  3             0.00001     1.43092
   42. RY ( 5) S  3             0.00000     0.50101
   43. RY ( 6) S  3             0.00000     1.01552
   44. RY ( 7) S  3             0.00000     1.02134
   45. RY ( 8) S  3             0.00000     1.02134
   46. RY ( 9) S  3             0.00000     1.01552
          -------------------------------
                 Total Lewis   29.20703  ( 97.3568%)
           Valence non-Lewis    0.73612  (  2.4537%)
           Rydberg non-Lewis    0.05685  (  0.1895%)
          -------------------------------
               Total unit  1   30.00000  (100.0000%)
              Charge unit  1    0.00000

 $CHOOSE
   LONE 1 1 3 3 END
   BOND T 1 2 S 2 3 END
 $END

 NBO analysis completed in 0.87 CPU seconds (1 wall second)
 Maximum scratch memory used by NBO was 370704 words (2.83 MB)
 Maximum scratch memory used by G16NBO was 11585 words (0.09 MB)

 Opening RunExU unformatted file "/cluster/work/users/beto93/mol61/Gau-980978.EUF"
 Read unf file /cluster/work/users/beto93/mol61/Gau-980978.EUF:
 Label Gaussian matrix elements                                         IVers= 2 NLab= 2 Version=ES64L-G16RevC.01
 Title mol61-NBO                                                       
 NAtoms=     3 NBasis=    46 NBsUse=    46 ICharg=     0 Multip=     1 NE=    30 Len12L=8 Len4L=8 IOpCl= 0 ICGU=111
 GAUSSIAN SCALARS                    NI= 1 NR= 1 NTot=       1 LenBuf=    2 NRI=1 N=    1000
 NPA CHARGES                         NI= 0 NR= 1 NTot=       3 LenBuf= 4000 NRI=1 N=       3
 Recovered energy= -510.254275988     dipole=     -0.000000000000     -0.000000000000      0.259815954876
 Unable to Open any file for archive entry.
 1\1\GINC-C1-28\SP\RHF\6-31G(d)\C1O1S1\BETO93\18-Nov-2024\0\\#RHF/6-31G
 * int=nobasistransform Symmetry=None 5D 7F Pop=NBO7Read\\mol61-NBO\\0,
 1\O,0,0.,0.,-1.699243\C,0,0.,0.,-0.520492\S,0,0.,0.,1.044806\\Version=
 ES64L-G16RevC.01\HF=-510.254276\RMSD=6.875e-09\Dipole=0.,0.,0.259816\Q
 uadrupole=0.575846,0.575846,-1.1516921,0.,0.,0.\PG=Unknown\\@
 The archive entry for this job was punched.


 REFRAIN FROM ILLUSIONS, INSIST ON WORK AND NOT WORDS,
 PATIENTLY SEEK DIVINE AND SCIENTIFIC TRUTH.
 LAST WORDS OF MARIA MENDELEEVA TO HER SON DMITRI, C. 1850
 Job cpu time:       0 days  0 hours  0 minutes  8.7 seconds.
 Elapsed time:       0 days  0 hours  0 minutes  2.9 seconds.
 File lengths (MBytes):  RWF=     10 Int=      0 D2E=      0 Chk=      1 Scr=      1
 Normal termination of Gaussian 16 at Mon Nov 18 16:40:42 2024.
