 Entering Gaussian System, Link 0=g16
 Initial command:
 /cluster/software/Gaussian/g16_C.01/l1.exe "/cluster/work/users/beto93/mol41/Gau-808363.inp" -scrdir="/cluster/work/users/beto93/mol41/"
 Entering Link 1 = /cluster/software/Gaussian/g16_C.01/l1.exe PID=    808364.
  
 Copyright (c) 1988-2019, Gaussian, Inc.  All Rights Reserved.
  
 This is part of the Gaussian(R) 16 program.  It is based on
 the Gaussian(R) 09 system (copyright 2009, Gaussian, Inc.),
 the Gaussian(R) 03 system (copyright 2003, Gaussian, Inc.),
 the Gaussian(R) 98 system (copyright 1998, Gaussian, Inc.),
 the Gaussian(R) 94 system (copyright 1995, Gaussian, Inc.),
 the Gaussian 92(TM) system (copyright 1992, Gaussian, Inc.),
 the Gaussian 90(TM) system (copyright 1990, Gaussian, Inc.),
 the Gaussian 88(TM) system (copyright 1988, Gaussian, Inc.),
 the Gaussian 86(TM) system (copyright 1986, Carnegie Mellon
 University), and the Gaussian 82(TM) system (copyright 1983,
 Carnegie Mellon University). Gaussian is a federally registered
 trademark of Gaussian, Inc.
  
 This software contains proprietary and confidential information,
 including trade secrets, belonging to Gaussian, Inc.
  
 This software is provided under written license and may be
 used, copied, transmitted, or stored only in accord with that
 written license.
  
 The following legend is applicable only to US Government
 contracts under FAR:
  
                    RESTRICTED RIGHTS LEGEND
  
 Use, reproduction and disclosure by the US Government is
 subject to restrictions as set forth in subparagraphs (a)
 and (c) of the Commercial Computer Software - Restricted
 Rights clause in FAR 52.227-19.
  
 Gaussian, Inc.
 340 Quinnipiac St., Bldg. 40, Wallingford CT 06492
  
  
 ---------------------------------------------------------------
 Warning -- This program may not be used in any manner that
 competes with the business of Gaussian, Inc. or will provide
 assistance to any competitor of Gaussian, Inc.  The licensee
 of this program is prohibited from giving any competitor of
 Gaussian, Inc. access to this program.  By using this program,
 the user acknowledges that Gaussian, Inc. is engaged in the
 business of creating and licensing software in the field of
 computational chemistry and represents and warrants to the
 licensee that it is not a competitor of Gaussian, Inc. and that
 it will not use this program in any manner prohibited above.
 ---------------------------------------------------------------
  

 Cite this work as:
 Gaussian 16, Revision C.01,
 M. J. Frisch, G. W. Trucks, H. B. Schlegel, G. E. Scuseria, 
 M. A. Robb, J. R. Cheeseman, G. Scalmani, V. Barone, 
 G. A. Petersson, H. Nakatsuji, X. Li, M. Caricato, A. V. Marenich, 
 J. Bloino, B. G. Janesko, R. Gomperts, B. Mennucci, H. P. Hratchian, 
 J. V. Ortiz, A. F. Izmaylov, J. L. Sonnenberg, D. Williams-Young, 
 F. Ding, F. Lipparini, F. Egidi, J. Goings, B. Peng, A. Petrone, 
 T. Henderson, D. Ranasinghe, V. G. Zakrzewski, J. Gao, N. Rega, 
 G. Zheng, W. Liang, M. Hada, M. Ehara, K. Toyota, R. Fukuda, 
 J. Hasegawa, M. Ishida, T. Nakajima, Y. Honda, O. Kitao, H. Nakai, 
 T. Vreven, K. Throssell, J. A. Montgomery, Jr., J. E. Peralta, 
 F. Ogliaro, M. J. Bearpark, J. J. Heyd, E. N. Brothers, K. N. Kudin, 
 V. N. Staroverov, T. A. Keith, R. Kobayashi, J. Normand, 
 K. Raghavachari, A. P. Rendell, J. C. Burant, S. S. Iyengar, 
 J. Tomasi, M. Cossi, J. M. Millam, M. Klene, C. Adamo, R. Cammi, 
 J. W. Ochterski, R. L. Martin, K. Morokuma, O. Farkas, 
 J. B. Foresman, and D. J. Fox, Gaussian, Inc., Wallingford CT, 2019.
 
 ******************************************
 Gaussian 16:  ES64L-G16RevC.01  3-Jul-2019
                18-Nov-2024 
 ******************************************
 %LindaWorkers=c2-20-ib
 %NProcShared=4
 Will use up to    4 processors via shared memory.
 %mem=25GB
 %chk=mol41.chk
 SetLPE:    new flags="-opt 'Tsnet.Node.lindarsharg: ssh'  -nodelist 'c2-20-ib.saga' -env GAUSS_MDEF=3355443200 -env GAUSS_EXEDIR="/cluster/software/Gaussian/g16_C.01/bsd:/cluster/software/Gaussian/g16_C.01""
 Will use up to    1 processors via Linda.
 -----------------------------------------------------------------
 #RHF/STO-3G int=nobasistransform Symmetry=None 5D 7F Pop=NBO7Read
 -----------------------------------------------------------------
 1/38=1,163=2,172=1/1;
 2/12=2,15=3,17=6,18=5,40=1/2;
 3/6=3,8=11,11=1,25=1,30=1,60=-1,116=1/1,2,3;
 4//1;
 5/5=2,38=5/2;
 6/7=2,8=2,9=2,10=2,28=1,40=2,113=1,114=1,124=2103/1,12;
 99/5=1,9=1/99;
 ---------
 mol41-NBO
 ---------
 Symbolic Z-matrix:
 Charge =  0 Multiplicity = 1
 P                     0.        0.        0.96614 
 P                     0.        0.       -0.96614 
 
                          Input orientation:                          
 ---------------------------------------------------------------------
 Center     Atomic      Atomic             Coordinates (Angstroms)
 Number     Number       Type             X           Y           Z
 ---------------------------------------------------------------------
      1         15           0        0.000000    0.000000    0.966144
      2         15           0        0.000000    0.000000   -0.966144
 ---------------------------------------------------------------------
 Symmetry turned off by external request.
 Stoichiometry    P2
 Rotational constants (GHZ):           0.0000000           8.7399612           8.7399612
 Standard basis: STO-3G (5D, 7F)
    18 basis functions,    54 primitive gaussians,    18 cartesian basis functions
    15 alpha electrons       15 beta electrons
       nuclear repulsion energy        61.6185953942 Hartrees.
 NAtoms=    2 NActive=    2 NUniq=    2 SFac= 1.00D+00 NAtFMM=   60 NAOKFM=F Big=F
 Integral buffers will be    131072 words long.
 Raffenetti 1 integral format.
 Two-electron integral symmetry is turned off.
 One-electron integrals computed using PRISM.
 NBasis=    18 RedAO= T EigKep=  3.08D-01  NBF=    18
 NBsUse=    18 1.00D-06 EigRej= -1.00D+00 NBFU=    18
 ExpMin= 1.90D-01 ExpMax= 4.68D+02 ExpMxC= 4.68D+02 IAcc=3 IRadAn=         5 AccDes= 0.00D+00
 Harris functional with IExCor=  205 and IRadAn=       5 diagonalized for initial guess.
 HarFok:  IExCor=  205 AccDes= 0.00D+00 IRadAn=         5 IDoV= 1 UseB2=F ITyADJ=14
 ICtDFT=  3500011 ScaDFX=  1.000000  1.000000  1.000000  1.000000
 FoFCou: FMM=F IPFlag=           0 FMFlag=      100000 FMFlg1=           0
         NFxFlg=           0 DoJE=T BraDBF=F KetDBF=T FulRan=T
         wScrn=  0.000000 ICntrl=       500 IOpCl=  0 I1Cent=   200000004 NGrid=           0
         NMat0=    1 NMatS0=      1 NMatT0=    0 NMatD0=    1 NMtDS0=    0 NMtDT0=    0
 Symmetry not used in FoFCou.
 Keep R1 ints in memory in canonical form, NReq=818619.
 Requested convergence on RMS density matrix=1.00D-08 within 128 cycles.
 Requested convergence on MAX density matrix=1.00D-06.
 Requested convergence on             energy=1.00D-06.
 No special actions if energy rises.
 SCF Done:  E(RHF) =  -673.747791915     A.U. after    6 cycles
            NFock=  6  Conv=0.83D-09     -V/T= 2.0110

 **********************************************************************

            Population analysis using the SCF Density.

 **********************************************************************

 Alpha  occ. eigenvalues --  -78.80055 -78.80045  -7.14569  -7.14465  -4.96673
 Alpha  occ. eigenvalues --   -4.96651  -4.96613  -4.96613  -4.96484  -4.96484
 Alpha  occ. eigenvalues --   -0.78482  -0.48180  -0.24256  -0.20292  -0.20292
 Alpha virt. eigenvalues --    0.22633   0.22633   0.57964
          Condensed to atoms (all electrons):
               1          2
     1  P   14.560149   0.439851
     2  P    0.439851  14.560149
 Mulliken charges:
               1
     1  P   -0.000000
     2  P    0.000000
 Sum of Mulliken charges =   0.00000
 Mulliken charges with hydrogens summed into heavy atoms:
               1
     1  P   -0.000000
     2  P    0.000000
 Electronic spatial extent (au):  <R**2>=            148.3259
 Charge=              0.0000 electrons
 Dipole moment (field-independent basis, Debye):
    X=              0.0000    Y=              0.0000    Z=             -0.0000  Tot=              0.0000
 Quadrupole moment (field-independent basis, Debye-Ang):
   XX=            -20.4359   YY=            -20.4359   ZZ=            -24.1273
   XY=              0.0000   XZ=              0.0000   YZ=              0.0000
 Traceless Quadrupole moment (field-independent basis, Debye-Ang):
   XX=              1.2305   YY=              1.2305   ZZ=             -2.4609
   XY=              0.0000   XZ=              0.0000   YZ=              0.0000
 Octapole moment (field-independent basis, Debye-Ang**2):
  XXX=              0.0000  YYY=              0.0000  ZZZ=             -0.0000  XYY=              0.0000
  XXY=              0.0000  XXZ=              0.0000  XZZ=              0.0000  YZZ=              0.0000
  YYZ=             -0.0000  XYZ=              0.0000
 Hexadecapole moment (field-independent basis, Debye-Ang**3):
 XXXX=            -19.9400 YYYY=            -19.9400 ZZZZ=           -150.0878 XXXY=              0.0000
 XXXZ=              0.0000 YYYX=              0.0000 YYYZ=             -0.0000 ZZZX=              0.0000
 ZZZY=              0.0000 XXYY=             -6.6467 XXZZ=            -26.3622 YYZZ=            -26.3622
 XXYZ=             -0.0000 YYXZ=              0.0000 ZZXY=              0.0000
 N-N= 6.161859539416D+01 E-N=-1.729947068357D+03  KE= 6.664173376455D+02
 Running external command "gaunbo7 R"
         input file       "/cluster/work/users/beto93/mol41/Gau-808364.EIn"
         output file      "/cluster/work/users/beto93/mol41/Gau-808364.EOu"
         message file     "/cluster/work/users/beto93/mol41/Gau-808364.EMs"
         fchk file        "/cluster/work/users/beto93/mol41/Gau-808364.EFC"
         mat. el file     "/cluster/work/users/beto93/mol41/Gau-808364.EUF"

 Writing WrtUnf unformatted file "/cluster/work/users/beto93/mol41/Gau-808364.EUF"
 Gaussian matrix elements                                         Version   2 NLab=11 Len12L=8 Len4L=8
 Write SHELL TO ATOM MAP                   from file      0 offset           0 length                   6 to matrix element file.
 Write SHELL TYPES                         from file      0 offset           0 length                   6 to matrix element file.
 Write NUMBER OF PRIMITIVES PER SHELL      from file      0 offset           0 length                   6 to matrix element file.
 Write PRIMITIVE EXPONENTS                 from file      0 offset           0 length                  18 to matrix element file.
 Write CONTRACTION COEFFICIENTS            from file      0 offset           0 length                  18 to matrix element file.
 Write P(S=P) CONTRACTION COEFFICIENTS     from file      0 offset           0 length                  18 to matrix element file.
 Write COORDINATES OF EACH SHELL           from file      0 offset           0 length                  18 to matrix element file.
 Write BONDS PER ATOM                      from file      0 offset           0 length                   2 to matrix element file.
 Write BONDED ATOMS                        from file      0 offset           0 length                   2 to matrix element file.
 Write BOND TYPES                          from file      0 offset           0 length                   2 to matrix element file.
 Write ONIOM CHARGE/MULT                   from file      0 offset           0 length                  32 to matrix element file.
 Write ONIOM ATOM LAYERS                   from file      0 offset           0 length                   2 to matrix element file.
 Write ONIOM ATOM MODIFIERS                from file      0 offset           0 length                   2 to matrix element file.
 Write ONIOM ATOM TYPES                    from file      0 offset           0 length                   2 to matrix element file.
 Write ONIOM LINK ATOMS                    from file      0 offset           0 length                   2 to matrix element file.
 Write ONIOM LINK CHARGES                  from file      0 offset           0 length                   2 to matrix element file.
 Write ONIOM LINK DISTANCES                from file      0 offset           0 length                   8 to matrix element file.
 Write SYMINF INTS                         from file      0 offset           0 length                  26 to matrix element file.
 Write ROTTR TO SO                         from file      0 offset           0 length                  12 to matrix element file.
 Write GAUSSIAN SCALARS                    from file    501 offset           0 to matrix element file.
 Write OPTIMIZATION FLAGS                  from file      0 offset           0 length                   2 to matrix element file.
 Write INTEGER ISO                         from file      0 offset           0 length                   2 to matrix element file.
 Write INTEGER SPIN                        from file      0 offset           0 length                   2 to matrix element file.
 Write REAL ZEFFECTIVE                     from file      0 offset           0 length                   2 to matrix element file.
 Write REAL GFACTOR                        from file      0 offset           0 length                   2 to matrix element file.
 Write REAL ZNUCLEAR                       from file      0 offset           0 length                   2 to matrix element file.
 Write MULLIKEN CHARGES                    from file      0 offset           0 length                   2 to matrix element file.
 Write NUCLEAR GRADIENT                    from file  10584 offset           0 length                   6 to matrix element file.
 Array NUCLEAR FORCE CONSTANTS              on  file  10585 does not exist.
 Write ELECTRIC DIPOLE MOMENT              from file      0 offset           0 length                   3 to matrix element file.
 Write NON-ADIABATIC COUPLING              from file  10810 offset           0 length                   6 to matrix element file.
 Write FINITE EM FIELD                     from file  10521 offset           0 length                  35 to matrix element file.
 Write OVERLAP                             from file  10514 offset           0 length                 171 to matrix element file.
 Write CORE HAMILTONIAN ALPHA              from file  10515 offset           0 length                 171 to matrix element file.
 Write CORE HAMILTONIAN BETA               from file  10515 offset         171 length                 171 to matrix element file.
 Write KINETIC ENERGY                      from file  10516 offset           0 length                 171 to matrix element file.
 Write ORTHOGONAL BASIS                    from file  10685 offset           0 length                 324 to matrix element file.
 Write DIPOLE INTEGRALS                    from file  10518 offset           0 length                 513 to matrix element file.
 Array DIP VEL INTEGRALS                    on  file  10572 does not exist.
 Array R X DEL INTEGRALS                    on  file  10572 does not exist.
 Write ALPHA ORBITAL ENERGIES              from file      0 offset           0 length                  18 to matrix element file.
 Write ALPHA MO COEFFICIENTS               from file  10524 offset           0 length                 324 to matrix element file.
 Write ALPHA DENSITY MATRIX                from file      0 offset           0 length                 171 to matrix element file.
 Write ALPHA FOCK MATRIX                   from file  10536 offset           0 length                 171 to matrix element file.
 Write ENERGY-WEIGHTED DENSITY             from file  10571 offset           0 length                 171 to matrix element file.
 Write ALPHA SCF DENSITY MATRIX            from file      0 offset           0 length                 171 to matrix element file.
 No 2e integrals to process.
 Perform NBO analysis...executing G16NBO...

 *********************************** NBO 7.0 ***********************************
             N A T U R A L   A T O M I C   O R B I T A L   A N D
          N A T U R A L   B O N D   O R B I T A L   A N A L Y S I S
 **************************** Espen Tangen (S101595) ***************************
  (c) Copyright 1996-2021 Board of Regents of the University of Wisconsin System
      on behalf of the Theoretical Chemistry Institute.  All rights reserved.

          Cite this program [NBO 7.0.10 (8-Feb-2021)] as:

          NBO 7.0.  E. D. Glendening, J. K. Badenhoop, A. E. Reed,
          J. E. Carpenter, J. A. Bohmann, C. M. Morales, P. Karafiloglou,
          C. R. Landis, and F. Weinhold, Theoretical Chemistry Institute,
          University of Wisconsin, Madison, WI (2018)

       /NPA    / : Natural Population Analysis
       /AOPNAO / : Print the AO to PNAO transformation
       /AONAO  / : Print the AO to NAO transformation
       /AOMO   / : Print the MOs in the AO basis
       /BOAO   / : Print the AO bond-order matrix
       /DMAO   / : Print the AO density matrix
       /DMPNAO / : Print the PNAO density matrix
       /DMNAO  / : Print the NAO density matrix
       /DMMO   / : Print the MO density matrix
       /SAO    / : Print the AO overlap matrix
       /SPNAO  / : Print the PNAO overlap matrix
       /DETAIL / : Write details of NBO search
       /ARCHIVE/ : Write the archive file to lfn47
       /AOINFO / : Write AO information to lfn31
       /FILE   / : Set to mol41.gen*

 Filename set to mol41.gen1

 Job title: mol41-NBO


 MOs in the AO basis:

           AO          1       2       3       4       5       6       7       8
      ------------ ------- ------- ------- ------- ------- ------- ------- -------
   1.  P 1 (s)      0.7029  0.7029 -0.2519 -0.2523 -0.0043 -0.0038  0.0000  0.0000
   2.  P 1 (s)      0.0128  0.0127  0.7372  0.7378  0.0123  0.0119  0.0000  0.0000
   3.  P 1 (px)     0.0000  0.0000  0.0000  0.0000  0.0000  0.0000  0.5133 -0.4664
   4.  P 1 (py)     0.0000  0.0000  0.0000  0.0000  0.0000  0.0000  0.4664  0.5133
   5.  P 1 (pz)    -0.0002 -0.0001 -0.0080 -0.0095  0.6915  0.6938  0.0000  0.0000
   6.  P 1 (s)     -0.0024 -0.0015  0.0436  0.0297 -0.0204  0.0040  0.0000  0.0000
   7.  P 1 (px)     0.0000  0.0000  0.0000  0.0000  0.0000  0.0000  0.0354 -0.0322
   8.  P 1 (py)     0.0000  0.0000  0.0000  0.0000  0.0000  0.0000  0.0322  0.0354
   9.  P 1 (pz)     0.0008 -0.0001 -0.0126  0.0003  0.0625  0.0407  0.0000  0.0000
  10.  P 2 (s)     -0.7029  0.7029  0.2519 -0.2523  0.0043 -0.0038  0.0000  0.0000
  11.  P 2 (s)     -0.0128  0.0127 -0.7372  0.7378 -0.0123  0.0119  0.0000  0.0000
  12.  P 2 (px)     0.0000  0.0000  0.0000  0.0000  0.0000  0.0000 -0.5133  0.4664
  13.  P 2 (py)     0.0000  0.0000  0.0000  0.0000  0.0000  0.0000 -0.4664 -0.5133
  14.  P 2 (pz)    -0.0002  0.0001 -0.0080  0.0095  0.6915 -0.6938  0.0000  0.0000
  15.  P 2 (s)      0.0024 -0.0015 -0.0436  0.0297  0.0204  0.0040  0.0000  0.0000
  16.  P 2 (px)     0.0000  0.0000  0.0000  0.0000  0.0000  0.0000 -0.0354  0.0322
  17.  P 2 (py)     0.0000  0.0000  0.0000  0.0000  0.0000  0.0000 -0.0322 -0.0354
  18.  P 2 (pz)     0.0008  0.0001 -0.0126 -0.0003  0.0625 -0.0407  0.0000  0.0000

           AO          9      10      11      12      13      14      15      16
      ------------ ------- ------- ------- ------- ------- ------- ------- -------
   1.  P 1 (s)      0.0000  0.0000  0.0629  0.0666  0.0220  0.0000  0.0000  0.0000
   2.  P 1 (s)      0.0000  0.0000 -0.2222 -0.2259 -0.0704  0.0000  0.0000  0.0000
   3.  P 1 (px)     0.6134  0.3269  0.0000  0.0000  0.0000  0.1298 -0.1837 -0.1388
   4.  P 1 (py)    -0.3269  0.6134  0.0000  0.0000  0.0000 -0.1837 -0.1298 -0.2027
   5.  P 1 (pz)     0.0000  0.0000  0.0740 -0.0630 -0.2186  0.0000  0.0000  0.0000
   6.  P 1 (s)      0.0000  0.0000  0.5905  0.7751  0.3173  0.0000  0.0000  0.0000
   7.  P 1 (px)     0.0355  0.0189  0.0000  0.0000  0.0000 -0.3938  0.5573  0.4481
   8.  P 1 (py)    -0.0189  0.0355  0.0000  0.0000  0.0000  0.5573  0.3938  0.6543
   9.  P 1 (pz)     0.0000  0.0000 -0.1562  0.1576  0.6291  0.0000  0.0000  0.0000
  10.  P 2 (s)      0.0000  0.0000  0.0629 -0.0666  0.0220  0.0000  0.0000  0.0000
  11.  P 2 (s)      0.0000  0.0000 -0.2222  0.2259 -0.0704  0.0000  0.0000  0.0000
  12.  P 2 (px)     0.6134  0.3269  0.0000  0.0000  0.0000  0.1298 -0.1837  0.1388
  13.  P 2 (py)    -0.3269  0.6134  0.0000  0.0000  0.0000 -0.1837 -0.1298  0.2027
  14.  P 2 (pz)     0.0000  0.0000 -0.0740 -0.0630  0.2186  0.0000  0.0000  0.0000
  15.  P 2 (s)      0.0000  0.0000  0.5905 -0.7751  0.3173  0.0000  0.0000  0.0000
  16.  P 2 (px)     0.0355  0.0189  0.0000  0.0000  0.0000 -0.3938  0.5573 -0.4481
  17.  P 2 (py)    -0.0189  0.0355  0.0000  0.0000  0.0000  0.5573  0.3938 -0.6543
  18.  P 2 (pz)     0.0000  0.0000  0.1562  0.1576 -0.6291  0.0000  0.0000  0.0000

           AO         17      18
      ------------ ------- -------
   1.  P 1 (s)      0.0000 -0.0329
   2.  P 1 (s)      0.0000  0.0961
   3.  P 1 (px)    -0.2027  0.0000
   4.  P 1 (py)     0.1388  0.0000
   5.  P 1 (pz)     0.0000 -0.2721
   6.  P 1 (s)      0.0000 -0.5933
   7.  P 1 (px)     0.6543  0.0000
   8.  P 1 (py)    -0.4481  0.0000
   9.  P 1 (pz)     0.0000  1.0343
  10.  P 2 (s)      0.0000  0.0329
  11.  P 2 (s)      0.0000 -0.0961
  12.  P 2 (px)     0.2027  0.0000
  13.  P 2 (py)    -0.1388  0.0000
  14.  P 2 (pz)     0.0000 -0.2721
  15.  P 2 (s)      0.0000  0.5933
  16.  P 2 (px)    -0.6543  0.0000
  17.  P 2 (py)     0.4481  0.0000
  18.  P 2 (pz)     0.0000  1.0343


 AO overlap matrix:

           AO          1       2       3       4       5       6       7       8
      ------------ ------- ------- ------- ------- ------- ------- ------- -------
   1.  P 1 (s)      1.0000  0.3256  0.0000  0.0000  0.0000  0.0139  0.0000  0.0000
   2.  P 1 (s)      0.3256  1.0000  0.0000  0.0000  0.0000  0.2481  0.0000  0.0000
   3.  P 1 (px)     0.0000  0.0000  1.0000  0.0000  0.0000  0.0000  0.2624  0.0000
   4.  P 1 (py)     0.0000  0.0000  0.0000  1.0000  0.0000  0.0000  0.0000  0.2624
   5.  P 1 (pz)     0.0000  0.0000  0.0000  0.0000  1.0000  0.0000  0.0000  0.0000
   6.  P 1 (s)      0.0139  0.2481  0.0000  0.0000  0.0000  1.0000  0.0000  0.0000
   7.  P 1 (px)     0.0000  0.0000  0.2624  0.0000  0.0000  0.0000  1.0000  0.0000
   8.  P 1 (py)     0.0000  0.0000  0.0000  0.2624  0.0000  0.0000  0.0000  1.0000
   9.  P 1 (pz)     0.0000  0.0000  0.0000  0.0000  0.2624  0.0000  0.0000  0.0000
  10.  P 2 (s)      0.0000  0.0000  0.0000  0.0000  0.0000  0.0037  0.0000  0.0000
  11.  P 2 (s)      0.0000  0.0000  0.0000  0.0000  0.0000  0.0311  0.0000  0.0000
  12.  P 2 (px)     0.0000  0.0000  0.0000  0.0000  0.0000  0.0000  0.0063  0.0000
  13.  P 2 (py)     0.0000  0.0000  0.0000  0.0000  0.0000  0.0000  0.0000  0.0063
  14.  P 2 (pz)     0.0000  0.0000  0.0000  0.0000  0.0000  0.0180  0.0000  0.0000
  15.  P 2 (s)      0.0037  0.0311  0.0000  0.0000 -0.0180  0.2669  0.0000  0.0000
  16.  P 2 (px)     0.0000  0.0000  0.0063  0.0000  0.0000  0.0000  0.1422  0.0000
  17.  P 2 (py)     0.0000  0.0000  0.0000  0.0063  0.0000  0.0000  0.0000  0.1422
  18.  P 2 (pz)     0.0065  0.0531  0.0000  0.0000 -0.0286  0.3225  0.0000  0.0000

           AO          9      10      11      12      13      14      15      16
      ------------ ------- ------- ------- ------- ------- ------- ------- -------
   1.  P 1 (s)      0.0000  0.0000  0.0000  0.0000  0.0000  0.0000  0.0037  0.0000
   2.  P 1 (s)      0.0000  0.0000  0.0000  0.0000  0.0000  0.0000  0.0311  0.0000
   3.  P 1 (px)     0.0000  0.0000  0.0000  0.0000  0.0000  0.0000  0.0000  0.0063
   4.  P 1 (py)     0.0000  0.0000  0.0000  0.0000  0.0000  0.0000  0.0000  0.0000
   5.  P 1 (pz)     0.2624  0.0000  0.0000  0.0000  0.0000  0.0000 -0.0180  0.0000
   6.  P 1 (s)      0.0000  0.0037  0.0311  0.0000  0.0000  0.0180  0.2669  0.0000
   7.  P 1 (px)     0.0000  0.0000  0.0000  0.0063  0.0000  0.0000  0.0000  0.1422
   8.  P 1 (py)     0.0000  0.0000  0.0000  0.0000  0.0063  0.0000  0.0000  0.0000
   9.  P 1 (pz)     1.0000 -0.0065 -0.0531  0.0000  0.0000 -0.0286 -0.3225  0.0000
  10.  P 2 (s)     -0.0065  1.0000  0.3256  0.0000  0.0000  0.0000  0.0139  0.0000
  11.  P 2 (s)     -0.0531  0.3256  1.0000  0.0000  0.0000  0.0000  0.2481  0.0000
  12.  P 2 (px)     0.0000  0.0000  0.0000  1.0000  0.0000  0.0000  0.0000  0.2624
  13.  P 2 (py)     0.0000  0.0000  0.0000  0.0000  1.0000  0.0000  0.0000  0.0000
  14.  P 2 (pz)    -0.0286  0.0000  0.0000  0.0000  0.0000  1.0000  0.0000  0.0000
  15.  P 2 (s)     -0.3225  0.0139  0.2481  0.0000  0.0000  0.0000  1.0000  0.0000
  16.  P 2 (px)     0.0000  0.0000  0.0000  0.2624  0.0000  0.0000  0.0000  1.0000
  17.  P 2 (py)     0.0000  0.0000  0.0000  0.0000  0.2624  0.0000  0.0000  0.0000
  18.  P 2 (pz)    -0.3498  0.0000  0.0000  0.0000  0.0000  0.2624  0.0000  0.0000

           AO         17      18
      ------------ ------- -------
   1.  P 1 (s)      0.0000  0.0065
   2.  P 1 (s)      0.0000  0.0531
   3.  P 1 (px)     0.0000  0.0000
   4.  P 1 (py)     0.0063  0.0000
   5.  P 1 (pz)     0.0000 -0.0286
   6.  P 1 (s)      0.0000  0.3225
   7.  P 1 (px)     0.0000  0.0000
   8.  P 1 (py)     0.1422  0.0000
   9.  P 1 (pz)     0.0000 -0.3498
  10.  P 2 (s)      0.0000  0.0000
  11.  P 2 (s)      0.0000  0.0000
  12.  P 2 (px)     0.0000  0.0000
  13.  P 2 (py)     0.2624  0.0000
  14.  P 2 (pz)     0.0000  0.2624
  15.  P 2 (s)      0.0000  0.0000
  16.  P 2 (px)     0.0000  0.0000
  17.  P 2 (py)     1.0000  0.0000
  18.  P 2 (pz)     0.0000  1.0000


 AO bond-order matrix:

           AO          1       2       3       4       5       6       7       8
      ------------ ------- ------- ------- ------- ------- ------- ------- -------
   1.  P 1 (s)      2.2482 -0.7692  0.0000  0.0000 -0.0115  0.1494  0.0000  0.0000
   2.  P 1 (s)     -0.7692  2.3876  0.0000  0.0000  0.0341 -0.5496  0.0000  0.0000
   3.  P 1 (px)     0.0000  0.0000  2.0296  0.0000  0.0000  0.0000 -0.1848  0.0000
   4.  P 1 (py)     0.0000  0.0000  0.0000  2.0296  0.0000  0.0000  0.0000 -0.1848
   5.  P 1 (pz)    -0.0115  0.0341  0.0000  0.0000  2.0339 -0.1729  0.0000  0.0000
   6.  P 1 (s)      0.1494 -0.5496  0.0000  0.0000 -0.1729  2.1067  0.0000  0.0000
   7.  P 1 (px)     0.0000  0.0000 -0.1848  0.0000  0.0000  0.0000  0.9392  0.0000
   8.  P 1 (py)     0.0000  0.0000  0.0000 -0.1848  0.0000  0.0000  0.0000  0.9392
   9.  P 1 (pz)     0.0353 -0.1059  0.0000  0.0000 -0.1749  0.4558  0.0000  0.0000
  10.  P 2 (s)      0.0005 -0.0019  0.0000  0.0000  0.0097 -0.0070  0.0000  0.0000
  11.  P 2 (s)     -0.0019  0.0085  0.0000  0.0000 -0.0332  0.0233  0.0000  0.0000
  12.  P 2 (px)     0.0000  0.0000  0.1054  0.0000  0.0000  0.0000 -0.3176  0.0000
  13.  P 2 (py)     0.0000  0.0000  0.0000  0.1054  0.0000  0.0000  0.0000 -0.3176
  14.  P 2 (pz)    -0.0097  0.0332  0.0000  0.0000 -0.1051 -0.0800  0.0000  0.0000
  15.  P 2 (s)     -0.0070  0.0233  0.0000  0.0000  0.0800 -0.3058  0.0000  0.0000
  16.  P 2 (px)     0.0000  0.0000 -0.3176  0.0000  0.0000  0.0000  0.9300  0.0000
  17.  P 2 (py)     0.0000  0.0000  0.0000 -0.3176  0.0000  0.0000  0.0000  0.9300
  18.  P 2 (pz)     0.0205 -0.0705  0.0000  0.0000  0.3085  0.0254  0.0000  0.0000

           AO          9      10      11      12      13      14      15      16
      ------------ ------- ------- ------- ------- ------- ------- ------- -------
   1.  P 1 (s)      0.0353  0.0005 -0.0019  0.0000  0.0000 -0.0097 -0.0070  0.0000
   2.  P 1 (s)     -0.1059 -0.0019  0.0085  0.0000  0.0000  0.0332  0.0233  0.0000
   3.  P 1 (px)     0.0000  0.0000  0.0000  0.1054  0.0000  0.0000  0.0000 -0.3176
   4.  P 1 (py)     0.0000  0.0000  0.0000  0.0000  0.1054  0.0000  0.0000  0.0000
   5.  P 1 (pz)    -0.1749  0.0097 -0.0332  0.0000  0.0000 -0.1051  0.0800  0.0000
   6.  P 1 (s)      0.4558 -0.0070  0.0233  0.0000  0.0000 -0.0800 -0.3058  0.0000
   7.  P 1 (px)     0.0000  0.0000  0.0000 -0.3176  0.0000  0.0000  0.0000  0.9300
   8.  P 1 (py)     0.0000  0.0000  0.0000  0.0000 -0.3176  0.0000  0.0000  0.0000
   9.  P 1 (pz)     0.9015 -0.0205  0.0705  0.0000  0.0000  0.3085 -0.0254  0.0000
  10.  P 2 (s)     -0.0205  2.2482 -0.7692  0.0000  0.0000  0.0115  0.1494  0.0000
  11.  P 2 (s)      0.0705 -0.7692  2.3876  0.0000  0.0000 -0.0341 -0.5496  0.0000
  12.  P 2 (px)     0.0000  0.0000  0.0000  2.0296  0.0000  0.0000  0.0000 -0.1848
  13.  P 2 (py)     0.0000  0.0000  0.0000  0.0000  2.0296  0.0000  0.0000  0.0000
  14.  P 2 (pz)     0.3085  0.0115 -0.0341  0.0000  0.0000  2.0339  0.1729  0.0000
  15.  P 2 (s)     -0.0254  0.1494 -0.5496  0.0000  0.0000  0.1729  2.1067  0.0000
  16.  P 2 (px)     0.0000  0.0000  0.0000 -0.1848  0.0000  0.0000  0.0000  0.9392
  17.  P 2 (py)     0.0000  0.0000  0.0000  0.0000 -0.1848  0.0000  0.0000  0.0000
  18.  P 2 (pz)    -0.7859 -0.0353  0.1059  0.0000  0.0000 -0.1749 -0.4558  0.0000

           AO         17      18
      ------------ ------- -------
   1.  P 1 (s)      0.0000  0.0205
   2.  P 1 (s)      0.0000 -0.0705
   3.  P 1 (px)     0.0000  0.0000
   4.  P 1 (py)    -0.3176  0.0000
   5.  P 1 (pz)     0.0000  0.3085
   6.  P 1 (s)      0.0000  0.0254
   7.  P 1 (px)     0.0000  0.0000
   8.  P 1 (py)     0.9300  0.0000
   9.  P 1 (pz)     0.0000 -0.7859
  10.  P 2 (s)      0.0000 -0.0353
  11.  P 2 (s)      0.0000  0.1059
  12.  P 2 (px)     0.0000  0.0000
  13.  P 2 (py)    -0.1848  0.0000
  14.  P 2 (pz)     0.0000 -0.1749
  15.  P 2 (s)      0.0000 -0.4558
  16.  P 2 (px)     0.0000  0.0000
  17.  P 2 (py)     0.9392  0.0000
  18.  P 2 (pz)     0.0000  0.9015


 AO density matrix:

           AO          1       2       3       4       5       6       7       8
      ------------ ------- ------- ------- ------- ------- ------- ------- -------
   1.  P 1 (s)      2.0000  0.6512  0.0000  0.0000 -0.0001  0.0277  0.0000  0.0000
   2.  P 1 (s)      0.6512  1.9997  0.0000  0.0000  0.0009  0.4983  0.0000  0.0000
   3.  P 1 (px)     0.0000  0.0000  1.9964  0.0000  0.0000  0.0000  0.5774  0.0000
   4.  P 1 (py)     0.0000  0.0000  0.0000  1.9964  0.0000  0.0000  0.0000  0.5774
   5.  P 1 (pz)    -0.0001  0.0009  0.0000  0.0000  1.9966 -0.0070  0.0000  0.0000
   6.  P 1 (s)      0.0277  0.4983  0.0000  0.0000 -0.0070  1.9853  0.0000  0.0000
   7.  P 1 (px)     0.0000  0.0000  0.5774  0.0000  0.0000  0.0000  1.2378  0.0000
   8.  P 1 (py)     0.0000  0.0000  0.0000  0.5774  0.0000  0.0000  0.0000  1.2378
   9.  P 1 (pz)     0.0008 -0.0097  0.0000  0.0000  0.5594  0.0724  0.0000  0.0000
  10.  P 2 (s)      0.0000  0.0000  0.0000  0.0000  0.0001  0.0076  0.0000  0.0000
  11.  P 2 (s)      0.0000  0.0003  0.0000  0.0000 -0.0009  0.0601  0.0000  0.0000
  12.  P 2 (px)     0.0000  0.0000  0.0036  0.0000  0.0000  0.0000 -0.0399  0.0000
  13.  P 2 (py)     0.0000  0.0000  0.0000  0.0036  0.0000  0.0000  0.0000 -0.0399
  14.  P 2 (pz)    -0.0001  0.0009  0.0000  0.0000 -0.0034  0.0289  0.0000  0.0000
  15.  P 2 (s)      0.0076  0.0601  0.0000  0.0000 -0.0289  0.5485  0.0000  0.0000
  16.  P 2 (px)     0.0000  0.0000 -0.0399  0.0000  0.0000  0.0000  1.0466  0.0000
  17.  P 2 (py)     0.0000  0.0000  0.0000 -0.0399  0.0000  0.0000  0.0000  1.0466
  18.  P 2 (pz)     0.0138  0.0965  0.0000  0.0000 -0.0227  0.7175  0.0000  0.0000

           AO          9      10      11      12      13      14      15      16
      ------------ ------- ------- ------- ------- ------- ------- ------- -------
   1.  P 1 (s)      0.0008  0.0000  0.0000  0.0000  0.0000 -0.0001  0.0076  0.0000
   2.  P 1 (s)     -0.0097  0.0000  0.0003  0.0000  0.0000  0.0009  0.0601  0.0000
   3.  P 1 (px)     0.0000  0.0000  0.0000  0.0036  0.0000  0.0000  0.0000 -0.0399
   4.  P 1 (py)     0.0000  0.0000  0.0000  0.0000  0.0036  0.0000  0.0000  0.0000
   5.  P 1 (pz)     0.5594  0.0001 -0.0009  0.0000  0.0000 -0.0034 -0.0289  0.0000
   6.  P 1 (s)      0.0724  0.0076  0.0601  0.0000  0.0000  0.0289  0.5485  0.0000
   7.  P 1 (px)     0.0000  0.0000  0.0000 -0.0399  0.0000  0.0000  0.0000  1.0466
   8.  P 1 (py)     0.0000  0.0000  0.0000  0.0000 -0.0399  0.0000  0.0000  0.0000
   9.  P 1 (pz)     1.6432 -0.0138 -0.0965  0.0000  0.0000 -0.0227 -0.7175  0.0000
  10.  P 2 (s)     -0.0138  2.0000  0.6512  0.0000  0.0000  0.0001  0.0277  0.0000
  11.  P 2 (s)     -0.0965  0.6512  1.9997  0.0000  0.0000 -0.0009  0.4983  0.0000
  12.  P 2 (px)     0.0000  0.0000  0.0000  1.9964  0.0000  0.0000  0.0000  0.5774
  13.  P 2 (py)     0.0000  0.0000  0.0000  0.0000  1.9964  0.0000  0.0000  0.0000
  14.  P 2 (pz)    -0.0227  0.0001 -0.0009  0.0000  0.0000  1.9966  0.0070  0.0000
  15.  P 2 (s)     -0.7175  0.0277  0.4983  0.0000  0.0000  0.0070  1.9853  0.0000
  16.  P 2 (px)     0.0000  0.0000  0.0000  0.5774  0.0000  0.0000  0.0000  1.2378
  17.  P 2 (py)     0.0000  0.0000  0.0000  0.0000  0.5774  0.0000  0.0000  0.0000
  18.  P 2 (pz)    -1.0565 -0.0008  0.0097  0.0000  0.0000  0.5594 -0.0724  0.0000

           AO         17      18
      ------------ ------- -------
   1.  P 1 (s)      0.0000  0.0138
   2.  P 1 (s)      0.0000  0.0965
   3.  P 1 (px)     0.0000  0.0000
   4.  P 1 (py)    -0.0399  0.0000
   5.  P 1 (pz)     0.0000 -0.0227
   6.  P 1 (s)      0.0000  0.7175
   7.  P 1 (px)     0.0000  0.0000
   8.  P 1 (py)     1.0466  0.0000
   9.  P 1 (pz)     0.0000 -1.0565
  10.  P 2 (s)      0.0000 -0.0008
  11.  P 2 (s)      0.0000  0.0097
  12.  P 2 (px)     0.0000  0.0000
  13.  P 2 (py)     0.5774  0.0000
  14.  P 2 (pz)     0.0000  0.5594
  15.  P 2 (s)      0.0000 -0.0724
  16.  P 2 (px)     0.0000  0.0000
  17.  P 2 (py)     1.2378  0.0000
  18.  P 2 (pz)     0.0000  1.6432


 MO density matrix:

      MO     1       2       3       4       5       6       7       8       9
     ---- ------  ------  ------  ------  ------  ------  ------  ------  ------
   1.     2.0000  0.0000  0.0000  0.0000  0.0000  0.0000  0.0000  0.0000  0.0000
   2.     0.0000  2.0000  0.0000  0.0000  0.0000  0.0000  0.0000  0.0000  0.0000
   3.     0.0000  0.0000  2.0000  0.0000  0.0000  0.0000  0.0000  0.0000  0.0000
   4.     0.0000  0.0000  0.0000  2.0000  0.0000  0.0000  0.0000  0.0000  0.0000
   5.     0.0000  0.0000  0.0000  0.0000  2.0000  0.0000  0.0000  0.0000  0.0000
   6.     0.0000  0.0000  0.0000  0.0000  0.0000  2.0000  0.0000  0.0000  0.0000
   7.     0.0000  0.0000  0.0000  0.0000  0.0000  0.0000  2.0000  0.0000  0.0000
   8.     0.0000  0.0000  0.0000  0.0000  0.0000  0.0000  0.0000  2.0000  0.0000
   9.     0.0000  0.0000  0.0000  0.0000  0.0000  0.0000  0.0000  0.0000  2.0000
  10.     0.0000  0.0000  0.0000  0.0000  0.0000  0.0000  0.0000  0.0000  0.0000
  11.     0.0000  0.0000  0.0000  0.0000  0.0000  0.0000  0.0000  0.0000  0.0000
  12.     0.0000  0.0000  0.0000  0.0000  0.0000  0.0000  0.0000  0.0000  0.0000
  13.     0.0000  0.0000  0.0000  0.0000  0.0000  0.0000  0.0000  0.0000  0.0000
  14.     0.0000  0.0000  0.0000  0.0000  0.0000  0.0000  0.0000  0.0000  0.0000
  15.     0.0000  0.0000  0.0000  0.0000  0.0000  0.0000  0.0000  0.0000  0.0000
  16.     0.0000  0.0000  0.0000  0.0000  0.0000  0.0000  0.0000  0.0000  0.0000
  17.     0.0000  0.0000  0.0000  0.0000  0.0000  0.0000  0.0000  0.0000  0.0000
  18.     0.0000  0.0000  0.0000  0.0000  0.0000  0.0000  0.0000  0.0000  0.0000

      MO    10      11      12      13      14      15      16      17      18
     ---- ------  ------  ------  ------  ------  ------  ------  ------  ------
   1.     0.0000  0.0000  0.0000  0.0000  0.0000  0.0000  0.0000  0.0000  0.0000
   2.     0.0000  0.0000  0.0000  0.0000  0.0000  0.0000  0.0000  0.0000  0.0000
   3.     0.0000  0.0000  0.0000  0.0000  0.0000  0.0000  0.0000  0.0000  0.0000
   4.     0.0000  0.0000  0.0000  0.0000  0.0000  0.0000  0.0000  0.0000  0.0000
   5.     0.0000  0.0000  0.0000  0.0000  0.0000  0.0000  0.0000  0.0000  0.0000
   6.     0.0000  0.0000  0.0000  0.0000  0.0000  0.0000  0.0000  0.0000  0.0000
   7.     0.0000  0.0000  0.0000  0.0000  0.0000  0.0000  0.0000  0.0000  0.0000
   8.     0.0000  0.0000  0.0000  0.0000  0.0000  0.0000  0.0000  0.0000  0.0000
   9.     0.0000  0.0000  0.0000  0.0000  0.0000  0.0000  0.0000  0.0000  0.0000
  10.     2.0000  0.0000  0.0000  0.0000  0.0000  0.0000  0.0000  0.0000  0.0000
  11.     0.0000  2.0000  0.0000  0.0000  0.0000  0.0000  0.0000  0.0000  0.0000
  12.     0.0000  0.0000  2.0000  0.0000  0.0000  0.0000  0.0000  0.0000  0.0000
  13.     0.0000  0.0000  0.0000  2.0000  0.0000  0.0000  0.0000  0.0000  0.0000
  14.     0.0000  0.0000  0.0000  0.0000  2.0000  0.0000  0.0000  0.0000  0.0000
  15.     0.0000  0.0000  0.0000  0.0000  0.0000  2.0000  0.0000  0.0000  0.0000
  16.     0.0000  0.0000  0.0000  0.0000  0.0000  0.0000  0.0000  0.0000  0.0000
  17.     0.0000  0.0000  0.0000  0.0000  0.0000  0.0000  0.0000  0.0000  0.0000
  18.     0.0000  0.0000  0.0000  0.0000  0.0000  0.0000  0.0000  0.0000  0.0000


 NATURAL POPULATIONS:  Natural atomic orbital occupancies

  NAO Atom No lang   Type(AO)    Occupancy      Energy
 -------------------------------------------------------
   1    P  1  s      Cor( 1s)     2.00000     -76.99138
   2    P  1  s      Cor( 2s)     2.00000      -8.89779
   3    P  1  s      Val( 3s)     1.89081      -0.59955
   4    P  1  px     Cor( 2p)     1.99998      -4.96479
   5    P  1  px     Val( 3p)     1.00002       0.01101
   6    P  1  py     Cor( 2p)     1.99998      -4.96479
   7    P  1  py     Val( 3p)     1.00002       0.01101
   8    P  1  pz     Cor( 2p)     1.99982      -4.96522
   9    P  1  pz     Val( 3p)     1.10937       0.07688

  10    P  2  s      Cor( 1s)     2.00000     -53.96203
  11    P  2  s      Cor( 2s)     2.00000     -31.92713
  12    P  2  s      Val( 3s)     1.89081      -0.59955
  13    P  2  px     Cor( 2p)     1.99998      -4.96479
  14    P  2  px     Val( 3p)     1.00002       0.01101
  15    P  2  py     Cor( 2p)     1.99998      -4.96479
  16    P  2  py     Val( 3p)     1.00002       0.01101
  17    P  2  pz     Cor( 2p)     1.99982      -4.96522
  18    P  2  pz     Val( 3p)     1.10937       0.07688


 Summary of Natural Population Analysis:

                                     Natural Population
             Natural    ---------------------------------------------
  Atom No    Charge        Core      Valence    Rydberg      Total
 --------------------------------------------------------------------
    P  1    0.00000      9.99978     5.00022    0.00000    15.00000
    P  2    0.00000      9.99978     5.00022    0.00000    15.00000
 ====================================================================
 * Total *  0.00000     19.99957    10.00043    0.00000    30.00000

                                 Natural Population
 ---------------------------------------------------------
   Core                      19.99957 ( 99.9978% of   20)
   Valence                   10.00043 (100.0043% of   10)
   Natural Minimal Basis     30.00000 (100.0000% of   30)
   Natural Rydberg Basis      0.00000 (  0.0000% of   30)
 ---------------------------------------------------------

    Atom No         Natural Electron Configuration
 ----------------------------------------------------------------------------
      P  1      [core]3s( 1.89)3p( 3.11)
      P  2      [core]3s( 1.89)3p( 3.11)


 PNAOs in the AO basis:

           AO          1       2       3       4       5       6       7       8
      ------------ ------- ------- ------- ------- ------- ------- ------- -------
   1.  P 1 (s)     -0.5000  0.9256  0.1337  0.0000  0.0000  0.0000  0.0000  0.0000
   2.  P 1 (s)      0.9938  0.1806 -0.4217  0.0000  0.0000  0.0000  0.0000  0.0000
   3.  P 1 (px)     0.0000  0.0000  0.0000  0.9785 -0.3415  0.0000  0.0000  0.0000
   4.  P 1 (py)     0.0000  0.0000  0.0000  0.0000  0.0000  0.9785 -0.3415  0.0000
   5.  P 1 (pz)     0.0000  0.0000  0.0000  0.0000  0.0000  0.0000  0.0000  0.9785
   6.  P 1 (s)      0.1390  0.0135  1.0256  0.0000  0.0000  0.0000  0.0000  0.0000
   7.  P 1 (px)     0.0000  0.0000  0.0000  0.0727  1.0338  0.0000  0.0000  0.0000
   8.  P 1 (py)     0.0000  0.0000  0.0000  0.0000  0.0000  0.0727  1.0338  0.0000
   9.  P 1 (pz)     0.0000  0.0000  0.0000  0.0000  0.0000  0.0000  0.0000  0.0727
  10.  P 2 (s)      0.0000  0.0000  0.0000  0.0000  0.0000  0.0000  0.0000  0.0000
  11.  P 2 (s)      0.0000  0.0000  0.0000  0.0000  0.0000  0.0000  0.0000  0.0000
  12.  P 2 (px)     0.0000  0.0000  0.0000  0.0000  0.0000  0.0000  0.0000  0.0000
  13.  P 2 (py)     0.0000  0.0000  0.0000  0.0000  0.0000  0.0000  0.0000  0.0000
  14.  P 2 (pz)     0.0000  0.0000  0.0000  0.0000  0.0000  0.0000  0.0000  0.0000
  15.  P 2 (s)      0.0000  0.0000  0.0000  0.0000  0.0000  0.0000  0.0000  0.0000
  16.  P 2 (px)     0.0000  0.0000  0.0000  0.0000  0.0000  0.0000  0.0000  0.0000
  17.  P 2 (py)     0.0000  0.0000  0.0000  0.0000  0.0000  0.0000  0.0000  0.0000
  18.  P 2 (pz)     0.0000  0.0000  0.0000  0.0000  0.0000  0.0000  0.0000  0.0000

           AO          9      10      11      12      13      14      15      16
      ------------ ------- ------- ------- ------- ------- ------- ------- -------
   1.  P 1 (s)      0.0000  0.0000  0.0000  0.0000  0.0000  0.0000  0.0000  0.0000
   2.  P 1 (s)      0.0000  0.0000  0.0000  0.0000  0.0000  0.0000  0.0000  0.0000
   3.  P 1 (px)     0.0000  0.0000  0.0000  0.0000  0.0000  0.0000  0.0000  0.0000
   4.  P 1 (py)     0.0000  0.0000  0.0000  0.0000  0.0000  0.0000  0.0000  0.0000
   5.  P 1 (pz)    -0.3415  0.0000  0.0000  0.0000  0.0000  0.0000  0.0000  0.0000
   6.  P 1 (s)      0.0000  0.0000  0.0000  0.0000  0.0000  0.0000  0.0000  0.0000
   7.  P 1 (px)     0.0000  0.0000  0.0000  0.0000  0.0000  0.0000  0.0000  0.0000
   8.  P 1 (py)     0.0000  0.0000  0.0000  0.0000  0.0000  0.0000  0.0000  0.0000
   9.  P 1 (pz)     1.0338  0.0000  0.0000  0.0000  0.0000  0.0000  0.0000  0.0000
  10.  P 2 (s)      0.0000  0.8648  0.5990  0.1337  0.0000  0.0000  0.0000  0.0000
  11.  P 2 (s)      0.0000 -0.8043  0.6110 -0.4217  0.0000  0.0000  0.0000  0.0000
  12.  P 2 (px)     0.0000  0.0000  0.0000  0.0000  0.9785 -0.3415  0.0000  0.0000
  13.  P 2 (py)     0.0000  0.0000  0.0000  0.0000  0.0000  0.0000  0.9785 -0.3415
  14.  P 2 (pz)     0.0000  0.0000  0.0000  0.0000  0.0000  0.0000  0.0000  0.0000
  15.  P 2 (s)      0.0000 -0.1178  0.0750  1.0256  0.0000  0.0000  0.0000  0.0000
  16.  P 2 (px)     0.0000  0.0000  0.0000  0.0000  0.0727  1.0338  0.0000  0.0000
  17.  P 2 (py)     0.0000  0.0000  0.0000  0.0000  0.0000  0.0000  0.0727  1.0338
  18.  P 2 (pz)     0.0000  0.0000  0.0000  0.0000  0.0000  0.0000  0.0000  0.0000

           AO         17      18
      ------------ ------- -------
   1.  P 1 (s)      0.0000  0.0000
   2.  P 1 (s)      0.0000  0.0000
   3.  P 1 (px)     0.0000  0.0000
   4.  P 1 (py)     0.0000  0.0000
   5.  P 1 (pz)     0.0000  0.0000
   6.  P 1 (s)      0.0000  0.0000
   7.  P 1 (px)     0.0000  0.0000
   8.  P 1 (py)     0.0000  0.0000
   9.  P 1 (pz)     0.0000  0.0000
  10.  P 2 (s)      0.0000  0.0000
  11.  P 2 (s)      0.0000  0.0000
  12.  P 2 (px)     0.0000  0.0000
  13.  P 2 (py)     0.0000  0.0000
  14.  P 2 (pz)     0.9785 -0.3415
  15.  P 2 (s)      0.0000  0.0000
  16.  P 2 (px)     0.0000  0.0000
  17.  P 2 (py)     0.0000  0.0000
  18.  P 2 (pz)     0.0727  1.0338


 PNAO overlap matrix:

           NAO         1       2       3       4       5       6       7       8
      ------------ ------- ------- ------- ------- ------- ------- ------- -------
   1.  P 1( 1s )    1.0000  0.0000  0.0000  0.0000  0.0000  0.0000  0.0000  0.0000
   2.  P 1( 2s )    0.0000  1.0000  0.0000  0.0000  0.0000  0.0000  0.0000  0.0000
   3.  P 1( 3s )    0.0000  0.0000  1.0000  0.0000  0.0000  0.0000  0.0000  0.0000
   4.  P 1( 2px)    0.0000  0.0000  0.0000  1.0000  0.0000  0.0000  0.0000  0.0000
   5.  P 1( 3px)    0.0000  0.0000  0.0000  0.0000  1.0000  0.0000  0.0000  0.0000
   6.  P 1( 2py)    0.0000  0.0000  0.0000  0.0000  0.0000  1.0000  0.0000  0.0000
   7.  P 1( 3py)    0.0000  0.0000  0.0000  0.0000  0.0000  0.0000  1.0000  0.0000
   8.  P 1( 2pz)    0.0000  0.0000  0.0000  0.0000  0.0000  0.0000  0.0000  1.0000
   9.  P 1( 3pz)    0.0000  0.0000  0.0000  0.0000  0.0000  0.0000  0.0000  0.0000
  10.  P 2( 1s )   -0.0108 -0.0018 -0.0531  0.0000  0.0000  0.0000  0.0000  0.0075
  11.  P 2( 2s )    0.0079  0.0012  0.0413  0.0000  0.0000  0.0000  0.0000 -0.0057
  12.  P 2( 3s )    0.0661  0.0128  0.2549  0.0000  0.0000  0.0000  0.0000 -0.0405
  13.  P 2( 2px)    0.0000  0.0000  0.0000  0.0017  0.0170  0.0000  0.0000  0.0000
  14.  P 2( 3px)    0.0000  0.0000  0.0000  0.0170  0.1475  0.0000  0.0000  0.0000
  15.  P 2( 2py)    0.0000  0.0000  0.0000  0.0000  0.0000  0.0017  0.0170  0.0000
  16.  P 2( 3py)    0.0000  0.0000  0.0000  0.0000  0.0000  0.0170  0.1475  0.0000
  17.  P 2( 2pz)    0.0093  0.0017  0.0405  0.0000  0.0000  0.0000  0.0000 -0.0059
  18.  P 2( 3pz)    0.0967  0.0205  0.3134  0.0000  0.0000  0.0000  0.0000 -0.0546

           NAO         9      10      11      12      13      14      15      16
      ------------ ------- ------- ------- ------- ------- ------- ------- -------
   1.  P 1( 1s )    0.0000 -0.0108  0.0079  0.0661  0.0000  0.0000  0.0000  0.0000
   2.  P 1( 2s )    0.0000 -0.0018  0.0012  0.0128  0.0000  0.0000  0.0000  0.0000
   3.  P 1( 3s )    0.0000 -0.0531  0.0413  0.2549  0.0000  0.0000  0.0000  0.0000
   4.  P 1( 2px)    0.0000  0.0000  0.0000  0.0000  0.0017  0.0170  0.0000  0.0000
   5.  P 1( 3px)    0.0000  0.0000  0.0000  0.0000  0.0170  0.1475  0.0000  0.0000
   6.  P 1( 2py)    0.0000  0.0000  0.0000  0.0000  0.0000  0.0000  0.0017  0.0170
   7.  P 1( 3py)    0.0000  0.0000  0.0000  0.0000  0.0000  0.0000  0.0170  0.1475
   8.  P 1( 2pz)    0.0000  0.0075 -0.0057 -0.0405  0.0000  0.0000  0.0000  0.0000
   9.  P 1( 3pz)    1.0000  0.0769 -0.0621 -0.3134  0.0000  0.0000  0.0000  0.0000
  10.  P 2( 1s )    0.0769  1.0000  0.0000  0.0000  0.0000  0.0000  0.0000  0.0000
  11.  P 2( 2s )   -0.0621  0.0000  1.0000  0.0000  0.0000  0.0000  0.0000  0.0000
  12.  P 2( 3s )   -0.3134  0.0000  0.0000  1.0000  0.0000  0.0000  0.0000  0.0000
  13.  P 2( 2px)    0.0000  0.0000  0.0000  0.0000  1.0000  0.0000  0.0000  0.0000
  14.  P 2( 3px)    0.0000  0.0000  0.0000  0.0000  0.0000  1.0000  0.0000  0.0000
  15.  P 2( 2py)    0.0000  0.0000  0.0000  0.0000  0.0000  0.0000  1.0000  0.0000
  16.  P 2( 3py)    0.0000  0.0000  0.0000  0.0000  0.0000  0.0000  0.0000  1.0000
  17.  P 2( 2pz)   -0.0546  0.0000  0.0000  0.0000  0.0000  0.0000  0.0000  0.0000
  18.  P 2( 3pz)   -0.3536  0.0000  0.0000  0.0000  0.0000  0.0000  0.0000  0.0000

           NAO        17      18
      ------------ ------- -------
   1.  P 1( 1s )    0.0093  0.0967
   2.  P 1( 2s )    0.0017  0.0205
   3.  P 1( 3s )    0.0405  0.3134
   4.  P 1( 2px)    0.0000  0.0000
   5.  P 1( 3px)    0.0000  0.0000
   6.  P 1( 2py)    0.0000  0.0000
   7.  P 1( 3py)    0.0000  0.0000
   8.  P 1( 2pz)   -0.0059 -0.0546
   9.  P 1( 3pz)   -0.0546 -0.3536
  10.  P 2( 1s )    0.0000  0.0000
  11.  P 2( 2s )    0.0000  0.0000
  12.  P 2( 3s )    0.0000  0.0000
  13.  P 2( 2px)    0.0000  0.0000
  14.  P 2( 3px)    0.0000  0.0000
  15.  P 2( 2py)    0.0000  0.0000
  16.  P 2( 3py)    0.0000  0.0000
  17.  P 2( 2pz)    1.0000  0.0000
  18.  P 2( 3pz)    0.0000  1.0000


 PNAO density matrix:

           NAO         1       2       3       4       5       6       7       8
      ------------ ------- ------- ------- ------- ------- ------- ------- -------
   1.  P 1( 1s )    2.0000  0.0000  0.0000  0.0000  0.0000  0.0000  0.0000  0.0000
   2.  P 1( 2s )    0.0000  2.0000  0.0000  0.0000  0.0000  0.0000  0.0000  0.0000
   3.  P 1( 3s )    0.0000  0.0000  1.9827  0.0000  0.0000  0.0000  0.0000 -0.0017
   4.  P 1( 2px)    0.0000  0.0000  0.0000  2.0000 -0.0042  0.0000  0.0000  0.0000
   5.  P 1( 3px)    0.0000  0.0000  0.0000 -0.0042  1.1480  0.0000  0.0000  0.0000
   6.  P 1( 2py)    0.0000  0.0000  0.0000  0.0000  0.0000  2.0000 -0.0042  0.0000
   7.  P 1( 3py)    0.0000  0.0000  0.0000  0.0000  0.0000 -0.0042  1.1480  0.0000
   8.  P 1( 2pz)    0.0000  0.0000 -0.0017  0.0000  0.0000  0.0000  0.0000  1.9998
   9.  P 1( 3pz)    0.0000  0.0000  0.0837  0.0000  0.0000  0.0000  0.0000  0.0084
  10.  P 2( 1s )   -0.0216 -0.0036 -0.1062  0.0000  0.0000  0.0000  0.0000  0.0151
  11.  P 2( 2s )    0.0158  0.0025  0.0826  0.0000  0.0000  0.0000  0.0000 -0.0114
  12.  P 2( 3s )    0.1321  0.0256  0.5270  0.0000  0.0000  0.0000  0.0000 -0.0793
  13.  P 2( 2px)    0.0000  0.0000  0.0000  0.0033  0.0381  0.0000  0.0000  0.0000
  14.  P 2( 3px)    0.0000  0.0000  0.0000  0.0381  1.1471  0.0000  0.0000  0.0000
  15.  P 2( 2py)    0.0000  0.0000  0.0000  0.0000  0.0000  0.0033  0.0381  0.0000
  16.  P 2( 3py)    0.0000  0.0000  0.0000  0.0000  0.0000  0.0381  1.1471  0.0000
  17.  P 2( 2pz)    0.0186  0.0034  0.0793  0.0000  0.0000  0.0000  0.0000 -0.0120
  18.  P 2( 3pz)    0.1934  0.0410  0.7106  0.0000  0.0000  0.0000  0.0000 -0.1007

           NAO         9      10      11      12      13      14      15      16
      ------------ ------- ------- ------- ------- ------- ------- ------- -------
   1.  P 1( 1s )    0.0000 -0.0216  0.0158  0.1321  0.0000  0.0000  0.0000  0.0000
   2.  P 1( 2s )    0.0000 -0.0036  0.0025  0.0256  0.0000  0.0000  0.0000  0.0000
   3.  P 1( 3s )    0.0837 -0.1062  0.0826  0.5270  0.0000  0.0000  0.0000  0.0000
   4.  P 1( 2px)    0.0000  0.0000  0.0000  0.0000  0.0033  0.0381  0.0000  0.0000
   5.  P 1( 3px)    0.0000  0.0000  0.0000  0.0000  0.0381  1.1471  0.0000  0.0000
   6.  P 1( 2py)    0.0000  0.0000  0.0000  0.0000  0.0000  0.0000  0.0033  0.0381
   7.  P 1( 3py)    0.0000  0.0000  0.0000  0.0000  0.0000  0.0000  0.0381  1.1471
   8.  P 1( 2pz)    0.0084  0.0151 -0.0114 -0.0793  0.0000  0.0000  0.0000  0.0000
   9.  P 1( 3pz)    1.5939  0.1539 -0.1242 -0.7106  0.0000  0.0000  0.0000  0.0000
  10.  P 2( 1s )    0.1539  2.0000  0.0000  0.0000  0.0000  0.0000  0.0000  0.0000
  11.  P 2( 2s )   -0.1242  0.0000  2.0000  0.0000  0.0000  0.0000  0.0000  0.0000
  12.  P 2( 3s )   -0.7106  0.0000  0.0000  1.9827  0.0000  0.0000  0.0000  0.0000
  13.  P 2( 2px)    0.0000  0.0000  0.0000  0.0000  2.0000 -0.0042  0.0000  0.0000
  14.  P 2( 3px)    0.0000  0.0000  0.0000  0.0000 -0.0042  1.1480  0.0000  0.0000
  15.  P 2( 2py)    0.0000  0.0000  0.0000  0.0000  0.0000  0.0000  2.0000 -0.0042
  16.  P 2( 3py)    0.0000  0.0000  0.0000  0.0000  0.0000  0.0000 -0.0042  1.1480
  17.  P 2( 2pz)   -0.1007  0.0000  0.0000  0.0017  0.0000  0.0000  0.0000  0.0000
  18.  P 2( 3pz)   -1.1134  0.0000  0.0000 -0.0837  0.0000  0.0000  0.0000  0.0000

           NAO        17      18
      ------------ ------- -------
   1.  P 1( 1s )    0.0186  0.1934
   2.  P 1( 2s )    0.0034  0.0410
   3.  P 1( 3s )    0.0793  0.7106
   4.  P 1( 2px)    0.0000  0.0000
   5.  P 1( 3px)    0.0000  0.0000
   6.  P 1( 2py)    0.0000  0.0000
   7.  P 1( 3py)    0.0000  0.0000
   8.  P 1( 2pz)   -0.0120 -0.1007
   9.  P 1( 3pz)   -0.1007 -1.1134
  10.  P 2( 1s )    0.0000  0.0000
  11.  P 2( 2s )    0.0000  0.0000
  12.  P 2( 3s )    0.0017 -0.0837
  13.  P 2( 2px)    0.0000  0.0000
  14.  P 2( 3px)    0.0000  0.0000
  15.  P 2( 2py)    0.0000  0.0000
  16.  P 2( 3py)    0.0000  0.0000
  17.  P 2( 2pz)    1.9998  0.0084
  18.  P 2( 3pz)    0.0084  1.5939


 NAOs in the AO basis:

           AO          1       2       3       4       5       6       7       8
      ------------ ------- ------- ------- ------- ------- ------- ------- -------
   1.  P 1 (s)     -0.9256  0.5000  0.1357  0.0000  0.0000  0.0000  0.0000  0.0000
   2.  P 1 (s)     -0.1807 -0.9939 -0.4268  0.0000  0.0000  0.0000  0.0000 -0.0001
   3.  P 1 (px)     0.0000  0.0000  0.0000  0.9785 -0.3431  0.0000  0.0000  0.0000
   4.  P 1 (py)     0.0000  0.0000  0.0000  0.0000  0.0000  0.9785 -0.3431  0.0000
   5.  P 1 (pz)     0.0000  0.0001  0.0128  0.0000  0.0000  0.0000  0.0000  0.9785
   6.  P 1 (s)     -0.0135 -0.1390  1.1165  0.0000  0.0000  0.0000  0.0000  0.0000
   7.  P 1 (px)     0.0000  0.0000  0.0000  0.0727  1.0426  0.0000  0.0000  0.0000
   8.  P 1 (py)     0.0000  0.0000  0.0000  0.0000  0.0000  0.0727  1.0426  0.0000
   9.  P 1 (pz)     0.0000  0.0000 -0.0920  0.0000  0.0000  0.0000  0.0000  0.0727
  10.  P 2 (s)     -0.0004 -0.0023  0.0026  0.0000  0.0000  0.0000  0.0000 -0.0015
  11.  P 2 (s)      0.0011  0.0068 -0.0101  0.0000  0.0000  0.0000  0.0000  0.0048
  12.  P 2 (px)     0.0000  0.0000  0.0000 -0.0008  0.0088  0.0000  0.0000  0.0000
  13.  P 2 (py)     0.0000  0.0000  0.0000  0.0000  0.0000 -0.0008  0.0088  0.0000
  14.  P 2 (pz)     0.0008  0.0046  0.0110  0.0000  0.0000  0.0000  0.0000  0.0029
  15.  P 2 (s)      0.0002  0.0009 -0.1889  0.0000  0.0000  0.0000  0.0000  0.0007
  16.  P 2 (px)     0.0000  0.0000  0.0000 -0.0001 -0.0786  0.0000  0.0000  0.0000
  17.  P 2 (py)     0.0000  0.0000  0.0000  0.0000  0.0000 -0.0001 -0.0786  0.0000
  18.  P 2 (pz)     0.0001  0.0003 -0.1823  0.0000  0.0000  0.0000  0.0000  0.0002

           AO          9      10      11      12      13      14      15      16
      ------------ ------- ------- ------- ------- ------- ------- ------- -------
   1.  P 1 (s)     -0.0040  0.0014 -0.0019  0.0026  0.0000  0.0000  0.0000  0.0000
   2.  P 1 (s)      0.0105 -0.0040  0.0055 -0.0101  0.0000  0.0000  0.0000  0.0000
   3.  P 1 (px)     0.0000  0.0000  0.0000  0.0000 -0.0008  0.0088  0.0000  0.0000
   4.  P 1 (py)     0.0000  0.0000  0.0000  0.0000  0.0000  0.0000 -0.0008  0.0088
   5.  P 1 (pz)    -0.3643  0.0028 -0.0037 -0.0110  0.0000  0.0000  0.0000  0.0000
   6.  P 1 (s)     -0.1440 -0.0006  0.0008 -0.1889  0.0000  0.0000  0.0000  0.0000
   7.  P 1 (px)     0.0000  0.0000  0.0000  0.0000 -0.0001 -0.0786  0.0000  0.0000
   8.  P 1 (py)     0.0000  0.0000  0.0000  0.0000  0.0000  0.0000 -0.0001 -0.0786
   9.  P 1 (pz)     1.1831  0.0002 -0.0003  0.1823  0.0000  0.0000  0.0000  0.0000
  10.  P 2 (s)     -0.0013  0.5989  0.8649  0.1357  0.0000  0.0000  0.0000  0.0000
  11.  P 2 (s)      0.0126  0.6111 -0.8044 -0.4268  0.0000  0.0000  0.0000  0.0000
  12.  P 2 (px)     0.0000  0.0000  0.0000  0.0000  0.9785 -0.3431  0.0000  0.0000
  13.  P 2 (py)     0.0000  0.0000  0.0000  0.0000  0.0000  0.0000  0.9785 -0.3431
  14.  P 2 (pz)    -0.0213  0.0000 -0.0001 -0.0128  0.0000  0.0000  0.0000  0.0000
  15.  P 2 (s)      0.2881  0.0750 -0.1179  1.1165  0.0000  0.0000  0.0000  0.0000
  16.  P 2 (px)     0.0000  0.0000  0.0000  0.0000  0.0727  1.0426  0.0000  0.0000
  17.  P 2 (py)     0.0000  0.0000  0.0000  0.0000  0.0000  0.0000  0.0727  1.0426
  18.  P 2 (pz)     0.2719  0.0000  0.0000  0.0920  0.0000  0.0000  0.0000  0.0000

           AO         17      18
      ------------ ------- -------
   1.  P 1 (s)      0.0015  0.0013
   2.  P 1 (s)     -0.0048 -0.0126
   3.  P 1 (px)     0.0000  0.0000
   4.  P 1 (py)     0.0000  0.0000
   5.  P 1 (pz)     0.0029 -0.0213
   6.  P 1 (s)     -0.0007 -0.2881
   7.  P 1 (px)     0.0000  0.0000
   8.  P 1 (py)     0.0000  0.0000
   9.  P 1 (pz)     0.0002  0.2719
  10.  P 2 (s)      0.0000  0.0040
  11.  P 2 (s)      0.0001 -0.0105
  12.  P 2 (px)     0.0000  0.0000
  13.  P 2 (py)     0.0000  0.0000
  14.  P 2 (pz)     0.9785 -0.3643
  15.  P 2 (s)      0.0000  0.1440
  16.  P 2 (px)     0.0000  0.0000
  17.  P 2 (py)     0.0000  0.0000
  18.  P 2 (pz)     0.0727  1.1831


 NAO density matrix:

           NAO         1       2       3       4       5       6       7       8
      ------------ ------- ------- ------- ------- ------- ------- ------- -------
   1.  P 1( 1s )    2.0000  0.0000  0.0000  0.0000  0.0000  0.0000  0.0000  0.0000
   2.  P 1( 2s )    0.0000  2.0000  0.0000  0.0000  0.0000  0.0000  0.0000  0.0000
   3.  P 1( 3s )    0.0000  0.0000  1.8908  0.0000  0.0000  0.0000  0.0000 -0.0044
   4.  P 1( 2px)    0.0000  0.0000  0.0000  2.0000 -0.0046  0.0000  0.0000  0.0000
   5.  P 1( 3px)    0.0000  0.0000  0.0000 -0.0046  1.0000  0.0000  0.0000  0.0000
   6.  P 1( 2py)    0.0000  0.0000  0.0000  0.0000  0.0000  2.0000 -0.0046  0.0000
   7.  P 1( 3py)    0.0000  0.0000  0.0000  0.0000  0.0000 -0.0046  1.0000  0.0000
   8.  P 1( 2pz)    0.0000  0.0000 -0.0044  0.0000  0.0000  0.0000  0.0000  1.9998
   9.  P 1( 3pz)    0.0000  0.0001  0.3119  0.0000  0.0000  0.0000  0.0000  0.0125
  10.  P 2( 1s )    0.0000  0.0000  0.0000  0.0000  0.0000  0.0000  0.0000  0.0000
  11.  P 2( 2s )    0.0000  0.0000  0.0000  0.0000  0.0000  0.0000  0.0000  0.0000
  12.  P 2( 3s )    0.0000  0.0000  0.1092  0.0000  0.0000  0.0000  0.0000  0.0044
  13.  P 2( 2px)    0.0000  0.0000  0.0000  0.0000  0.0046  0.0000  0.0000  0.0000
  14.  P 2( 3px)    0.0000  0.0000  0.0000  0.0046  1.0000  0.0000  0.0000  0.0000
  15.  P 2( 2py)    0.0000  0.0000  0.0000  0.0000  0.0000  0.0000  0.0046  0.0000
  16.  P 2( 3py)    0.0000  0.0000  0.0000  0.0000  0.0000  0.0046  1.0000  0.0000
  17.  P 2( 2pz)    0.0000  0.0000 -0.0044  0.0000  0.0000  0.0000  0.0000 -0.0002
  18.  P 2( 3pz)    0.0000  0.0001  0.3119  0.0000  0.0000  0.0000  0.0000  0.0125

           NAO         9      10      11      12      13      14      15      16
      ------------ ------- ------- ------- ------- ------- ------- ------- -------
   1.  P 1( 1s )    0.0000  0.0000  0.0000  0.0000  0.0000  0.0000  0.0000  0.0000
   2.  P 1( 2s )    0.0001  0.0000  0.0000  0.0000  0.0000  0.0000  0.0000  0.0000
   3.  P 1( 3s )    0.3119  0.0000  0.0000  0.1092  0.0000  0.0000  0.0000  0.0000
   4.  P 1( 2px)    0.0000  0.0000  0.0000  0.0000  0.0000  0.0046  0.0000  0.0000
   5.  P 1( 3px)    0.0000  0.0000  0.0000  0.0000  0.0046  1.0000  0.0000  0.0000
   6.  P 1( 2py)    0.0000  0.0000  0.0000  0.0000  0.0000  0.0000  0.0000  0.0046
   7.  P 1( 3py)    0.0000  0.0000  0.0000  0.0000  0.0000  0.0000  0.0046  1.0000
   8.  P 1( 2pz)    0.0125  0.0000  0.0000  0.0044  0.0000  0.0000  0.0000  0.0000
   9.  P 1( 3pz)    1.1094  0.0000  0.0000 -0.3119  0.0000  0.0000  0.0000  0.0000
  10.  P 2( 1s )    0.0000  2.0000  0.0000  0.0000  0.0000  0.0000  0.0000  0.0000
  11.  P 2( 2s )    0.0000  0.0000  2.0000  0.0000  0.0000  0.0000  0.0000  0.0000
  12.  P 2( 3s )   -0.3119  0.0000  0.0000  1.8908  0.0000  0.0000  0.0000  0.0000
  13.  P 2( 2px)    0.0000  0.0000  0.0000  0.0000  2.0000 -0.0046  0.0000  0.0000
  14.  P 2( 3px)    0.0000  0.0000  0.0000  0.0000 -0.0046  1.0000  0.0000  0.0000
  15.  P 2( 2py)    0.0000  0.0000  0.0000  0.0000  0.0000  0.0000  2.0000 -0.0046
  16.  P 2( 3py)    0.0000  0.0000  0.0000  0.0000  0.0000  0.0000 -0.0046  1.0000
  17.  P 2( 2pz)    0.0125  0.0000  0.0000  0.0044  0.0000  0.0000  0.0000  0.0000
  18.  P 2( 3pz)   -0.8906  0.0000  0.0000 -0.3119  0.0000  0.0000  0.0000  0.0000

           NAO        17      18
      ------------ ------- -------
   1.  P 1( 1s )    0.0000  0.0000
   2.  P 1( 2s )    0.0000  0.0001
   3.  P 1( 3s )   -0.0044  0.3119
   4.  P 1( 2px)    0.0000  0.0000
   5.  P 1( 3px)    0.0000  0.0000
   6.  P 1( 2py)    0.0000  0.0000
   7.  P 1( 3py)    0.0000  0.0000
   8.  P 1( 2pz)   -0.0002  0.0125
   9.  P 1( 3pz)    0.0125 -0.8906
  10.  P 2( 1s )    0.0000  0.0000
  11.  P 2( 2s )    0.0000  0.0000
  12.  P 2( 3s )    0.0044 -0.3119
  13.  P 2( 2px)    0.0000  0.0000
  14.  P 2( 3px)    0.0000  0.0000
  15.  P 2( 2py)    0.0000  0.0000
  16.  P 2( 3py)    0.0000  0.0000
  17.  P 2( 2pz)    1.9998  0.0125
  18.  P 2( 3pz)    0.0125  1.1094


 NATURAL BOND ORBITAL ANALYSIS:

 Initiate 2-center NBO search using THRESH = 1.900 and PRJTHR = 0.300

 Search of NAO DM block for core orbitals on atom:   1
      Eigenvector ( 1) has occupancy 2.00000
            1.0000 0.0000 0.0000 0.0000 0.0000 0.0000 0.0000 0.0000
            0.0000
      Eigenvector ( 2) has occupancy 2.00000
            0.0000 1.0000 0.0000 0.0000 0.0000 0.0000 0.0000 0.0000
            0.0000
      Eigenvector ( 3) has occupancy 1.99998
            0.0000 0.0000 0.0000 1.0000 0.0000 0.0000 0.0000 0.0000
            0.0000
      Eigenvector ( 4) has occupancy 1.99998
            0.0000 0.0000 0.0000 0.0000 0.0000 1.0000 0.0000 0.0000
            0.0000
      Eigenvector ( 5) has occupancy 1.99982
            0.0000 0.0000 0.0000 0.0000 0.0000 0.0000 0.0000 1.0000
            0.0000
        5 eigenvector(s) stashed in permanent list

 Search of NAO DM block for core orbitals on atom:   2
      Eigenvector ( 1) has occupancy 2.00000
            1.0000 0.0000 0.0000 0.0000 0.0000 0.0000 0.0000 0.0000
            0.0000
      Eigenvector ( 2) has occupancy 2.00000
            0.0000 1.0000 0.0000 0.0000 0.0000 0.0000 0.0000 0.0000
            0.0000
      Eigenvector ( 3) has occupancy 1.99998
            0.0000 0.0000 0.0000 1.0000 0.0000 0.0000 0.0000 0.0000
            0.0000
      Eigenvector ( 4) has occupancy 1.99998
            0.0000 0.0000 0.0000 0.0000 0.0000 1.0000 0.0000 0.0000
            0.0000
      Eigenvector ( 5) has occupancy 1.99982
            0.0000 0.0000 0.0000 0.0000 0.0000 0.0000 0.0000 1.0000
            0.0000
        5 eigenvector(s) stashed in permanent list

 Core orbitals projected from the NAO density matrix
      10.000 electrons remain (>1.900); search continues

 Search of NAO DM block for the following atom(s):   1
      Select eigenvectors with eigenvalue > 1.900
       2.000 1.000 1.000 1.000 0.000 0.000 0.000 0.000 0.000
      Eigenvector ( 1) has occupancy 2.00000
            0.0000 0.0000 0.9438 0.0000 0.0000 0.0000 0.0000 0.0000
            0.3305
      1 hybrid on atom 1 stashed in prospective list

 Search of NAO DM block for the following atom(s):   2
      Select eigenvectors with eigenvalue > 1.900
       2.000 1.000 1.000 1.000 0.000 0.000 0.000 0.000 0.000
      Eigenvector ( 1) has occupancy 2.00000
            0.0000 0.0000 0.9438 0.0000 0.0000 0.0000 0.0000 0.0000
           -0.3305
      1 hybrid on atom 2 stashed in prospective list

 Stash prospective hybrids having projection expectation value > 0.300
       1.000 1.000
      0 hybrids eliminated in 1 pass
      2 hybrids moved from prospective to permanent list

 NHOs of 1-center eigenvectors projected from the NAO density matrix
       6.000 electrons remain (>1.900); search continues

 Search of NAO DM block for the following atom(s):   1   2
      Select eigenvectors with eigenvalue > 1.900
       2.000 2.000 2.000 0.000 0.000 0.000 0.000 0.000 0.000 0.000 0.000 0.000
       0.000 0.000 0.000 0.000 0.000 0.000
      Eigenvector ( 1) has occupancy 2.00000
            0.0000 0.0000-0.2298 0.0000-0.1073 0.0000 0.0708 0.0000
            0.6563 0.0000 0.0000-0.2298 0.0000-0.1073 0.0000 0.0708
            0.0000-0.6563
      Eigenvector ( 2) has occupancy 2.00000
            0.0000 0.0000 0.0078 0.0000 0.2760 0.0000 0.6506 0.0000
           -0.0223 0.0000 0.0000 0.0078 0.0000 0.2760 0.0000 0.6506
            0.0000 0.0223
      Eigenvector ( 3) has occupancy 2.00000
            0.0000 0.0000-0.0417 0.0000 0.6421 0.0000-0.2678 0.0000
            0.1192 0.0000 0.0000-0.0417 0.0000 0.6421 0.0000-0.2678
            0.0000-0.1192
      3 hybrids on atom 1 stashed in prospective list
      3 hybrids on atom 2 stashed in prospective list

 Stash prospective hybrids having projection expectation value > 0.300
       1.000 1.000 1.000 1.000 1.000 1.000
      0 hybrids eliminated in 1 pass
      6 hybrids moved from prospective to permanent list

 NHOs of 2-center eigenvectors projected from the NAO density matrix
       0.000 electrons remain in the fully projected matrix

 Search of NHO DM block for the following atom(s):   1
      Select eigenvectors with eigenvalue > 1.900
       2.000 2.000 2.000 2.000 2.000 2.000 0.000 0.000 0.000
      Eigenvector ( 1) has occupancy 2.00000
            1.0000 0.0000 0.0000 0.0000 0.0000 0.0000 0.0000 0.0000
            0.0000
           NBO accepted:    1. Label:CR ( 1)   1
      Eigenvector ( 2) has occupancy 2.00000
            0.0000 1.0000 0.0000 0.0000 0.0000 0.0000 0.0000 0.0000
            0.0000
           NBO accepted:    2. Label:CR ( 2)   1
      Eigenvector ( 3) has occupancy 1.99998
            0.0000 0.0000 1.0000 0.0000 0.0000 0.0000 0.0000 0.0000
            0.0000
           NBO accepted:    3. Label:CR ( 3)   1
      Eigenvector ( 4) has occupancy 1.99998
            0.0000 0.0000 0.0000 1.0000 0.0000 0.0000 0.0000 0.0000
            0.0000
           NBO accepted:    4. Label:CR ( 4)   1
      Eigenvector ( 5) has occupancy 1.99982
            0.0000 0.0000 0.0000 0.0000 1.0000 0.0000 0.0000 0.0000
            0.0000
           NBO accepted:    5. Label:CR ( 5)   1
      Eigenvector ( 6) has occupancy 2.00000
            0.0000 0.0000 0.0000 0.0000 0.0000 1.0000 0.0000 0.0000
            0.0000
           NBO accepted:    6. Label:LP ( 1)   1
        6 eigenvector(s) stashed in permanent list

 Search of NHO DM block for the following atom(s):   2
      Select eigenvectors with eigenvalue > 1.900
       2.000 2.000 2.000 2.000 2.000 2.000 0.000 0.000 0.000
      Eigenvector ( 1) has occupancy 2.00000
            1.0000 0.0000 0.0000 0.0000 0.0000 0.0000 0.0000 0.0000
            0.0000
           NBO accepted:    7. Label:CR ( 1)   2
      Eigenvector ( 2) has occupancy 2.00000
            0.0000 1.0000 0.0000 0.0000 0.0000 0.0000 0.0000 0.0000
            0.0000
           NBO accepted:    8. Label:CR ( 2)   2
      Eigenvector ( 3) has occupancy 1.99998
            0.0000 0.0000 1.0000 0.0000 0.0000 0.0000 0.0000 0.0000
            0.0000
           NBO accepted:    9. Label:CR ( 3)   2
      Eigenvector ( 4) has occupancy 1.99998
            0.0000 0.0000 0.0000 1.0000 0.0000 0.0000 0.0000 0.0000
            0.0000
           NBO accepted:   10. Label:CR ( 4)   2
      Eigenvector ( 5) has occupancy 1.99982
            0.0000 0.0000 0.0000 0.0000 1.0000 0.0000 0.0000 0.0000
            0.0000
           NBO accepted:   11. Label:CR ( 5)   2
      Eigenvector ( 6) has occupancy 2.00000
            0.0000 0.0000 0.0000 0.0000 0.0000 1.0000 0.0000 0.0000
            0.0000
           NBO accepted:   12. Label:LP ( 1)   2
        6 eigenvector(s) stashed in permanent list

  1-center NBOs projected from the NHO density matrix
       6.000 electrons remain (>1.900); search continues

 Search of NHO DM block for the following atom(s):   1   2
      Select eigenvectors with eigenvalue > 1.900
       2.000 2.000 2.000 0.000 0.000 0.000 0.000 0.000 0.000 0.000 0.000 0.000
       0.000 0.000 0.000 0.000 0.000 0.000
      Eigenvector ( 1) has occupancy 2.00000
            0.0000 0.0000 0.0000 0.0000 0.0000 0.0000 0.7071 0.0063
           -0.0025 0.0000 0.0000 0.0000 0.0000 0.0000 0.0000 0.7071
            0.0063-0.0025
      Occupancy is 2.000 after deleting minor hybrid components
            0.0000 0.0000 0.0000 0.0000 0.0000 0.0000 0.7071 0.0000
            0.0000 0.0000 0.0000 0.0000 0.0000 0.0000 0.0000 0.7071
            0.0000 0.0000
           NBO accepted:   13. Label:BD ( 1)   1   2
      Occupancy is 0.000 for antibonding component
            0.0000 0.0000 0.0000 0.0000 0.0000 0.0000-0.7071 0.0000
            0.0000 0.0000 0.0000 0.0000 0.0000 0.0000 0.0000 0.7071
            0.0000 0.0000
           NBO accepted:   14. Label:BD*( 1)   1   2
      Eigenvector ( 2) has occupancy 2.00000
            0.0000 0.0000 0.0000 0.0000 0.0000 0.0000-0.0058 0.6978
            0.1140 0.0000 0.0000 0.0000 0.0000 0.0000 0.0000-0.0058
            0.6978 0.1140
      Occupancy is 2.000 after deleting minor hybrid components
            0.0000 0.0000 0.0000 0.0000 0.0000 0.0000 0.0000 0.7071
            0.0000 0.0000 0.0000 0.0000 0.0000 0.0000 0.0000 0.0000
            0.7071 0.0000
           NBO accepted:   15. Label:BD ( 2)   1   2
      Occupancy is 0.000 for antibonding component
            0.0000 0.0000 0.0000 0.0000 0.0000 0.0000 0.0000-0.7071
            0.0000 0.0000 0.0000 0.0000 0.0000 0.0000 0.0000 0.0000
            0.7071 0.0000
           NBO accepted:   16. Label:BD*( 2)   1   2
      Eigenvector ( 3) has occupancy 2.00000
            0.0000 0.0000 0.0000 0.0000 0.0000 0.0000 0.0035-0.1140
            0.6978 0.0000 0.0000 0.0000 0.0000 0.0000 0.0000 0.0035
           -0.1140 0.6978
      Occupancy is 2.000 after deleting minor hybrid components
            0.0000 0.0000 0.0000 0.0000 0.0000 0.0000 0.0000 0.0000
            0.7071 0.0000 0.0000 0.0000 0.0000 0.0000 0.0000 0.0000
            0.0000 0.7071
           NBO accepted:   17. Label:BD ( 3)   1   2
      Occupancy is 0.000 for antibonding component
            0.0000 0.0000 0.0000 0.0000 0.0000 0.0000 0.0000 0.0000
           -0.7071 0.0000 0.0000 0.0000 0.0000 0.0000 0.0000 0.0000
            0.0000 0.7071
           NBO accepted:   18. Label:BD*( 3)   1   2
        6 eigenvector(s) stashed in permanent list

  2-center NBOs projected from the NHO density matrix
       0.000 electrons remain in the fully projected matrix

                            Occupancies       Lewis Structure    Low   High
         Max    Occ     -------------------  -----------------   occ   occ
  Cycle  Ctr   Thresh    Lewis   non-Lewis     CR  BD  nC  LP    (L)   (NL)
 ============================================================================
    1     2     1.90    29.99957   0.00043     10   3   0   2     0      0
 ----------------------------------------------------------------------------

 Structure accepted: No low occupancy Lewis orbitals

 -------------------------------------------------------
   Core                     19.99957 ( 99.998% of  20)
   Valence Lewis            10.00000 (100.000% of  10)
  ==================      =============================
   Total Lewis              29.99957 ( 99.999% of  30)
  -----------------------------------------------------
   Valence non-Lewis         0.00043 (  0.001% of  30)
   Rydberg non-Lewis         0.00000 (  0.000% of  30)
  ==================      =============================
   Total non-Lewis           0.00043 (  0.001% of  30)
 -------------------------------------------------------


     (Occupancy)   Bond orbital / Coefficients / Hybrids
 ------------------ Lewis ------------------------------------------------------
   1. (2.00000) CR ( 1) P  1            s(100.00%)
                                         1.0000  0.0000  0.0000  0.0000  0.0000
                                         0.0000  0.0000  0.0000  0.0000
   2. (2.00000) CR ( 2) P  1            s(100.00%)
                                         0.0000  1.0000  0.0000  0.0000  0.0000
                                         0.0000  0.0000  0.0000  0.0000
   3. (1.99998) CR ( 3) P  1            s(  0.00%)p 1.00(100.00%)
                                         0.0000  0.0000  0.0000  1.0000  0.0000
                                         0.0000  0.0000  0.0000  0.0000
   4. (1.99998) CR ( 4) P  1            s(  0.00%)p 1.00(100.00%)
                                         0.0000  0.0000  0.0000  0.0000  0.0000
                                         1.0000  0.0000  0.0000  0.0000
   5. (1.99982) CR ( 5) P  1            s(  0.00%)p 1.00(100.00%)
                                         0.0000  0.0000  0.0000  0.0000  0.0000
                                         0.0000  0.0000  1.0000  0.0000
   6. (2.00000) CR ( 1) P  2            s(100.00%)
                                         1.0000  0.0000  0.0000  0.0000  0.0000
                                         0.0000  0.0000  0.0000  0.0000
   7. (2.00000) CR ( 2) P  2            s(100.00%)
                                         0.0000  1.0000  0.0000  0.0000  0.0000
                                         0.0000  0.0000  0.0000  0.0000
   8. (1.99998) CR ( 3) P  2            s(  0.00%)p 1.00(100.00%)
                                         0.0000  0.0000  0.0000  1.0000  0.0000
                                         0.0000  0.0000  0.0000  0.0000
   9. (1.99998) CR ( 4) P  2            s(  0.00%)p 1.00(100.00%)
                                         0.0000  0.0000  0.0000  0.0000  0.0000
                                         1.0000  0.0000  0.0000  0.0000
  10. (1.99982) CR ( 5) P  2            s(  0.00%)p 1.00(100.00%)
                                         0.0000  0.0000  0.0000  0.0000  0.0000
                                         0.0000  0.0000  1.0000  0.0000
  11. (2.00000) LP ( 1) P  1            s( 89.08%)p 0.12( 10.92%)
                                         0.0000  0.0000  0.9438  0.0000  0.0000
                                         0.0000  0.0000  0.0000  0.3305
  12. (2.00000) LP ( 1) P  2            s( 89.08%)p 0.12( 10.92%)
                                         0.0000  0.0000  0.9438  0.0000  0.0000
                                         0.0000  0.0000  0.0000 -0.3305
  13. (2.00000) BD ( 1) P  1- P  2
               ( 50.00%)   0.7071* P  1 s( 10.56%)p 8.47( 89.44%)
                                         0.0000  0.0000  0.3250  0.0000  0.1517
                                         0.0000 -0.1001  0.0000 -0.9281
               ( 50.00%)   0.7071* P  2 s( 10.56%)p 8.47( 89.44%)
                                         0.0000  0.0000  0.3250  0.0000  0.1517
                                         0.0000 -0.1001  0.0000  0.9281
  14. (2.00000) BD ( 2) P  1- P  2
               ( 50.00%)   0.7071* P  1 s(  0.01%)p99.99( 99.99%)
                                         0.0000  0.0000  0.0110  0.0000  0.3903
                                         0.0000  0.9201  0.0000 -0.0315
               ( 50.00%)   0.7071* P  2 s(  0.01%)p99.99( 99.99%)
                                         0.0000  0.0000  0.0110  0.0000  0.3903
                                         0.0000  0.9201  0.0000  0.0315
  15. (2.00000) BD ( 3) P  1- P  2
               ( 50.00%)   0.7071* P  1 s(  0.35%)p99.99( 99.65%)
                                         0.0000  0.0000  0.0590  0.0000 -0.9081
                                         0.0000  0.3788  0.0000 -0.1686
               ( 50.00%)   0.7071* P  2 s(  0.35%)p99.99( 99.65%)
                                         0.0000  0.0000  0.0590  0.0000 -0.9081
                                         0.0000  0.3788  0.0000  0.1686
 ---------------- non-Lewis ----------------------------------------------------
  16. (0.00034) BD*( 1) P  1- P  2
               ( 50.00%)   0.7071* P  1 s( 10.56%)p 8.47( 89.44%)
                                         0.0000  0.0000  0.3250  0.0000  0.1517
                                         0.0000 -0.1001  0.0000 -0.9281
               ( 50.00%)  -0.7071* P  2 s( 10.56%)p 8.47( 89.44%)
                                         0.0000  0.0000  0.3250  0.0000  0.1517
                                         0.0000 -0.1001  0.0000  0.9281
  17. (0.00004) BD*( 2) P  1- P  2
               ( 50.00%)   0.7071* P  1 s(  0.01%)p99.99( 99.99%)
               ( 50.00%)  -0.7071* P  2 s(  0.01%)p99.99( 99.99%)
  18. (0.00005) BD*( 3) P  1- P  2
               ( 50.00%)   0.7071* P  1 s(  0.35%)p99.99( 99.65%)
               ( 50.00%)  -0.7071* P  2 s(  0.35%)p99.99( 99.65%)


 NHO DIRECTIONALITY AND BOND BENDING (deviation from line of nuclear centers at
                                      the position of maximum hybrid amplitude)

         [Thresholds for printing:  angular deviation  >  1.0 degree]
                                    p- or d-character  > 25.0%
                                    orbital occupancy  >  0.10e

                        Line of Centers        Hybrid 1             Hybrid 2
                        ---------------  -------------------  ------------------
           NBO            Theta   Phi    Theta   Phi    Dev   Theta   Phi    Dev
 ===============================================================================
  13. BD ( 1) P  1- P  2  180.0    0.0   165.1  326.6  14.9    14.9  326.6  14.9
  14. BD ( 2) P  1- P  2  180.0    0.0    91.8   67.0  88.2    88.2   67.0  88.2
  15. BD ( 3) P  1- P  2  180.0    0.0   100.3  157.4  79.7    79.7  157.4  79.7


 SECOND ORDER PERTURBATION THEORY ANALYSIS OF FOCK MATRIX IN NBO BASIS

     Threshold for printing:   0.50 kcal/mol
                                                          E(2) E(NL)-E(L) F(L,NL)
      Donor (L) NBO              Acceptor (NL) NBO      kcal/mol   a.u.    a.u.
 ===============================================================================

 within unit  1
    5. CR ( 5) P  1            16. BD*( 1) P  1- P  2      0.59    5.53   0.051
   10. CR ( 5) P  2            16. BD*( 1) P  1- P  2      0.59    5.53   0.051


 NATURAL BOND ORBITALS (Summary):

                                                     Principal Delocalizations
           NBO                 Occupancy    Energy   (geminal,vicinal,remote)
 ===============================================================================
 Molecular unit  1  (P2)
 ------ Lewis --------------------------------------
    1. CR ( 1) P  1             2.00000   -76.99138
    2. CR ( 2) P  1             2.00000    -8.89779
    3. CR ( 3) P  1             1.99998    -4.96479
    4. CR ( 4) P  1             1.99998    -4.96479
    5. CR ( 5) P  1             1.99982    -4.96522  16(g)
    6. CR ( 1) P  2             2.00000   -53.96203
    7. CR ( 2) P  2             2.00000   -31.92713
    8. CR ( 3) P  2             1.99998    -4.96479
    9. CR ( 4) P  2             1.99998    -4.96479
   10. CR ( 5) P  2             1.99982    -4.96522  16(g)
   11. LP ( 1) P  1             2.00000    -0.57642
   12. LP ( 1) P  2             2.00000    -0.57642
   13. BD ( 1) P  1- P  2       2.00000    -0.46233
   14. BD ( 2) P  1- P  2       2.00000    -0.20450
   15. BD ( 3) P  1- P  2       2.00000    -0.21272
 ------ non-Lewis ----------------------------------
   16. BD*( 1) P  1- P  2       0.00034     0.56702
   17. BD*( 2) P  1- P  2       0.00004     0.22662
   18. BD*( 3) P  1- P  2       0.00005     0.23747
          -------------------------------
                 Total Lewis   29.99957  ( 99.9986%)
           Valence non-Lewis    0.00043  (  0.0014%)
           Rydberg non-Lewis    0.00000  (  0.0000%)
          -------------------------------
               Total unit  1   30.00000  (100.0000%)
              Charge unit  1    0.00000

 $CHOOSE
   LONE 1 1 2 1 END
   BOND T 1 2 END
 $END

 NBO analysis completed in 0.21 CPU seconds (1 wall second)
 Maximum scratch memory used by NBO was 263938 words (2.01 MB)
 Maximum scratch memory used by G16NBO was 8661 words (0.07 MB)

 Opening RunExU unformatted file "/cluster/work/users/beto93/mol41/Gau-808364.EUF"
 Read unf file /cluster/work/users/beto93/mol41/Gau-808364.EUF:
 Label Gaussian matrix elements                                         IVers= 2 NLab= 2 Version=ES64L-G16RevC.01
 Title mol41-NBO                                                       
 NAtoms=     2 NBasis=    18 NBsUse=    18 ICharg=     0 Multip=     1 NE=    30 Len12L=8 Len4L=8 IOpCl= 0 ICGU=111
 GAUSSIAN SCALARS                    NI= 1 NR= 1 NTot=       1 LenBuf=    2 NRI=1 N=    1000
 NPA CHARGES                         NI= 0 NR= 1 NTot=       2 LenBuf= 4000 NRI=1 N=       2
 Recovered energy= -673.747791915     dipole=      0.000000000000      0.000000000000     -0.000000000000
 Unable to Open any file for archive entry.
 1\1\GINC-C2-20\SP\RHF\STO-3G\P2\BETO93\18-Nov-2024\0\\#RHF/STO-3G int=
 nobasistransform Symmetry=None 5D 7F Pop=NBO7Read\\mol41-NBO\\0,1\P,0,
 0.,0.,0.966144\P,0,0.,0.,-0.966144\\Version=ES64L-G16RevC.01\HF=-673.7
 477919\RMSD=8.292e-10\Dipole=0.,0.,0.\Quadrupole=0.9148107,0.9148107,-
 1.8296214,0.,0.,0.\PG=Unknown\\@
 The archive entry for this job was punched.


 SACRED COWS MAKE GREAT HAMBURGERS -- ROBERT REISNER
 Job cpu time:       0 days  0 hours  0 minutes  8.6 seconds.
 Elapsed time:       0 days  0 hours  0 minutes  2.8 seconds.
 File lengths (MBytes):  RWF=     10 Int=      0 D2E=      0 Chk=      1 Scr=      1
 Normal termination of Gaussian 16 at Mon Nov 18 15:41:31 2024.
