 Entering Gaussian System, Link 0=g16
 Initial command:
 /cluster/software/Gaussian/g16_C.01/l1.exe "/cluster/work/users/beto93/mol28/Gau-1309056.inp" -scrdir="/cluster/work/users/beto93/mol28/"
 Entering Link 1 = /cluster/software/Gaussian/g16_C.01/l1.exe PID=   1309089.
  
 Copyright (c) 1988-2019, Gaussian, Inc.  All Rights Reserved.
  
 This is part of the Gaussian(R) 16 program.  It is based on
 the Gaussian(R) 09 system (copyright 2009, Gaussian, Inc.),
 the Gaussian(R) 03 system (copyright 2003, Gaussian, Inc.),
 the Gaussian(R) 98 system (copyright 1998, Gaussian, Inc.),
 the Gaussian(R) 94 system (copyright 1995, Gaussian, Inc.),
 the Gaussian 92(TM) system (copyright 1992, Gaussian, Inc.),
 the Gaussian 90(TM) system (copyright 1990, Gaussian, Inc.),
 the Gaussian 88(TM) system (copyright 1988, Gaussian, Inc.),
 the Gaussian 86(TM) system (copyright 1986, Carnegie Mellon
 University), and the Gaussian 82(TM) system (copyright 1983,
 Carnegie Mellon University). Gaussian is a federally registered
 trademark of Gaussian, Inc.
  
 This software contains proprietary and confidential information,
 including trade secrets, belonging to Gaussian, Inc.
  
 This software is provided under written license and may be
 used, copied, transmitted, or stored only in accord with that
 written license.
  
 The following legend is applicable only to US Government
 contracts under FAR:
  
                    RESTRICTED RIGHTS LEGEND
  
 Use, reproduction and disclosure by the US Government is
 subject to restrictions as set forth in subparagraphs (a)
 and (c) of the Commercial Computer Software - Restricted
 Rights clause in FAR 52.227-19.
  
 Gaussian, Inc.
 340 Quinnipiac St., Bldg. 40, Wallingford CT 06492
  
  
 ---------------------------------------------------------------
 Warning -- This program may not be used in any manner that
 competes with the business of Gaussian, Inc. or will provide
 assistance to any competitor of Gaussian, Inc.  The licensee
 of this program is prohibited from giving any competitor of
 Gaussian, Inc. access to this program.  By using this program,
 the user acknowledges that Gaussian, Inc. is engaged in the
 business of creating and licensing software in the field of
 computational chemistry and represents and warrants to the
 licensee that it is not a competitor of Gaussian, Inc. and that
 it will not use this program in any manner prohibited above.
 ---------------------------------------------------------------
  

 Cite this work as:
 Gaussian 16, Revision C.01,
 M. J. Frisch, G. W. Trucks, H. B. Schlegel, G. E. Scuseria, 
 M. A. Robb, J. R. Cheeseman, G. Scalmani, V. Barone, 
 G. A. Petersson, H. Nakatsuji, X. Li, M. Caricato, A. V. Marenich, 
 J. Bloino, B. G. Janesko, R. Gomperts, B. Mennucci, H. P. Hratchian, 
 J. V. Ortiz, A. F. Izmaylov, J. L. Sonnenberg, D. Williams-Young, 
 F. Ding, F. Lipparini, F. Egidi, J. Goings, B. Peng, A. Petrone, 
 T. Henderson, D. Ranasinghe, V. G. Zakrzewski, J. Gao, N. Rega, 
 G. Zheng, W. Liang, M. Hada, M. Ehara, K. Toyota, R. Fukuda, 
 J. Hasegawa, M. Ishida, T. Nakajima, Y. Honda, O. Kitao, H. Nakai, 
 T. Vreven, K. Throssell, J. A. Montgomery, Jr., J. E. Peralta, 
 F. Ogliaro, M. J. Bearpark, J. J. Heyd, E. N. Brothers, K. N. Kudin, 
 V. N. Staroverov, T. A. Keith, R. Kobayashi, J. Normand, 
 K. Raghavachari, A. P. Rendell, J. C. Burant, S. S. Iyengar, 
 J. Tomasi, M. Cossi, J. M. Millam, M. Klene, C. Adamo, R. Cammi, 
 J. W. Ochterski, R. L. Martin, K. Morokuma, O. Farkas, 
 J. B. Foresman, and D. J. Fox, Gaussian, Inc., Wallingford CT, 2019.
 
 ******************************************
 Gaussian 16:  ES64L-G16RevC.01  3-Jul-2019
                18-Nov-2024 
 ******************************************
 %LindaWorkers=c3-24-ib
 %NProcShared=4
 Will use up to    4 processors via shared memory.
 %mem=25GB
 %chk=mol28.chk
 SetLPE:    new flags="-opt 'Tsnet.Node.lindarsharg: ssh'  -nodelist 'c3-24-ib.saga' -env GAUSS_MDEF=3355443200 -env GAUSS_EXEDIR="/cluster/software/Gaussian/g16_C.01/bsd:/cluster/software/Gaussian/g16_C.01""
 Will use up to    1 processors via Linda.
 -----------------------------------------------------------------
 #RHF/6-31G* int=nobasistransform Symmetry=None 5D 7F Pop=NBO7Read
 -----------------------------------------------------------------
 1/38=1,163=2,172=1/1;
 2/12=2,15=3,17=6,18=5,40=1/2;
 3/5=1,6=6,7=1,8=11,11=1,25=1,30=1,60=-1,116=1/1,2,3;
 4//1;
 5/5=2,38=5/2;
 6/7=2,8=2,9=2,10=2,28=1,40=2,113=1,114=1,124=2103/1,12;
 99/5=1,9=1/99;
 ---------
 mol28-NBO
 ---------
 Symbolic Z-matrix:
 Charge =  0 Multiplicity = 1
 O                     0.        0.        0.493 
 C                     0.        0.       -0.65734 
 
                          Input orientation:                          
 ---------------------------------------------------------------------
 Center     Atomic      Atomic             Coordinates (Angstroms)
 Number     Number       Type             X           Y           Z
 ---------------------------------------------------------------------
      1          8           0        0.000000    0.000000    0.493003
      2          6           0        0.000000    0.000000   -0.657337
 ---------------------------------------------------------------------
 Symmetry turned off by external request.
 Stoichiometry    CO
 Rotational constants (GHZ):           0.0000000          55.7032752          55.7032752
 Standard basis: 6-31G(d) (5D, 7F)
    28 basis functions,    56 primitive gaussians,    30 cartesian basis functions
     7 alpha electrons        7 beta electrons
       nuclear repulsion energy        22.0808683730 Hartrees.
 NAtoms=    2 NActive=    2 NUniq=    2 SFac= 1.00D+00 NAtFMM=   60 NAOKFM=F Big=F
 Integral buffers will be    131072 words long.
 Raffenetti 1 integral format.
 Two-electron integral symmetry is turned off.
 One-electron integrals computed using PRISM.
 NBasis=    28 RedAO= T EigKep=  1.59D-02  NBF=    28
 NBsUse=    28 1.00D-06 EigRej= -1.00D+00 NBFU=    28
 ExpMin= 1.69D-01 ExpMax= 5.48D+03 ExpMxC= 8.25D+02 IAcc=3 IRadAn=         5 AccDes= 0.00D+00
 Harris functional with IExCor=  205 and IRadAn=       5 diagonalized for initial guess.
 HarFok:  IExCor=  205 AccDes= 0.00D+00 IRadAn=         5 IDoV= 1 UseB2=F ITyADJ=14
 ICtDFT=  3500011 ScaDFX=  1.000000  1.000000  1.000000  1.000000
 FoFCou: FMM=F IPFlag=           0 FMFlag=      100000 FMFlg1=           0
         NFxFlg=           0 DoJE=T BraDBF=F KetDBF=T FulRan=T
         wScrn=  0.000000 ICntrl=       500 IOpCl=  0 I1Cent=   200000004 NGrid=           0
         NMat0=    1 NMatS0=      1 NMatT0=    0 NMatD0=    1 NMtDS0=    0 NMtDT0=    0
 Symmetry not used in FoFCou.
 Keep R1 ints in memory in canonical form, NReq=910006.
 Requested convergence on RMS density matrix=1.00D-08 within 128 cycles.
 Requested convergence on MAX density matrix=1.00D-06.
 Requested convergence on             energy=1.00D-06.
 No special actions if energy rises.
 SCF Done:  E(RHF) =  -112.733907325     A.U. after    9 cycles
            NFock=  9  Conv=0.66D-08     -V/T= 2.0032

 **********************************************************************

            Population analysis using the SCF Density.

 **********************************************************************

 Alpha  occ. eigenvalues --  -20.67230 -11.37212  -1.50358  -0.79475  -0.62327
 Alpha  occ. eigenvalues --   -0.62327  -0.54991
 Alpha virt. eigenvalues --    0.15262   0.15262   0.40919   0.73348   0.73348
 Alpha virt. eigenvalues --    0.76985   0.99444   1.11041   1.20815   1.20815
 Alpha virt. eigenvalues --    1.75680   1.75680   1.77235   1.82514   1.82514
 Alpha virt. eigenvalues --    2.24915   2.24915   2.75255   2.92780   2.92780
 Alpha virt. eigenvalues --    3.31553
          Condensed to atoms (all electrons):
               1          2
     1  O    7.727923   0.589278
     2  C    0.589278   5.093521
 Mulliken charges:
               1
     1  O   -0.317201
     2  C    0.317201
 Sum of Mulliken charges =  -0.00000
 Mulliken charges with hydrogens summed into heavy atoms:
               1
     1  O   -0.317201
     2  C    0.317201
 Electronic spatial extent (au):  <R**2>=             40.0151
 Charge=             -0.0000 electrons
 Dipole moment (field-independent basis, Debye):
    X=              0.0000    Y=              0.0000    Z=             -0.4380  Tot=              0.4380
 Quadrupole moment (field-independent basis, Debye-Ang):
   XX=             -9.9700   YY=             -9.9700   ZZ=            -12.0897
   XY=             -0.0000   XZ=             -0.0000   YZ=              0.0000
 Traceless Quadrupole moment (field-independent basis, Debye-Ang):
   XX=              0.7066   YY=              0.7066   ZZ=             -1.4132
   XY=             -0.0000   XZ=             -0.0000   YZ=              0.0000
 Octapole moment (field-independent basis, Debye-Ang**2):
  XXX=              0.0000  YYY=             -0.0000  ZZZ=              5.6144  XYY=              0.0000
  XXY=             -0.0000  XXZ=              0.8327  XZZ=              0.0000  YZZ=             -0.0000
  YYZ=              0.8327  XYZ=              0.0000
 Hexadecapole moment (field-independent basis, Debye-Ang**3):
 XXXX=             -7.9300 YYYY=             -7.9300 ZZZZ=            -35.6079 XXXY=             -0.0000
 XXXZ=             -0.0000 YYYX=             -0.0000 YYYZ=              0.0000 ZZZX=             -0.0000
 ZZZY=              0.0000 XXYY=             -2.6433 XXZZ=             -6.6242 YYZZ=             -6.6242
 XXYZ=              0.0000 YYXZ=             -0.0000 ZZXY=             -0.0000
 N-N= 2.208086837297D+01 E-N=-3.097288701261D+02  KE= 1.123776875021D+02
 Running external command "gaunbo7 R"
         input file       "/cluster/work/users/beto93/mol28/Gau-1309089.EIn"
         output file      "/cluster/work/users/beto93/mol28/Gau-1309089.EOu"
         message file     "/cluster/work/users/beto93/mol28/Gau-1309089.EMs"
         fchk file        "/cluster/work/users/beto93/mol28/Gau-1309089.EFC"
         mat. el file     "/cluster/work/users/beto93/mol28/Gau-1309089.EUF"

 Writing WrtUnf unformatted file "/cluster/work/users/beto93/mol28/Gau-1309089.EUF"
 Gaussian matrix elements                                         Version   2 NLab=11 Len12L=8 Len4L=8
 Write SHELL TO ATOM MAP                   from file      0 offset           0 length                   8 to matrix element file.
 Write SHELL TYPES                         from file      0 offset           0 length                   8 to matrix element file.
 Write NUMBER OF PRIMITIVES PER SHELL      from file      0 offset           0 length                   8 to matrix element file.
 Write PRIMITIVE EXPONENTS                 from file      0 offset           0 length                  22 to matrix element file.
 Write CONTRACTION COEFFICIENTS            from file      0 offset           0 length                  22 to matrix element file.
 Write P(S=P) CONTRACTION COEFFICIENTS     from file      0 offset           0 length                  22 to matrix element file.
 Write COORDINATES OF EACH SHELL           from file      0 offset           0 length                  24 to matrix element file.
 Write BONDS PER ATOM                      from file      0 offset           0 length                   2 to matrix element file.
 Write BONDED ATOMS                        from file      0 offset           0 length                   2 to matrix element file.
 Write BOND TYPES                          from file      0 offset           0 length                   2 to matrix element file.
 Write ONIOM CHARGE/MULT                   from file      0 offset           0 length                  32 to matrix element file.
 Write ONIOM ATOM LAYERS                   from file      0 offset           0 length                   2 to matrix element file.
 Write ONIOM ATOM MODIFIERS                from file      0 offset           0 length                   2 to matrix element file.
 Write ONIOM ATOM TYPES                    from file      0 offset           0 length                   2 to matrix element file.
 Write ONIOM LINK ATOMS                    from file      0 offset           0 length                   2 to matrix element file.
 Write ONIOM LINK CHARGES                  from file      0 offset           0 length                   2 to matrix element file.
 Write ONIOM LINK DISTANCES                from file      0 offset           0 length                   8 to matrix element file.
 Write SYMINF INTS                         from file      0 offset           0 length                  26 to matrix element file.
 Write ROTTR TO SO                         from file      0 offset           0 length                  12 to matrix element file.
 Write GAUSSIAN SCALARS                    from file    501 offset           0 to matrix element file.
 Write OPTIMIZATION FLAGS                  from file      0 offset           0 length                   2 to matrix element file.
 Write INTEGER ISO                         from file      0 offset           0 length                   2 to matrix element file.
 Write REAL ZEFFECTIVE                     from file      0 offset           0 length                   2 to matrix element file.
 Write REAL ZNUCLEAR                       from file      0 offset           0 length                   2 to matrix element file.
 Write MULLIKEN CHARGES                    from file      0 offset           0 length                   2 to matrix element file.
 Write NUCLEAR GRADIENT                    from file  10584 offset           0 length                   6 to matrix element file.
 Array NUCLEAR FORCE CONSTANTS              on  file  10585 does not exist.
 Write ELECTRIC DIPOLE MOMENT              from file      0 offset           0 length                   3 to matrix element file.
 Write NON-ADIABATIC COUPLING              from file  10810 offset           0 length                   6 to matrix element file.
 Write FINITE EM FIELD                     from file  10521 offset           0 length                  35 to matrix element file.
 Write OVERLAP                             from file  10514 offset           0 length                 406 to matrix element file.
 Write CORE HAMILTONIAN ALPHA              from file  10515 offset           0 length                 406 to matrix element file.
 Write CORE HAMILTONIAN BETA               from file  10515 offset         406 length                 406 to matrix element file.
 Write KINETIC ENERGY                      from file  10516 offset           0 length                 406 to matrix element file.
 Write ORTHOGONAL BASIS                    from file  10685 offset           0 length                 784 to matrix element file.
 Write DIPOLE INTEGRALS                    from file  10518 offset           0 length                1218 to matrix element file.
 Array DIP VEL INTEGRALS                    on  file  10572 does not exist.
 Array R X DEL INTEGRALS                    on  file  10572 does not exist.
 Write ALPHA ORBITAL ENERGIES              from file      0 offset           0 length                  28 to matrix element file.
 Write ALPHA MO COEFFICIENTS               from file  10524 offset           0 length                 784 to matrix element file.
 Write ALPHA DENSITY MATRIX                from file      0 offset           0 length                 406 to matrix element file.
 Write ALPHA FOCK MATRIX                   from file  10536 offset           0 length                 406 to matrix element file.
 Write ENERGY-WEIGHTED DENSITY             from file  10571 offset           0 length                 406 to matrix element file.
 Write ALPHA SCF DENSITY MATRIX            from file      0 offset           0 length                 406 to matrix element file.
 No 2e integrals to process.
 Perform NBO analysis...executing G16NBO...

 *********************************** NBO 7.0 ***********************************
             N A T U R A L   A T O M I C   O R B I T A L   A N D
          N A T U R A L   B O N D   O R B I T A L   A N A L Y S I S
 **************************** Espen Tangen (S101595) ***************************
  (c) Copyright 1996-2021 Board of Regents of the University of Wisconsin System
      on behalf of the Theoretical Chemistry Institute.  All rights reserved.

          Cite this program [NBO 7.0.10 (8-Feb-2021)] as:

          NBO 7.0.  E. D. Glendening, J. K. Badenhoop, A. E. Reed,
          J. E. Carpenter, J. A. Bohmann, C. M. Morales, P. Karafiloglou,
          C. R. Landis, and F. Weinhold, Theoretical Chemistry Institute,
          University of Wisconsin, Madison, WI (2018)

       /NPA    / : Natural Population Analysis
       /AOPNAO / : Print the AO to PNAO transformation
       /AONAO  / : Print the AO to NAO transformation
       /AOMO   / : Print the MOs in the AO basis
       /BOAO   / : Print the AO bond-order matrix
       /DMAO   / : Print the AO density matrix
       /DMPNAO / : Print the PNAO density matrix
       /DMNAO  / : Print the NAO density matrix
       /DMMO   / : Print the MO density matrix
       /SAO    / : Print the AO overlap matrix
       /SPNAO  / : Print the PNAO overlap matrix
       /DETAIL / : Write details of NBO search
       /ARCHIVE/ : Write the archive file to lfn47
       /AOINFO / : Write AO information to lfn31
       /FILE   / : Set to mol28.gen*

 Filename set to mol28.gen1

 Job title: mol28-NBO


 MOs in the AO basis:

           AO          1       2       3       4       5       6       7       8
      ------------ ------- ------- ------- ------- ------- ------- ------- -------
   1.  O 1 (s)      0.9958 -0.0006 -0.2026 -0.1067  0.0000  0.0000  0.0117  0.0000
   2.  O 1 (s)      0.0225  0.0005  0.4462  0.2585  0.0000  0.0000 -0.0303  0.0000
   3.  O 1 (px)     0.0000  0.0000  0.0000  0.0000  0.5042 -0.2337  0.0000 -0.3172
   4.  O 1 (py)     0.0000  0.0000  0.0000  0.0000  0.2337  0.5042  0.0000 -0.1468
   5.  O 1 (pz)    -0.0022  0.0001 -0.1544  0.4898  0.0000  0.0000  0.2703  0.0000
   6.  O 1 (s)     -0.0100 -0.0043  0.3890  0.3839  0.0000  0.0000 -0.0110  0.0000
   7.  O 1 (px)     0.0000  0.0000  0.0000  0.0000  0.3415 -0.1583  0.0000 -0.4426
   8.  O 1 (py)     0.0000  0.0000  0.0000  0.0000  0.1583  0.3415  0.0000 -0.2049
   9.  O 1 (pz)     0.0028  0.0036 -0.0493  0.2473  0.0000  0.0000  0.1629  0.0000
  10.  O 1 (d5)     0.0004 -0.0009  0.0144 -0.0222  0.0000  0.0000 -0.0111  0.0000
  11.  O 1 (d2)     0.0000  0.0000  0.0000  0.0000 -0.0372  0.0173  0.0000 -0.0059
  12.  O 1 (d3)     0.0000  0.0000  0.0000  0.0000 -0.0173 -0.0372  0.0000 -0.0027
  13.  O 1 (d4)     0.0000  0.0000  0.0000  0.0000  0.0000  0.0000  0.0000  0.0000
  14.  O 1 (d1)     0.0000  0.0000  0.0000  0.0000  0.0000  0.0000  0.0000  0.0000
  15.  C 2 (s)      0.0002  0.9964 -0.1104  0.1323  0.0000  0.0000 -0.1385  0.0000
  16.  C 2 (s)     -0.0003  0.0223  0.2090 -0.2934  0.0000  0.0000  0.2676  0.0000
  17.  C 2 (px)     0.0000  0.0000  0.0000  0.0000  0.2539 -0.1177  0.0000  0.4067
  18.  C 2 (py)     0.0000  0.0000  0.0000  0.0000  0.1177  0.2539  0.0000  0.1883
  19.  C 2 (pz)    -0.0005  0.0044  0.2047 -0.1152  0.0000  0.0000 -0.4470  0.0000
  20.  C 2 (s)      0.0047 -0.0023  0.0325 -0.1907  0.0000  0.0000  0.5981  0.0000
  21.  C 2 (px)     0.0000  0.0000  0.0000  0.0000  0.1096 -0.0508  0.0000  0.6750
  22.  C 2 (py)     0.0000  0.0000  0.0000  0.0000  0.0508  0.1096  0.0000  0.3125
  23.  C 2 (pz)     0.0030  0.0009 -0.0205  0.0286  0.0000  0.0000 -0.1565  0.0000
  24.  C 2 (d5)    -0.0009  0.0020  0.0395 -0.0177  0.0000  0.0000 -0.0314  0.0000
  25.  C 2 (d2)     0.0000  0.0000  0.0000  0.0000  0.0413 -0.0191  0.0000 -0.0100
  26.  C 2 (d3)     0.0000  0.0000  0.0000  0.0000  0.0191  0.0413  0.0000 -0.0046
  27.  C 2 (d4)     0.0000  0.0000  0.0000  0.0000  0.0000  0.0000  0.0000  0.0000
  28.  C 2 (d1)     0.0000  0.0000  0.0000  0.0000  0.0000  0.0000  0.0000  0.0000

           AO          9      10      11      12      13      14      15      16
      ------------ ------- ------- ------- ------- ------- ------- ------- -------
   1.  O 1 (s)      0.0000 -0.0956  0.0000  0.0000  0.0175  0.0747  0.0198  0.0000
   2.  O 1 (s)      0.0000  0.1160  0.0000  0.0000 -0.0734 -0.2769 -0.1199  0.0000
   3.  O 1 (px)     0.1468  0.0000 -0.0338 -0.0090  0.0000  0.0000  0.0000 -0.8865
   4.  O 1 (py)    -0.3172  0.0000  0.0090 -0.0338  0.0000  0.0000  0.0000 -0.3395
   5.  O 1 (pz)     0.0000 -0.0921  0.0000  0.0000 -0.1052  0.0181 -0.8512  0.0000
   6.  O 1 (s)      0.0000  2.2085  0.0000  0.0000 -0.3274 -0.2570 -0.5040  0.0000
   7.  O 1 (px)     0.2049  0.0000 -0.0347 -0.0092  0.0000  0.0000  0.0000  1.1990
   8.  O 1 (py)    -0.4426  0.0000  0.0092 -0.0347  0.0000  0.0000  0.0000  0.4591
   9.  O 1 (pz)     0.0000 -0.8891  0.0000  0.0000  0.3271  1.0879  1.1921  0.0000
  10.  O 1 (d5)     0.0000  0.0637  0.0000  0.0000 -0.0360  0.1709 -0.1709  0.0000
  11.  O 1 (d2)     0.0027  0.0000  0.0960  0.0254  0.0000  0.0000  0.0000  0.0324
  12.  O 1 (d3)    -0.0059  0.0000 -0.0254  0.0960  0.0000  0.0000  0.0000  0.0124
  13.  O 1 (d4)     0.0000  0.0000  0.0000  0.0000  0.0000  0.0000  0.0000  0.0000
  14.  O 1 (d1)     0.0000  0.0000  0.0000  0.0000  0.0000  0.0000  0.0000  0.0000
  15.  C 2 (s)      0.0000  0.0353  0.0000  0.0000  0.0690 -0.0358  0.0807  0.0000
  16.  C 2 (s)      0.0000  0.0925  0.0000  0.0000 -1.3136  1.0236  0.1959  0.0000
  17.  C 2 (px)    -0.1883  0.0000 -1.0163 -0.2692  0.0000  0.0000  0.0000  0.1193
  18.  C 2 (py)     0.4067  0.0000  0.2692 -1.0163  0.0000  0.0000  0.0000  0.0457
  19.  C 2 (pz)     0.0000 -0.1080  0.0000  0.0000  0.6201  0.8714 -0.2904  0.0000
  20.  C 2 (s)      0.0000 -2.0594  0.0000  0.0000  1.6568 -0.0799  0.5869  0.0000
  21.  C 2 (px)    -0.3125  0.0000  1.0513  0.2785  0.0000  0.0000  0.0000 -0.5183
  22.  C 2 (py)     0.6750  0.0000 -0.2785  1.0513  0.0000  0.0000  0.0000 -0.1984
  23.  C 2 (pz)     0.0000 -1.9543  0.0000  0.0000 -0.3687 -0.3047  0.4899  0.0000
  24.  C 2 (d5)     0.0000 -0.0175  0.0000  0.0000  0.0258 -0.0730  0.3046  0.0000
  25.  C 2 (d2)     0.0046  0.0000 -0.0256 -0.0068  0.0000  0.0000  0.0000 -0.0828
  26.  C 2 (d3)    -0.0100  0.0000  0.0068 -0.0256  0.0000  0.0000  0.0000 -0.0317
  27.  C 2 (d4)     0.0000  0.0000  0.0000  0.0000  0.0000  0.0000  0.0000  0.0000
  28.  C 2 (d1)     0.0000  0.0000  0.0000  0.0000  0.0000  0.0000  0.0000  0.0000

           AO         17      18      19      20      21      22      23      24
      ------------ ------- ------- ------- ------- ------- ------- ------- -------
   1.  O 1 (s)      0.0000  0.0000  0.0000  0.0361  0.0000  0.0000  0.0000  0.0000
   2.  O 1 (s)      0.0000  0.0000  0.0000 -1.7010  0.0000  0.0000  0.0000  0.0000
   3.  O 1 (px)     0.3395  0.0000  0.0000  0.0000  0.0869 -0.1923  0.0000  0.0000
   4.  O 1 (py)    -0.8865  0.0000  0.0000  0.0000 -0.1923 -0.0869  0.0000  0.0000
   5.  O 1 (pz)     0.0000  0.0000  0.0000  0.0459  0.0000  0.0000  0.0000  0.0000
   6.  O 1 (s)      0.0000  0.0000  0.0000  4.1101  0.0000  0.0000  0.0000  0.0000
   7.  O 1 (px)    -0.4591  0.0000  0.0000  0.0000  0.0137 -0.0304  0.0000  0.0000
   8.  O 1 (py)     1.1990  0.0000  0.0000  0.0000 -0.0304 -0.0137  0.0000  0.0000
   9.  O 1 (pz)     0.0000  0.0000  0.0000 -1.3578  0.0000  0.0000  0.0000  0.0000
  10.  O 1 (d5)     0.0000  0.0000  0.0000 -0.1581  0.0000  0.0000  0.0000  0.0000
  11.  O 1 (d2)    -0.0124  0.0000  0.0000  0.0000  0.2323 -0.5141  0.0000  0.0000
  12.  O 1 (d3)     0.0324  0.0000  0.0000  0.0000 -0.5141 -0.2323  0.0000  0.0000
  13.  O 1 (d4)     0.0000  0.4952  0.3337  0.0000  0.0000  0.0000  0.4593  0.6751
  14.  O 1 (d1)     0.0000 -0.3337  0.4952  0.0000  0.0000  0.0000  0.6751 -0.4593
  15.  C 2 (s)      0.0000  0.0000  0.0000 -0.0287  0.0000  0.0000  0.0000  0.0000
  16.  C 2 (s)      0.0000  0.0000  0.0000 -0.0732  0.0000  0.0000  0.0000  0.0000
  17.  C 2 (px)    -0.0457  0.0000  0.0000  0.0000  0.1159 -0.2565  0.0000  0.0000
  18.  C 2 (py)     0.1193  0.0000  0.0000  0.0000 -0.2565 -0.1159  0.0000  0.0000
  19.  C 2 (pz)     0.0000  0.0000  0.0000 -0.2009  0.0000  0.0000  0.0000  0.0000
  20.  C 2 (s)      0.0000  0.0000  0.0000 -2.4246  0.0000  0.0000  0.0000  0.0000
  21.  C 2 (px)     0.1984  0.0000  0.0000  0.0000 -0.0538  0.1189  0.0000  0.0000
  22.  C 2 (py)    -0.5183  0.0000  0.0000  0.0000  0.1189  0.0538  0.0000  0.0000
  23.  C 2 (pz)     0.0000  0.0000  0.0000 -1.5736  0.0000  0.0000  0.0000  0.0000
  24.  C 2 (d5)     0.0000  0.0000  0.0000 -0.2881  0.0000  0.0000  0.0000  0.0000
  25.  C 2 (d2)     0.0317  0.0000  0.0000  0.0000 -0.2619  0.5796  0.0000  0.0000
  26.  C 2 (d3)    -0.0828  0.0000  0.0000  0.0000  0.5796  0.2619  0.0000  0.0000
  27.  C 2 (d4)     0.0000  0.5946  0.4006  0.0000  0.0000  0.0000 -0.4014 -0.5900
  28.  C 2 (d1)     0.0000 -0.4006  0.5946  0.0000  0.0000  0.0000 -0.5900  0.4014

           AO         25      26      27      28
      ------------ ------- ------- ------- -------
   1.  O 1 (s)      0.0295  0.0000  0.0000 -0.0671
   2.  O 1 (s)     -0.8114  0.0000  0.0000 -0.5066
   3.  O 1 (px)     0.0000 -0.0480  0.0417  0.0000
   4.  O 1 (py)     0.0000 -0.0417 -0.0480  0.0000
   5.  O 1 (pz)     0.7007  0.0000  0.0000 -0.4845
   6.  O 1 (s)      0.2774  0.0000  0.0000  3.1774
   7.  O 1 (px)     0.0000 -0.3922  0.3412  0.0000
   8.  O 1 (py)     0.0000 -0.3412 -0.3922  0.0000
   9.  O 1 (pz)    -0.4765  0.0000  0.0000 -1.8479
  10.  O 1 (d5)     0.2392  0.0000  0.0000  1.5115
  11.  O 1 (d2)     0.0000  0.8163 -0.7102  0.0000
  12.  O 1 (d3)     0.0000  0.7102  0.8163  0.0000
  13.  O 1 (d4)     0.0000  0.0000  0.0000  0.0000
  14.  O 1 (d1)     0.0000  0.0000  0.0000  0.0000
  15.  C 2 (s)     -0.0771  0.0000  0.0000 -0.0945
  16.  C 2 (s)     -0.2290  0.0000  0.0000 -1.6857
  17.  C 2 (px)     0.0000  0.2605 -0.2267  0.0000
  18.  C 2 (py)     0.0000  0.2267  0.2605  0.0000
  19.  C 2 (pz)     0.0922  0.0000  0.0000 -1.5224
  20.  C 2 (s)      0.1525  0.0000  0.0000 -1.4649
  21.  C 2 (px)     0.0000  0.2202 -0.1916  0.0000
  22.  C 2 (py)     0.0000  0.1916  0.2202  0.0000
  23.  C 2 (pz)     0.2407  0.0000  0.0000 -0.8061
  24.  C 2 (d5)     1.0886  0.0000  0.0000 -0.7423
  25.  C 2 (d2)     0.0000  0.7916 -0.6887  0.0000
  26.  C 2 (d3)     0.0000  0.6887  0.7916  0.0000
  27.  C 2 (d4)     0.0000  0.0000  0.0000  0.0000
  28.  C 2 (d1)     0.0000  0.0000  0.0000  0.0000


 AO overlap matrix:

           AO          1       2       3       4       5       6       7       8
      ------------ ------- ------- ------- ------- ------- ------- ------- -------
   1.  O 1 (s)      1.0000  0.2337  0.0000  0.0000  0.0000  0.1673  0.0000  0.0000
   2.  O 1 (s)      0.2337  1.0000  0.0000  0.0000  0.0000  0.7636  0.0000  0.0000
   3.  O 1 (px)     0.0000  0.0000  1.0000  0.0000  0.0000  0.0000  0.5015  0.0000
   4.  O 1 (py)     0.0000  0.0000  0.0000  1.0000  0.0000  0.0000  0.0000  0.5015
   5.  O 1 (pz)     0.0000  0.0000  0.0000  0.0000  1.0000  0.0000  0.0000  0.0000
   6.  O 1 (s)      0.1673  0.7636  0.0000  0.0000  0.0000  1.0000  0.0000  0.0000
   7.  O 1 (px)     0.0000  0.0000  0.5015  0.0000  0.0000  0.0000  1.0000  0.0000
   8.  O 1 (py)     0.0000  0.0000  0.0000  0.5015  0.0000  0.0000  0.0000  1.0000
   9.  O 1 (pz)     0.0000  0.0000  0.0000  0.0000  0.5015  0.0000  0.0000  0.0000
  10.  O 1 (d5)     0.0000  0.0000  0.0000  0.0000  0.0000  0.0000  0.0000  0.0000
  11.  O 1 (d2)     0.0000  0.0000  0.0000  0.0000  0.0000  0.0000  0.0000  0.0000
  12.  O 1 (d3)     0.0000  0.0000  0.0000  0.0000  0.0000  0.0000  0.0000  0.0000
  13.  O 1 (d4)     0.0000  0.0000  0.0000  0.0000  0.0000  0.0000  0.0000  0.0000
  14.  O 1 (d1)     0.0000  0.0000  0.0000  0.0000  0.0000  0.0000  0.0000  0.0000
  15.  C 2 (s)      0.0000  0.0125  0.0000  0.0000 -0.0285  0.0761  0.0000  0.0000
  16.  C 2 (s)      0.0275  0.2050  0.0000  0.0000 -0.2313  0.4094  0.0000  0.0000
  17.  C 2 (px)     0.0000  0.0000  0.1103  0.0000  0.0000  0.0000  0.3115  0.0000
  18.  C 2 (py)     0.0000  0.0000  0.0000  0.1103  0.0000  0.0000  0.0000  0.3115
  19.  C 2 (pz)     0.0547  0.3151  0.0000  0.0000 -0.3004  0.3519  0.0000  0.0000
  20.  C 2 (s)      0.0548  0.3109  0.0000  0.0000 -0.1503  0.5876  0.0000  0.0000
  21.  C 2 (px)     0.0000  0.0000  0.1683  0.0000  0.0000  0.0000  0.5717  0.0000
  22.  C 2 (py)     0.0000  0.0000  0.0000  0.1683  0.0000  0.0000  0.0000  0.5717
  23.  C 2 (pz)     0.0959  0.4716  0.0000  0.0000 -0.0646  0.6458  0.0000  0.0000
  24.  C 2 (d5)     0.0795  0.3355  0.0000  0.0000 -0.3058  0.1734  0.0000  0.0000
  25.  C 2 (d2)     0.0000  0.0000  0.2142  0.0000  0.0000  0.0000  0.2659  0.0000
  26.  C 2 (d3)     0.0000  0.0000  0.0000  0.2142  0.0000  0.0000  0.0000  0.2659
  27.  C 2 (d4)     0.0000  0.0000  0.0000  0.0000  0.0000  0.0000  0.0000  0.0000
  28.  C 2 (d1)     0.0000  0.0000  0.0000  0.0000  0.0000  0.0000  0.0000  0.0000

           AO          9      10      11      12      13      14      15      16
      ------------ ------- ------- ------- ------- ------- ------- ------- -------
   1.  O 1 (s)      0.0000  0.0000  0.0000  0.0000  0.0000  0.0000  0.0000  0.0275
   2.  O 1 (s)      0.0000  0.0000  0.0000  0.0000  0.0000  0.0000  0.0125  0.2050
   3.  O 1 (px)     0.0000  0.0000  0.0000  0.0000  0.0000  0.0000  0.0000  0.0000
   4.  O 1 (py)     0.0000  0.0000  0.0000  0.0000  0.0000  0.0000  0.0000  0.0000
   5.  O 1 (pz)     0.5015  0.0000  0.0000  0.0000  0.0000  0.0000 -0.0285 -0.2313
   6.  O 1 (s)      0.0000  0.0000  0.0000  0.0000  0.0000  0.0000  0.0761  0.4094
   7.  O 1 (px)     0.0000  0.0000  0.0000  0.0000  0.0000  0.0000  0.0000  0.0000
   8.  O 1 (py)     0.0000  0.0000  0.0000  0.0000  0.0000  0.0000  0.0000  0.0000
   9.  O 1 (pz)     1.0000  0.0000  0.0000  0.0000  0.0000  0.0000 -0.1624 -0.5999
  10.  O 1 (d5)     0.0000  1.0000  0.0000  0.0000  0.0000  0.0000  0.1232  0.2896
  11.  O 1 (d2)     0.0000  0.0000  1.0000  0.0000  0.0000  0.0000  0.0000  0.0000
  12.  O 1 (d3)     0.0000  0.0000  0.0000  1.0000  0.0000  0.0000  0.0000  0.0000
  13.  O 1 (d4)     0.0000  0.0000  0.0000  0.0000  1.0000  0.0000  0.0000  0.0000
  14.  O 1 (d1)     0.0000  0.0000  0.0000  0.0000  0.0000  1.0000  0.0000  0.0000
  15.  C 2 (s)     -0.1624  0.1232  0.0000  0.0000  0.0000  0.0000  1.0000  0.2191
  16.  C 2 (s)     -0.5999  0.2896  0.0000  0.0000  0.0000  0.0000  0.2191  1.0000
  17.  C 2 (px)     0.0000  0.0000 -0.2929  0.0000  0.0000  0.0000  0.0000  0.0000
  18.  C 2 (py)     0.0000  0.0000  0.0000 -0.2929  0.0000  0.0000  0.0000  0.0000
  19.  C 2 (pz)    -0.2405  0.2470  0.0000  0.0000  0.0000  0.0000  0.0000  0.0000
  20.  C 2 (s)     -0.5105  0.0906  0.0000  0.0000  0.0000  0.0000  0.1843  0.8123
  21.  C 2 (px)     0.0000  0.0000 -0.1757  0.0000  0.0000  0.0000  0.0000  0.0000
  22.  C 2 (py)     0.0000  0.0000  0.0000 -0.1757  0.0000  0.0000  0.0000  0.0000
  23.  C 2 (pz)     0.0107 -0.0693  0.0000  0.0000  0.0000  0.0000  0.0000  0.0000
  24.  C 2 (d5)     0.0141  0.1092  0.0000  0.0000  0.0000  0.0000  0.0000  0.0000
  25.  C 2 (d2)     0.0000  0.0000 -0.4200  0.0000  0.0000  0.0000  0.0000  0.0000
  26.  C 2 (d3)     0.0000  0.0000  0.0000 -0.4200  0.0000  0.0000  0.0000  0.0000
  27.  C 2 (d4)     0.0000  0.0000  0.0000  0.0000  0.1510  0.0000  0.0000  0.0000
  28.  C 2 (d1)     0.0000  0.0000  0.0000  0.0000  0.0000  0.1510  0.0000  0.0000

           AO         17      18      19      20      21      22      23      24
      ------------ ------- ------- ------- ------- ------- ------- ------- -------
   1.  O 1 (s)      0.0000  0.0000  0.0547  0.0548  0.0000  0.0000  0.0959  0.0795
   2.  O 1 (s)      0.0000  0.0000  0.3151  0.3109  0.0000  0.0000  0.4716  0.3355
   3.  O 1 (px)     0.1103  0.0000  0.0000  0.0000  0.1683  0.0000  0.0000  0.0000
   4.  O 1 (py)     0.0000  0.1103  0.0000  0.0000  0.0000  0.1683  0.0000  0.0000
   5.  O 1 (pz)     0.0000  0.0000 -0.3004 -0.1503  0.0000  0.0000 -0.0646 -0.3058
   6.  O 1 (s)      0.0000  0.0000  0.3519  0.5876  0.0000  0.0000  0.6458  0.1734
   7.  O 1 (px)     0.3115  0.0000  0.0000  0.0000  0.5717  0.0000  0.0000  0.0000
   8.  O 1 (py)     0.0000  0.3115  0.0000  0.0000  0.0000  0.5717  0.0000  0.0000
   9.  O 1 (pz)     0.0000  0.0000 -0.2405 -0.5105  0.0000  0.0000  0.0107  0.0141
  10.  O 1 (d5)     0.0000  0.0000  0.2470  0.0906  0.0000  0.0000 -0.0693  0.1092
  11.  O 1 (d2)    -0.2929  0.0000  0.0000  0.0000 -0.1757  0.0000  0.0000  0.0000
  12.  O 1 (d3)     0.0000 -0.2929  0.0000  0.0000  0.0000 -0.1757  0.0000  0.0000
  13.  O 1 (d4)     0.0000  0.0000  0.0000  0.0000  0.0000  0.0000  0.0000  0.0000
  14.  O 1 (d1)     0.0000  0.0000  0.0000  0.0000  0.0000  0.0000  0.0000  0.0000
  15.  C 2 (s)      0.0000  0.0000  0.0000  0.1843  0.0000  0.0000  0.0000  0.0000
  16.  C 2 (s)      0.0000  0.0000  0.0000  0.8123  0.0000  0.0000  0.0000  0.0000
  17.  C 2 (px)     1.0000  0.0000  0.0000  0.0000  0.5698  0.0000  0.0000  0.0000
  18.  C 2 (py)     0.0000  1.0000  0.0000  0.0000  0.0000  0.5698  0.0000  0.0000
  19.  C 2 (pz)     0.0000  0.0000  1.0000  0.0000  0.0000  0.0000  0.5698  0.0000
  20.  C 2 (s)      0.0000  0.0000  0.0000  1.0000  0.0000  0.0000  0.0000  0.0000
  21.  C 2 (px)     0.5698  0.0000  0.0000  0.0000  1.0000  0.0000  0.0000  0.0000
  22.  C 2 (py)     0.0000  0.5698  0.0000  0.0000  0.0000  1.0000  0.0000  0.0000
  23.  C 2 (pz)     0.0000  0.0000  0.5698  0.0000  0.0000  0.0000  1.0000  0.0000
  24.  C 2 (d5)     0.0000  0.0000  0.0000  0.0000  0.0000  0.0000  0.0000  1.0000
  25.  C 2 (d2)     0.0000  0.0000  0.0000  0.0000  0.0000  0.0000  0.0000  0.0000
  26.  C 2 (d3)     0.0000  0.0000  0.0000  0.0000  0.0000  0.0000  0.0000  0.0000
  27.  C 2 (d4)     0.0000  0.0000  0.0000  0.0000  0.0000  0.0000  0.0000  0.0000
  28.  C 2 (d1)     0.0000  0.0000  0.0000  0.0000  0.0000  0.0000  0.0000  0.0000

           AO         25      26      27      28
      ------------ ------- ------- ------- -------
   1.  O 1 (s)      0.0000  0.0000  0.0000  0.0000
   2.  O 1 (s)      0.0000  0.0000  0.0000  0.0000
   3.  O 1 (px)     0.2142  0.0000  0.0000  0.0000
   4.  O 1 (py)     0.0000  0.2142  0.0000  0.0000
   5.  O 1 (pz)     0.0000  0.0000  0.0000  0.0000
   6.  O 1 (s)      0.0000  0.0000  0.0000  0.0000
   7.  O 1 (px)     0.2659  0.0000  0.0000  0.0000
   8.  O 1 (py)     0.0000  0.2659  0.0000  0.0000
   9.  O 1 (pz)     0.0000  0.0000  0.0000  0.0000
  10.  O 1 (d5)     0.0000  0.0000  0.0000  0.0000
  11.  O 1 (d2)    -0.4200  0.0000  0.0000  0.0000
  12.  O 1 (d3)     0.0000 -0.4200  0.0000  0.0000
  13.  O 1 (d4)     0.0000  0.0000  0.1510  0.0000
  14.  O 1 (d1)     0.0000  0.0000  0.0000  0.1510
  15.  C 2 (s)      0.0000  0.0000  0.0000  0.0000
  16.  C 2 (s)      0.0000  0.0000  0.0000  0.0000
  17.  C 2 (px)     0.0000  0.0000  0.0000  0.0000
  18.  C 2 (py)     0.0000  0.0000  0.0000  0.0000
  19.  C 2 (pz)     0.0000  0.0000  0.0000  0.0000
  20.  C 2 (s)      0.0000  0.0000  0.0000  0.0000
  21.  C 2 (px)     0.0000  0.0000  0.0000  0.0000
  22.  C 2 (py)     0.0000  0.0000  0.0000  0.0000
  23.  C 2 (pz)     0.0000  0.0000  0.0000  0.0000
  24.  C 2 (d5)     0.0000  0.0000  0.0000  0.0000
  25.  C 2 (d2)     1.0000  0.0000  0.0000  0.0000
  26.  C 2 (d3)     0.0000  1.0000  0.0000  0.0000
  27.  C 2 (d4)     0.0000  0.0000  1.0000  0.0000
  28.  C 2 (d1)     0.0000  0.0000  0.0000  1.0000


 AO bond-order matrix:

           AO          1       2       3       4       5       6       7       8
      ------------ ------- ------- ------- ------- ------- ------- ------- -------
   1.  O 1 (s)      2.0885 -0.1918  0.0000  0.0000 -0.0400 -0.2598  0.0000  0.0000
   2.  O 1 (s)     -0.1918  0.5346  0.0000  0.0000  0.0990  0.5458  0.0000  0.0000
   3.  O 1 (px)     0.0000  0.0000  0.6176  0.0000  0.0000  0.0000  0.4183  0.0000
   4.  O 1 (py)     0.0000  0.0000  0.0000  0.6176  0.0000  0.0000  0.0000  0.4183
   5.  O 1 (pz)    -0.0400  0.0990  0.0000  0.0000  0.6735  0.2500  0.0000  0.0000
   6.  O 1 (s)     -0.2598  0.5458  0.0000  0.0000  0.2500  0.5978  0.0000  0.0000
   7.  O 1 (px)     0.0000  0.0000  0.4183  0.0000  0.0000  0.0000  0.2834  0.0000
   8.  O 1 (py)     0.0000  0.0000  0.0000  0.4183  0.0000  0.0000  0.0000  0.2834
   9.  O 1 (pz)    -0.0235  0.0741  0.0000  0.0000  0.3456  0.1479  0.0000  0.0000
  10.  O 1 (d5)    -0.0006  0.0021  0.0000  0.0000 -0.0322 -0.0056  0.0000  0.0000
  11.  O 1 (d2)     0.0000  0.0000 -0.0456  0.0000  0.0000  0.0000 -0.0309  0.0000
  12.  O 1 (d3)     0.0000  0.0000  0.0000 -0.0456  0.0000  0.0000  0.0000 -0.0309
  13.  O 1 (d4)     0.0000  0.0000  0.0000  0.0000  0.0000  0.0000  0.0000  0.0000
  14.  O 1 (d1)     0.0000  0.0000  0.0000  0.0000  0.0000  0.0000  0.0000  0.0000
  15.  C 2 (s)      0.0125 -0.0208  0.0000  0.0000  0.0890  0.0101  0.0000  0.0000
  16.  C 2 (s)     -0.0165  0.0186  0.0000  0.0000 -0.2072 -0.0687  0.0000  0.0000
  17.  C 2 (px)     0.0000  0.0000  0.3111  0.0000  0.0000  0.0000  0.2107  0.0000
  18.  C 2 (py)     0.0000  0.0000  0.0000  0.3111  0.0000  0.0000  0.0000  0.2107
  19.  C 2 (pz)    -0.0698  0.1502  0.0000  0.0000 -0.4176  0.0806  0.0000  0.0000
  20.  C 2 (s)      0.0509 -0.1057  0.0000  0.0000  0.1264 -0.1344  0.0000  0.0000
  21.  C 2 (px)     0.0000  0.0000  0.1342  0.0000  0.0000  0.0000  0.0909  0.0000
  22.  C 2 (py)     0.0000  0.0000  0.0000  0.1342  0.0000  0.0000  0.0000  0.0909
  23.  C 2 (pz)     0.0045  0.0061  0.0000  0.0000 -0.0502  0.0094  0.0000  0.0000
  24.  C 2 (d5)    -0.0147  0.0280  0.0000  0.0000 -0.0465  0.0178  0.0000  0.0000
  25.  C 2 (d2)     0.0000  0.0000  0.0505  0.0000  0.0000  0.0000  0.0342  0.0000
  26.  C 2 (d3)     0.0000  0.0000  0.0000  0.0505  0.0000  0.0000  0.0000  0.0342
  27.  C 2 (d4)     0.0000  0.0000  0.0000  0.0000  0.0000  0.0000  0.0000  0.0000
  28.  C 2 (d1)     0.0000  0.0000  0.0000  0.0000  0.0000  0.0000  0.0000  0.0000

           AO          9      10      11      12      13      14      15      16
      ------------ ------- ------- ------- ------- ------- ------- ------- -------
   1.  O 1 (s)     -0.0235 -0.0006  0.0000  0.0000  0.0000  0.0000  0.0125 -0.0165
   2.  O 1 (s)      0.0741  0.0021  0.0000  0.0000  0.0000  0.0000 -0.0208  0.0186
   3.  O 1 (px)     0.0000  0.0000 -0.0456  0.0000  0.0000  0.0000  0.0000  0.0000
   4.  O 1 (py)     0.0000  0.0000  0.0000 -0.0456  0.0000  0.0000  0.0000  0.0000
   5.  O 1 (pz)     0.3456 -0.0322  0.0000  0.0000  0.0000  0.0000  0.0890 -0.2072
   6.  O 1 (s)      0.1479 -0.0056  0.0000  0.0000  0.0000  0.0000  0.0101 -0.0687
   7.  O 1 (px)     0.0000  0.0000 -0.0309  0.0000  0.0000  0.0000  0.0000  0.0000
   8.  O 1 (py)     0.0000  0.0000  0.0000 -0.0309  0.0000  0.0000  0.0000  0.0000
   9.  O 1 (pz)     0.1804 -0.0160  0.0000  0.0000  0.0000  0.0000  0.0383 -0.0784
  10.  O 1 (d5)    -0.0160  0.0016  0.0000  0.0000  0.0000  0.0000 -0.0078  0.0130
  11.  O 1 (d2)     0.0000  0.0000  0.0034  0.0000  0.0000  0.0000  0.0000  0.0000
  12.  O 1 (d3)     0.0000  0.0000  0.0000  0.0034  0.0000  0.0000  0.0000  0.0000
  13.  O 1 (d4)     0.0000  0.0000  0.0000  0.0000  0.0000  0.0000  0.0000  0.0000
  14.  O 1 (d1)     0.0000  0.0000  0.0000  0.0000  0.0000  0.0000  0.0000  0.0000
  15.  C 2 (s)      0.0383 -0.0078  0.0000  0.0000  0.0000  0.0000  2.0834 -0.1534
  16.  C 2 (s)     -0.0784  0.0130  0.0000  0.0000  0.0000  0.0000 -0.1534  0.4037
  17.  C 2 (px)     0.0000  0.0000 -0.0230  0.0000  0.0000  0.0000  0.0000  0.0000
  18.  C 2 (py)     0.0000  0.0000  0.0000 -0.0230  0.0000  0.0000  0.0000  0.0000
  19.  C 2 (pz)    -0.2228  0.0209  0.0000  0.0000  0.0000  0.0000  0.0569 -0.0859
  20.  C 2 (s)      0.0973 -0.0039  0.0000  0.0000  0.0000  0.0000 -0.2278  0.4454
  21.  C 2 (px)     0.0000  0.0000 -0.0099  0.0000  0.0000  0.0000  0.0000  0.0000
  22.  C 2 (py)     0.0000  0.0000  0.0000 -0.0099  0.0000  0.0000  0.0000  0.0000
  23.  C 2 (pz)    -0.0348  0.0016  0.0000  0.0000  0.0000  0.0000  0.0573 -0.1091
  24.  C 2 (d5)    -0.0228  0.0026  0.0000  0.0000  0.0000  0.0000 -0.0006  0.0102
  25.  C 2 (d2)     0.0000  0.0000 -0.0037  0.0000  0.0000  0.0000  0.0000  0.0000
  26.  C 2 (d3)     0.0000  0.0000  0.0000 -0.0037  0.0000  0.0000  0.0000  0.0000
  27.  C 2 (d4)     0.0000  0.0000  0.0000  0.0000  0.0000  0.0000  0.0000  0.0000
  28.  C 2 (d1)     0.0000  0.0000  0.0000  0.0000  0.0000  0.0000  0.0000  0.0000

           AO         17      18      19      20      21      22      23      24
      ------------ ------- ------- ------- ------- ------- ------- ------- -------
   1.  O 1 (s)      0.0000  0.0000 -0.0698  0.0509  0.0000  0.0000  0.0045 -0.0147
   2.  O 1 (s)      0.0000  0.0000  0.1502 -0.1057  0.0000  0.0000  0.0061  0.0280
   3.  O 1 (px)     0.3111  0.0000  0.0000  0.0000  0.1342  0.0000  0.0000  0.0000
   4.  O 1 (py)     0.0000  0.3111  0.0000  0.0000  0.0000  0.1342  0.0000  0.0000
   5.  O 1 (pz)     0.0000  0.0000 -0.4176  0.1264  0.0000  0.0000 -0.0502 -0.0465
   6.  O 1 (s)      0.0000  0.0000  0.0806 -0.1344  0.0000  0.0000  0.0094  0.0178
   7.  O 1 (px)     0.2107  0.0000  0.0000  0.0000  0.0909  0.0000  0.0000  0.0000
   8.  O 1 (py)     0.0000  0.2107  0.0000  0.0000  0.0000  0.0909  0.0000  0.0000
   9.  O 1 (pz)     0.0000  0.0000 -0.2228  0.0973  0.0000  0.0000 -0.0348 -0.0228
  10.  O 1 (d5)     0.0000  0.0000  0.0209 -0.0039  0.0000  0.0000  0.0016  0.0026
  11.  O 1 (d2)    -0.0230  0.0000  0.0000  0.0000 -0.0099  0.0000  0.0000  0.0000
  12.  O 1 (d3)     0.0000 -0.0230  0.0000  0.0000  0.0000 -0.0099  0.0000  0.0000
  13.  O 1 (d4)     0.0000  0.0000  0.0000  0.0000  0.0000  0.0000  0.0000  0.0000
  14.  O 1 (d1)     0.0000  0.0000  0.0000  0.0000  0.0000  0.0000  0.0000  0.0000
  15.  C 2 (s)      0.0000  0.0000  0.0569 -0.2278  0.0000  0.0000  0.0573 -0.0006
  16.  C 2 (s)      0.0000  0.0000 -0.0859  0.4454  0.0000  0.0000 -0.1091  0.0102
  17.  C 2 (px)     0.1567  0.0000  0.0000  0.0000  0.0676  0.0000  0.0000  0.0000
  18.  C 2 (py)     0.0000  0.1567  0.0000  0.0000  0.0000  0.0676  0.0000  0.0000
  19.  C 2 (pz)     0.0000  0.0000  0.5099 -0.4775  0.0000  0.0000  0.1249  0.0483
  20.  C 2 (s)      0.0000  0.0000 -0.4775  0.7904  0.0000  0.0000 -0.1994 -0.0282
  21.  C 2 (px)     0.0676  0.0000  0.0000  0.0000  0.0292  0.0000  0.0000  0.0000
  22.  C 2 (py)     0.0000  0.0676  0.0000  0.0000  0.0000  0.0292  0.0000  0.0000
  23.  C 2 (pz)     0.0000  0.0000  0.1249 -0.1994  0.0000  0.0000  0.0515  0.0072
  24.  C 2 (d5)     0.0000  0.0000  0.0483 -0.0282  0.0000  0.0000  0.0072  0.0057
  25.  C 2 (d2)     0.0255  0.0000  0.0000  0.0000  0.0110  0.0000  0.0000  0.0000
  26.  C 2 (d3)     0.0000  0.0255  0.0000  0.0000  0.0000  0.0110  0.0000  0.0000
  27.  C 2 (d4)     0.0000  0.0000  0.0000  0.0000  0.0000  0.0000  0.0000  0.0000
  28.  C 2 (d1)     0.0000  0.0000  0.0000  0.0000  0.0000  0.0000  0.0000  0.0000

           AO         25      26      27      28
      ------------ ------- ------- ------- -------
   1.  O 1 (s)      0.0000  0.0000  0.0000  0.0000
   2.  O 1 (s)      0.0000  0.0000  0.0000  0.0000
   3.  O 1 (px)     0.0505  0.0000  0.0000  0.0000
   4.  O 1 (py)     0.0000  0.0505  0.0000  0.0000
   5.  O 1 (pz)     0.0000  0.0000  0.0000  0.0000
   6.  O 1 (s)      0.0000  0.0000  0.0000  0.0000
   7.  O 1 (px)     0.0342  0.0000  0.0000  0.0000
   8.  O 1 (py)     0.0000  0.0342  0.0000  0.0000
   9.  O 1 (pz)     0.0000  0.0000  0.0000  0.0000
  10.  O 1 (d5)     0.0000  0.0000  0.0000  0.0000
  11.  O 1 (d2)    -0.0037  0.0000  0.0000  0.0000
  12.  O 1 (d3)     0.0000 -0.0037  0.0000  0.0000
  13.  O 1 (d4)     0.0000  0.0000  0.0000  0.0000
  14.  O 1 (d1)     0.0000  0.0000  0.0000  0.0000
  15.  C 2 (s)      0.0000  0.0000  0.0000  0.0000
  16.  C 2 (s)      0.0000  0.0000  0.0000  0.0000
  17.  C 2 (px)     0.0255  0.0000  0.0000  0.0000
  18.  C 2 (py)     0.0000  0.0255  0.0000  0.0000
  19.  C 2 (pz)     0.0000  0.0000  0.0000  0.0000
  20.  C 2 (s)      0.0000  0.0000  0.0000  0.0000
  21.  C 2 (px)     0.0110  0.0000  0.0000  0.0000
  22.  C 2 (py)     0.0000  0.0110  0.0000  0.0000
  23.  C 2 (pz)     0.0000  0.0000  0.0000  0.0000
  24.  C 2 (d5)     0.0000  0.0000  0.0000  0.0000
  25.  C 2 (d2)     0.0041  0.0000  0.0000  0.0000
  26.  C 2 (d3)     0.0000  0.0041  0.0000  0.0000
  27.  C 2 (d4)     0.0000  0.0000  0.0000  0.0000
  28.  C 2 (d1)     0.0000  0.0000  0.0000  0.0000


 AO density matrix:

           AO          1       2       3       4       5       6       7       8
      ------------ ------- ------- ------- ------- ------- ------- ------- -------
   1.  O 1 (s)      1.9998  0.4737  0.0000  0.0000 -0.0019  0.3297  0.0000  0.0000
   2.  O 1 (s)      0.4737  1.7455  0.0000  0.0000  0.0572  1.7239  0.0000  0.0000
   3.  O 1 (px)     0.0000  0.0000  1.2974  0.0000  0.0000  0.0000  1.3264  0.0000
   4.  O 1 (py)     0.0000  0.0000  0.0000  1.2974  0.0000  0.0000  0.0000  1.3264
   5.  O 1 (pz)    -0.0019  0.0572  0.0000  0.0000  1.5496  0.0587  0.0000  0.0000
   6.  O 1 (s)      0.3297  1.7239  0.0000  0.0000  0.0587  1.7956  0.0000  0.0000
   7.  O 1 (px)     0.0000  0.0000  1.3264  0.0000  0.0000  0.0000  1.3561  0.0000
   8.  O 1 (py)     0.0000  0.0000  0.0000  1.3264  0.0000  0.0000  0.0000  1.3561
   9.  O 1 (pz)    -0.0014  0.0949  0.0000  0.0000  1.3145 -0.0658  0.0000  0.0000
  10.  O 1 (d5)    -0.0011  0.0941  0.0000  0.0000 -0.2901  0.1395  0.0000  0.0000
  11.  O 1 (d2)     0.0000  0.0000 -0.2631  0.0000  0.0000  0.0000 -0.2690  0.0000
  12.  O 1 (d3)     0.0000  0.0000  0.0000 -0.2631  0.0000  0.0000  0.0000 -0.2690
  13.  O 1 (d4)     0.0000  0.0000  0.0000  0.0000  0.0000  0.0000  0.0000  0.0000
  14.  O 1 (d1)     0.0000  0.0000  0.0000  0.0000  0.0000  0.0000  0.0000  0.0000
  15.  C 2 (s)      0.0001  0.0233  0.0000  0.0000 -0.0530  0.1517  0.0000  0.0000
  16.  C 2 (s)      0.0530  0.4908  0.0000  0.0000 -0.6545  0.8172  0.0000  0.0000
  17.  C 2 (px)     0.0000  0.0000  0.8687  0.0000  0.0000  0.0000  0.8881  0.0000
  18.  C 2 (py)     0.0000  0.0000  0.0000  0.8687  0.0000  0.0000  0.0000  0.8881
  19.  C 2 (pz)     0.1045  0.8332  0.0000  0.0000 -0.9451  0.6444  0.0000  0.0000
  20.  C 2 (s)      0.1069  0.7325  0.0000  0.0000 -0.3584  1.0681  0.0000  0.0000
  21.  C 2 (px)     0.0000  0.0000  0.9604  0.0000  0.0000  0.0000  0.9818  0.0000
  22.  C 2 (py)     0.0000  0.0000  0.0000  0.9604  0.0000  0.0000  0.0000  0.9818
  23.  C 2 (pz)     0.1861  1.1870  0.0000  0.0000 -0.2101  1.0231  0.0000  0.0000
  24.  C 2 (d5)     0.1619  0.5023  0.0000  0.0000 -0.2953  0.4735  0.0000  0.0000
  25.  C 2 (d2)     0.0000  0.0000  0.4540  0.0000  0.0000  0.0000  0.4642  0.0000
  26.  C 2 (d3)     0.0000  0.0000  0.0000  0.4540  0.0000  0.0000  0.0000  0.4642
  27.  C 2 (d4)     0.0000  0.0000  0.0000  0.0000  0.0000  0.0000  0.0000  0.0000
  28.  C 2 (d1)     0.0000  0.0000  0.0000  0.0000  0.0000  0.0000  0.0000  0.0000

           AO          9      10      11      12      13      14      15      16
      ------------ ------- ------- ------- ------- ------- ------- ------- -------
   1.  O 1 (s)     -0.0014 -0.0011  0.0000  0.0000  0.0000  0.0000  0.0001  0.0530
   2.  O 1 (s)      0.0949  0.0941  0.0000  0.0000  0.0000  0.0000  0.0233  0.4908
   3.  O 1 (px)     0.0000  0.0000 -0.2631  0.0000  0.0000  0.0000  0.0000  0.0000
   4.  O 1 (py)     0.0000  0.0000  0.0000 -0.2631  0.0000  0.0000  0.0000  0.0000
   5.  O 1 (pz)     1.3145 -0.2901  0.0000  0.0000  0.0000  0.0000 -0.0530 -0.6545
   6.  O 1 (s)     -0.0658  0.1395  0.0000  0.0000  0.0000  0.0000  0.1517  0.8172
   7.  O 1 (px)     0.0000  0.0000 -0.2690  0.0000  0.0000  0.0000  0.0000  0.0000
   8.  O 1 (py)     0.0000  0.0000  0.0000 -0.2690  0.0000  0.0000  0.0000  0.0000
   9.  O 1 (pz)     1.4353 -0.3336  0.0000  0.0000  0.0000  0.0000 -0.3236 -1.1809
  10.  O 1 (d5)    -0.3336  0.1020  0.0000  0.0000  0.0000  0.0000  0.2540  0.3229
  11.  O 1 (d2)     0.0000  0.0000  0.0534  0.0000  0.0000  0.0000  0.0000  0.0000
  12.  O 1 (d3)     0.0000  0.0000  0.0000  0.0534  0.0000  0.0000  0.0000  0.0000
  13.  O 1 (d4)     0.0000  0.0000  0.0000  0.0000  0.0000  0.0000  0.0000  0.0000
  14.  O 1 (d1)     0.0000  0.0000  0.0000  0.0000  0.0000  0.0000  0.0000  0.0000
  15.  C 2 (s)     -0.3236  0.2540  0.0000  0.0000  0.0000  0.0000  1.9998  0.4442
  16.  C 2 (s)     -1.1809  0.3229  0.0000  0.0000  0.0000  0.0000  0.4442  1.7292
  17.  C 2 (px)     0.0000  0.0000 -0.1762  0.0000  0.0000  0.0000  0.0000  0.0000
  18.  C 2 (py)     0.0000  0.0000  0.0000 -0.1762  0.0000  0.0000  0.0000  0.0000
  19.  C 2 (pz)    -0.4149  0.1538  0.0000  0.0000  0.0000  0.0000  0.0020 -0.0891
  20.  C 2 (s)     -0.9440  0.2789  0.0000  0.0000  0.0000  0.0000  0.3657  1.7213
  21.  C 2 (px)     0.0000  0.0000 -0.1948  0.0000  0.0000  0.0000  0.0000  0.0000
  22.  C 2 (py)     0.0000  0.0000  0.0000 -0.1948  0.0000  0.0000  0.0000  0.0000
  23.  C 2 (pz)     0.1633  0.0488  0.0000  0.0000  0.0000  0.0000  0.0024 -0.1922
  24.  C 2 (d5)    -0.1970  0.0759  0.0000  0.0000  0.0000  0.0000 -0.0014  0.1937
  25.  C 2 (d2)     0.0000  0.0000 -0.0921  0.0000  0.0000  0.0000  0.0000  0.0000
  26.  C 2 (d3)     0.0000  0.0000  0.0000 -0.0921  0.0000  0.0000  0.0000  0.0000
  27.  C 2 (d4)     0.0000  0.0000  0.0000  0.0000  0.0000  0.0000  0.0000  0.0000
  28.  C 2 (d1)     0.0000  0.0000  0.0000  0.0000  0.0000  0.0000  0.0000  0.0000

           AO         17      18      19      20      21      22      23      24
      ------------ ------- ------- ------- ------- ------- ------- ------- -------
   1.  O 1 (s)      0.0000  0.0000  0.1045  0.1069  0.0000  0.0000  0.1861  0.1619
   2.  O 1 (s)      0.0000  0.0000  0.8332  0.7325  0.0000  0.0000  1.1870  0.5023
   3.  O 1 (px)     0.8687  0.0000  0.0000  0.0000  0.9604  0.0000  0.0000  0.0000
   4.  O 1 (py)     0.0000  0.8687  0.0000  0.0000  0.0000  0.9604  0.0000  0.0000
   5.  O 1 (pz)     0.0000  0.0000 -0.9451 -0.3584  0.0000  0.0000 -0.2101 -0.2953
   6.  O 1 (s)      0.0000  0.0000  0.6444  1.0681  0.0000  0.0000  1.0231  0.4735
   7.  O 1 (px)     0.8881  0.0000  0.0000  0.0000  0.9818  0.0000  0.0000  0.0000
   8.  O 1 (py)     0.0000  0.8881  0.0000  0.0000  0.0000  0.9818  0.0000  0.0000
   9.  O 1 (pz)     0.0000  0.0000 -0.4149 -0.9440  0.0000  0.0000  0.1633 -0.1970
  10.  O 1 (d5)     0.0000  0.0000  0.1538  0.2789  0.0000  0.0000  0.0488  0.0759
  11.  O 1 (d2)    -0.1762  0.0000  0.0000  0.0000 -0.1948  0.0000  0.0000  0.0000
  12.  O 1 (d3)     0.0000 -0.1762  0.0000  0.0000  0.0000 -0.1948  0.0000  0.0000
  13.  O 1 (d4)     0.0000  0.0000  0.0000  0.0000  0.0000  0.0000  0.0000  0.0000
  14.  O 1 (d1)     0.0000  0.0000  0.0000  0.0000  0.0000  0.0000  0.0000  0.0000
  15.  C 2 (s)      0.0000  0.0000  0.0020  0.3657  0.0000  0.0000  0.0024 -0.0014
  16.  C 2 (s)      0.0000  0.0000 -0.0891  1.7213  0.0000  0.0000 -0.1922  0.1937
  17.  C 2 (px)     0.5816  0.0000  0.0000  0.0000  0.6430  0.0000  0.0000  0.0000
  18.  C 2 (py)     0.0000  0.5816  0.0000  0.0000  0.0000  0.6430  0.0000  0.0000
  19.  C 2 (pz)     0.0000  0.0000  1.4736 -0.1916  0.0000  0.0000  1.1228  0.4820
  20.  C 2 (s)      0.0000  0.0000 -0.1916  1.8064  0.0000  0.0000 -0.1060  0.2017
  21.  C 2 (px)     0.6430  0.0000  0.0000  0.0000  0.7109  0.0000  0.0000  0.0000
  22.  C 2 (py)     0.0000  0.6430  0.0000  0.0000  0.0000  0.7109  0.0000  0.0000
  23.  C 2 (pz)     0.0000  0.0000  1.1228 -0.1060  0.0000  0.0000  1.1914  0.4310
  24.  C 2 (d5)     0.0000  0.0000  0.4820  0.2017  0.0000  0.0000  0.4310  0.2127
  25.  C 2 (d2)     0.3040  0.0000  0.0000  0.0000  0.3361  0.0000  0.0000  0.0000
  26.  C 2 (d3)     0.0000  0.3040  0.0000  0.0000  0.0000  0.3361  0.0000  0.0000
  27.  C 2 (d4)     0.0000  0.0000  0.0000  0.0000  0.0000  0.0000  0.0000  0.0000
  28.  C 2 (d1)     0.0000  0.0000  0.0000  0.0000  0.0000  0.0000  0.0000  0.0000

           AO         25      26      27      28
      ------------ ------- ------- ------- -------
   1.  O 1 (s)      0.0000  0.0000  0.0000  0.0000
   2.  O 1 (s)      0.0000  0.0000  0.0000  0.0000
   3.  O 1 (px)     0.4540  0.0000  0.0000  0.0000
   4.  O 1 (py)     0.0000  0.4540  0.0000  0.0000
   5.  O 1 (pz)     0.0000  0.0000  0.0000  0.0000
   6.  O 1 (s)      0.0000  0.0000  0.0000  0.0000
   7.  O 1 (px)     0.4642  0.0000  0.0000  0.0000
   8.  O 1 (py)     0.0000  0.4642  0.0000  0.0000
   9.  O 1 (pz)     0.0000  0.0000  0.0000  0.0000
  10.  O 1 (d5)     0.0000  0.0000  0.0000  0.0000
  11.  O 1 (d2)    -0.0921  0.0000  0.0000  0.0000
  12.  O 1 (d3)     0.0000 -0.0921  0.0000  0.0000
  13.  O 1 (d4)     0.0000  0.0000  0.0000  0.0000
  14.  O 1 (d1)     0.0000  0.0000  0.0000  0.0000
  15.  C 2 (s)      0.0000  0.0000  0.0000  0.0000
  16.  C 2 (s)      0.0000  0.0000  0.0000  0.0000
  17.  C 2 (px)     0.3040  0.0000  0.0000  0.0000
  18.  C 2 (py)     0.0000  0.3040  0.0000  0.0000
  19.  C 2 (pz)     0.0000  0.0000  0.0000  0.0000
  20.  C 2 (s)      0.0000  0.0000  0.0000  0.0000
  21.  C 2 (px)     0.3361  0.0000  0.0000  0.0000
  22.  C 2 (py)     0.0000  0.3361  0.0000  0.0000
  23.  C 2 (pz)     0.0000  0.0000  0.0000  0.0000
  24.  C 2 (d5)     0.0000  0.0000  0.0000  0.0000
  25.  C 2 (d2)     0.1589  0.0000  0.0000  0.0000
  26.  C 2 (d3)     0.0000  0.1589  0.0000  0.0000
  27.  C 2 (d4)     0.0000  0.0000  0.0000  0.0000
  28.  C 2 (d1)     0.0000  0.0000  0.0000  0.0000


 MO density matrix:

      MO     1       2       3       4       5       6       7       8       9
     ---- ------  ------  ------  ------  ------  ------  ------  ------  ------
   1.     2.0000  0.0000  0.0000  0.0000  0.0000  0.0000  0.0000  0.0000  0.0000
   2.     0.0000  2.0000  0.0000  0.0000  0.0000  0.0000  0.0000  0.0000  0.0000
   3.     0.0000  0.0000  2.0000  0.0000  0.0000  0.0000  0.0000  0.0000  0.0000
   4.     0.0000  0.0000  0.0000  2.0000  0.0000  0.0000  0.0000  0.0000  0.0000
   5.     0.0000  0.0000  0.0000  0.0000  2.0000  0.0000  0.0000  0.0000  0.0000
   6.     0.0000  0.0000  0.0000  0.0000  0.0000  2.0000  0.0000  0.0000  0.0000
   7.     0.0000  0.0000  0.0000  0.0000  0.0000  0.0000  2.0000  0.0000  0.0000
   8.     0.0000  0.0000  0.0000  0.0000  0.0000  0.0000  0.0000  0.0000  0.0000
   9.     0.0000  0.0000  0.0000  0.0000  0.0000  0.0000  0.0000  0.0000  0.0000
  10.     0.0000  0.0000  0.0000  0.0000  0.0000  0.0000  0.0000  0.0000  0.0000
  11.     0.0000  0.0000  0.0000  0.0000  0.0000  0.0000  0.0000  0.0000  0.0000
  12.     0.0000  0.0000  0.0000  0.0000  0.0000  0.0000  0.0000  0.0000  0.0000
  13.     0.0000  0.0000  0.0000  0.0000  0.0000  0.0000  0.0000  0.0000  0.0000
  14.     0.0000  0.0000  0.0000  0.0000  0.0000  0.0000  0.0000  0.0000  0.0000
  15.     0.0000  0.0000  0.0000  0.0000  0.0000  0.0000  0.0000  0.0000  0.0000
  16.     0.0000  0.0000  0.0000  0.0000  0.0000  0.0000  0.0000  0.0000  0.0000
  17.     0.0000  0.0000  0.0000  0.0000  0.0000  0.0000  0.0000  0.0000  0.0000
  18.     0.0000  0.0000  0.0000  0.0000  0.0000  0.0000  0.0000  0.0000  0.0000
  19.     0.0000  0.0000  0.0000  0.0000  0.0000  0.0000  0.0000  0.0000  0.0000
  20.     0.0000  0.0000  0.0000  0.0000  0.0000  0.0000  0.0000  0.0000  0.0000
  21.     0.0000  0.0000  0.0000  0.0000  0.0000  0.0000  0.0000  0.0000  0.0000
  22.     0.0000  0.0000  0.0000  0.0000  0.0000  0.0000  0.0000  0.0000  0.0000
  23.     0.0000  0.0000  0.0000  0.0000  0.0000  0.0000  0.0000  0.0000  0.0000
  24.     0.0000  0.0000  0.0000  0.0000  0.0000  0.0000  0.0000  0.0000  0.0000
  25.     0.0000  0.0000  0.0000  0.0000  0.0000  0.0000  0.0000  0.0000  0.0000
  26.     0.0000  0.0000  0.0000  0.0000  0.0000  0.0000  0.0000  0.0000  0.0000
  27.     0.0000  0.0000  0.0000  0.0000  0.0000  0.0000  0.0000  0.0000  0.0000
  28.     0.0000  0.0000  0.0000  0.0000  0.0000  0.0000  0.0000  0.0000  0.0000

      MO    10      11      12      13      14      15      16      17      18
     ---- ------  ------  ------  ------  ------  ------  ------  ------  ------
   1.     0.0000  0.0000  0.0000  0.0000  0.0000  0.0000  0.0000  0.0000  0.0000
   2.     0.0000  0.0000  0.0000  0.0000  0.0000  0.0000  0.0000  0.0000  0.0000
   3.     0.0000  0.0000  0.0000  0.0000  0.0000  0.0000  0.0000  0.0000  0.0000
   4.     0.0000  0.0000  0.0000  0.0000  0.0000  0.0000  0.0000  0.0000  0.0000
   5.     0.0000  0.0000  0.0000  0.0000  0.0000  0.0000  0.0000  0.0000  0.0000
   6.     0.0000  0.0000  0.0000  0.0000  0.0000  0.0000  0.0000  0.0000  0.0000
   7.     0.0000  0.0000  0.0000  0.0000  0.0000  0.0000  0.0000  0.0000  0.0000
   8.     0.0000  0.0000  0.0000  0.0000  0.0000  0.0000  0.0000  0.0000  0.0000
   9.     0.0000  0.0000  0.0000  0.0000  0.0000  0.0000  0.0000  0.0000  0.0000
  10.     0.0000  0.0000  0.0000  0.0000  0.0000  0.0000  0.0000  0.0000  0.0000
  11.     0.0000  0.0000  0.0000  0.0000  0.0000  0.0000  0.0000  0.0000  0.0000
  12.     0.0000  0.0000  0.0000  0.0000  0.0000  0.0000  0.0000  0.0000  0.0000
  13.     0.0000  0.0000  0.0000  0.0000  0.0000  0.0000  0.0000  0.0000  0.0000
  14.     0.0000  0.0000  0.0000  0.0000  0.0000  0.0000  0.0000  0.0000  0.0000
  15.     0.0000  0.0000  0.0000  0.0000  0.0000  0.0000  0.0000  0.0000  0.0000
  16.     0.0000  0.0000  0.0000  0.0000  0.0000  0.0000  0.0000  0.0000  0.0000
  17.     0.0000  0.0000  0.0000  0.0000  0.0000  0.0000  0.0000  0.0000  0.0000
  18.     0.0000  0.0000  0.0000  0.0000  0.0000  0.0000  0.0000  0.0000  0.0000
  19.     0.0000  0.0000  0.0000  0.0000  0.0000  0.0000  0.0000  0.0000  0.0000
  20.     0.0000  0.0000  0.0000  0.0000  0.0000  0.0000  0.0000  0.0000  0.0000
  21.     0.0000  0.0000  0.0000  0.0000  0.0000  0.0000  0.0000  0.0000  0.0000
  22.     0.0000  0.0000  0.0000  0.0000  0.0000  0.0000  0.0000  0.0000  0.0000
  23.     0.0000  0.0000  0.0000  0.0000  0.0000  0.0000  0.0000  0.0000  0.0000
  24.     0.0000  0.0000  0.0000  0.0000  0.0000  0.0000  0.0000  0.0000  0.0000
  25.     0.0000  0.0000  0.0000  0.0000  0.0000  0.0000  0.0000  0.0000  0.0000
  26.     0.0000  0.0000  0.0000  0.0000  0.0000  0.0000  0.0000  0.0000  0.0000
  27.     0.0000  0.0000  0.0000  0.0000  0.0000  0.0000  0.0000  0.0000  0.0000
  28.     0.0000  0.0000  0.0000  0.0000  0.0000  0.0000  0.0000  0.0000  0.0000

      MO    19      20      21      22      23      24      25      26      27
     ---- ------  ------  ------  ------  ------  ------  ------  ------  ------
   1.     0.0000  0.0000  0.0000  0.0000  0.0000  0.0000  0.0000  0.0000  0.0000
   2.     0.0000  0.0000  0.0000  0.0000  0.0000  0.0000  0.0000  0.0000  0.0000
   3.     0.0000  0.0000  0.0000  0.0000  0.0000  0.0000  0.0000  0.0000  0.0000
   4.     0.0000  0.0000  0.0000  0.0000  0.0000  0.0000  0.0000  0.0000  0.0000
   5.     0.0000  0.0000  0.0000  0.0000  0.0000  0.0000  0.0000  0.0000  0.0000
   6.     0.0000  0.0000  0.0000  0.0000  0.0000  0.0000  0.0000  0.0000  0.0000
   7.     0.0000  0.0000  0.0000  0.0000  0.0000  0.0000  0.0000  0.0000  0.0000
   8.     0.0000  0.0000  0.0000  0.0000  0.0000  0.0000  0.0000  0.0000  0.0000
   9.     0.0000  0.0000  0.0000  0.0000  0.0000  0.0000  0.0000  0.0000  0.0000
  10.     0.0000  0.0000  0.0000  0.0000  0.0000  0.0000  0.0000  0.0000  0.0000
  11.     0.0000  0.0000  0.0000  0.0000  0.0000  0.0000  0.0000  0.0000  0.0000
  12.     0.0000  0.0000  0.0000  0.0000  0.0000  0.0000  0.0000  0.0000  0.0000
  13.     0.0000  0.0000  0.0000  0.0000  0.0000  0.0000  0.0000  0.0000  0.0000
  14.     0.0000  0.0000  0.0000  0.0000  0.0000  0.0000  0.0000  0.0000  0.0000
  15.     0.0000  0.0000  0.0000  0.0000  0.0000  0.0000  0.0000  0.0000  0.0000
  16.     0.0000  0.0000  0.0000  0.0000  0.0000  0.0000  0.0000  0.0000  0.0000
  17.     0.0000  0.0000  0.0000  0.0000  0.0000  0.0000  0.0000  0.0000  0.0000
  18.     0.0000  0.0000  0.0000  0.0000  0.0000  0.0000  0.0000  0.0000  0.0000
  19.     0.0000  0.0000  0.0000  0.0000  0.0000  0.0000  0.0000  0.0000  0.0000
  20.     0.0000  0.0000  0.0000  0.0000  0.0000  0.0000  0.0000  0.0000  0.0000
  21.     0.0000  0.0000  0.0000  0.0000  0.0000  0.0000  0.0000  0.0000  0.0000
  22.     0.0000  0.0000  0.0000  0.0000  0.0000  0.0000  0.0000  0.0000  0.0000
  23.     0.0000  0.0000  0.0000  0.0000  0.0000  0.0000  0.0000  0.0000  0.0000
  24.     0.0000  0.0000  0.0000  0.0000  0.0000  0.0000  0.0000  0.0000  0.0000
  25.     0.0000  0.0000  0.0000  0.0000  0.0000  0.0000  0.0000  0.0000  0.0000
  26.     0.0000  0.0000  0.0000  0.0000  0.0000  0.0000  0.0000  0.0000  0.0000
  27.     0.0000  0.0000  0.0000  0.0000  0.0000  0.0000  0.0000  0.0000  0.0000
  28.     0.0000  0.0000  0.0000  0.0000  0.0000  0.0000  0.0000  0.0000  0.0000

      MO    28
     ---- ------
   1.     0.0000
   2.     0.0000
   3.     0.0000
   4.     0.0000
   5.     0.0000
   6.     0.0000
   7.     0.0000
   8.     0.0000
   9.     0.0000
  10.     0.0000
  11.     0.0000
  12.     0.0000
  13.     0.0000
  14.     0.0000
  15.     0.0000
  16.     0.0000
  17.     0.0000
  18.     0.0000
  19.     0.0000
  20.     0.0000
  21.     0.0000
  22.     0.0000
  23.     0.0000
  24.     0.0000
  25.     0.0000
  26.     0.0000
  27.     0.0000
  28.     0.0000


 NATURAL POPULATIONS:  Natural atomic orbital occupancies

  NAO Atom No lang   Type(AO)    Occupancy      Energy
 -------------------------------------------------------
   1    O  1  s      Cor( 1s)     1.99999     -20.67103
   2    O  1  s      Val( 2s)     1.74284      -1.04288
   3    O  1  s      Ryd( 3s)     0.00182       1.91385
   4    O  1  px     Val( 2p)     1.58603      -0.44211
   5    O  1  px     Ryd( 3p)     0.00014       1.20167
   6    O  1  py     Val( 2p)     1.58603      -0.44211
   7    O  1  py     Ryd( 3p)     0.00014       1.20167
   8    O  1  pz     Val( 2p)     1.67914      -0.52670
   9    O  1  pz     Ryd( 3p)     0.00070       1.18177
  10    O  1  dxy    Ryd( 3d)     0.00000       2.02399
  11    O  1  dxz    Ryd( 3d)     0.00744       2.23333
  12    O  1  dyz    Ryd( 3d)     0.00744       2.23333
  13    O  1  dx2y2  Ryd( 3d)     0.00000       2.02399
  14    O  1  dz2    Ryd( 3d)     0.01503       2.78068

  15    C  2  s      Cor( 1s)     1.99999     -11.37196
  16    C  2  s      Val( 2s)     1.63648      -0.45861
  17    C  2  s      Ryd( 3s)     0.02113       0.80990
  18    C  2  px     Val( 2p)     0.40248       0.05773
  19    C  2  px     Ryd( 3p)     0.00008       0.70102
  20    C  2  py     Val( 2p)     0.40248       0.05773
  21    C  2  py     Ryd( 3p)     0.00008       0.70102
  22    C  2  pz     Val( 2p)     0.88635       0.16525
  23    C  2  pz     Ryd( 3p)     0.01200       0.72259
  24    C  2  dxy    Ryd( 3d)     0.00000       1.98196
  25    C  2  dxz    Ryd( 3d)     0.00384       2.47228
  26    C  2  dyz    Ryd( 3d)     0.00384       2.47228
  27    C  2  dx2y2  Ryd( 3d)     0.00000       1.98196
  28    C  2  dz2    Ryd( 3d)     0.00451       2.72882


 Summary of Natural Population Analysis:

                                     Natural Population
             Natural    ---------------------------------------------
  Atom No    Charge        Core      Valence    Rydberg      Total
 --------------------------------------------------------------------
    O  1   -0.62674      1.99999     6.59404    0.03271     8.62674
    C  2    0.62674      1.99999     3.32779    0.04548     5.37326
 ====================================================================
 * Total *  0.00000      3.99998     9.92183    0.07819    14.00000

                                 Natural Population
 ---------------------------------------------------------
   Core                       3.99998 ( 99.9996% of    4)
   Valence                    9.92183 ( 99.2183% of   10)
   Natural Minimal Basis     13.92181 ( 99.4415% of   14)
   Natural Rydberg Basis      0.07819 (  0.5585% of   14)
 ---------------------------------------------------------

    Atom No         Natural Electron Configuration
 ----------------------------------------------------------------------------
      O  1      [core]2s( 1.74)2p( 4.85)3d( 0.03)
      C  2      [core]2s( 1.64)2p( 1.69)3s( 0.02)3p( 0.01)3d( 0.01)


 PNAOs in the AO basis:

           AO          1       2       3       4       5       6       7       8
      ------------ ------- ------- ------- ------- ------- ------- ------- -------
   1.  O 1 (s)      0.9939 -0.2382 -0.1159  0.0000  0.0000  0.0000  0.0000  0.0000
   2.  O 1 (s)      0.0246  0.5086  1.4859  0.0000  0.0000  0.0000  0.0000  0.0000
   3.  O 1 (px)     0.0000  0.0000  0.0000  0.5767  1.0017  0.0000  0.0000  0.0000
   4.  O 1 (py)     0.0000  0.0000  0.0000  0.0000  0.0000  0.5767  1.0017  0.0000
   5.  O 1 (pz)     0.0000  0.0000  0.0000  0.0000  0.0000  0.0000  0.0000  0.5767
   6.  O 1 (s)      0.0001  0.5803 -1.4363  0.0000  0.0000  0.0000  0.0000  0.0000
   7.  O 1 (px)     0.0000  0.0000  0.0000  0.5774 -1.0013  0.0000  0.0000  0.0000
   8.  O 1 (py)     0.0000  0.0000  0.0000  0.0000  0.0000  0.5774 -1.0013  0.0000
   9.  O 1 (pz)     0.0000  0.0000  0.0000  0.0000  0.0000  0.0000  0.0000  0.5774
  10.  O 1 (d5)     0.0000  0.0000  0.0000  0.0000  0.0000  0.0000  0.0000  0.0000
  11.  O 1 (d2)     0.0000  0.0000  0.0000  0.0000  0.0000  0.0000  0.0000  0.0000
  12.  O 1 (d3)     0.0000  0.0000  0.0000  0.0000  0.0000  0.0000  0.0000  0.0000
  13.  O 1 (d4)     0.0000  0.0000  0.0000  0.0000  0.0000  0.0000  0.0000  0.0000
  14.  O 1 (d1)     0.0000  0.0000  0.0000  0.0000  0.0000  0.0000  0.0000  0.0000
  15.  C 2 (s)      0.0000  0.0000  0.0000  0.0000  0.0000  0.0000  0.0000  0.0000
  16.  C 2 (s)      0.0000  0.0000  0.0000  0.0000  0.0000  0.0000  0.0000  0.0000
  17.  C 2 (px)     0.0000  0.0000  0.0000  0.0000  0.0000  0.0000  0.0000  0.0000
  18.  C 2 (py)     0.0000  0.0000  0.0000  0.0000  0.0000  0.0000  0.0000  0.0000
  19.  C 2 (pz)     0.0000  0.0000  0.0000  0.0000  0.0000  0.0000  0.0000  0.0000
  20.  C 2 (s)      0.0000  0.0000  0.0000  0.0000  0.0000  0.0000  0.0000  0.0000
  21.  C 2 (px)     0.0000  0.0000  0.0000  0.0000  0.0000  0.0000  0.0000  0.0000
  22.  C 2 (py)     0.0000  0.0000  0.0000  0.0000  0.0000  0.0000  0.0000  0.0000
  23.  C 2 (pz)     0.0000  0.0000  0.0000  0.0000  0.0000  0.0000  0.0000  0.0000
  24.  C 2 (d5)     0.0000  0.0000  0.0000  0.0000  0.0000  0.0000  0.0000  0.0000
  25.  C 2 (d2)     0.0000  0.0000  0.0000  0.0000  0.0000  0.0000  0.0000  0.0000
  26.  C 2 (d3)     0.0000  0.0000  0.0000  0.0000  0.0000  0.0000  0.0000  0.0000
  27.  C 2 (d4)     0.0000  0.0000  0.0000  0.0000  0.0000  0.0000  0.0000  0.0000
  28.  C 2 (d1)     0.0000  0.0000  0.0000  0.0000  0.0000  0.0000  0.0000  0.0000

           AO          9      10      11      12      13      14      15      16
      ------------ ------- ------- ------- ------- ------- ------- ------- -------
   1.  O 1 (s)      0.0000  0.0000  0.0000  0.0000  0.0000  0.0000  0.0000  0.0000
   2.  O 1 (s)      0.0000  0.0000  0.0000  0.0000  0.0000  0.0000  0.0000  0.0000
   3.  O 1 (px)     0.0000  0.0000  0.0000  0.0000  0.0000  0.0000  0.0000  0.0000
   4.  O 1 (py)     0.0000  0.0000  0.0000  0.0000  0.0000  0.0000  0.0000  0.0000
   5.  O 1 (pz)     1.0017  0.0000  0.0000  0.0000  0.0000  0.0000  0.0000  0.0000
   6.  O 1 (s)      0.0000  0.0000  0.0000  0.0000  0.0000  0.0000  0.0000  0.0000
   7.  O 1 (px)     0.0000  0.0000  0.0000  0.0000  0.0000  0.0000  0.0000  0.0000
   8.  O 1 (py)     0.0000  0.0000  0.0000  0.0000  0.0000  0.0000  0.0000  0.0000
   9.  O 1 (pz)    -1.0013  0.0000  0.0000  0.0000  0.0000  0.0000  0.0000  0.0000
  10.  O 1 (d5)     0.0000  0.0000  0.0000  0.0000  0.0000  1.0000  0.0000  0.0000
  11.  O 1 (d2)     0.0000  0.0000  1.0000  0.0000  0.0000  0.0000  0.0000  0.0000
  12.  O 1 (d3)     0.0000  0.0000  0.0000  1.0000  0.0000  0.0000  0.0000  0.0000
  13.  O 1 (d4)     0.0000  0.0000  0.0000  0.0000  1.0000  0.0000  0.0000  0.0000
  14.  O 1 (d1)     0.0000  1.0000  0.0000  0.0000  0.0000  0.0000  0.0000  0.0000
  15.  C 2 (s)      0.0000  0.0000  0.0000  0.0000  0.0000  0.0000  0.9959 -0.2298
  16.  C 2 (s)      0.0000  0.0000  0.0000  0.0000  0.0000  0.0000  0.0212  0.4665
  17.  C 2 (px)     0.0000  0.0000  0.0000  0.0000  0.0000  0.0000  0.0000  0.0000
  18.  C 2 (py)     0.0000  0.0000  0.0000  0.0000  0.0000  0.0000  0.0000  0.0000
  19.  C 2 (pz)     0.0000  0.0000  0.0000  0.0000  0.0000  0.0000  0.0000  0.0000
  20.  C 2 (s)      0.0000  0.0000  0.0000  0.0000  0.0000  0.0000 -0.0037  0.6067
  21.  C 2 (px)     0.0000  0.0000  0.0000  0.0000  0.0000  0.0000  0.0000  0.0000
  22.  C 2 (py)     0.0000  0.0000  0.0000  0.0000  0.0000  0.0000  0.0000  0.0000
  23.  C 2 (pz)     0.0000  0.0000  0.0000  0.0000  0.0000  0.0000  0.0000  0.0000
  24.  C 2 (d5)     0.0000  0.0000  0.0000  0.0000  0.0000  0.0000  0.0000  0.0000
  25.  C 2 (d2)     0.0000  0.0000  0.0000  0.0000  0.0000  0.0000  0.0000  0.0000
  26.  C 2 (d3)     0.0000  0.0000  0.0000  0.0000  0.0000  0.0000  0.0000  0.0000
  27.  C 2 (d4)     0.0000  0.0000  0.0000  0.0000  0.0000  0.0000  0.0000  0.0000
  28.  C 2 (d1)     0.0000  0.0000  0.0000  0.0000  0.0000  0.0000  0.0000  0.0000

           AO         17      18      19      20      21      22      23      24
      ------------ ------- ------- ------- ------- ------- ------- ------- -------
   1.  O 1 (s)      0.0000  0.0000  0.0000  0.0000  0.0000  0.0000  0.0000  0.0000
   2.  O 1 (s)      0.0000  0.0000  0.0000  0.0000  0.0000  0.0000  0.0000  0.0000
   3.  O 1 (px)     0.0000  0.0000  0.0000  0.0000  0.0000  0.0000  0.0000  0.0000
   4.  O 1 (py)     0.0000  0.0000  0.0000  0.0000  0.0000  0.0000  0.0000  0.0000
   5.  O 1 (pz)     0.0000  0.0000  0.0000  0.0000  0.0000  0.0000  0.0000  0.0000
   6.  O 1 (s)      0.0000  0.0000  0.0000  0.0000  0.0000  0.0000  0.0000  0.0000
   7.  O 1 (px)     0.0000  0.0000  0.0000  0.0000  0.0000  0.0000  0.0000  0.0000
   8.  O 1 (py)     0.0000  0.0000  0.0000  0.0000  0.0000  0.0000  0.0000  0.0000
   9.  O 1 (pz)     0.0000  0.0000  0.0000  0.0000  0.0000  0.0000  0.0000  0.0000
  10.  O 1 (d5)     0.0000  0.0000  0.0000  0.0000  0.0000  0.0000  0.0000  0.0000
  11.  O 1 (d2)     0.0000  0.0000  0.0000  0.0000  0.0000  0.0000  0.0000  0.0000
  12.  O 1 (d3)     0.0000  0.0000  0.0000  0.0000  0.0000  0.0000  0.0000  0.0000
  13.  O 1 (d4)     0.0000  0.0000  0.0000  0.0000  0.0000  0.0000  0.0000  0.0000
  14.  O 1 (d1)     0.0000  0.0000  0.0000  0.0000  0.0000  0.0000  0.0000  0.0000
  15.  C 2 (s)     -0.0771  0.0000  0.0000  0.0000  0.0000  0.0000  0.0000  0.0000
  16.  C 2 (s)      1.6628  0.0000  0.0000  0.0000  0.0000  0.0000  0.0000  0.0000
  17.  C 2 (px)     0.0000  0.5701 -1.0750  0.0000  0.0000  0.0000  0.0000  0.0000
  18.  C 2 (py)     0.0000  0.0000  0.0000  0.5701 -1.0750  0.0000  0.0000  0.0000
  19.  C 2 (pz)     0.0000  0.0000  0.0000  0.0000  0.0000  0.5701 -1.0750  0.0000
  20.  C 2 (s)     -1.6036  0.0000  0.0000  0.0000  0.0000  0.0000  0.0000  0.0000
  21.  C 2 (px)     0.0000  0.5586  1.0810  0.0000  0.0000  0.0000  0.0000  0.0000
  22.  C 2 (py)     0.0000  0.0000  0.0000  0.5586  1.0810  0.0000  0.0000  0.0000
  23.  C 2 (pz)     0.0000  0.0000  0.0000  0.0000  0.0000  0.5586  1.0810  0.0000
  24.  C 2 (d5)     0.0000  0.0000  0.0000  0.0000  0.0000  0.0000  0.0000  0.0000
  25.  C 2 (d2)     0.0000  0.0000  0.0000  0.0000  0.0000  0.0000  0.0000  0.0000
  26.  C 2 (d3)     0.0000  0.0000  0.0000  0.0000  0.0000  0.0000  0.0000  0.0000
  27.  C 2 (d4)     0.0000  0.0000  0.0000  0.0000  0.0000  0.0000  0.0000  0.0000
  28.  C 2 (d1)     0.0000  0.0000  0.0000  0.0000  0.0000  0.0000  0.0000  1.0000

           AO         25      26      27      28
      ------------ ------- ------- ------- -------
   1.  O 1 (s)      0.0000  0.0000  0.0000  0.0000
   2.  O 1 (s)      0.0000  0.0000  0.0000  0.0000
   3.  O 1 (px)     0.0000  0.0000  0.0000  0.0000
   4.  O 1 (py)     0.0000  0.0000  0.0000  0.0000
   5.  O 1 (pz)     0.0000  0.0000  0.0000  0.0000
   6.  O 1 (s)      0.0000  0.0000  0.0000  0.0000
   7.  O 1 (px)     0.0000  0.0000  0.0000  0.0000
   8.  O 1 (py)     0.0000  0.0000  0.0000  0.0000
   9.  O 1 (pz)     0.0000  0.0000  0.0000  0.0000
  10.  O 1 (d5)     0.0000  0.0000  0.0000  0.0000
  11.  O 1 (d2)     0.0000  0.0000  0.0000  0.0000
  12.  O 1 (d3)     0.0000  0.0000  0.0000  0.0000
  13.  O 1 (d4)     0.0000  0.0000  0.0000  0.0000
  14.  O 1 (d1)     0.0000  0.0000  0.0000  0.0000
  15.  C 2 (s)      0.0000  0.0000  0.0000  0.0000
  16.  C 2 (s)      0.0000  0.0000  0.0000  0.0000
  17.  C 2 (px)     0.0000  0.0000  0.0000  0.0000
  18.  C 2 (py)     0.0000  0.0000  0.0000  0.0000
  19.  C 2 (pz)     0.0000  0.0000  0.0000  0.0000
  20.  C 2 (s)      0.0000  0.0000  0.0000  0.0000
  21.  C 2 (px)     0.0000  0.0000  0.0000  0.0000
  22.  C 2 (py)     0.0000  0.0000  0.0000  0.0000
  23.  C 2 (pz)     0.0000  0.0000  0.0000  0.0000
  24.  C 2 (d5)     0.0000  0.0000  0.0000  1.0000
  25.  C 2 (d2)     1.0000  0.0000  0.0000  0.0000
  26.  C 2 (d3)     0.0000  1.0000  0.0000  0.0000
  27.  C 2 (d4)     0.0000  0.0000  1.0000  0.0000
  28.  C 2 (d1)     0.0000  0.0000  0.0000  0.0000


 PNAO overlap matrix:

           NAO         1       2       3       4       5       6       7       8
      ------------ ------- ------- ------- ------- ------- ------- ------- -------
   1.  O 1( 1s )    1.0000  0.0000  0.0000  0.0000  0.0000  0.0000  0.0000  0.0000
   2.  O 1( 2s )    0.0000  1.0000  0.0000  0.0000  0.0000  0.0000  0.0000  0.0000
   3.  O 1( 3s )    0.0000  0.0000  1.0000  0.0000  0.0000  0.0000  0.0000  0.0000
   4.  O 1( 2px)    0.0000  0.0000  0.0000  1.0000  0.0000  0.0000  0.0000  0.0000
   5.  O 1( 3px)    0.0000  0.0000  0.0000  0.0000  1.0000  0.0000  0.0000  0.0000
   6.  O 1( 2py)    0.0000  0.0000  0.0000  0.0000  0.0000  1.0000  0.0000  0.0000
   7.  O 1( 3py)    0.0000  0.0000  0.0000  0.0000  0.0000  0.0000  1.0000  0.0000
   8.  O 1( 2pz)    0.0000  0.0000  0.0000  0.0000  0.0000  0.0000  0.0000  1.0000
   9.  O 1( 3pz)    0.0000  0.0000  0.0000  0.0000  0.0000  0.0000  0.0000  0.0000
  10.  O 1( 3d1)    0.0000  0.0000  0.0000  0.0000  0.0000  0.0000  0.0000  0.0000
  11.  O 1( 3d2)    0.0000  0.0000  0.0000  0.0000  0.0000  0.0000  0.0000  0.0000
  12.  O 1( 3d3)    0.0000  0.0000  0.0000  0.0000  0.0000  0.0000  0.0000  0.0000
  13.  O 1( 3d4)    0.0000  0.0000  0.0000  0.0000  0.0000  0.0000  0.0000  0.0000
  14.  O 1( 3d5)    0.0000  0.0000  0.0000  0.0000  0.0000  0.0000  0.0000  0.0000
  15.  C 2( 1s )    0.0008  0.0556 -0.0951  0.0000  0.0000  0.0000  0.0000 -0.1185
  16.  C 2( 2s )    0.0528  0.4397 -0.3484  0.0000  0.0000  0.0000  0.0000 -0.4299
  17.  C 2( 3s )   -0.0457 -0.2258  0.1533  0.0000  0.0000  0.0000  0.0000 -0.1777
  18.  C 2( 2px)    0.0000  0.0000  0.0000  0.3774 -0.3405  0.0000  0.0000  0.0000
  19.  C 2( 3px)    0.0000  0.0000  0.0000  0.2001 -0.2200  0.0000  0.0000  0.0000
  20.  C 2( 2py)    0.0000  0.0000  0.0000  0.0000  0.0000  0.3774 -0.3405  0.0000
  21.  C 2( 3py)    0.0000  0.0000  0.0000  0.0000  0.0000  0.2001 -0.2200  0.0000
  22.  C 2( 2pz)    0.0952  0.5309 -0.1576  0.0000  0.0000  0.0000  0.0000 -0.1953
  23.  C 2( 3pz)    0.0488  0.2619 -0.2104  0.0000  0.0000  0.0000  0.0000  0.3019
  24.  C 2( 3d1)    0.0000  0.0000  0.0000  0.0000  0.0000  0.0000  0.0000  0.0000
  25.  C 2( 3d2)    0.0000  0.0000  0.0000  0.2771 -0.0516  0.0000  0.0000  0.0000
  26.  C 2( 3d3)    0.0000  0.0000  0.0000  0.0000  0.0000  0.2771 -0.0516  0.0000
  27.  C 2( 3d4)    0.0000  0.0000  0.0000  0.0000  0.0000  0.0000  0.0000  0.0000
  28.  C 2( 3d5)    0.0873  0.2523  0.2403  0.0000  0.0000  0.0000  0.0000 -0.1682

           NAO         9      10      11      12      13      14      15      16
      ------------ ------- ------- ------- ------- ------- ------- ------- -------
   1.  O 1( 1s )    0.0000  0.0000  0.0000  0.0000  0.0000  0.0000  0.0008  0.0528
   2.  O 1( 2s )    0.0000  0.0000  0.0000  0.0000  0.0000  0.0000  0.0556  0.4397
   3.  O 1( 3s )    0.0000  0.0000  0.0000  0.0000  0.0000  0.0000 -0.0951 -0.3484
   4.  O 1( 2px)    0.0000  0.0000  0.0000  0.0000  0.0000  0.0000  0.0000  0.0000
   5.  O 1( 3px)    0.0000  0.0000  0.0000  0.0000  0.0000  0.0000  0.0000  0.0000
   6.  O 1( 2py)    0.0000  0.0000  0.0000  0.0000  0.0000  0.0000  0.0000  0.0000
   7.  O 1( 3py)    0.0000  0.0000  0.0000  0.0000  0.0000  0.0000  0.0000  0.0000
   8.  O 1( 2pz)    0.0000  0.0000  0.0000  0.0000  0.0000  0.0000 -0.1185 -0.4299
   9.  O 1( 3pz)    1.0000  0.0000  0.0000  0.0000  0.0000  0.0000  0.1400  0.3601
  10.  O 1( 3d1)    0.0000  1.0000  0.0000  0.0000  0.0000  0.0000  0.0000  0.0000
  11.  O 1( 3d2)    0.0000  0.0000  1.0000  0.0000  0.0000  0.0000  0.0000  0.0000
  12.  O 1( 3d3)    0.0000  0.0000  0.0000  1.0000  0.0000  0.0000  0.0000  0.0000
  13.  O 1( 3d4)    0.0000  0.0000  0.0000  0.0000  1.0000  0.0000  0.0000  0.0000
  14.  O 1( 3d5)    0.0000  0.0000  0.0000  0.0000  0.0000  1.0000  0.1285  0.1617
  15.  C 2( 1s )    0.1400  0.0000  0.0000  0.0000  0.0000  0.1285  1.0000  0.0000
  16.  C 2( 2s )    0.3601  0.0000  0.0000  0.0000  0.0000  0.1617  0.0000  1.0000
  17.  C 2( 3s )    0.0250  0.0000  0.0000  0.0000  0.0000  0.3268  0.0000  0.0000
  18.  C 2( 2px)    0.0000  0.0000 -0.2651  0.0000  0.0000  0.0000  0.0000  0.0000
  19.  C 2( 3px)    0.0000  0.0000  0.1250  0.0000  0.0000  0.0000  0.0000  0.0000
  20.  C 2( 2py)    0.0000  0.0000  0.0000 -0.2651  0.0000  0.0000  0.0000  0.0000
  21.  C 2( 3py)    0.0000  0.0000  0.0000  0.1250  0.0000  0.0000  0.0000  0.0000
  22.  C 2( 2pz)   -0.0764  0.0000  0.0000  0.0000  0.0000  0.1021  0.0000  0.0000
  23.  C 2( 3pz)   -0.0169  0.0000  0.0000  0.0000  0.0000 -0.3404  0.0000  0.0000
  24.  C 2( 3d1)    0.0000  0.1510  0.0000  0.0000  0.0000  0.0000  0.0000  0.0000
  25.  C 2( 3d2)    0.0000  0.0000 -0.4200  0.0000  0.0000  0.0000  0.0000  0.0000
  26.  C 2( 3d3)    0.0000  0.0000  0.0000 -0.4200  0.0000  0.0000  0.0000  0.0000
  27.  C 2( 3d4)    0.0000  0.0000  0.0000  0.0000  0.1510  0.0000  0.0000  0.0000
  28.  C 2( 3d5)   -0.3205  0.0000  0.0000  0.0000  0.0000  0.1092  0.0000  0.0000

           NAO        17      18      19      20      21      22      23      24
      ------------ ------- ------- ------- ------- ------- ------- ------- -------
   1.  O 1( 1s )   -0.0457  0.0000  0.0000  0.0000  0.0000  0.0952  0.0488  0.0000
   2.  O 1( 2s )   -0.2258  0.0000  0.0000  0.0000  0.0000  0.5309  0.2619  0.0000
   3.  O 1( 3s )    0.1533  0.0000  0.0000  0.0000  0.0000 -0.1576 -0.2104  0.0000
   4.  O 1( 2px)    0.0000  0.3774  0.2001  0.0000  0.0000  0.0000  0.0000  0.0000
   5.  O 1( 3px)    0.0000 -0.3405 -0.2200  0.0000  0.0000  0.0000  0.0000  0.0000
   6.  O 1( 2py)    0.0000  0.0000  0.0000  0.3774  0.2001  0.0000  0.0000  0.0000
   7.  O 1( 3py)    0.0000  0.0000  0.0000 -0.3405 -0.2200  0.0000  0.0000  0.0000
   8.  O 1( 2pz)   -0.1777  0.0000  0.0000  0.0000  0.0000 -0.1953  0.3019  0.0000
   9.  O 1( 3pz)    0.0250  0.0000  0.0000  0.0000  0.0000 -0.0764 -0.0169  0.0000
  10.  O 1( 3d1)    0.0000  0.0000  0.0000  0.0000  0.0000  0.0000  0.0000  0.1510
  11.  O 1( 3d2)    0.0000 -0.2651  0.1250  0.0000  0.0000  0.0000  0.0000  0.0000
  12.  O 1( 3d3)    0.0000  0.0000  0.0000 -0.2651  0.1250  0.0000  0.0000  0.0000
  13.  O 1( 3d4)    0.0000  0.0000  0.0000  0.0000  0.0000  0.0000  0.0000  0.0000
  14.  O 1( 3d5)    0.3268  0.0000  0.0000  0.0000  0.0000  0.1021 -0.3404  0.0000
  15.  C 2( 1s )    0.0000  0.0000  0.0000  0.0000  0.0000  0.0000  0.0000  0.0000
  16.  C 2( 2s )    0.0000  0.0000  0.0000  0.0000  0.0000  0.0000  0.0000  0.0000
  17.  C 2( 3s )    1.0000  0.0000  0.0000  0.0000  0.0000  0.0000  0.0000  0.0000
[...]
            0.0115-0.0036 0.0000-0.0425
      Eigenvector ( 3) has occupancy 2.00000
            0.0000 0.0854 0.0035 0.6658-0.0062 0.5763-0.0054-0.0931
           -0.0023 0.0000-0.0456-0.0395 0.0000 0.0115 0.0000 0.0382
            0.0139 0.3354 0.0046 0.2903 0.0040 0.0665-0.0077 0.0000
            0.0328 0.0284 0.0000 0.0066
      3 hybrids on atom 1 stashed in prospective list
      3 hybrids on atom 2 stashed in prospective list

 Stash prospective hybrids having projection expectation value > 0.300
       0.998 0.998 0.995 0.995 0.993 0.993
      0 hybrids eliminated in 1 pass
      6 hybrids moved from prospective to permanent list

 NHOs of 2-center eigenvectors projected from the NAO density matrix
       0.008 electrons remain in the fully projected matrix

 Search of NHO DM block for the following atom(s):   1
      Select eigenvectors with eigenvalue > 1.900
       2.000 1.993 0.001 0.000 0.000 0.000 0.000 0.000 0.000 0.000 0.000 0.000
       0.000 0.000
      Eigenvector ( 1) has occupancy 1.99999
            1.0000 0.0000 0.0000 0.0000 0.0000 0.0000 0.0000 0.0000
            0.0000 0.0000 0.0000 0.0000 0.0000 0.0000
           NBO accepted:    1. Label:CR ( 1)   1
      Eigenvector ( 2) has occupancy 1.99287
            0.0000 1.0000 0.0000 0.0000 0.0000 0.0000 0.0000 0.0000
            0.0000 0.0000 0.0000 0.0000 0.0000 0.0000
           NBO accepted:    2. Label:LP ( 1)   1
        2 eigenvector(s) stashed in permanent list

 Search of NHO DM block for the following atom(s):   2
      Select eigenvectors with eigenvalue > 1.900
       2.000 1.999 0.007 0.000 0.000 0.000 0.000 0.000 0.000 0.000 0.000 0.000
       0.000 0.000
      Eigenvector ( 1) has occupancy 1.99999
            1.0000 0.0000 0.0000 0.0000 0.0000 0.0000 0.0000 0.0000
            0.0000 0.0000 0.0000 0.0000 0.0000 0.0000
           NBO accepted:    3. Label:CR ( 1)   2
      Eigenvector ( 2) has occupancy 1.99916
            0.0000 1.0000 0.0000 0.0000 0.0000 0.0000 0.0000 0.0000
            0.0000 0.0000 0.0000 0.0000 0.0000 0.0000
           NBO accepted:    4. Label:LP ( 1)   2
        2 eigenvector(s) stashed in permanent list

  1-center NBOs projected from the NHO density matrix
       6.008 electrons remain (>1.900); search continues

 Search of NHO DM block for the following atom(s):   1   2
      Select eigenvectors with eigenvalue > 1.900
       2.000 2.000 2.000 0.000 0.000 0.000 0.000 0.000 0.000 0.000 0.000 0.000
       0.000 0.000 0.000 0.000 0.000 0.000 0.000 0.000 0.000 0.000 0.000 0.000
       0.000 0.000 0.000 0.000
      Eigenvector ( 1) has occupancy 2.00000
            0.0000 0.0000-0.0195-0.6000 0.6428 0.0000 0.0000 0.0000
            0.0000 0.0000 0.0000 0.0000 0.0000 0.0000 0.0000 0.0000
           -0.0023-0.2912 0.3763 0.0000 0.0000 0.0000 0.0000 0.0000
            0.0000 0.0000 0.0000 0.0000
      Occupancy is 1.999 after deleting minor hybrid components
            0.0000 0.0000 0.0000 0.8906 0.0000 0.0000 0.0000 0.0000
            0.0000 0.0000 0.0000 0.0000 0.0000 0.0000 0.0000 0.0000
            0.0000 0.4549 0.0000 0.0000 0.0000 0.0000 0.0000 0.0000
            0.0000 0.0000 0.0000 0.0000
           NBO accepted:    5. Label:BD ( 1)   1   2
      Occupancy is 0.001 for antibonding component
            0.0000 0.0000 0.0000-0.4549 0.0000 0.0000 0.0000 0.0000
            0.0000 0.0000 0.0000 0.0000 0.0000 0.0000 0.0000 0.0000
            0.0000 0.8906 0.0000 0.0000 0.0000 0.0000 0.0000 0.0000
            0.0000 0.0000 0.0000 0.0000
           NBO accepted:    6. Label:BD*( 1)   1   2
      Eigenvector ( 2) has occupancy 2.00000
            0.0000 0.0000 0.1934 0.6386 0.5486 0.0000 0.0000 0.0000
            0.0000 0.0000 0.0000 0.0000 0.0000 0.0000 0.0000 0.0000
            0.1092 0.3404 0.3551 0.0000 0.0000 0.0000 0.0000 0.0000
            0.0000 0.0000 0.0000 0.0000
      Occupancy is 1.999 after deleting minor hybrid components
            0.0000 0.0000 0.0000 0.0000 0.8536 0.0000 0.0000 0.0000
            0.0000 0.0000 0.0000 0.0000 0.0000 0.0000 0.0000 0.0000
            0.0000 0.0000 0.5209 0.0000 0.0000 0.0000 0.0000 0.0000
            0.0000 0.0000 0.0000 0.0000
           NBO accepted:    7. Label:BD ( 2)   1   2
      Occupancy is 0.001 for antibonding component
            0.0000 0.0000 0.0000 0.0000-0.5209 0.0000 0.0000 0.0000
            0.0000 0.0000 0.0000 0.0000 0.0000 0.0000 0.0000 0.0000
            0.0000 0.0000 0.8536 0.0000 0.0000 0.0000 0.0000 0.0000
            0.0000 0.0000 0.0000 0.0000
           NBO accepted:    8. Label:BD*( 2)   1   2
      Eigenvector ( 3) has occupancy 2.00000
            0.0000 0.0000 0.8703-0.1583-0.1197 0.0000 0.0000 0.0000
            0.0000 0.0000 0.0000 0.0000 0.0000 0.0000 0.0000 0.0000
            0.4392-0.0804-0.0624 0.0000 0.0000 0.0000 0.0000 0.0000
            0.0000 0.0000 0.0000 0.0000
      Occupancy is 2.000 after deleting minor hybrid components
            0.0000 0.0000 0.8918 0.0000 0.0000 0.0000 0.0000 0.0000
            0.0000 0.0000 0.0000 0.0000 0.0000 0.0000 0.0000 0.0000
            0.4525 0.0000 0.0000 0.0000 0.0000 0.0000 0.0000 0.0000
            0.0000 0.0000 0.0000 0.0000
           NBO accepted:    9. Label:BD ( 3)   1   2
      Occupancy is 0.000 for antibonding component
            0.0000 0.0000-0.4525 0.0000 0.0000 0.0000 0.0000 0.0000
            0.0000 0.0000 0.0000 0.0000 0.0000 0.0000 0.0000 0.0000
            0.8918 0.0000 0.0000 0.0000 0.0000 0.0000 0.0000 0.0000
            0.0000 0.0000 0.0000 0.0000
           NBO accepted:   10. Label:BD*( 3)   1   2
        6 eigenvector(s) stashed in permanent list

  2-center NBOs projected from the NHO density matrix
       0.008 electrons remain in the fully projected matrix

                            Occupancies       Lewis Structure    Low   High
         Max    Occ     -------------------  -----------------   occ   occ
  Cycle  Ctr   Thresh    Lewis   non-Lewis     CR  BD  nC  LP    (L)   (NL)
 ============================================================================
    1     2     1.90    13.98989   0.01011      2   3   0   2     0      0
 ----------------------------------------------------------------------------

 Structure accepted: No low occupancy Lewis orbitals

 -------------------------------------------------------
   Core                      3.99998 (100.000% of   4)
   Valence Lewis             9.98990 ( 99.899% of  10)
  ==================      =============================
   Total Lewis              13.98989 ( 99.928% of  14)
  -----------------------------------------------------
   Valence non-Lewis         0.00213 (  0.015% of  14)
   Rydberg non-Lewis         0.00798 (  0.057% of  14)
  ==================      =============================
   Total non-Lewis           0.01011 (  0.072% of  14)
 -------------------------------------------------------


     (Occupancy)   Bond orbital / Coefficients / Hybrids
 ------------------ Lewis ------------------------------------------------------
   1. (1.99999) CR ( 1) O  1            s(100.00%)
                                         1.0000  0.0000  0.0000  0.0000  0.0000
                                         0.0000  0.0000  0.0000  0.0000  0.0000
                                         0.0000  0.0000  0.0000  0.0000
   2. (1.99999) CR ( 1) C  2            s(100.00%)
                                         1.0000  0.0000  0.0000  0.0000  0.0000
                                         0.0000  0.0000  0.0000  0.0000  0.0000
                                         0.0000  0.0000  0.0000  0.0000
   3. (1.99287) LP ( 1) O  1            s( 54.68%)p 0.83( 45.20%)d 0.00(  0.12%)
                                         0.0000  0.7392 -0.0180  0.0000  0.0000
                                         0.0000  0.0000  0.6723  0.0078  0.0000
                                         0.0000  0.0000  0.0000 -0.0350
   4. (1.99916) LP ( 1) C  2            s( 75.39%)p 0.33( 24.58%)d 0.00(  0.02%)
                                         0.0000  0.8679 -0.0271  0.0000  0.0000
                                         0.0000  0.0000 -0.4946 -0.0343  0.0000
                                         0.0000  0.0000  0.0000 -0.0150
   5. (1.99917) BD ( 1) O  1- C  2
               ( 79.31%)   0.8906* O  1 s(  2.43%)p39.96( 97.08%)d 0.20(  0.49%)
                                         0.0000  0.1557  0.0063  0.6084 -0.0057
                                        -0.7561  0.0071 -0.1699 -0.0042  0.0000
                                        -0.0417  0.0518  0.0000  0.0211
               ( 20.69%)   0.4549* C  2 s(  1.41%)p69.39( 97.66%)d 0.66(  0.93%)
                                         0.0000  0.1115  0.0406  0.6074  0.0083
                                        -0.7544 -0.0104  0.1944 -0.0225  0.0000
                                         0.0593 -0.0737  0.0000  0.0193
   6. (1.99905) BD ( 2) O  1- C  2
               ( 72.87%)   0.8536* O  1 s( 41.86%)p 1.37( 57.34%)d 0.02(  0.80%)
                                         0.0000  0.6464  0.0262 -0.2623  0.0025
                                         0.0820 -0.0008 -0.7054 -0.0176  0.0000
                                         0.0180 -0.0056  0.0000  0.0874
               ( 27.13%)   0.5209* C  2 s( 24.70%)p 3.02( 74.57%)d 0.03(  0.72%)
                                         0.0000  0.4671  0.1699 -0.2593 -0.0036
                                         0.0812  0.0011  0.8143 -0.0941  0.0000
                                        -0.0253  0.0079  0.0000  0.0808
   7. (1.99965) BD ( 3) O  1- C  2
               ( 79.53%)   0.8918* O  1 s(  1.01%)p97.76( 98.52%)d 0.47(  0.47%)
                                         0.0000  0.1003  0.0041  0.7459 -0.0070
                                         0.6456 -0.0061 -0.1094 -0.0027  0.0000
                                        -0.0511 -0.0442  0.0000  0.0136
               ( 20.47%)   0.4525* C  2 s(  0.58%)p99.99( 98.48%)d 1.61(  0.94%)
                                         0.0000  0.0717  0.0261  0.7444  0.0102
                                         0.6439  0.0088  0.1251 -0.0145  0.0000
                                         0.0727  0.0629  0.0000  0.0124
 ---------------- non-Lewis ----------------------------------------------------
   8. (0.00069) BD*( 1) O  1- C  2
               ( 20.69%)   0.4549* O  1 s(  2.43%)p39.96( 97.08%)d 0.20(  0.49%)
                                         0.0000 -0.1557 -0.0063 -0.6084  0.0057
                                         0.7561 -0.0071  0.1699  0.0042  0.0000
                                         0.0417 -0.0518  0.0000 -0.0211
               ( 79.31%)  -0.8906* C  2 s(  1.41%)p69.39( 97.66%)d 0.66(  0.93%)
                                         0.0000 -0.1115 -0.0406 -0.6074 -0.0083
                                         0.7544  0.0104 -0.1944  0.0225  0.0000
                                        -0.0593  0.0737  0.0000 -0.0193
   9. (0.00115) BD*( 2) O  1- C  2
               ( 27.13%)   0.5209* O  1 s( 41.86%)p 1.37( 57.34%)d 0.02(  0.80%)
                                         0.0000 -0.6464 -0.0262  0.2623 -0.0025
                                        -0.0820  0.0008  0.7054  0.0176  0.0000
                                        -0.0180  0.0056  0.0000 -0.0874
               ( 72.87%)  -0.8536* C  2 s( 24.70%)p 3.02( 74.57%)d 0.03(  0.72%)
                                         0.0000 -0.4671 -0.1699  0.2593  0.0036
                                        -0.0812 -0.0011 -0.8143  0.0941  0.0000
                                         0.0253 -0.0079  0.0000 -0.0808
  10. (0.00029) BD*( 3) O  1- C  2
               ( 20.47%)   0.4525* O  1 s(  1.01%)p97.76( 98.52%)d 0.47(  0.47%)
                                         0.0000 -0.1003 -0.0041 -0.7459  0.0070
                                        -0.6456  0.0061  0.1094  0.0027  0.0000
                                         0.0511  0.0442  0.0000 -0.0136
               ( 79.53%)  -0.8918* C  2 s(  0.58%)p99.99( 98.48%)d 1.61(  0.94%)
                                         0.0000 -0.0717 -0.0261 -0.7444 -0.0102
                                        -0.6439 -0.0088 -0.1251  0.0145  0.0000
                                        -0.0727 -0.0629  0.0000 -0.0124
  11. (0.00084) RY ( 1) O  1            s( 12.41%)p 1.00( 12.45%)d 6.06( 75.14%)
                                         0.0000 -0.0350  0.3505  0.0000  0.0000
                                         0.0000  0.0000  0.0968 -0.3393  0.0000
                                         0.0000  0.0000  0.0000  0.8668
  12. (0.00000) RY ( 2) O  1            s( 14.11%)p 4.56( 64.38%)d 1.52( 21.51%)
  13. (0.00000) RY ( 3) O  1            s(  0.00%)p 1.00(  1.05%)d94.61( 98.95%)
  14. (0.00000) RY ( 4) O  1            s(  0.00%)p 0.00(  0.00%)d 1.00(100.00%)
  15. (0.00000) RY ( 5) O  1            s(  0.00%)p 0.00(  0.00%)d 1.00(100.00%)
  16. (0.00000) RY ( 6) O  1            s(  0.00%)p 1.00( 33.96%)d 1.95( 66.04%)
  17. (0.00000) RY ( 7) O  1            s(  0.00%)p 1.00( 99.89%)d 0.00(  0.11%)
  18. (0.00000) RY ( 8) O  1            s( 73.51%)p 0.33( 24.09%)d 0.03(  2.40%)
  19. (0.00000) RY ( 9) O  1            s(  0.00%)p 1.00( 66.05%)d 0.51( 33.95%)
  20. (0.00713) RY ( 1) C  2            s( 34.22%)p 1.86( 63.67%)d 0.06(  2.10%)
                                         0.0000 -0.1043  0.5756  0.0000  0.0000
                                         0.0000  0.0000 -0.1649 -0.7807  0.0000
                                         0.0000  0.0000  0.0000  0.1450
  21. (0.00000) RY ( 2) C  2            s( 21.98%)p 0.15(  3.35%)d 3.40( 74.66%)
  22. (0.00000) RY ( 3) C  2            s(  0.00%)p 1.00(  4.46%)d21.41( 95.54%)
  23. (0.00000) RY ( 4) C  2            s(  0.00%)p 0.00(  0.00%)d 1.00(100.00%)
  24. (0.00000) RY ( 5) C  2            s(  0.00%)p 0.00(  0.00%)d 1.00(100.00%)
  25. (0.00000) RY ( 6) C  2            s(  0.00%)p 1.00( 75.65%)d 0.32( 24.35%)
  26. (0.00000) RY ( 7) C  2            s(  0.00%)p 1.00( 96.48%)d 0.04(  3.52%)
  27. (0.00000) RY ( 8) C  2            s( 41.70%)p 0.86( 35.79%)d 0.54( 22.50%)
  28. (0.00000) RY ( 9) C  2            s(  0.00%)p 1.00( 25.30%)d 2.95( 74.70%)


 NHO DIRECTIONALITY AND BOND BENDING (deviation from line of nuclear centers at
                                      the position of maximum hybrid amplitude)

         [Thresholds for printing:  angular deviation  >  1.0 degree]
                                    p- or d-character  > 25.0%
                                    orbital occupancy  >  0.10e

                        Line of Centers        Hybrid 1             Hybrid 2
                        ---------------  -------------------  ------------------
           NBO            Theta   Phi    Theta   Phi    Dev   Theta   Phi    Dev
 ===============================================================================
   3. LP ( 1) O  1          --     --      0.0    0.0   --      --     --    --
   5. BD ( 1) O  1- C  2  180.0    0.0   103.7  308.8  76.3    71.6  308.8  71.6
   6. BD ( 2) O  1- C  2  180.0    0.0   162.6  162.6  17.4    17.4  162.6  17.4
   7. BD ( 3) O  1- C  2  180.0    0.0    99.1   40.9  80.9    76.6   40.9  76.6


 SECOND ORDER PERTURBATION THEORY ANALYSIS OF FOCK MATRIX IN NBO BASIS

     Threshold for printing:   0.50 kcal/mol
                                                          E(2) E(NL)-E(L) F(L,NL)
      Donor (L) NBO              Acceptor (NL) NBO      kcal/mol   a.u.    a.u.
 ===============================================================================

 within unit  1
    3. LP ( 1) O  1            20. RY ( 1) C  2            7.33    1.63   0.097
    4. LP ( 1) C  2            11. RY ( 1) O  1            1.42    2.67   0.055
    5. BD ( 1) O  1- C  2       9. BD*( 2) O  1- C  2      0.90    1.71   0.035
    6. BD ( 2) O  1- C  2       8. BD*( 1) O  1- C  2      0.70    1.58   0.030


 NATURAL BOND ORBITALS (Summary):

                                                     Principal Delocalizations
           NBO                 Occupancy    Energy   (geminal,vicinal,remote)
 ===============================================================================
 Molecular unit  1  (CO)
 ------ Lewis --------------------------------------
    1. CR ( 1) O  1             1.99999   -20.67103
    2. CR ( 1) C  2             1.99999   -11.37196
    3. LP ( 1) O  1             1.99287    -0.89939  20(v)
    4. LP ( 1) C  2             1.99916    -0.60113  11(v)
    5. BD ( 1) O  1- C  2       1.99917    -0.66071  9(g)
    6. BD ( 2) O  1- C  2       1.99905    -1.28729  8(g)
    7. BD ( 3) O  1- C  2       1.99965    -0.63877
 ------ non-Lewis ----------------------------------
    8. BD*( 1) O  1- C  2       0.00069     0.29361
    9. BD*( 2) O  1- C  2       0.00115     1.04591
   10. BD*( 3) O  1- C  2       0.00029     0.26734
   11. RY ( 1) O  1             0.00084     2.07000
   12. RY ( 2) O  1             0.00000     2.11455
   13. RY ( 3) O  1             0.00000     2.23596
   14. RY ( 4) O  1             0.00000     2.02399
   15. RY ( 5) O  1             0.00000     2.02399
   16. RY ( 6) O  1             0.00000     1.79064
   17. RY ( 7) O  1             0.00000     1.19701
   18. RY ( 8) O  1             0.00000     1.68386
   19. RY ( 9) O  1             0.00000     1.65432
   20. RY ( 1) C  2             0.00713     0.72606
   21. RY ( 2) C  2             0.00000     2.23356
   22. RY ( 3) C  2             0.00000     2.40261
   23. RY ( 4) C  2             0.00000     1.98196
   24. RY ( 5) C  2             0.00000     1.98196
   25. RY ( 6) C  2             0.00000     1.11004
   26. RY ( 7) C  2             0.00000     0.75687
   27. RY ( 8) C  2             0.00000     1.17810
   28. RY ( 9) C  2             0.00000     2.04934
          -------------------------------
                 Total Lewis   13.98989  ( 99.9278%)
           Valence non-Lewis    0.00213  (  0.0152%)
           Rydberg non-Lewis    0.00798  (  0.0570%)
          -------------------------------
               Total unit  1   14.00000  (100.0000%)
              Charge unit  1    0.00000

 $CHOOSE
   LONE 1 1 2 1 END
   BOND T 1 2 END
 $END

 NBO analysis completed in 0.31 CPU seconds (1 wall second)
 Maximum scratch memory used by NBO was 318543 words (2.43 MB)
 Maximum scratch memory used by G16NBO was 9422 words (0.07 MB)

 Opening RunExU unformatted file "/cluster/work/users/beto93/mol28/Gau-1309089.EUF"
 Read unf file /cluster/work/users/beto93/mol28/Gau-1309089.EUF:
 Label Gaussian matrix elements                                         IVers= 2 NLab= 2 Version=ES64L-G16RevC.01
 Title mol28-NBO                                                       
 NAtoms=     2 NBasis=    28 NBsUse=    28 ICharg=     0 Multip=     1 NE=    14 Len12L=8 Len4L=8 IOpCl= 0 ICGU=111
 GAUSSIAN SCALARS                    NI= 1 NR= 1 NTot=       1 LenBuf=    2 NRI=1 N=    1000
 NPA CHARGES                         NI= 0 NR= 1 NTot=       2 LenBuf= 4000 NRI=1 N=       2
 Recovered energy= -112.733907325     dipole=      0.000000000000      0.000000000000     -0.172315148009
 Unable to Open any file for archive entry.
 1\1\GINC-C3-24\SP\RHF\6-31G(d)\C1O1\BETO93\18-Nov-2024\0\\#RHF/6-31G* 
 int=nobasistransform Symmetry=None 5D 7F Pop=NBO7Read\\mol28-NBO\\0,1\
 O,0,0.,0.,0.493003\C,0,0.,0.,-0.657337\\Version=ES64L-G16RevC.01\HF=-1
 12.7339073\RMSD=6.562e-09\Dipole=0.,0.,-0.1723151\Quadrupole=0.5253216
 ,0.5253216,-1.0506431,0.,0.,0.\PG=Unknown\\@
 The archive entry for this job was punched.


 NOTHING WILL BE ATTEMPTED IF ALL POSSIBLE OBJECTIONS
 MUST FIRST BE OVERCOME.

                               -- THE GOLDEN PRINCIPLE,
                    PAUL DICKSON'S "THE OFFICIAL RULES"
 Job cpu time:       0 days  0 hours  0 minutes  7.8 seconds.
 Elapsed time:       0 days  0 hours  0 minutes  2.5 seconds.
 File lengths (MBytes):  RWF=     10 Int=      0 D2E=      0 Chk=      1 Scr=      1
 Normal termination of Gaussian 16 at Mon Nov 18 16:40:07 2024.
