 Entering Gaussian System, Link 0=g16
 Initial command:
 /cluster/software/Gaussian/g16_C.01/l1.exe "/cluster/work/users/beto93/CH3Li/Gau-1258965.inp" -scrdir="/cluster/work/users/beto93/CH3Li/"
 Entering Link 1 = /cluster/software/Gaussian/g16_C.01/l1.exe PID=   1258968.
  
 Copyright (c) 1988-2019, Gaussian, Inc.  All Rights Reserved.
  
 This is part of the Gaussian(R) 16 program.  It is based on
 the Gaussian(R) 09 system (copyright 2009, Gaussian, Inc.),
 the Gaussian(R) 03 system (copyright 2003, Gaussian, Inc.),
 the Gaussian(R) 98 system (copyright 1998, Gaussian, Inc.),
 the Gaussian(R) 94 system (copyright 1995, Gaussian, Inc.),
 the Gaussian 92(TM) system (copyright 1992, Gaussian, Inc.),
 the Gaussian 90(TM) system (copyright 1990, Gaussian, Inc.),
 the Gaussian 88(TM) system (copyright 1988, Gaussian, Inc.),
 the Gaussian 86(TM) system (copyright 1986, Carnegie Mellon
 University), and the Gaussian 82(TM) system (copyright 1983,
 Carnegie Mellon University). Gaussian is a federally registered
 trademark of Gaussian, Inc.
  
 This software contains proprietary and confidential information,
 including trade secrets, belonging to Gaussian, Inc.
  
 This software is provided under written license and may be
 used, copied, transmitted, or stored only in accord with that
 written license.
  
 The following legend is applicable only to US Government
 contracts under FAR:
  
                    RESTRICTED RIGHTS LEGEND
  
 Use, reproduction and disclosure by the US Government is
 subject to restrictions as set forth in subparagraphs (a)
 and (c) of the Commercial Computer Software - Restricted
 Rights clause in FAR 52.227-19.
  
 Gaussian, Inc.
 340 Quinnipiac St., Bldg. 40, Wallingford CT 06492
  
  
 ---------------------------------------------------------------
 Warning -- This program may not be used in any manner that
 competes with the business of Gaussian, Inc. or will provide
 assistance to any competitor of Gaussian, Inc.  The licensee
 of this program is prohibited from giving any competitor of
 Gaussian, Inc. access to this program.  By using this program,
 the user acknowledges that Gaussian, Inc. is engaged in the
 business of creating and licensing software in the field of
 computational chemistry and represents and warrants to the
 licensee that it is not a competitor of Gaussian, Inc. and that
 it will not use this program in any manner prohibited above.
 ---------------------------------------------------------------
  

 Cite this work as:
 Gaussian 16, Revision C.01,
 M. J. Frisch, G. W. Trucks, H. B. Schlegel, G. E. Scuseria, 
 M. A. Robb, J. R. Cheeseman, G. Scalmani, V. Barone, 
 G. A. Petersson, H. Nakatsuji, X. Li, M. Caricato, A. V. Marenich, 
 J. Bloino, B. G. Janesko, R. Gomperts, B. Mennucci, H. P. Hratchian, 
 J. V. Ortiz, A. F. Izmaylov, J. L. Sonnenberg, D. Williams-Young, 
 F. Ding, F. Lipparini, F. Egidi, J. Goings, B. Peng, A. Petrone, 
 T. Henderson, D. Ranasinghe, V. G. Zakrzewski, J. Gao, N. Rega, 
 G. Zheng, W. Liang, M. Hada, M. Ehara, K. Toyota, R. Fukuda, 
 J. Hasegawa, M. Ishida, T. Nakajima, Y. Honda, O. Kitao, H. Nakai, 
 T. Vreven, K. Throssell, J. A. Montgomery, Jr., J. E. Peralta, 
 F. Ogliaro, M. J. Bearpark, J. J. Heyd, E. N. Brothers, K. N. Kudin, 
 V. N. Staroverov, T. A. Keith, R. Kobayashi, J. Normand, 
 K. Raghavachari, A. P. Rendell, J. C. Burant, S. S. Iyengar, 
 J. Tomasi, M. Cossi, J. M. Millam, M. Klene, C. Adamo, R. Cammi, 
 J. W. Ochterski, R. L. Martin, K. Morokuma, O. Farkas, 
 J. B. Foresman, and D. J. Fox, Gaussian, Inc., Wallingford CT, 2019.
 
 ******************************************
 Gaussian 16:  ES64L-G16RevC.01  3-Jul-2019
                24-Jul-2024 
 ******************************************
 %LindaWorkers=c1-25-ib
 %NProcShared=4
 Will use up to    4 processors via shared memory.
 %mem=25GB
 %chk=a.chk
 SetLPE:    new flags="-opt 'Tsnet.Node.lindarsharg: ssh'  -nodelist 'c1-25-ib.saga' -env GAUSS_MDEF=3355443200 -env GAUSS_EXEDIR="/cluster/software/Gaussian/g16_C.01/bsd:/cluster/software/Gaussian/g16_C.01""
 Will use up to    1 processors via Linda.
 ------------------------
 #RHF/6-31G* Pop=NBO7Read
 ------------------------
 1/38=1,163=2,172=1/1;
 2/12=2,17=6,18=5,40=1/2;
 3/5=1,6=6,7=1,11=1,25=1,30=1,116=1/1,2,3;
 4//1;
 5/5=2,38=5/2;
 6/7=2,8=2,9=2,10=2,28=1,40=2,113=1,114=1,124=2103/1,12;
 99/5=1,9=1/99;
 -----
 NBO-a
 -----
 Symbolic Z-matrix:
 Charge =  0 Multiplicity = 1
 C                     0.       0.         0. 
 Li                   -0.94679   1.63988  -0.66948 
 H                     0.02951  -0.05111   1.0811 
 H                     1.0291   -0.05111  -0.33255 
 H                    -0.47029  -0.91678  -0.33255 
 
                          Input orientation:                          
 ---------------------------------------------------------------------
 Center     Atomic      Atomic             Coordinates (Angstroms)
 Number     Number       Type             X           Y           Z
 ---------------------------------------------------------------------
      1          6           0        0.000002   -0.000003    0.000002
      2          3           0       -0.946785    1.639879   -0.669478
      3          1           0        0.029505   -0.051105    1.081096
      4          1           0        1.029102   -0.051105   -0.332545
      5          1           0       -0.470291   -0.916780   -0.332547
 ---------------------------------------------------------------------
                    Distance matrix (angstroms):
                    1          2          3          4          5
     1  C    0.000000
     2  Li   2.008438   0.000000
     3  H    1.082703   2.622418   0.000000
     4  H    1.082703   2.622419   1.731351   0.000000
     5  H    1.082702   2.622418   1.731351   1.731350   0.000000
 This structure is nearly, but not quite of a higher symmetry.
 Consider Symm=Loose if the higher symmetry is desired.
 Stoichiometry    CH3Li
 Framework group  C1[X(CH3Li)]
 Deg. of freedom     9
 Full point group                 C1      NOp   1
 Largest Abelian subgroup         C1      NOp   1
 Largest concise Abelian subgroup C1      NOp   1
                         Standard orientation:                         
 ---------------------------------------------------------------------
 Center     Atomic      Atomic             Coordinates (Angstroms)
 Number     Number       Type             X           Y           Z
 ---------------------------------------------------------------------
      1          6           0        0.395918    0.003064    0.041605
      2          3           0       -1.601462   -0.012393   -0.168288
      3          1           0        0.798015    1.005111    0.122013
      4          1           0        0.905585   -0.460297   -0.793729
      5          1           0        0.725276   -0.526019    0.926952
 ---------------------------------------------------------------------
 Rotational constants (GHZ):         167.2869550          22.1054260          22.1054241
 Standard basis: 6-31G(d) (6D, 7F)
 There are    36 symmetry adapted cartesian basis functions of A   symmetry.
 There are    36 symmetry adapted basis functions of A   symmetry.
    36 basis functions,    68 primitive gaussians,    36 cartesian basis functions
     6 alpha electrons        6 beta electrons
       nuclear repulsion energy        16.2732303570 Hartrees.
 NAtoms=    5 NActive=    5 NUniq=    5 SFac= 1.00D+00 NAtFMM=   60 NAOKFM=F Big=F
 Integral buffers will be    131072 words long.
 Raffenetti 1 integral format.
 Two-electron integral symmetry is turned on.
 One-electron integrals computed using PRISM.
 NBasis=    36 RedAO= T EigKep=  6.15D-03  NBF=    36
 NBsUse=    36 1.00D-06 EigRej= -1.00D+00 NBFU=    36
 ExpMin= 3.60D-02 ExpMax= 3.05D+03 ExpMxC= 4.57D+02 IAcc=3 IRadAn=         5 AccDes= 0.00D+00
 Harris functional with IExCor=  205 and IRadAn=       5 diagonalized for initial guess.
 HarFok:  IExCor=  205 AccDes= 0.00D+00 IRadAn=         5 IDoV= 1 UseB2=F ITyADJ=14
 ICtDFT=  3500011 ScaDFX=  1.000000  1.000000  1.000000  1.000000
 FoFCou: FMM=F IPFlag=           0 FMFlag=      100000 FMFlg1=           0
         NFxFlg=           0 DoJE=T BraDBF=F KetDBF=T FulRan=T
         wScrn=  0.000000 ICntrl=       500 IOpCl=  0 I1Cent=   200000004 NGrid=           0
         NMat0=    1 NMatS0=      1 NMatT0=    0 NMatD0=    1 NMtDS0=    0 NMtDT0=    0
 Petite list used in FoFCou.
 Keep R1 ints in memory in canonical form, NReq=1055240.
 Requested convergence on RMS density matrix=1.00D-08 within 128 cycles.
 Requested convergence on MAX density matrix=1.00D-06.
 Requested convergence on             energy=1.00D-06.
 No special actions if energy rises.
 SCF Done:  E(RHF) =  -47.0153141376     A.U. after   11 cycles
            NFock= 11  Conv=0.43D-08     -V/T= 1.9988

 **********************************************************************

            Population analysis using the SCF Density.

 **********************************************************************

 Orbital symmetries:
       Occupied  (A) (A) (A) (A) (A) (A)
       Virtual   (A) (A) (A) (A) (A) (A) (A) (A) (A) (A) (A) (A)
                 (A) (A) (A) (A) (A) (A) (A) (A) (A) (A) (A) (A)
                 (A) (A) (A) (A) (A) (A)
 The electronic state is 1-A.
 Alpha  occ. eigenvalues --  -11.10785  -2.42270  -0.82455  -0.45365  -0.45365
 Alpha  occ. eigenvalues --   -0.27708
 Alpha virt. eigenvalues --    0.01160   0.06864   0.06864   0.11456   0.20011
 Alpha virt. eigenvalues --    0.22522   0.22522   0.39619   0.40578   0.40578
 Alpha virt. eigenvalues --    0.43573   0.59330   0.59330   0.62096   0.62096
 Alpha virt. eigenvalues --    0.87934   0.95521   0.95521   1.03500   1.23229
 Alpha virt. eigenvalues --    1.27465   1.27465   1.41037   1.60426   2.13417
 Alpha virt. eigenvalues --    2.13417   2.34808   2.72273   2.72274   4.76297
          Condensed to atoms (all electrons):
               1          2          3          4          5
     1  C    5.302686   0.357584   0.374744   0.374744   0.374744
     2  Li   0.357584   2.291233  -0.025205  -0.025205  -0.025205
     3  H    0.374744  -0.025205   0.601757  -0.035266  -0.035266
     4  H    0.374744  -0.025205  -0.035266   0.601757  -0.035266
     5  H    0.374744  -0.025205  -0.035266  -0.035266   0.601756
 Mulliken charges:
               1
     1  C   -0.784502
     2  Li   0.426796
     3  H    0.119235
     4  H    0.119235
     5  H    0.119235
 Sum of Mulliken charges =  -0.00000
 Mulliken charges with hydrogens summed into heavy atoms:
               1
     1  C   -0.426796
     2  Li   0.426796
 Electronic spatial extent (au):  <R**2>=             66.6076
 Charge=             -0.0000 electrons
 Dipole moment (field-independent basis, Debye):
    X=             -5.6735    Y=             -0.0439    Z=             -0.5962  Tot=              5.7049
 Quadrupole moment (field-independent basis, Debye-Ang):
   XX=             -0.8656   YY=            -11.4791   ZZ=            -11.3625
   XY=              0.0821   XZ=              1.1154   YZ=              0.0086
 Traceless Quadrupole moment (field-independent basis, Debye-Ang):
   XX=              7.0368   YY=             -3.5767   ZZ=             -3.4601
   XY=              0.0821   XZ=              1.1154   YZ=              0.0086
 Octapole moment (field-independent basis, Debye-Ang**2):
  XXX=            -26.8328  YYY=              0.1688  ZZZ=             -0.5288  XYY=             -1.5296
  XXY=             -0.1862  XXZ=             -2.4999  XZZ=             -1.7662  YZZ=             -0.2157
  YYZ=             -0.1372  XYZ=              0.0029
 Hexadecapole moment (field-independent basis, Debye-Ang**3):
 XXXX=            -18.5044 YYYY=            -23.0698 ZZZZ=            -23.3762 XXXY=              0.1274
 XXXZ=              1.8541 YYYX=              0.1902 YYYZ=              0.0208 ZZZX=             -1.3707
 ZZZY=             -0.1016 XXYY=            -12.0672 XXZZ=            -11.7547 YYZZ=             -7.7384
 XXYZ=              0.0813 YYXZ=             -0.4257 ZZXY=             -0.3133
 N-N= 1.627323035702D+01 E-N=-1.425722145230D+02  KE= 4.707411131255D+01
 Running external command "gaunbo7 R"
         input file       "/cluster/work/users/beto93/CH3Li/Gau-1258968.EIn"
         output file      "/cluster/work/users/beto93/CH3Li/Gau-1258968.EOu"
         message file     "/cluster/work/users/beto93/CH3Li/Gau-1258968.EMs"
         fchk file        "/cluster/work/users/beto93/CH3Li/Gau-1258968.EFC"
         mat. el file     "/cluster/work/users/beto93/CH3Li/Gau-1258968.EUF"

 Writing WrtUnf unformatted file "/cluster/work/users/beto93/CH3Li/Gau-1258968.EUF"
 Gaussian matrix elements                                         Version   2 NLab=11 Len12L=8 Len4L=8
 Write SHELL TO ATOM MAP                   from file      0 offset           0 length                  14 to matrix element file.
 Write SHELL TYPES                         from file      0 offset           0 length                  14 to matrix element file.
 Write NUMBER OF PRIMITIVES PER SHELL      from file      0 offset           0 length                  14 to matrix element file.
 Write PRIMITIVE EXPONENTS                 from file      0 offset           0 length                  34 to matrix element file.
 Write CONTRACTION COEFFICIENTS            from file      0 offset           0 length                  34 to matrix element file.
 Write P(S=P) CONTRACTION COEFFICIENTS     from file      0 offset           0 length                  34 to matrix element file.
 Write COORDINATES OF EACH SHELL           from file      0 offset           0 length                  42 to matrix element file.
 Write BONDS PER ATOM                      from file      0 offset           0 length                   5 to matrix element file.
 Write BONDED ATOMS                        from file      0 offset           0 length                   8 to matrix element file.
 Write BOND TYPES                          from file      0 offset           0 length                   8 to matrix element file.
 Write ONIOM CHARGE/MULT                   from file      0 offset           0 length                  32 to matrix element file.
 Write ONIOM ATOM LAYERS                   from file      0 offset           0 length                   5 to matrix element file.
 Write ONIOM ATOM MODIFIERS                from file      0 offset           0 length                   5 to matrix element file.
 Write ONIOM ATOM TYPES                    from file      0 offset           0 length                   5 to matrix element file.
 Write ONIOM LINK ATOMS                    from file      0 offset           0 length                   5 to matrix element file.
 Write ONIOM LINK CHARGES                  from file      0 offset           0 length                   5 to matrix element file.
 Write ONIOM LINK DISTANCES                from file      0 offset           0 length                  20 to matrix element file.
 Write SYMINF INTS                         from file      0 offset           0 length                  26 to matrix element file.
 Write ROTTR TO SO                         from file      0 offset           0 length                  12 to matrix element file.
 Write GAUSSIAN SCALARS                    from file    501 offset           0 to matrix element file.
 Write OPTIMIZATION FLAGS                  from file      0 offset           0 length                   5 to matrix element file.
 Write INTEGER ISO                         from file      0 offset           0 length                   5 to matrix element file.
 Write INTEGER SPIN                        from file      0 offset           0 length                   5 to matrix element file.
 Write REAL ZEFFECTIVE                     from file      0 offset           0 length                   5 to matrix element file.
 Write REAL QUADRUPOLEMOMENT               from file      0 offset           0 length                   5 to matrix element file.
 Write REAL GFACTOR                        from file      0 offset           0 length                   5 to matrix element file.
 Write REAL ZNUCLEAR                       from file      0 offset           0 length                   5 to matrix element file.
 Write MULLIKEN CHARGES                    from file      0 offset           0 length                   5 to matrix element file.
 Write NUCLEAR GRADIENT                    from file  10584 offset           0 length                  15 to matrix element file.
 Array NUCLEAR FORCE CONSTANTS              on  file  10585 does not exist.
 Write ELECTRIC DIPOLE MOMENT              from file      0 offset           0 length                   3 to matrix element file.
 Write NON-ADIABATIC COUPLING              from file  10810 offset           0 length                  15 to matrix element file.
 Write FINITE EM FIELD                     from file  10521 offset           0 length                  35 to matrix element file.
 Write OVERLAP                             from file  10514 offset           0 length                 666 to matrix element file.
 Write CORE HAMILTONIAN ALPHA              from file  10515 offset           0 length                 666 to matrix element file.
 Write CORE HAMILTONIAN BETA               from file  10515 offset         666 length                 666 to matrix element file.
 Write KINETIC ENERGY                      from file  10516 offset           0 length                 666 to matrix element file.
 Write ORTHOGONAL BASIS                    from file  10685 offset           0 length                1296 to matrix element file.
 Write DIPOLE INTEGRALS                    from file  10518 offset           0 length                1998 to matrix element file.
 Array DIP VEL INTEGRALS                    on  file  10572 does not exist.
 Array R X DEL INTEGRALS                    on  file  10572 does not exist.
 Write ALPHA ORBITAL ENERGIES              from file      0 offset           0 length                  36 to matrix element file.
 Write ALPHA MO COEFFICIENTS               from file  10524 offset           0 length                1296 to matrix element file.
 Write ALPHA DENSITY MATRIX                from file      0 offset           0 length                 666 to matrix element file.
 Write ALPHA FOCK MATRIX                   from file  10536 offset           0 length                 666 to matrix element file.
 Write ENERGY-WEIGHTED DENSITY             from file  10571 offset           0 length                 666 to matrix element file.
 Write ALPHA SCF DENSITY MATRIX            from file      0 offset           0 length                 666 to matrix element file.
 No 2e integrals to process.
 Perform NBO analysis...executing G16NBO...

 *********************************** NBO 7.0 ***********************************
             N A T U R A L   A T O M I C   O R B I T A L   A N D
          N A T U R A L   B O N D   O R B I T A L   A N A L Y S I S
 **************************** Espen Tangen (S101595) ***************************
  (c) Copyright 1996-2021 Board of Regents of the University of Wisconsin System
      on behalf of the Theoretical Chemistry Institute.  All rights reserved.

          Cite this program [NBO 7.0.10 (8-Feb-2021)] as:

          NBO 7.0.  E. D. Glendening, J. K. Badenhoop, A. E. Reed,
          J. E. Carpenter, J. A. Bohmann, C. M. Morales, P. Karafiloglou,
          C. R. Landis, and F. Weinhold, Theoretical Chemistry Institute,
          University of Wisconsin, Madison, WI (2018)

       /NPA    / : Natural Population Analysis
       /AOPNAO / : Print the AO to PNAO transformation
       /AONAO  / : Print the AO to NAO transformation
       /AONO   / : Print the NOs in the AO basis
       /AOMO   / : Print the MOs in the AO basis
       /BOAO   / : Print the AO bond-order matrix
       /DMAO   / : Print the AO density matrix
       /DMPNAO / : Print the PNAO density matrix
       /DMNAO  / : Print the NAO density matrix
       /DMMO   / : Print the MO density matrix
       /SAO    / : Print the AO overlap matrix
       /SPNAO  / : Print the PNAO overlap matrix
       /DETAIL / : Write details of NBO search
       /ARCHIVE/ : Write the archive file to lfn47
       /AOINFO / : Write AO information to lfn31
       /FILE   / : Set to inpGenNbo

 Filename set to inpGenNbo

 Job title: NBO-a


 MOs in the AO basis:

           AO          1       2       3       4       5       6       7       8
      ------------ ------- ------- ------- ------- ------- ------- ------- -------
   1.  C 1 (s)      0.9958 -0.0015 -0.1896  0.0000  0.0000  0.0479  0.0216  0.0000
   2.  C 1 (s)      0.0280 -0.0011  0.3416  0.0000  0.0000 -0.0848 -0.0209  0.0000
   3.  C 1 (px)     0.0008 -0.0022  0.0818  0.0261 -0.0342  0.4413  0.0800 -0.0030
   4.  C 1 (py)     0.0000  0.0000  0.0006  0.3078  0.2721  0.0034  0.0006 -0.0391
   5.  C 1 (pz)     0.0001 -0.0002  0.0086 -0.2708  0.3059  0.0464  0.0084  0.0312
   6.  C 1 (s)     -0.0148  0.0158  0.3506  0.0000  0.0000 -0.1820 -0.1926  0.0000
   7.  C 1 (px)    -0.0003 -0.0082  0.0312  0.0135 -0.0178  0.3603  0.1082 -0.0018
   8.  C 1 (py)     0.0000 -0.0001  0.0002  0.1597  0.1412  0.0028  0.0008 -0.0243
   9.  C 1 (pz)     0.0000 -0.0009  0.0033 -0.1405  0.1587  0.0379  0.0114  0.0194
  10.  C 1 (d1)    -0.0019  0.0014 -0.0008  0.0029 -0.0042 -0.0010  0.0014 -0.0010
  11.  C 1 (d4)    -0.0017 -0.0008  0.0120  0.0157  0.0174  0.0015  0.0030 -0.0032
  12.  C 1 (d6)    -0.0017 -0.0007  0.0119 -0.0186 -0.0132  0.0015  0.0030  0.0042
  13.  C 1 (d2)     0.0000  0.0000 -0.0001  0.0184  0.0199  0.0000  0.0000 -0.0072
  14.  C 1 (d3)     0.0000  0.0003 -0.0016 -0.0163  0.0224 -0.0003 -0.0002  0.0056
  15.  C 1 (d5)     0.0000  0.0000  0.0000  0.0217 -0.0157  0.0000  0.0000 -0.0044
  16. Li 2 (s)      0.0004  0.9973 -0.0303  0.0000  0.0000  0.1290 -0.1318  0.0000
  17. Li 2 (s)      0.0038 -0.0133  0.0339  0.0000  0.0000 -0.3165 -0.4588  0.0000
  18. Li 2 (px)     0.0028 -0.0208  0.0410  0.0014 -0.0019 -0.2664 -0.1184 -0.0030
  19. Li 2 (py)     0.0000 -0.0002  0.0003  0.0171  0.0151 -0.0021 -0.0009 -0.0393
  20. Li 2 (pz)     0.0003 -0.0022  0.0043 -0.0150  0.0170 -0.0280 -0.0124  0.0313
  21. Li 2 (s)     -0.0016  0.0007  0.0053  0.0000  0.0000 -0.0417  1.0272  0.0000
  22. Li 2 (px)    -0.0013  0.0102 -0.0076  0.0008 -0.0011  0.1048 -0.5252  0.0640
  23. Li 2 (py)     0.0000  0.0001 -0.0001  0.0099  0.0087  0.0008 -0.0041  0.8414
  24. Li 2 (pz)    -0.0001  0.0011 -0.0008 -0.0087  0.0098  0.0110 -0.0552 -0.6709
  25. Li 2 (d1)     0.0004  0.0023  0.0097  0.0004 -0.0006 -0.0005  0.1310 -0.0032
  26. Li 2 (d4)    -0.0006  0.0094 -0.0052  0.0019  0.0021  0.0244  0.0801 -0.0004
  27. Li 2 (d6)    -0.0006  0.0093 -0.0050 -0.0023 -0.0016  0.0242  0.0806  0.0036
  28. Li 2 (d2)     0.0000 -0.0001  0.0001  0.0025  0.0026 -0.0002  0.0005 -0.0245
  29. Li 2 (d3)     0.0001 -0.0009  0.0018 -0.0022  0.0030 -0.0030  0.0062  0.0194
  30. Li 2 (d5)     0.0000  0.0000  0.0000  0.0027 -0.0019  0.0000  0.0000 -0.0025
  31.  H 3 (s)     -0.0001 -0.0001  0.1512  0.1974  0.1883  0.0674  0.0057 -0.0232
  32.  H 3 (s)      0.0029 -0.0005  0.0528  0.1942  0.1852  0.0947  0.0841 -0.1417
  33.  H 4 (s)     -0.0001 -0.0001  0.1512  0.0644 -0.2651  0.0674  0.0057 -0.0058
  34.  H 4 (s)      0.0029 -0.0005  0.0528  0.0633 -0.2607  0.0947  0.0841 -0.0353
  35.  H 5 (s)     -0.0001 -0.0001  0.1512 -0.2618  0.0768  0.0674  0.0057  0.0289
  36.  H 5 (s)      0.0029 -0.0005  0.0528 -0.2575  0.0755  0.0947  0.0841  0.1770

           AO          9      10      11      12      13      14      15      16
      ------------ ------- ------- ------- ------- ------- ------- ------- -------
   1.  C 1 (s)      0.0000  0.0546 -0.0152  0.0000  0.0000 -0.0443  0.0000  0.0000
   2.  C 1 (s)      0.0000 -0.0975  0.0065  0.0000  0.0000 -0.0588  0.0000  0.0000
   3.  C 1 (px)     0.0043  0.0228  0.0389 -0.0015 -0.0021  0.2927 -0.0204  0.0232
   4.  C 1 (py)    -0.0314  0.0002  0.0003  0.0207 -0.0125  0.0023  0.2355  0.1776
   5.  C 1 (pz)    -0.0389  0.0024  0.0041  0.0124  0.0206  0.0308  0.1764 -0.2343
   6.  C 1 (s)      0.0000 -0.1576  0.2330  0.0000  0.0000  1.5227  0.0000  0.0000
   7.  C 1 (px)     0.0027  0.1324 -0.0270 -0.0083 -0.0117  0.9684 -0.1038  0.1186
   8.  C 1 (py)    -0.0194  0.0010 -0.0002  0.1167 -0.0706  0.0075  1.2009  0.9056
   9.  C 1 (pz)    -0.0241  0.0139 -0.0028  0.0701  0.1161  0.1018  0.8997 -1.1951
  10.  C 1 (d1)     0.0015 -0.0009 -0.0126  0.0016  0.0022  0.0262 -0.0009  0.0012
  11.  C 1 (d4)    -0.0032  0.0006 -0.0036 -0.0013  0.0006 -0.0131 -0.0072 -0.0042
  12.  C 1 (d6)     0.0017  0.0006 -0.0037 -0.0003 -0.0028 -0.0127  0.0081  0.0031
  13.  C 1 (d2)    -0.0064  0.0000 -0.0001 -0.0127  0.0075  0.0004  0.0061  0.0059
  14.  C 1 (d3)    -0.0078 -0.0002 -0.0011 -0.0076 -0.0124  0.0048  0.0039 -0.0069
  15.  C 1 (d5)     0.0029  0.0000  0.0000 -0.0008  0.0020  0.0000  0.0056 -0.0079
  16. Li 2 (s)      0.0000 -0.1123  0.0509  0.0000  0.0000  0.0150  0.0000  0.0000
  17. Li 2 (s)      0.0000 -0.5038  2.6313  0.0000  0.0000  1.2318  0.0000  0.0000
  18. Li 2 (px)     0.0043 -0.4477 -1.0356 -0.0982 -0.1384  0.9971  0.0383 -0.0437
  19. Li 2 (py)    -0.0315 -0.0035 -0.0080  1.3855 -0.8380  0.0077 -0.4430 -0.3340
  20. Li 2 (pz)    -0.0391 -0.0470 -0.1088  0.8323  1.3786  0.1048 -0.3318  0.4408
  21. Li 2 (s)      0.0000  1.1171 -2.0811  0.0000  0.0000 -0.1758  0.0000  0.0000
  22. Li 2 (px)    -0.0931  1.4294  0.6332  0.0765  0.1079 -0.1895 -0.0297  0.0339
  23. Li 2 (py)     0.6739  0.0111  0.0049 -1.0801  0.6532 -0.0015  0.3431  0.2587
  24. Li 2 (pz)     0.8363  0.1502  0.0665 -0.6488 -1.0747 -0.0199  0.2571 -0.3415
  25. Li 2 (d1)     0.0047  0.0647 -0.2212  0.0084  0.0118 -0.4162 -0.0030  0.0051
  26. Li 2 (d4)    -0.0003  0.0692 -0.2653 -0.0039  0.0019  0.0087 -0.0916 -0.0539
  27. Li 2 (d6)    -0.0044  0.0691 -0.2649 -0.0045 -0.0137  0.0041  0.0946  0.0488
  28. Li 2 (d2)    -0.0196  0.0000  0.0004 -0.0681  0.0408 -0.0038  0.0214  0.0321
  29. Li 2 (d3)    -0.0241 -0.0005  0.0054 -0.0407 -0.0668 -0.0516  0.0086 -0.0324
  30. Li 2 (d5)    -0.0022  0.0000  0.0000 -0.0059  0.0072 -0.0004  0.0653 -0.1036
  31.  H 3 (s)     -0.0200  0.0109 -0.0015 -0.0338  0.0187  0.0020 -0.0357 -0.0248
  32.  H 3 (s)     -0.1226 -0.2567  0.0179 -0.2009  0.1113 -1.0448 -1.5576 -1.0843
  33.  H 4 (s)      0.0301  0.0109 -0.0015  0.0331  0.0199  0.0020  0.0393 -0.0185
  34.  H 4 (s)      0.1840 -0.2567  0.0179  0.1969  0.1183 -1.0448  1.7179 -0.8068
  35.  H 5 (s)     -0.0100  0.0109 -0.0015  0.0007 -0.0386  0.0020 -0.0037  0.0433
  36.  H 5 (s)     -0.0614 -0.2567  0.0179  0.0040 -0.2297 -1.0448 -0.1602  1.8911

           AO         17      18      19      20      21      22      23      24
      ------------ ------- ------- ------- ------- ------- ------- ------- -------
   1.  C 1 (s)     -0.1441  0.0000  0.0000  0.0000  0.0000  0.0287  0.0000  0.0000
   2.  C 1 (s)      0.1594  0.0000  0.0000  0.0000  0.0000 -0.2388  0.0000  0.0000
   3.  C 1 (px)    -0.0323 -0.0042  0.0054 -0.0147  0.0198 -0.1416  0.0748  0.0171
   4.  C 1 (py)    -0.0003  0.0539  0.0359 -0.1784 -0.1535 -0.0011  0.1104 -0.7234
   5.  C 1 (pz)    -0.0034  0.0356 -0.0536  0.1529 -0.1773 -0.0149 -0.7196 -0.1093
   6.  C 1 (s)      2.4834  0.0000  0.0000  0.0000  0.0000 -0.6273  0.0000  0.0000
   7.  C 1 (px)     0.4490 -0.0072  0.0092 -0.0253  0.0341  2.0693 -0.2011 -0.0459
   8.  C 1 (py)     0.0035  0.0929  0.0618 -0.3074 -0.2645  0.0160 -0.2971  1.9459
   9.  C 1 (pz)     0.0472  0.0614 -0.0925  0.2633 -0.3055  0.2175  1.9355  0.2939
  10.  C 1 (d1)    -0.0295  0.0014 -0.0020 -0.0051  0.0071  0.0442  0.0031  0.0018
  11.  C 1 (d4)     0.0020  0.0072  0.0036 -0.0113 -0.0121 -0.0616  0.0039 -0.1028
  12.  C 1 (d6)     0.0017 -0.0086 -0.0017  0.0164  0.0050 -0.0604 -0.0070  0.1010
  13.  C 1 (d2)    -0.0003 -0.0110 -0.0085 -0.0348 -0.0324  0.0009 -0.0099 -0.0162
  14.  C 1 (d3)    -0.0038 -0.0065  0.0116  0.0296 -0.0371  0.0128 -0.0168 -0.0148
  15.  C 1 (d5)     0.0000 -0.0056  0.0077 -0.0170  0.0089  0.0001  0.1180  0.0028
  16. Li 2 (s)     -0.0932  0.0000  0.0000  0.0000  0.0000  0.1919  0.0000  0.0000
  17. Li 2 (s)     -1.7964  0.0000  0.0000  0.0000  0.0000  0.8868  0.0000  0.0000
  18. Li 2 (px)    -0.9739  0.0010 -0.0012  0.0151 -0.0204  2.2630  0.0520  0.0119
  19. Li 2 (py)    -0.0075 -0.0125 -0.0083  0.1840  0.1584  0.0175  0.0768 -0.5032
  20. Li 2 (pz)    -0.1023 -0.0083  0.0125 -0.1576  0.1829  0.2378 -0.5005 -0.0760
  21. Li 2 (s)      1.6042  0.0000  0.0000  0.0000  0.0000 -0.1372  0.0000  0.0000
  22. Li 2 (px)     1.1541 -0.0035  0.0045 -0.0086  0.0117 -0.7291 -0.0052 -0.0012
  23. Li 2 (py)     0.0089  0.0450  0.0299 -0.1049 -0.0903 -0.0056 -0.0076  0.0500
  24. Li 2 (pz)     0.1213  0.0297 -0.0447  0.0899 -0.1043 -0.0766  0.0498  0.0076
  25. Li 2 (d1)     0.3871 -0.0359  0.0321  0.1045 -0.1378  1.6669  0.1100  0.0242
  26. Li 2 (d4)    -0.0033  0.7478  0.3832 -0.1212 -0.1333 -0.3125 -0.0021  0.0806
  27. Li 2 (d6)     0.0010 -0.7119 -0.4153  0.0167  0.2710 -0.2908 -0.1079 -0.1047
  28. Li 2 (d2)     0.0035  0.2431  0.0425  0.7438  0.6088  0.0177  0.1051 -0.6154
  29. Li 2 (d3)     0.0474  0.2258 -0.1614 -0.6294  0.6941  0.2402 -0.6048 -0.0807
  30. Li 2 (d5)     0.0004 -0.4162  0.8680 -0.0911  0.2217  0.0019 -0.0968 -0.0693
  31.  H 3 (s)     -0.0058 -0.0281 -0.0172 -0.1419 -0.1318 -0.1899  0.0576 -0.5055
  32.  H 3 (s)     -1.3069 -0.2294 -0.1403  0.4471  0.4153 -0.4247  0.0519 -0.4550
  33.  H 4 (s)     -0.0058  0.0290 -0.0158 -0.0432  0.1887 -0.1899  0.4089  0.3026
  34.  H 4 (s)     -1.3069  0.2362 -0.1285  0.1361 -0.5949 -0.4247  0.3681  0.2724
  35.  H 5 (s)     -0.0058 -0.0008  0.0330  0.1851 -0.0570 -0.1899 -0.4666  0.2028
  36.  H 5 (s)     -1.3069 -0.0068  0.2688 -0.5832  0.1796 -0.4247 -0.4200  0.1826

           AO         25      26      27      28      29      30      31      32
      ------------ ------- ------- ------- ------- ------- ------- ------- -------
   1.  C 1 (s)      0.0587 -0.0007  0.0000  0.0000 -0.0713 -0.1342  0.0000  0.0000
   2.  C 1 (s)      0.0584 -0.4173  0.0000  0.0000  0.8630 -2.1514  0.0000  0.0000
   3.  C 1 (px)     0.9520 -0.5285  0.0665 -0.0718  0.3631  0.3004  0.0004 -0.0069
   4.  C 1 (py)     0.0074 -0.0041 -0.7302 -0.5831  0.0028  0.0023  0.0657  0.0088
   5.  C 1 (pz)     0.1000 -0.0555 -0.5793  0.7267  0.0382  0.0316 -0.0088  0.0653
   6.  C 1 (s)     -1.2527  1.2709  0.0000  0.0000 -1.4856  6.3003  0.0000  0.0000
   7.  C 1 (px)    -1.0672  0.6705 -0.0859  0.0928 -0.7455 -0.8820 -0.0024  0.0397
   8.  C 1 (py)    -0.0083  0.0052  0.9431  0.7531 -0.0058 -0.0068 -0.3760 -0.0505
   9.  C 1 (pz)    -0.1121  0.0705  0.7482 -0.9386 -0.0783 -0.0927  0.0506 -0.3739
  10.  C 1 (d1)    -0.0351  0.0213 -0.0165  0.0155  0.1946 -0.1442  0.0142 -0.1427
  11.  C 1 (d4)     0.0251 -0.0307  0.1264  0.0795 -0.0354 -0.1115 -0.5064 -0.1292
  12.  C 1 (d6)     0.0245 -0.0302 -0.1100 -0.0950 -0.0329 -0.1118  0.4922  0.2719
  13.  C 1 (d2)    -0.0005  0.0005  0.1031  0.0600  0.0021 -0.0003  0.8135  0.0447
  14.  C 1 (d3)    -0.0073  0.0063  0.0900 -0.0851  0.0279 -0.0040 -0.1670  0.7598
  15.  C 1 (d5)    -0.0001  0.0000 -0.0797  0.1509  0.0002  0.0000 -0.0670  0.6111
  16. Li 2 (s)     -0.0785  0.1233  0.0000  0.0000  0.0332 -0.2940  0.0000  0.0000
  17. Li 2 (s)      2.1839  8.7591  0.0000  0.0000  2.5948 -2.9916  0.0000  0.0000
  18. Li 2 (px)     0.1956  0.0213  0.0108 -0.0117 -0.3513 -2.3345  0.0013 -0.0221
  19. Li 2 (py)     0.0015  0.0002 -0.1187 -0.0948 -0.0027 -0.0181  0.2091  0.0281
  20. Li 2 (pz)     0.0206  0.0022 -0.0942  0.1182 -0.0369 -0.2453 -0.0281  0.2080
  21. Li 2 (s)     -0.5835 -2.5004  0.0000  0.0000 -1.1891  0.9997  0.0000  0.0000
  22. Li 2 (px)     0.0199  0.1604 -0.0101  0.0109 -0.1942  0.9004 -0.0005  0.0088
  23. Li 2 (py)     0.0002  0.0012  0.1112  0.0888 -0.0015  0.0070 -0.0829 -0.0111
  24. Li 2 (pz)     0.0021  0.0169  0.0882 -0.1107 -0.0204  0.0946  0.0112 -0.0825
  25. Li 2 (d1)    -0.1379 -2.9536 -0.0056  0.0053 -1.2014 -0.5603  0.0026 -0.0475
  26. Li 2 (d4)    -1.0698 -2.9176  0.0407  0.0256 -0.7686  0.6366  0.0275  0.0065
  27. Li 2 (d6)    -1.0596 -2.9180 -0.0352 -0.0309 -0.7733  0.6234 -0.0301  0.0410
  28. Li 2 (d2)     0.0083 -0.0003  0.0351  0.0208 -0.0039 -0.0107  0.2584  0.0375
  29. Li 2 (d3)     0.1131 -0.0044  0.0304 -0.0292 -0.0525 -0.1452 -0.0319  0.2560
  30. Li 2 (d5)     0.0009  0.0000 -0.0255  0.0487 -0.0004 -0.0011  0.0339 -0.0219
  31.  H 3 (s)      0.1730  0.0556  0.6478  0.4782 -0.7001 -0.3400  0.0431  0.0075
  32.  H 3 (s)      0.2750 -0.5471 -1.2199 -0.9005  1.0352 -0.8835  0.1598  0.0277
  33.  H 4 (s)      0.1730  0.0556 -0.7380  0.3219 -0.7001 -0.3400 -0.0151 -0.0411
  34.  H 4 (s)      0.2750 -0.5471  1.3898 -0.6062  1.0352 -0.8836 -0.0559 -0.1523
  35.  H 5 (s)      0.1730  0.0556  0.0902 -0.8001 -0.7001 -0.3400 -0.0280  0.0336
  36.  H 5 (s)      0.2750 -0.5471 -0.1699  1.5068  1.0352 -0.8836 -0.1039  0.1246

           AO         33      34      35      36
      ------------ ------- ------- ------- -------
   1.  C 1 (s)     -0.0155  0.0000  0.0000 -0.5019
   2.  C 1 (s)      0.2528  0.0000  0.0000  2.8515
   3.  C 1 (px)    -0.0435  0.0072  0.0138 -0.0056
   4.  C 1 (py)    -0.0003 -0.1362  0.0587  0.0000
   5.  C 1 (pz)    -0.0046 -0.0582 -0.1355 -0.0006
   6.  C 1 (s)     -0.5378  0.0000  0.0000  2.8825
   7.  C 1 (px)     0.9230  0.0243  0.0468 -0.0557
   8.  C 1 (py)     0.0071 -0.4622  0.1991 -0.0004
   9.  C 1 (pz)     0.0970 -0.1977 -0.4598 -0.0059
  10.  C 1 (d1)    -1.0598  0.0669  0.1110 -1.8427
  11.  C 1 (d4)     0.5015 -0.7538  0.2284 -1.9246
  12.  C 1 (d6)     0.4843  0.6869 -0.3394 -1.9237
  13.  C 1 (d2)    -0.0140 -0.6606  0.1845  0.0007
  14.  C 1 (d3)    -0.1895 -0.3617 -0.6098  0.0099
  15.  C 1 (d5)    -0.0015  0.1894  0.8797  0.0001
  16. Li 2 (s)      0.1217  0.0000  0.0000 -0.1110
  17. Li 2 (s)      1.3329  0.0000  0.0000 -0.9714
  18. Li 2 (px)     1.0398 -0.0038 -0.0073 -0.6059
  19. Li 2 (py)     0.0080  0.0722 -0.0311 -0.0047
  20. Li 2 (pz)     0.1093  0.0309  0.0718 -0.0637
  21. Li 2 (s)     -0.4201  0.0000  0.0000  0.4044
  22. Li 2 (px)    -0.3894 -0.0011 -0.0022  0.3071
  23. Li 2 (py)    -0.0030  0.0213 -0.0092  0.0024
  24. Li 2 (pz)    -0.0409  0.0091  0.0212  0.0323
  25. Li 2 (d1)     0.3295 -0.0051 -0.0091 -0.0224
  26. Li 2 (d4)    -0.3444  0.0275 -0.0084  0.1654
  27. Li 2 (d6)    -0.3370 -0.0225  0.0175  0.1633
  28. Li 2 (d2)     0.0060  0.0530 -0.0192 -0.0017
  29. Li 2 (d3)     0.0818  0.0253  0.0507 -0.0228
  30. Li 2 (d5)     0.0006 -0.0037 -0.0328 -0.0002
  31.  H 3 (s)     -0.2739  0.7682 -0.2969  0.1455
  32.  H 3 (s)     -0.0817 -0.0842  0.0326 -0.6070
  33.  H 4 (s)     -0.2739 -0.6413 -0.5168  0.1455
  34.  H 4 (s)     -0.0817  0.0703  0.0567 -0.6070
  35.  H 5 (s)     -0.2739 -0.1270  0.8138  0.1455
  36.  H 5 (s)     -0.0817  0.0139 -0.0892 -0.6070


 NOs in the AO basis:

           AO          1       2       3       4       5       6       7       8
      ------------ ------- ------- ------- ------- ------- ------- ------- -------
   1.  C 1 (s)      0.8851 -0.4809 -0.0471  0.0524 -0.0244 -0.0976 -0.0089 -0.0024
   2.  C 1 (s)      0.0298  0.1407  0.1643  0.2702  0.0331  0.0534  0.0241  0.0425
   3.  C 1 (px)    -0.0228  0.0340  0.0411  0.0157 -0.0215 -0.4464 -0.0591 -0.0446
   4.  C 1 (py)    -0.0784 -0.1578  0.0282  0.0327  0.3679 -0.0226 -0.0247  0.0826
   5.  C 1 (pz)     0.1660  0.2753  0.0130 -0.1921  0.1691 -0.0093  0.0231  0.0050
   6.  C 1 (s)     -0.0060  0.1602  0.1517  0.2892  0.0382  0.1506 -0.0560 -0.0582
   7.  C 1 (px)    -0.0151  0.0185  0.0225 -0.0222 -0.0155 -0.3599 -0.1818 -0.0286
   8.  C 1 (py)    -0.0407 -0.0819  0.0147  0.0168  0.1909 -0.0127 -0.0504 -0.0382
   9.  C 1 (pz)     0.0858  0.1430  0.0069 -0.1029  0.0873 -0.0183  0.0335  0.0644
  10.  C 1 (d1)    -0.0036 -0.0025 -0.0019  0.0020 -0.0025  0.0007  0.1012 -0.0440
  11.  C 1 (d4)    -0.0049 -0.0011  0.0079  0.0086  0.0230 -0.0032 -0.0001  0.0579
  12.  C 1 (d6)     0.0038  0.0164  0.0047  0.0050 -0.0183 -0.0011 -0.0888 -0.0870
  13.  C 1 (d2)    -0.0040 -0.0087  0.0018  0.0008  0.0253 -0.0010  0.0098 -0.1170
  14.  C 1 (d3)     0.0107  0.0164 -0.0002 -0.0137  0.0137  0.0028 -0.1501 -0.0057
  15.  C 1 (d5)    -0.0118 -0.0195 -0.0002  0.0127 -0.0056 -0.0027  0.1651  0.1011
  16. Li 2 (s)      0.0407  0.2087 -0.8874  0.3637  0.1242 -0.1781  0.0526  0.0232
  17. Li 2 (s)      0.0084 -0.0063  0.0270  0.0664  0.0073  0.3102 -0.0375  0.0698
  18. Li 2 (px)     0.0055 -0.0030  0.0370  0.0622  0.0049  0.2604  0.3535  0.0856
  19. Li 2 (py)    -0.0043 -0.0088  0.0018  0.0023  0.0205  0.0010 -0.2226  0.1494
  20. Li 2 (pz)     0.0099  0.0148  0.0044 -0.0042  0.0100  0.0294  0.0723 -0.0526
  21. Li 2 (s)     -0.0006  0.0009  0.0017  0.0100  0.0014  0.0408 -0.0848 -0.1690
  22. Li 2 (px)    -0.0031  0.0041 -0.0123 -0.0163 -0.0020 -0.1035 -0.4387 -0.1468
  23. Li 2 (py)    -0.0025 -0.0050  0.0008  0.0009  0.0118 -0.0014  0.7973  0.3234
  24. Li 2 (pz)     0.0051  0.0092 -0.0010 -0.0079  0.0053 -0.0097  0.1815 -0.2595
  25. Li 2 (d1)     0.0003  0.0043  0.0026  0.0085  0.0009 -0.0005  0.0067  0.0324
  26. Li 2 (d4)    -0.0010  0.0004 -0.0104 -0.0036  0.0030 -0.0243 -0.2194 -0.1868
  27. Li 2 (d6)     0.0001  0.0026 -0.0106 -0.0039 -0.0020 -0.0238 -0.3334  0.1390
  28. Li 2 (d2)    -0.0005 -0.0011  0.0004  0.0002  0.0034  0.0001  0.1300 -0.2379
  29. Li 2 (d3)     0.0016  0.0027  0.0017 -0.0002  0.0019  0.0032 -0.2235  0.2993
  30. Li 2 (d5)    -0.0014 -0.0024  0.0000  0.0016 -0.0006 -0.0003 -0.2962  0.6506
  31.  H 3 (s)     -0.0475 -0.0251  0.0909  0.1189  0.2613 -0.0910  0.0040 -0.0259
  32.  H 3 (s)     -0.0455 -0.0684  0.0443  0.0423  0.2474 -0.1096  0.0088  0.0141
  33.  H 4 (s)     -0.0737 -0.0365  0.0585  0.2051 -0.2013 -0.0953  0.1365  0.0675
  34.  H 4 (s)     -0.0713 -0.0797  0.0124  0.1270 -0.2075 -0.1138  0.0867  0.1367
  35.  H 5 (s)      0.1222  0.2810  0.0671 -0.0179 -0.0214 -0.0514  0.2018  0.2365
  36.  H 5 (s)      0.1214  0.2326  0.0209 -0.0922 -0.0306 -0.0707 -0.0474 -0.1523

           AO          9      10      11      12      13      14      15      16
      ------------ ------- ------- ------- ------- ------- ------- ------- -------
   1.  C 1 (s)     -0.0051  0.0105  0.0266  0.0112  0.0518 -0.0302  0.1401 -0.0064
   2.  C 1 (s)      0.0134  0.0050 -0.0867 -0.0294 -0.4540 -0.0446 -1.0074  0.0576
   3.  C 1 (px)     0.0179 -0.0219 -0.0003 -0.1166  0.1133  0.1699 -0.3411 -0.0298
   4.  C 1 (py)    -0.1794  0.2078 -0.0542 -0.1611  0.1055 -0.2268 -0.1933 -0.0806
   5.  C 1 (pz)     0.1649  0.0371  0.0752 -0.0020 -0.1970  0.3172 -0.2181  0.0550
   6.  C 1 (s)      0.0060 -0.0134 -0.0198  0.0125 -0.1393  0.0916  0.2145  0.0084
   7.  C 1 (px)    -0.0699  0.0561 -0.0204  0.1528 -1.1463  0.0907  0.6196  0.0853
   8.  C 1 (py)    -0.0141 -0.1637  0.1208 -0.1195 -1.3890  0.2142  0.8155  0.0308
   9.  C 1 (pz)     0.0248  0.1049 -0.1387  0.1680  1.6414 -0.4806  0.4102  0.0450
  10.  C 1 (d1)     0.0460  0.0699 -0.3638 -0.1493  0.3292 -0.2112  0.2937 -0.0047
  11.  C 1 (d4)     0.0218  0.0649  0.0839 -0.0153 -0.1001  0.0189  0.3763  0.0898
  12.  C 1 (d6)     0.0307 -0.1296 -0.0285 -0.0543  0.2492 -0.0074  0.0523 -0.0291
  13.  C 1 (d2)     0.1062 -0.2919 -0.3477 -0.0643 -0.0849  0.1738 -0.0374 -0.4351
  14.  C 1 (d3)    -0.3646 -0.0551 -0.2235  0.2517  0.0269 -0.2639 -0.0417 -0.2121
  15.  C 1 (d5)     0.0728 -0.1158  0.0459  0.0813 -0.1604  0.1577  0.0799 -0.1533
  16. Li 2 (s)      0.0054 -0.0269  0.0009  0.0108 -0.1026 -0.0050 -0.0115 -0.0094
  17. Li 2 (s)     -0.2463 -0.0672  0.3359  0.1152 -1.4836  0.8472  2.2716 -0.0300
  18. Li 2 (px)     0.2510 -0.1877 -0.1702 -0.0243 -0.8580 -0.2231  0.7810 -0.0519
  19. Li 2 (py)    -0.3527  0.7125 -0.7769 -0.4705  0.3715  0.6299 -0.1326 -0.0590
  20. Li 2 (pz)     0.2266 -0.2890 -0.1910  0.6398 -0.6357  0.8028  0.0383  0.2632
  21. Li 2 (s)      0.2662  0.0062 -0.2954 -0.1682  0.4645 -0.1830  0.4054  0.0594
  22. Li 2 (px)    -0.0333  0.1947  0.8434 -0.0668  0.1655  0.4579 -0.3051 -0.2317
  23. Li 2 (py)     0.1373 -0.2241  0.6917  0.4142 -0.2672 -0.3990  0.0832 -0.0549
  24. Li 2 (pz)    -0.8907 -0.0586  0.3938 -0.6367  0.3976 -0.3567  0.0582  0.0517
  25. Li 2 (d1)    -0.1315 -0.0306 -0.0029  0.1547 -0.0908  0.0881 -0.9247  0.0327
  26. Li 2 (d4)    -0.2164 -0.0903  0.0307 -0.1857  0.3248 -0.4863 -0.8617 -0.0962
  27. Li 2 (d6)     0.0730  0.5429  0.0639  0.3586  0.3014 -0.4097 -1.0425  0.2051
  28. Li 2 (d2)     0.0833 -0.0126 -0.2414  0.4109  0.2006  0.0714 -0.1457  0.3718
  29. Li 2 (d3)    -0.4677 -0.2048  0.0331  0.4889 -0.3633  0.2517  0.0176 -0.4286
  30. Li 2 (d5)     0.0215 -0.4414 -0.0107 -0.2445 -0.0571  0.0034 -0.0320  0.3951
  31.  H 3 (s)      0.0666 -0.0807  0.1138  0.3113  0.0202 -0.2172  0.2852 -0.0418
  32.  H 3 (s)      0.0726 -0.0252 -0.0586 -0.0522  1.7916 -0.1764 -1.1531  0.0504
  33.  H 4 (s)     -0.1614  0.0627 -0.0321  0.2866 -0.1373 -0.5967 -0.1311  0.0490
  34.  H 4 (s)     -0.1938 -0.0193 -0.0545  0.0424  1.4360  0.4138  0.5749 -0.0475
  35.  H 5 (s)     -0.1529 -0.0395  0.0604 -0.0438 -0.0041 -0.1178  0.4295 -0.1130
  36.  H 5 (s)      0.1816  0.1001 -0.0547 -0.2239 -1.6632  0.0130 -0.4360  0.0612

           AO         17      18      19      20      21      22      23      24
      ------------ ------- ------- ------- ------- ------- ------- ------- -------
   1.  C 1 (s)      0.0152 -0.0428 -0.0217  0.0788 -0.0451  0.0184  0.0180  0.0047
   2.  C 1 (s)     -0.0512  0.1937  0.0558 -0.2212  0.2091 -0.1241 -0.1748  0.1929
   3.  C 1 (px)     0.0127  0.0158  0.1459 -0.0423  0.0781 -0.0030  0.6335 -0.2110
   4.  C 1 (py)     0.5277  0.2070  0.0247  0.0902 -0.2583 -0.0479 -0.0831 -0.5457
   5.  C 1 (pz)     0.0169  0.1423  0.0194  0.0070 -0.3428  0.0718  0.7307 -0.1482
   6.  C 1 (s)      0.0810  0.5985  0.0229 -0.0132  0.0510  0.0365  0.1126 -0.1281
   7.  C 1 (px)    -0.0815 -1.3740 -0.0876 -0.2623 -0.1649 -0.0598 -0.5560  0.1150
   8.  C 1 (py)    -0.6131 -0.6985  0.3050  0.2471 -0.4486  0.0364 -0.0341  0.2378
   9.  C 1 (pz)     0.3631 -1.6769 -0.1467  0.3511 -0.0461 -0.1047 -0.5601  0.3460
  10.  C 1 (d1)     0.2507 -0.0814 -0.0407  0.5343  0.0923 -0.0255  0.0292 -0.4539
  11.  C 1 (d4)    -0.1252 -0.3109  0.0949  0.6683  0.1406 -0.0062  0.3147  0.3111
  12.  C 1 (d6)    -0.1998 -0.3804  0.0912  0.4444 -0.0753 -0.0143 -0.0841 -0.0489
  13.  C 1 (d2)     0.0673  0.0171 -0.1466  0.0775 -0.2160  0.5714  0.0374  0.1427
  14.  C 1 (d3)    -0.1241 -0.0300 -0.5248  0.0423 -0.0834  0.0176  0.2126 -0.0513
  15.  C 1 (d5)     0.2458  0.2038 -0.0740 -0.0329  0.1237  0.1914 -0.0620 -0.1903
  16. Li 2 (s)     -0.0211 -0.2222 -0.0314 -0.0616 -0.0468 -0.0453 -0.1254  0.0609
  17. Li 2 (s)     -0.4023 -3.4437  0.0420  0.2494 -0.7621  0.1330 -0.1332 -0.1493
  18. Li 2 (px)     0.0686 -1.7355 -0.1031 -1.0477 -0.3930 -0.3259  0.1806  0.3468
  19. Li 2 (py)     0.2783  0.2210 -0.4608 -0.0736  0.0870 -0.2529 -0.0183  0.6334
  20. Li 2 (pz)     0.4118  0.4610 -0.0283 -0.0505 -0.4442 -0.5333 -0.2449 -0.0338
  21. Li 2 (s)      0.1756  1.4570  0.1492  0.7151  0.6980 -0.0054  0.5400 -0.1676
  22. Li 2 (px)     0.0368  0.5932 -0.4674  1.3202  0.2096  0.0947 -0.1905 -0.2126
  23. Li 2 (py)    -0.2277 -0.1917  0.1439  0.0369  0.1727  0.3525  0.0420 -0.6821
  24. Li 2 (pz)    -0.2089 -0.3312  0.1040  0.0674  0.3415  0.6427  0.2701  0.0929
  25. Li 2 (d1)    -0.0244 -0.2475  0.0431 -0.4881 -0.1223  0.0830 -0.3326  0.0106
  26. Li 2 (d4)     0.1379  0.7930 -0.2625 -0.3561 -0.0005 -0.4340 -0.0424  0.0521
  27. Li 2 (d6)     0.2455  0.8766  0.0034 -0.3807  0.0129  0.4402 -0.1236  0.2775
  28. Li 2 (d2)    -0.1439  0.0669 -0.5737 -0.0092  0.2445  0.0958  0.0674 -0.1873
  29. Li 2 (d3)    -0.1673  0.1692  0.2131 -0.0984  0.1570 -0.2308  0.1716 -0.0954
  30. Li 2 (d5)     0.0697  0.0509 -0.2185 -0.0258  0.0571  0.1166  0.0199 -0.0160
  31.  H 3 (s)      0.2242 -0.0423 -0.1458  0.1380  0.3779  0.0403 -0.2551  0.2490
  32.  H 3 (s)     -0.0585  1.2935  0.1181 -0.9154 -0.1131 -0.0826  0.2441  0.1368
  33.  H 4 (s)      0.4548  0.1360 -0.2173  0.2560 -0.5833 -0.0105  0.4269  0.4775
  34.  H 4 (s)     -0.2448 -1.0138  0.1488 -0.1002 -0.1454  0.1134 -0.4760 -0.3246
  35.  H 5 (s)     -0.3286  0.5434  0.1017  0.3083 -0.6622  0.1380 -0.3701 -0.0561
  36.  H 5 (s)      0.0945  0.9351 -0.0620 -0.8726  0.6109  0.0857  0.1579 -0.1578

           AO         25      26      27      28      29      30      31      32
      ------------ ------- ------- ------- ------- ------- ------- ------- -------
   1.  C 1 (s)     -0.0147  0.0100  0.0178  0.0086  0.1276 -0.0252  0.2441 -0.0313
   2.  C 1 (s)     -0.0117 -0.0222 -0.1390 -0.0351  1.7128  0.4421  0.3664  0.1505
   3.  C 1 (px)     0.1641 -0.1314  0.8189  0.0438 -0.0518  0.0297  0.0569 -0.0022
   4.  C 1 (py)     0.2364 -0.2401 -0.3295 -0.0669  0.0119 -0.1215  0.0082 -0.0885
   5.  C 1 (pz)    -0.0257 -0.0881 -0.5491 -0.0060  0.0294 -0.0317 -0.0174  0.0906
   6.  C 1 (s)      0.0616  0.0463  0.1242  0.0820 -5.7856 -0.2295 -5.0544 -0.0274
   7.  C 1 (px)    -0.3808  0.4162 -0.8709  0.1091 -0.3403  0.0943  0.8268  0.0999
   8.  C 1 (py)    -0.1072  0.2237  0.4573 -0.3600 -0.0908 -0.1092  0.0548  0.1423
   9.  C 1 (pz)    -0.1143 -0.1376  0.4213  0.0541 -0.1290 -0.2939  0.1091 -0.0980
  10.  C 1 (d1)     0.1127  0.3635  0.1546  0.0442  0.1631  0.3805  0.4430 -0.1853
  11.  C 1 (d4)    -0.0454 -0.3353 -0.3272 -0.0327  0.0126  0.1049  0.6549  0.1897
  12.  C 1 (d6)    -0.3430  0.6054 -0.0169  0.0450  0.1624 -0.5819  0.5046 -0.0255
  13.  C 1 (d2)     0.0061 -0.0180 -0.1126  0.1397 -0.0096  0.0455  0.0166 -0.3262
  14.  C 1 (d3)     0.1613  0.0574 -0.0385  0.1513  0.0186 -0.1642 -0.0337  0.5706
  15.  C 1 (d5)    -0.5411  0.0136  0.1550 -0.6570 -0.0119  0.2251  0.0183  0.2683
  16. Li 2 (s)      0.0002  0.0157 -0.1233 -0.0363  0.2448  0.0452  0.1192  0.0203
  17. Li 2 (s)     -0.0683 -0.6846  0.2878 -0.1326  7.1078 -0.2228 -4.6893  0.1348
  18. Li 2 (px)     0.1687  0.3370 -0.2770 -0.1462  1.2226  0.1998  2.3053  0.0754
  19. Li 2 (py)    -0.0167 -0.0847  0.0166 -0.2269  0.0292 -0.0241  0.0060 -0.1621
  20. Li 2 (pz)    -0.0022  0.2295  0.0731  0.6025  0.1726  0.1678  0.2398  0.4260
  21. Li 2 (s)      0.0411  0.6744 -0.0671  0.1727 -2.8371 -0.5183  1.8888  0.0022
  22. Li 2 (px)     0.0397  0.0449  0.3186  0.0943 -0.8449 -0.2394 -0.8680 -0.1618
  23. Li 2 (py)    -0.1534  0.0935 -0.0566  0.6403 -0.0112 -0.0132 -0.0130 -0.0089
  24. Li 2 (pz)     0.1675  0.0455 -0.1721 -0.5311 -0.1196  0.0838 -0.0874 -0.2646
  25. Li 2 (d1)    -0.0479 -0.3494  0.1199  0.0361 -1.5192 -0.1234  3.1033  0.0263
  26. Li 2 (d4)    -0.6795  0.0532 -0.2487  0.3239 -1.9585  0.5578  1.5456 -0.3094
  27. Li 2 (d6)     0.1067  0.5420 -0.2115  0.0096 -1.9441  0.5676  1.5472  0.0254
  28. Li 2 (d2)     0.0185 -0.1195 -0.1201 -0.1103  0.0232  0.0323 -0.0047 -0.4994
  29. Li 2 (d3)     0.1722  0.1914 -0.1387 -0.1744  0.0830  0.1069  0.1664 -0.2086
  30. Li 2 (d5)     0.0425  0.0134 -0.0141  0.0869  0.0067 -0.0269 -0.0020 -0.0735
  31.  H 3 (s)      0.0932 -0.2497  0.2937  0.2637  0.0945  0.0750  0.0764 -0.0758
  32.  H 3 (s)     -0.0935  0.0502 -0.2878 -0.0381  1.6252  0.1562  0.7657  0.1208
  33.  H 4 (s)      0.0482 -0.1533 -0.0436  0.1060  0.0629 -0.5212  0.1595 -0.2623
  34.  H 4 (s)      0.1671 -0.3835  0.0852 -0.2442  1.4787  0.3995  0.7530  0.1250
  35.  H 5 (s)     -0.0002 -0.1726  0.3541 -0.4060 -0.0120  0.6395  0.2470 -0.1331
  36.  H 5 (s)      0.0524 -0.1819 -0.0812  0.0991  1.6581 -0.5506  0.6656 -0.0583

           AO         33      34      35      36
      ------------ ------- ------- ------- -------
   1.  C 1 (s)      0.0225 -0.0124  0.2540 -0.3560
   2.  C 1 (s)     -0.2895  0.0374 -1.6908  2.4768
   3.  C 1 (px)    -0.1131  0.2660  0.2546  0.1264
   4.  C 1 (py)    -0.3321  0.4932 -0.1721 -0.1744
   5.  C 1 (pz)    -0.0804 -0.5726  0.0546 -0.0501
   6.  C 1 (s)     -0.1152 -0.1483 -1.3321  1.1348
   7.  C 1 (px)    -0.4313 -0.0720 -1.5783 -0.7914
   8.  C 1 (py)     1.2437 -0.3389  0.9800  1.0691
   9.  C 1 (pz)     0.3903  0.7402 -0.1457  0.6688
  10.  C 1 (d1)     0.5516 -0.4042  0.9444 -1.3048
  11.  C 1 (d4)     0.3877  0.6239  0.9611 -1.3344
  12.  C 1 (d6)    -0.5594 -0.0209  1.0875 -1.3334
  13.  C 1 (d2)     0.1693  0.2993 -0.0150  0.0368
  14.  C 1 (d3)     0.1122 -0.0117  0.0414  0.0613
  15.  C 1 (d5)    -0.0758  0.0609 -0.0102 -0.0648
  16. Li 2 (s)     -0.0209  0.0107 -0.0529 -0.1563
  17. Li 2 (s)     -0.0455  0.4664 -2.1409 -3.7226
  18. Li 2 (px)    -0.7622  0.2954 -0.9513 -0.7633
  19. Li 2 (py)    -0.4506 -0.0755 -0.2154 -0.2849
  20. Li 2 (pz)    -0.1451  0.1369 -0.0255 -0.2520
  21. Li 2 (s)     -0.1712 -0.1254 -0.1917  1.4184
  22. Li 2 (px)     0.3540 -0.2558 -0.2638  0.2148
  23. Li 2 (py)     0.1441  0.1219  0.1801  0.2170
  24. Li 2 (pz)    -0.0570 -0.1724 -0.0554  0.1334
  25. Li 2 (d1)    -0.1797 -0.2815 -0.1809  0.4901
  26. Li 2 (d4)     0.0053 -0.1285  0.9594  1.1111
  27. Li 2 (d6)    -0.0683 -0.0440  0.8736  0.9466
  28. Li 2 (d2)    -0.3569  0.1633 -0.1202 -0.1444
  29. Li 2 (d3)    -0.1423 -0.0698 -0.0830 -0.1674
  30. Li 2 (d5)    -0.0196 -0.0262 -0.0118 -0.0433
  31.  H 3 (s)     -0.7837 -0.9291  0.1038  0.2103
  32.  H 3 (s)      0.1932  0.6430 -0.0774 -1.1414
  33.  H 4 (s)      0.4747 -0.1983 -0.3241  0.0585
  34.  H 4 (s)      0.3672  0.3607  1.8470  1.1686
  35.  H 5 (s)     -0.1436  0.1572 -0.3204  0.0314
  36.  H 5 (s)      0.6081 -0.4616  1.7429 -0.0268


 AO overlap matrix:

           AO          1       2       3       4       5       6       7       8
      ------------ ------- ------- ------- ------- ------- ------- ------- -------
   1.  C 1 (s)      1.0000  0.2191  0.0000  0.0000  0.0000  0.1843  0.0000  0.0000
   2.  C 1 (s)      0.2191  1.0000  0.0000  0.0000  0.0000  0.8123  0.0000  0.0000
   3.  C 1 (px)     0.0000  0.0000  1.0000  0.0000  0.0000  0.0000  0.5698  0.0000
   4.  C 1 (py)     0.0000  0.0000  0.0000  1.0000  0.0000  0.0000  0.0000  0.5698
   5.  C 1 (pz)     0.0000  0.0000  0.0000  0.0000  1.0000  0.0000  0.0000  0.0000
   6.  C 1 (s)      0.1843  0.8123  0.0000  0.0000  0.0000  1.0000  0.0000  0.0000
   7.  C 1 (px)     0.0000  0.0000  0.5698  0.0000  0.0000  0.0000  1.0000  0.0000
   8.  C 1 (py)     0.0000  0.0000  0.0000  0.5698  0.0000  0.0000  0.0000  1.0000
   9.  C 1 (pz)     0.0000  0.0000  0.0000  0.0000  0.5698  0.0000  0.0000  0.0000
  10.  C 1 (d1)     0.0791  0.7102  0.0000  0.0000  0.0000  0.6299  0.0000  0.0000
  11.  C 1 (d4)     0.0791  0.7102  0.0000  0.0000  0.0000  0.6299  0.0000  0.0000
  12.  C 1 (d6)     0.0791  0.7102  0.0000  0.0000  0.0000  0.6299  0.0000  0.0000
  13.  C 1 (d2)     0.0000  0.0000  0.0000  0.0000  0.0000  0.0000  0.0000  0.0000
  14.  C 1 (d3)     0.0000  0.0000  0.0000  0.0000  0.0000  0.0000  0.0000  0.0000
  15.  C 1 (d5)     0.0000  0.0000  0.0000  0.0000  0.0000  0.0000  0.0000  0.0000
  16. Li 2 (s)      0.0001  0.0067 -0.0143 -0.0001 -0.0015  0.0620 -0.1628 -0.0013
  17. Li 2 (s)      0.0380  0.2276 -0.1202 -0.0009 -0.0126  0.4273 -0.3902 -0.0030
  18. Li 2 (px)     0.0693  0.3766 -0.1145 -0.0017 -0.0232  0.5859 -0.2303 -0.0047
  19. Li 2 (py)     0.0005  0.0029 -0.0017  0.1058 -0.0002  0.0045 -0.0047  0.3779
  20. Li 2 (pz)     0.0073  0.0396 -0.0232 -0.0002  0.1033  0.0616 -0.0639 -0.0005
  21. Li 2 (s)      0.0361  0.2184 -0.0583 -0.0005 -0.0061  0.4333 -0.2360 -0.0018
  22. Li 2 (px)     0.0513  0.2921  0.0028 -0.0006 -0.0083  0.5113  0.0512 -0.0022
  23. Li 2 (py)     0.0004  0.0023 -0.0006  0.0815 -0.0001  0.0040 -0.0022  0.3297
  24. Li 2 (pz)     0.0054  0.0307 -0.0083 -0.0001  0.0806  0.0537 -0.0293 -0.0002
  25. Li 2 (d1)     0.0798  0.4072 -0.2794 -0.0038 -0.0518  0.5334 -0.4241 -0.0069
  26. Li 2 (d4)     0.0007  0.0354 -0.0363  0.0014 -0.0038  0.1667 -0.2804  0.0015
  27. Li 2 (d6)     0.0015  0.0395 -0.0413 -0.0003  0.0181  0.1707 -0.2872 -0.0022
  28. Li 2 (d2)     0.0011  0.0050 -0.0047  0.1852 -0.0006  0.0049 -0.0051  0.4096
  29. Li 2 (d3)     0.0144  0.0677 -0.0637 -0.0006  0.1765  0.0667 -0.0692 -0.0009
  30. Li 2 (d5)     0.0001  0.0005 -0.0006  0.0195  0.0014  0.0005 -0.0009  0.0430
  31.  H 3 (s)      0.0338  0.2783  0.1389  0.3461  0.0278  0.3800  0.1915  0.4771
  32.  H 3 (s)      0.0930  0.4794  0.0987  0.2461  0.0197  0.7078  0.2159  0.5381
  33.  H 4 (s)      0.0338  0.2783  0.1760 -0.1601 -0.2885  0.3800  0.2427 -0.2206
  34.  H 4 (s)      0.0930  0.4794  0.1252 -0.1138 -0.2051  0.7078  0.2737 -0.2488
  35.  H 5 (s)      0.0338  0.2783  0.1138 -0.1828  0.3058  0.3800  0.1568 -0.2519
  36.  H 5 (s)      0.0930  0.4794  0.0809 -0.1299  0.2174  0.7078  0.1769 -0.2841

           AO          9      10      11      12      13      14      15      16
      ------------ ------- ------- ------- ------- ------- ------- ------- -------
   1.  C 1 (s)      0.0000  0.0791  0.0791  0.0791  0.0000  0.0000  0.0000  0.0001
   2.  C 1 (s)      0.0000  0.7102  0.7102  0.7102  0.0000  0.0000  0.0000  0.0067
   3.  C 1 (px)     0.0000  0.0000  0.0000  0.0000  0.0000  0.0000  0.0000 -0.0143
   4.  C 1 (py)     0.0000  0.0000  0.0000  0.0000  0.0000  0.0000  0.0000 -0.0001
   5.  C 1 (pz)     0.5698  0.0000  0.0000  0.0000  0.0000  0.0000  0.0000 -0.0015
   6.  C 1 (s)      0.0000  0.6299  0.6299  0.6299  0.0000  0.0000  0.0000  0.0620
   7.  C 1 (px)     0.0000  0.0000  0.0000  0.0000  0.0000  0.0000  0.0000 -0.1628
   8.  C 1 (py)     0.0000  0.0000  0.0000  0.0000  0.0000  0.0000  0.0000 -0.0013
   9.  C 1 (pz)     1.0000  0.0000  0.0000  0.0000  0.0000  0.0000  0.0000 -0.0171
  10.  C 1 (d1)     0.0000  1.0000  0.3333  0.3333  0.0000  0.0000  0.0000  0.0137
  11.  C 1 (d4)     0.0000  0.3333  1.0000  0.3333  0.0000  0.0000  0.0000  0.0014
  12.  C 1 (d6)     0.0000  0.3333  0.3333  1.0000  0.0000  0.0000  0.0000  0.0015
  13.  C 1 (d2)     0.0000  0.0000  0.0000  0.0000  1.0000  0.0000  0.0000  0.0002
  14.  C 1 (d3)     0.0000  0.0000  0.0000  0.0000  0.0000  1.0000  0.0000  0.0022
  15.  C 1 (d5)     0.0000  0.0000  0.0000  0.0000  0.0000  0.0000  1.0000  0.0000
  16. Li 2 (s)     -0.0171  0.0137  0.0014  0.0015  0.0002  0.0022  0.0000  1.0000
  17. Li 2 (s)     -0.0410  0.2035  0.1741  0.1745  0.0004  0.0053  0.0000  0.1453
  18. Li 2 (px)    -0.0639  0.3099  0.2965  0.2973  0.0006  0.0080  0.0001  0.0000
  19. Li 2 (py)    -0.0005  0.0029  0.0018  0.0023 -0.0530  0.0001 -0.0056  0.0000
  20. Li 2 (pz)     0.3712  0.0390  0.0312  0.0248  0.0001 -0.0516 -0.0004  0.0000
  21. Li 2 (s)     -0.0248  0.1817  0.1740  0.1741  0.0001  0.0014  0.0000  0.1857
  22. Li 2 (px)    -0.0293  0.2274  0.2384  0.2385  0.0000  0.0000  0.0000  0.0000
  23. Li 2 (py)    -0.0002  0.0019  0.0017  0.0018 -0.0186  0.0000 -0.0020  0.0000
  24. Li 2 (pz)     0.3267  0.0262  0.0250  0.0228  0.0000 -0.0184 -0.0001  0.0000
  25. Li 2 (d1)    -0.0943  0.3796  0.2930  0.2967  0.0026  0.0355  0.0005  0.0996
  26. Li 2 (d4)    -0.0295  0.0326  0.0457  0.0154 -0.0016  0.0032 -0.0002  0.0996
  27. Li 2 (d6)     0.0195  0.0392  0.0183  0.0459  0.0003 -0.0215 -0.0002  0.0996
  28. Li 2 (d2)    -0.0009  0.0061  0.0019  0.0038 -0.1626  0.0006 -0.0219  0.0000
  29. Li 2 (d3)     0.3979  0.0829  0.0506  0.0259  0.0006 -0.1544 -0.0015  0.0000
  30. Li 2 (d5)     0.0031  0.0008  0.0002  0.0002 -0.0219 -0.0015  0.0434  0.0000
  31.  H 3 (s)      0.0383  0.1672  0.4127  0.1219  0.2034  0.0163  0.0407  0.0001
  32.  H 3 (s)      0.0432  0.3650  0.4227  0.3544  0.0477  0.0038  0.0095  0.0163
  33.  H 4 (s)     -0.3977  0.1958  0.1826  0.3234 -0.1192 -0.2149  0.1954  0.0001
  34.  H 4 (s)     -0.4486  0.3717  0.3687  0.4017 -0.0280 -0.0504  0.0459  0.0163
  35.  H 5 (s)      0.4216  0.1517  0.2016  0.3485 -0.0880  0.1472 -0.2365  0.0001
  36.  H 5 (s)      0.4755  0.3614  0.3731  0.4076 -0.0206  0.0345 -0.0555  0.0163

           AO         17      18      19      20      21      22      23      24
      ------------ ------- ------- ------- ------- ------- ------- ------- -------
   1.  C 1 (s)      0.0380  0.0693  0.0005  0.0073  0.0361  0.0513  0.0004  0.0054
   2.  C 1 (s)      0.2276  0.3766  0.0029  0.0396  0.2184  0.2921  0.0023  0.0307
   3.  C 1 (px)    -0.1202 -0.1145 -0.0017 -0.0232 -0.0583  0.0028 -0.0006 -0.0083
   4.  C 1 (py)    -0.0009 -0.0017  0.1058 -0.0002 -0.0005 -0.0006  0.0815 -0.0001
   5.  C 1 (pz)    -0.0126 -0.0232 -0.0002  0.1033 -0.0061 -0.0083 -0.0001  0.0806
   6.  C 1 (s)      0.4273  0.5859  0.0045  0.0616  0.4333  0.5113  0.0040  0.0537
   7.  C 1 (px)    -0.3902 -0.2303 -0.0047 -0.0639 -0.2360  0.0512 -0.0022 -0.0293
   8.  C 1 (py)    -0.0030 -0.0047  0.3779 -0.0005 -0.0018 -0.0022  0.3297 -0.0002
   9.  C 1 (pz)    -0.0410 -0.0639 -0.0005  0.3712 -0.0248 -0.0293 -0.0002  0.3267
  10.  C 1 (d1)     0.2035  0.3099  0.0029  0.0390  0.1817  0.2274  0.0019  0.0262
  11.  C 1 (d4)     0.1741  0.2965  0.0018  0.0312  0.1740  0.2384  0.0017  0.0250
  12.  C 1 (d6)     0.1745  0.2973  0.0023  0.0248  0.1741  0.2385  0.0018  0.0228
  13.  C 1 (d2)     0.0004  0.0006 -0.0530  0.0001  0.0001  0.0000 -0.0186  0.0000
  14.  C 1 (d3)     0.0053  0.0080  0.0001 -0.0516  0.0014  0.0000  0.0000 -0.0184
  15.  C 1 (d5)     0.0000  0.0001 -0.0056 -0.0004  0.0000  0.0000 -0.0020 -0.0001
  16. Li 2 (s)      0.1453  0.0000  0.0000  0.0000  0.1857  0.0000  0.0000  0.0000
  17. Li 2 (s)      1.0000  0.0000  0.0000  0.0000  0.9055  0.0000  0.0000  0.0000
  18. Li 2 (px)     0.0000  1.0000  0.0000  0.0000  0.0000  0.8021  0.0000  0.0000
  19. Li 2 (py)     0.0000  0.0000  1.0000  0.0000  0.0000  0.0000  0.8021  0.0000
  20. Li 2 (pz)     0.0000  0.0000  0.0000  1.0000  0.0000  0.0000  0.0000  0.8021
  21. Li 2 (s)      0.9055  0.0000  0.0000  0.0000  1.0000  0.0000  0.0000  0.0000
  22. Li 2 (px)     0.0000  0.8021  0.0000  0.0000  0.0000  1.0000  0.0000  0.0000
  23. Li 2 (py)     0.0000  0.0000  0.8021  0.0000  0.0000  0.0000  1.0000  0.0000
  24. Li 2 (pz)     0.0000  0.0000  0.0000  0.8021  0.0000  0.0000  0.0000  1.0000
  25. Li 2 (d1)     0.7243  0.0000  0.0000  0.0000  0.5965  0.0000  0.0000  0.0000
  26. Li 2 (d4)     0.7243  0.0000  0.0000  0.0000  0.5965  0.0000  0.0000  0.0000
  27. Li 2 (d6)     0.7243  0.0000  0.0000  0.0000  0.5965  0.0000  0.0000  0.0000
  28. Li 2 (d2)     0.0000  0.0000  0.0000  0.0000  0.0000  0.0000  0.0000  0.0000
  29. Li 2 (d3)     0.0000  0.0000  0.0000  0.0000  0.0000  0.0000  0.0000  0.0000
  30. Li 2 (d5)     0.0000  0.0000  0.0000  0.0000  0.0000  0.0000  0.0000  0.0000
  31.  H 3 (s)      0.0849  0.1696  0.0719  0.0205  0.1167  0.1908  0.0809  0.0231
  32.  H 3 (s)      0.2621  0.4068  0.1725  0.0492  0.3296  0.4635  0.1965  0.0561
  33.  H 4 (s)      0.0849  0.1772 -0.0317 -0.0442  0.1167  0.1994 -0.0356 -0.0497
  34.  H 4 (s)      0.2621  0.4251 -0.0759 -0.1060  0.3296  0.4843 -0.0865 -0.1208
  35.  H 5 (s)      0.0849  0.1645 -0.0363  0.0774  0.1167  0.1850 -0.0408  0.0871
  36.  H 5 (s)      0.2621  0.3945 -0.0871  0.1857  0.3296  0.4494 -0.0992  0.2116

           AO         25      26      27      28      29      30      31      32
      ------------ ------- ------- ------- ------- ------- ------- ------- -------
   1.  C 1 (s)      0.0798  0.0007  0.0015  0.0011  0.0144  0.0001  0.0338  0.0930
   2.  C 1 (s)      0.4072  0.0354  0.0395  0.0050  0.0677  0.0005  0.2783  0.4794
   3.  C 1 (px)    -0.2794 -0.0363 -0.0413 -0.0047 -0.0637 -0.0006  0.1389  0.0987
   4.  C 1 (py)    -0.0038  0.0014 -0.0003  0.1852 -0.0006  0.0195  0.3461  0.2461
   5.  C 1 (pz)    -0.0518 -0.0038  0.0181 -0.0006  0.1765  0.0014  0.0278  0.0197
   6.  C 1 (s)      0.5334  0.1667  0.1707  0.0049  0.0667  0.0005  0.3800  0.7078
   7.  C 1 (px)    -0.4241 -0.2804 -0.2872 -0.0051 -0.0692 -0.0009  0.1915  0.2159
   8.  C 1 (py)    -0.0069  0.0015 -0.0022  0.4096 -0.0009  0.0430  0.4771  0.5381
   9.  C 1 (pz)    -0.0943 -0.0295  0.0195 -0.0009  0.3979  0.0031  0.0383  0.0432
  10.  C 1 (d1)     0.3796  0.0326  0.0392  0.0061  0.0829  0.0008  0.1672  0.3650
  11.  C 1 (d4)     0.2930  0.0457  0.0183  0.0019  0.0506  0.0002  0.4127  0.4227
  12.  C 1 (d6)     0.2967  0.0154  0.0459  0.0038  0.0259  0.0002  0.1219  0.3544
  13.  C 1 (d2)     0.0026 -0.0016  0.0003 -0.1626  0.0006 -0.0219  0.2034  0.0477
  14.  C 1 (d3)     0.0355  0.0032 -0.0215  0.0006 -0.1544 -0.0015  0.0163  0.0038
  15.  C 1 (d5)     0.0005 -0.0002 -0.0002 -0.0219 -0.0015  0.0434  0.0407  0.0095
  16. Li 2 (s)      0.0996  0.0996  0.0996  0.0000  0.0000  0.0000  0.0001  0.0163
  17. Li 2 (s)      0.7243  0.7243  0.7243  0.0000  0.0000  0.0000  0.0849  0.2621
  18. Li 2 (px)     0.0000  0.0000  0.0000  0.0000  0.0000  0.0000  0.1696  0.4068
  19. Li 2 (py)     0.0000  0.0000  0.0000  0.0000  0.0000  0.0000  0.0719  0.1725
  20. Li 2 (pz)     0.0000  0.0000  0.0000  0.0000  0.0000  0.0000  0.0205  0.0492
  21. Li 2 (s)      0.5965  0.5965  0.5965  0.0000  0.0000  0.0000  0.1167  0.3296
  22. Li 2 (px)     0.0000  0.0000  0.0000  0.0000  0.0000  0.0000  0.1908  0.4635
  23. Li 2 (py)     0.0000  0.0000  0.0000  0.0000  0.0000  0.0000  0.0809  0.1965
  24. Li 2 (pz)     0.0000  0.0000  0.0000  0.0000  0.0000  0.0000  0.0231  0.0561
  25. Li 2 (d1)     1.0000  0.3333  0.3333  0.0000  0.0000  0.0000  0.0950  0.2802
  26. Li 2 (d4)     0.3333  1.0000  0.3333  0.0000  0.0000  0.0000  0.0205  0.1084
  27. Li 2 (d6)     0.3333  0.3333  1.0000  0.0000  0.0000  0.0000  0.0056  0.0738
  28. Li 2 (d2)     0.0000  0.0000  0.0000  1.0000  0.0000  0.0000  0.0666  0.1538
  29. Li 2 (d3)     0.0000  0.0000  0.0000  0.0000  1.0000  0.0000  0.0190  0.0439
  30. Li 2 (d5)     0.0000  0.0000  0.0000  0.0000  0.0000  1.0000  0.0081  0.0186
  31.  H 3 (s)      0.0950  0.0205  0.0056  0.0666  0.0190  0.0081  1.0000  0.6583
  32.  H 3 (s)      0.2802  0.1084  0.0738  0.1538  0.0439  0.0186  0.6583  1.0000
  33.  H 4 (s)      0.1033  0.0074  0.0104 -0.0307 -0.0428  0.0076  0.0225  0.1616
  34.  H 4 (s)      0.2994  0.0780  0.0850 -0.0707 -0.0988  0.0176  0.1616  0.4218
  35.  H 5 (s)      0.0895  0.0084  0.0231 -0.0326  0.0696 -0.0154  0.0225  0.1616
  36.  H 5 (s)      0.2677  0.0803  0.1144 -0.0753  0.1605 -0.0354  0.1616  0.4218

           AO         33      34      35      36
      ------------ ------- ------- ------- -------
   1.  C 1 (s)      0.0338  0.0930  0.0338  0.0930
   2.  C 1 (s)      0.2783  0.4794  0.2783  0.4794
   3.  C 1 (px)     0.1760  0.1252  0.1138  0.0809
   4.  C 1 (py)    -0.1601 -0.1138 -0.1828 -0.1299
   5.  C 1 (pz)    -0.2885 -0.2051  0.3058  0.2174
   6.  C 1 (s)      0.3800  0.7078  0.3800  0.7078
   7.  C 1 (px)     0.2427  0.2737  0.1568  0.1769
   8.  C 1 (py)    -0.2206 -0.2488 -0.2519 -0.2841
   9.  C 1 (pz)    -0.3977 -0.4486  0.4216  0.4755
  10.  C 1 (d1)     0.1958  0.3717  0.1517  0.3614
  11.  C 1 (d4)     0.1826  0.3687  0.2016  0.3731
  12.  C 1 (d6)     0.3234  0.4017  0.3485  0.4076
  13.  C 1 (d2)    -0.1192 -0.0280 -0.0880 -0.0206
  14.  C 1 (d3)    -0.2149 -0.0504  0.1472  0.0345
  15.  C 1 (d5)     0.1954  0.0459 -0.2365 -0.0555
  16. Li 2 (s)      0.0001  0.0163  0.0001  0.0163
  17. Li 2 (s)      0.0849  0.2621  0.0849  0.2621
  18. Li 2 (px)     0.1772  0.4251  0.1645  0.3945
  19. Li 2 (py)    -0.0317 -0.0759 -0.0363 -0.0871
  20. Li 2 (pz)    -0.0442 -0.1060  0.0774  0.1857
  21. Li 2 (s)      0.1167  0.3296  0.1167  0.3296
  22. Li 2 (px)     0.1994  0.4843  0.1850  0.4494
  23. Li 2 (py)    -0.0356 -0.0865 -0.0408 -0.0992
  24. Li 2 (pz)    -0.0497 -0.1208  0.0871  0.2116
  25. Li 2 (d1)     0.1033  0.2994  0.0895  0.2677
  26. Li 2 (d4)     0.0074  0.0780  0.0084  0.0803
  27. Li 2 (d6)     0.0104  0.0850  0.0231  0.1144
  28. Li 2 (d2)    -0.0307 -0.0707 -0.0326 -0.0753
  29. Li 2 (d3)    -0.0428 -0.0988  0.0696  0.1605
  30. Li 2 (d5)     0.0076  0.0176 -0.0154 -0.0354
  31.  H 3 (s)      0.0225  0.1616  0.0225  0.1616
  32.  H 3 (s)      0.1616  0.4218  0.1616  0.4218
  33.  H 4 (s)      1.0000  0.6583  0.0225  0.1616
  34.  H 4 (s)      0.6583  1.0000  0.1616  0.4218
  35.  H 5 (s)      0.0225  0.1616  1.0000  0.6583
  36.  H 5 (s)      0.1616  0.4218  0.6583  1.0000


 AO bond-order matrix:

           AO          1       2       3       4       5       6       7       8
      ------------ ------- ------- ------- ------- ------- ------- ------- -------
   1.  C 1 (s)      2.0597 -0.0819  0.0129  0.0001  0.0014 -0.1799  0.0220  0.0002
   2.  C 1 (s)     -0.0819  0.2493 -0.0189 -0.0001 -0.0020  0.2695 -0.0398 -0.0003
   3.  C 1 (px)     0.0129 -0.0189  0.4066  0.0005  0.0073 -0.1034  0.3251  0.0012
   4.  C 1 (py)     0.0001 -0.0001  0.0005  0.3375  0.0001 -0.0008  0.0012  0.1752
   5.  C 1 (pz)     0.0014 -0.0020  0.0073  0.0001  0.3383 -0.0109  0.0158  0.0001
   6.  C 1 (s)     -0.1799  0.2695 -0.1034 -0.0008 -0.0109  0.3130 -0.1095 -0.0008
   7.  C 1 (px)     0.0220 -0.0398  0.3251  0.0012  0.0158 -0.1095  0.2627  0.0013
   8.  C 1 (py)     0.0002 -0.0003  0.0012  0.1752  0.0001 -0.0008  0.0013  0.0909
   9.  C 1 (pz)     0.0023 -0.0042  0.0158  0.0001  0.1768 -0.0115  0.0181  0.0001
  10.  C 1 (d1)    -0.0035 -0.0005 -0.0006 -0.0005 -0.0042 -0.0001 -0.0006 -0.0003
  11.  C 1 (d4)    -0.0078  0.0079  0.0030  0.0192  0.0025  0.0079  0.0017  0.0100
  12.  C 1 (d6)    -0.0078  0.0078  0.0032 -0.0186  0.0023  0.0078  0.0018 -0.0097
  13.  C 1 (d2)     0.0000 -0.0001 -0.0004  0.0222  0.0022 -0.0001 -0.0002  0.0115
  14.  C 1 (d3)     0.0005 -0.0010 -0.0029  0.0022  0.0225 -0.0010 -0.0016  0.0011
  15.  C 1 (d5)     0.0000  0.0000  0.0022  0.0048 -0.0214  0.0000  0.0011  0.0025
  16. Li 2 (s)      0.0218 -0.0448  0.1045  0.0008  0.0110 -0.0367  0.0748  0.0006
  17. Li 2 (s)     -0.0355  0.0771 -0.2737 -0.0021 -0.0288  0.1385 -0.2257 -0.0017
  18. Li 2 (px)    -0.0354  0.0734 -0.2281 -0.0019 -0.0259  0.1250 -0.1889 -0.0015
  19. Li 2 (py)    -0.0003  0.0006 -0.0019  0.0187 -0.0002  0.0010 -0.0015  0.0097
  20. Li 2 (pz)    -0.0037  0.0077 -0.0259 -0.0002  0.0160  0.0131 -0.0209 -0.0002
  21. Li 2 (s)     -0.0091  0.0106 -0.0359 -0.0003 -0.0038  0.0190 -0.0297 -0.0002
  22. Li 2 (px)     0.0102 -0.0231  0.0913  0.0006  0.0085 -0.0431  0.0749  0.0005
  23. Li 2 (py)     0.0001 -0.0002  0.0006  0.0108  0.0001 -0.0003  0.0005  0.0056
  24. Li 2 (pz)     0.0011 -0.0024  0.0085  0.0001  0.0117 -0.0045  0.0073  0.0001
  25. Li 2 (d1)    -0.0030  0.0067  0.0012 -0.0001 -0.0004  0.0070  0.0003  0.0000
  26. Li 2 (d4)     0.0031 -0.0077  0.0206  0.0025  0.0024 -0.0122  0.0171  0.0013
  27. Li 2 (d6)     0.0030 -0.0076  0.0205 -0.0021  0.0024 -0.0120  0.0169 -0.0010
  28. Li 2 (d2)    -0.0001  0.0001 -0.0002  0.0030  0.0002  0.0002 -0.0002  0.0015
  29. Li 2 (d3)    -0.0007  0.0018 -0.0027  0.0002  0.0027  0.0023 -0.0022  0.0001
  30. Li 2 (d5)     0.0000  0.0000  0.0002  0.0006 -0.0026  0.0000  0.0001  0.0003
  31.  H 3 (s)     -0.0510  0.0919  0.0817  0.2246  0.0171  0.0815  0.0567  0.1167
  32.  H 3 (s)     -0.0051  0.0202  0.0896  0.2210  0.0178  0.0024  0.0702  0.1149
  33.  H 4 (s)     -0.0510  0.0919  0.1058 -0.1040 -0.1882  0.0815  0.0692 -0.0538
  34.  H 4 (s)     -0.0051  0.0202  0.1133 -0.1022 -0.1841  0.0024  0.0825 -0.0528
  35.  H 5 (s)     -0.0510  0.0919  0.0653 -0.1187  0.1976  0.0815  0.0482 -0.0615
  36.  H 5 (s)     -0.0051  0.0202  0.0736 -0.1167  0.1954  0.0024  0.0619 -0.0604

           AO          9      10      11      12      13      14      15      16
      ------------ ------- ------- ------- ------- ------- ------- ------- -------
   1.  C 1 (s)      0.0023 -0.0035 -0.0078 -0.0078  0.0000  0.0005  0.0000  0.0218
   2.  C 1 (s)     -0.0042 -0.0005  0.0079  0.0078 -0.0001 -0.0010  0.0000 -0.0448
   3.  C 1 (px)     0.0158 -0.0006  0.0030  0.0032 -0.0004 -0.0029  0.0022  0.1045
   4.  C 1 (py)     0.0001 -0.0005  0.0192 -0.0186  0.0222  0.0022  0.0048  0.0008
   5.  C 1 (pz)     0.1768 -0.0042  0.0025  0.0023  0.0022  0.0225 -0.0214  0.0110
   6.  C 1 (s)     -0.0115 -0.0001  0.0079  0.0078 -0.0001 -0.0010  0.0000 -0.0367
   7.  C 1 (px)     0.0181 -0.0006  0.0017  0.0018 -0.0002 -0.0016  0.0011  0.0748
   8.  C 1 (py)     0.0001 -0.0003  0.0100 -0.0097  0.0115  0.0011  0.0025  0.0006
   9.  C 1 (pz)     0.0928 -0.0022  0.0013  0.0012  0.0011  0.0117 -0.0111  0.0079
  10.  C 1 (d1)    -0.0022  0.0001 -0.0001  0.0000 -0.0001 -0.0003  0.0003  0.0026
  11.  C 1 (d4)     0.0013 -0.0001  0.0014 -0.0007  0.0013  0.0002  0.0001 -0.0018
  12.  C 1 (d6)     0.0012  0.0000 -0.0007  0.0013 -0.0012  0.0000 -0.0004 -0.0018
  13.  C 1 (d2)     0.0011 -0.0001  0.0013 -0.0012  0.0015  0.0003  0.0002  0.0000
  14.  C 1 (d3)     0.0117 -0.0003  0.0002  0.0000  0.0003  0.0015 -0.0014  0.0005
  15.  C 1 (d5)    -0.0111  0.0003  0.0001 -0.0004  0.0002 -0.0014  0.0014  0.0000
  16. Li 2 (s)      0.0079  0.0026 -0.0018 -0.0018  0.0000  0.0005  0.0000  2.0242
  17. Li 2 (s)     -0.0237  0.0005 -0.0002 -0.0001  0.0000  0.0001  0.0000 -0.1102
  18. Li 2 (px)    -0.0209  0.0004  0.0002  0.0002  0.0000 -0.0001  0.0001 -0.1128
  19. Li 2 (py)    -0.0002  0.0000  0.0011 -0.0010  0.0012  0.0001  0.0003 -0.0009
  20. Li 2 (pz)     0.0075 -0.0002  0.0001  0.0001  0.0001  0.0013 -0.0012 -0.0118
  21. Li 2 (s)     -0.0031  0.0001  0.0000  0.0000  0.0000  0.0000  0.0000 -0.0096
  22. Li 2 (px)     0.0073 -0.0001  0.0001  0.0001  0.0000 -0.0001  0.0001  0.0478
  23. Li 2 (py)     0.0001  0.0000  0.0006 -0.0006  0.0007  0.0001  0.0002  0.0004
  24. Li 2 (pz)     0.0064 -0.0001  0.0001  0.0001  0.0001  0.0007 -0.0007  0.0050
  25. Li 2 (d1)    -0.0003  0.0000  0.0002  0.0002  0.0000 -0.0001  0.0000  0.0038
  26. Li 2 (d4)     0.0019  0.0000  0.0001 -0.0002  0.0002  0.0000  0.0000  0.0253
  27. Li 2 (d6)     0.0019  0.0000 -0.0002  0.0001 -0.0001  0.0000 -0.0001  0.0251
  28. Li 2 (d2)     0.0001  0.0000  0.0002 -0.0002  0.0002  0.0000  0.0000 -0.0002
  29. Li 2 (d3)     0.0013  0.0000  0.0001  0.0000  0.0000  0.0002 -0.0002 -0.0026
  30. Li 2 (d5)    -0.0013  0.0000  0.0000  0.0000  0.0000 -0.0002  0.0002  0.0000
  31.  H 3 (s)      0.0104 -0.0008  0.0166 -0.0085  0.0147  0.0015  0.0027  0.0081
  32.  H 3 (s)      0.0117 -0.0007  0.0141 -0.0106  0.0145  0.0018  0.0026  0.0203
  33.  H 4 (s)     -0.0962  0.0022 -0.0034  0.0084 -0.0082 -0.0145  0.0111  0.0081
  34.  H 4 (s)     -0.0931  0.0023 -0.0055  0.0061 -0.0081 -0.0140  0.0109  0.0203
  35.  H 5 (s)      0.1041 -0.0025 -0.0017  0.0115 -0.0066  0.0114 -0.0138  0.0081
  36.  H 5 (s)      0.1039 -0.0024 -0.0039  0.0091 -0.0065  0.0115 -0.0136  0.0203

           AO         17      18      19      20      21      22      23      24
      ------------ ------- ------- ------- ------- ------- ------- ------- -------
   1.  C 1 (s)     -0.0355 -0.0354 -0.0003 -0.0037 -0.0091  0.0102  0.0001  0.0011
   2.  C 1 (s)      0.0771  0.0734  0.0006  0.0077  0.0106 -0.0231 -0.0002 -0.0024
   3.  C 1 (px)    -0.2737 -0.2281 -0.0019 -0.0259 -0.0359  0.0913  0.0006  0.0085
   4.  C 1 (py)    -0.0021 -0.0019  0.0187 -0.0002 -0.0003  0.0006  0.0108  0.0001
   5.  C 1 (pz)    -0.0288 -0.0259 -0.0002  0.0160 -0.0038  0.0085  0.0001  0.0117
   6.  C 1 (s)      0.1385  0.1250  0.0010  0.0131  0.0190 -0.0431 -0.0003 -0.0045
   7.  C 1 (px)    -0.2257 -0.1889 -0.0015 -0.0209 -0.0297  0.0749  0.0005  0.0073
   8.  C 1 (py)    -0.0017 -0.0015  0.0097 -0.0002 -0.0002  0.0005  0.0056  0.0001
   9.  C 1 (pz)    -0.0237 -0.0209 -0.0002  0.0075 -0.0031  0.0073  0.0001  0.0064
  10.  C 1 (d1)     0.0005  0.0004  0.0000 -0.0002  0.0001 -0.0001  0.0000 -0.0001
  11.  C 1 (d4)    -0.0002  0.0002  0.0011  0.0001  0.0000  0.0001  0.0006  0.0001
  12.  C 1 (d6)    -0.0001  0.0002 -0.0010  0.0001  0.0000  0.0001 -0.0006  0.0001
  13.  C 1 (d2)     0.0000  0.0000  0.0012  0.0001  0.0000  0.0000  0.0007  0.0001
  14.  C 1 (d3)     0.0001 -0.0001  0.0001  0.0013  0.0000 -0.0001  0.0001  0.0007
  15.  C 1 (d5)     0.0000  0.0001  0.0003 -0.0012  0.0000  0.0001  0.0002 -0.0007
  16. Li 2 (s)     -0.1102 -0.1128 -0.0009 -0.0118 -0.0096  0.0478  0.0004  0.0050
  17. Li 2 (s)      0.2030  0.1720  0.0013  0.0181  0.0267 -0.0671 -0.0005 -0.0071
  18. Li 2 (px)     0.1720  0.1462  0.0011  0.0153  0.0226 -0.0569 -0.0004 -0.0060
  19. Li 2 (py)     0.0013  0.0011  0.0011  0.0001  0.0002 -0.0004  0.0006  0.0000
  20. Li 2 (pz)     0.0181  0.0153  0.0001  0.0026  0.0024 -0.0060  0.0000  0.0000
  21. Li 2 (s)      0.0267  0.0226  0.0002  0.0024  0.0035 -0.0088 -0.0001 -0.0009
  22. Li 2 (px)    -0.0671 -0.0569 -0.0004 -0.0060 -0.0088  0.0223  0.0002  0.0023
  23. Li 2 (py)    -0.0005 -0.0004  0.0006  0.0000 -0.0001  0.0002  0.0003  0.0000
  24. Li 2 (pz)    -0.0071 -0.0060  0.0000  0.0000 -0.0009  0.0023  0.0000  0.0006
  25. Li 2 (d1)     0.0009  0.0010  0.0000  0.0001  0.0001 -0.0002  0.0000  0.0000
  26. Li 2 (d4)    -0.0161 -0.0138  0.0000 -0.0014 -0.0021  0.0054  0.0001  0.0006
  27. Li 2 (d6)    -0.0159 -0.0137 -0.0002 -0.0014 -0.0021  0.0053  0.0000  0.0006
  28. Li 2 (d2)     0.0002  0.0001  0.0002  0.0000  0.0000 -0.0001  0.0001  0.0000
  29. Li 2 (d3)     0.0021  0.0018  0.0000  0.0004  0.0003 -0.0007  0.0000  0.0000
  30. Li 2 (d5)     0.0000  0.0000  0.0000 -0.0001  0.0000  0.0000  0.0000 -0.0001
  31.  H 3 (s)     -0.0324 -0.0237  0.0123 -0.0020 -0.0040  0.0118  0.0073  0.0015
  32.  H 3 (s)     -0.0563 -0.0462  0.0119 -0.0044 -0.0073  0.0189  0.0072  0.0023
  33.  H 4 (s)     -0.0324 -0.0223 -0.0060 -0.0134 -0.0040  0.0125 -0.0033 -0.0051
  34.  H 4 (s)     -0.0563 -0.0449 -0.0061 -0.0156 -0.0073  0.0197 -0.0032 -0.0042
  35.  H 5 (s)     -0.0324 -0.0246 -0.0068  0.0080 -0.0040  0.0112 -0.0037  0.0073
  36.  H 5 (s)     -0.0563 -0.0471 -0.0069  0.0055 -0.0073  0.0184 -0.0036  0.0080

           AO         25      26      27      28      29      30      31      32
      ------------ ------- ------- ------- ------- ------- ------- ------- -------
   1.  C 1 (s)     -0.0030  0.0031  0.0030 -0.0001 -0.0007  0.0000 -0.0510 -0.0051
   2.  C 1 (s)      0.0067 -0.0077 -0.0076  0.0001  0.0018  0.0000  0.0919  0.0202
   3.  C 1 (px)     0.0012  0.0206  0.0205 -0.0002 -0.0027  0.0002  0.0817  0.0896
   4.  C 1 (py)    -0.0001  0.0025 -0.0021  0.0030  0.0002  0.0006  0.2246  0.2210
   5.  C 1 (pz)    -0.0004  0.0024  0.0024  0.0002  0.0027 -0.0026  0.0171  0.0178
   6.  C 1 (s)      0.0070 -0.0122 -0.0120  0.0002  0.0023  0.0000  0.0815  0.0024
   7.  C 1 (px)     0.0003  0.0171  0.0169 -0.0002 -0.0022  0.0001  0.0567  0.0702
   8.  C 1 (py)     0.0000  0.0013 -0.0010  0.0015  0.0001  0.0003  0.1167  0.1149
   9.  C 1 (pz)    -0.0003  0.0019  0.0019  0.0001  0.0013 -0.0013  0.0104  0.0117
  10.  C 1 (d1)     0.0000  0.0000  0.0000  0.0000  0.0000  0.0000 -0.0008 -0.0007
  11.  C 1 (d4)     0.0002  0.0001 -0.0002  0.0002  0.0001  0.0000  0.0166  0.0141
  12.  C 1 (d6)     0.0002 -0.0002  0.0001 -0.0002  0.0000  0.0000 -0.0085 -0.0106
  13.  C 1 (d2)     0.0000  0.0002 -0.0001  0.0002  0.0000  0.0000  0.0147  0.0145
  14.  C 1 (d3)    -0.0001  0.0000  0.0000  0.0000  0.0002 -0.0002  0.0015  0.0018
  15.  C 1 (d5)     0.0000  0.0000 -0.0001  0.0000 -0.0002  0.0002  0.0027  0.0026
  16. Li 2 (s)      0.0038  0.0253  0.0251 -0.0002 -0.0026  0.0000  0.0081  0.0203
  17. Li 2 (s)      0.0009 -0.0161 -0.0159  0.0002  0.0021  0.0000 -0.0324 -0.0563
  18. Li 2 (px)     0.0010 -0.0138 -0.0137  0.0001  0.0018  0.0000 -0.0237 -0.0462
  19. Li 2 (py)     0.0000  0.0000 -0.0002  0.0002  0.0000  0.0000  0.0123  0.0119
  20. Li 2 (pz)     0.0001 -0.0014 -0.0014  0.0000  0.0004 -0.0001 -0.0020 -0.0044
  21. Li 2 (s)      0.0001 -0.0021 -0.0021  0.0000  0.0003  0.0000 -0.0040 -0.0073
  22. Li 2 (px)    -0.0002  0.0054  0.0053 -0.0001 -0.0007  0.0000  0.0118  0.0189
  23. Li 2 (py)     0.0000  0.0001  0.0000  0.0001  0.0000  0.0000  0.0073  0.0072
  24. Li 2 (pz)     0.0000  0.0006  0.0006  0.0000  0.0000 -0.0001  0.0015  0.0023
  25. Li 2 (d1)     0.0002 -0.0001 -0.0001  0.0000  0.0000  0.0000  0.0028  0.0009
  26. Li 2 (d4)    -0.0001  0.0014  0.0014  0.0000 -0.0002  0.0000  0.0033  0.0056
  27. Li 2 (d6)    -0.0001  0.0014  0.0014  0.0000 -0.0002  0.0000  0.0002  0.0026
  28. Li 2 (d2)     0.0000  0.0000  0.0000  0.0000  0.0000  0.0000  0.0020  0.0019
  29. Li 2 (d3)     0.0000 -0.0002 -0.0002  0.0000  0.0001  0.0000  0.0004 -0.0001
  30. Li 2 (d5)     0.0000  0.0000  0.0000  0.0000  0.0000  0.0000  0.0003  0.0003
  31.  H 3 (s)      0.0028  0.0033  0.0002  0.0020  0.0004  0.0003  0.2037  0.1751
  32.  H 3 (s)      0.0009  0.0056  0.0026  0.0019 -0.0001  0.0003  0.1751  0.1675
  33.  H 4 (s)      0.0032  0.0009  0.0023 -0.0011 -0.0017  0.0013 -0.0196 -0.0445
  34.  H 4 (s)      0.0013  0.0032  0.0046 -0.0011 -0.0022  0.0013 -0.0445 -0.0485
  35.  H 5 (s)      0.0026  0.0011  0.0027 -0.0009  0.0017 -0.0017 -0.0196 -0.0445
  36.  H 5 (s)      0.0006  0.0034  0.0050 -0.0009  0.0012 -0.0017 -0.0445 -0.0485

           AO         33      34      35      36
      ------------ ------- ------- ------- -------
   1.  C 1 (s)     -0.0510 -0.0051 -0.0510 -0.0051
   2.  C 1 (s)      0.0919  0.0202  0.0919  0.0202
   3.  C 1 (px)     0.1058  0.1133  0.0653  0.0736
   4.  C 1 (py)    -0.1040 -0.1022 -0.1187 -0.1167
   5.  C 1 (pz)    -0.1882 -0.1841  0.1976  0.1954
   6.  C 1 (s)      0.0815  0.0024  0.0815  0.0024
   7.  C 1 (px)     0.0692  0.0825  0.0482  0.0619
   8.  C 1 (py)    -0.0538 -0.0528 -0.0615 -0.0604
   9.  C 1 (pz)    -0.0962 -0.0931  0.1041  0.1039
  10.  C 1 (d1)     0.0022  0.0023 -0.0025 -0.0024
  11.  C 1 (d4)    -0.0034 -0.0055 -0.0017 -0.0039
  12.  C 1 (d6)     0.0084  0.0061  0.0115  0.0091
  13.  C 1 (d2)    -0.0082 -0.0081 -0.0066 -0.0065
  14.  C 1 (d3)    -0.0145 -0.0140  0.0114  0.0115
  15.  C 1 (d5)     0.0111  0.0109 -0.0138 -0.0136
  16. Li 2 (s)      0.0081  0.0203  0.0081  0.0203
  17. Li 2 (s)     -0.0324 -0.0563 -0.0324 -0.0563
  18. Li 2 (px)    -0.0223 -0.0449 -0.0246 -0.0471
  19. Li 2 (py)    -0.0060 -0.0061 -0.0068 -0.0069
  20. Li 2 (pz)    -0.0134 -0.0156  0.0080  0.0055
  21. Li 2 (s)     -0.0040 -0.0073 -0.0040 -0.0073
  22. Li 2 (px)     0.0125  0.0197  0.0112  0.0184
  23. Li 2 (py)    -0.0033 -0.0032 -0.0037 -0.0036
  24. Li 2 (pz)    -0.0051 -0.0042  0.0073  0.0080
  25. Li 2 (d1)     0.0032  0.0013  0.0026  0.0006
  26. Li 2 (d4)     0.0009  0.0032  0.0011  0.0034
  27. Li 2 (d6)     0.0023  0.0046  0.0027  0.0050
  28. Li 2 (d2)    -0.0011 -0.0011 -0.0009 -0.0009
  29. Li 2 (d3)    -0.0017 -0.0022  0.0017  0.0012
  30. Li 2 (d5)     0.0013  0.0013 -0.0017 -0.0017
  31.  H 3 (s)     -0.0196 -0.0445 -0.0196 -0.0445
  32.  H 3 (s)     -0.0445 -0.0485 -0.0445 -0.0485
  33.  H 4 (s)      0.2037  0.1751 -0.0196 -0.0445
  34.  H 4 (s)      0.1751  0.1675 -0.0445 -0.0485
  35.  H 5 (s)     -0.0196 -0.0445  0.2037  0.1751
  36.  H 5 (s)     -0.0445 -0.0485  0.1751  0.1675


 AO density matrix:

           AO          1       2       3       4       5       6       7       8
      ------------ ------- ------- ------- ------- ------- ------- ------- -------
   1.  C 1 (s)      1.9998  0.4482  0.0006  0.0000  0.0001  0.3661  0.0000  0.0000
   2.  C 1 (s)      0.4482  1.5492  0.0062  0.0000  0.0006  1.7099 -0.0160 -0.0001
   3.  C 1 (px)     0.0006  0.0062  1.2657  0.0005  0.0063 -0.0025  1.4454  0.0007
   4.  C 1 (py)     0.0000  0.0000  0.0005  1.2060  0.0000  0.0000  0.0007  1.3551
   5.  C 1 (pz)     0.0001  0.0006  0.0063  0.0000  1.2067 -0.0003  0.0095  0.0001
   6.  C 1 (s)      0.3661  1.7099 -0.0025  0.0000 -0.0003  1.9023 -0.0447 -0.0003
   7.  C 1 (px)     0.0000 -0.0160  1.4454  0.0007  0.0095 -0.0447  1.6940  0.0013
   8.  C 1 (py)     0.0000 -0.0001  0.0007  1.3551  0.0001 -0.0003  0.0013  1.5227
   9.  C 1 (pz)     0.0000 -0.0017  0.0095  0.0001  1.3561 -0.0047  0.0180  0.0001
  10.  C 1 (d1)     0.1639  1.1173 -0.0388 -0.0036 -0.0291  1.2455 -0.0641 -0.0042
  11.  C 1 (d4)     0.1628  1.1900  0.0358  0.1392  0.0195  1.3254  0.0238  0.1562
  12.  C 1 (d6)     0.1629  1.1892  0.0377 -0.1353  0.0132  1.3245  0.0259 -0.1522
  13.  C 1 (d2)     0.0000 -0.0010 -0.0051  0.1982  0.0240 -0.0011 -0.0058  0.2227
[...]

 Search of NHO DM block for the following atom(s):   1
      Select eigenvectors with eigenvalue > 1.900
       2.000 0.000 0.000 0.000 0.000 0.000 0.000 0.000 0.000 0.000 0.000 0.000
       0.000 0.000 0.000
      Eigenvector ( 1) has occupancy 1.99999
            1.0000 0.0000 0.0000 0.0000 0.0000 0.0000 0.0000 0.0000
            0.0000 0.0000 0.0000 0.0000 0.0000 0.0000 0.0000
           NBO accepted:    1. Label:CR ( 1)   1
        1 eigenvector(s) stashed in permanent list

 Search of NHO DM block for the following atom(s):   2
      Select eigenvectors with eigenvalue > 1.900
       2.000 0.002 0.002 0.000 0.000 0.000 0.000 0.000 0.000 0.000 0.000 0.000
       0.000 0.000 0.000
      Eigenvector ( 1) has occupancy 1.99991
            1.0000 0.0000 0.0000 0.0000 0.0000 0.0000 0.0000 0.0000
            0.0000 0.0000 0.0000 0.0000 0.0000 0.0000 0.0000
           NBO accepted:    2. Label:CR ( 1)   2
        1 eigenvector(s) stashed in permanent list

  1-center NBOs projected from the NHO density matrix
       8.000 electrons remain (>1.900); search continues

 Search of NHO DM block for the following atom(s):   1   2
      Select eigenvectors with eigenvalue > 1.900
       1.999 0.000 0.000 0.000 0.000 0.000 0.000 0.000 0.000 0.000 0.000 0.000
       0.000 0.000 0.000 0.000 0.000 0.000 0.000 0.000 0.000 0.000 0.000 0.000
       0.000 0.000 0.000 0.000 0.000 0.000
      Eigenvector ( 1) has occupancy 1.99934
            0.0000 0.9538 0.0000 0.0000 0.0000 0.0000 0.0000 0.0000
            0.0000 0.0000 0.0000 0.0000 0.0000 0.0000 0.0000 0.0000
            0.3003 0.0000 0.0000 0.0000 0.0000 0.0000 0.0000 0.0000
            0.0000 0.0000 0.0000 0.0000 0.0000 0.0000
      Occupancy is 1.999 after deleting minor hybrid components
            0.0000 0.9538 0.0000 0.0000 0.0000 0.0000 0.0000 0.0000
            0.0000 0.0000 0.0000 0.0000 0.0000 0.0000 0.0000 0.0000
            0.3003 0.0000 0.0000 0.0000 0.0000 0.0000 0.0000 0.0000
            0.0000 0.0000 0.0000 0.0000 0.0000 0.0000
           NBO accepted:    3. Label:BD ( 1)   1   2
      Occupancy is 0.000 for antibonding component
            0.0000-0.3003 0.0000 0.0000 0.0000 0.0000 0.0000 0.0000
            0.0000 0.0000 0.0000 0.0000 0.0000 0.0000 0.0000 0.0000
            0.9538 0.0000 0.0000 0.0000 0.0000 0.0000 0.0000 0.0000
            0.0000 0.0000 0.0000 0.0000 0.0000 0.0000
           NBO accepted:    4. Label:BD*( 1)   1   2
        2 eigenvector(s) stashed in permanent list

 Search of NHO DM block for the following atom(s):   1   3
      Select eigenvectors with eigenvalue > 1.900
       1.998 0.000 0.000 0.000 0.000 0.000 0.000 0.000 0.000 0.000 0.000 0.000
       0.000 0.000 0.000 0.000 0.000
      Eigenvector ( 1) has occupancy 1.99805
            0.0000 0.0000 0.7718 0.0000 0.0000 0.0000 0.0000 0.0000
            0.0000 0.0000 0.0000 0.0000 0.0000 0.0000 0.0000 0.6358
            0.0000
      Occupancy is 1.998 after deleting minor hybrid components
            0.0000 0.0000 0.7718 0.0000 0.0000 0.0000 0.0000 0.0000
            0.0000 0.0000 0.0000 0.0000 0.0000 0.0000 0.0000 0.6358
            0.0000
           NBO accepted:    5. Label:BD ( 1)   1   3
      Occupancy is 0.000 for antibonding component
            0.0000 0.0000-0.6358 0.0000 0.0000 0.0000 0.0000 0.0000
            0.0000 0.0000 0.0000 0.0000 0.0000 0.0000 0.0000 0.7718
            0.0000
           NBO accepted:    6. Label:BD*( 1)   1   3
        2 eigenvector(s) stashed in permanent list

 Search of NHO DM block for the following atom(s):   1   4
      Select eigenvectors with eigenvalue > 1.900
       1.998 0.000 0.000 0.000 0.000 0.000 0.000 0.000 0.000 0.000 0.000 0.000
       0.000 0.000 0.000 0.000 0.000
      Eigenvector ( 1) has occupancy 1.99805
            0.0000 0.0000 0.0000 0.7718 0.0000 0.0000 0.0000 0.0000
            0.0000 0.0000 0.0000 0.0000 0.0000 0.0000 0.0000 0.6358
            0.0000
      Occupancy is 1.998 after deleting minor hybrid components
            0.0000 0.0000 0.0000 0.7718 0.0000 0.0000 0.0000 0.0000
            0.0000 0.0000 0.0000 0.0000 0.0000 0.0000 0.0000 0.6358
            0.0000
           NBO accepted:    7. Label:BD ( 1)   1   4
      Occupancy is 0.000 for antibonding component
            0.0000 0.0000 0.0000-0.6358 0.0000 0.0000 0.0000 0.0000
            0.0000 0.0000 0.0000 0.0000 0.0000 0.0000 0.0000 0.7718
            0.0000
           NBO accepted:    8. Label:BD*( 1)   1   4
        2 eigenvector(s) stashed in permanent list

 Search of NHO DM block for the following atom(s):   1   5
      Select eigenvectors with eigenvalue > 1.900
       1.998 0.000 0.000 0.000 0.000 0.000 0.000 0.000 0.000 0.000 0.000 0.000
       0.000 0.000 0.000 0.000 0.000
      Eigenvector ( 1) has occupancy 1.99805
            0.0000 0.0000 0.0000 0.0000 0.7718 0.0000 0.0000 0.0000
            0.0000 0.0000 0.0000 0.0000 0.0000 0.0000 0.0000 0.6358
            0.0000
      Occupancy is 1.998 after deleting minor hybrid components
            0.0000 0.0000 0.0000 0.0000 0.7718 0.0000 0.0000 0.0000
            0.0000 0.0000 0.0000 0.0000 0.0000 0.0000 0.0000 0.6358
            0.0000
           NBO accepted:    9. Label:BD ( 1)   1   5
      Occupancy is 0.000 for antibonding component
            0.0000 0.0000 0.0000 0.0000-0.6358 0.0000 0.0000 0.0000
            0.0000 0.0000 0.0000 0.0000 0.0000 0.0000 0.0000 0.7718
            0.0000
           NBO accepted:   10. Label:BD*( 1)   1   5
        2 eigenvector(s) stashed in permanent list

  2-center NBOs projected from the NHO density matrix
       0.006 electrons remain in the fully projected matrix

                            Occupancies       Lewis Structure    Low   High
         Max    Occ     -------------------  -----------------   occ   occ
  Cycle  Ctr   Thresh    Lewis   non-Lewis     CR  BD  nC  LP    (L)   (NL)
 ============================================================================
    3     2     1.90    11.99341   0.00659      2   4   0   0     0      0
 ----------------------------------------------------------------------------

 Structure accepted: No low occupancy Lewis orbitals

 -------------------------------------------------------
   Core                      3.99990 ( 99.998% of   4)
   Valence Lewis             7.99351 ( 99.919% of   8)
  ==================      =============================
   Total Lewis              11.99341 ( 99.945% of  12)
  -----------------------------------------------------
   Valence non-Lewis         0.00076 (  0.006% of  12)
   Rydberg non-Lewis         0.00583 (  0.049% of  12)
  ==================      =============================
   Total non-Lewis           0.00659 (  0.055% of  12)
 -------------------------------------------------------


     (Occupancy)   Bond orbital / Coefficients / Hybrids
 ------------------ Lewis ------------------------------------------------------
   1. (1.99999) CR ( 1) C  1            s(100.00%)
                                         1.0000  0.0000  0.0000  0.0000  0.0000
                                         0.0000  0.0000  0.0000  0.0000  0.0000
                                         0.0000  0.0000  0.0000  0.0000  0.0000
   2. (1.99991) CR ( 1)Li  2            s(100.00%)
                                         1.0000  0.0000  0.0000  0.0000  0.0000
                                         0.0000  0.0000  0.0000  0.0000  0.0000
                                         0.0000  0.0000  0.0000  0.0000  0.0000
   3. (1.99934) BD ( 1) C  1-Li  2
               ( 90.98%)   0.9538* C  1 s( 17.75%)p 4.63( 82.24%)d 0.00(  0.01%)
                                         0.0000  0.4174 -0.0572  0.0000 -0.8980
                                         0.0835 -0.0069  0.0006 -0.0944  0.0088
                                         0.0001  0.0018  0.0000  0.0084 -0.0047
               (  9.02%)   0.3003*Li  2 s( 90.76%)p 0.08(  7.41%)d 0.02(  1.83%)
                                         0.0000  0.9527  0.0009  0.0000  0.2692
                                        -0.0285  0.0021 -0.0002  0.0283 -0.0030
                                        -0.0018 -0.0243 -0.0002 -0.1159  0.0654
   4. (1.99805) BD ( 1) C  1- H  3
               ( 59.57%)   0.7718* C  1 s( 27.49%)p 2.63( 72.34%)d 0.01(  0.17%)
                                         0.0000  0.5238  0.0240  0.0000  0.2306
                                         0.0090  0.8156  0.0441  0.0553  0.0026
                                         0.0274  0.0023  0.0051 -0.0229 -0.0201
               ( 40.43%)   0.6358* H  3 s(100.00%)
                                         1.0000 -0.0008
   5. (1.99805) BD ( 1) C  1- H  4
               ( 59.57%)   0.7718* C  1 s( 27.49%)p 2.63( 72.34%)d 0.01(  0.17%)
                                         0.0000  0.5238  0.0240  0.0000  0.3182
                                         0.0137 -0.3782 -0.0205 -0.6907 -0.0378
                                        -0.0155 -0.0278  0.0222  0.0033  0.0138
               ( 40.43%)   0.6358* H  4 s(100.00%)
                                         1.0000 -0.0008
   6. (1.99805) BD ( 1) C  1- H  5
               ( 59.57%)   0.7718* C  1 s( 27.49%)p 2.63( 72.34%)d 0.01(  0.17%)
                                         0.0000  0.5238  0.0240  0.0000  0.1713
                                         0.0058 -0.4318 -0.0234  0.7110  0.0381
                                        -0.0122  0.0206 -0.0273 -0.0037  0.0194
               ( 40.43%)   0.6358* H  5 s(100.00%)
                                         1.0000 -0.0008
 ---------------- non-Lewis ----------------------------------------------------
   7. (0.00006) BD*( 1) C  1-Li  2
               (  9.02%)   0.3003* C  1 s( 17.75%)p 4.63( 82.24%)d 0.00(  0.01%)
               ( 90.98%)  -0.9538*Li  2 s( 90.76%)p 0.08(  7.41%)d 0.02(  1.83%)
   8. (0.00023) BD*( 1) C  1- H  3
               ( 40.43%)   0.6358* C  1 s( 27.49%)p 2.63( 72.34%)d 0.01(  0.17%)
                                         0.0000 -0.5238 -0.0240  0.0000 -0.2306
                                        -0.0090 -0.8156 -0.0441 -0.0553 -0.0026
                                        -0.0274 -0.0023 -0.0051  0.0229  0.0201
               ( 59.57%)  -0.7718* H  3 s(100.00%)
                                        -1.0000  0.0008
   9. (0.00023) BD*( 1) C  1- H  4
               ( 40.43%)   0.6358* C  1 s( 27.49%)p 2.63( 72.34%)d 0.01(  0.17%)
                                         0.0000 -0.5238 -0.0240  0.0000 -0.3182
                                        -0.0137  0.3782  0.0205  0.6907  0.0378
                                         0.0155  0.0278 -0.0222 -0.0033 -0.0138
               ( 59.57%)  -0.7718* H  4 s(100.00%)
                                        -1.0000  0.0008
  10. (0.00023) BD*( 1) C  1- H  5
               ( 40.43%)   0.6358* C  1 s( 27.49%)p 2.63( 72.34%)d 0.01(  0.17%)
                                         0.0000 -0.5238 -0.0240  0.0000 -0.1713
                                        -0.0058  0.4318  0.0234 -0.7110 -0.0381
                                         0.0122 -0.0206  0.0273  0.0037 -0.0194
               ( 59.57%)  -0.7718* H  5 s(100.00%)
                                        -1.0000  0.0008
  11. (0.00003) RY ( 1) C  1            s( 38.98%)p 1.51( 58.85%)d 0.06(  2.17%)
  12. (0.00000) RY ( 2) C  1            s( 60.15%)p 0.66( 39.82%)d 0.00(  0.04%)
  13. (0.00000) RY ( 3) C  1            s(  0.17%)p99.99( 84.06%)d92.09( 15.77%)
  14. (0.00000) RY ( 4) C  1            s(  0.24%)p19.74(  4.74%)d99.99( 95.02%)
  15. (0.00000) RY ( 5) C  1            s(  0.75%)p 2.81(  2.11%)d99.99( 97.13%)
  16. (0.00000) RY ( 6) C  1            s(  0.61%)p 1.66(  1.02%)d99.99( 98.37%)
  17. (0.00000) RY ( 7) C  1            s(  0.14%)p99.99( 15.05%)d99.99( 84.81%)
  18. (0.00000) RY ( 8) C  1            s(  1.59%)p 8.97( 14.30%)d52.76( 84.11%)
  19. (0.00000) RY ( 9) C  1            s( 23.27%)p 2.68( 62.38%)d 0.62( 14.36%)
  20. (0.00000) RY (10) C  1            s( 73.88%)p 0.25( 18.42%)d 0.10(  7.71%)
  21. (0.00165) RY ( 1)Li  2            s(  0.00%)p 1.00( 95.42%)d 0.05(  4.58%)
                                         0.0000  0.0000  0.0000  0.0000  0.0466
                                         0.0332  0.6257  0.4458 -0.4891 -0.3485
                                        -0.1418  0.1107  0.0798 -0.0564 -0.0624
  22. (0.00165) RY ( 2)Li  2            s(  0.00%)p 1.00( 95.42%)d 0.05(  4.58%)
                                         0.0000  0.0000  0.0000  0.0000 -0.0692
                                        -0.0493  0.4913  0.3501  0.6219  0.4431
                                        -0.0937 -0.1185 -0.1059 -0.0320 -0.1036
  23. (0.00049) RY ( 3)Li  2            s( 68.97%)p 0.35( 23.87%)d 0.10(  7.15%)
                                         0.0000  0.1505  0.8167 -0.0020 -0.3624
                                         0.3237 -0.0028  0.0025 -0.0381  0.0340
                                         0.0035  0.0481  0.0004  0.2290 -0.1293
  24. (0.00005) RY ( 4)Li  2            s( 23.54%)p 3.12( 73.35%)d 0.13(  3.11%)
  25. (0.00000) RY ( 5)Li  2            s(  0.56%)p99.99( 59.00%)d71.69( 40.43%)
  26. (0.00000) RY ( 6)Li  2            s(  0.15%)p99.99( 15.16%)d99.99( 84.69%)
  27. (0.00000) RY ( 7)Li  2            s(  0.27%)p53.23( 14.41%)d99.99( 85.32%)
  28. (0.00000) RY ( 8)Li  2            s(  1.46%)p20.16( 29.51%)d47.15( 69.02%)
  29. (0.00000) RY ( 9)Li  2            s( 94.66%)p 0.04(  3.69%)d 0.02(  1.65%)
  30. (0.00000) RY (10)Li  2            s( 10.69%)p 1.24( 13.22%)d 7.12( 76.09%)
  31. (0.00000) RY (11)Li  2            s(  7.39%)p10.01( 73.98%)d 2.52( 18.63%)
  32. (0.00000) RY (12)Li  2            s(  1.46%)p23.64( 34.54%)d43.81( 64.00%)
  33. (0.00000) RY (13)Li  2            s(  0.07%)p99.99( 61.03%)d99.99( 38.91%)
  34. (0.00066) RY ( 1) H  3            s(100.00%)
                                         0.0008  1.0000
  35. (0.00066) RY ( 1) H  4            s(100.00%)
                                         0.0008  1.0000
  36. (0.00066) RY ( 1) H  5            s(100.00%)
                                         0.0008  1.0000


 NHO DIRECTIONALITY AND BOND BENDING (deviation from line of nuclear centers at
                                      the position of maximum hybrid amplitude)

         [Thresholds for printing:  angular deviation  >  1.0 degree]
                                    p- or d-character  > 25.0%
                                    orbital occupancy  >  0.10e

                        Line of Centers        Hybrid 1             Hybrid 2
                        ---------------  -------------------  ------------------
           NBO            Theta   Phi    Theta   Phi    Dev   Theta   Phi    Dev
 ===============================================================================
   4. BD ( 1) C  1- H  3   85.7   68.1    86.0   71.7   3.6     --     --    --
   5. BD ( 1) C  1- H  4  140.5  317.7   142.9  313.4   3.6     --     --    --
   6. BD ( 1) C  1- H  5   35.1  301.9    33.9  296.0   3.6     --     --    --


 SECOND ORDER PERTURBATION THEORY ANALYSIS OF FOCK MATRIX IN NBO BASIS

     Threshold for printing:   0.50 kcal/mol
                                                          E(2) E(NL)-E(L) F(L,NL)
      Donor (L) NBO              Acceptor (NL) NBO      kcal/mol   a.u.    a.u.
 ===============================================================================

 within unit  1
       None above threshold


 NATURAL BOND ORBITALS (Summary):

                                                     Principal Delocalizations
           NBO                 Occupancy    Energy   (geminal,vicinal,remote)
 ===============================================================================
 Molecular unit  1  (CH3Li)
 ------ Lewis --------------------------------------
    1. CR ( 1) C  1             1.99999   -11.10774
    2. CR ( 1)Li  2             1.99991    -2.42256
    3. BD ( 1) C  1-Li  2       1.99934    -0.30113
    4. BD ( 1) C  1- H  3       1.99805    -0.56810
    5. BD ( 1) C  1- H  4       1.99805    -0.56810
    6. BD ( 1) C  1- H  5       1.99805    -0.56810
 ------ non-Lewis ----------------------------------
    7. BD*( 1) C  1-Li  2       0.00006     0.20855
    8. BD*( 1) C  1- H  3       0.00023     0.80567
    9. BD*( 1) C  1- H  4       0.00023     0.80567
   10. BD*( 1) C  1- H  5       0.00023     0.80567
   11. RY ( 1) C  1             0.00003     1.23274
   12. RY ( 2) C  1             0.00000     1.71259
   13. RY ( 3) C  1             0.00000     1.16377
   14. RY ( 4) C  1             0.00000     2.21182
   15. RY ( 5) C  1             0.00000     2.44536
   16. RY ( 6) C  1             0.00000     2.19297
   17. RY ( 7) C  1             0.00000     2.06216
   18. RY ( 8) C  1             0.00000     2.14395
   19. RY ( 9) C  1             0.00000     1.86629
   20. RY (10) C  1             0.00000     3.25908
   21. RY ( 1)Li  2             0.00165     0.16707
   22. RY ( 2)Li  2             0.00165     0.16707
   23. RY ( 3)Li  2             0.00049     0.36335
   24. RY ( 4)Li  2             0.00005     0.95680
   25. RY ( 5)Li  2             0.00000     0.42564
   26. RY ( 6)Li  2             0.00000     0.55096
   27. RY ( 7)Li  2             0.00000     0.61947
   28. RY ( 8)Li  2             0.00000     0.52094
   29. RY ( 9)Li  2             0.00000     1.05752
   30. RY (10)Li  2             0.00000     0.50662
   31. RY (11)Li  2             0.00000     0.47543
   32. RY (12)Li  2             0.00000     0.65487
   33. RY (13)Li  2             0.00000     0.40609
   34. RY ( 1) H  3             0.00066     0.87999
   35. RY ( 1) H  4             0.00066     0.87999
   36. RY ( 1) H  5             0.00066     0.87999
          -------------------------------
                 Total Lewis   11.99341  ( 99.9451%)
           Valence non-Lewis    0.00076  (  0.0063%)
           Rydberg non-Lewis    0.00583  (  0.0486%)
          -------------------------------
               Total unit  1   12.00000  (100.0000%)
              Charge unit  1    0.00000

 $CHOOSE
   BOND S 1 2 S 1 3 S 1 4 S 1 5 END
 $END

 NBO analysis completed in 0.40 CPU seconds (1 wall second)
 Maximum scratch memory used by NBO was 333295 words (2.54 MB)
 Maximum scratch memory used by G16NBO was 10297 words (0.08 MB)

 Opening RunExU unformatted file "/cluster/work/users/beto93/CH3Li/Gau-1258968.EUF"
 Read unf file /cluster/work/users/beto93/CH3Li/Gau-1258968.EUF:
 Label Gaussian matrix elements                                         IVers= 2 NLab= 2 Version=ES64L-G16RevC.01
 Title NBO-a                                                           
 NAtoms=     5 NBasis=    36 NBsUse=    36 ICharg=     0 Multip=     1 NE=    12 Len12L=8 Len4L=8 IOpCl= 0 ICGU=111
 GAUSSIAN SCALARS                    NI= 1 NR= 1 NTot=       1 LenBuf=    2 NRI=1 N=    1000
 NPA CHARGES                         NI= 0 NR= 1 NTot=       5 LenBuf= 4000 NRI=1 N=       5
 Recovered energy= -47.0153141376     dipole=     -2.232138137779     -0.017273365726     -0.234561992822
 Unable to Open any file for archive entry.
 1\1\GINC-C1-25\SP\RHF\6-31G(d)\C1H3Li1\BETO93\24-Jul-2024\0\\#RHF/6-31
 G* Pop=NBO7Read\\NBO-a\\0,1\C,0,0.000002,-0.000003,0.000002\Li,0,-0.94
 6785,1.639879,-0.669478\H,0,0.029505,-0.051105,1.081096\H,0,1.029102,-
 0.051105,-0.332545\H,0,-0.470291,-0.91678,-0.332547\\Version=ES64L-G16
 RevC.01\State=1-A\HF=-47.0153141\RMSD=4.305e-09\Dipole=-1.0580662,1.83
 26216,-0.7481661\Quadrupole=-0.8865465,2.6596417,-1.7730952,-3.0710954
 ,1.2537716,-2.1715919\PG=C01 [X(C1H3Li1)]\\@
 The archive entry for this job was punched.


 In the race for quality, there is no finish line.
                               -- David T. Kearns
 Job cpu time:       0 days  0 hours  0 minutes 15.4 seconds.
 Elapsed time:       0 days  0 hours  0 minutes  5.1 seconds.
 File lengths (MBytes):  RWF=     10 Int=      0 D2E=      0 Chk=      1 Scr=      1
 Normal termination of Gaussian 16 at Wed Jul 24 12:08:04 2024.
