 Entering Gaussian System, Link 0=g16
 Initial command:
 /cluster/software/Gaussian/g16_C.01/l1.exe "/cluster/work/users/beto93/CH3BeH/Gau-3325852.inp" -scrdir="/cluster/work/users/beto93/CH3BeH/"
 Entering Link 1 = /cluster/software/Gaussian/g16_C.01/l1.exe PID=   3325860.
  
 Copyright (c) 1988-2019, Gaussian, Inc.  All Rights Reserved.
  
 This is part of the Gaussian(R) 16 program.  It is based on
 the Gaussian(R) 09 system (copyright 2009, Gaussian, Inc.),
 the Gaussian(R) 03 system (copyright 2003, Gaussian, Inc.),
 the Gaussian(R) 98 system (copyright 1998, Gaussian, Inc.),
 the Gaussian(R) 94 system (copyright 1995, Gaussian, Inc.),
 the Gaussian 92(TM) system (copyright 1992, Gaussian, Inc.),
 the Gaussian 90(TM) system (copyright 1990, Gaussian, Inc.),
 the Gaussian 88(TM) system (copyright 1988, Gaussian, Inc.),
 the Gaussian 86(TM) system (copyright 1986, Carnegie Mellon
 University), and the Gaussian 82(TM) system (copyright 1983,
 Carnegie Mellon University). Gaussian is a federally registered
 trademark of Gaussian, Inc.
  
 This software contains proprietary and confidential information,
 including trade secrets, belonging to Gaussian, Inc.
  
 This software is provided under written license and may be
 used, copied, transmitted, or stored only in accord with that
 written license.
  
 The following legend is applicable only to US Government
 contracts under FAR:
  
                    RESTRICTED RIGHTS LEGEND
  
 Use, reproduction and disclosure by the US Government is
 subject to restrictions as set forth in subparagraphs (a)
 and (c) of the Commercial Computer Software - Restricted
 Rights clause in FAR 52.227-19.
  
 Gaussian, Inc.
 340 Quinnipiac St., Bldg. 40, Wallingford CT 06492
  
  
 ---------------------------------------------------------------
 Warning -- This program may not be used in any manner that
 competes with the business of Gaussian, Inc. or will provide
 assistance to any competitor of Gaussian, Inc.  The licensee
 of this program is prohibited from giving any competitor of
 Gaussian, Inc. access to this program.  By using this program,
 the user acknowledges that Gaussian, Inc. is engaged in the
 business of creating and licensing software in the field of
 computational chemistry and represents and warrants to the
 licensee that it is not a competitor of Gaussian, Inc. and that
 it will not use this program in any manner prohibited above.
 ---------------------------------------------------------------
  

 Cite this work as:
 Gaussian 16, Revision C.01,
 M. J. Frisch, G. W. Trucks, H. B. Schlegel, G. E. Scuseria, 
 M. A. Robb, J. R. Cheeseman, G. Scalmani, V. Barone, 
 G. A. Petersson, H. Nakatsuji, X. Li, M. Caricato, A. V. Marenich, 
 J. Bloino, B. G. Janesko, R. Gomperts, B. Mennucci, H. P. Hratchian, 
 J. V. Ortiz, A. F. Izmaylov, J. L. Sonnenberg, D. Williams-Young, 
 F. Ding, F. Lipparini, F. Egidi, J. Goings, B. Peng, A. Petrone, 
 T. Henderson, D. Ranasinghe, V. G. Zakrzewski, J. Gao, N. Rega, 
 G. Zheng, W. Liang, M. Hada, M. Ehara, K. Toyota, R. Fukuda, 
 J. Hasegawa, M. Ishida, T. Nakajima, Y. Honda, O. Kitao, H. Nakai, 
 T. Vreven, K. Throssell, J. A. Montgomery, Jr., J. E. Peralta, 
 F. Ogliaro, M. J. Bearpark, J. J. Heyd, E. N. Brothers, K. N. Kudin, 
 V. N. Staroverov, T. A. Keith, R. Kobayashi, J. Normand, 
 K. Raghavachari, A. P. Rendell, J. C. Burant, S. S. Iyengar, 
 J. Tomasi, M. Cossi, J. M. Millam, M. Klene, C. Adamo, R. Cammi, 
 J. W. Ochterski, R. L. Martin, K. Morokuma, O. Farkas, 
 J. B. Foresman, and D. J. Fox, Gaussian, Inc., Wallingford CT, 2019.
 
 ******************************************
 Gaussian 16:  ES64L-G16RevC.01  3-Jul-2019
                24-Jul-2024 
 ******************************************
 %LindaWorkers=c1-3-ib
 %NProcShared=4
 Will use up to    4 processors via shared memory.
 %mem=25GB
 %chk=a.chk
 SetLPE:    new flags="-opt 'Tsnet.Node.lindarsharg: ssh'  -nodelist 'c1-3-ib.saga' -env GAUSS_MDEF=3355443200 -env GAUSS_EXEDIR="/cluster/software/Gaussian/g16_C.01/bsd:/cluster/software/Gaussian/g16_C.01""
 Will use up to    1 processors via Linda.
 -----------------------
 #RHF/4-31G Pop=NBO7Read
 -----------------------
 1/38=1,163=2,172=1/1;
 2/12=2,17=6,18=5,40=1/2;
 3/5=1,11=1,25=1,30=1,116=1/1,2,3;
 4//1;
 5/5=2,38=5/2;
 6/7=2,8=2,9=2,10=2,28=1,40=2,113=1,114=1,124=2103/1,12;
 99/5=1,9=1/99;
 -----
 NBO-a
 -----
 Symbolic Z-matrix:
 Charge =  0 Multiplicity = 1
 C                     0.0345   -0.05974   0.02499 
 Be                   -0.76165   1.32287  -0.53406 
 H                     0.0575   -0.10099   1.10865 
 H                     1.06333  -0.09802  -0.31644 
 H                    -0.44808  -0.96878  -0.31751 
 H                    -1.36966   2.37874  -0.96099 
 
                          Input orientation:                          
 ---------------------------------------------------------------------
 Center     Atomic      Atomic             Coordinates (Angstroms)
 Number     Number       Type             X           Y           Z
 ---------------------------------------------------------------------
      1          6           0        0.034501   -0.059741    0.024991
      2          4           0       -0.761653    1.322867   -0.534058
      3          1           0        0.057502   -0.100992    1.108648
      4          1           0        1.063335   -0.098024   -0.316442
      5          1           0       -0.448079   -0.968780   -0.317508
      6          1           0       -1.369663    2.378741   -0.960994
 ---------------------------------------------------------------------
                    Distance matrix (angstroms):
                    1          2          3          4          5
     1  C    0.000000
     2  Be   1.690563   0.000000
     3  H    1.084686   2.323117   0.000000
     4  H    1.084685   2.323116   1.744302   0.000000
     5  H    1.084685   2.323116   1.744302   1.744302   0.000000
     6  H    2.981617   1.291054   3.531189   3.531188   3.531188
                    6
     6  H    0.000000
 Stoichiometry    CH4Be
 Framework group  C3[C3(HBeC),X(H3)]
 Deg. of freedom     4
 Full point group                 C3      NOp   3
 Largest Abelian subgroup         C1      NOp   1
 Largest concise Abelian subgroup C1      NOp   1
                         Standard orientation:                         
 ---------------------------------------------------------------------
 Center     Atomic      Atomic             Coordinates (Angstroms)
 Number     Number       Type             X           Y           Z
 ---------------------------------------------------------------------
      1          6           0        0.000000   -0.000000    0.609650
      2          4           0       -0.000000    0.000000   -1.080912
      3          1           0        0.815158   -0.591367    1.012572
      4          1           0       -0.919718   -0.410264    1.012572
      5          1           0        0.104560    1.001631    1.012572
      6          1           0       -0.000000    0.000000   -2.371966
 ---------------------------------------------------------------------
 Rotational constants (GHZ):         164.8118407          20.0785083          20.0785083
 Standard basis: 4-31G (6D, 7F)
 There are    26 symmetry adapted cartesian basis functions of A   symmetry.
 There are    26 symmetry adapted basis functions of A   symmetry.
    26 basis functions,    53 primitive gaussians,    26 cartesian basis functions
     7 alpha electrons        7 beta electrons
       nuclear repulsion energy        23.0915125036 Hartrees.
 NAtoms=    6 NActive=    6 NUniq=    4 SFac= 2.25D+00 NAtFMM=   60 NAOKFM=F Big=F
 Integral buffers will be    131072 words long.
 Raffenetti 1 integral format.
 Two-electron integral symmetry is turned on.
 One-electron integrals computed using PRISM.
 NBasis=    26 RedAO= T EigKep=  1.57D-02  NBF=    26
 NBsUse=    26 1.00D-06 EigRej= -1.00D+00 NBFU=    26
 ExpMin= 1.01D-01 ExpMax= 5.54D+02 ExpMxC= 4.87D+02 IAcc=3 IRadAn=         5 AccDes= 0.00D+00
 Harris functional with IExCor=  205 and IRadAn=       5 diagonalized for initial guess.
 HarFok:  IExCor=  205 AccDes= 0.00D+00 IRadAn=         5 IDoV= 1 UseB2=F ITyADJ=14
 ICtDFT=  3500011 ScaDFX=  1.000000  1.000000  1.000000  1.000000
 FoFCou: FMM=F IPFlag=           0 FMFlag=      100000 FMFlg1=           0
         NFxFlg=           0 DoJE=T BraDBF=F KetDBF=T FulRan=T
         wScrn=  0.000000 ICntrl=       500 IOpCl=  0 I1Cent=   200000004 NGrid=           0
         NMat0=    1 NMatS0=      1 NMatT0=    0 NMatD0=    1 NMtDS0=    0 NMtDT0=    0
 Petite list used in FoFCou.
 Initial guess orbital symmetries:
       Occupied  (A) (A) (A) (E) (E) (A) (A)
       Virtual   (E) (E) (A) (E) (E) (A) (A) (A) (E) (E) (E) (E)
                 (A) (A) (E) (E) (A) (A) (A)
 The electronic state of the initial guess is 1-A.
 Keep R1 ints in memory in canonical form, NReq=872259.
 Requested convergence on RMS density matrix=1.00D-08 within 128 cycles.
 Requested convergence on MAX density matrix=1.00D-06.
 Requested convergence on             energy=1.00D-06.
 No special actions if energy rises.
 SCF Done:  E(RHF) =  -54.7540246433     A.U. after    9 cycles
            NFock=  9  Conv=0.76D-08     -V/T= 1.9967

 **********************************************************************

            Population analysis using the SCF Density.

 **********************************************************************

 Orbital symmetries:
       Occupied  (A) (A) (A) (E) (E) (A) (A)
       Virtual   (E) (E) (A) (A) (E) (E) (A) (E) (E) (A) (A) (E)
                 (E) (A) (E) (E) (A) (A) (A)
 The electronic state is 1-A.
 Alpha  occ. eigenvalues --  -11.15378  -4.64384  -0.91357  -0.52936  -0.52936
 Alpha  occ. eigenvalues --   -0.47148  -0.42350
 Alpha virt. eigenvalues --    0.13072   0.13072   0.22239   0.32057   0.32981
 Alpha virt. eigenvalues --    0.32981   0.46296   0.62073   0.62073   0.66125
 Alpha virt. eigenvalues --    0.85759   0.91642   0.91642   1.07960   1.24413
 Alpha virt. eigenvalues --    1.24413   1.31439   1.39373   1.72361
          Condensed to atoms (all electrons):
               1          2          3          4          5          6
     1  C    5.341619   0.377209   0.374538   0.374538   0.374538   0.003141
     2  Be   0.377209   2.735840  -0.023675  -0.023675  -0.023675   0.411831
     3  H    0.374538  -0.023675   0.554064  -0.028414  -0.028414   0.000415
     4  H    0.374538  -0.023675  -0.028414   0.554064  -0.028414   0.000415
     5  H    0.374538  -0.023675  -0.028414  -0.028414   0.554064   0.000415
     6  H    0.003141   0.411831   0.000415   0.000415   0.000415   0.738804
 Mulliken charges:
               1
     1  C   -0.845582
     2  Be   0.546145
     3  H    0.151486
     4  H    0.151486
     5  H    0.151486
     6  H   -0.155021
 Sum of Mulliken charges =  -0.00000
 Mulliken charges with hydrogens summed into heavy atoms:
               1
     1  C   -0.391124
     2  Be   0.391124
 Electronic spatial extent (au):  <R**2>=             99.7067
 Charge=             -0.0000 electrons
 Dipole moment (field-independent basis, Debye):
    X=              0.0000    Y=             -0.0000    Z=              0.4072  Tot=              0.4072
 Quadrupole moment (field-independent basis, Debye-Ang):
   XX=            -12.7620   YY=            -12.7620   ZZ=            -19.0136
   XY=             -0.0000   XZ=              0.0000   YZ=             -0.0000
 Traceless Quadrupole moment (field-independent basis, Debye-Ang):
   XX=              2.0839   YY=              2.0839   ZZ=             -4.1678
   XY=             -0.0000   XZ=              0.0000   YZ=             -0.0000
 Octapole moment (field-independent basis, Debye-Ang**2):
  XXX=             -0.1370  YYY=              0.4248  ZZZ=             21.5971  XYY=              0.1370
  XXY=             -0.4248  XXZ=              1.8458  XZZ=              0.0000  YZZ=             -0.0000
  YYZ=              1.8458  XYZ=             -0.0000
 Hexadecapole moment (field-independent basis, Debye-Ang**3):
 XXXX=            -20.8825 YYYY=            -20.8825 ZZZZ=           -165.3845 XXXY=             -0.0000
 XXXZ=             -0.1762 YYYX=             -0.0000 YYYZ=              0.5463 ZZZX=              0.0000
 ZZZY=             -0.0000 XXYY=             -6.9608 XXZZ=            -23.5603 YYZZ=            -23.5603
 XXYZ=             -0.5463 YYXZ=              0.1762 ZZXY=             -0.0000
 N-N= 2.309151250357D+01 E-N=-1.732950150075D+02  KE= 5.493371199280D+01
 Running external command "gaunbo7 R"
         input file       "/cluster/work/users/beto93/CH3BeH/Gau-3325860.EIn"
         output file      "/cluster/work/users/beto93/CH3BeH/Gau-3325860.EOu"
         message file     "/cluster/work/users/beto93/CH3BeH/Gau-3325860.EMs"
         fchk file        "/cluster/work/users/beto93/CH3BeH/Gau-3325860.EFC"
         mat. el file     "/cluster/work/users/beto93/CH3BeH/Gau-3325860.EUF"

 Writing WrtUnf unformatted file "/cluster/work/users/beto93/CH3BeH/Gau-3325860.EUF"
 Gaussian matrix elements                                         Version   2 NLab=11 Len12L=8 Len4L=8
 Write SHELL TO ATOM MAP                   from file      0 offset           0 length                  14 to matrix element file.
 Write SHELL TYPES                         from file      0 offset           0 length                  14 to matrix element file.
 Write NUMBER OF PRIMITIVES PER SHELL      from file      0 offset           0 length                  14 to matrix element file.
 Write PRIMITIVE EXPONENTS                 from file      0 offset           0 length                  32 to matrix element file.
 Write CONTRACTION COEFFICIENTS            from file      0 offset           0 length                  32 to matrix element file.
 Write P(S=P) CONTRACTION COEFFICIENTS     from file      0 offset           0 length                  32 to matrix element file.
 Write COORDINATES OF EACH SHELL           from file      0 offset           0 length                  42 to matrix element file.
 Write BONDS PER ATOM                      from file      0 offset           0 length                   6 to matrix element file.
 Write BONDED ATOMS                        from file      0 offset           0 length                  10 to matrix element file.
 Write BOND TYPES                          from file      0 offset           0 length                  10 to matrix element file.
 Write ONIOM CHARGE/MULT                   from file      0 offset           0 length                  32 to matrix element file.
 Write ONIOM ATOM LAYERS                   from file      0 offset           0 length                   6 to matrix element file.
 Write ONIOM ATOM MODIFIERS                from file      0 offset           0 length                   6 to matrix element file.
 Write ONIOM ATOM TYPES                    from file      0 offset           0 length                   6 to matrix element file.
 Write ONIOM LINK ATOMS                    from file      0 offset           0 length                   6 to matrix element file.
 Write ONIOM LINK CHARGES                  from file      0 offset           0 length                   6 to matrix element file.
 Write ONIOM LINK DISTANCES                from file      0 offset           0 length                  24 to matrix element file.
 Write SYMINF INTS                         from file      0 offset           0 length                  26 to matrix element file.
 Write ROTTR TO SO                         from file      0 offset           0 length                  12 to matrix element file.
 Write GAUSSIAN SCALARS                    from file    501 offset           0 to matrix element file.
 Write OPTIMIZATION FLAGS                  from file      0 offset           0 length                   6 to matrix element file.
 Write INTEGER ISO                         from file      0 offset           0 length                   6 to matrix element file.
 Write INTEGER SPIN                        from file      0 offset           0 length                   6 to matrix element file.
 Write REAL ZEFFECTIVE                     from file      0 offset           0 length                   6 to matrix element file.
 Write REAL QUADRUPOLEMOMENT               from file      0 offset           0 length                   6 to matrix element file.
 Write REAL GFACTOR                        from file      0 offset           0 length                   6 to matrix element file.
 Write REAL ZNUCLEAR                       from file      0 offset           0 length                   6 to matrix element file.
 Write MULLIKEN CHARGES                    from file      0 offset           0 length                   6 to matrix element file.
 Write NUCLEAR GRADIENT                    from file  10584 offset           0 length                  18 to matrix element file.
 Array NUCLEAR FORCE CONSTANTS              on  file  10585 does not exist.
 Write ELECTRIC DIPOLE MOMENT              from file      0 offset           0 length                   3 to matrix element file.
 Write NON-ADIABATIC COUPLING              from file  10810 offset           0 length                  18 to matrix element file.
 Write FINITE EM FIELD                     from file  10521 offset           0 length                  35 to matrix element file.
 Write OVERLAP                             from file  10514 offset           0 length                 351 to matrix element file.
 Write CORE HAMILTONIAN ALPHA              from file  10515 offset           0 length                 351 to matrix element file.
 Write CORE HAMILTONIAN BETA               from file  10515 offset         351 length                 351 to matrix element file.
 Write KINETIC ENERGY                      from file  10516 offset           0 length                 351 to matrix element file.
 Write ORTHOGONAL BASIS                    from file  10685 offset           0 length                 676 to matrix element file.
 Write DIPOLE INTEGRALS                    from file  10518 offset           0 length                1053 to matrix element file.
 Array DIP VEL INTEGRALS                    on  file  10572 does not exist.
 Array R X DEL INTEGRALS                    on  file  10572 does not exist.
 Write ALPHA ORBITAL ENERGIES              from file      0 offset           0 length                  26 to matrix element file.
 Write ALPHA MO COEFFICIENTS               from file  10524 offset           0 length                 676 to matrix element file.
 Write ALPHA DENSITY MATRIX                from file      0 offset           0 length                 351 to matrix element file.
 Write ALPHA FOCK MATRIX                   from file  10536 offset           0 length                 351 to matrix element file.
 Write ENERGY-WEIGHTED DENSITY             from file  10571 offset           0 length                 351 to matrix element file.
 Write ALPHA SCF DENSITY MATRIX            from file      0 offset           0 length                 351 to matrix element file.
 No 2e integrals to process.
 Perform NBO analysis...executing G16NBO...

 *********************************** NBO 7.0 ***********************************
             N A T U R A L   A T O M I C   O R B I T A L   A N D
          N A T U R A L   B O N D   O R B I T A L   A N A L Y S I S
 **************************** Espen Tangen (S101595) ***************************
  (c) Copyright 1996-2021 Board of Regents of the University of Wisconsin System
      on behalf of the Theoretical Chemistry Institute.  All rights reserved.

          Cite this program [NBO 7.0.10 (8-Feb-2021)] as:

          NBO 7.0.  E. D. Glendening, J. K. Badenhoop, A. E. Reed,
          J. E. Carpenter, J. A. Bohmann, C. M. Morales, P. Karafiloglou,
          C. R. Landis, and F. Weinhold, Theoretical Chemistry Institute,
          University of Wisconsin, Madison, WI (2018)

       /NPA    / : Natural Population Analysis
       /AOPNAO / : Print the AO to PNAO transformation
       /AONAO  / : Print the AO to NAO transformation
       /AONO   / : Print the NOs in the AO basis
       /AOMO   / : Print the MOs in the AO basis
       /BOAO   / : Print the AO bond-order matrix
       /DMAO   / : Print the AO density matrix
       /DMPNAO / : Print the PNAO density matrix
       /DMNAO  / : Print the NAO density matrix
       /DMMO   / : Print the MO density matrix
       /SAO    / : Print the AO overlap matrix
       /SPNAO  / : Print the PNAO overlap matrix
       /DETAIL / : Write details of NBO search
       /ARCHIVE/ : Write the archive file to lfn47
       /AOINFO / : Write AO information to lfn31
       /FILE   / : Set to inpGenNbo

 Filename set to inpGenNbo

 Job title: NBO-a


 MOs in the AO basis:

           AO          1       2       3       4       5       6       7       8
      ------------ ------- ------- ------- ------- ------- ------- ------- -------
   1.  C 1 (s)      0.9937 -0.0006 -0.1948  0.0000  0.0000 -0.0075  0.0314  0.0000
   2.  C 1 (s)      0.0599  0.0007  0.2987  0.0000  0.0000 -0.0073 -0.0462  0.0000
   3.  C 1 (px)     0.0000  0.0000  0.0000  0.3874 -0.0825  0.0000  0.0000 -0.0357
   4.  C 1 (py)     0.0000  0.0000  0.0000  0.0825  0.3874  0.0000  0.0000  0.0099
   5.  C 1 (pz)     0.0003 -0.0007  0.0500  0.0000  0.0000 -0.1682  0.3961  0.0000
   6.  C 1 (s)     -0.0463 -0.0003  0.4489  0.0000  0.0000  0.1004 -0.1067  0.0000
   7.  C 1 (px)     0.0000  0.0000  0.0000  0.2513 -0.0535  0.0000  0.0000 -0.0727
   8.  C 1 (py)     0.0000  0.0000  0.0000  0.0535  0.2513  0.0000  0.0000  0.0202
   9.  C 1 (pz)     0.0025 -0.0014  0.0089  0.0000  0.0000 -0.1773  0.2992  0.0000
  10. Be 2 (s)      0.0005  0.9964 -0.0454  0.0000  0.0000 -0.1825  0.0638  0.0000
  11. Be 2 (s)      0.0012  0.0358  0.0299  0.0000  0.0000  0.1286 -0.0379  0.0000
  12. Be 2 (px)     0.0000  0.0000  0.0000  0.0311 -0.0066  0.0000  0.0000  0.1951
  13. Be 2 (py)     0.0000  0.0000  0.0000  0.0066  0.0311  0.0000  0.0000 -0.0541
  14. Be 2 (pz)     0.0018  0.0000  0.0546  0.0000  0.0000 -0.1273 -0.2860  0.0000
  15. Be 2 (s)      0.0051 -0.0119  0.0211  0.0000  0.0000  0.2620 -0.0972  0.0000
  16. Be 2 (px)     0.0000  0.0000  0.0000  0.0195 -0.0041  0.0000  0.0000  0.8780
  17. Be 2 (py)     0.0000  0.0000  0.0000  0.0041  0.0195  0.0000  0.0000 -0.2436
  18. Be 2 (pz)     0.0103 -0.0018 -0.0062  0.0000  0.0000 -0.1119 -0.1300  0.0000
  19.  H 3 (s)     -0.0004  0.0001  0.1455  0.1872 -0.2078 -0.0394  0.0738 -0.0780
  20.  H 3 (s)      0.0061  0.0014  0.0450  0.1586 -0.1761 -0.0211  0.0832 -0.2007
  21.  H 4 (s)     -0.0004  0.0001  0.1455 -0.2735 -0.0582 -0.0394  0.0738  0.0642
  22.  H 4 (s)      0.0061  0.0014  0.0450 -0.2318 -0.0494 -0.0211  0.0832  0.1652
  23.  H 5 (s)     -0.0004  0.0001  0.1455  0.0863  0.2660 -0.0394  0.0738  0.0138
  24.  H 5 (s)      0.0061  0.0014  0.0450  0.0732  0.2254 -0.0211  0.0832  0.0355
  25.  H 6 (s)     -0.0004  0.0008  0.0042  0.0000  0.0000  0.2836  0.1446  0.0000
  26.  H 6 (s)      0.0058  0.0003 -0.0011  0.0000  0.0000  0.3082  0.1638  0.0000

           AO          9      10      11      12      13      14      15      16
      ------------ ------- ------- ------- ------- ------- ------- ------- -------
   1.  C 1 (s)      0.0000 -0.1347 -0.0824  0.0000  0.0000  0.0135  0.0000  0.0000
   2.  C 1 (s)      0.0000  0.0373 -0.0228  0.0000  0.0000  0.0604  0.0000  0.0000
   3.  C 1 (px)    -0.0099  0.0000  0.0000 -0.1293 -0.2542  0.0000 -0.0992 -0.0632
   4.  C 1 (py)    -0.0357  0.0000  0.0000 -0.2542  0.1293  0.0000  0.0632 -0.0992
   5.  C 1 (pz)     0.0000 -0.0576  0.2354  0.0000  0.0000  0.1372  0.0000  0.0000
   6.  C 1 (s)      0.0000  1.8196  1.6738  0.0000  0.0000 -0.6250  0.0000  0.0000
   7.  C 1 (px)    -0.0202  0.0000  0.0000 -0.6405 -1.2590  0.0000 -0.1481 -0.0943
   8.  C 1 (py)    -0.0727  0.0000  0.0000 -1.2590  0.6405  0.0000  0.0943 -0.1481
   9.  C 1 (pz)     0.0000 -0.1290  0.7287  0.0000  0.0000  1.0543  0.0000  0.0000
  10. Be 2 (s)      0.0000  0.1332 -0.1100  0.0000  0.0000 -0.0432  0.0000  0.0000
  11. Be 2 (s)      0.0000  0.1182 -0.0244  0.0000  0.0000  0.2075  0.0000  0.0000
  12. Be 2 (px)     0.0541  0.0000  0.0000 -0.0612 -0.1202  0.0000  1.1040  0.7031
  13. Be 2 (py)     0.1951  0.0000  0.0000 -0.1202  0.0612  0.0000 -0.7031  1.1040
  14. Be 2 (pz)     0.0000  0.0183 -0.0024  0.0000  0.0000 -0.5013  0.0000  0.0000
  15. Be 2 (s)      0.0000 -1.5218  1.4806  0.0000  0.0000 -0.0977  0.0000  0.0000
  16. Be 2 (px)     0.2436  0.0000  0.0000  0.1527  0.3002  0.0000 -0.8801 -0.5605
  17. Be 2 (py)     0.8780  0.0000  0.0000  0.3002 -0.1527  0.0000  0.5605 -0.8801
  18. Be 2 (pz)     0.0000 -0.1187 -0.7468  0.0000  0.0000  3.6870  0.0000  0.0000
  19.  H 3 (s)      0.0291  0.0005 -0.0107 -0.0087  0.0550  0.0145 -0.0326  0.0020
  20.  H 3 (s)      0.0749 -0.5610 -0.8609 -0.2726  1.7222 -0.8175  0.5037 -0.0305
  21.  H 4 (s)      0.0530  0.0005 -0.0107 -0.0433 -0.0351  0.0145  0.0180  0.0273
  22.  H 4 (s)      0.1364 -0.5610 -0.8609 -1.3552 -1.0972 -0.8175 -0.2783 -0.4209
  23.  H 5 (s)     -0.0821  0.0005 -0.0107  0.0520 -0.0200  0.0145  0.0146 -0.0292
  24.  H 5 (s)     -0.2112 -0.5610 -0.8609  1.6278 -0.6250 -0.8175 -0.2254  0.4515
  25.  H 6 (s)      0.0000  0.1002 -0.0944  0.0000  0.0000  0.1464  0.0000  0.0000
  26.  H 6 (s)      0.0000  0.7699 -1.3270  0.0000  0.0000  2.0873  0.0000  0.0000

           AO         17      18      19      20      21      22      23      24
      ------------ ------- ------- ------- ------- ------- ------- ------- -------
   1.  C 1 (s)      0.0464  0.0122  0.0000  0.0000 -0.0677  0.0000  0.0000  0.0638
   2.  C 1 (s)     -0.0589 -0.1913  0.0000  0.0000  0.2370  0.0000  0.0000 -1.0292
   3.  C 1 (px)     0.0000  0.0000  0.0716 -0.7048  0.0000  0.5573 -0.8016  0.0000
   4.  C 1 (py)     0.0000  0.0000 -0.7048 -0.0716  0.0000 -0.8016 -0.5573  0.0000
   5.  C 1 (pz)     0.1533 -0.3623  0.0000  0.0000 -0.8654  0.0000  0.0000 -0.6425
   6.  C 1 (s)     -0.6983  0.3345  0.0000  0.0000  0.1936  0.0000  0.0000  1.3762
   7.  C 1 (px)     0.0000  0.0000 -0.1630  1.6038  0.0000 -0.6289  0.9047  0.0000
   8.  C 1 (py)     0.0000  0.0000  1.6038  0.1630  0.0000  0.9047  0.6289  0.0000
   9.  C 1 (pz)     1.4541  0.8996  0.0000  0.0000  1.6544  0.0000  0.0000  1.0714
  10. Be 2 (s)     -0.0429  0.1236  0.0000  0.0000  0.0161  0.0000  0.0000 -0.0276
  11. Be 2 (s)     -0.3001  1.6700  0.0000  0.0000 -0.9030  0.0000  0.0000 -0.2519
  12. Be 2 (px)     0.0000  0.0000  0.0154 -0.1520  0.0000  0.0344 -0.0494  0.0000
  13. Be 2 (py)     0.0000  0.0000 -0.1520 -0.0154  0.0000 -0.0494 -0.0344  0.0000
  14. Be 2 (pz)     1.1613  0.3801  0.0000  0.0000 -0.1971  0.0000  0.0000  0.1058
  15. Be 2 (s)      0.4407 -1.0411  0.0000  0.0000  1.6332  0.0000  0.0000  0.6763
  16. Be 2 (px)     0.0000  0.0000  0.0333 -0.3280  0.0000 -0.0121  0.0174  0.0000
  17. Be 2 (py)     0.0000  0.0000 -0.3280 -0.0333  0.0000  0.0174  0.0121  0.0000
  18. Be 2 (pz)     1.9904 -0.4530  0.0000  0.0000  1.0430  0.0000  0.0000  0.7497
  19.  H 3 (s)     -0.1034 -0.1839  0.4597 -0.5148 -0.3158 -0.8185  0.2856  0.6055
  20.  H 3 (s)     -0.5010  0.0901  0.0759 -0.0850 -0.4958  1.3258 -0.4626 -0.9845
  21.  H 4 (s)     -0.1034 -0.1839  0.2160  0.6555 -0.3158  0.1619 -0.8517  0.6055
  22.  H 4 (s)     -0.5010  0.0901  0.0356  0.1082 -0.4958 -0.2623  1.3794 -0.9845
  23.  H 5 (s)     -0.1034 -0.1839 -0.6756 -0.1407 -0.3158  0.6566  0.5661  0.6055
  24.  H 5 (s)     -0.5010  0.0901 -0.1115 -0.0232 -0.4958 -1.0635 -0.9169 -0.9845
  25.  H 6 (s)     -0.1691  0.1636  0.0000  0.0000  0.2329  0.0000  0.0000  0.0851
  26.  H 6 (s)      2.2505 -0.4019  0.0000  0.0000  0.0184  0.0000  0.0000  0.2959

           AO         25      26
      ------------ ------- -------
   1.  C 1 (s)     -0.0174 -0.1470
   2.  C 1 (s)     -0.0902 -2.2427
   3.  C 1 (px)     0.0000  0.0000
   4.  C 1 (py)     0.0000  0.0000
   5.  C 1 (pz)    -0.2986  0.3338
   6.  C 1 (s)      0.1610  5.0323
   7.  C 1 (px)     0.0000  0.0000
   8.  C 1 (py)     0.0000  0.0000
   9.  C 1 (pz)     0.5723 -1.0056
  10. Be 2 (s)     -0.0283 -0.0430
  11. Be 2 (s)      0.2641 -0.3912
  12. Be 2 (px)     0.0000  0.0000
  13. Be 2 (py)     0.0000  0.0000
  14. Be 2 (pz)    -0.6085 -0.5662
  15. Be 2 (s)     -0.9275 -0.6940
  16. Be 2 (px)     0.0000  0.0000
  17. Be 2 (py)     0.0000  0.0000
  18. Be 2 (pz)     1.8650 -1.9481
  19.  H 3 (s)     -0.0390 -0.4687
  20.  H 3 (s)     -0.3680 -0.2474
  21.  H 4 (s)     -0.0390 -0.4687
  22.  H 4 (s)     -0.3680 -0.2474
  23.  H 5 (s)     -0.0390 -0.4687
  24.  H 5 (s)     -0.3680 -0.2474
  25.  H 6 (s)     -1.4079  0.0729
  26.  H 6 (s)      2.5830 -1.2845


 NOs in the AO basis:

           AO          1       2       3       4       5       6       7       8
      ------------ ------- ------- ------- ------- ------- ------- ------- -------
   1.  C 1 (s)      0.8337  0.4480 -0.3156 -0.0534  0.1536 -0.0679 -0.0037  0.0005
   2.  C 1 (s)      0.0358  0.0116 -0.0215  0.0133 -0.2974 -0.0650 -0.0160 -0.0479
   3.  C 1 (px)    -0.0050 -0.0088 -0.0812  0.0218 -0.0221  0.2082 -0.3254  0.0884
   4.  C 1 (py)    -0.0060  0.0322 -0.0767  0.0123 -0.0728  0.3088  0.2217  0.3781
   5.  C 1 (pz)     0.1589 -0.2231  0.0425  0.3310  0.0251  0.0138  0.0222  0.1747
   6.  C 1 (s)     -0.0528 -0.0256  0.0652 -0.0719 -0.4551 -0.0650 -0.0302  0.0578
   7.  C 1 (px)    -0.0033 -0.0057 -0.0526  0.0141 -0.0143  0.1350 -0.2111  0.1269
   8.  C 1 (py)    -0.0039  0.0209 -0.0498  0.0080 -0.0472  0.2003  0.1438 -0.0339
   9.  C 1 (pz)     0.1097 -0.1629 -0.0022  0.2819  0.0503  0.0040  0.0213 -0.2210
  10. Be 2 (s)     -0.1326  0.6587  0.4512  0.6075  0.0421  0.0627 -0.0503 -0.0383
  11. Be 2 (s)      0.0078  0.0390  0.0872 -0.0915 -0.0447  0.0202 -0.0131 -0.1519
  12. Be 2 (px)    -0.0004 -0.0007 -0.0065  0.0017 -0.0018  0.0167 -0.0262 -0.4261
  13. Be 2 (py)    -0.0005  0.0026 -0.0062  0.0010 -0.0059  0.0248  0.0178  0.5069
  14. Be 2 (pz)    -0.1656  0.1550 -0.1809 -0.0518 -0.0882 -0.0796 -0.0049 -0.0459
  15. Be 2 (s)      0.0174  0.0390  0.1208 -0.2400 -0.0539  0.0374 -0.0199  0.0642
  16. Be 2 (px)    -0.0003 -0.0004 -0.0041  0.0011 -0.0011  0.0105 -0.0164 -0.3155
  17. Be 2 (py)    -0.0003  0.0016 -0.0039  0.0006 -0.0037  0.0155  0.0111 -0.8687
  18. Be 2 (pz)    -0.0804  0.0790 -0.1217  0.0099 -0.0067 -0.0438  0.0025 -0.0039
  19.  H 3 (s)      0.0317 -0.0785 -0.0031  0.0908 -0.1087 -0.0311 -0.2796  0.2532
  20.  H 3 (s)      0.0422 -0.0638  0.0065  0.0701 -0.0144 -0.0080 -0.2335 -0.2543
  21.  H 4 (s)      0.0371 -0.0638  0.0858  0.0659 -0.0911 -0.2452  0.1443  0.0036
  22.  H 4 (s)      0.0467 -0.0513  0.0819  0.0490  0.0005 -0.1894  0.1258  0.0427
  23.  H 5 (s)      0.0275 -0.0382 -0.0484  0.0937 -0.1790  0.2100  0.1301 -0.2059
  24.  H 5 (s)      0.0386 -0.0296 -0.0319  0.0725 -0.0741  0.1963  0.1137  0.1985
  25.  H 6 (s)      0.1343 -0.0871  0.2301 -0.1256 -0.0017  0.0825 -0.0126 -0.1876
  26.  H 6 (s)      0.1543 -0.0952  0.2500 -0.1343  0.0045  0.0910 -0.0132  0.1449

           AO          9      10      11      12      13      14      15      16
      ------------ ------- ------- ------- ------- ------- ------- ------- -------
   1.  C 1 (s)     -0.0146 -0.0010 -0.0819  0.0054 -0.0145 -0.0233 -0.0460 -0.0205
   2.  C 1 (s)     -0.0553  0.1205  0.1825 -0.0386  0.3314  0.2118  0.3032  0.1896
   3.  C 1 (px)     0.2146 -0.2798 -0.2464 -0.6965 -0.0636 -0.3060  0.3381  0.0239
   4.  C 1 (py)     0.1136 -0.2562  0.1453 -0.0075 -0.1592  0.2423  0.0078 -0.1679
   5.  C 1 (pz)    -0.0857  0.0024  0.0719 -0.4961  0.5199 -0.4560  0.0427  0.1470
   6.  C 1 (s)      0.1859 -0.2175  0.6444 -0.0288 -0.3868 -0.1153  0.2193 -0.3847
   7.  C 1 (px)    -0.2692  0.0745  1.4645  0.3940 -0.1219 -0.0118 -1.3271 -0.5657
   8.  C 1 (py)     0.0613  0.6052 -0.9249  0.1157  0.4210  0.0244 -0.1488  0.1124
   9.  C 1 (pz)     0.1780  0.0222 -0.3325  0.5164 -0.0757  0.2683  0.2933 -0.8856
  10. Be 2 (s)      0.0247 -0.0131  0.0619  0.0716  0.0371  0.0538  0.0877 -0.0057
  11. Be 2 (s)      0.0932  0.0473  0.3129  0.1666 -0.2561 -0.2962  1.3562 -0.7171
  12. Be 2 (px)    -0.3900 -0.1892 -0.1466 -0.5988 -0.0157  0.8717  0.1758  0.0536
  13. Be 2 (py)     0.6012 -0.7473  0.0697  0.2130  0.0402  0.3071  0.0925  0.0464
  14. Be 2 (pz)    -0.0295  0.0071 -0.2861  0.1090  0.9462 -0.0316 -0.1012 -0.6853
  15. Be 2 (s)     -0.0659  0.0429 -0.8496 -0.2117 -0.5815 -0.0508 -1.3590  0.3625
  16. Be 2 (px)     1.0115  0.2500 -0.0724  0.2207  0.0975 -0.4469 -0.0164 -0.0123
  17. Be 2 (py)    -0.7383 -0.2774  0.0557  0.1403 -0.0892 -0.4861 -0.0726 -0.1558
  18. Be 2 (pz)     0.0927 -0.1410 -0.3523  0.0581  0.5078  0.0338  0.2039  0.1993
  19.  H 3 (s)     -0.3097  0.0140 -0.0387  0.1504  0.1547  0.3323  0.0010  0.1962
  20.  H 3 (s)      0.0492  0.1967 -1.8259  0.1702 -0.0311 -0.1156  0.5522  0.4176
  21.  H 4 (s)      0.1167  0.0427 -0.1036 -0.0236 -0.0091 -0.2658 -0.1904  0.0080
  22.  H 4 (s)     -0.0669 -0.0887  0.8154 -0.1394 -0.1646  0.0939 -1.1935 -0.4071
  23.  H 5 (s)     -0.1029 -0.3117 -0.5217 -0.2148 -0.1542 -0.1962 -0.3003 -0.2593
  24.  H 5 (s)     -0.0496  0.2821  1.1788  0.0561 -0.2342  0.1310  0.3839  0.7009
  25.  H 6 (s)      0.1770 -0.2775 -0.0176  0.0415  0.2767 -0.1758 -0.1492  0.7128
  26.  H 6 (s)     -0.1033  0.0951 -0.0622  0.1801  1.2400  0.4072  0.3417 -0.8165

           AO         17      18      19      20      21      22      23      24
      ------------ ------- ------- ------- ------- ------- ------- ------- -------
   1.  C 1 (s)      0.0508 -0.0989  0.0383 -0.0262 -0.0050 -0.0568  0.0718  0.0645
   2.  C 1 (s)     -0.5178 -0.9176 -0.5046  0.2359 -0.1700  0.4351 -0.1129  1.1856
   3.  C 1 (px)    -0.4472 -0.1382 -0.0597  0.2331  0.2027  0.0803  0.5283 -0.2366
   4.  C 1 (py)     0.2493 -0.3642 -0.0357 -0.2272  0.9069  0.1823 -0.2773 -0.1158
   5.  C 1 (pz)     0.5303 -0.1724 -0.2970  0.0099 -0.1066 -0.0234 -0.3471  0.2664
   6.  C 1 (s)      0.3194  2.8126  0.4378 -0.5028  0.2719  0.0343 -0.4313 -2.5037
   7.  C 1 (px)     0.4858  0.3967  0.5689  0.2093 -0.2997  0.0978 -0.3491  0.5730
   8.  C 1 (py)    -0.0401  1.2574  0.0698  1.1833 -0.4395 -0.0782  0.5466  0.9365
   9.  C 1 (pz)    -0.3429  0.7430  0.5869  0.4445  0.1178 -0.2114 -0.1985 -1.3688
  10. Be 2 (s)     -0.0962 -0.0321  0.0937 -0.0053  0.0271  0.0124  0.0369  0.0804
  11. Be 2 (s)      0.3704 -0.1443  0.6051 -0.0543 -0.0297 -0.2849  0.1358  0.8168
  12. Be 2 (px)     0.3573 -0.0715  0.2300  0.1370 -0.1566  0.1415 -0.0043 -0.0744
  13. Be 2 (py)     0.2341 -0.0881 -0.1024 -0.0173 -0.6136 -0.0297  0.0852 -0.0835
  14. Be 2 (pz)    -0.0056 -0.6445  0.4155  0.1123 -0.0176 -0.3760  0.1134 -0.0438
  15. Be 2 (s)      0.0919 -0.2003 -0.4347  0.5610 -0.1914 -0.3417 -0.4235 -1.0364
  16. Be 2 (px)    -0.2092  0.0584 -0.5520 -0.3008  0.3068 -0.3891  0.0545  0.0426
  17. Be 2 (py)    -0.1339 -0.1152 -0.2404 -0.0376  0.5878  0.0810 -0.1460 -0.0527
  18. Be 2 (pz)    -0.0682  1.3218  0.1271  0.0296  0.3101  0.4612 -0.3111 -1.0682
  19.  H 3 (s)      0.2774  0.2377 -0.2516 -0.5542  0.3328 -0.6710  0.5347  0.2490
  20.  H 3 (s)     -0.2291 -1.1333 -0.1000  0.7396 -0.1859  0.7333  0.0404  1.1779
  21.  H 4 (s)      0.4651 -0.1293  0.3207 -0.1707  0.1114  0.7913  0.8250  0.0026
  22.  H 4 (s)     -0.3074 -0.2802 -0.0924  0.7007 -0.0822 -1.0438 -0.1383  2.0669
  23.  H 5 (s)     -0.3534  0.0991  0.2514 -0.8289 -0.4057  0.0140 -0.1599  0.3620
  24.  H 5 (s)      0.3364 -2.3509 -0.3123 -0.4328 -0.0785 -0.2833  0.5225 -0.1348
  25.  H 6 (s)     -0.0448 -0.2247  0.7806  0.1183  0.1874 -0.3470 -0.2024  0.0976
  26.  H 6 (s)     -0.3583  0.9200 -0.3309 -0.3070  0.1892  0.7571  0.2335 -0.7041

           AO         25      26
      ------------ ------- -------
   1.  C 1 (s)     -0.0128  0.1432
   2.  C 1 (s)     -1.0454  1.3084
   3.  C 1 (px)     0.0094 -0.0361
   4.  C 1 (py)    -0.0519  0.0126
   5.  C 1 (pz)     0.3075 -0.3265
   6.  C 1 (s)      1.0850 -4.1664
   7.  C 1 (px)    -0.0574  0.2014
   8.  C 1 (py)    -0.0039 -0.1706
   9.  C 1 (pz)    -1.2612  1.9044
  10. Be 2 (s)      0.0273 -0.0273
  11. Be 2 (s)      0.2271  0.1598
  12. Be 2 (px)     0.0281 -0.0201
  13. Be 2 (py)    -0.0141  0.0177
  14. Be 2 (pz)    -0.4769  0.1679
  15. Be 2 (s)     -2.2411  0.4297
  16. Be 2 (px)    -0.0131  0.0024
  17. Be 2 (py)     0.0410 -0.0028
  18. Be 2 (pz)     0.2969  4.8328
  19.  H 3 (s)     -0.3616  0.2655
  20.  H 3 (s)      0.6522 -0.6910
  21.  H 4 (s)     -0.3272  0.2149
  22.  H 4 (s)      0.5186 -0.2586
  23.  H 5 (s)     -0.1129  0.2530
  24.  H 5 (s)      0.3628 -0.2482
  25.  H 6 (s)     -0.5411 -0.4323
  26.  H 6 (s)      1.5109  3.6279


 AO overlap matrix:

           AO          1       2       3       4       5       6       7       8
      ------------ ------- ------- ------- ------- ------- ------- ------- -------
   1.  C 1 (s)      1.0000  0.1903  0.0000  0.0000  0.0000  0.1846  0.0000  0.0000
   2.  C 1 (s)      0.1903  1.0000  0.0000  0.0000  0.0000  0.8114  0.0000  0.0000
   3.  C 1 (px)     0.0000  0.0000  1.0000  0.0000  0.0000  0.0000  0.5686  0.0000
   4.  C 1 (py)     0.0000  0.0000  0.0000  1.0000  0.0000  0.0000  0.0000  0.5686
   5.  C 1 (pz)     0.0000  0.0000  0.0000  0.0000  1.0000  0.0000  0.0000  0.0000
   6.  C 1 (s)      0.1846  0.8114  0.0000  0.0000  0.0000  1.0000  0.0000  0.0000
   7.  C 1 (px)     0.0000  0.0000  0.5686  0.0000  0.0000  0.0000  1.0000  0.0000
   8.  C 1 (py)     0.0000  0.0000  0.0000  0.5686  0.0000  0.0000  0.0000  1.0000
   9.  C 1 (pz)     0.0000  0.0000  0.0000  0.0000  0.5686  0.0000  0.0000  0.0000
  10. Be 2 (s)      0.0000  0.0067  0.0000  0.0000 -0.0162  0.0612  0.0000  0.0000
  11. Be 2 (s)      0.0175  0.1549  0.0000  0.0000 -0.1863  0.3260  0.0000  0.0000
  12. Be 2 (px)     0.0000  0.0000  0.0827  0.0000  0.0000  0.0000  0.2677  0.0000
  13. Be 2 (py)     0.0000  0.0000  0.0000  0.0827  0.0000  0.0000  0.0000  0.2677
  14. Be 2 (pz)     0.0413  0.2672  0.0000  0.0000 -0.2731  0.3665  0.0000  0.0000
  15. Be 2 (s)      0.0439  0.2599  0.0000  0.0000 -0.1446  0.4815  0.0000  0.0000
  16. Be 2 (px)     0.0000  0.0000  0.1425  0.0000  0.0000  0.0000  0.4608  0.0000
  17. Be 2 (py)     0.0000  0.0000  0.0000  0.1425  0.0000  0.0000  0.0000  0.4608
  18. Be 2 (pz)     0.0874  0.4464  0.0000  0.0000 -0.1118  0.6307  0.0000  0.0000
  19.  H 3 (s)      0.0309  0.2629  0.2640 -0.1915  0.1305  0.3784  0.3966 -0.2877
  20.  H 3 (s)      0.0873  0.4577  0.1853 -0.1344  0.0916  0.6950  0.4291 -0.3113
  21.  H 4 (s)      0.0309  0.2629 -0.2978 -0.1329  0.1305  0.3784 -0.4474 -0.1996
  22.  H 4 (s)      0.0873  0.4577 -0.2090 -0.0932  0.0916  0.6950 -0.4841 -0.2159
  23.  H 5 (s)      0.0309  0.2629  0.0339  0.3244  0.1305  0.3784  0.0509  0.4873
  24.  H 5 (s)      0.0873  0.4577  0.0238  0.2277  0.0916  0.6950  0.0550  0.5272
  25.  H 6 (s)      0.0000  0.0000  0.0000  0.0000 -0.0001  0.0070  0.0000  0.0000
  26.  H 6 (s)      0.0012  0.0145  0.0000  0.0000 -0.0193  0.0653  0.0000  0.0000

           AO          9      10      11      12      13      14      15      16
      ------------ ------- ------- ------- ------- ------- ------- ------- -------
   1.  C 1 (s)      0.0000  0.0000  0.0175  0.0000  0.0000  0.0413  0.0439  0.0000
   2.  C 1 (s)      0.0000  0.0067  0.1549  0.0000  0.0000  0.2672  0.2599  0.0000
   3.  C 1 (px)     0.0000  0.0000  0.0000  0.0827  0.0000  0.0000  0.0000  0.1425
   4.  C 1 (py)     0.0000  0.0000  0.0000  0.0000  0.0827  0.0000  0.0000  0.0000
   5.  C 1 (pz)     0.5686 -0.0162 -0.1863  0.0000  0.0000 -0.2731 -0.1446  0.0000
   6.  C 1 (s)      0.0000  0.0612  0.3260  0.0000  0.0000  0.3665  0.4815  0.0000
   7.  C 1 (px)     0.0000  0.0000  0.0000  0.2677  0.0000  0.0000  0.0000  0.4608
   8.  C 1 (py)     0.0000  0.0000  0.0000  0.0000  0.2677  0.0000  0.0000  0.0000
   9.  C 1 (pz)     1.0000 -0.1538 -0.5218  0.0000  0.0000 -0.3682 -0.4677  0.0000
  10. Be 2 (s)     -0.1538  1.0000  0.1553  0.0000  0.0000  0.0000  0.2311  0.0000
  11. Be 2 (s)     -0.5218  0.1553  1.0000  0.0000  0.0000  0.0000  0.8406  0.0000
  12. Be 2 (px)     0.0000  0.0000  0.0000  1.0000  0.0000  0.0000  0.0000  0.6532
  13. Be 2 (py)     0.0000  0.0000  0.0000  0.0000  1.0000  0.0000  0.0000  0.0000
  14. Be 2 (pz)    -0.3682  0.0000  0.0000  0.0000  0.0000  1.0000  0.0000  0.0000
  15. Be 2 (s)     -0.4677  0.2311  0.8406  0.0000  0.0000  0.0000  1.0000  0.0000
  16. Be 2 (px)     0.0000  0.0000  0.0000  0.6532  0.0000  0.0000  0.0000  1.0000
  17. Be 2 (py)     0.0000  0.0000  0.0000  0.0000  0.6532  0.0000  0.0000  0.0000
  18. Be 2 (pz)    -0.1519  0.0000  0.0000  0.0000  0.0000  0.6532  0.0000  0.0000
  19.  H 3 (s)      0.1960  0.0001  0.0182  0.0151 -0.0110  0.0389  0.0943  0.0806
  20.  H 3 (s)      0.2121  0.0177  0.1394  0.0661 -0.0479  0.1697  0.2901  0.1747
  21.  H 4 (s)      0.1960  0.0001  0.0182 -0.0171 -0.0076  0.0389  0.0943 -0.0909
  22.  H 4 (s)      0.2121  0.0177  0.1394 -0.0746 -0.0333  0.1697  0.2901 -0.1971
  23.  H 5 (s)      0.1960  0.0001  0.0182  0.0019  0.0186  0.0389  0.0943  0.0103
  24.  H 5 (s)      0.2121  0.0177  0.1394  0.0085  0.0812  0.1697  0.2901  0.0224
  25.  H 6 (s)     -0.0266  0.0295  0.2721  0.0000  0.0000 -0.4146  0.3052  0.0000
  26.  H 6 (s)     -0.1475  0.1293  0.5266  0.0000  0.0000 -0.4341  0.6634  0.0000

           AO         17      18      19      20      21      22      23      24
      ------------ ------- ------- ------- ------- ------- ------- ------- -------
   1.  C 1 (s)      0.0000  0.0874  0.0309  0.0873  0.0309  0.0873  0.0309  0.0873
   2.  C 1 (s)      0.0000  0.4464  0.2629  0.4577  0.2629  0.4577  0.2629  0.4577
   3.  C 1 (px)     0.0000  0.0000  0.2640  0.1853 -0.2978 -0.2090  0.0339  0.0238
   4.  C 1 (py)     0.1425  0.0000 -0.1915 -0.1344 -0.1329 -0.0932  0.3244  0.2277
   5.  C 1 (pz)     0.0000 -0.1118  0.1305  0.0916  0.1305  0.0916  0.1305  0.0916
   6.  C 1 (s)      0.0000  0.6307  0.3784  0.6950  0.3784  0.6950  0.3784  0.6950
   7.  C 1 (px)     0.0000  0.0000  0.3966  0.4291 -0.4474 -0.4841  0.0509  0.0550
   8.  C 1 (py)     0.4608  0.0000 -0.2877 -0.3113 -0.1996 -0.2159  0.4873  0.5272
   9.  C 1 (pz)     0.0000 -0.1519  0.1960  0.2121  0.1960  0.2121  0.1960  0.2121
  10. Be 2 (s)      0.0000  0.0000  0.0001  0.0177  0.0001  0.0177  0.0001  0.0177
  11. Be 2 (s)      0.0000  0.0000  0.0182  0.1394  0.0182  0.1394  0.0182  0.1394
  12. Be 2 (px)     0.0000  0.0000  0.0151  0.0661 -0.0171 -0.0746  0.0019  0.0085
  13. Be 2 (py)     0.6532  0.0000 -0.0110 -0.0479 -0.0076 -0.0333  0.0186  0.0812
  14. Be 2 (pz)     0.0000  0.6532  0.0389  0.1697  0.0389  0.1697  0.0389  0.1697
  15. Be 2 (s)      0.0000  0.0000  0.0943  0.2901  0.0943  0.2901  0.0943  0.2901
  16. Be 2 (px)     0.0000  0.0000  0.0806  0.1747 -0.0909 -0.1971  0.0103  0.0224
  17. Be 2 (py)     1.0000  0.0000 -0.0584 -0.1267 -0.0405 -0.0879  0.0990  0.2146
  18. Be 2 (pz)     0.0000  1.0000  0.2069  0.4486  0.2069  0.4486  0.2069  0.4486
  19.  H 3 (s)     -0.0584  0.2069  1.0000  0.6583  0.0214  0.1582  0.0214  0.1582
  20.  H 3 (s)     -0.1267  0.4486  0.6583  1.0000  0.1582  0.4164  0.1582  0.4164
  21.  H 4 (s)     -0.0405  0.2069  0.0214  0.1582  1.0000  0.6583  0.0214  0.1582
  22.  H 4 (s)     -0.0879  0.4486  0.1582  0.4164  0.6583  1.0000  0.1582  0.4164
  23.  H 5 (s)      0.0990  0.2069  0.0214  0.1582  0.0214  0.1582  1.0000  0.6583
  24.  H 5 (s)      0.2146  0.4486  0.1582  0.4164  0.1582  0.4164  0.6583  1.0000
  25.  H 6 (s)      0.0000 -0.4135  0.0000  0.0020  0.0000  0.0020  0.0000  0.0020
  26.  H 6 (s)      0.0000 -0.6326  0.0020  0.0276  0.0020  0.0276  0.0020  0.0276

           AO         25      26
      ------------ ------- -------
   1.  C 1 (s)      0.0000  0.0012
   2.  C 1 (s)      0.0000  0.0145
   3.  C 1 (px)     0.0000  0.0000
   4.  C 1 (py)     0.0000  0.0000
   5.  C 1 (pz)    -0.0001 -0.0193
   6.  C 1 (s)      0.0070  0.0653
   7.  C 1 (px)     0.0000  0.0000
   8.  C 1 (py)     0.0000  0.0000
   9.  C 1 (pz)    -0.0266 -0.1475
  10. Be 2 (s)      0.0295  0.1293
  11. Be 2 (s)      0.2721  0.5266
  12. Be 2 (px)     0.0000  0.0000
  13. Be 2 (py)     0.0000  0.0000
  14. Be 2 (pz)    -0.4146 -0.4341
  15. Be 2 (s)      0.3052  0.6634
  16. Be 2 (px)     0.0000  0.0000
  17. Be 2 (py)     0.0000  0.0000
  18. Be 2 (pz)    -0.4135 -0.6326
  19.  H 3 (s)      0.0000  0.0020
  20.  H 3 (s)      0.0020  0.0276
  21.  H 4 (s)      0.0000  0.0020
  22.  H 4 (s)      0.0020  0.0276
  23.  H 5 (s)      0.0000  0.0020
  24.  H 5 (s)      0.0020  0.0276
  25.  H 6 (s)      1.0000  0.6583
  26.  H 6 (s)      0.6583  1.0000


 AO bond-order matrix:

           AO          1       2       3       4       5       6       7       8
      ------------ ------- ------- ------- ------- ------- ------- ------- -------
   1.  C 1 (s)      2.0527 -0.0002  0.0000  0.0000  0.0086 -0.2752  0.0000  0.0000
   2.  C 1 (s)     -0.0002  0.1900  0.0000  0.0000 -0.0043  0.2710  0.0000  0.0000
   3.  C 1 (px)     0.0000  0.0000  0.3138  0.0000  0.0000  0.0000  0.2035  0.0000
   4.  C 1 (py)     0.0000  0.0000  0.0000  0.3138  0.0000  0.0000  0.0000  0.2035
   5.  C 1 (pz)     0.0086 -0.0043  0.0000  0.0000  0.3754 -0.0734  0.0000  0.0000
   6.  C 1 (s)     -0.2752  0.2710  0.0000  0.0000 -0.0734  0.4503  0.0000  0.0000
   7.  C 1 (px)     0.0000  0.0000  0.2035  0.0000  0.0000  0.0000  0.1320  0.0000
   8.  C 1 (py)     0.0000  0.0000  0.0000  0.2035  0.0000  0.0000  0.0000  0.1320
   9.  C 1 (pz)     0.0230 -0.0195  0.0000  0.0000  0.2976 -0.0917  0.0000  0.0000
  10. Be 2 (s)      0.0242 -0.0290  0.0000  0.0000  0.1061 -0.0916  0.0000  0.0000
  11. Be 2 (s)     -0.0136  0.0197  0.0000  0.0000 -0.0704  0.0606  0.0000  0.0000
  12. Be 2 (px)     0.0000  0.0000  0.0252  0.0000  0.0000  0.0000  0.0164  0.0000
  13. Be 2 (py)     0.0000  0.0000  0.0000  0.0252  0.0000  0.0000  0.0000  0.0164
  14. Be 2 (pz)    -0.0337  0.0611  0.0000  0.0000 -0.1783  0.0843  0.0000  0.0000
  15. Be 2 (s)     -0.0082  0.0184  0.0000  0.0000 -0.1630  0.0919  0.0000  0.0000
  16. Be 2 (px)     0.0000  0.0000  0.0158  0.0000  0.0000  0.0000  0.0102  0.0000
  17. Be 2 (py)     0.0000  0.0000  0.0000  0.0158  0.0000  0.0000  0.0000  0.0102
  18. Be 2 (pz)     0.0163  0.0112  0.0000  0.0000 -0.0660 -0.0012  0.0000  0.0000
  19.  H 3 (s)     -0.0522  0.0807  0.1793 -0.1301  0.0863  0.1071  0.1163 -0.0844
  20.  H 3 (s)      0.0000  0.0202  0.1520 -0.1102  0.0775  0.0179  0.0986 -0.0715
  21.  H 4 (s)     -0.0522  0.0807 -0.2023 -0.0903  0.0863  0.1071 -0.1312 -0.0585
  22.  H 4 (s)      0.0000  0.0202 -0.1715 -0.0765  0.0775  0.0179 -0.1112 -0.0496
  23.  H 5 (s)     -0.0522  0.0807  0.0230  0.2204  0.0863  0.1071  0.0149  0.1429
  24.  H 5 (s)      0.0000  0.0202  0.0195  0.1867  0.0775  0.0179  0.0126  0.1211
  25.  H 6 (s)      0.0024 -0.0150  0.0000  0.0000  0.0195  0.0299  0.0000  0.0000
  26.  H 6 (s)      0.0176 -0.0196  0.0000  0.0000  0.0260  0.0254  0.0000  0.0000

           AO          9      10      11      12      13      14      15      16
      ------------ ------- ------- ------- ------- ------- ------- ------- -------
   1.  C 1 (s)      0.0230  0.0242 -0.0136  0.0000  0.0000 -0.0337 -0.0082  0.0000
   2.  C 1 (s)     -0.0195 -0.0290  0.0197  0.0000  0.0000  0.0611  0.0184  0.0000
   3.  C 1 (px)     0.0000  0.0000  0.0000  0.0252  0.0000  0.0000  0.0000  0.0158
   4.  C 1 (py)     0.0000  0.0000  0.0000  0.0000  0.0252  0.0000  0.0000  0.0000
   5.  C 1 (pz)     0.2976  0.1061 -0.0704  0.0000  0.0000 -0.1783 -0.1630  0.0000
   6.  C 1 (s)     -0.0917 -0.0916  0.0606  0.0000  0.0000  0.0843  0.0919  0.0000
   7.  C 1 (px)     0.0000  0.0000  0.0000  0.0164  0.0000  0.0000  0.0000  0.0102
   8.  C 1 (py)     0.0000  0.0000  0.0000  0.0000  0.0164  0.0000  0.0000  0.0000
   9.  C 1 (pz)     0.2421  0.0994 -0.0679  0.0000  0.0000 -0.1250 -0.1507  0.0000
  10. Be 2 (s)      0.0994  2.0647  0.0169  0.0000  0.0000  0.0050 -0.1336  0.0000
  11. Be 2 (s)     -0.0679  0.0169  0.0403  0.0000  0.0000 -0.0078  0.0752  0.0000
  12. Be 2 (px)     0.0000  0.0000  0.0000  0.0020  0.0000  0.0000  0.0000  0.0013
  13. Be 2 (py)     0.0000  0.0000  0.0000  0.0000  0.0020  0.0000  0.0000  0.0000
  14. Be 2 (pz)    -0.1250  0.0050 -0.0078  0.0000  0.0000  0.2020 -0.0088  0.0000
  15. Be 2 (s)     -0.1507 -0.1336  0.0752  0.0000  0.0000 -0.0088  0.1574  0.0000
  16. Be 2 (px)     0.0000  0.0000  0.0000  0.0013  0.0000  0.0000  0.0000  0.0008
  17. Be 2 (py)     0.0000  0.0000  0.0000  0.0000  0.0013  0.0000  0.0000  0.0000
  18. Be 2 (pz)    -0.0382  0.0213 -0.0194  0.0000  0.0000  0.1022 -0.0335  0.0000
  19.  H 3 (s)      0.0607  0.0107 -0.0070  0.0144 -0.0105 -0.0163 -0.0288  0.0090
  20.  H 3 (s)      0.0581  0.0171 -0.0089  0.0122 -0.0089 -0.0372 -0.0253  0.0076
  21.  H 4 (s)      0.0607  0.0107 -0.0070 -0.0163 -0.0073 -0.0163 -0.0288 -0.0102
  22.  H 4 (s)      0.0581  0.0171 -0.0089 -0.0138 -0.0061 -0.0372 -0.0253 -0.0086
  23.  H 5 (s)      0.0607  0.0107 -0.0070  0.0018  0.0177 -0.0163 -0.0288  0.0012
  24.  H 5 (s)      0.0581  0.0171 -0.0089  0.0016  0.0150 -0.0372 -0.0253  0.0010
  25.  H 6 (s)     -0.0140 -0.0838  0.0623  0.0000  0.0000 -0.1544  0.1206  0.0000
  26.  H 6 (s)     -0.0113 -0.0908  0.0668  0.0000  0.0000 -0.1723  0.1297  0.0000

           AO         17      18      19      20      21      22      23      24
      ------------ ------- ------- ------- ------- ------- ------- ------- -------
   1.  C 1 (s)      0.0000  0.0163 -0.0522  0.0000 -0.0522  0.0000 -0.0522  0.0000
   2.  C 1 (s)      0.0000  0.0112  0.0807  0.0202  0.0807  0.0202  0.0807  0.0202
   3.  C 1 (px)     0.0000  0.0000  0.1793  0.1520 -0.2023 -0.1715  0.0230  0.0195
   4.  C 1 (py)     0.0158  0.0000 -0.1301 -0.1102 -0.0903 -0.0765  0.2204  0.1867
   5.  C 1 (pz)     0.0000 -0.0660  0.0863  0.0775  0.0863  0.0775  0.0863  0.0775
   6.  C 1 (s)      0.0000 -0.0012  0.1071  0.0179  0.1071  0.0179  0.1071  0.0179
   7.  C 1 (px)     0.0000  0.0000  0.1163  0.0986 -0.1312 -0.1112  0.0149  0.0126
   8.  C 1 (py)     0.0102  0.0000 -0.0844 -0.0715 -0.0585 -0.0496  0.1429  0.1211
   9.  C 1 (pz)     0.0000 -0.0382  0.0607  0.0581  0.0607  0.0581  0.0607  0.0581
  10. Be 2 (s)      0.0000  0.0213  0.0107  0.0171  0.0107  0.0171  0.0107  0.0171
  11. Be 2 (s)      0.0000 -0.0194 -0.0070 -0.0089 -0.0070 -0.0089 -0.0070 -0.0089
  12. Be 2 (px)     0.0000  0.0000  0.0144  0.0122 -0.0163 -0.0138  0.0018  0.0016
  13. Be 2 (py)     0.0013  0.0000 -0.0105 -0.0089 -0.0073 -0.0061  0.0177  0.0150
  14. Be 2 (pz)     0.0000  0.1022 -0.0163 -0.0372 -0.0163 -0.0372 -0.0163 -0.0372
  15. Be 2 (s)      0.0000 -0.0335 -0.0288 -0.0253 -0.0288 -0.0253 -0.0288 -0.0253
  16. Be 2 (px)     0.0000  0.0000  0.0090  0.0076 -0.0102 -0.0086  0.0012  0.0010
  17. Be 2 (py)     0.0008  0.0000 -0.0065 -0.0055 -0.0045 -0.0038  0.0111  0.0094
  18. Be 2 (pz)     0.0000  0.0591 -0.0122 -0.0173 -0.0122 -0.0173 -0.0122 -0.0173
  19.  H 3 (s)     -0.0065 -0.0122  0.2128  0.1596 -0.0219 -0.0392 -0.0219 -0.0392
  20.  H 3 (s)     -0.0055 -0.0173  0.1596  0.1312 -0.0392 -0.0373 -0.0392 -0.0373
  21.  H 4 (s)     -0.0045 -0.0122 -0.0219 -0.0392  0.2128  0.1596 -0.0219 -0.0392
  22.  H 4 (s)     -0.0038 -0.0173 -0.0392 -0.0373  0.1596  0.1312 -0.0392 -0.0373
  23.  H 5 (s)      0.0111 -0.0122 -0.0219 -0.0392 -0.0219 -0.0392  0.2128  0.1596
  24.  H 5 (s)      0.0094 -0.0173 -0.0392 -0.0373 -0.0392 -0.0373  0.1596  0.1312
  25.  H 6 (s)      0.0000 -0.1011  0.0002  0.0124  0.0002  0.0124  0.0002  0.0124
  26.  H 6 (s)      0.0000 -0.1114 -0.0004  0.0142 -0.0004  0.0142 -0.0004  0.0142

           AO         25      26
      ------------ ------- -------
   1.  C 1 (s)      0.0024  0.0176
   2.  C 1 (s)     -0.0150 -0.0196
   3.  C 1 (px)     0.0000  0.0000
   4.  C 1 (py)     0.0000  0.0000
   5.  C 1 (pz)     0.0195  0.0260
   6.  C 1 (s)      0.0299  0.0254
   7.  C 1 (px)     0.0000  0.0000
   8.  C 1 (py)     0.0000  0.0000
   9.  C 1 (pz)    -0.0140 -0.0113
  10. Be 2 (s)     -0.0838 -0.0908
  11. Be 2 (s)      0.0623  0.0668
  12. Be 2 (px)     0.0000  0.0000
  13. Be 2 (py)     0.0000  0.0000
  14. Be 2 (pz)    -0.1544 -0.1723
  15. Be 2 (s)      0.1206  0.1297
  16. Be 2 (px)     0.0000  0.0000
  17. Be 2 (py)     0.0000  0.0000
  18. Be 2 (pz)    -0.1011 -0.1114
  19.  H 3 (s)      0.0002 -0.0004
  20.  H 3 (s)      0.0124  0.0142
  21.  H 4 (s)      0.0002 -0.0004
  22.  H 4 (s)      0.0124  0.0142
  23.  H 5 (s)      0.0002 -0.0004
  24.  H 5 (s)      0.0124  0.0142
  25.  H 6 (s)      0.2026  0.2221
  26.  H 6 (s)      0.2221  0.2437


 AO density matrix:

           AO          1       2       3       4       5       6       7       8
      ------------ ------- ------- ------- ------- ------- ------- ------- -------
   1.  C 1 (s)      1.9985  0.4069  0.0000  0.0000  0.0012  0.3648  0.0000  0.0000
   2.  C 1 (s)      0.4069  1.4892  0.0000  0.0000 -0.0145  1.6864  0.0000  0.0000
   3.  C 1 (px)     0.0000  0.0000  1.1730  0.0000  0.0000  0.0000  1.3689  0.0000
   4.  C 1 (py)     0.0000  0.0000  0.0000  1.1730  0.0000  0.0000  0.0000  1.3689
   5.  C 1 (pz)     0.0012 -0.0145  0.0000  0.0000  1.2701 -0.0120  0.0000  0.0000
   6.  C 1 (s)      0.3648  1.6864  0.0000  0.0000 -0.0120  1.9260  0.0000  0.0000
   7.  C 1 (px)     0.0000  0.0000  1.3689  0.0000  0.0000  0.0000  1.5976  0.0000
   8.  C 1 (py)     0.0000  0.0000  0.0000  1.3689  0.0000  0.0000  0.0000  1.5976
   9.  C 1 (pz)     0.0004 -0.0153  0.0000  0.0000  1.4391 -0.0405  0.0000  0.0000
  10. Be 2 (s)      0.0002  0.0091  0.0000  0.0000 -0.0246  0.1226  0.0000  0.0000
  11. Be 2 (s)      0.0272  0.4933  0.0000  0.0000 -0.7072  0.6365  0.0000  0.0000
  12. Be 2 (px)     0.0000  0.0000  0.2807  0.0000  0.0000  0.0000  0.3275  0.0000
  13. Be 2 (py)     0.0000  0.0000  0.0000  0.2807  0.0000  0.0000  0.0000  0.3275
  14. Be 2 (pz)     0.0751  0.6862  0.0000  0.0000 -0.7858  0.7229  0.0000  0.0000
  15. Be 2 (s)      0.0788  0.7316  0.0000  0.0000 -0.5740  0.9227  0.0000  0.0000
  16. Be 2 (px)     0.0000  0.0000  0.5115  0.0000  0.0000  0.0000  0.5970  0.0000
  17. Be 2 (py)     0.0000  0.0000  0.0000  0.5115  0.0000  0.0000  0.0000  0.5970
  18. Be 2 (pz)     0.1657  1.0862  0.0000  0.0000 -0.3265  1.1763  0.0000  0.0000
  19.  H 3 (s)      0.0525  0.7153  0.8056 -0.5845  0.3894  0.8192  0.9402 -0.6821
  20.  H 3 (s)      0.1643  1.1399  0.6346 -0.4604  0.3017  1.3040  0.7407 -0.5373
  21.  H 4 (s)      0.0525  0.7153 -0.9090 -0.4055  0.3894  0.8192 -1.0608 -0.4732
  22.  H 4 (s)      0.1643  1.1399 -0.7160 -0.3194  0.3017  1.3040 -0.8357 -0.3728
  23.  H 5 (s)      0.0525  0.7153  0.1033  0.9899  0.3894  0.8192  0.1206  1.1553
  24.  H 5 (s)      0.1643  1.1399  0.0814  0.7798  0.3017  1.3040  0.0950  0.9101
  25.  H 6 (s)      0.0021 -0.0601  0.0000  0.0000  0.1176  0.0131  0.0000  0.0000
  26.  H 6 (s)      0.0023  0.0280  0.0000  0.0000 -0.0447  0.1392  0.0000  0.0000

           AO          9      10      11      12      13      14      15      16
      ------------ ------- ------- ------- ------- ------- ------- ------- -------
   1.  C 1 (s)      0.0004  0.0002  0.0272  0.0000  0.0000  0.0751  0.0788  0.0000
   2.  C 1 (s)     -0.0153  0.0091  0.4933  0.0000  0.0000  0.6862  0.7316  0.0000
   3.  C 1 (px)     0.0000  0.0000  0.0000  0.2807  0.0000  0.0000  0.0000  0.5115
   4.  C 1 (py)     0.0000  0.0000  0.0000  0.0000  0.2807  0.0000  0.0000  0.0000
   5.  C 1 (pz)     1.4391 -0.0246 -0.7072  0.0000  0.0000 -0.7858 -0.5740  0.0000
   6.  C 1 (s)     -0.0405  0.1226  0.6365  0.0000  0.0000  0.7229  0.9227  0.0000
   7.  C 1 (px)     0.0000  0.0000  0.0000  0.3275  0.0000  0.0000  0.0000  0.5970
   8.  C 1 (py)     0.0000  0.0000  0.0000  0.0000  0.3275  0.0000  0.0000  0.0000
   9.  C 1 (pz)     1.7012 -0.3084 -0.9889  0.0000  0.0000 -0.7465 -0.8758  0.0000
  10. Be 2 (s)     -0.3084  1.9993  0.3326  0.0000  0.0000 -0.0008  0.4675  0.0000
  11. Be 2 (s)     -0.9889  0.3326  1.2717  0.0000  0.0000  0.0112  1.3852  0.0000
  12. Be 2 (px)     0.0000  0.0000  0.0000  0.0672  0.0000  0.0000  0.0000  0.1224
  13. Be 2 (py)     0.0000  0.0000  0.0000  0.0000  0.0672  0.0000  0.0000  0.0000
  14. Be 2 (pz)    -0.7465 -0.0008  0.0112  0.0000  0.0000  1.4370 -0.0480  0.0000
  15. Be 2 (s)     -0.8758  0.4675  1.3852  0.0000  0.0000 -0.0480  1.5721  0.0000
  16. Be 2 (px)     0.0000  0.0000  0.0000  0.1224  0.0000  0.0000  0.0000  0.2231
  17. Be 2 (py)     0.0000  0.0000  0.0000  0.0000  0.1224  0.0000  0.0000  0.0000
  18. Be 2 (pz)    -0.2200  0.0040 -0.1429  0.0000  0.0000  1.3707 -0.0922  0.0000
  19.  H 3 (s)      0.4404  0.0004  0.0302  0.1928 -0.1398  0.0909  0.1888  0.3513
  20.  H 3 (s)      0.3313  0.0357  0.2486  0.1518 -0.1102  0.3120  0.4718  0.2768
  21.  H 4 (s)      0.4404  0.0004  0.0302 -0.2175 -0.0970  0.0909  0.1888 -0.3964
  22.  H 4 (s)      0.3313  0.0357  0.2486 -0.1713 -0.0764  0.3120  0.4718 -0.3123
  23.  H 5 (s)      0.4404  0.0004  0.0302  0.0247  0.2369  0.0909  0.1888  0.0451
  24.  H 5 (s)      0.3313  0.0357  0.2486  0.0195  0.1866  0.3120  0.4718  0.0355
  25.  H 6 (s)     -0.0721  0.0530  0.8361  0.0000  0.0000 -0.9947  0.9625  0.0000
  26.  H 6 (s)     -0.3201  0.2550  1.1553  0.0000  0.0000 -1.0202  1.3144  0.0000

           AO         17      18      19      20      21      22      23      24
      ------------ ------- ------- ------- ------- ------- ------- ------- -------
   1.  C 1 (s)      0.0000  0.1657  0.0525  0.1643  0.0525  0.1643  0.0525  0.1643
   2.  C 1 (s)      0.0000  1.0862  0.7153  1.1399  0.7153  1.1399  0.7153  1.1399
   3.  C 1 (px)     0.0000  0.0000  0.8056  0.6346 -0.9090 -0.7160  0.1033  0.0814
   4.  C 1 (py)     0.5115  0.0000 -0.5845 -0.4604 -0.4055 -0.3194  0.9899  0.7798
   5.  C 1 (pz)     0.0000 -0.3265  0.3894  0.3017  0.3894  0.3017  0.3894  0.3017
   6.  C 1 (s)      0.0000  1.1763  0.8192  1.3040  0.8192  1.3040  0.8192  1.3040
   7.  C 1 (px)     0.0000  0.0000  0.9402  0.7407 -1.0608 -0.8357  0.1206  0.0950
   8.  C 1 (py)     0.5970  0.0000 -0.6821 -0.5373 -0.4732 -0.3728  1.1553  0.9101
   9.  C 1 (pz)     0.0000 -0.2200  0.4404  0.3313  0.4404  0.3313  0.4404  0.3313
  10. Be 2 (s)      0.0000  0.0040  0.0004  0.0357  0.0004  0.0357  0.0004  0.0357
  11. Be 2 (s)      0.0000 -0.1429  0.0302  0.2486  0.0302  0.2486  0.0302  0.2486
  12. Be 2 (px)     0.0000  0.0000  0.1928  0.1518 -0.2175 -0.1713  0.0247  0.0195
  13. Be 2 (py)     0.1224  0.0000 -0.1398 -0.1102 -0.0970 -0.0764  0.2369  0.1866
  14. Be 2 (pz)     0.0000  1.3707  0.0909  0.3120  0.0909  0.3120  0.0909  0.3120
  15. Be 2 (s)      0.0000 -0.0922  0.1888  0.4718  0.1888  0.4718  0.1888  0.4718
  16. Be 2 (px)     0.0000  0.0000  0.3513  0.2768 -0.3964 -0.3123  0.0451  0.0355
  17. Be 2 (py)     0.2231  0.0000 -0.2549 -0.2008 -0.1768 -0.1393  0.4317  0.3401
  18. Be 2 (pz)     0.0000  1.5828  0.4290  0.7325  0.4290  0.7325  0.4290  0.7325
  19.  H 3 (s)     -0.2549  0.4290  1.3229  1.3220  0.0560  0.3240  0.0560  0.3240
  20.  H 3 (s)     -0.2008  0.7325  1.3220  1.4872  0.3240  0.7011  0.3240  0.7011
  21.  H 4 (s)     -0.1768  0.4290  0.0560  0.3240  1.3229  1.3220  0.0560  0.3240
  22.  H 4 (s)     -0.1393  0.7325  0.3240  0.7011  1.3220  1.4872  0.3240  0.7011
  23.  H 5 (s)      0.4317  0.4290  0.0560  0.3240  0.0560  0.3240  1.3229  1.3220
  24.  H 5 (s)      0.3401  0.7325  0.3240  0.7011  0.3240  0.7011  1.3220  1.4872
  25.  H 6 (s)      0.0000 -1.0139  0.0117  0.0239  0.0117  0.0239  0.0117  0.0239
  26.  H 6 (s)      0.0000 -1.0817  0.0068  0.0645  0.0068  0.0645  0.0068  0.0645

           AO         25      26
      ------------ ------- -------
   1.  C 1 (s)      0.0021  0.0023
   2.  C 1 (s)     -0.0601  0.0280
   3.  C 1 (px)     0.0000  0.0000
   4.  C 1 (py)     0.0000  0.0000
   5.  C 1 (pz)     0.1176 -0.0447
   6.  C 1 (s)      0.0131  0.1392
   7.  C 1 (px)     0.0000  0.0000
   8.  C 1 (py)     0.0000  0.0000
   9.  C 1 (pz)    -0.0721 -0.3201
  10. Be 2 (s)      0.0530  0.2550
  11. Be 2 (s)      0.8361  1.1553
  12. Be 2 (px)     0.0000  0.0000
  13. Be 2 (py)     0.0000  0.0000
  14. Be 2 (pz)    -0.9947 -1.0202
  15. Be 2 (s)      0.9625  1.3144
  16. Be 2 (px)     0.0000  0.0000
  17. Be 2 (py)     0.0000  0.0000
  18. Be 2 (pz)    -1.0139 -1.0817
  19.  H 3 (s)      0.0117  0.0068
  20.  H 3 (s)      0.0239  0.0645
  21.  H 4 (s)      0.0117  0.0068
  22.  H 4 (s)      0.0239  0.0645
  23.  H 5 (s)      0.0117  0.0068
  24.  H 5 (s)      0.0239  0.0645
  25.  H 6 (s)      1.2701  1.4881
  26.  H 6 (s)      1.4881  1.7943


 MO density matrix:

      MO     1       2       3       4       5       6       7       8       9
     ---- ------  ------  ------  ------  ------  ------  ------  ------  ------
   1.     2.0000  0.0000  0.0000  0.0000  0.0000  0.0000  0.0000  0.0000  0.0000
   2.     0.0000  2.0000  0.0000  0.0000  0.0000  0.0000  0.0000  0.0000  0.0000
   3.     0.0000  0.0000  2.0000  0.0000  0.0000  0.0000  0.0000  0.0000  0.0000
   4.     0.0000  0.0000  0.0000  2.0000  0.0000  0.0000  0.0000  0.0000  0.0000
   5.     0.0000  0.0000  0.0000  0.0000  2.0000  0.0000  0.0000  0.0000  0.0000
   6.     0.0000  0.0000  0.0000  0.0000  0.0000  2.0000  0.0000  0.0000  0.0000
   7.     0.0000  0.0000  0.0000  0.0000  0.0000  0.0000  2.0000  0.0000  0.0000
   8.     0.0000  0.0000  0.0000  0.0000  0.0000  0.0000  0.0000  0.0000  0.0000
   9.     0.0000  0.0000  0.0000  0.0000  0.0000  0.0000  0.0000  0.0000  0.0000
  10.     0.0000  0.0000  0.0000  0.0000  0.0000  0.0000  0.0000  0.0000  0.0000
  11.     0.0000  0.0000  0.0000  0.0000  0.0000  0.0000  0.0000  0.0000  0.0000
  12.     0.0000  0.0000  0.0000  0.0000  0.0000  0.0000  0.0000  0.0000  0.0000
  13.     0.0000  0.0000  0.0000  0.0000  0.0000  0.0000  0.0000  0.0000  0.0000
  14.     0.0000  0.0000  0.0000  0.0000  0.0000  0.0000  0.0000  0.0000  0.0000
  15.     0.0000  0.0000  0.0000  0.0000  0.0000  0.0000  0.0000  0.0000  0.0000
  16.     0.0000  0.0000  0.0000  0.0000  0.0000  0.0000  0.0000  0.0000  0.0000
  17.     0.0000  0.0000  0.0000  0.0000  0.0000  0.0000  0.0000  0.0000  0.0000
  18.     0.0000  0.0000  0.0000  0.0000  0.0000  0.0000  0.0000  0.0000  0.0000
  19.     0.0000  0.0000  0.0000  0.0000  0.0000  0.0000  0.0000  0.0000  0.0000
  20.     0.0000  0.0000  0.0000  0.0000  0.0000  0.0000  0.0000  0.0000  0.0000
  21.     0.0000  0.0000  0.0000  0.0000  0.0000  0.0000  0.0000  0.0000  0.0000
  22.     0.0000  0.0000  0.0000  0.0000  0.0000  0.0000  0.0000  0.0000  0.0000
  23.     0.0000  0.0000  0.0000  0.0000  0.0000  0.0000  0.0000  0.0000  0.0000
  24.     0.0000  0.0000  0.0000  0.0000  0.0000  0.0000  0.0000  0.0000  0.0000
  25.     0.0000  0.0000  0.0000  0.0000  0.0000  0.0000  0.0000  0.0000  0.0000
  26.     0.0000  0.0000  0.0000  0.0000  0.0000  0.0000  0.0000  0.0000  0.0000

      MO    10      11      12      13      14      15      16      17      18
     ---- ------  ------  ------  ------  ------  ------  ------  ------  ------
   1.     0.0000  0.0000  0.0000  0.0000  0.0000  0.0000  0.0000  0.0000  0.0000
   2.     0.0000  0.0000  0.0000  0.0000  0.0000  0.0000  0.0000  0.0000  0.0000
   3.     0.0000  0.0000  0.0000  0.0000  0.0000  0.0000  0.0000  0.0000  0.0000
   4.     0.0000  0.0000  0.0000  0.0000  0.0000  0.0000  0.0000  0.0000  0.0000
   5.     0.0000  0.0000  0.0000  0.0000  0.0000  0.0000  0.0000  0.0000  0.0000
   6.     0.0000  0.0000  0.0000  0.0000  0.0000  0.0000  0.0000  0.0000  0.0000
   7.     0.0000  0.0000  0.0000  0.0000  0.0000  0.0000  0.0000  0.0000  0.0000
   8.     0.0000  0.0000  0.0000  0.0000  0.0000  0.0000  0.0000  0.0000  0.0000
   9.     0.0000  0.0000  0.0000  0.0000  0.0000  0.0000  0.0000  0.0000  0.0000
  10.     0.0000  0.0000  0.0000  0.0000  0.0000  0.0000  0.0000  0.0000  0.0000
  11.     0.0000  0.0000  0.0000  0.0000  0.0000  0.0000  0.0000  0.0000  0.0000
  12.     0.0000  0.0000  0.0000  0.0000  0.0000  0.0000  0.0000  0.0000  0.0000
  13.     0.0000  0.0000  0.0000  0.0000  0.0000  0.0000  0.0000  0.0000  0.0000
  14.     0.0000  0.0000  0.0000  0.0000  0.0000  0.0000  0.0000  0.0000  0.0000
  15.     0.0000  0.0000  0.0000  0.0000  0.0000  0.0000  0.0000  0.0000  0.0000
  16.     0.0000  0.0000  0.0000  0.0000  0.0000  0.0000  0.0000  0.0000  0.0000
  17.     0.0000  0.0000  0.0000  0.0000  0.0000  0.0000  0.0000  0.0000  0.0000
  18.     0.0000  0.0000  0.0000  0.0000  0.0000  0.0000  0.0000  0.0000  0.0000
  19.     0.0000  0.0000  0.0000  0.0000  0.0000  0.0000  0.0000  0.0000  0.0000
  20.     0.0000  0.0000  0.0000  0.0000  0.0000  0.0000  0.0000  0.0000  0.0000
  21.     0.0000  0.0000  0.0000  0.0000  0.0000  0.0000  0.0000  0.0000  0.0000
  22.     0.0000  0.0000  0.0000  0.0000  0.0000  0.0000  0.0000  0.0000  0.0000
  23.     0.0000  0.0000  0.0000  0.0000  0.0000  0.0000  0.0000  0.0000  0.0000
  24.     0.0000  0.0000  0.0000  0.0000  0.0000  0.0000  0.0000  0.0000  0.0000
  25.     0.0000  0.0000  0.0000  0.0000  0.0000  0.0000  0.0000  0.0000  0.0000
  26.     0.0000  0.0000  0.0000  0.0000  0.0000  0.0000  0.0000  0.0000  0.0000

      MO    19      20      21      22      23      24      25      26
     ---- ------  ------  ------  ------  ------  ------  ------  ------
   1.     0.0000  0.0000  0.0000  0.0000  0.0000  0.0000  0.0000  0.0000
   2.     0.0000  0.0000  0.0000  0.0000  0.0000  0.0000  0.0000  0.0000
   3.     0.0000  0.0000  0.0000  0.0000  0.0000  0.0000  0.0000  0.0000
   4.     0.0000  0.0000  0.0000  0.0000  0.0000  0.0000  0.0000  0.0000
   5.     0.0000  0.0000  0.0000  0.0000  0.0000  0.0000  0.0000  0.0000
   6.     0.0000  0.0000  0.0000  0.0000  0.0000  0.0000  0.0000  0.0000
   7.     0.0000  0.0000  0.0000  0.0000  0.0000  0.0000  0.0000  0.0000
   8.     0.0000  0.0000  0.0000  0.0000  0.0000  0.0000  0.0000  0.0000
   9.     0.0000  0.0000  0.0000  0.0000  0.0000  0.0000  0.0000  0.0000
  10.     0.0000  0.0000  0.0000  0.0000  0.0000  0.0000  0.0000  0.0000
  11.     0.0000  0.0000  0.0000  0.0000  0.0000  0.0000  0.0000  0.0000
  12.     0.0000  0.0000  0.0000  0.0000  0.0000  0.0000  0.0000  0.0000
  13.     0.0000  0.0000  0.0000  0.0000  0.0000  0.0000  0.0000  0.0000
  14.     0.0000  0.0000  0.0000  0.0000  0.0000  0.0000  0.0000  0.0000
  15.     0.0000  0.0000  0.0000  0.0000  0.0000  0.0000  0.0000  0.0000
  16.     0.0000  0.0000  0.0000  0.0000  0.0000  0.0000  0.0000  0.0000
  17.     0.0000  0.0000  0.0000  0.0000  0.0000  0.0000  0.0000  0.0000
  18.     0.0000  0.0000  0.0000  0.0000  0.0000  0.0000  0.0000  0.0000
  19.     0.0000  0.0000  0.0000  0.0000  0.0000  0.0000  0.0000  0.0000
  20.     0.0000  0.0000  0.0000  0.0000  0.0000  0.0000  0.0000  0.0000
  21.     0.0000  0.0000  0.0000  0.0000  0.0000  0.0000  0.0000  0.0000
  22.     0.0000  0.0000  0.0000  0.0000  0.0000  0.0000  0.0000  0.0000
  23.     0.0000  0.0000  0.0000  0.0000  0.0000  0.0000  0.0000  0.0000
  24.     0.0000  0.0000  0.0000  0.0000  0.0000  0.0000  0.0000  0.0000
  25.     0.0000  0.0000  0.0000  0.0000  0.0000  0.0000  0.0000  0.0000
  26.     0.0000  0.0000  0.0000  0.0000  0.0000  0.0000  0.0000  0.0000


 NATURAL POPULATIONS:  Natural atomic orbital occupancies

  NAO Atom No lang   Type(AO)    Occupancy      Energy
 -------------------------------------------------------
   1    C  1  s      Cor( 1s)     1.99992     -11.15324
   2    C  1  s      Val( 2s)     1.29195      -0.32819
   3    C  1  s      Ryd( 3s)     0.00896       1.47440
   4    C  1  px     Val( 2p)     1.26873      -0.09362
   5    C  1  px     Ryd( 3p)     0.00100       0.90169
   6    C  1  py     Val( 2p)     1.26873      -0.09362
   7    C  1  py     Ryd( 3p)     0.00100       0.90169
   8    C  1  pz     Val( 2p)     1.62700      -0.23429
   9    C  1  pz     Ryd( 3p)     0.00746       0.99100

  10   Be  2  s      Cor( 1s)     2.00000      -4.64379
  11   Be  2  s      Val( 2s)     0.57088       0.10740
  12   Be  2  s      Ryd( 3s)     0.00000       0.87166
  13   Be  2  px     Ryd( 3p)     0.00230       0.53248
  14   Be  2  px     Ryd( 2p)     0.00100       0.32464
  15   Be  2  py     Ryd( 3p)     0.00230       0.53248
  16   Be  2  py     Ryd( 2p)     0.00100       0.32464
  17   Be  2  pz     Ryd( 3p)     0.08921       0.74488
  18   Be  2  pz     Ryd( 2p)     0.00019       0.76836

  19    H  3  s      Val( 1s)     0.75454       0.19032
  20    H  3  s      Ryd( 2s)     0.00096       0.80639

  21    H  4  s      Val( 1s)     0.75454       0.19032
  22    H  4  s      Ryd( 2s)     0.00096       0.80639

  23    H  5  s      Val( 1s)     0.75454       0.19032
  24    H  5  s      Ryd( 2s)     0.00096       0.80639

  25    H  6  s      Val( 1s)     1.59043      -0.28811
  26    H  6  s      Ryd( 2s)     0.00146       1.22424


 Summary of Natural Population Analysis:

                                     Natural Population
             Natural    ---------------------------------------------
  Atom No    Charge        Core      Valence    Rydberg      Total
 --------------------------------------------------------------------
    C  1   -1.47475      1.99992     5.45642    0.01840     7.47475
   Be  2    1.33313      2.00000     0.57088    0.09599     2.66687
    H  3    0.24450      0.00000     0.75454    0.00096     0.75550
    H  4    0.24450      0.00000     0.75454    0.00096     0.75550
    H  5    0.24450      0.00000     0.75454    0.00096     0.75550
    H  6   -0.59189      0.00000     1.59043    0.00146     1.59189
 ====================================================================
 * Total *  0.00000      3.99992     9.88134    0.11874    14.00000

                                 Natural Population
 ---------------------------------------------------------
   Core                       3.99992 ( 99.9981% of    4)
   Valence                    9.88134 ( 98.8134% of   10)
   Natural Minimal Basis     13.88126 ( 99.1519% of   14)
   Natural Rydberg Basis      0.11874 (  0.8481% of   14)
 ---------------------------------------------------------

    Atom No         Natural Electron Configuration
 ----------------------------------------------------------------------------
      C  1      [core]2s( 1.29)2p( 4.16)3s( 0.01)3p( 0.01)
     Be  2      [core]2s( 0.57)3p( 0.09)
      H  3            1s( 0.75)
      H  4            1s( 0.75)
      H  5            1s( 0.75)
      H  6            1s( 1.59)


 PNAOs in the AO basis:

           AO          1       2       3       4       5       6       7       8
      ------------ ------- ------- ------- ------- ------- ------- ------- -------
   1.  C 1 (s)      0.9933 -0.2188 -0.0774  0.0000  0.0000  0.0000  0.0000  0.0000
   2.  C 1 (s)      0.0490  0.1833  1.7047  0.0000  0.0000  0.0000  0.0000  0.0000
   3.  C 1 (px)     0.0000  0.0000  0.0000  0.4024  1.1471  0.0000  0.0000  0.0000
   4.  C 1 (py)     0.0000  0.0000  0.0000  0.0000  0.0000  0.4024  1.1471  0.0000
   5.  C 1 (pz)     0.0000  0.0000  0.0000  0.0000  0.0000  0.0000  0.0000  0.4024
   6.  C 1 (s)     -0.0176  0.8640 -1.4795  0.0000  0.0000  0.0000  0.0000  0.0000
   7.  C 1 (px)     0.0000  0.0000  0.0000  0.7148 -0.9833  0.0000  0.0000  0.0000
   8.  C 1 (py)     0.0000  0.0000  0.0000  0.0000  0.0000  0.7148 -0.9833  0.0000
   9.  C 1 (pz)     0.0000  0.0000  0.0000  0.0000  0.0000  0.0000  0.0000  0.7148
  10. Be 2 (s)      0.0000  0.0000  0.0000  0.0000  0.0000  0.0000  0.0000  0.0000
  11. Be 2 (s)      0.0000  0.0000  0.0000  0.0000  0.0000  0.0000  0.0000  0.0000
  12. Be 2 (px)     0.0000  0.0000  0.0000  0.0000  0.0000  0.0000  0.0000  0.0000
  13. Be 2 (py)     0.0000  0.0000  0.0000  0.0000  0.0000  0.0000  0.0000  0.0000
  14. Be 2 (pz)     0.0000  0.0000  0.0000  0.0000  0.0000  0.0000  0.0000  0.0000
  15. Be 2 (s)      0.0000  0.0000  0.0000  0.0000  0.0000  0.0000  0.0000  0.0000
  16. Be 2 (px)     0.0000  0.0000  0.0000  0.0000  0.0000  0.0000  0.0000  0.0000
  17. Be 2 (py)     0.0000  0.0000  0.0000  0.0000  0.0000  0.0000  0.0000  0.0000
  18. Be 2 (pz)     0.0000  0.0000  0.0000  0.0000  0.0000  0.0000  0.0000  0.0000
  19.  H 3 (s)      0.0000  0.0000  0.0000  0.0000  0.0000  0.0000  0.0000  0.0000
  20.  H 3 (s)      0.0000  0.0000  0.0000  0.0000  0.0000  0.0000  0.0000  0.0000
  21.  H 4 (s)      0.0000  0.0000  0.0000  0.0000  0.0000  0.0000  0.0000  0.0000
  22.  H 4 (s)      0.0000  0.0000  0.0000  0.0000  0.0000  0.0000  0.0000  0.0000
  23.  H 5 (s)      0.0000  0.0000  0.0000  0.0000  0.0000  0.0000  0.0000  0.0000
  24.  H 5 (s)      0.0000  0.0000  0.0000  0.0000  0.0000  0.0000  0.0000  0.0000
  25.  H 6 (s)      0.0000  0.0000  0.0000  0.0000  0.0000  0.0000  0.0000  0.0000
  26.  H 6 (s)      0.0000  0.0000  0.0000  0.0000  0.0000  0.0000  0.0000  0.0000

           AO          9      10      11      12      13      14      15      16
      ------------ ------- ------- ------- ------- ------- ------- ------- -------
   1.  C 1 (s)      0.0000  0.0000  0.0000  0.0000  0.0000  0.0000  0.0000  0.0000
   2.  C 1 (s)      0.0000  0.0000  0.0000  0.0000  0.0000  0.0000  0.0000  0.0000
   3.  C 1 (px)     0.0000  0.0000  0.0000  0.0000  0.0000  0.0000  0.0000  0.0000
   4.  C 1 (py)     0.0000  0.0000  0.0000  0.0000  0.0000  0.0000  0.0000  0.0000
   5.  C 1 (pz)     1.1471  0.0000  0.0000  0.0000  0.0000  0.0000  0.0000  0.0000
   6.  C 1 (s)      0.0000  0.0000  0.0000  0.0000  0.0000  0.0000  0.0000  0.0000
   7.  C 1 (px)     0.0000  0.0000  0.0000  0.0000  0.0000  0.0000  0.0000  0.0000
   8.  C 1 (py)     0.0000  0.0000  0.0000  0.0000  0.0000  0.0000  0.0000  0.0000
   9.  C 1 (pz)    -0.9833  0.0000  0.0000  0.0000  0.0000  0.0000  0.0000  0.0000
  10. Be 2 (s)      0.0000  0.9970 -0.2489  0.0794  0.0000  0.0000  0.0000  0.0000
  11. Be 2 (s)      0.0000  0.0349  0.1615  1.8436  0.0000  0.0000  0.0000  0.0000
  12. Be 2 (px)     0.0000  0.0000  0.0000  0.0000  0.3161  1.2823  0.0000  0.0000
  13. Be 2 (py)     0.0000  0.0000  0.0000  0.0000  0.0000  0.0000  0.3161  1.2823
  14. Be 2 (pz)     0.0000  0.0000  0.0000  0.0000  0.0000  0.0000  0.0000  0.0000
  15. Be 2 (s)      0.0000 -0.0118  0.8864 -1.6572  0.0000  0.0000  0.0000  0.0000
  16. Be 2 (px)     0.0000  0.0000  0.0000  0.0000  0.7644 -1.0770  0.0000  0.0000
  17. Be 2 (py)     0.0000  0.0000  0.0000  0.0000  0.0000  0.0000  0.7644 -1.0770
  18. Be 2 (pz)     0.0000  0.0000  0.0000  0.0000  0.0000  0.0000  0.0000  0.0000
  19.  H 3 (s)      0.0000  0.0000  0.0000  0.0000  0.0000  0.0000  0.0000  0.0000
  20.  H 3 (s)      0.0000  0.0000  0.0000  0.0000  0.0000  0.0000  0.0000  0.0000
  21.  H 4 (s)      0.0000  0.0000  0.0000  0.0000  0.0000  0.0000  0.0000  0.0000
  22.  H 4 (s)      0.0000  0.0000  0.0000  0.0000  0.0000  0.0000  0.0000  0.0000
  23.  H 5 (s)      0.0000  0.0000  0.0000  0.0000  0.0000  0.0000  0.0000  0.0000
  24.  H 5 (s)      0.0000  0.0000  0.0000  0.0000  0.0000  0.0000  0.0000  0.0000
  25.  H 6 (s)      0.0000  0.0000  0.0000  0.0000  0.0000  0.0000  0.0000  0.0000
  26.  H 6 (s)      0.0000  0.0000  0.0000  0.0000  0.0000  0.0000  0.0000  0.0000

           AO         17      18      19      20      21      22      23      24
      ------------ ------- ------- ------- ------- ------- ------- ------- -------
   1.  C 1 (s)      0.0000  0.0000  0.0000  0.0000  0.0000  0.0000  0.0000  0.0000
   2.  C 1 (s)      0.0000  0.0000  0.0000  0.0000  0.0000  0.0000  0.0000  0.0000
   3.  C 1 (px)     0.0000  0.0000  0.0000  0.0000  0.0000  0.0000  0.0000  0.0000
   4.  C 1 (py)     0.0000  0.0000  0.0000  0.0000  0.0000  0.0000  0.0000  0.0000
   5.  C 1 (pz)     0.0000  0.0000  0.0000  0.0000  0.0000  0.0000  0.0000  0.0000
   6.  C 1 (s)      0.0000  0.0000  0.0000  0.0000  0.0000  0.0000  0.0000  0.0000
   7.  C 1 (px)     0.0000  0.0000  0.0000  0.0000  0.0000  0.0000  0.0000  0.0000
   8.  C 1 (py)     0.0000  0.0000  0.0000  0.0000  0.0000  0.0000  0.0000  0.0000
   9.  C 1 (pz)     0.0000  0.0000  0.0000  0.0000  0.0000  0.0000  0.0000  0.0000
  10. Be 2 (s)      0.0000  0.0000  0.0000  0.0000  0.0000  0.0000  0.0000  0.0000
  11. Be 2 (s)      0.0000  0.0000  0.0000  0.0000  0.0000  0.0000  0.0000  0.0000
  12. Be 2 (px)     0.0000  0.0000  0.0000  0.0000  0.0000  0.0000  0.0000  0.0000
  13. Be 2 (py)     0.0000  0.0000  0.0000  0.0000  0.0000  0.0000  0.0000  0.0000
  14. Be 2 (pz)     0.3161  1.2823  0.0000  0.0000  0.0000  0.0000  0.0000  0.0000
  15. Be 2 (s)      0.0000  0.0000  0.0000  0.0000  0.0000  0.0000  0.0000  0.0000
  16. Be 2 (px)     0.0000  0.0000  0.0000  0.0000  0.0000  0.0000  0.0000  0.0000
  17. Be 2 (py)     0.0000  0.0000  0.0000  0.0000  0.0000  0.0000  0.0000  0.0000
  18. Be 2 (pz)     0.7644 -1.0770  0.0000  0.0000  0.0000  0.0000  0.0000  0.0000
  19.  H 3 (s)      0.0000  0.0000  0.4541  1.2484  0.0000  0.0000  0.0000  0.0000
  20.  H 3 (s)      0.0000  0.0000  0.6409 -1.1636  0.0000  0.0000  0.0000  0.0000
  21.  H 4 (s)      0.0000  0.0000  0.0000  0.0000  0.4541  1.2484  0.0000  0.0000
  22.  H 4 (s)      0.0000  0.0000  0.0000  0.0000  0.6409 -1.1636  0.0000  0.0000
  23.  H 5 (s)      0.0000  0.0000  0.0000  0.0000  0.0000  0.0000  0.4541  1.2484
  24.  H 5 (s)      0.0000  0.0000  0.0000  0.0000  0.0000  0.0000  0.6409 -1.1636
  25.  H 6 (s)      0.0000  0.0000  0.0000  0.0000  0.0000  0.0000  0.0000  0.0000
  26.  H 6 (s)      0.0000  0.0000  0.0000  0.0000  0.0000  0.0000  0.0000  0.0000

           AO         25      26
      ------------ ------- -------
   1.  C 1 (s)      0.0000  0.0000
   2.  C 1 (s)      0.0000  0.0000
   3.  C 1 (px)     0.0000  0.0000
   4.  C 1 (py)     0.0000  0.0000
   5.  C 1 (pz)     0.0000  0.0000
   6.  C 1 (s)      0.0000  0.0000
   7.  C 1 (px)     0.0000  0.0000
   8.  C 1 (py)     0.0000  0.0000
   9.  C 1 (pz)     0.0000  0.0000
  10. Be 2 (s)      0.0000  0.0000
  11. Be 2 (s)      0.0000  0.0000
  12. Be 2 (px)     0.0000  0.0000
  13. Be 2 (py)     0.0000  0.0000
  14. Be 2 (pz)     0.0000  0.0000
  15. Be 2 (s)      0.0000  0.0000
  16. Be 2 (px)     0.0000  0.0000
  17. Be 2 (py)     0.0000  0.0000
  18. Be 2 (pz)     0.0000  0.0000
  19.  H 3 (s)      0.0000  0.0000
  20.  H 3 (s)      0.0000  0.0000
  21.  H 4 (s)      0.0000  0.0000
  22.  H 4 (s)      0.0000  0.0000
  23.  H 5 (s)      0.0000  0.0000
  24.  H 5 (s)      0.0000  0.0000
  25.  H 6 (s)      0.3041  1.2932
  26.  H 6 (s)      0.7733 -1.0802


 PNAO overlap matrix:

           NAO         1       2       3       4       5       6       7       8
      ------------ ------- ------- ------- ------- ------- ------- ------- -------
   1.  C 1( 1s )    1.0000  0.0000  0.0000  0.0000  0.0000  0.0000  0.0000  0.0000
   2.  C 1( 2s )    0.0000  1.0000  0.0000  0.0000  0.0000  0.0000  0.0000  0.0000
   3.  C 1( 3s )    0.0000  0.0000  1.0000  0.0000  0.0000  0.0000  0.0000  0.0000
   4.  C 1( 2px)    0.0000  0.0000  0.0000  1.0000  0.0000  0.0000  0.0000  0.0000
   5.  C 1( 3px)    0.0000  0.0000  0.0000  0.0000  1.0000  0.0000  0.0000  0.0000
   6.  C 1( 2py)    0.0000  0.0000  0.0000  0.0000  0.0000  1.0000  0.0000  0.0000
   7.  C 1( 3py)    0.0000  0.0000  0.0000  0.0000  0.0000  0.0000  1.0000  0.0000
   8.  C 1( 2pz)    0.0000  0.0000  0.0000  0.0000  0.0000  0.0000  0.0000  1.0000
   9.  C 1( 3pz)    0.0000  0.0000  0.0000  0.0000  0.0000  0.0000  0.0000  0.0000
  10. Be 2( 1s )   -0.0006  0.0593 -0.0834  0.0000  0.0000  0.0000  0.0000 -0.1271
  11. Be 2( 2s )    0.0457  0.4385 -0.2576  0.0000  0.0000  0.0000  0.0000 -0.3914
  12. Be 2( 3s )   -0.0438 -0.1836  0.0409  0.0000  0.0000  0.0000  0.0000 -0.1846
  13. Be 2( 3px)    0.0000  0.0000  0.0000  0.3666 -0.2746  0.0000  0.0000  0.0000
  14. Be 2( 2px)    0.0000  0.0000  0.0000 -0.1284  0.0960  0.0000  0.0000  0.0000
  15. Be 2( 3py)    0.0000  0.0000  0.0000  0.0000  0.0000  0.3666 -0.2746  0.0000
  16. Be 2( 2py)    0.0000  0.0000  0.0000  0.0000  0.0000 -0.1284  0.0960  0.0000
[...]
       0.991 0.991 0.991 0.991 0.991 0.991 0.372 0.372 0.372 0.372
      0 hybrids eliminated in 1 pass
      10 hybrids moved from prospective to permanent list

 NHOs of 2-center eigenvectors projected from the NAO density matrix
       0.015 electrons remain in the fully projected matrix

 Search of NHO DM block for the following atom(s):   1
      Select eigenvectors with eigenvalue > 1.900
       2.000 0.004 0.000 0.000 0.000 0.000 0.000 0.000 0.000
      Eigenvector ( 1) has occupancy 1.99992
            1.0000 0.0000 0.0000 0.0000 0.0000 0.0000 0.0000 0.0000
            0.0000
           NBO accepted:    1. Label:CR ( 1)   1
        1 eigenvector(s) stashed in permanent list

 Search of NHO DM block for the following atom(s):   2
      Select eigenvectors with eigenvalue > 1.900
       2.000 0.003 0.003 0.000 0.000 0.000 0.000 0.000 0.000
      Eigenvector ( 1) has occupancy 2.00000
            1.0000 0.0000 0.0000 0.0000 0.0000 0.0000 0.0000 0.0000
            0.0000
           NBO accepted:    2. Label:CR ( 1)   2
        1 eigenvector(s) stashed in permanent list

  1-center NBOs projected from the NHO density matrix
      10.000 electrons remain (>1.900); search continues

 Search of NHO DM block for the following atom(s):   1   2
      Select eigenvectors with eigenvalue > 1.900
       1.945 0.068 0.000 0.000 0.000 0.000 0.000 0.000 0.000 0.000 0.000 0.000
       0.000 0.000 0.000 0.000 0.000 0.000
      Eigenvector ( 1) has occupancy 1.94514
            0.0000 0.0000 0.0000 0.0000 0.9443 0.0000 0.0000 0.0000
            0.0000 0.0000 0.3290 0.0000 0.0000 0.0000 0.0000 0.0000
            0.0000 0.0000
      Occupancy is 1.945 after deleting minor hybrid components
            0.0000 0.0000 0.0000 0.0000 0.9443 0.0000 0.0000 0.0000
            0.0000 0.0000 0.3290 0.0000 0.0000 0.0000 0.0000 0.0000
            0.0000 0.0000
           NBO accepted:    3. Label:BD ( 1)   1   2
      Occupancy is 0.068 for antibonding component
            0.0000 0.0000 0.0000 0.0000-0.3290 0.0000 0.0000 0.0000
            0.0000 0.0000 0.9443 0.0000 0.0000 0.0000 0.0000 0.0000
            0.0000 0.0000
           NBO accepted:    4. Label:BD*( 1)   1   2
        2 eigenvector(s) stashed in permanent list

 Search of NHO DM block for the following atom(s):   1   3
      Select eigenvectors with eigenvalue > 1.900
       1.996 0.001 0.000 0.000 0.000 0.000 0.000 0.000 0.000 0.000 0.000
      Eigenvector ( 1) has occupancy 1.99608
            0.0000 0.7889 0.0000 0.0000 0.0000 0.0000 0.0000 0.0000
            0.0000 0.6145 0.0000
      Occupancy is 1.996 after deleting minor hybrid components
            0.0000 0.7889 0.0000 0.0000 0.0000 0.0000 0.0000 0.0000
            0.0000 0.6145 0.0000
           NBO accepted:    5. Label:BD ( 1)   1   3
      Occupancy is 0.001 for antibonding component
            0.0000-0.6145 0.0000 0.0000 0.0000 0.0000 0.0000 0.0000
            0.0000 0.7889 0.0000
           NBO accepted:    6. Label:BD*( 1)   1   3
        2 eigenvector(s) stashed in permanent list

 Search of NHO DM block for the following atom(s):   1   4
      Select eigenvectors with eigenvalue > 1.900
       1.996 0.001 0.000 0.000 0.000 0.000 0.000 0.000 0.000 0.000 0.000
      Eigenvector ( 1) has occupancy 1.99608
            0.0000 0.0000 0.7889 0.0000 0.0000 0.0000 0.0000 0.0000
            0.0000 0.6145 0.0000
      Occupancy is 1.996 after deleting minor hybrid components
            0.0000 0.0000 0.7889 0.0000 0.0000 0.0000 0.0000 0.0000
            0.0000 0.6145 0.0000
           NBO accepted:    7. Label:BD ( 1)   1   4
      Occupancy is 0.001 for antibonding component
            0.0000 0.0000-0.6145 0.0000 0.0000 0.0000 0.0000 0.0000
            0.0000 0.7889 0.0000
           NBO accepted:    8. Label:BD*( 1)   1   4
        2 eigenvector(s) stashed in permanent list

 Search of NHO DM block for the following atom(s):   1   5
      Select eigenvectors with eigenvalue > 1.900
       1.996 0.001 0.000 0.000 0.000 0.000 0.000 0.000 0.000 0.000 0.000
      Eigenvector ( 1) has occupancy 1.99608
            0.0000 0.0000 0.0000 0.7889 0.0000 0.0000 0.0000 0.0000
            0.0000 0.6145 0.0000
      Occupancy is 1.996 after deleting minor hybrid components
            0.0000 0.0000 0.0000 0.7889 0.0000 0.0000 0.0000 0.0000
            0.0000 0.6145 0.0000
           NBO accepted:    9. Label:BD ( 1)   1   5
      Occupancy is 0.001 for antibonding component
            0.0000 0.0000 0.0000-0.6145 0.0000 0.0000 0.0000 0.0000
            0.0000 0.7889 0.0000
           NBO accepted:   10. Label:BD*( 1)   1   5
        2 eigenvector(s) stashed in permanent list

 Search of NHO DM block for the following atom(s):   2   6
      Select eigenvectors with eigenvalue > 1.900
       1.926 0.053 0.000 0.000 0.000 0.000 0.000 0.000 0.000 0.000 0.000
      Eigenvector ( 1) has occupancy 1.92624
            0.0000 0.0000 0.4234 0.0000 0.0000 0.0000 0.0000 0.0000
            0.0000 0.9059 0.0000
      Occupancy is 1.926 after deleting minor hybrid components
            0.0000 0.0000 0.4234 0.0000 0.0000 0.0000 0.0000 0.0000
            0.0000 0.9059 0.0000
           NBO accepted:   11. Label:BD ( 1)   2   6
      Occupancy is 0.053 for antibonding component
            0.0000 0.0000 0.9059 0.0000 0.0000 0.0000 0.0000 0.0000
            0.0000-0.4234 0.0000
           NBO accepted:   12. Label:BD*( 1)   2   6
        2 eigenvector(s) stashed in permanent list

  2-center NBOs projected from the NHO density matrix
       0.015 electrons remain in the fully projected matrix

                            Occupancies       Lewis Structure    Low   High
         Max    Occ     -------------------  -----------------   occ   occ
  Cycle  Ctr   Thresh    Lewis   non-Lewis     CR  BD  nC  LP    (L)   (NL)
 ============================================================================
    4     2     1.90    13.85953   0.14047      2   5   0   0     0      0
 ----------------------------------------------------------------------------

 Structure accepted: No low occupancy Lewis orbitals

 -------------------------------------------------------
   Core                      3.99992 ( 99.998% of   4)
   Valence Lewis             9.85961 ( 98.596% of  10)
  ==================      =============================
   Total Lewis              13.85953 ( 98.997% of  14)
  -----------------------------------------------------
   Valence non-Lewis         0.12500 (  0.893% of  14)
   Rydberg non-Lewis         0.01547 (  0.110% of  14)
  ==================      =============================
   Total non-Lewis           0.14047 (  1.003% of  14)
 -------------------------------------------------------


     (Occupancy)   Bond orbital / Coefficients / Hybrids
 ------------------ Lewis ------------------------------------------------------
   1. (1.99992) CR ( 1) C  1            s(100.00%)
                                         1.0000  0.0000  0.0000  0.0000  0.0000
                                         0.0000  0.0000  0.0000  0.0000
   2. (2.00000) CR ( 1)Be  2            s(100.00%)
                                         1.0000  0.0000  0.0000  0.0000  0.0000
                                         0.0000  0.0000  0.0000  0.0000
   3. (1.94514) BD ( 1) C  1-Be  2
               ( 89.18%)   0.9443* C  1 s( 24.86%)p 3.02( 75.14%)
                                         0.0000  0.4966 -0.0445  0.0000  0.0000
                                         0.0000  0.0000 -0.8654  0.0500
               ( 10.82%)   0.3290*Be  2 s( 49.06%)p 1.04( 50.94%)
                                         0.0000  0.7004  0.0014  0.0000  0.0000
                                         0.0000  0.0000  0.7129  0.0346
   4. (1.99608) BD ( 1) C  1- H  3
               ( 62.24%)   0.7889* C  1 s( 25.11%)p 2.98( 74.89%)
                                         0.0000  0.5005  0.0242  0.6606  0.0185
                                        -0.4793 -0.0134  0.2866  0.0108
               ( 37.76%)   0.6145* H  3 s(100.00%)
                                         1.0000 -0.0008
   5. (1.99608) BD ( 1) C  1- H  4
               ( 62.24%)   0.7889* C  1 s( 25.11%)p 2.98( 74.89%)
                                         0.0000  0.5005  0.0242 -0.7454 -0.0209
                                        -0.3325 -0.0093  0.2866  0.0108
               ( 37.76%)   0.6145* H  4 s(100.00%)
                                         1.0000 -0.0008
   6. (1.99608) BD ( 1) C  1- H  5
               ( 62.24%)   0.7889* C  1 s( 25.11%)p 2.98( 74.89%)
                                         0.0000  0.5005  0.0242  0.0847  0.0024
                                         0.8118  0.0227  0.2866  0.0108
               ( 37.76%)   0.6145* H  5 s(100.00%)
                                         1.0000 -0.0008
   7. (1.92624) BD ( 1)Be  2- H  6
               ( 17.93%)   0.4234*Be  2 s( 50.93%)p 0.96( 49.07%)
                                         0.0000  0.7137 -0.0012  0.0000  0.0000
                                         0.0000  0.0000 -0.7002 -0.0218
               ( 82.07%)   0.9059* H  6 s(100.00%)
                                         1.0000  0.0041
 ---------------- non-Lewis ----------------------------------------------------
   8. (0.06807) BD*( 1) C  1-Be  2
               ( 10.82%)   0.3290* C  1 s( 24.86%)p 3.02( 75.14%)
                                         0.0000 -0.4966  0.0445  0.0000  0.0000
                                         0.0000  0.0000  0.8654 -0.0500
               ( 89.18%)  -0.9443*Be  2 s( 49.06%)p 1.04( 50.94%)
                                         0.0000 -0.7004 -0.0014  0.0000  0.0000
                                         0.0000  0.0000 -0.7129 -0.0346
   9. (0.00125) BD*( 1) C  1- H  3
               ( 37.76%)   0.6145* C  1 s( 25.11%)p 2.98( 74.89%)
                                         0.0000 -0.5005 -0.0242 -0.6606 -0.0185
                                         0.4793  0.0134 -0.2866 -0.0108
               ( 62.24%)  -0.7889* H  3 s(100.00%)
                                        -1.0000  0.0008
  10. (0.00125) BD*( 1) C  1- H  4
               ( 37.76%)   0.6145* C  1 s( 25.11%)p 2.98( 74.89%)
                                         0.0000 -0.5005 -0.0242  0.7454  0.0209
                                         0.3325  0.0093 -0.2866 -0.0108
               ( 62.24%)  -0.7889* H  4 s(100.00%)
                                        -1.0000  0.0008
  11. (0.00125) BD*( 1) C  1- H  5
               ( 37.76%)   0.6145* C  1 s( 25.11%)p 2.98( 74.89%)
                                         0.0000 -0.5005 -0.0242 -0.0847 -0.0024
                                        -0.8118 -0.0227 -0.2866 -0.0108
               ( 62.24%)  -0.7889* H  5 s(100.00%)
                                        -1.0000  0.0008
  12. (0.05317) BD*( 1)Be  2- H  6
               ( 82.07%)   0.9059*Be  2 s( 50.93%)p 0.96( 49.07%)
                                         0.0000  0.7137 -0.0012  0.0000  0.0000
                                         0.0000  0.0000 -0.7002 -0.0218
               ( 17.93%)  -0.4234* H  6 s(100.00%)
                                         1.0000  0.0041
  13. (0.00445) RY ( 1) C  1            s( 56.60%)p 0.77( 43.40%)
                                         0.0000  0.0163  0.7521  0.0000  0.0000
                                         0.0000  0.0000 -0.0672 -0.6554
  14. (0.00001) RY ( 2) C  1            s( 43.22%)p 1.31( 56.78%)
  15. (0.00000) RY ( 3) C  1            s(  0.00%)p 1.00(100.00%)
  16. (0.00000) RY ( 4) C  1            s(  0.00%)p 1.00(100.00%)
  17. (0.00330) RY ( 1)Be  2            s(  0.00%)p 1.00(100.00%)
                                         0.0000  0.0000  0.0000 -0.2728  0.1796
                                         0.7894 -0.5198  0.0000  0.0000
  18. (0.00330) RY ( 2)Be  2            s(  0.00%)p 1.00(100.00%)
                                         0.0000  0.0000  0.0000  0.7894 -0.5198
                                         0.2728 -0.1796  0.0000  0.0000
  19. (0.00004) RY ( 3)Be  2            s(  1.24%)p79.56( 98.76%)
  20. (0.00000) RY ( 4)Be  2            s(  0.00%)p 1.00(100.00%)
  21. (0.00000) RY ( 5)Be  2            s(  0.00%)p 1.00(100.00%)
  22. (0.00000) RY ( 6)Be  2            s( 98.77%)p 0.01(  1.23%)
  23. (0.00096) RY ( 1) H  3            s(100.00%)
                                         0.0008  1.0000
  24. (0.00096) RY ( 1) H  4            s(100.00%)
                                         0.0008  1.0000
  25. (0.00096) RY ( 1) H  5            s(100.00%)
                                         0.0008  1.0000
  26. (0.00149) RY ( 1) H  6            s(100.00%)
                                        -0.0041  1.0000


 NHO DIRECTIONALITY AND BOND BENDING (deviation from line of nuclear centers at
                                      the position of maximum hybrid amplitude)

         [Thresholds for printing:  angular deviation  >  1.0 degree]
                                    p- or d-character  > 25.0%
                                    orbital occupancy  >  0.10e

                        Line of Centers        Hybrid 1             Hybrid 2
                        ---------------  -------------------  ------------------
           NBO            Theta   Phi    Theta   Phi    Dev   Theta   Phi    Dev
 ===============================================================================
    None exceeding thresholds


 SECOND ORDER PERTURBATION THEORY ANALYSIS OF FOCK MATRIX IN NBO BASIS

     Threshold for printing:   0.50 kcal/mol
                                                          E(2) E(NL)-E(L) F(L,NL)
      Donor (L) NBO              Acceptor (NL) NBO      kcal/mol   a.u.    a.u.
 ===============================================================================

 within unit  1
    3. BD ( 1) C  1-Be  2       8. BD*( 1) C  1-Be  2      1.13    1.01   0.030
    3. BD ( 1) C  1-Be  2      12. BD*( 1)Be  2- H  6     33.77    0.99   0.163
    3. BD ( 1) C  1-Be  2      13. RY ( 1) C  1            0.72    1.73   0.032
    4. BD ( 1) C  1- H  3      10. BD*( 1) C  1- H  4      0.57    1.33   0.025
    4. BD ( 1) C  1- H  3      11. BD*( 1) C  1- H  5      0.57    1.33   0.025
    4. BD ( 1) C  1- H  3      12. BD*( 1)Be  2- H  6      1.17    1.16   0.033
    4. BD ( 1) C  1- H  3      17. RY ( 1)Be  2            0.63    0.96   0.022
    5. BD ( 1) C  1- H  4       9. BD*( 1) C  1- H  3      0.57    1.33   0.025
    5. BD ( 1) C  1- H  4      11. BD*( 1) C  1- H  5      0.57    1.33   0.025
    5. BD ( 1) C  1- H  4      12. BD*( 1)Be  2- H  6      1.17    1.16   0.033
    5. BD ( 1) C  1- H  4      18. RY ( 2)Be  2            0.93    0.96   0.027
    6. BD ( 1) C  1- H  5       9. BD*( 1) C  1- H  3      0.57    1.33   0.025
    6. BD ( 1) C  1- H  5      10. BD*( 1) C  1- H  4      0.57    1.33   0.025
    6. BD ( 1) C  1- H  5      12. BD*( 1)Be  2- H  6      1.17    1.16   0.033
    6. BD ( 1) C  1- H  5      17. RY ( 1)Be  2            0.77    0.96   0.024
    7. BD ( 1)Be  2- H  6       8. BD*( 1) C  1-Be  2     48.94    0.97   0.194
    7. BD ( 1)Be  2- H  6      12. BD*( 1)Be  2- H  6      2.86    0.94   0.046
    7. BD ( 1)Be  2- H  6      13. RY ( 1) C  1            6.54    1.69   0.094
    7. BD ( 1)Be  2- H  6      14. RY ( 2) C  1            1.04    1.63   0.037
    7. BD ( 1)Be  2- H  6      19. RY ( 3)Be  2            1.01    1.20   0.031
    7. BD ( 1)Be  2- H  6      22. RY ( 6)Be  2            1.54    1.29   0.040
    7. BD ( 1)Be  2- H  6      23. RY ( 1) H  3            0.95    1.23   0.031
    7. BD ( 1)Be  2- H  6      24. RY ( 1) H  4            0.95    1.23   0.031
    7. BD ( 1)Be  2- H  6      25. RY ( 1) H  5            0.95    1.23   0.031


 NATURAL BOND ORBITALS (Summary):

                                                     Principal Delocalizations
           NBO                 Occupancy    Energy   (geminal,vicinal,remote)
 ===============================================================================
 Molecular unit  1  (CH4Be)
 ------ Lewis --------------------------------------
    1. CR ( 1) C  1             1.99992   -11.15324
    2. CR ( 1)Be  2             2.00000    -4.64379
    3. BD ( 1) C  1-Be  2       1.94514    -0.46678  12(g),8(g),13(g)
    4. BD ( 1) C  1- H  3       1.99608    -0.63406  12(v),17(v),10(g),11(g)
    5. BD ( 1) C  1- H  4       1.99608    -0.63406  12(v),18(v),9(g),11(g)
    6. BD ( 1) C  1- H  5       1.99608    -0.63406  12(v),17(v),9(g),10(g)
    7. BD ( 1)Be  2- H  6       1.92624    -0.42083  8(g),13(v),12(g),22(g)
                                                     14(v),19(g),23(r),24(r)
                                                     25(r)
 ------ non-Lewis ----------------------------------
    8. BD*( 1) C  1-Be  2       0.06807     0.54657
    9. BD*( 1) C  1- H  3       0.00125     0.70079
   10. BD*( 1) C  1- H  4       0.00125     0.70079
   11. BD*( 1) C  1- H  5       0.00125     0.70079
   12. BD*( 1)Be  2- H  6       0.05317     0.52210
   13. RY ( 1) C  1             0.00445     1.26637
   14. RY ( 2) C  1             0.00001     1.20537
   15. RY ( 3) C  1             0.00000     0.89624
   16. RY ( 4) C  1             0.00000     0.89624
   17. RY ( 1)Be  2             0.00330     0.32869
   18. RY ( 2)Be  2             0.00330     0.32869
   19. RY ( 3)Be  2             0.00004     0.78149
   20. RY ( 4)Be  2             0.00000     0.52843
   21. RY ( 5)Be  2             0.00000     0.52843
   22. RY ( 6)Be  2             0.00000     0.86654
   23. RY ( 1) H  3             0.00096     0.80690
   24. RY ( 1) H  4             0.00096     0.80690
   25. RY ( 1) H  5             0.00096     0.80690
   26. RY ( 1) H  6             0.00149     1.22344
          -------------------------------
                 Total Lewis   13.85953  ( 98.9966%)
           Valence non-Lewis    0.12500  (  0.8929%)
           Rydberg non-Lewis    0.01547  (  0.1105%)
          -------------------------------
               Total unit  1   14.00000  (100.0000%)
              Charge unit  1    0.00000

 $CHOOSE
   BOND S 1 2 S 1 3 S 1 4 S 1 5 S 2 6 END
 $END

 NBO analysis completed in 0.31 CPU seconds (1 wall second)
 Maximum scratch memory used by NBO was 267318 words (2.04 MB)
 Maximum scratch memory used by G16NBO was 9311 words (0.07 MB)

 Opening RunExU unformatted file "/cluster/work/users/beto93/CH3BeH/Gau-3325860.EUF"
 Read unf file /cluster/work/users/beto93/CH3BeH/Gau-3325860.EUF:
 Label Gaussian matrix elements                                         IVers= 2 NLab= 2 Version=ES64L-G16RevC.01
 Title NBO-a                                                           
 NAtoms=     6 NBasis=    26 NBsUse=    26 ICharg=     0 Multip=     1 NE=    14 Len12L=8 Len4L=8 IOpCl= 0 ICGU=111
 GAUSSIAN SCALARS                    NI= 1 NR= 1 NTot=       1 LenBuf=    2 NRI=1 N=    1000
 NPA CHARGES                         NI= 0 NR= 1 NTot=       6 LenBuf= 4000 NRI=1 N=       6
 Recovered energy= -54.7540246433     dipole=      0.000000000000     -0.000000000000      0.160193304518
 Unable to Open any file for archive entry.
 1\1\GINC-C1-3\SP\RHF\4-31G\C1H4Be1\BETO93\24-Jul-2024\0\\#RHF/4-31G Po
 p=NBO7Read\\NBO-a\\0,1\C,0,0.034501,-0.059741,0.024991\Be,0,-0.761653,
 1.322867,-0.534058\H,0,0.057502,-0.100992,1.108648\H,0,1.063335,-0.098
 024,-0.316442\H,0,-0.448079,-0.96878,-0.317508\H,0,-1.369663,2.378741,
 -0.960994\\Version=ES64L-G16RevC.01\State=1-A\HF=-54.7540246\RMSD=7.59
 1e-09\Dipole=0.0754415,-0.1310123,0.052974\Quadrupole=0.5184706,-1.559
 5097,1.041039,1.7901693,-0.7238442,1.2570337\PG=C03 [C3(H1Be1C1),X(H3)
 ]\\@
 The archive entry for this job was punched.


 LOGIC IS A SYSTEMATIC METHOD OF COMING TO THE
 WRONG CONCLUSION WITH CONFIDENCE.
 Job cpu time:       0 days  0 hours  0 minutes 10.4 seconds.
 Elapsed time:       0 days  0 hours  0 minutes  3.6 seconds.
 File lengths (MBytes):  RWF=     10 Int=      0 D2E=      0 Chk=      1 Scr=      1
 Normal termination of Gaussian 16 at Wed Jul 24 13:56:58 2024.
