 Entering Gaussian System, Link 0=g16
 Initial command:
 /cluster/software/Gaussian/g16_C.01/l1.exe "/cluster/work/users/beto93/mol123/Gau-1467367.inp" -scrdir="/cluster/work/users/beto93/mol123/"
 Entering Link 1 = /cluster/software/Gaussian/g16_C.01/l1.exe PID=   1467368.
  
 Copyright (c) 1988-2019, Gaussian, Inc.  All Rights Reserved.
  
 This is part of the Gaussian(R) 16 program.  It is based on
 the Gaussian(R) 09 system (copyright 2009, Gaussian, Inc.),
 the Gaussian(R) 03 system (copyright 2003, Gaussian, Inc.),
 the Gaussian(R) 98 system (copyright 1998, Gaussian, Inc.),
 the Gaussian(R) 94 system (copyright 1995, Gaussian, Inc.),
 the Gaussian 92(TM) system (copyright 1992, Gaussian, Inc.),
 the Gaussian 90(TM) system (copyright 1990, Gaussian, Inc.),
 the Gaussian 88(TM) system (copyright 1988, Gaussian, Inc.),
 the Gaussian 86(TM) system (copyright 1986, Carnegie Mellon
 University), and the Gaussian 82(TM) system (copyright 1983,
 Carnegie Mellon University). Gaussian is a federally registered
 trademark of Gaussian, Inc.
  
 This software contains proprietary and confidential information,
 including trade secrets, belonging to Gaussian, Inc.
  
 This software is provided under written license and may be
 used, copied, transmitted, or stored only in accord with that
 written license.
  
 The following legend is applicable only to US Government
 contracts under FAR:
  
                    RESTRICTED RIGHTS LEGEND
  
 Use, reproduction and disclosure by the US Government is
 subject to restrictions as set forth in subparagraphs (a)
 and (c) of the Commercial Computer Software - Restricted
 Rights clause in FAR 52.227-19.
  
 Gaussian, Inc.
 340 Quinnipiac St., Bldg. 40, Wallingford CT 06492
  
  
 ---------------------------------------------------------------
 Warning -- This program may not be used in any manner that
 competes with the business of Gaussian, Inc. or will provide
 assistance to any competitor of Gaussian, Inc.  The licensee
 of this program is prohibited from giving any competitor of
 Gaussian, Inc. access to this program.  By using this program,
 the user acknowledges that Gaussian, Inc. is engaged in the
 business of creating and licensing software in the field of
 computational chemistry and represents and warrants to the
 licensee that it is not a competitor of Gaussian, Inc. and that
 it will not use this program in any manner prohibited above.
 ---------------------------------------------------------------
  

 Cite this work as:
 Gaussian 16, Revision C.01,
 M. J. Frisch, G. W. Trucks, H. B. Schlegel, G. E. Scuseria, 
 M. A. Robb, J. R. Cheeseman, G. Scalmani, V. Barone, 
 G. A. Petersson, H. Nakatsuji, X. Li, M. Caricato, A. V. Marenich, 
 J. Bloino, B. G. Janesko, R. Gomperts, B. Mennucci, H. P. Hratchian, 
 J. V. Ortiz, A. F. Izmaylov, J. L. Sonnenberg, D. Williams-Young, 
 F. Ding, F. Lipparini, F. Egidi, J. Goings, B. Peng, A. Petrone, 
 T. Henderson, D. Ranasinghe, V. G. Zakrzewski, J. Gao, N. Rega, 
 G. Zheng, W. Liang, M. Hada, M. Ehara, K. Toyota, R. Fukuda, 
 J. Hasegawa, M. Ishida, T. Nakajima, Y. Honda, O. Kitao, H. Nakai, 
 T. Vreven, K. Throssell, J. A. Montgomery, Jr., J. E. Peralta, 
 F. Ogliaro, M. J. Bearpark, J. J. Heyd, E. N. Brothers, K. N. Kudin, 
 V. N. Staroverov, T. A. Keith, R. Kobayashi, J. Normand, 
 K. Raghavachari, A. P. Rendell, J. C. Burant, S. S. Iyengar, 
 J. Tomasi, M. Cossi, J. M. Millam, M. Klene, C. Adamo, R. Cammi, 
 J. W. Ochterski, R. L. Martin, K. Morokuma, O. Farkas, 
 J. B. Foresman, and D. J. Fox, Gaussian, Inc., Wallingford CT, 2019.
 
 ******************************************
 Gaussian 16:  ES64L-G16RevC.01  3-Jul-2019
                18-Nov-2024 
 ******************************************
 %LindaWorkers=c3-16-ib
 %NProcShared=4
 Will use up to    4 processors via shared memory.
 %mem=25GB
 %chk=mol123.chk
 SetLPE:    new flags="-opt 'Tsnet.Node.lindarsharg: ssh'  -nodelist 'c3-16-ib.saga' -env GAUSS_MDEF=3355443200 -env GAUSS_EXEDIR="/cluster/software/Gaussian/g16_C.01/bsd:/cluster/software/Gaussian/g16_C.01""
 Will use up to    1 processors via Linda.
 -----------------------------------------------------------------
 #RHF/STO-3G int=nobasistransform Symmetry=None 5D 7F Pop=NBO7Read
 -----------------------------------------------------------------
 1/38=1,163=2,172=1/1;
 2/12=2,15=3,17=6,18=5,40=1/2;
 3/6=3,8=11,11=1,25=1,30=1,60=-1,116=1/1,2,3;
 4//1;
 5/5=2,38=5/2;
 6/7=2,8=2,9=2,10=2,28=1,40=2,113=1,114=1,124=2103/1,12;
 99/5=1,9=1/99;
 ----------
 mol123-NBO
 ----------
 Symbolic Z-matrix:
 Charge =  0 Multiplicity = 1
 O                     0.        0.        1.40559 
 C                     0.        0.        0.17906 
 C                     0.        1.28549  -0.61634 
 C                     0.       -1.28549  -0.61634 
 H                     0.        2.13492   0.06654 
 H                     0.       -2.13492   0.06654 
 H                    -0.88109   1.33155  -1.26401 
 H                     0.88109   1.33155  -1.26401 
 H                     0.88109  -1.33155  -1.26401 
 H                    -0.88109  -1.33155  -1.26401 
 
                          Input orientation:                          
 ---------------------------------------------------------------------
 Center     Atomic      Atomic             Coordinates (Angstroms)
 Number     Number       Type             X           Y           Z
 ---------------------------------------------------------------------
      1          8           0        0.000000    0.000000    1.405591
      2          6           0        0.000000    0.000000    0.179060
      3          6           0        0.000000    1.285490   -0.616342
      4          6           0        0.000000   -1.285490   -0.616342
      5          1           0        0.000000    2.134917    0.066535
      6          1           0        0.000000   -2.134917    0.066535
      7          1           0       -0.881086    1.331548   -1.264013
      8          1           0        0.881086    1.331548   -1.264013
      9          1           0        0.881086   -1.331548   -1.264013
     10          1           0       -0.881086   -1.331548   -1.264013
 ---------------------------------------------------------------------
                    Distance matrix (angstroms):
                    1          2          3          4          5
     1  O    0.000000
     2  C    1.226531   0.000000
     3  C    2.395975   1.511671   0.000000
     4  C    2.395975   1.511671   2.570980   0.000000
     5  H    2.520107   2.137880   1.089884   3.487908   0.000000
     6  H    2.520107   2.137880   3.487908   1.089884   4.269834
     7  H    3.110646   2.152160   1.094491   2.836314   1.786637
     8  H    3.110646   2.152160   1.094491   2.836314   1.786637
     9  H    3.110646   2.152160   2.836314   1.094491   3.816156
    10  H    3.110646   2.152160   2.836314   1.094491   3.816156
                    6          7          8          9         10
     6  H    0.000000
     7  H    3.816156   0.000000
     8  H    3.816156   1.762172   0.000000
     9  H    1.786637   3.193326   2.663096   0.000000
    10  H    1.786637   2.663096   3.193326   1.762172   0.000000
 Symmetry turned off by external request.
 Stoichiometry    C3H6O
 Rotational constants (GHZ):          10.0528345           8.5478062           4.9000739
 Standard basis: STO-3G (5D, 7F)
    26 basis functions,    78 primitive gaussians,    26 cartesian basis functions
    16 alpha electrons       16 beta electrons
       nuclear repulsion energy       119.1223401576 Hartrees.
 NAtoms=   10 NActive=   10 NUniq=   10 SFac= 1.00D+00 NAtFMM=   60 NAOKFM=F Big=F
 Integral buffers will be    131072 words long.
 Raffenetti 1 integral format.
 Two-electron integral symmetry is turned off.
 One-electron integrals computed using PRISM.
 NBasis=    26 RedAO= T EigKep=  2.12D-01  NBF=    26
 NBsUse=    26 1.00D-06 EigRej= -1.00D+00 NBFU=    26
 ExpMin= 1.69D-01 ExpMax= 1.31D+02 ExpMxC= 1.31D+02 IAcc=3 IRadAn=         5 AccDes= 0.00D+00
 Harris functional with IExCor=  205 and IRadAn=       5 diagonalized for initial guess.
 HarFok:  IExCor=  205 AccDes= 0.00D+00 IRadAn=         5 IDoV= 1 UseB2=F ITyADJ=14
 ICtDFT=  3500011 ScaDFX=  1.000000  1.000000  1.000000  1.000000
 FoFCou: FMM=F IPFlag=           0 FMFlag=      100000 FMFlg1=           0
         NFxFlg=           0 DoJE=T BraDBF=F KetDBF=T FulRan=T
         wScrn=  0.000000 ICntrl=       500 IOpCl=  0 I1Cent=   200000004 NGrid=           0
         NMat0=    1 NMatS0=      1 NMatT0=    0 NMatD0=    1 NMtDS0=    0 NMtDT0=    0
 Symmetry not used in FoFCou.
 Keep R1 ints in memory in canonical form, NReq=876932.
 Requested convergence on RMS density matrix=1.00D-08 within 128 cycles.
 Requested convergence on MAX density matrix=1.00D-06.
 Requested convergence on             energy=1.00D-06.
 No special actions if energy rises.
 SCF Done:  E(RHF) =  -189.534210292     A.U. after   10 cycles
            NFock= 10  Conv=0.40D-08     -V/T= 2.0086

 **********************************************************************

            Population analysis using the SCF Density.

 **********************************************************************

 Alpha  occ. eigenvalues --  -20.26703 -11.11707 -11.04989 -11.04983  -1.31546
 Alpha  occ. eigenvalues --   -0.98653  -0.91767  -0.68159  -0.58977  -0.58052
 Alpha  occ. eigenvalues --   -0.57382  -0.52139  -0.49310  -0.48195  -0.38909
 Alpha  occ. eigenvalues --   -0.32456
 Alpha virt. eigenvalues --    0.29323   0.62417   0.66530   0.67690   0.69006
 Alpha virt. eigenvalues --    0.71513   0.72109   0.73886   0.81397   1.00243
          Condensed to atoms (all electrons):
               1          2          3          4          5          6
     1  O    7.841608   0.438416  -0.026635  -0.026635  -0.001150  -0.001150
     2  C    0.438416   4.756697   0.360349   0.360349  -0.021099  -0.021099
     3  C   -0.026635   0.360349   4.766894  -0.036544   0.383042   0.001155
     4  C   -0.026635   0.360349  -0.036544   4.766894   0.001155   0.383042
     5  H   -0.001150  -0.021099   0.383042   0.001155   0.600512  -0.000038
     6  H   -0.001150  -0.021099   0.001155   0.383042  -0.000038   0.600512
     7  H    0.000294  -0.019892   0.379453  -0.000966  -0.019317   0.000010
     8  H    0.000294  -0.019892   0.379453  -0.000966  -0.019317   0.000010
     9  H    0.000294  -0.019892  -0.000966   0.379453   0.000010  -0.019317
    10  H    0.000294  -0.019892  -0.000966   0.379453   0.000010  -0.019317
               7          8          9         10
     1  O    0.000294   0.000294   0.000294   0.000294
     2  C   -0.019892  -0.019892  -0.019892  -0.019892
     3  C    0.379453   0.379453  -0.000966  -0.000966
     4  C   -0.000966  -0.000966   0.379453   0.379453
     5  H   -0.019317  -0.019317   0.000010   0.000010
     6  H    0.000010   0.000010  -0.019317  -0.019317
     7  H    0.611851  -0.020786   0.000036  -0.000125
     8  H   -0.020786   0.611851  -0.000125   0.000036
     9  H    0.000036  -0.000125   0.611851  -0.020786
    10  H   -0.000125   0.000036  -0.020786   0.611851
 Mulliken charges:
               1
     1  O   -0.225631
     2  C    0.205955
     3  C   -0.205236
     4  C   -0.205236
     5  H    0.076192
     6  H    0.076192
     7  H    0.069441
     8  H    0.069441
     9  H    0.069441
    10  H    0.069441
 Sum of Mulliken charges =  -0.00000
 Mulliken charges with hydrogens summed into heavy atoms:
               1
     1  O   -0.225631
     2  C    0.205955
     3  C    0.009838
     4  C    0.009838
 Electronic spatial extent (au):  <R**2>=            289.1254
 Charge=             -0.0000 electrons
 Dipole moment (field-independent basis, Debye):
    X=             -0.0000    Y=             -0.0000    Z=             -1.9429  Tot=              1.9429
 Quadrupole moment (field-independent basis, Debye-Ang):
   XX=            -22.5042   YY=            -22.8291   ZZ=            -26.0630
   XY=             -0.0000   XZ=              0.0000   YZ=              0.0000
 Traceless Quadrupole moment (field-independent basis, Debye-Ang):
   XX=              1.2946   YY=              0.9696   ZZ=             -2.2642
   XY=             -0.0000   XZ=              0.0000   YZ=              0.0000
 Octapole moment (field-independent basis, Debye-Ang**2):
  XXX=             -0.0000  YYY=              0.0000  ZZZ=              1.7711  XYY=             -0.0000
  XXY=             -0.0000  XXZ=              1.7654  XZZ=             -0.0000  YZZ=             -0.0000
  YYZ=              3.4000  XYZ=              0.0000
 Hexadecapole moment (field-independent basis, Debye-Ang**3):
 XXXX=            -30.1932 YYYY=           -184.7023 ZZZZ=           -130.1484 XXXY=             -0.0000
 XXXZ=              0.0000 YYYX=             -0.0000 YYYZ=              0.0000 ZZZX=              0.0000
 ZZZY=              0.0000 XXYY=            -36.4855 XXZZ=            -22.6203 YYZZ=            -51.7058
 XXYZ=              0.0000 YYXZ=              0.0000 ZZXY=             -0.0000
 N-N= 1.191223401576D+02 E-N=-6.825576480132D+02  KE= 1.879231093455D+02
 Running external command "gaunbo7 R"
         input file       "/cluster/work/users/beto93/mol123/Gau-1467368.EIn"
         output file      "/cluster/work/users/beto93/mol123/Gau-1467368.EOu"
         message file     "/cluster/work/users/beto93/mol123/Gau-1467368.EMs"
         fchk file        "/cluster/work/users/beto93/mol123/Gau-1467368.EFC"
         mat. el file     "/cluster/work/users/beto93/mol123/Gau-1467368.EUF"

 Writing WrtUnf unformatted file "/cluster/work/users/beto93/mol123/Gau-1467368.EUF"
 Gaussian matrix elements                                         Version   2 NLab=11 Len12L=8 Len4L=8
 Write SHELL TO ATOM MAP                   from file      0 offset           0 length                  14 to matrix element file.
 Write SHELL TYPES                         from file      0 offset           0 length                  14 to matrix element file.
 Write NUMBER OF PRIMITIVES PER SHELL      from file      0 offset           0 length                  14 to matrix element file.
 Write PRIMITIVE EXPONENTS                 from file      0 offset           0 length                  42 to matrix element file.
 Write CONTRACTION COEFFICIENTS            from file      0 offset           0 length                  42 to matrix element file.
 Write P(S=P) CONTRACTION COEFFICIENTS     from file      0 offset           0 length                  42 to matrix element file.
 Write COORDINATES OF EACH SHELL           from file      0 offset           0 length                  42 to matrix element file.
 Write BONDS PER ATOM                      from file      0 offset           0 length                  10 to matrix element file.
 Write BONDED ATOMS                        from file      0 offset           0 length                  18 to matrix element file.
 Write BOND TYPES                          from file      0 offset           0 length                  18 to matrix element file.
 Write ONIOM CHARGE/MULT                   from file      0 offset           0 length                  32 to matrix element file.
 Write ONIOM ATOM LAYERS                   from file      0 offset           0 length                  10 to matrix element file.
 Write ONIOM ATOM MODIFIERS                from file      0 offset           0 length                  10 to matrix element file.
 Write ONIOM ATOM TYPES                    from file      0 offset           0 length                  10 to matrix element file.
 Write ONIOM LINK ATOMS                    from file      0 offset           0 length                  10 to matrix element file.
 Write ONIOM LINK CHARGES                  from file      0 offset           0 length                  10 to matrix element file.
 Write ONIOM LINK DISTANCES                from file      0 offset           0 length                  40 to matrix element file.
 Write SYMINF INTS                         from file      0 offset           0 length                  26 to matrix element file.
 Write ROTTR TO SO                         from file      0 offset           0 length                  12 to matrix element file.
 Write GAUSSIAN SCALARS                    from file    501 offset           0 to matrix element file.
 Write OPTIMIZATION FLAGS                  from file      0 offset           0 length                  10 to matrix element file.
 Write INTEGER ISO                         from file      0 offset           0 length                  10 to matrix element file.
 Write INTEGER SPIN                        from file      0 offset           0 length                  10 to matrix element file.
 Write REAL ZEFFECTIVE                     from file      0 offset           0 length                  10 to matrix element file.
 Write REAL GFACTOR                        from file      0 offset           0 length                  10 to matrix element file.
 Write REAL ZNUCLEAR                       from file      0 offset           0 length                  10 to matrix element file.
 Write MULLIKEN CHARGES                    from file      0 offset           0 length                  10 to matrix element file.
 Write NUCLEAR GRADIENT                    from file  10584 offset           0 length                  30 to matrix element file.
 Array NUCLEAR FORCE CONSTANTS              on  file  10585 does not exist.
 Write ELECTRIC DIPOLE MOMENT              from file      0 offset           0 length                   3 to matrix element file.
 Write NON-ADIABATIC COUPLING              from file  10810 offset           0 length                  30 to matrix element file.
 Write FINITE EM FIELD                     from file  10521 offset           0 length                  35 to matrix element file.
 Write OVERLAP                             from file  10514 offset           0 length                 351 to matrix element file.
 Write CORE HAMILTONIAN ALPHA              from file  10515 offset           0 length                 351 to matrix element file.
 Write CORE HAMILTONIAN BETA               from file  10515 offset         351 length                 351 to matrix element file.
 Write KINETIC ENERGY                      from file  10516 offset           0 length                 351 to matrix element file.
 Write ORTHOGONAL BASIS                    from file  10685 offset           0 length                 676 to matrix element file.
 Write DIPOLE INTEGRALS                    from file  10518 offset           0 length                1053 to matrix element file.
 Array DIP VEL INTEGRALS                    on  file  10572 does not exist.
 Array R X DEL INTEGRALS                    on  file  10572 does not exist.
 Write ALPHA ORBITAL ENERGIES              from file      0 offset           0 length                  26 to matrix element file.
 Write ALPHA MO COEFFICIENTS               from file  10524 offset           0 length                 676 to matrix element file.
 Write ALPHA DENSITY MATRIX                from file      0 offset           0 length                 351 to matrix element file.
 Write ALPHA FOCK MATRIX                   from file  10536 offset           0 length                 351 to matrix element file.
 Write ENERGY-WEIGHTED DENSITY             from file  10571 offset           0 length                 351 to matrix element file.
 Write ALPHA SCF DENSITY MATRIX            from file      0 offset           0 length                 351 to matrix element file.
 No 2e integrals to process.
 Perform NBO analysis...executing G16NBO...

 *********************************** NBO 7.0 ***********************************
             N A T U R A L   A T O M I C   O R B I T A L   A N D
          N A T U R A L   B O N D   O R B I T A L   A N A L Y S I S
 **************************** Espen Tangen (S101595) ***************************
  (c) Copyright 1996-2021 Board of Regents of the University of Wisconsin System
      on behalf of the Theoretical Chemistry Institute.  All rights reserved.

          Cite this program [NBO 7.0.10 (8-Feb-2021)] as:

          NBO 7.0.  E. D. Glendening, J. K. Badenhoop, A. E. Reed,
          J. E. Carpenter, J. A. Bohmann, C. M. Morales, P. Karafiloglou,
          C. R. Landis, and F. Weinhold, Theoretical Chemistry Institute,
          University of Wisconsin, Madison, WI (2018)

       /NPA    / : Natural Population Analysis
       /AOPNAO / : Print the AO to PNAO transformation
       /AONAO  / : Print the AO to NAO transformation
       /AOMO   / : Print the MOs in the AO basis
       /BOAO   / : Print the AO bond-order matrix
       /DMAO   / : Print the AO density matrix
       /DMPNAO / : Print the PNAO density matrix
       /DMNAO  / : Print the NAO density matrix
       /DMMO   / : Print the MO density matrix
       /SAO    / : Print the AO overlap matrix
       /SPNAO  / : Print the PNAO overlap matrix
       /DETAIL / : Write details of NBO search
       /ARCHIVE/ : Write the archive file to lfn47
       /AOINFO / : Write AO information to lfn31
       /FILE   / : Set to mol123.gen*

 Filename set to mol123.gen1

 Job title: mol123-NBO


 MOs in the AO basis:

           AO          1       2       3       4       5       6       7       8
      ------------ ------- ------- ------- ------- ------- ------- ------- -------
   1.  O 1 (s)      0.9943  0.0002  0.0000  0.0000 -0.2145  0.0742  0.0000  0.0851
   2.  O 1 (s)      0.0259 -0.0058  0.0000  0.0004  0.7502 -0.2897  0.0000 -0.3927
   3.  O 1 (px)     0.0000  0.0000  0.0000  0.0000  0.0000  0.0000  0.0000  0.0000
   4.  O 1 (py)     0.0000  0.0000  0.0003  0.0000  0.0000  0.0000  0.0646  0.0000
   5.  O 1 (pz)    -0.0056  0.0018  0.0000 -0.0002 -0.1652 -0.0187  0.0000 -0.2526
   6.  C 2 (s)      0.0006  0.9925  0.0000  0.0035 -0.1274 -0.0954  0.0000 -0.1588
   7.  C 2 (s)     -0.0072  0.0329  0.0000 -0.0084  0.2945  0.2661  0.0000  0.5325
   8.  C 2 (px)     0.0000  0.0000  0.0000  0.0000  0.0000  0.0000  0.0000  0.0000
   9.  C 2 (py)     0.0000  0.0000 -0.0054  0.0000  0.0000  0.0000  0.1961  0.0000
  10.  C 2 (pz)    -0.0063  0.0004  0.0000  0.0031  0.1524 -0.1836  0.0000 -0.0981
  11.  C 3 (s)      0.0000 -0.0015  0.7014  0.7014 -0.0222 -0.1406 -0.1574  0.0529
  12.  C 3 (s)      0.0003 -0.0055  0.0268  0.0269  0.0555  0.3907  0.4507 -0.1680
  13.  C 3 (px)     0.0000  0.0000  0.0000  0.0000  0.0000  0.0000  0.0000  0.0000
  14.  C 3 (py)     0.0001  0.0034 -0.0001  0.0000 -0.0234 -0.0499  0.0132 -0.2473
  15.  C 3 (pz)     0.0005 -0.0024 -0.0001  0.0000  0.0169  0.0074  0.0067  0.1259
  16.  C 4 (s)      0.0000 -0.0015 -0.7014  0.7014 -0.0222 -0.1406  0.1574  0.0529
  17.  C 4 (s)      0.0003 -0.0055 -0.0268  0.0269  0.0555  0.3907 -0.4507 -0.1680
  18.  C 4 (px)     0.0000  0.0000  0.0000  0.0000  0.0000  0.0000  0.0000  0.0000
  19.  C 4 (py)    -0.0001 -0.0034 -0.0001  0.0000  0.0234  0.0499  0.0132  0.2473
  20.  C 4 (pz)     0.0005 -0.0024  0.0001  0.0000  0.0169  0.0074 -0.0067  0.1259
  21.  H 5 (s)     -0.0002 -0.0001 -0.0048 -0.0050  0.0096  0.0853  0.1364 -0.1481
  22.  H 6 (s)     -0.0002 -0.0001  0.0048 -0.0050  0.0096  0.0853 -0.1364 -0.1481
  23.  H 7 (s)      0.0000 -0.0001 -0.0049 -0.0049  0.0060  0.1025  0.1266 -0.1253
  24.  H 8 (s)      0.0000 -0.0001 -0.0049 -0.0049  0.0060  0.1025  0.1266 -0.1253
  25.  H 9 (s)      0.0000 -0.0001  0.0049 -0.0049  0.0060  0.1025 -0.1266 -0.1253
  26.  H10 (s)      0.0000 -0.0001  0.0049 -0.0049  0.0060  0.1025 -0.1266 -0.1253

           AO          9      10      11      12      13      14      15      16
      ------------ ------- ------- ------- ------- ------- ------- ------- -------
   1.  O 1 (s)      0.0000  0.0000 -0.0661  0.0000  0.0000 -0.0610  0.0000  0.0000
   2.  O 1 (s)      0.0000  0.0000  0.3359  0.0000  0.0000  0.3383  0.0000  0.0000
   3.  O 1 (px)     0.0000  0.1947  0.0000  0.0000  0.0000  0.0000  0.6692  0.0000
   4.  O 1 (py)     0.3967  0.0000  0.0000  0.0000 -0.2698  0.0000  0.0000  0.8483
   5.  O 1 (pz)     0.0000  0.0000  0.3111  0.0000  0.0000  0.5646  0.0000  0.0000
   6.  C 2 (s)      0.0000  0.0000  0.0189  0.0000  0.0000  0.0060  0.0000  0.0000
   7.  C 2 (s)      0.0000  0.0000 -0.0597  0.0000  0.0000 -0.0105  0.0000  0.0000
   8.  C 2 (px)     0.0000  0.2824  0.0000  0.0000  0.0000  0.0000  0.5291  0.0000
   9.  C 2 (py)     0.4013  0.0000  0.0000  0.0000 -0.2718  0.0000  0.0000 -0.1925
  10.  C 2 (pz)     0.0000  0.0000 -0.2381  0.0000  0.0000 -0.4006  0.0000  0.0000
  11.  C 3 (s)      0.0156  0.0000  0.0089  0.0000  0.0052 -0.0095  0.0000  0.0359
  12.  C 3 (s)     -0.0577  0.0000 -0.0325  0.0000 -0.0178  0.0345  0.0000 -0.1562
  13.  C 3 (px)     0.0000  0.3609  0.0000  0.4148  0.0000  0.0000 -0.1582  0.0000
  14.  C 3 (py)    -0.0948  0.0000 -0.2411  0.0000  0.3431 -0.0490  0.0000  0.2754
  15.  C 3 (pz)     0.3115  0.0000 -0.2522  0.0000  0.1987  0.2826  0.0000 -0.1801
  16.  C 4 (s)     -0.0156  0.0000  0.0089  0.0000 -0.0052 -0.0095  0.0000 -0.0359
  17.  C 4 (s)      0.0577  0.0000 -0.0325  0.0000  0.0178  0.0345  0.0000  0.1562
  18.  C 4 (px)     0.0000  0.3609  0.0000 -0.4148  0.0000  0.0000 -0.1582  0.0000
  19.  C 4 (py)    -0.0948  0.0000  0.2411  0.0000  0.3431  0.0490  0.0000  0.2754
  20.  C 4 (pz)    -0.3115  0.0000 -0.2522  0.0000 -0.1987  0.2826  0.0000  0.1801
  21.  H 5 (s)      0.0804  0.0000 -0.2933  0.0000  0.3619  0.1551  0.0000  0.0692
  22.  H 6 (s)     -0.0804  0.0000 -0.2933  0.0000 -0.3619  0.1551  0.0000 -0.0692
  23.  H 7 (s)     -0.1741 -0.2497  0.1072 -0.3037 -0.1039 -0.1540  0.1681  0.0666
  24.  H 8 (s)     -0.1741  0.2497  0.1072  0.3037 -0.1039 -0.1540 -0.1681  0.0666
  25.  H 9 (s)      0.1741  0.2497  0.1072 -0.3037  0.1039 -0.1540 -0.1681 -0.0666
  26.  H10 (s)      0.1741 -0.2497  0.1072  0.3037  0.1039 -0.1540  0.1681 -0.0666

           AO         17      18      19      20      21      22      23      24
      ------------ ------- ------- ------- ------- ------- ------- ------- -------
   1.  O 1 (s)      0.0000 -0.0048  0.0490  0.0000  0.0000 -0.0153  0.0000  0.0000
   2.  O 1 (s)      0.0000  0.0527 -0.3253  0.0000  0.0000  0.0968  0.0000  0.0000
   3.  O 1 (px)    -0.7335  0.0000  0.0000  0.0000  0.0000  0.0000  0.1455  0.0000
   4.  O 1 (py)     0.0000  0.0000  0.0000 -0.1830  0.0000  0.0000  0.0000 -0.0033
   5.  O 1 (pz)     0.0000 -0.0554  0.4360  0.0000  0.0000 -0.1080  0.0000  0.0000
   6.  C 2 (s)      0.0000 -0.1264 -0.1662  0.0000  0.0000  0.0619  0.0000  0.0000
   7.  C 2 (s)      0.0000  0.7527  1.0154  0.0000  0.0000 -0.3690  0.0000  0.0000
   8.  C 2 (px)     0.7905  0.0000  0.0000  0.0000  0.0000  0.0000 -0.3568  0.0000
   9.  C 2 (py)     0.0000  0.0000  0.0000  0.6430  0.0000  0.0000  0.0000  0.1110
  10.  C 2 (pz)     0.0000 -0.5160 -0.0319  0.0000  0.0000  0.0788  0.0000  0.0000
  11.  C 3 (s)      0.0000  0.0440  0.0346  0.0273  0.0000 -0.1720  0.0000 -0.1329
  12.  C 3 (s)      0.0000 -0.2488 -0.1954 -0.1535  0.0000  1.0854  0.0000  0.8546
  13.  C 3 (px)     0.0723  0.0000  0.0000  0.0000  0.7705  0.0000  0.7930  0.0000
  14.  C 3 (py)     0.0000  0.2720  0.6776  0.7004  0.0000  0.1932  0.0000  0.2587
  15.  C 3 (pz)     0.0000 -0.6978  0.1794  0.2541  0.0000 -0.1051  0.0000 -0.4568
  16.  C 4 (s)      0.0000  0.0440  0.0346 -0.0273  0.0000 -0.1720  0.0000  0.1329
  17.  C 4 (s)      0.0000 -0.2488 -0.1954  0.1535  0.0000  1.0854  0.0000 -0.8546
  18.  C 4 (px)     0.0723  0.0000  0.0000  0.0000 -0.7705  0.0000  0.7930  0.0000
  19.  C 4 (py)     0.0000 -0.2720 -0.6776  0.7004  0.0000 -0.1932  0.0000  0.2587
  20.  C 4 (pz)     0.0000 -0.6978  0.1794 -0.2541  0.0000 -0.1051  0.0000  0.4568
  21.  H 5 (s)      0.0000  0.3933 -0.5367 -0.6310  0.0000 -0.5518  0.0000 -0.2766
  22.  H 6 (s)      0.0000  0.3933 -0.5367  0.6310  0.0000 -0.5518  0.0000  0.2766
  23.  H 7 (s)      0.1975 -0.3002  0.1760  0.1964  0.6139 -0.4984  0.5658 -0.6144
  24.  H 8 (s)     -0.1975 -0.3002  0.1760  0.1964 -0.6139 -0.4984 -0.5658 -0.6144
  25.  H 9 (s)     -0.1975 -0.3002  0.1760 -0.1964  0.6139 -0.4984 -0.5658  0.6144
  26.  H10 (s)      0.1975 -0.3002  0.1760 -0.1964 -0.6139 -0.4984  0.5658  0.6144

           AO         25      26
      ------------ ------- -------
   1.  O 1 (s)      0.0000  0.1064
   2.  O 1 (s)      0.0000 -0.7962
   3.  O 1 (px)     0.0000  0.0000
   4.  O 1 (py)    -0.2548  0.0000
   5.  O 1 (pz)     0.0000  0.8431
   6.  C 2 (s)      0.0000 -0.0789
   7.  C 2 (s)      0.0000  0.5359
   8.  C 2 (px)     0.0000  0.0000
   9.  C 2 (py)     0.9702  0.0000
  10.  C 2 (pz)     0.0000  1.1627
  11.  C 3 (s)      0.1092 -0.0228
  12.  C 3 (s)     -0.7022  0.1655
  13.  C 3 (px)     0.0000  0.0000
  14.  C 3 (py)     0.0625 -0.2934
  15.  C 3 (pz)    -0.6101 -0.2841
  16.  C 4 (s)     -0.1092 -0.0228
  17.  C 4 (s)      0.7022  0.1655
  18.  C 4 (px)     0.0000  0.0000
  19.  C 4 (py)     0.0625  0.2934
  20.  C 4 (pz)     0.6101 -0.2841
  21.  H 5 (s)      0.5476  0.2076
  22.  H 6 (s)     -0.5476  0.2076
  23.  H 7 (s)     -0.0193 -0.1536
  24.  H 8 (s)     -0.0193 -0.1536
  25.  H 9 (s)      0.0193 -0.1536
  26.  H10 (s)      0.0193 -0.1536


 AO overlap matrix:

           AO          1       2       3       4       5       6       7       8
      ------------ ------- ------- ------- ------- ------- ------- ------- -------
   1.  O 1 (s)      1.0000  0.2367  0.0000  0.0000  0.0000  0.0000  0.0356  0.0000
   2.  O 1 (s)      0.2367  1.0000  0.0000  0.0000  0.0000  0.0346  0.3558  0.0000
   3.  O 1 (px)     0.0000  0.0000  1.0000  0.0000  0.0000  0.0000  0.0000  0.2045
   4.  O 1 (py)     0.0000  0.0000  0.0000  1.0000  0.0000  0.0000  0.0000  0.0000
   5.  O 1 (pz)     0.0000  0.0000  0.0000  0.0000  1.0000 -0.0583 -0.3171  0.0000
   6.  C 2 (s)      0.0000  0.0346  0.0000  0.0000 -0.0583  1.0000  0.2484  0.0000
   7.  C 2 (s)      0.0356  0.3558  0.0000  0.0000 -0.3171  0.2484  1.0000  0.0000
   8.  C 2 (px)     0.0000  0.0000  0.2045  0.0000  0.0000  0.0000  0.0000  1.0000
   9.  C 2 (py)     0.0000  0.0000  0.0000  0.2045  0.0000  0.0000  0.0000  0.0000
  10.  C 2 (pz)     0.0599  0.4357  0.0000  0.0000 -0.3132  0.0000  0.0000  0.0000
  11.  C 3 (s)      0.0000  0.0002  0.0000  0.0003 -0.0004  0.0000  0.0286  0.0000
  12.  C 3 (s)      0.0012  0.0315  0.0000  0.0231 -0.0364  0.0286  0.3113  0.0000
  13.  C 3 (px)     0.0000  0.0000  0.0119  0.0000  0.0000  0.0000  0.0000  0.1734
  14.  C 3 (py)    -0.0015 -0.0290  0.0000 -0.0111  0.0362 -0.0406 -0.2950  0.0000
  15.  C 3 (pz)     0.0023  0.0456  0.0000  0.0362 -0.0450  0.0251  0.1825  0.0000
  16.  C 4 (s)      0.0000  0.0002  0.0000 -0.0003 -0.0004  0.0000  0.0286  0.0000
  17.  C 4 (s)      0.0012  0.0315  0.0000 -0.0231 -0.0364  0.0286  0.3113  0.0000
  18.  C 4 (px)     0.0000  0.0000  0.0119  0.0000  0.0000  0.0000  0.0000  0.1734
  19.  C 4 (py)     0.0015  0.0290  0.0000 -0.0111 -0.0362  0.0406  0.2950  0.0000
  20.  C 4 (pz)     0.0023  0.0456  0.0000 -0.0362 -0.0450  0.0251  0.1825  0.0000
  21.  H 5 (s)      0.0012  0.0243  0.0000  0.0256 -0.0161  0.0057  0.1005  0.0000
  22.  H 6 (s)      0.0012  0.0243  0.0000 -0.0256 -0.0161  0.0057  0.1005  0.0000
  23.  H 7 (s)      0.0002  0.0055 -0.0022  0.0033 -0.0067  0.0055  0.0979 -0.0517
  24.  H 8 (s)      0.0002  0.0055  0.0022  0.0033 -0.0067  0.0055  0.0979  0.0517
  25.  H 9 (s)      0.0002  0.0055  0.0022 -0.0033 -0.0067  0.0055  0.0979  0.0517
  26.  H10 (s)      0.0002  0.0055 -0.0022 -0.0033 -0.0067  0.0055  0.0979 -0.0517

           AO          9      10      11      12      13      14      15      16
      ------------ ------- ------- ------- ------- ------- ------- ------- -------
   1.  O 1 (s)      0.0000  0.0599  0.0000  0.0012  0.0000 -0.0015  0.0023  0.0000
   2.  O 1 (s)      0.0000  0.4357  0.0002  0.0315  0.0000 -0.0290  0.0456  0.0002
   3.  O 1 (px)     0.0000  0.0000  0.0000  0.0000  0.0119  0.0000  0.0000  0.0000
   4.  O 1 (py)     0.2045  0.0000  0.0003  0.0231  0.0000 -0.0111  0.0362 -0.0003
   5.  O 1 (pz)     0.0000 -0.3132 -0.0004 -0.0364  0.0000  0.0362 -0.0450 -0.0004
   6.  C 2 (s)      0.0000  0.0000  0.0000  0.0286  0.0000 -0.0406  0.0251  0.0000
   7.  C 2 (s)      0.0000  0.0000  0.0286  0.3113  0.0000 -0.2950  0.1825  0.0286
   8.  C 2 (px)     0.0000  0.0000  0.0000  0.0000  0.1734  0.0000  0.0000  0.0000
   9.  C 2 (py)     1.0000  0.0000  0.0406  0.2950  0.0000 -0.1821  0.2199 -0.0406
  10.  C 2 (pz)     0.0000  1.0000 -0.0251 -0.1825  0.0000  0.2199  0.0373 -0.0251
  11.  C 3 (s)      0.0406 -0.0251  1.0000  0.2484  0.0000  0.0000  0.0000  0.0000
  12.  C 3 (s)      0.2950 -0.1825  0.2484  1.0000  0.0000  0.0000  0.0000  0.0010
  13.  C 3 (px)     0.0000  0.0000  0.0000  0.0000  1.0000  0.0000  0.0000  0.0000
  14.  C 3 (py)    -0.1821  0.2199  0.0000  0.0000  0.0000  1.0000  0.0000 -0.0025
  15.  C 3 (pz)     0.2199  0.0373  0.0000  0.0000  0.0000  0.0000  1.0000  0.0000
  16.  C 4 (s)     -0.0406 -0.0251  0.0000  0.0010  0.0000 -0.0025  0.0000  1.0000
  17.  C 4 (s)     -0.2950 -0.1825  0.0010  0.0437  0.0000 -0.0668  0.0000  0.2484
  18.  C 4 (px)     0.0000  0.0000  0.0000  0.0000  0.0177  0.0000  0.0000  0.0000
  19.  C 4 (py)    -0.1821 -0.2199  0.0025  0.0668  0.0000 -0.0938  0.0000  0.0000
  20.  C 4 (pz)    -0.2199  0.0373  0.0000  0.0000  0.0000  0.0000  0.0177  0.0000
  21.  H 5 (s)      0.1289 -0.0068  0.0623  0.4908  0.0000  0.3642  0.2928  0.0001
  22.  H 6 (s)     -0.1289 -0.0068  0.0001  0.0053  0.0000 -0.0088  0.0018  0.0623
  23.  H 7 (s)      0.0781 -0.0846  0.0616  0.4882 -0.3749  0.0196 -0.2756  0.0007
  24.  H 8 (s)      0.0781 -0.0846  0.0616  0.4882  0.3749  0.0196 -0.2756  0.0007
  25.  H 9 (s)     -0.0781 -0.0846  0.0007  0.0248  0.0115 -0.0342 -0.0085  0.0616
  26.  H10 (s)     -0.0781 -0.0846  0.0007  0.0248 -0.0115 -0.0342 -0.0085  0.0616

           AO         17      18      19      20      21      22      23      24
      ------------ ------- ------- ------- ------- ------- ------- ------- -------
   1.  O 1 (s)      0.0012  0.0000  0.0015  0.0023  0.0012  0.0012  0.0002  0.0002
   2.  O 1 (s)      0.0315  0.0000  0.0290  0.0456  0.0243  0.0243  0.0055  0.0055
   3.  O 1 (px)     0.0000  0.0119  0.0000  0.0000  0.0000  0.0000 -0.0022  0.0022
   4.  O 1 (py)    -0.0231  0.0000 -0.0111 -0.0362  0.0256 -0.0256  0.0033  0.0033
   5.  O 1 (pz)    -0.0364  0.0000 -0.0362 -0.0450 -0.0161 -0.0161 -0.0067 -0.0067
   6.  C 2 (s)      0.0286  0.0000  0.0406  0.0251  0.0057  0.0057  0.0055  0.0055
   7.  C 2 (s)      0.3113  0.0000  0.2950  0.1825  0.1005  0.1005  0.0979  0.0979
   8.  C 2 (px)     0.0000  0.1734  0.0000  0.0000  0.0000  0.0000 -0.0517  0.0517
   9.  C 2 (py)    -0.2950  0.0000 -0.1821 -0.2199  0.1289 -0.1289  0.0781  0.0781
  10.  C 2 (pz)    -0.1825  0.0000 -0.2199  0.0373 -0.0068 -0.0068 -0.0846 -0.0846
  11.  C 3 (s)      0.0010  0.0000  0.0025  0.0000  0.0623  0.0001  0.0616  0.0616
  12.  C 3 (s)      0.0437  0.0000  0.0668  0.0000  0.4908  0.0053  0.4882  0.4882
  13.  C 3 (px)     0.0000  0.0177  0.0000  0.0000  0.0000  0.0000 -0.3749  0.3749
  14.  C 3 (py)    -0.0668  0.0000 -0.0938  0.0000  0.3642 -0.0088  0.0196  0.0196
  15.  C 3 (pz)     0.0000  0.0000  0.0000  0.0177  0.2928  0.0018 -0.2756 -0.2756
  16.  C 4 (s)      0.2484  0.0000  0.0000  0.0000  0.0001  0.0623  0.0007  0.0007
  17.  C 4 (s)      1.0000  0.0000  0.0000  0.0000  0.0053  0.4908  0.0248  0.0248
  18.  C 4 (px)     0.0000  1.0000  0.0000  0.0000  0.0000  0.0000 -0.0115  0.0115
  19.  C 4 (py)     0.0000  0.0000  1.0000  0.0000  0.0088 -0.3642  0.0342  0.0342
  20.  C 4 (pz)     0.0000  0.0000  0.0000  1.0000  0.0018  0.2928 -0.0085 -0.0085
  21.  H 5 (s)      0.0053  0.0000  0.0088  0.0018  1.0000  0.0009  0.1675  0.1675
  22.  H 6 (s)      0.4908  0.0000 -0.3642  0.2928  0.0009  1.0000  0.0028  0.0028
  23.  H 7 (s)      0.0248 -0.0115  0.0342 -0.0085  0.1675  0.0028  1.0000  0.1740
  24.  H 8 (s)      0.0248  0.0115  0.0342 -0.0085  0.1675  0.0028  0.1740  1.0000
  25.  H 9 (s)      0.4882  0.3749 -0.0196 -0.2756  0.0028  0.1675  0.0120  0.0362
  26.  H10 (s)      0.4882 -0.3749 -0.0196 -0.2756  0.0028  0.1675  0.0362  0.0120

           AO         25      26
      ------------ ------- -------
   1.  O 1 (s)      0.0002  0.0002
   2.  O 1 (s)      0.0055  0.0055
   3.  O 1 (px)     0.0022 -0.0022
   4.  O 1 (py)    -0.0033 -0.0033
   5.  O 1 (pz)    -0.0067 -0.0067
   6.  C 2 (s)      0.0055  0.0055
   7.  C 2 (s)      0.0979  0.0979
   8.  C 2 (px)     0.0517 -0.0517
   9.  C 2 (py)    -0.0781 -0.0781
  10.  C 2 (pz)    -0.0846 -0.0846
  11.  C 3 (s)      0.0007  0.0007
  12.  C 3 (s)      0.0248  0.0248
  13.  C 3 (px)     0.0115 -0.0115
  14.  C 3 (py)    -0.0342 -0.0342
  15.  C 3 (pz)    -0.0085 -0.0085
  16.  C 4 (s)      0.0616  0.0616
  17.  C 4 (s)      0.4882  0.4882
  18.  C 4 (px)     0.3749 -0.3749
  19.  C 4 (py)    -0.0196 -0.0196
  20.  C 4 (pz)    -0.2756 -0.2756
  21.  H 5 (s)      0.0028  0.0028
  22.  H 6 (s)      0.1675  0.1675
  23.  H 7 (s)      0.0120  0.0362
  24.  H 8 (s)      0.0362  0.0120
  25.  H 9 (s)      1.0000  0.1740
  26.  H10 (s)      0.1740  1.0000


 AO bond-order matrix:

           AO          1       2       3       4       5       6       7       8
      ------------ ------- ------- ------- ------- ------- ------- ------- -------
   1.  O 1 (s)      2.1108 -0.4657  0.0000  0.0000 -0.0960  0.0117 -0.0013  0.0000
   2.  O 1 (s)     -0.4657  2.0577  0.0000  0.0000  0.5522 -0.0059 -0.1786  0.0000
   3.  O 1 (px)     0.0000  0.0000  0.9715  0.0000  0.0000  0.0000  0.0000  0.8181
   4.  O 1 (py)     0.0000  0.0000  0.0000  1.9079  0.0000  0.0000  0.0000  0.0000
   5.  O 1 (pz)    -0.0960  0.5522  0.0000  0.0000  1.0141  0.1480 -0.4251  0.0000
   6.  C 2 (s)      0.0117 -0.0059  0.0000  0.0000  0.1480  2.0722 -0.2320  0.0000
   7.  C 2 (s)     -0.0013 -0.1786  0.0000  0.0000 -0.4251 -0.2320  0.8920  0.0000
   8.  C 2 (px)     0.0000  0.0000  0.8181  0.0000  0.0000  0.0000  0.0000  0.7193
   9.  C 2 (py)     0.0000  0.0000  0.0000  0.1637  0.0000  0.0000  0.0000  0.0000
  10.  C 2 (pz)    -0.0415 -0.0193  0.0000  0.0000 -0.5943  0.0144 -0.0756  0.0000
  11.  C 3 (s)     -0.0024  0.0067  0.0000  0.0505 -0.0196  0.0178 -0.0443  0.0000
  12.  C 3 (s)      0.0062 -0.0094  0.0000 -0.2430  0.0706 -0.0470  0.0640  0.0000
  13.  C 3 (px)     0.0000  0.0000 -0.0712  0.0000  0.0000  0.0000  0.0000  0.0364
  14.  C 3 (py)    -0.0013 -0.0071  0.0000  0.2086 -0.0707  0.0911 -0.2737  0.0000
  15.  C 3 (pz)     0.0151 -0.0560  0.0000 -0.1648  0.0927 -0.0566  0.1720  0.0000
  16.  C 4 (s)     -0.0024  0.0067  0.0000 -0.0505 -0.0196  0.0178 -0.0443  0.0000
  17.  C 4 (s)      0.0062 -0.0094  0.0000  0.2430  0.0706 -0.0470  0.0640  0.0000
  18.  C 4 (px)     0.0000  0.0000 -0.0712  0.0000  0.0000  0.0000  0.0000  0.0364
  19.  C 4 (py)     0.0013  0.0071  0.0000  0.2086  0.0707 -0.0911  0.2737  0.0000
  20.  C 4 (pz)     0.0151 -0.0560  0.0000  0.1648  0.0927 -0.0566  0.1720  0.0000
  21.  H 5 (s)      0.0028 -0.0109  0.0000  0.0036  0.0611  0.0189 -0.0748  0.0000
  22.  H 6 (s)      0.0028 -0.0109  0.0000 -0.0036  0.0611  0.0189 -0.0748  0.0000
  23.  H 7 (s)     -0.0040  0.0158  0.1277  0.0472 -0.0497  0.0206 -0.0849  0.0368
  24.  H 8 (s)     -0.0040  0.0158 -0.1277  0.0472 -0.0497  0.0206 -0.0849 -0.0368
  25.  H 9 (s)     -0.0040  0.0158 -0.1277 -0.0472 -0.0497  0.0206 -0.0849 -0.0368
  26.  H10 (s)     -0.0040  0.0158  0.1277 -0.0472 -0.0497  0.0206 -0.0849  0.0368

           AO          9      10      11      12      13      14      15      16
      ------------ ------- ------- ------- ------- ------- ------- ------- -------
   1.  O 1 (s)      0.0000 -0.0415 -0.0024  0.0062  0.0000 -0.0013  0.0151 -0.0024
   2.  O 1 (s)      0.0000 -0.0193  0.0067 -0.0094  0.0000 -0.0071 -0.0560  0.0067
   3.  O 1 (px)     0.0000  0.0000  0.0000  0.0000 -0.0712  0.0000  0.0000  0.0000
   4.  O 1 (py)     0.1637  0.0000  0.0505 -0.2430  0.0000  0.2086 -0.1648 -0.0505
   5.  O 1 (pz)     0.0000 -0.5943 -0.0196  0.0706  0.0000 -0.0707  0.0927 -0.0196
   6.  C 2 (s)      0.0000  0.0144  0.0178 -0.0470  0.0000  0.0911 -0.0566  0.0178
   7.  C 2 (s)      0.0000 -0.0756 -0.0443  0.0640  0.0000 -0.2737  0.1720 -0.0443
   8.  C 2 (px)     0.0000  0.0000  0.0000  0.0000  0.0364  0.0000  0.0000  0.0000
   9.  C 2 (py)     0.6209  0.0000 -0.0734  0.2000  0.0000 -0.3634  0.2140  0.0734
  10.  C 2 (pz)     0.0000  0.5675  0.0423 -0.1056  0.0000  0.2138 -0.1286  0.0423
  11.  C 3 (s)     -0.0734  0.0423  2.0669 -0.2111  0.0000  0.0015 -0.0027 -0.0061
  12.  C 3 (s)      0.2000 -0.1056 -0.2111  0.8378  0.0000 -0.0217  0.0205  0.0240
  13.  C 3 (px)     0.0000  0.0000  0.0000  0.0000  0.6547  0.0000  0.0000  0.0000
  14.  C 3 (py)    -0.3634  0.2138  0.0015 -0.0217  0.0000  0.6549  0.0084 -0.0306
  15.  C 3 (pz)     0.2140 -0.1286 -0.0027  0.0205  0.0000  0.0084  0.6574  0.0040
  16.  C 4 (s)      0.0734  0.0423 -0.0061  0.0240  0.0000 -0.0306  0.0040  2.0669
  17.  C 4 (s)     -0.2000 -0.1056  0.0240 -0.0899  0.0000  0.1292 -0.0180 -0.2111
  18.  C 4 (px)     0.0000  0.0000  0.0000  0.0000 -0.0335  0.0000  0.0000  0.0000
  19.  C 4 (py)    -0.3634 -0.2138  0.0306 -0.1292  0.0000  0.1559 -0.0519 -0.0015
  20.  C 4 (pz)    -0.2140 -0.1286  0.0040 -0.0180  0.0000  0.0519 -0.0185 -0.0027
  21.  H 5 (s)     -0.1053  0.0161 -0.0937  0.2258  0.0000  0.4654  0.3707 -0.0168
  22.  H 6 (s)      0.1053  0.0161 -0.0168  0.0681  0.0000 -0.0843  0.0291 -0.0937
  23.  H 7 (s)     -0.0591  0.0611 -0.0929  0.2219 -0.4854  0.0166 -0.3430  0.0041
  24.  H 8 (s)     -0.0591  0.0611 -0.0929  0.2219  0.4854  0.0166 -0.3430  0.0041
  25.  H 9 (s)      0.0591  0.0611  0.0041 -0.0119 -0.0185  0.0132  0.0011 -0.0929
  26.  H10 (s)      0.0591  0.0611  0.0041 -0.0119  0.0185  0.0132  0.0011 -0.0929

           AO         17      18      19      20      21      22      23      24
      ------------ ------- ------- ------- ------- ------- ------- ------- -------
   1.  O 1 (s)      0.0062  0.0000  0.0013  0.0151  0.0028  0.0028 -0.0040 -0.0040
   2.  O 1 (s)     -0.0094  0.0000  0.0071 -0.0560 -0.0109 -0.0109  0.0158  0.0158
   3.  O 1 (px)     0.0000 -0.0712  0.0000  0.0000  0.0000  0.0000  0.1277 -0.1277
   4.  O 1 (py)     0.2430  0.0000  0.2086  0.1648  0.0036 -0.0036  0.0472  0.0472
   5.  O 1 (pz)     0.0706  0.0000  0.0707  0.0927  0.0611  0.0611 -0.0497 -0.0497
   6.  C 2 (s)     -0.0470  0.0000 -0.0911 -0.0566  0.0189  0.0189  0.0206  0.0206
   7.  C 2 (s)      0.0640  0.0000  0.2737  0.1720 -0.0748 -0.0748 -0.0849 -0.0849
   8.  C 2 (px)     0.0000  0.0364  0.0000  0.0000  0.0000  0.0000  0.0368 -0.0368
   9.  C 2 (py)    -0.2000  0.0000 -0.3634 -0.2140 -0.1053  0.1053 -0.0591 -0.0591
  10.  C 2 (pz)    -0.1056  0.0000 -0.2138 -0.1286  0.0161  0.0161  0.0611  0.0611
  11.  C 3 (s)      0.0240  0.0000  0.0306  0.0040 -0.0937 -0.0168 -0.0929 -0.0929
  12.  C 3 (s)     -0.0899  0.0000 -0.1292 -0.0180  0.2258  0.0681  0.2219  0.2219
  13.  C 3 (px)     0.0000 -0.0335  0.0000  0.0000  0.0000  0.0000 -0.4854  0.4854
  14.  C 3 (py)     0.1292  0.0000  0.1559  0.0519  0.4654 -0.0843  0.0166  0.0166
  15.  C 3 (pz)    -0.0180  0.0000 -0.0519 -0.0185  0.3707  0.0291 -0.3430 -0.3430
  16.  C 4 (s)     -0.2111  0.0000 -0.0015 -0.0027 -0.0168 -0.0937  0.0041  0.0041
  17.  C 4 (s)      0.8378  0.0000  0.0217  0.0205  0.0681  0.2258 -0.0119 -0.0119
  18.  C 4 (px)     0.0000  0.6547  0.0000  0.0000  0.0000  0.0000  0.0185 -0.0185
  19.  C 4 (py)     0.0217  0.0000  0.6549 -0.0084  0.0843 -0.4654 -0.0132 -0.0132
  20.  C 4 (pz)     0.0205  0.0000 -0.0084  0.6574  0.0291  0.3707  0.0011  0.0011
  21.  H 5 (s)      0.0681  0.0000  0.0843  0.0291  0.6005 -0.0430 -0.1153 -0.1153
  22.  H 6 (s)      0.2258  0.0000 -0.4654  0.3707 -0.0430  0.6005  0.0036  0.0036
  23.  H 7 (s)     -0.0119  0.0185 -0.0132  0.0011 -0.1153  0.0036  0.6119 -0.1195
  24.  H 8 (s)     -0.0119 -0.0185 -0.0132  0.0011 -0.1153  0.0036 -0.1195  0.6119
  25.  H 9 (s)      0.2219  0.4854 -0.0166 -0.3430  0.0036 -0.1153  0.0030 -0.0034
  26.  H10 (s)      0.2219 -0.4854 -0.0166 -0.3430  0.0036 -0.1153 -0.0034  0.0030

           AO         25      26
      ------------ ------- -------
   1.  O 1 (s)     -0.0040 -0.0040
   2.  O 1 (s)      0.0158  0.0158
   3.  O 1 (px)    -0.1277  0.1277
   4.  O 1 (py)    -0.0472 -0.0472
   5.  O 1 (pz)    -0.0497 -0.0497
   6.  C 2 (s)      0.0206  0.0206
   7.  C 2 (s)     -0.0849 -0.0849
   8.  C 2 (px)    -0.0368  0.0368
   9.  C 2 (py)     0.0591  0.0591
  10.  C 2 (pz)     0.0611  0.0611
  11.  C 3 (s)      0.0041  0.0041
  12.  C 3 (s)     -0.0119 -0.0119
  13.  C 3 (px)    -0.0185  0.0185
  14.  C 3 (py)     0.0132  0.0132
  15.  C 3 (pz)     0.0011  0.0011
  16.  C 4 (s)     -0.0929 -0.0929
  17.  C 4 (s)      0.2219  0.2219
  18.  C 4 (px)     0.4854 -0.4854
  19.  C 4 (py)    -0.0166 -0.0166
  20.  C 4 (pz)    -0.3430 -0.3430
  21.  H 5 (s)      0.0036  0.0036
  22.  H 6 (s)     -0.1153 -0.1153
  23.  H 7 (s)      0.0030 -0.0034
  24.  H 8 (s)     -0.0034  0.0030
  25.  H 9 (s)      0.6119 -0.1195
  26.  H10 (s)     -0.1195  0.6119


 AO density matrix:

           AO          1       2       3       4       5       6       7       8
      ------------ ------- ------- ------- ------- ------- ------- ------- -------
   1.  O 1 (s)      1.9999  0.4746  0.0000  0.0000 -0.0057  0.0001  0.0679  0.0000
   2.  O 1 (s)      0.4746  1.9887  0.0000  0.0000  0.0539  0.0681  0.7407  0.0000
   3.  O 1 (px)     0.0000  0.0000  1.3311  0.0000  0.0000  0.0000  0.0000  1.1527
   4.  O 1 (py)     0.0000  0.0000  0.0000  1.9626  0.0000  0.0000  0.0000  0.0000
   5.  O 1 (pz)    -0.0057  0.0539  0.0000  0.0000  1.7357 -0.1101 -0.7948  0.0000
   6.  C 2 (s)      0.0001  0.0681  0.0000  0.0000 -0.1101  1.9996  0.5054  0.0000
   7.  C 2 (s)      0.0679  0.7407  0.0000  0.0000 -0.7948  0.5054  1.8074  0.0000
   8.  C 2 (px)     0.0000  0.0000  1.1527  0.0000  0.0000  0.0000  0.0000  1.1622
   9.  C 2 (py)     0.0000  0.0000  0.0000  0.5319  0.0000  0.0000  0.0000  0.0000
  10.  C 2 (pz)     0.1139  0.9301  0.0000  0.0000 -0.8874  0.0004 -0.0364  0.0000
  11.  C 3 (s)      0.0000  0.0004  0.0000  0.0022 -0.0016  0.0002  0.0538  0.0000
  12.  C 3 (s)      0.0025  0.0628  0.0000  0.0174 -0.0646  0.0546  0.6739  0.0000
  13.  C 3 (px)     0.0000  0.0000  0.0266  0.0000  0.0000  0.0000  0.0000  0.3899
  14.  C 3 (py)    -0.0033 -0.0579  0.0000  0.0369  0.0370 -0.0748 -0.7228  0.0000
  15.  C 3 (pz)     0.0050  0.0903  0.0000  0.0399 -0.0926  0.0465  0.4371  0.0000
  16.  C 4 (s)      0.0000  0.0004  0.0000 -0.0022 -0.0016  0.0002  0.0538  0.0000
  17.  C 4 (s)      0.0025  0.0628  0.0000 -0.0174 -0.0646  0.0546  0.6739  0.0000
  18.  C 4 (px)     0.0000  0.0000  0.0266  0.0000  0.0000  0.0000  0.0000  0.3899
  19.  C 4 (py)     0.0033  0.0579  0.0000  0.0369 -0.0370  0.0748  0.7228  0.0000
  20.  C 4 (pz)     0.0050  0.0903  0.0000 -0.0399 -0.0926  0.0465  0.4371  0.0000
  21.  H 5 (s)      0.0026  0.0465  0.0000  0.0487 -0.0032  0.0117  0.2012  0.0000
  22.  H 6 (s)      0.0026  0.0465  0.0000 -0.0487 -0.0032  0.0117  0.2012  0.0000
  23.  H 7 (s)      0.0001  0.0136  0.0775  0.0153 -0.0341  0.0113  0.1852 -0.1641
  24.  H 8 (s)      0.0001  0.0136 -0.0775  0.0153 -0.0341  0.0113  0.1852  0.1641
  25.  H 9 (s)      0.0001  0.0136 -0.0775 -0.0153 -0.0341  0.0113  0.1852  0.1641
  26.  H10 (s)      0.0001  0.0136  0.0775 -0.0153 -0.0341  0.0113  0.1852 -0.1641

           AO          9      10      11      12      13      14      15      16
      ------------ ------- ------- ------- ------- ------- ------- ------- -------
   1.  O 1 (s)      0.0000  0.1139  0.0000  0.0025  0.0000 -0.0033  0.0050  0.0000
   2.  O 1 (s)      0.0000  0.9301  0.0004  0.0628  0.0000 -0.0579  0.0903  0.0004
   3.  O 1 (px)     0.0000  0.0000  0.0000  0.0000  0.0266  0.0000  0.0000  0.0000
   4.  O 1 (py)     0.5319  0.0000  0.0022  0.0174  0.0000  0.0369  0.0399 -0.0022
   5.  O 1 (pz)     0.0000 -0.8874 -0.0016 -0.0646  0.0000  0.0370 -0.0926 -0.0016
   6.  C 2 (s)      0.0000  0.0004  0.0002  0.0546  0.0000 -0.0748  0.0465  0.0002
   7.  C 2 (s)      0.0000 -0.0364  0.0538  0.6739  0.0000 -0.7228  0.4371  0.0538
   8.  C 2 (px)     0.0000  0.0000  0.0000  0.0000  0.3899  0.0000  0.0000  0.0000
   9.  C 2 (py)     1.5928  0.0000  0.0762  0.6756  0.0000 -0.5616  0.5645 -0.0762
  10.  C 2 (pz)     0.0000  1.5820 -0.0476 -0.4160  0.0000  0.5613 -0.0026 -0.0476
  11.  C 3 (s)      0.0762 -0.0476  1.9995  0.5048  0.0000 -0.0005  0.0001  0.0000
  12.  C 3 (s)      0.6756 -0.4160  0.5048  1.8705  0.0000  0.0144 -0.0064  0.0025
  13.  C 3 (px)     0.0000  0.0000  0.0000  0.0000  1.6104  0.0000  0.0000  0.0000
  14.  C 3 (py)    -0.5616  0.5613 -0.0005  0.0144  0.0000  1.5770  0.0261 -0.0058
  15.  C 3 (pz)     0.5645 -0.0026  0.0001 -0.0064  0.0000  0.0261  1.6085  0.0006
  16.  C 4 (s)     -0.0762 -0.0476  0.0000  0.0025  0.0000 -0.0058  0.0006  1.9995
  17.  C 4 (s)     -0.6756 -0.4160  0.0025  0.0806  0.0000 -0.1213 -0.0100  0.5048
  18.  C 4 (px)     0.0000  0.0000  0.0000  0.0000  0.0320  0.0000  0.0000  0.0000
  19.  C 4 (py)    -0.5616 -0.5613  0.0058  0.1213  0.0000 -0.1607 -0.0328  0.0005
  20.  C 4 (pz)    -0.5645 -0.0026  0.0006 -0.0100  0.0000  0.0328  0.0088  0.0001
  21.  H 5 (s)      0.2672  0.0173  0.1176  1.0927  0.0000  0.9801  0.7800 -0.0007
  22.  H 6 (s)     -0.2672  0.0173 -0.0007  0.0248  0.0000 -0.0440  0.0241  0.1176
  23.  H 7 (s)      0.1446 -0.1837  0.1163  1.0859 -1.0110  0.0539 -0.7376  0.0016
  24.  H 8 (s)      0.1446 -0.1837  0.1163  1.0859  1.0110  0.0539 -0.7376  0.0016
  25.  H 9 (s)     -0.1446 -0.1837  0.0016  0.0476  0.0204 -0.0592 -0.0249  0.1163
  26.  H10 (s)     -0.1446 -0.1837  0.0016  0.0476 -0.0204 -0.0592 -0.0249  0.1163

           AO         17      18      19      20      21      22      23      24
      ------------ ------- ------- ------- ------- ------- ------- ------- -------
   1.  O 1 (s)      0.0025  0.0000  0.0033  0.0050  0.0026  0.0026  0.0001  0.0001
   2.  O 1 (s)      0.0628  0.0000  0.0579  0.0903  0.0465  0.0465  0.0136  0.0136
   3.  O 1 (px)     0.0000  0.0266  0.0000  0.0000  0.0000  0.0000  0.0775 -0.0775
   4.  O 1 (py)    -0.0174  0.0000  0.0369 -0.0399  0.0487 -0.0487  0.0153  0.0153
   5.  O 1 (pz)    -0.0646  0.0000 -0.0370 -0.0926 -0.0032 -0.0032 -0.0341 -0.0341
   6.  C 2 (s)      0.0546  0.0000  0.0748  0.0465  0.0117  0.0117  0.0113  0.0113
   7.  C 2 (s)      0.6739  0.0000  0.7228  0.4371  0.2012  0.2012  0.1852  0.1852
   8.  C 2 (px)     0.0000  0.3899  0.0000  0.0000  0.0000  0.0000 -0.1641  0.1641
   9.  C 2 (py)    -0.6756  0.0000 -0.5616 -0.5645  0.2672 -0.2672  0.1446  0.1446
  10.  C 2 (pz)    -0.4160  0.0000 -0.5613 -0.0026  0.0173  0.0173 -0.1837 -0.1837
  11.  C 3 (s)      0.0025  0.0000  0.0058  0.0006  0.1176 -0.0007  0.1163  0.1163
  12.  C 3 (s)      0.0806  0.0000  0.1213 -0.0100  1.0927  0.0248  1.0859  1.0859
  13.  C 3 (px)     0.0000  0.0320  0.0000  0.0000  0.0000  0.0000 -1.0110  1.0110
  14.  C 3 (py)    -0.1213  0.0000 -0.1607  0.0328  0.9801 -0.0440  0.0539  0.0539
  15.  C 3 (pz)    -0.0100  0.0000 -0.0328  0.0088  0.7800  0.0241 -0.7376 -0.7376
  16.  C 4 (s)      0.5048  0.0000  0.0005  0.0001 -0.0007  0.1176  0.0016  0.0016
  17.  C 4 (s)      1.8705  0.0000 -0.0144 -0.0064  0.0248  1.0927  0.0476  0.0476
  18.  C 4 (px)     0.0000  1.6104  0.0000  0.0000  0.0000  0.0000 -0.0204  0.0204
  19.  C 4 (py)    -0.0144  0.0000  1.5770 -0.0261  0.0440 -0.9801  0.0592  0.0592
  20.  C 4 (pz)    -0.0064  0.0000 -0.0261  1.6085  0.0241  0.7800 -0.0249 -0.0249
  21.  H 5 (s)      0.0248  0.0000  0.0440  0.0241  1.6287 -0.0143  0.3254  0.3254
  22.  H 6 (s)      1.0927  0.0000 -0.9801  0.7800 -0.0143  1.6287  0.0067  0.0067
  23.  H 7 (s)      0.0476 -0.0204  0.0592 -0.0249  0.3254  0.0067  1.6272  0.3445
  24.  H 8 (s)      0.0476  0.0204  0.0592 -0.0249  0.3254  0.0067  0.3445  1.6272
  25.  H 9 (s)      1.0859  1.0110 -0.0539 -0.7376  0.0067  0.3254  0.0265  0.0659
  26.  H10 (s)      1.0859 -1.0110 -0.0539 -0.7376  0.0067  0.3254  0.0659  0.0265

           AO         25      26
      ------------ ------- -------
   1.  O 1 (s)      0.0001  0.0001
   2.  O 1 (s)      0.0136  0.0136
   3.  O 1 (px)    -0.0775  0.0775
   4.  O 1 (py)    -0.0153 -0.0153
   5.  O 1 (pz)    -0.0341 -0.0341
   6.  C 2 (s)      0.0113  0.0113
   7.  C 2 (s)      0.1852  0.1852
   8.  C 2 (px)     0.1641 -0.1641
   9.  C 2 (py)    -0.1446 -0.1446
  10.  C 2 (pz)    -0.1837 -0.1837
  11.  C 3 (s)      0.0016  0.0016
  12.  C 3 (s)      0.0476  0.0476
  13.  C 3 (px)     0.0204 -0.0204
  14.  C 3 (py)    -0.0592 -0.0592
  15.  C 3 (pz)    -0.0249 -0.0249
  16.  C 4 (s)      0.1163  0.1163
  17.  C 4 (s)      1.0859  1.0859
  18.  C 4 (px)     1.0110 -1.0110
  19.  C 4 (py)    -0.0539 -0.0539
  20.  C 4 (pz)    -0.7376 -0.7376
  21.  H 5 (s)      0.0067  0.0067
  22.  H 6 (s)      0.3254  0.3254
  23.  H 7 (s)      0.0265  0.0659
  24.  H 8 (s)      0.0659  0.0265
  25.  H 9 (s)      1.6272  0.3445
  26.  H10 (s)      0.3445  1.6272


 MO density matrix:

      MO     1       2       3       4       5       6       7       8       9
     ---- ------  ------  ------  ------  ------  ------  ------  ------  ------
   1.     2.0000  0.0000  0.0000  0.0000  0.0000  0.0000  0.0000  0.0000  0.0000
   2.     0.0000  2.0000  0.0000  0.0000  0.0000  0.0000  0.0000  0.0000  0.0000
   3.     0.0000  0.0000  2.0000  0.0000  0.0000  0.0000  0.0000  0.0000  0.0000
   4.     0.0000  0.0000  0.0000  2.0000  0.0000  0.0000  0.0000  0.0000  0.0000
   5.     0.0000  0.0000  0.0000  0.0000  2.0000  0.0000  0.0000  0.0000  0.0000
   6.     0.0000  0.0000  0.0000  0.0000  0.0000  2.0000  0.0000  0.0000  0.0000
   7.     0.0000  0.0000  0.0000  0.0000  0.0000  0.0000  2.0000  0.0000  0.0000
   8.     0.0000  0.0000  0.0000  0.0000  0.0000  0.0000  0.0000  2.0000  0.0000
   9.     0.0000  0.0000  0.0000  0.0000  0.0000  0.0000  0.0000  0.0000  2.0000
  10.     0.0000  0.0000  0.0000  0.0000  0.0000  0.0000  0.0000  0.0000  0.0000
  11.     0.0000  0.0000  0.0000  0.0000  0.0000  0.0000  0.0000  0.0000  0.0000
  12.     0.0000  0.0000  0.0000  0.0000  0.0000  0.0000  0.0000  0.0000  0.0000
  13.     0.0000  0.0000  0.0000  0.0000  0.0000  0.0000  0.0000  0.0000  0.0000
  14.     0.0000  0.0000  0.0000  0.0000  0.0000  0.0000  0.0000  0.0000  0.0000
  15.     0.0000  0.0000  0.0000  0.0000  0.0000  0.0000  0.0000  0.0000  0.0000
  16.     0.0000  0.0000  0.0000  0.0000  0.0000  0.0000  0.0000  0.0000  0.0000
  17.     0.0000  0.0000  0.0000  0.0000  0.0000  0.0000  0.0000  0.0000  0.0000
  18.     0.0000  0.0000  0.0000  0.0000  0.0000  0.0000  0.0000  0.0000  0.0000
  19.     0.0000  0.0000  0.0000  0.0000  0.0000  0.0000  0.0000  0.0000  0.0000
  20.     0.0000  0.0000  0.0000  0.0000  0.0000  0.0000  0.0000  0.0000  0.0000
  21.     0.0000  0.0000  0.0000  0.0000  0.0000  0.0000  0.0000  0.0000  0.0000
  22.     0.0000  0.0000  0.0000  0.0000  0.0000  0.0000  0.0000  0.0000  0.0000
  23.     0.0000  0.0000  0.0000  0.0000  0.0000  0.0000  0.0000  0.0000  0.0000
  24.     0.0000  0.0000  0.0000  0.0000  0.0000  0.0000  0.0000  0.0000  0.0000
  25.     0.0000  0.0000  0.0000  0.0000  0.0000  0.0000  0.0000  0.0000  0.0000
  26.     0.0000  0.0000  0.0000  0.0000  0.0000  0.0000  0.0000  0.0000  0.0000

      MO    10      11      12      13      14      15      16      17      18
     ---- ------  ------  ------  ------  ------  ------  ------  ------  ------
   1.     0.0000  0.0000  0.0000  0.0000  0.0000  0.0000  0.0000  0.0000  0.0000
   2.     0.0000  0.0000  0.0000  0.0000  0.0000  0.0000  0.0000  0.0000  0.0000
   3.     0.0000  0.0000  0.0000  0.0000  0.0000  0.0000  0.0000  0.0000  0.0000
   4.     0.0000  0.0000  0.0000  0.0000  0.0000  0.0000  0.0000  0.0000  0.0000
   5.     0.0000  0.0000  0.0000  0.0000  0.0000  0.0000  0.0000  0.0000  0.0000
   6.     0.0000  0.0000  0.0000  0.0000  0.0000  0.0000  0.0000  0.0000  0.0000
   7.     0.0000  0.0000  0.0000  0.0000  0.0000  0.0000  0.0000  0.0000  0.0000
   8.     0.0000  0.0000  0.0000  0.0000  0.0000  0.0000  0.0000  0.0000  0.0000
   9.     0.0000  0.0000  0.0000  0.0000  0.0000  0.0000  0.0000  0.0000  0.0000
  10.     2.0000  0.0000  0.0000  0.0000  0.0000  0.0000  0.0000  0.0000  0.0000
  11.     0.0000  2.0000  0.0000  0.0000  0.0000  0.0000  0.0000  0.0000  0.0000
  12.     0.0000  0.0000  2.0000  0.0000  0.0000  0.0000  0.0000  0.0000  0.0000
  13.     0.0000  0.0000  0.0000  2.0000  0.0000  0.0000  0.0000  0.0000  0.0000
  14.     0.0000  0.0000  0.0000  0.0000  2.0000  0.0000  0.0000  0.0000  0.0000
  15.     0.0000  0.0000  0.0000  0.0000  0.0000  2.0000  0.0000  0.0000  0.0000
  16.     0.0000  0.0000  0.0000  0.0000  0.0000  0.0000  2.0000  0.0000  0.0000
  17.     0.0000  0.0000  0.0000  0.0000  0.0000  0.0000  0.0000  0.0000  0.0000
  18.     0.0000  0.0000  0.0000  0.0000  0.0000  0.0000  0.0000  0.0000  0.0000
  19.     0.0000  0.0000  0.0000  0.0000  0.0000  0.0000  0.0000  0.0000  0.0000
  20.     0.0000  0.0000  0.0000  0.0000  0.0000  0.0000  0.0000  0.0000  0.0000
  21.     0.0000  0.0000  0.0000  0.0000  0.0000  0.0000  0.0000  0.0000  0.0000
  22.     0.0000  0.0000  0.0000  0.0000  0.0000  0.0000  0.0000  0.0000  0.0000
  23.     0.0000  0.0000  0.0000  0.0000  0.0000  0.0000  0.0000  0.0000  0.0000
  24.     0.0000  0.0000  0.0000  0.0000  0.0000  0.0000  0.0000  0.0000  0.0000
  25.     0.0000  0.0000  0.0000  0.0000  0.0000  0.0000  0.0000  0.0000  0.0000
  26.     0.0000  0.0000  0.0000  0.0000  0.0000  0.0000  0.0000  0.0000  0.0000

      MO    19      20      21      22      23      24      25      26
     ---- ------  ------  ------  ------  ------  ------  ------  ------
   1.     0.0000  0.0000  0.0000  0.0000  0.0000  0.0000  0.0000  0.0000
   2.     0.0000  0.0000  0.0000  0.0000  0.0000  0.0000  0.0000  0.0000
   3.     0.0000  0.0000  0.0000  0.0000  0.0000  0.0000  0.0000  0.0000
   4.     0.0000  0.0000  0.0000  0.0000  0.0000  0.0000  0.0000  0.0000
   5.     0.0000  0.0000  0.0000  0.0000  0.0000  0.0000  0.0000  0.0000
   6.     0.0000  0.0000  0.0000  0.0000  0.0000  0.0000  0.0000  0.0000
   7.     0.0000  0.0000  0.0000  0.0000  0.0000  0.0000  0.0000  0.0000
   8.     0.0000  0.0000  0.0000  0.0000  0.0000  0.0000  0.0000  0.0000
   9.     0.0000  0.0000  0.0000  0.0000  0.0000  0.0000  0.0000  0.0000
  10.     0.0000  0.0000  0.0000  0.0000  0.0000  0.0000  0.0000  0.0000
  11.     0.0000  0.0000  0.0000  0.0000  0.0000  0.0000  0.0000  0.0000
  12.     0.0000  0.0000  0.0000  0.0000  0.0000  0.0000  0.0000  0.0000
  13.     0.0000  0.0000  0.0000  0.0000  0.0000  0.0000  0.0000  0.0000
  14.     0.0000  0.0000  0.0000  0.0000  0.0000  0.0000  0.0000  0.0000
  15.     0.0000  0.0000  0.0000  0.0000  0.0000  0.0000  0.0000  0.0000
  16.     0.0000  0.0000  0.0000  0.0000  0.0000  0.0000  0.0000  0.0000
  17.     0.0000  0.0000  0.0000  0.0000  0.0000  0.0000  0.0000  0.0000
  18.     0.0000  0.0000  0.0000  0.0000  0.0000  0.0000  0.0000  0.0000
  19.     0.0000  0.0000  0.0000  0.0000  0.0000  0.0000  0.0000  0.0000
  20.     0.0000  0.0000  0.0000  0.0000  0.0000  0.0000  0.0000  0.0000
  21.     0.0000  0.0000  0.0000  0.0000  0.0000  0.0000  0.0000  0.0000
  22.     0.0000  0.0000  0.0000  0.0000  0.0000  0.0000  0.0000  0.0000
  23.     0.0000  0.0000  0.0000  0.0000  0.0000  0.0000  0.0000  0.0000
  24.     0.0000  0.0000  0.0000  0.0000  0.0000  0.0000  0.0000  0.0000
  25.     0.0000  0.0000  0.0000  0.0000  0.0000  0.0000  0.0000  0.0000
  26.     0.0000  0.0000  0.0000  0.0000  0.0000  0.0000  0.0000  0.0000


 NATURAL POPULATIONS:  Natural atomic orbital occupancies

  NAO Atom No lang   Type(AO)    Occupancy      Energy
 -------------------------------------------------------
   1    O  1  s      Cor( 1s)     2.00000     -20.14860
   2    O  1  s      Val( 2s)     1.81038      -1.03942
   3    O  1  px     Val( 2p)     1.15104      -0.10425
   4    O  1  py     Val( 2p)     1.92120      -0.35407
   5    O  1  pz     Val( 2p)     1.35843      -0.10757

   6    C  2  s      Cor( 1s)     2.00000     -11.11239
   7    C  2  s      Val( 2s)     1.07627      -0.21354
   8    C  2  px     Val( 2p)     0.87748      -0.00640
   9    C  2  py     Val( 2p)     0.92623       0.12396
  10    C  2  pz     Val( 2p)     0.83480       0.20241

  11    C  3  s      Cor( 1s)     2.00000     -11.03583
  12    C  3  s      Val( 2s)     1.09569      -0.18224
  13    C  3  px     Val( 2p)     1.04086       0.05645
  14    C  3  py     Val( 2p)     1.02290       0.05890
  15    C  3  pz     Val( 2p)     1.03698       0.06332

  16    C  4  s      Cor( 1s)     2.00000     -11.03583
  17    C  4  s      Val( 2s)     1.09569      -0.18224
  18    C  4  px     Val( 2p)     1.04086       0.05645
  19    C  4  py     Val( 2p)     1.02290       0.05890
  20    C  4  pz     Val( 2p)     1.03698       0.06332

  21    H  5  s      Val( 1s)     0.93908       0.08167

  22    H  6  s      Val( 1s)     0.93908       0.08167

  23    H  7  s      Val( 1s)     0.94329       0.06930

  24    H  8  s      Val( 1s)     0.94329       0.06930

  25    H  9  s      Val( 1s)     0.94329       0.06930

  26    H 10  s      Val( 1s)     0.94329       0.06930


 Summary of Natural Population Analysis:

                                     Natural Population
             Natural    ---------------------------------------------
  Atom No    Charge        Core      Valence    Rydberg      Total
 --------------------------------------------------------------------
    O  1   -0.24105      2.00000     6.24105    0.00000     8.24105
    C  2    0.28522      2.00000     3.71478    0.00000     5.71478
    C  3   -0.19642      2.00000     4.19642    0.00000     6.19642
    C  4   -0.19642      2.00000     4.19642    0.00000     6.19642
    H  5    0.06092      0.00000     0.93908    0.00000     0.93908
    H  6    0.06092      0.00000     0.93908    0.00000     0.93908
    H  7    0.05671      0.00000     0.94329    0.00000     0.94329
    H  8    0.05671      0.00000     0.94329    0.00000     0.94329
    H  9    0.05671      0.00000     0.94329    0.00000     0.94329
    H 10    0.05671      0.00000     0.94329    0.00000     0.94329
 ====================================================================
 * Total *  0.00000      7.99999    24.00001    0.00000    32.00000

                                 Natural Population
 ---------------------------------------------------------
   Core                       7.99999 ( 99.9999% of    8)
   Valence                   24.00001 (100.0000% of   24)
   Natural Minimal Basis     32.00000 (100.0000% of   32)
   Natural Rydberg Basis      0.00000 (  0.0000% of   32)
 ---------------------------------------------------------

    Atom No         Natural Electron Configuration
 ----------------------------------------------------------------------------
      O  1      [core]2s( 1.81)2p( 4.43)
      C  2      [core]2s( 1.08)2p( 2.64)
      C  3      [core]2s( 1.10)2p( 3.10)
      C  4      [core]2s( 1.10)2p( 3.10)
      H  5            1s( 0.94)
      H  6            1s( 0.94)
      H  7            1s( 0.94)
      H  8            1s( 0.94)
      H  9            1s( 0.94)
      H 10            1s( 0.94)


 PNAOs in the AO basis:

           AO          1       2       3       4       5       6       7       8
      ------------ ------- ------- ------- ------- ------- ------- ------- -------
   1.  O 1 (s)      0.9711 -0.3410  0.0000  0.0000  0.0000  0.0000  0.0000  0.0000
   2.  O 1 (s)      0.1015  1.0242  0.0000  0.0000  0.0000  0.0000  0.0000  0.0000
   3.  O 1 (px)     0.0000  0.0000  1.0000  0.0000  0.0000  0.0000  0.0000  0.0000
   4.  O 1 (py)     0.0000  0.0000  0.0000  1.0000  0.0000  0.0000  0.0000  0.0000
   5.  O 1 (pz)     0.0000  0.0000  0.0000  0.0000  1.0000  0.0000  0.0000  0.0000
   6.  C 2 (s)      0.0000  0.0000  0.0000  0.0000  0.0000  0.9880 -0.2993  0.0000
   7.  C 2 (s)      0.0000  0.0000  0.0000  0.0000  0.0000  0.0446  1.0314  0.0000
   8.  C 2 (px)     0.0000  0.0000  0.0000  0.0000  0.0000  0.0000  0.0000  1.0000
   9.  C 2 (py)     0.0000  0.0000  0.0000  0.0000  0.0000  0.0000  0.0000  0.0000
  10.  C 2 (pz)     0.0000  0.0000  0.0000  0.0000  0.0000  0.0000  0.0000  0.0000
  11.  C 3 (s)      0.0000  0.0000  0.0000  0.0000  0.0000  0.0000  0.0000  0.0000
  12.  C 3 (s)      0.0000  0.0000  0.0000  0.0000  0.0000  0.0000  0.0000  0.0000
  13.  C 3 (px)     0.0000  0.0000  0.0000  0.0000  0.0000  0.0000  0.0000  0.0000
  14.  C 3 (py)     0.0000  0.0000  0.0000  0.0000  0.0000  0.0000  0.0000  0.0000
  15.  C 3 (pz)     0.0000  0.0000  0.0000  0.0000  0.0000  0.0000  0.0000  0.0000
  16.  C 4 (s)      0.0000  0.0000  0.0000  0.0000  0.0000  0.0000  0.0000  0.0000
  17.  C 4 (s)      0.0000  0.0000  0.0000  0.0000  0.0000  0.0000  0.0000  0.0000
  18.  C 4 (px)     0.0000  0.0000  0.0000  0.0000  0.0000  0.0000  0.0000  0.0000
  19.  C 4 (py)     0.0000  0.0000  0.0000  0.0000  0.0000  0.0000  0.0000  0.0000
  20.  C 4 (pz)     0.0000  0.0000  0.0000  0.0000  0.0000  0.0000  0.0000  0.0000
  21.  H 5 (s)      0.0000  0.0000  0.0000  0.0000  0.0000  0.0000  0.0000  0.0000
  22.  H 6 (s)      0.0000  0.0000  0.0000  0.0000  0.0000  0.0000  0.0000  0.0000
  23.  H 7 (s)      0.0000  0.0000  0.0000  0.0000  0.0000  0.0000  0.0000  0.0000
  24.  H 8 (s)      0.0000  0.0000  0.0000  0.0000  0.0000  0.0000  0.0000  0.0000
  25.  H 9 (s)      0.0000  0.0000  0.0000  0.0000  0.0000  0.0000  0.0000  0.0000
  26.  H10 (s)      0.0000  0.0000  0.0000  0.0000  0.0000  0.0000  0.0000  0.0000

           AO          9      10      11      12      13      14      15      16
      ------------ ------- ------- ------- ------- ------- ------- ------- -------
   1.  O 1 (s)      0.0000  0.0000  0.0000  0.0000  0.0000  0.0000  0.0000  0.0000
   2.  O 1 (s)      0.0000  0.0000  0.0000  0.0000  0.0000  0.0000  0.0000  0.0000
   3.  O 1 (px)     0.0000  0.0000  0.0000  0.0000  0.0000  0.0000  0.0000  0.0000
   4.  O 1 (py)     0.0000  0.0000  0.0000  0.0000  0.0000  0.0000  0.0000  0.0000
   5.  O 1 (pz)     0.0000  0.0000  0.0000  0.0000  0.0000  0.0000  0.0000  0.0000
   6.  C 2 (s)      0.0000  0.0000  0.0000  0.0000  0.0000  0.0000  0.0000  0.0000
   7.  C 2 (s)      0.0000  0.0000  0.0000  0.0000  0.0000  0.0000  0.0000  0.0000
   8.  C 2 (px)     0.0000  0.0000  0.0000  0.0000  0.0000  0.0000  0.0000  0.0000
   9.  C 2 (py)     1.0000  0.0000  0.0000  0.0000  0.0000  0.0000  0.0000  0.0000
  10.  C 2 (pz)     0.0000  1.0000  0.0000  0.0000  0.0000  0.0000  0.0000  0.0000
  11.  C 3 (s)      0.0000  0.0000  0.9831 -0.3151  0.0000  0.0000  0.0000  0.0000
  12.  C 3 (s)      0.0000  0.0000  0.0611  1.0305  0.0000  0.0000  0.0000  0.0000
  13.  C 3 (px)     0.0000  0.0000  0.0000  0.0000  1.0000  0.0000  0.0000  0.0000
  14.  C 3 (py)     0.0000  0.0000  0.0000  0.0000  0.0000  1.0000  0.0000  0.0000
  15.  C 3 (pz)     0.0000  0.0000  0.0000  0.0000  0.0000  0.0000  1.0000  0.0000
  16.  C 4 (s)      0.0000  0.0000  0.0000  0.0000  0.0000  0.0000  0.0000  0.9831
  17.  C 4 (s)      0.0000  0.0000  0.0000  0.0000  0.0000  0.0000  0.0000  0.0611
  18.  C 4 (px)     0.0000  0.0000  0.0000  0.0000  0.0000  0.0000  0.0000  0.0000
  19.  C 4 (py)     0.0000  0.0000  0.0000  0.0000  0.0000  0.0000  0.0000  0.0000
  20.  C 4 (pz)     0.0000  0.0000  0.0000  0.0000  0.0000  0.0000  0.0000  0.0000
  21.  H 5 (s)      0.0000  0.0000  0.0000  0.0000  0.0000  0.0000  0.0000  0.0000
  22.  H 6 (s)      0.0000  0.0000  0.0000  0.0000  0.0000  0.0000  0.0000  0.0000
  23.  H 7 (s)      0.0000  0.0000  0.0000  0.0000  0.0000  0.0000  0.0000  0.0000
  24.  H 8 (s)      0.0000  0.0000  0.0000  0.0000  0.0000  0.0000  0.0000  0.0000
  25.  H 9 (s)      0.0000  0.0000  0.0000  0.0000  0.0000  0.0000  0.0000  0.0000
  26.  H10 (s)      0.0000  0.0000  0.0000  0.0000  0.0000  0.0000  0.0000  0.0000

           AO         17      18      19      20      21      22      23      24
      ------------ ------- ------- ------- ------- ------- ------- ------- -------
   1.  O 1 (s)      0.0000  0.0000  0.0000  0.0000  0.0000  0.0000  0.0000  0.0000
   2.  O 1 (s)      0.0000  0.0000  0.0000  0.0000  0.0000  0.0000  0.0000  0.0000
   3.  O 1 (px)     0.0000  0.0000  0.0000  0.0000  0.0000  0.0000  0.0000  0.0000
   4.  O 1 (py)     0.0000  0.0000  0.0000  0.0000  0.0000  0.0000  0.0000  0.0000
   5.  O 1 (pz)     0.0000  0.0000  0.0000  0.0000  0.0000  0.0000  0.0000  0.0000
   6.  C 2 (s)      0.0000  0.0000  0.0000  0.0000  0.0000  0.0000  0.0000  0.0000
   7.  C 2 (s)      0.0000  0.0000  0.0000  0.0000  0.0000  0.0000  0.0000  0.0000
   8.  C 2 (px)     0.0000  0.0000  0.0000  0.0000  0.0000  0.0000  0.0000  0.0000
   9.  C 2 (py)     0.0000  0.0000  0.0000  0.0000  0.0000  0.0000  0.0000  0.0000
  10.  C 2 (pz)     0.0000  0.0000  0.0000  0.0000  0.0000  0.0000  0.0000  0.0000
  11.  C 3 (s)      0.0000  0.0000  0.0000  0.0000  0.0000  0.0000  0.0000  0.0000
  12.  C 3 (s)      0.0000  0.0000  0.0000  0.0000  0.0000  0.0000  0.0000  0.0000
  13.  C 3 (px)     0.0000  0.0000  0.0000  0.0000  0.0000  0.0000  0.0000  0.0000
  14.  C 3 (py)     0.0000  0.0000  0.0000  0.0000  0.0000  0.0000  0.0000  0.0000
  15.  C 3 (pz)     0.0000  0.0000  0.0000  0.0000  0.0000  0.0000  0.0000  0.0000
  16.  C 4 (s)     -0.3151  0.0000  0.0000  0.0000  0.0000  0.0000  0.0000  0.0000
  17.  C 4 (s)      1.0305  0.0000  0.0000  0.0000  0.0000  0.0000  0.0000  0.0000
  18.  C 4 (px)     0.0000  1.0000  0.0000  0.0000  0.0000  0.0000  0.0000  0.0000
  19.  C 4 (py)     0.0000  0.0000  1.0000  0.0000  0.0000  0.0000  0.0000  0.0000
  20.  C 4 (pz)     0.0000  0.0000  0.0000  1.0000  0.0000  0.0000  0.0000  0.0000
  21.  H 5 (s)      0.0000  0.0000  0.0000  0.0000  1.0000  0.0000  0.0000  0.0000
  22.  H 6 (s)      0.0000  0.0000  0.0000  0.0000  0.0000  1.0000  0.0000  0.0000
  23.  H 7 (s)      0.0000  0.0000  0.0000  0.0000  0.0000  0.0000  1.0000  0.0000
  24.  H 8 (s)      0.0000  0.0000  0.0000  0.0000  0.0000  0.0000  0.0000  1.0000
  25.  H 9 (s)      0.0000  0.0000  0.0000  0.0000  0.0000  0.0000  0.0000  0.0000
  26.  H10 (s)      0.0000  0.0000  0.0000  0.0000  0.0000  0.0000  0.0000  0.0000

           AO         25      26
      ------------ ------- -------
   1.  O 1 (s)      0.0000  0.0000
   2.  O 1 (s)      0.0000  0.0000
   3.  O 1 (px)     0.0000  0.0000
   4.  O 1 (py)     0.0000  0.0000
   5.  O 1 (pz)     0.0000  0.0000
   6.  C 2 (s)      0.0000  0.0000
   7.  C 2 (s)      0.0000  0.0000
   8.  C 2 (px)     0.0000  0.0000
   9.  C 2 (py)     0.0000  0.0000
  10.  C 2 (pz)     0.0000  0.0000
  11.  C 3 (s)      0.0000  0.0000
  12.  C 3 (s)      0.0000  0.0000
  13.  C 3 (px)     0.0000  0.0000
  14.  C 3 (py)     0.0000  0.0000
  15.  C 3 (pz)     0.0000  0.0000
  16.  C 4 (s)      0.0000  0.0000
  17.  C 4 (s)      0.0000  0.0000
  18.  C 4 (px)     0.0000  0.0000
  19.  C 4 (py)     0.0000  0.0000
  20.  C 4 (pz)     0.0000  0.0000
  21.  H 5 (s)      0.0000  0.0000
  22.  H 6 (s)      0.0000  0.0000
  23.  H 7 (s)      0.0000  0.0000
  24.  H 8 (s)      0.0000  0.0000
  25.  H 9 (s)      1.0000  0.0000
  26.  H10 (s)      0.0000  1.0000


 PNAO overlap matrix:

           NAO         1       2       3       4       5       6       7       8
      ------------ ------- ------- ------- ------- ------- ------- ------- -------
   1.  O 1( 1s )    1.0000  0.0000  0.0000  0.0000  0.0000  0.0066  0.0719  0.0000
   2.  O 1( 2s )    0.0000  1.0000  0.0000  0.0000  0.0000  0.0507  0.3527  0.0000
   3.  O 1( 2px)    0.0000  0.0000  1.0000  0.0000  0.0000  0.0000  0.0000  0.2045
   4.  O 1( 2py)    0.0000  0.0000  0.0000  1.0000  0.0000  0.0000  0.0000  0.0000
   5.  O 1( 2pz)    0.0000  0.0000  0.0000  0.0000  1.0000 -0.0717 -0.3096  0.0000
   6.  C 2( 1s )    0.0066  0.0507  0.0000  0.0000 -0.0717  1.0000  0.0000  0.0000
   7.  C 2( 2s )    0.0719  0.3527  0.0000  0.0000 -0.3096  0.0000  1.0000  0.0000
   8.  C 2( 2px)    0.0000  0.0000  0.2045  0.0000  0.0000  0.0000  0.0000  1.0000
   9.  C 2( 2py)    0.0000  0.0000  0.0000  0.2045  0.0000  0.0000  0.0000  0.0000
  10.  C 2( 2pz)    0.1023  0.4259  0.0000  0.0000 -0.3132  0.0000  0.0000  0.0000
  11.  C 3( 1s )    0.0003  0.0021  0.0000  0.0017 -0.0026  0.0038  0.0480  0.0000
  12.  C 3( 2s )    0.0045  0.0328  0.0000  0.0238 -0.0374  0.0430  0.3128  0.0000
  13.  C 3( 2px)    0.0000  0.0000  0.0119  0.0000  0.0000  0.0000  0.0000  0.1734
  14.  C 3( 2py)   -0.0044 -0.0292  0.0000 -0.0111  0.0362 -0.0532 -0.2921  0.0000
  15.  C 3( 2pz)    0.0069  0.0459  0.0000  0.0362 -0.0450  0.0329  0.1807  0.0000
  16.  C 4( 1s )    0.0003  0.0021  0.0000 -0.0017 -0.0026  0.0038  0.0480  0.0000
  17.  C 4( 2s )    0.0045  0.0328  0.0000 -0.0238 -0.0374  0.0430  0.3128  0.0000
  18.  C 4( 2px)    0.0000  0.0000  0.0119  0.0000  0.0000  0.0000  0.0000  0.1734
  19.  C 4( 2py)    0.0044  0.0292  0.0000 -0.0111 -0.0362  0.0532  0.2921  0.0000
  20.  C 4( 2pz)    0.0069  0.0459  0.0000 -0.0362 -0.0450  0.0329  0.1807  0.0000
  21.  H 5( 1s )    0.0037  0.0245  0.0000  0.0256 -0.0161  0.0101  0.1020  0.0000
  22.  H 6( 1s )    0.0037  0.0245  0.0000 -0.0256 -0.0161  0.0101  0.1020  0.0000
  23.  H 7( 1s )    0.0007  0.0056 -0.0022  0.0033 -0.0067  0.0098  0.0994 -0.0517
  24.  H 8( 1s )    0.0007  0.0056  0.0022  0.0033 -0.0067  0.0098  0.0994  0.0517
  25.  H 9( 1s )    0.0007  0.0056  0.0022 -0.0033 -0.0067  0.0098  0.0994  0.0517
  26.  H10( 1s )    0.0007  0.0056 -0.0022 -0.0033 -0.0067  0.0098  0.0994 -0.0517

           NAO         9      10      11      12      13      14      15      16
      ------------ ------- ------- ------- ------- ------- ------- ------- -------
   1.  O 1( 1s )    0.0000  0.1023  0.0003  0.0045  0.0000 -0.0044  0.0069  0.0003
   2.  O 1( 2s )    0.0000  0.4259  0.0021  0.0328  0.0000 -0.0292  0.0459  0.0021
   3.  O 1( 2px)    0.0000  0.0000  0.0000  0.0000  0.0119  0.0000  0.0000  0.0000
   4.  O 1( 2py)    0.2045  0.0000  0.0017  0.0238  0.0000 -0.0111  0.0362 -0.0017
   5.  O 1( 2pz)    0.0000 -0.3132 -0.0026 -0.0374  0.0000  0.0362 -0.0450 -0.0026
   6.  C 2( 1s )    0.0000  0.0000  0.0038  0.0430  0.0000 -0.0532  0.0329  0.0038
   7.  C 2( 2s )    0.0000  0.0000  0.0480  0.3128  0.0000 -0.2921  0.1807  0.0480
   8.  C 2( 2px)    0.0000  0.0000  0.0000  0.0000  0.1734  0.0000  0.0000  0.0000
   9.  C 2( 2py)    1.0000  0.0000  0.0579  0.2912  0.0000 -0.1821  0.2199 -0.0579
  10.  C 2( 2pz)    0.0000  1.0000 -0.0358 -0.1802  0.0000  0.2199  0.0373 -0.0358
  11.  C 3( 1s )    0.0579 -0.0358  1.0000  0.0000  0.0000  0.0000  0.0000  0.0003
  12.  C 3( 2s )    0.2912 -0.1802  0.0000  1.0000  0.0000  0.0000  0.0000  0.0038
  13.  C 3( 2px)    0.0000  0.0000  0.0000  0.0000  1.0000  0.0000  0.0000  0.0000
  14.  C 3( 2py)   -0.1821  0.2199  0.0000  0.0000  0.0000  1.0000  0.0000 -0.0066
  15.  C 3( 2pz)    0.2199  0.0373  0.0000  0.0000  0.0000  0.0000  1.0000  0.0000
  16.  C 4( 1s )   -0.0579 -0.0358  0.0003  0.0038  0.0000 -0.0066  0.0000  1.0000
  17.  C 4( 2s )   -0.2912 -0.1802  0.0038  0.0458  0.0000 -0.0681  0.0000  0.0000
  18.  C 4( 2px)    0.0000  0.0000  0.0000  0.0000  0.0177  0.0000  0.0000  0.0000
  19.  C 4( 2py)   -0.1821 -0.2199  0.0066  0.0681  0.0000 -0.0938  0.0000  0.0000
  20.  C 4( 2pz)   -0.2199  0.0373  0.0000  0.0000  0.0000  0.0000  0.0177  0.0000
  21.  H 5( 1s )    0.1289 -0.0068  0.0912  0.4862  0.0000  0.3642  0.2928  0.0004
  22.  H 6( 1s )   -0.1289 -0.0068  0.0004  0.0055  0.0000 -0.0088  0.0018  0.0912
  23.  H 7( 1s )    0.0781 -0.0846  0.0904  0.4837 -0.3749  0.0196 -0.2756  0.0023
  24.  H 8( 1s )    0.0781 -0.0846  0.0904  0.4837  0.3749  0.0196 -0.2756  0.0023
  25.  H 9( 1s )   -0.0781 -0.0846  0.0023  0.0254  0.0115 -0.0342 -0.0085  0.0904
  26.  H10( 1s )   -0.0781 -0.0846  0.0023  0.0254 -0.0115 -0.0342 -0.0085  0.0904

           NAO        17      18      19      20      21      22      23      24
      ------------ ------- ------- ------- ------- ------- ------- ------- -------
   1.  O 1( 1s )    0.0045  0.0000  0.0044  0.0069  0.0037  0.0037  0.0007  0.0007
   2.  O 1( 2s )    0.0328  0.0000  0.0292  0.0459  0.0245  0.0245  0.0056  0.0056
   3.  O 1( 2px)    0.0000  0.0119  0.0000  0.0000  0.0000  0.0000 -0.0022  0.0022
   4.  O 1( 2py)   -0.0238  0.0000 -0.0111 -0.0362  0.0256 -0.0256  0.0033  0.0033
   5.  O 1( 2pz)   -0.0374  0.0000 -0.0362 -0.0450 -0.0161 -0.0161 -0.0067 -0.0067
   6.  C 2( 1s )    0.0430  0.0000  0.0532  0.0329  0.0101  0.0101  0.0098  0.0098
   7.  C 2( 2s )    0.3128  0.0000  0.2921  0.1807  0.1020  0.1020  0.0994  0.0994
   8.  C 2( 2px)    0.0000  0.1734  0.0000  0.0000  0.0000  0.0000 -0.0517  0.0517
   9.  C 2( 2py)   -0.2912  0.0000 -0.1821 -0.2199  0.1289 -0.1289  0.0781  0.0781
  10.  C 2( 2pz)   -0.1802  0.0000 -0.2199  0.0373 -0.0068 -0.0068 -0.0846 -0.0846
  11.  C 3( 1s )    0.0038  0.0000  0.0066  0.0000  0.0912  0.0004  0.0904  0.0904
  12.  C 3( 2s )    0.0458  0.0000  0.0681  0.0000  0.4862  0.0055  0.4837  0.4837
  13.  C 3( 2px)    0.0000  0.0177  0.0000  0.0000  0.0000  0.0000 -0.3749  0.3749
  14.  C 3( 2py)   -0.0681  0.0000 -0.0938  0.0000  0.3642 -0.0088  0.0196  0.0196
  15.  C 3( 2pz)    0.0000  0.0000  0.0000  0.0177  0.2928  0.0018 -0.2756 -0.2756
  16.  C 4( 1s )    0.0000  0.0000  0.0000  0.0000  0.0004  0.0912  0.0023  0.0023
  17.  C 4( 2s )    1.0000  0.0000  0.0000  0.0000  0.0055  0.4862  0.0254  0.0254
  18.  C 4( 2px)    0.0000  1.0000  0.0000  0.0000  0.0000  0.0000 -0.0115  0.0115
  19.  C 4( 2py)    0.0000  0.0000  1.0000  0.0000  0.0088 -0.3642  0.0342  0.0342
  20.  C 4( 2pz)    0.0000  0.0000  0.0000  1.0000  0.0018  0.2928 -0.0085 -0.0085
  21.  H 5( 1s )    0.0055  0.0000  0.0088  0.0018  1.0000  0.0009  0.1675  0.1675
  22.  H 6( 1s )    0.4862  0.0000 -0.3642  0.2928  0.0009  1.0000  0.0028  0.0028
  23.  H 7( 1s )    0.0254 -0.0115  0.0342 -0.0085  0.1675  0.0028  1.0000  0.1740
  24.  H 8( 1s )    0.0254  0.0115  0.0342 -0.0085  0.1675  0.0028  0.1740  1.0000
  25.  H 9( 1s )    0.4837  0.3749 -0.0196 -0.2756  0.0028  0.1675  0.0120  0.0362
  26.  H10( 1s )    0.4837 -0.3749 -0.0196 -0.2756  0.0028  0.1675  0.0362  0.0120

           NAO        25      26
      ------------ ------- -------
   1.  O 1( 1s )    0.0007  0.0007
   2.  O 1( 2s )    0.0056  0.0056
   3.  O 1( 2px)    0.0022 -0.0022
   4.  O 1( 2py)   -0.0033 -0.0033
   5.  O 1( 2pz)   -0.0067 -0.0067
   6.  C 2( 1s )    0.0098  0.0098
   7.  C 2( 2s )    0.0994  0.0994
   8.  C 2( 2px)    0.0517 -0.0517
   9.  C 2( 2py)   -0.0781 -0.0781
  10.  C 2( 2pz)   -0.0846 -0.0846
  11.  C 3( 1s )    0.0023  0.0023
  12.  C 3( 2s )    0.0254  0.0254
  13.  C 3( 2px)    0.0115 -0.0115
  14.  C 3( 2py)   -0.0342 -0.0342
  15.  C 3( 2pz)   -0.0085 -0.0085
  16.  C 4( 1s )    0.0904  0.0904
  17.  C 4( 2s )    0.4837  0.4837
  18.  C 4( 2px)    0.3749 -0.3749
  19.  C 4( 2py)   -0.0196 -0.0196
  20.  C 4( 2pz)   -0.2756 -0.2756
  21.  H 5( 1s )    0.0028  0.0028
  22.  H 6( 1s )    0.1675  0.1675
  23.  H 7( 1s )    0.0120  0.0362
  24.  H 8( 1s )    0.0362  0.0120
  25.  H 9( 1s )    1.0000  0.1740
  26.  H10( 1s )    0.1740  1.0000


 PNAO density matrix:

           NAO         1       2       3       4       5       6       7       8
      ------------ ------- ------- ------- ------- ------- ------- ------- -------
   1.  O 1( 1s )    2.0000  0.0000  0.0000  0.0000  0.0000  0.0132  0.1434  0.0000
   2.  O 1( 2s )    0.0000  1.9873  0.0000  0.0000  0.0572  0.1017  0.7377  0.0000
   3.  O 1( 2px)    0.0000  0.0000  1.3311  0.0000  0.0000  0.0000  0.0000  1.1527
   4.  O 1( 2py)    0.0000  0.0000  0.0000  1.9626  0.0000  0.0000  0.0000  0.0000
   5.  O 1( 2pz)    0.0000  0.0572  0.0000  0.0000  1.7357 -0.1442 -0.7868  0.0000
   6.  C 2( 1s )    0.0132  0.1017  0.0000  0.0000 -0.1442  2.0000  0.0000  0.0000
[...]
      Eigenvector ( 1) has occupancy 1.99392
            0.0000 0.7281 0.0000 0.0000 0.0000 0.6855
      Occupancy is 1.994 after deleting minor hybrid components
            0.0000 0.7281 0.0000 0.0000 0.0000 0.6855
           NBO accepted:   15. Label:BD ( 1)   3   5
      Occupancy is 0.004 for antibonding component
            0.0000-0.6855 0.0000 0.0000 0.0000 0.7281
           NBO accepted:   16. Label:BD*( 1)   3   5
        2 eigenvector(s) stashed in permanent list

 Search of NHO DM block for the following atom(s):   3   7
      Select eigenvectors with eigenvalue > 1.900
       1.988 0.005 0.000 0.000 0.000 0.000
      Eigenvector ( 1) has occupancy 1.98785
            0.0000 0.0000 0.7257 0.0000 0.0000 0.6880
      Occupancy is 1.988 after deleting minor hybrid components
            0.0000 0.0000 0.7257 0.0000 0.0000 0.6880
           NBO accepted:   17. Label:BD ( 1)   3   7
      Occupancy is 0.005 for antibonding component
            0.0000 0.0000-0.6880 0.0000 0.0000 0.7257
           NBO accepted:   18. Label:BD*( 1)   3   7
        2 eigenvector(s) stashed in permanent list

 Search of NHO DM block for the following atom(s):   3   8
      Select eigenvectors with eigenvalue > 1.900
       1.988 0.005 0.000 0.000 0.000 0.000
      Eigenvector ( 1) has occupancy 1.98785
            0.0000 0.0000 0.0000 0.7257 0.0000 0.6880
      Occupancy is 1.988 after deleting minor hybrid components
            0.0000 0.0000 0.0000 0.7257 0.0000 0.6880
           NBO accepted:   19. Label:BD ( 1)   3   8
      Occupancy is 0.005 for antibonding component
            0.0000 0.0000 0.0000-0.6880 0.0000 0.7257
           NBO accepted:   20. Label:BD*( 1)   3   8
        2 eigenvector(s) stashed in permanent list

 Search of NHO DM block for the following atom(s):   4   6
      Select eigenvectors with eigenvalue > 1.900
       1.994 0.004 0.000 0.000 0.000 0.000
      Eigenvector ( 1) has occupancy 1.99392
            0.0000 0.7281 0.0000 0.0000 0.0000 0.6855
      Occupancy is 1.994 after deleting minor hybrid components
            0.0000 0.7281 0.0000 0.0000 0.0000 0.6855
           NBO accepted:   21. Label:BD ( 1)   4   6
      Occupancy is 0.004 for antibonding component
            0.0000-0.6855 0.0000 0.0000 0.0000 0.7281
           NBO accepted:   22. Label:BD*( 1)   4   6
        2 eigenvector(s) stashed in permanent list

 Search of NHO DM block for the following atom(s):   4   9
      Select eigenvectors with eigenvalue > 1.900
       1.988 0.005 0.000 0.000 0.000 0.000
      Eigenvector ( 1) has occupancy 1.98785
            0.0000 0.0000 0.7257 0.0000 0.0000 0.6880
      Occupancy is 1.988 after deleting minor hybrid components
            0.0000 0.0000 0.7257 0.0000 0.0000 0.6880
           NBO accepted:   23. Label:BD ( 1)   4   9
      Occupancy is 0.005 for antibonding component
            0.0000 0.0000-0.6880 0.0000 0.0000 0.7257
           NBO accepted:   24. Label:BD*( 1)   4   9
        2 eigenvector(s) stashed in permanent list

 Search of NHO DM block for the following atom(s):   4  10
      Select eigenvectors with eigenvalue > 1.900
       1.988 0.005 0.000 0.000 0.000 0.000
      Eigenvector ( 1) has occupancy 1.98785
            0.0000 0.0000 0.0000 0.7257 0.0000 0.6880
      Occupancy is 1.988 after deleting minor hybrid components
            0.0000 0.0000 0.0000 0.7257 0.0000 0.6880
           NBO accepted:   25. Label:BD ( 1)   4  10
      Occupancy is 0.005 for antibonding component
            0.0000 0.0000 0.0000-0.6880 0.0000 0.7257
           NBO accepted:   26. Label:BD*( 1)   4  10
        2 eigenvector(s) stashed in permanent list

  2-center NBOs projected from the NHO density matrix
       0.000 electrons remain in the fully projected matrix

                            Occupancies       Lewis Structure    Low   High
         Max    Occ     -------------------  -----------------   occ   occ
  Cycle  Ctr   Thresh    Lewis   non-Lewis     CR  BD  nC  LP    (L)   (NL)
 ============================================================================
    1     2     1.90    31.81919   0.18081      4  10   0   2     0      0
 ----------------------------------------------------------------------------

 Structure accepted: No low occupancy Lewis orbitals

 -------------------------------------------------------
   Core                      7.99999 (100.000% of   8)
   Valence Lewis            23.81920 ( 99.247% of  24)
  ==================      =============================
   Total Lewis              31.81919 ( 99.435% of  32)
  -----------------------------------------------------
   Valence non-Lewis         0.18081 (  0.565% of  32)
   Rydberg non-Lewis         0.00000 (  0.000% of  32)
  ==================      =============================
   Total non-Lewis           0.18081 (  0.565% of  32)
 -------------------------------------------------------


     (Occupancy)   Bond orbital / Coefficients / Hybrids
 ------------------ Lewis ------------------------------------------------------
   1. (2.00000) CR ( 1) O  1            s(100.00%)
                                         1.0000  0.0000  0.0000  0.0000  0.0000
   2. (2.00000) CR ( 1) C  2            s(100.00%)
                                         1.0000  0.0000  0.0000  0.0000  0.0000
   3. (2.00000) CR ( 1) C  3            s(100.00%)
                                         1.0000  0.0000  0.0000  0.0000  0.0000
   4. (2.00000) CR ( 1) C  4            s(100.00%)
                                         1.0000  0.0000  0.0000  0.0000  0.0000
   5. (1.99815) LP ( 1) O  1            s( 77.31%)p 0.29( 22.69%)
                                         0.0000  0.8792  0.0000  0.0000  0.4764
   6. (1.92120) LP ( 2) O  1            s(  0.00%)p 1.00(100.00%)
                                         0.0000  0.0000  0.0000  1.0000  0.0000
   7. (1.99342) BD ( 1) O  1- C  2
               ( 58.46%)   0.7646* O  1 s( 22.69%)p 3.41( 77.31%)
                                         0.0000  0.4764  0.0000  0.0000 -0.8792
               ( 41.54%)   0.6445* C  2 s( 33.41%)p 1.99( 66.59%)
                                         0.0000  0.5780  0.0000  0.0000  0.8161
   8. (1.98620) BD ( 2) O  1- C  2
               ( 57.04%)   0.7552* O  1 s(  0.00%)p 1.00(100.00%)
                                         0.0000  0.0000  1.0000  0.0000  0.0000
               ( 42.96%)   0.6555* C  2 s(  0.00%)p 1.00(100.00%)
                                         0.0000  0.0000  1.0000  0.0000  0.0000
   9. (1.99048) BD ( 1) C  2- C  3
               ( 49.01%)   0.7000* C  2 s( 33.30%)p 2.00( 66.70%)
                                         0.0000  0.5770  0.0000  0.7071 -0.4087
               ( 50.99%)   0.7141* C  3 s( 24.78%)p 3.03( 75.22%)
                                         0.0000  0.4978  0.0000 -0.7393  0.4535
  10. (1.99048) BD ( 1) C  2- C  4
               ( 49.01%)   0.7000* C  2 s( 33.30%)p 2.00( 66.70%)
                                         0.0000  0.5770  0.0000 -0.7071 -0.4087
               ( 50.99%)   0.7141* C  4 s( 24.78%)p 3.03( 75.22%)
                                         0.0000  0.4978  0.0000  0.7393  0.4535
  11. (1.99392) BD ( 1) C  3- H  5
               ( 53.01%)   0.7281* C  3 s( 25.49%)p 2.92( 74.51%)
                                         0.0000  0.5049  0.0000  0.6722  0.5415
               ( 46.99%)   0.6855* H  5 s(100.00%)
                                         1.0000
  12. (1.98785) BD ( 1) C  3- H  7
               ( 52.67%)   0.7257* C  3 s( 24.86%)p 3.02( 75.14%)
                                         0.0000  0.4986 -0.7071  0.0287 -0.5006
               ( 47.33%)   0.6880* H  7 s(100.00%)
                                         1.0000
  13. (1.98785) BD ( 1) C  3- H  8
               ( 52.67%)   0.7257* C  3 s( 24.86%)p 3.02( 75.14%)
                                         0.0000  0.4986  0.7071  0.0287 -0.5006
               ( 47.33%)   0.6880* H  8 s(100.00%)
                                         1.0000
  14. (1.99392) BD ( 1) C  4- H  6
               ( 53.01%)   0.7281* C  4 s( 25.49%)p 2.92( 74.51%)
                                         0.0000  0.5049  0.0000 -0.6722  0.5415
               ( 46.99%)   0.6855* H  6 s(100.00%)
                                         1.0000
  15. (1.98785) BD ( 1) C  4- H  9
               ( 52.67%)   0.7257* C  4 s( 24.86%)p 3.02( 75.14%)
                                         0.0000  0.4986  0.7071 -0.0287 -0.5006
               ( 47.33%)   0.6880* H  9 s(100.00%)
                                         1.0000
  16. (1.98785) BD ( 1) C  4- H 10
               ( 52.67%)   0.7257* C  4 s( 24.86%)p 3.02( 75.14%)
                                         0.0000  0.4986 -0.7071 -0.0287 -0.5006
               ( 47.33%)   0.6880* H 10 s(100.00%)
                                         1.0000
 ---------------- non-Lewis ----------------------------------------------------
  17. (0.01279) BD*( 1) O  1- C  2
               ( 41.54%)   0.6445* O  1 s( 22.69%)p 3.41( 77.31%)
                                         0.0000 -0.4764  0.0000  0.0000  0.8792
               ( 58.46%)  -0.7646* C  2 s( 33.41%)p 1.99( 66.59%)
                                         0.0000 -0.5780  0.0000  0.0000 -0.8161
  18. (0.04232) BD*( 2) O  1- C  2
               ( 42.96%)   0.6555* O  1 s(  0.00%)p 1.00(100.00%)
                                         0.0000  0.0000 -1.0000  0.0000  0.0000
               ( 57.04%)  -0.7552* C  2 s(  0.00%)p 1.00(100.00%)
                                         0.0000  0.0000 -1.0000  0.0000  0.0000
  19. (0.04983) BD*( 1) C  2- C  3
               ( 50.99%)   0.7141* C  2 s( 33.30%)p 2.00( 66.70%)
                                         0.0000  0.5770  0.0000  0.7071 -0.4087
               ( 49.01%)  -0.7000* C  3 s( 24.78%)p 3.03( 75.22%)
                                         0.0000  0.4978  0.0000 -0.7393  0.4535
  20. (0.04983) BD*( 1) C  2- C  4
               ( 50.99%)   0.7141* C  2 s( 33.30%)p 2.00( 66.70%)
                                         0.0000  0.5770  0.0000 -0.7071 -0.4087
               ( 49.01%)  -0.7000* C  4 s( 24.78%)p 3.03( 75.22%)
                                         0.0000  0.4978  0.0000  0.7393  0.4535
  21. (0.00387) BD*( 1) C  3- H  5
               ( 46.99%)   0.6855* C  3 s( 25.49%)p 2.92( 74.51%)
                                         0.0000 -0.5049  0.0000 -0.6722 -0.5415
               ( 53.01%)  -0.7281* H  5 s(100.00%)
                                        -1.0000
  22. (0.00457) BD*( 1) C  3- H  7
               ( 47.33%)   0.6880* C  3 s( 24.86%)p 3.02( 75.14%)
                                         0.0000 -0.4986  0.7071 -0.0287  0.5006
               ( 52.67%)  -0.7257* H  7 s(100.00%)
                                        -1.0000
  23. (0.00457) BD*( 1) C  3- H  8
               ( 47.33%)   0.6880* C  3 s( 24.86%)p 3.02( 75.14%)
                                         0.0000 -0.4986 -0.7071 -0.0287  0.5006
               ( 52.67%)  -0.7257* H  8 s(100.00%)
                                        -1.0000
  24. (0.00387) BD*( 1) C  4- H  6
               ( 46.99%)   0.6855* C  4 s( 25.49%)p 2.92( 74.51%)
                                         0.0000 -0.5049  0.0000  0.6722 -0.5415
               ( 53.01%)  -0.7281* H  6 s(100.00%)
                                        -1.0000
  25. (0.00457) BD*( 1) C  4- H  9
               ( 47.33%)   0.6880* C  4 s( 24.86%)p 3.02( 75.14%)
                                         0.0000 -0.4986 -0.7071  0.0287  0.5006
               ( 52.67%)  -0.7257* H  9 s(100.00%)
                                        -1.0000
  26. (0.00457) BD*( 1) C  4- H 10
               ( 47.33%)   0.6880* C  4 s( 24.86%)p 3.02( 75.14%)
                                         0.0000 -0.4986  0.7071  0.0287  0.5006
               ( 52.67%)  -0.7257* H 10 s(100.00%)
                                        -1.0000


 NHO DIRECTIONALITY AND BOND BENDING (deviation from line of nuclear centers at
                                      the position of maximum hybrid amplitude)

         [Thresholds for printing:  angular deviation  >  1.0 degree]
                                    p- or d-character  > 25.0%
                                    orbital occupancy  >  0.10e

                        Line of Centers        Hybrid 1             Hybrid 2
                        ---------------  -------------------  ------------------
           NBO            Theta   Phi    Theta   Phi    Dev   Theta   Phi    Dev
 ===============================================================================
   6. LP ( 2) O  1          --     --     89.9   90.0   --      --     --    --
   8. BD ( 2) O  1- C  2  180.0    0.0    89.9    0.0  90.1    90.1    0.0  90.1
   9. BD ( 1) C  2- C  3  121.7   90.0   120.3   90.0   1.4     --     --    --
  10. BD ( 1) C  2- C  4  121.7  270.0   120.3  270.0   1.4     --     --    --
  12. BD ( 1) C  3- H  7  126.3  177.0   125.4  177.7   1.1     --     --    --
  13. BD ( 1) C  3- H  8  126.3    3.0   125.4    2.3   1.1     --     --    --
  15. BD ( 1) C  4- H  9  126.3  357.0   125.4  357.7   1.1     --     --    --
  16. BD ( 1) C  4- H 10  126.3  183.0   125.4  182.3   1.1     --     --    --


 SECOND ORDER PERTURBATION THEORY ANALYSIS OF FOCK MATRIX IN NBO BASIS

     Threshold for printing:   0.50 kcal/mol
                                                          E(2) E(NL)-E(L) F(L,NL)
      Donor (L) NBO              Acceptor (NL) NBO      kcal/mol   a.u.    a.u.
 ===============================================================================

 within unit  1
    6. LP ( 2) O  1            19. BD*( 1) C  2- C  3     29.21    1.04   0.155
    6. LP ( 2) O  1            20. BD*( 1) C  2- C  4     29.21    1.04   0.155
    7. BD ( 1) O  1- C  2      19. BD*( 1) C  2- C  3      1.96    1.69   0.051
    7. BD ( 1) O  1- C  2      20. BD*( 1) C  2- C  4      1.96    1.69   0.051
    8. BD ( 2) O  1- C  2      22. BD*( 1) C  3- H  7      2.36    1.12   0.046
    8. BD ( 2) O  1- C  2      23. BD*( 1) C  3- H  8      2.36    1.12   0.046
    8. BD ( 2) O  1- C  2      25. BD*( 1) C  4- H  9      2.36    1.12   0.046
    8. BD ( 2) O  1- C  2      26. BD*( 1) C  4- H 10      2.36    1.12   0.046
    9. BD ( 1) C  2- C  3      17. BD*( 1) O  1- C  2      2.09    1.62   0.052
    9. BD ( 1) C  2- C  3      20. BD*( 1) C  2- C  4      2.72    1.38   0.055
    9. BD ( 1) C  2- C  3      24. BD*( 1) C  4- H  6      1.81    1.41   0.045
   10. BD ( 1) C  2- C  4      17. BD*( 1) O  1- C  2      2.09    1.62   0.052
   10. BD ( 1) C  2- C  4      19. BD*( 1) C  2- C  3      2.72    1.38   0.055
   10. BD ( 1) C  2- C  4      21. BD*( 1) C  3- H  5      1.81    1.41   0.045
   11. BD ( 1) C  3- H  5      17. BD*( 1) O  1- C  2      2.40    1.56   0.055
   11. BD ( 1) C  3- H  5      20. BD*( 1) C  2- C  4      2.22    1.31   0.048
   12. BD ( 1) C  3- H  7      17. BD*( 1) O  1- C  2      0.79    1.56   0.031
   12. BD ( 1) C  3- H  7      18. BD*( 2) O  1- C  2      5.33    0.94   0.063
   13. BD ( 1) C  3- H  8      17. BD*( 1) O  1- C  2      0.79    1.56   0.031
   13. BD ( 1) C  3- H  8      18. BD*( 2) O  1- C  2      5.33    0.94   0.063
   14. BD ( 1) C  4- H  6      17. BD*( 1) O  1- C  2      2.40    1.56   0.055
   14. BD ( 1) C  4- H  6      19. BD*( 1) C  2- C  3      2.22    1.31   0.048
   15. BD ( 1) C  4- H  9      17. BD*( 1) O  1- C  2      0.79    1.56   0.031
   15. BD ( 1) C  4- H  9      18. BD*( 2) O  1- C  2      5.33    0.94   0.063
   16. BD ( 1) C  4- H 10      17. BD*( 1) O  1- C  2      0.79    1.56   0.031
   16. BD ( 1) C  4- H 10      18. BD*( 2) O  1- C  2      5.33    0.94   0.063


 NATURAL BOND ORBITALS (Summary):

                                                     Principal Delocalizations
           NBO                 Occupancy    Energy   (geminal,vicinal,remote)
 ===============================================================================
 Molecular unit  1  (C3H6O)
 ------ Lewis --------------------------------------
    1. CR ( 1) O  1             2.00000   -20.14860
    2. CR ( 1) C  2             2.00000   -11.11239
    3. CR ( 1) C  3             2.00000   -11.03583
    4. CR ( 1) C  4             2.00000   -11.03583
    5. LP ( 1) O  1             1.99815    -0.94831
    6. LP ( 2) O  1             1.92120    -0.35407  19(v),20(v)
    7. BD ( 1) O  1- C  2       1.99342    -1.00556  19(g),20(g)
    8. BD ( 2) O  1- C  2       1.98620    -0.41458  22(v),23(v),25(v),26(v)
    9. BD ( 1) C  2- C  3       1.99048    -0.69367  20(g),17(g),24(v)
   10. BD ( 1) C  2- C  4       1.99048    -0.69367  19(g),17(g),21(v)
   11. BD ( 1) C  3- H  5       1.99392    -0.63116  17(v),20(v)
   12. BD ( 1) C  3- H  7       1.98785    -0.63290  18(v),17(v)
   13. BD ( 1) C  3- H  8       1.98785    -0.63290  18(v),17(v)
   14. BD ( 1) C  4- H  6       1.99392    -0.63116  17(v),19(v)
   15. BD ( 1) C  4- H  9       1.98785    -0.63290  18(v),17(v)
   16. BD ( 1) C  4- H 10       1.98785    -0.63290  18(v),17(v)
 ------ non-Lewis ----------------------------------
   17. BD*( 1) O  1- C  2       0.01279     0.92872
   18. BD*( 2) O  1- C  2       0.04232     0.30394
   19. BD*( 1) C  2- C  3       0.04983     0.68271
   20. BD*( 1) C  2- C  4       0.04983     0.68271
   21. BD*( 1) C  3- H  5       0.00387     0.71454
   22. BD*( 1) C  3- H  7       0.00457     0.70278
   23. BD*( 1) C  3- H  8       0.00457     0.70278
   24. BD*( 1) C  4- H  6       0.00387     0.71454
   25. BD*( 1) C  4- H  9       0.00457     0.70278
   26. BD*( 1) C  4- H 10       0.00457     0.70278
          -------------------------------
                 Total Lewis   31.81919  ( 99.4350%)
           Valence non-Lewis    0.18081  (  0.5650%)
           Rydberg non-Lewis    0.00000  (  0.0000%)
          -------------------------------
               Total unit  1   32.00000  (100.0000%)
              Charge unit  1    0.00000

 $CHOOSE
   LONE 1 2 END
   BOND D 1 2 S 2 3 S 2 4 S 3 5 S 3 7 S 3 8 S 4 6 S 4 9 S 4 10 END
 $END

 NBO analysis completed in 0.29 CPU seconds (0 wall seconds)
 Maximum scratch memory used by NBO was 227350 words (1.73 MB)
 Maximum scratch memory used by G16NBO was 9361 words (0.07 MB)

 Opening RunExU unformatted file "/cluster/work/users/beto93/mol123/Gau-1467368.EUF"
 Read unf file /cluster/work/users/beto93/mol123/Gau-1467368.EUF:
 Label Gaussian matrix elements                                         IVers= 2 NLab= 2 Version=ES64L-G16RevC.01
 Title mol123-NBO                                                      
 NAtoms=    10 NBasis=    26 NBsUse=    26 ICharg=     0 Multip=     1 NE=    32 Len12L=8 Len4L=8 IOpCl= 0 ICGU=111
 GAUSSIAN SCALARS                    NI= 1 NR= 1 NTot=       1 LenBuf=    2 NRI=1 N=    1000
 NPA CHARGES                         NI= 0 NR= 1 NTot=      10 LenBuf= 4000 NRI=1 N=      10
 Recovered energy= -189.534210292     dipole=     -0.000000000000     -0.000000000000     -0.764385779914
 Unable to Open any file for archive entry.
 1\1\GINC-C3-16\SP\RHF\STO-3G\C3H6O1\BETO93\18-Nov-2024\0\\#RHF/STO-3G 
 int=nobasistransform Symmetry=None 5D 7F Pop=NBO7Read\\mol123-NBO\\0,1
 \O,0,0.,0.,1.405591\C,0,0.,0.,0.17906\C,0,0.,1.28549,-0.616342\C,0,0.,
 -1.28549,-0.616342\H,0,0.,2.134917,0.066535\H,0,0.,-2.134917,0.066535\
 H,0,-0.881086,1.331548,-1.264013\H,0,0.881086,1.331548,-1.264013\H,0,0
 .881086,-1.331548,-1.264013\H,0,-0.881086,-1.331548,-1.264013\\Version
 =ES64L-G16RevC.01\HF=-189.5342103\RMSD=4.012e-09\Dipole=0.,0.,-0.76438
 58\Quadrupole=0.9624814,0.7208998,-1.6833812,0.,0.,0.\PG=Unknown\\@
 The archive entry for this job was punched.


 ONLY THE DAY DAWNS TO WHICH YOU ARE AWAKE.

                                 -- THOREAU
 Job cpu time:       0 days  0 hours  0 minutes 12.4 seconds.
 Elapsed time:       0 days  0 hours  0 minutes  4.1 seconds.
 File lengths (MBytes):  RWF=     10 Int=      0 D2E=      0 Chk=      1 Scr=      1
 Normal termination of Gaussian 16 at Mon Nov 18 15:41:48 2024.
