 Entering Gaussian System, Link 0=g16
 Initial command:
 /cluster/software/Gaussian/g16_C.01/l1.exe "/cluster/work/users/beto93/mol57/Gau-1186022.inp" -scrdir="/cluster/work/users/beto93/mol57/"
 Entering Link 1 = /cluster/software/Gaussian/g16_C.01/l1.exe PID=   1186023.
  
 Copyright (c) 1988-2019, Gaussian, Inc.  All Rights Reserved.
  
 This is part of the Gaussian(R) 16 program.  It is based on
 the Gaussian(R) 09 system (copyright 2009, Gaussian, Inc.),
 the Gaussian(R) 03 system (copyright 2003, Gaussian, Inc.),
 the Gaussian(R) 98 system (copyright 1998, Gaussian, Inc.),
 the Gaussian(R) 94 system (copyright 1995, Gaussian, Inc.),
 the Gaussian 92(TM) system (copyright 1992, Gaussian, Inc.),
 the Gaussian 90(TM) system (copyright 1990, Gaussian, Inc.),
 the Gaussian 88(TM) system (copyright 1988, Gaussian, Inc.),
 the Gaussian 86(TM) system (copyright 1986, Carnegie Mellon
 University), and the Gaussian 82(TM) system (copyright 1983,
 Carnegie Mellon University). Gaussian is a federally registered
 trademark of Gaussian, Inc.
  
 This software contains proprietary and confidential information,
 including trade secrets, belonging to Gaussian, Inc.
  
 This software is provided under written license and may be
 used, copied, transmitted, or stored only in accord with that
 written license.
  
 The following legend is applicable only to US Government
 contracts under FAR:
  
                    RESTRICTED RIGHTS LEGEND
  
 Use, reproduction and disclosure by the US Government is
 subject to restrictions as set forth in subparagraphs (a)
 and (c) of the Commercial Computer Software - Restricted
 Rights clause in FAR 52.227-19.
  
 Gaussian, Inc.
 340 Quinnipiac St., Bldg. 40, Wallingford CT 06492
  
  
 ---------------------------------------------------------------
 Warning -- This program may not be used in any manner that
 competes with the business of Gaussian, Inc. or will provide
 assistance to any competitor of Gaussian, Inc.  The licensee
 of this program is prohibited from giving any competitor of
 Gaussian, Inc. access to this program.  By using this program,
 the user acknowledges that Gaussian, Inc. is engaged in the
 business of creating and licensing software in the field of
 computational chemistry and represents and warrants to the
 licensee that it is not a competitor of Gaussian, Inc. and that
 it will not use this program in any manner prohibited above.
 ---------------------------------------------------------------
  

 Cite this work as:
 Gaussian 16, Revision C.01,
 M. J. Frisch, G. W. Trucks, H. B. Schlegel, G. E. Scuseria, 
 M. A. Robb, J. R. Cheeseman, G. Scalmani, V. Barone, 
 G. A. Petersson, H. Nakatsuji, X. Li, M. Caricato, A. V. Marenich, 
 J. Bloino, B. G. Janesko, R. Gomperts, B. Mennucci, H. P. Hratchian, 
 J. V. Ortiz, A. F. Izmaylov, J. L. Sonnenberg, D. Williams-Young, 
 F. Ding, F. Lipparini, F. Egidi, J. Goings, B. Peng, A. Petrone, 
 T. Henderson, D. Ranasinghe, V. G. Zakrzewski, J. Gao, N. Rega, 
 G. Zheng, W. Liang, M. Hada, M. Ehara, K. Toyota, R. Fukuda, 
 J. Hasegawa, M. Ishida, T. Nakajima, Y. Honda, O. Kitao, H. Nakai, 
 T. Vreven, K. Throssell, J. A. Montgomery, Jr., J. E. Peralta, 
 F. Ogliaro, M. J. Bearpark, J. J. Heyd, E. N. Brothers, K. N. Kudin, 
 V. N. Staroverov, T. A. Keith, R. Kobayashi, J. Normand, 
 K. Raghavachari, A. P. Rendell, J. C. Burant, S. S. Iyengar, 
 J. Tomasi, M. Cossi, J. M. Millam, M. Klene, C. Adamo, R. Cammi, 
 J. W. Ochterski, R. L. Martin, K. Morokuma, O. Farkas, 
 J. B. Foresman, and D. J. Fox, Gaussian, Inc., Wallingford CT, 2019.
 
 ******************************************
 Gaussian 16:  ES64L-G16RevC.01  3-Jul-2019
                18-Nov-2024 
 ******************************************
 %LindaWorkers=c2-38-ib
 %NProcShared=4
 Will use up to    4 processors via shared memory.
 %mem=25GB
 %chk=mol57.chk
 SetLPE:    new flags="-opt 'Tsnet.Node.lindarsharg: ssh'  -nodelist 'c2-38-ib.saga' -env GAUSS_MDEF=3355443200 -env GAUSS_EXEDIR="/cluster/software/Gaussian/g16_C.01/bsd:/cluster/software/Gaussian/g16_C.01""
 Will use up to    1 processors via Linda.
 -----------------------------------------------------------------
 #RHF/6-31G* int=nobasistransform Symmetry=None 5D 7F Pop=NBO7Read
 -----------------------------------------------------------------
 1/38=1,163=2,172=1/1;
 2/12=2,15=3,17=6,18=5,40=1/2;
 3/5=1,6=6,7=1,8=11,11=1,25=1,30=1,60=-1,116=1/1,2,3;
 4//1;
 5/5=2,38=5/2;
 6/7=2,8=2,9=2,10=2,28=1,40=2,113=1,114=1,124=2103/1,12;
 99/5=1,9=1/99;
 ---------
 mol57-NBO
 ---------
 Symbolic Z-matrix:
 Charge =  0 Multiplicity = 1
 Al                    0.        0.        0. 
 F                     0.        1.64472   0. 
 F                     1.42437  -0.82236   0. 
 F                    -1.42437  -0.82236   0. 
 
                          Input orientation:                          
 ---------------------------------------------------------------------
 Center     Atomic      Atomic             Coordinates (Angstroms)
 Number     Number       Type             X           Y           Z
 ---------------------------------------------------------------------
      1         13           0        0.000000    0.000000    0.000000
      2          9           0        0.000000    1.644720    0.000000
      3          9           0        1.424369   -0.822360    0.000000
      4          9           0       -1.424369   -0.822360    0.000000
 ---------------------------------------------------------------------
                    Distance matrix (angstroms):
                    1          2          3          4
     1  Al   0.000000
     2  F    1.644720   0.000000
     3  F    1.644720   2.848738   0.000000
     4  F    1.644720   2.848738   2.848738   0.000000
 Symmetry turned off by external request.
 Stoichiometry    AlF3
 Rotational constants (GHZ):           6.5557906           6.5557879           3.2778946
 Standard basis: 6-31G(d) (5D, 7F)
    60 basis functions,   136 primitive gaussians,    64 cartesian basis functions
    20 alpha electrons       20 beta electrons
       nuclear repulsion energy       158.0711219306 Hartrees.
 NAtoms=    4 NActive=    4 NUniq=    4 SFac= 1.00D+00 NAtFMM=   60 NAOKFM=F Big=F
 Integral buffers will be    131072 words long.
 Raffenetti 1 integral format.
 Two-electron integral symmetry is turned off.
 One-electron integrals computed using PRISM.
 NBasis=    60 RedAO= T EigKep=  2.54D-02  NBF=    60
 NBsUse=    60 1.00D-06 EigRej= -1.00D+00 NBFU=    60
 ExpMin= 5.57D-02 ExpMax= 1.40D+04 ExpMxC= 2.10D+03 IAcc=3 IRadAn=         5 AccDes= 0.00D+00
 Harris functional with IExCor=  205 and IRadAn=       5 diagonalized for initial guess.
 HarFok:  IExCor=  205 AccDes= 0.00D+00 IRadAn=         5 IDoV= 1 UseB2=F ITyADJ=14
 ICtDFT=  3500011 ScaDFX=  1.000000  1.000000  1.000000  1.000000
 FoFCou: FMM=F IPFlag=           0 FMFlag=      100000 FMFlg1=           0
         NFxFlg=           0 DoJE=T BraDBF=F KetDBF=T FulRan=T
         wScrn=  0.000000 ICntrl=       500 IOpCl=  0 I1Cent=   200000004 NGrid=           0
         NMat0=    1 NMatS0=      1 NMatT0=    0 NMatD0=    1 NMtDS0=    0 NMtDT0=    0
 Symmetry not used in FoFCou.
 Keep R1 ints in memory in canonical form, NReq=2514894.
 Requested convergence on RMS density matrix=1.00D-08 within 128 cycles.
 Requested convergence on MAX density matrix=1.00D-06.
 Requested convergence on             energy=1.00D-06.
 No special actions if energy rises.
 SCF Done:  E(RHF) =  -540.443728762     A.U. after    9 cycles
            NFock=  9  Conv=0.61D-08     -V/T= 2.0004

 **********************************************************************

            Population analysis using the SCF Density.

 **********************************************************************

 Alpha  occ. eigenvalues --  -58.55084 -26.27886 -26.27886 -26.27885  -4.96951
 Alpha  occ. eigenvalues --   -3.28795  -3.28483  -3.28483  -1.56677  -1.55460
 Alpha  occ. eigenvalues --   -1.55460  -0.72093  -0.67652  -0.67652  -0.65509
 Alpha  occ. eigenvalues --   -0.64429  -0.64429  -0.63565  -0.63565  -0.62045
 Alpha virt. eigenvalues --    0.06200   0.08824   0.17098   0.17098   0.30312
 Alpha virt. eigenvalues --    0.33755   0.48485   0.48485   0.69149   0.69149
 Alpha virt. eigenvalues --    0.80861   1.07267   1.07267   1.54578   1.56835
 Alpha virt. eigenvalues --    1.56835   1.60507   1.60507   1.64185   1.64369
 Alpha virt. eigenvalues --    1.66594   1.66594   2.04359   2.04359   2.06314
 Alpha virt. eigenvalues --    2.07425   2.11175   2.11175   2.11887   2.11887
 Alpha virt. eigenvalues --    2.12229   2.15366   2.23451   2.37404   2.37404
 Alpha virt. eigenvalues --    2.55614   2.55614   2.92624   3.02763   3.02763
          Condensed to atoms (all electrons):
               1          2          3          4
     1  Al  10.458003   0.255873   0.255873   0.255873
     2  F    0.255873   9.337993  -0.001204  -0.001204
     3  F    0.255873  -0.001204   9.337994  -0.001204
     4  F    0.255873  -0.001204  -0.001204   9.337994
 Mulliken charges:
               1
     1  Al   1.774378
     2  F   -0.591459
     3  F   -0.591459
     4  F   -0.591459
 Sum of Mulliken charges =  -0.00000
 Mulliken charges with hydrogens summed into heavy atoms:
               1
     1  Al   1.774378
     2  F   -0.591459
     3  F   -0.591459
     4  F   -0.591459
 Electronic spatial extent (au):  <R**2>=            321.4816
 Charge=             -0.0000 electrons
 Dipole moment (field-independent basis, Debye):
    X=              0.0000    Y=             -0.0000    Z=             -0.0000  Tot=              0.0000
 Quadrupole moment (field-independent basis, Debye-Ang):
   XX=            -30.8103   YY=            -30.8103   ZZ=            -19.9678
   XY=             -0.0000   XZ=             -0.0000   YZ=             -0.0000
 Traceless Quadrupole moment (field-independent basis, Debye-Ang):
   XX=             -3.6142   YY=             -3.6142   ZZ=              7.2283
   XY=             -0.0000   XZ=             -0.0000   YZ=             -0.0000
 Octapole moment (field-independent basis, Debye-Ang**2):
  XXX=             -0.0000  YYY=             -7.0861  ZZZ=             -0.0000  XYY=             -0.0000
  XXY=              7.0861  XXZ=              0.0000  XZZ=             -0.0000  YZZ=             -0.0000
  YYZ=             -0.0000  XYZ=              0.0000
 Hexadecapole moment (field-independent basis, Debye-Ang**3):
 XXXX=           -155.3678 YYYY=           -155.3679 ZZZZ=            -13.0901 XXXY=             -0.0000
 XXXZ=             -0.0000 YYYX=              0.0000 YYYZ=             -0.0000 ZZZX=             -0.0000
 ZZZY=             -0.0000 XXYY=            -51.7893 XXZZ=            -25.7855 YYZZ=            -25.7855
 XXYZ=             -0.0000 YYXZ=             -0.0000 ZZXY=              0.0000
 N-N= 1.580711219306D+02 E-N=-1.611657843834D+03  KE= 5.402279376382D+02
 Running external command "gaunbo7 R"
         input file       "/cluster/work/users/beto93/mol57/Gau-1186023.EIn"
         output file      "/cluster/work/users/beto93/mol57/Gau-1186023.EOu"
         message file     "/cluster/work/users/beto93/mol57/Gau-1186023.EMs"
         fchk file        "/cluster/work/users/beto93/mol57/Gau-1186023.EFC"
         mat. el file     "/cluster/work/users/beto93/mol57/Gau-1186023.EUF"

 Writing WrtUnf unformatted file "/cluster/work/users/beto93/mol57/Gau-1186023.EUF"
 Gaussian matrix elements                                         Version   2 NLab=11 Len12L=8 Len4L=8
 Write SHELL TO ATOM MAP                   from file      0 offset           0 length                  17 to matrix element file.
 Write SHELL TYPES                         from file      0 offset           0 length                  17 to matrix element file.
 Write NUMBER OF PRIMITIVES PER SHELL      from file      0 offset           0 length                  17 to matrix element file.
 Write PRIMITIVE EXPONENTS                 from file      0 offset           0 length                  50 to matrix element file.
 Write CONTRACTION COEFFICIENTS            from file      0 offset           0 length                  50 to matrix element file.
 Write P(S=P) CONTRACTION COEFFICIENTS     from file      0 offset           0 length                  50 to matrix element file.
 Write COORDINATES OF EACH SHELL           from file      0 offset           0 length                  51 to matrix element file.
 Write BONDS PER ATOM                      from file      0 offset           0 length                   4 to matrix element file.
 Write BONDED ATOMS                        from file      0 offset           0 length                   6 to matrix element file.
 Write BOND TYPES                          from file      0 offset           0 length                   6 to matrix element file.
 Write ONIOM CHARGE/MULT                   from file      0 offset           0 length                  32 to matrix element file.
 Write ONIOM ATOM LAYERS                   from file      0 offset           0 length                   4 to matrix element file.
 Write ONIOM ATOM MODIFIERS                from file      0 offset           0 length                   4 to matrix element file.
 Write ONIOM ATOM TYPES                    from file      0 offset           0 length                   4 to matrix element file.
 Write ONIOM LINK ATOMS                    from file      0 offset           0 length                   4 to matrix element file.
 Write ONIOM LINK CHARGES                  from file      0 offset           0 length                   4 to matrix element file.
 Write ONIOM LINK DISTANCES                from file      0 offset           0 length                  16 to matrix element file.
 Write SYMINF INTS                         from file      0 offset           0 length                  26 to matrix element file.
 Write ROTTR TO SO                         from file      0 offset           0 length                  12 to matrix element file.
 Write GAUSSIAN SCALARS                    from file    501 offset           0 to matrix element file.
 Write OPTIMIZATION FLAGS                  from file      0 offset           0 length                   4 to matrix element file.
 Write INTEGER ISO                         from file      0 offset           0 length                   4 to matrix element file.
 Write INTEGER SPIN                        from file      0 offset           0 length                   4 to matrix element file.
 Write REAL ZEFFECTIVE                     from file      0 offset           0 length                   4 to matrix element file.
 Write REAL QUADRUPOLEMOMENT               from file      0 offset           0 length                   4 to matrix element file.
 Write REAL GFACTOR                        from file      0 offset           0 length                   4 to matrix element file.
 Write REAL ZNUCLEAR                       from file      0 offset           0 length                   4 to matrix element file.
 Write MULLIKEN CHARGES                    from file      0 offset           0 length                   4 to matrix element file.
 Write NUCLEAR GRADIENT                    from file  10584 offset           0 length                  12 to matrix element file.
 Array NUCLEAR FORCE CONSTANTS              on  file  10585 does not exist.
 Write ELECTRIC DIPOLE MOMENT              from file      0 offset           0 length                   3 to matrix element file.
 Write NON-ADIABATIC COUPLING              from file  10810 offset           0 length                  12 to matrix element file.
 Write FINITE EM FIELD                     from file  10521 offset           0 length                  35 to matrix element file.
 Write OVERLAP                             from file  10514 offset           0 length                1830 to matrix element file.
 Write CORE HAMILTONIAN ALPHA              from file  10515 offset           0 length                1830 to matrix element file.
 Write CORE HAMILTONIAN BETA               from file  10515 offset        1830 length                1830 to matrix element file.
 Write KINETIC ENERGY                      from file  10516 offset           0 length                1830 to matrix element file.
 Write ORTHOGONAL BASIS                    from file  10685 offset           0 length                3600 to matrix element file.
 Write DIPOLE INTEGRALS                    from file  10518 offset           0 length                5490 to matrix element file.
 Array DIP VEL INTEGRALS                    on  file  10572 does not exist.
 Array R X DEL INTEGRALS                    on  file  10572 does not exist.
 Write ALPHA ORBITAL ENERGIES              from file      0 offset           0 length                  60 to matrix element file.
 Write ALPHA MO COEFFICIENTS               from file  10524 offset           0 length                3600 to matrix element file.
 Write ALPHA DENSITY MATRIX                from file      0 offset           0 length                1830 to matrix element file.
 Write ALPHA FOCK MATRIX                   from file  10536 offset           0 length                1830 to matrix element file.
 Write ENERGY-WEIGHTED DENSITY             from file  10571 offset           0 length                1830 to matrix element file.
 Write ALPHA SCF DENSITY MATRIX            from file      0 offset           0 length                1830 to matrix element file.
 No 2e integrals to process.
 Perform NBO analysis...executing G16NBO...

 *********************************** NBO 7.0 ***********************************
             N A T U R A L   A T O M I C   O R B I T A L   A N D
          N A T U R A L   B O N D   O R B I T A L   A N A L Y S I S
 **************************** Espen Tangen (S101595) ***************************
  (c) Copyright 1996-2021 Board of Regents of the University of Wisconsin System
      on behalf of the Theoretical Chemistry Institute.  All rights reserved.

          Cite this program [NBO 7.0.10 (8-Feb-2021)] as:

          NBO 7.0.  E. D. Glendening, J. K. Badenhoop, A. E. Reed,
          J. E. Carpenter, J. A. Bohmann, C. M. Morales, P. Karafiloglou,
          C. R. Landis, and F. Weinhold, Theoretical Chemistry Institute,
          University of Wisconsin, Madison, WI (2018)

       /NPA    / : Natural Population Analysis
       /AOPNAO / : Print the AO to PNAO transformation
       /AONAO  / : Print the AO to NAO transformation
       /AOMO   / : Print the MOs in the AO basis
       /BOAO   / : Print the AO bond-order matrix
       /DMAO   / : Print the AO density matrix
       /DMPNAO / : Print the PNAO density matrix
       /DMNAO  / : Print the NAO density matrix
       /DMMO   / : Print the MO density matrix
       /SAO    / : Print the AO overlap matrix
       /SPNAO  / : Print the PNAO overlap matrix
       /DETAIL / : Write details of NBO search
       /ARCHIVE/ : Write the archive file to lfn47
       /AOINFO / : Write AO information to lfn31
       /FILE   / : Set to mol57.gen*

 Filename set to mol57.gen1

 Job title: mol57-NBO


 MOs in the AO basis:

           AO          1       2       3       4       5       6       7       8
      ------------ ------- ------- ------- ------- ------- ------- ------- -------
   1. Al 1 (s)      0.9973  0.0000  0.0000  0.0001 -0.2630  0.0000  0.0000  0.0000
   2. Al 1 (s)      0.0105  0.0000  0.0000  0.0001  1.0294  0.0000  0.0000  0.0000
   3. Al 1 (px)     0.0000 -0.0002  0.0000  0.0000  0.0000  0.0000  0.9946  0.0000
   4. Al 1 (py)     0.0000  0.0000 -0.0002  0.0000  0.0000  0.0000  0.0000  0.9946
   5. Al 1 (pz)     0.0000  0.0000  0.0000  0.0000  0.0000  0.9953  0.0000  0.0000
   6. Al 1 (s)     -0.0044  0.0000  0.0000  0.0036  0.0065  0.0000  0.0000  0.0000
   7. Al 1 (px)     0.0000  0.0046  0.0000  0.0000  0.0000  0.0000  0.0119  0.0000
   8. Al 1 (py)     0.0000  0.0000  0.0046  0.0000  0.0000  0.0000  0.0000  0.0119
   9. Al 1 (pz)     0.0000  0.0000  0.0000  0.0000  0.0000  0.0193  0.0000  0.0000
  10. Al 1 (s)      0.0015  0.0000  0.0000  0.0004 -0.0018  0.0000  0.0000  0.0000
  11. Al 1 (px)     0.0000 -0.0001  0.0000  0.0000  0.0000  0.0000 -0.0026  0.0000
  12. Al 1 (py)     0.0000  0.0000 -0.0001  0.0000  0.0000  0.0000  0.0000 -0.0026
  13. Al 1 (pz)     0.0000  0.0000  0.0000  0.0000  0.0000 -0.0053  0.0000  0.0000
  14. Al 1 (d5)     0.0008  0.0000  0.0000 -0.0013  0.0012  0.0000  0.0000  0.0000
  15. Al 1 (d2)     0.0000  0.0000  0.0000  0.0000  0.0000  0.0000  0.0000  0.0000
  16. Al 1 (d3)     0.0000  0.0000  0.0000  0.0000  0.0000  0.0000  0.0000  0.0000
  17. Al 1 (d4)     0.0000  0.0000 -0.0022  0.0000  0.0000  0.0000  0.0000  0.0025
  18. Al 1 (d1)     0.0000 -0.0022  0.0000  0.0000  0.0000  0.0000  0.0025  0.0000
  19.  F 2 (s)      0.0000  0.0000  0.8117  0.5765 -0.0006  0.0000  0.0000 -0.0034
  20.  F 2 (s)     -0.0003  0.0000  0.0182  0.0128  0.0008  0.0000  0.0000  0.0052
  21.  F 2 (px)     0.0000  0.0001  0.0000  0.0000  0.0000  0.0000  0.0011  0.0000
  22.  F 2 (py)     0.0000  0.0000 -0.0009 -0.0006 -0.0014  0.0000  0.0000 -0.0064
  23.  F 2 (pz)     0.0000  0.0000  0.0000  0.0000  0.0000  0.0011  0.0000  0.0000
  24.  F 2 (s)      0.0010  0.0000 -0.0074 -0.0044  0.0015  0.0000  0.0000  0.0080
  25.  F 2 (px)     0.0000 -0.0002  0.0000  0.0000  0.0000  0.0000  0.0000  0.0000
  26.  F 2 (py)    -0.0007  0.0000  0.0026  0.0015 -0.0012  0.0000  0.0000 -0.0062
  27.  F 2 (pz)     0.0000  0.0000  0.0000  0.0000  0.0000  0.0000  0.0000  0.0000
  28.  F 2 (d5)    -0.0001  0.0000  0.0003  0.0002 -0.0004  0.0000  0.0000 -0.0015
  29.  F 2 (d2)     0.0000  0.0000  0.0000  0.0000  0.0000  0.0000  0.0000  0.0000
  30.  F 2 (d3)     0.0000  0.0000  0.0000  0.0000  0.0000 -0.0006  0.0000  0.0000
  31.  F 2 (d4)    -0.0001  0.0000  0.0006  0.0003 -0.0006  0.0000  0.0000 -0.0027
  32.  F 2 (d1)     0.0000 -0.0001  0.0000  0.0000  0.0000  0.0000 -0.0006  0.0000
  33.  F 3 (s)      0.0000  0.7040 -0.4077  0.5739 -0.0006  0.0000 -0.0029  0.0017
  34.  F 3 (s)     -0.0003  0.0158 -0.0091  0.0127  0.0008  0.0000  0.0045 -0.0026
  35.  F 3 (px)     0.0000 -0.0006  0.0004 -0.0005 -0.0012  0.0000 -0.0045  0.0032
  36.  F 3 (py)     0.0000  0.0004 -0.0001  0.0003  0.0007  0.0000  0.0032 -0.0008
  37.  F 3 (pz)     0.0000  0.0000  0.0000  0.0000  0.0000  0.0011  0.0000  0.0000
  38.  F 3 (s)      0.0010 -0.0064  0.0037 -0.0044  0.0015  0.0000  0.0070 -0.0040
  39.  F 3 (px)    -0.0006  0.0019 -0.0012  0.0013 -0.0011  0.0000 -0.0047  0.0027
  40.  F 3 (py)     0.0004 -0.0012  0.0005 -0.0007  0.0006  0.0000  0.0027 -0.0015
  41.  F 3 (pz)     0.0000  0.0000  0.0000  0.0000  0.0000  0.0000  0.0000  0.0000
  42.  F 3 (d5)    -0.0001  0.0002 -0.0001  0.0002 -0.0004  0.0000 -0.0013  0.0007
  43.  F 3 (d2)     0.0000  0.0000  0.0000  0.0000  0.0000 -0.0005  0.0000  0.0000
  44.  F 3 (d3)     0.0000  0.0000  0.0000  0.0000  0.0000  0.0003  0.0000  0.0000
  45.  F 3 (d4)     0.0000 -0.0003  0.0001 -0.0001  0.0003  0.0000  0.0009 -0.0011
  46.  F 3 (d1)     0.0000  0.0004 -0.0003  0.0002 -0.0005  0.0000 -0.0022  0.0009
  47.  F 4 (s)      0.0000 -0.7040 -0.4077  0.5739 -0.0006  0.0000  0.0029  0.0017
  48.  F 4 (s)     -0.0003 -0.0158 -0.0091  0.0127  0.0008  0.0000 -0.0045 -0.0026
  49.  F 4 (px)     0.0000 -0.0006 -0.0004  0.0005  0.0012  0.0000 -0.0045 -0.0032
  50.  F 4 (py)     0.0000 -0.0004 -0.0001  0.0003  0.0007  0.0000 -0.0032 -0.0008
  51.  F 4 (pz)     0.0000  0.0000  0.0000  0.0000  0.0000  0.0011  0.0000  0.0000
  52.  F 4 (s)      0.0010  0.0064  0.0037 -0.0044  0.0015  0.0000 -0.0070 -0.0040
  53.  F 4 (px)     0.0006  0.0019  0.0012 -0.0013  0.0011  0.0000 -0.0047 -0.0027
  54.  F 4 (py)     0.0004  0.0012  0.0005 -0.0007  0.0006  0.0000 -0.0027 -0.0015
  55.  F 4 (pz)     0.0000  0.0000  0.0000  0.0000  0.0000  0.0000  0.0000  0.0000
  56.  F 4 (d5)    -0.0001 -0.0002 -0.0001  0.0002 -0.0004  0.0000  0.0013  0.0007
  57.  F 4 (d2)     0.0000  0.0000  0.0000  0.0000  0.0000  0.0005  0.0000  0.0000
  58.  F 4 (d3)     0.0000  0.0000  0.0000  0.0000  0.0000  0.0003  0.0000  0.0000
  59.  F 4 (d4)     0.0000  0.0003  0.0001 -0.0001  0.0003  0.0000 -0.0009 -0.0011
  60.  F 4 (d1)     0.0000  0.0004  0.0003 -0.0002  0.0005  0.0000 -0.0022 -0.0009

           AO          9      10      11      12      13      14      15      16
      ------------ ------- ------- ------- ------- ------- ------- ------- -------
   1. Al 1 (s)      0.0157  0.0000  0.0000 -0.0345  0.0000  0.0000  0.0000  0.0000
   2. Al 1 (s)     -0.0824  0.0000  0.0000  0.1708  0.0000  0.0000  0.0000  0.0000
   3. Al 1 (px)     0.0000 -0.0734  0.0000  0.0000 -0.1290  0.0000  0.0000  0.0000
   4. Al 1 (py)     0.0000  0.0000 -0.0734  0.0000  0.0000  0.1290  0.0000  0.0252
   5. Al 1 (pz)     0.0000  0.0000  0.0000  0.0000  0.0000  0.0000 -0.0707  0.0000
   6. Al 1 (s)      0.0460  0.0000  0.0000 -0.3098  0.0000  0.0000  0.0000  0.0000
   7. Al 1 (px)     0.0000  0.0276  0.0000  0.0000  0.2099  0.0000  0.0000  0.0000
   8. Al 1 (py)     0.0000  0.0000  0.0276  0.0000  0.0000 -0.2099  0.0000 -0.0386
   9. Al 1 (pz)     0.0000  0.0000  0.0000  0.0000  0.0000  0.0000  0.1466  0.0000
  10. Al 1 (s)      0.0008  0.0000  0.0000  0.0525  0.0000  0.0000  0.0000  0.0000
  11. Al 1 (px)     0.0000 -0.0006  0.0000  0.0000 -0.0344  0.0000  0.0000  0.0000
  12. Al 1 (py)     0.0000  0.0000 -0.0006  0.0000  0.0000  0.0344  0.0000  0.0744
  13. Al 1 (pz)     0.0000  0.0000  0.0000  0.0000  0.0000  0.0000  0.0496  0.0000
  14. Al 1 (d5)    -0.0049  0.0000  0.0000  0.0196  0.0000  0.0000  0.0000  0.0000
  15. Al 1 (d2)     0.0000  0.0000  0.0000  0.0000  0.0000  0.0000  0.0000  0.0000
  16. Al 1 (d3)     0.0000  0.0000  0.0000  0.0000  0.0000  0.0000  0.0000  0.0000
  17. Al 1 (d4)     0.0000  0.0000 -0.0146  0.0000  0.0000  0.0234  0.0000  0.0975
  18. Al 1 (d1)     0.0000 -0.0146  0.0000  0.0000 -0.0234  0.0000  0.0000  0.0000
  19.  F 2 (s)     -0.1351  0.0000 -0.1933 -0.0251  0.0000 -0.0229  0.0000 -0.0070
  20.  F 2 (s)      0.2841  0.0000  0.4092  0.0655  0.0000  0.0559  0.0000  0.0214
  21.  F 2 (px)     0.0000  0.0011  0.0000  0.0000  0.2396  0.0000  0.0000  0.0000
  22.  F 2 (py)    -0.0260  0.0000 -0.0319  0.3327  0.0000  0.4400  0.0000  0.2549
  23.  F 2 (pz)     0.0000  0.0000  0.0000  0.0000  0.0000  0.0000  0.3559  0.0000
  24.  F 2 (s)      0.3265  0.0000  0.4628  0.0826  0.0000  0.1024  0.0000  0.0284
  25.  F 2 (px)     0.0000  0.0023  0.0000  0.0000  0.1786  0.0000  0.0000  0.0000
  26.  F 2 (py)    -0.0361  0.0000 -0.0438  0.2391  0.0000  0.3103  0.0000  0.1648
  27.  F 2 (pz)     0.0000  0.0000  0.0000  0.0000  0.0000  0.0000  0.2612  0.0000
  28.  F 2 (d5)    -0.0053  0.0000 -0.0065  0.0096  0.0000  0.0115  0.0000  0.0036
  29.  F 2 (d2)     0.0000  0.0000  0.0000  0.0000  0.0000  0.0000  0.0000  0.0000
  30.  F 2 (d3)     0.0000  0.0000  0.0000  0.0000  0.0000  0.0000 -0.0163  0.0000
  31.  F 2 (d4)    -0.0097  0.0000 -0.0122  0.0169  0.0000  0.0199  0.0000  0.0072
  32.  F 2 (d1)     0.0000 -0.0015  0.0000  0.0000 -0.0122  0.0000  0.0000  0.0000
  33.  F 3 (s)     -0.1351 -0.1674  0.0966 -0.0251  0.0199  0.0115  0.0000  0.0035
  34.  F 3 (s)      0.2841  0.3544 -0.2046  0.0655 -0.0484 -0.0279  0.0000 -0.0107
  35.  F 3 (px)    -0.0225 -0.0237  0.0143  0.2881 -0.2701 -0.2943  0.0000  0.0861
  36.  F 3 (py)     0.0130  0.0143 -0.0072 -0.1664  0.2943 -0.0697  0.0000  0.4041
  37.  F 3 (pz)     0.0000  0.0000  0.0000  0.0000  0.0000  0.0000  0.3559  0.0000
  38.  F 3 (s)      0.3266  0.4008 -0.2314  0.0826 -0.0887 -0.0512  0.0000 -0.0142
  39.  F 3 (px)    -0.0313 -0.0323  0.0200  0.2071 -0.1880 -0.2117  0.0000  0.0717
  40.  F 3 (py)     0.0180  0.0200 -0.0092 -0.1195  0.2117 -0.0564  0.0000  0.2890
  41.  F 3 (pz)     0.0000  0.0000  0.0000  0.0000  0.0000  0.0000  0.2612  0.0000
  42.  F 3 (d5)    -0.0053 -0.0057  0.0033  0.0096 -0.0099 -0.0057  0.0000 -0.0018
  43.  F 3 (d2)     0.0000  0.0000  0.0000  0.0000  0.0000  0.0000 -0.0141  0.0000
  44.  F 3 (d3)     0.0000  0.0000  0.0000  0.0000  0.0000  0.0000  0.0081  0.0000
  45.  F 3 (d4)     0.0048  0.0047 -0.0042 -0.0084  0.0033  0.0141  0.0000 -0.0091
  46.  F 3 (d1)    -0.0084 -0.0095  0.0047  0.0146 -0.0180 -0.0033  0.0000 -0.0094
  47.  F 4 (s)     -0.1351  0.1674  0.0966 -0.0251 -0.0199  0.0115  0.0000  0.0035
  48.  F 4 (s)      0.2841 -0.3544 -0.2046  0.0655  0.0484 -0.0279  0.0000 -0.0107
  49.  F 4 (px)     0.0225 -0.0237 -0.0143 -0.2881 -0.2701  0.2943  0.0000 -0.0861
  50.  F 4 (py)     0.0130 -0.0143 -0.0072 -0.1664 -0.2943 -0.0697  0.0000  0.4041
  51.  F 4 (pz)     0.0000  0.0000  0.0000  0.0000  0.0000  0.0000  0.3559  0.0000
  52.  F 4 (s)      0.3266 -0.4008 -0.2314  0.0826  0.0887 -0.0512  0.0000 -0.0142
  53.  F 4 (px)     0.0313 -0.0323 -0.0200 -0.2071 -0.1880  0.2117  0.0000 -0.0717
  54.  F 4 (py)     0.0180 -0.0200 -0.0092 -0.1195 -0.2117 -0.0564  0.0000  0.2890
  55.  F 4 (pz)     0.0000  0.0000  0.0000  0.0000  0.0000  0.0000  0.2612  0.0000
  56.  F 4 (d5)    -0.0053  0.0057  0.0033  0.0096  0.0099 -0.0057  0.0000 -0.0018
  57.  F 4 (d2)     0.0000  0.0000  0.0000  0.0000  0.0000  0.0000  0.0141  0.0000
  58.  F 4 (d3)     0.0000  0.0000  0.0000  0.0000  0.0000  0.0000  0.0081  0.0000
  59.  F 4 (d4)     0.0048 -0.0047 -0.0042 -0.0084 -0.0033  0.0141  0.0000 -0.0091
  60.  F 4 (d1)     0.0084 -0.0095 -0.0047 -0.0146 -0.0180  0.0033  0.0000  0.0094

           AO         17      18      19      20      21      22      23      24
      ------------ ------- ------- ------- ------- ------- ------- ------- -------
   1. Al 1 (s)      0.0000  0.0000  0.0000  0.0000  0.0234  0.0000  0.0000  0.0000
   2. Al 1 (s)      0.0000  0.0000  0.0000  0.0000 -0.2012  0.0000  0.0000  0.0000
   3. Al 1 (px)     0.0252  0.0000  0.0000  0.0000  0.0000  0.0000 -0.0213  0.0000
   4. Al 1 (py)     0.0000  0.0000  0.0000  0.0000  0.0000  0.0000  0.0000 -0.0213
   5. Al 1 (pz)     0.0000  0.0000  0.0000  0.0000  0.0000 -0.1014  0.0000  0.0000
   6. Al 1 (s)      0.0000  0.0000  0.0000  0.0000 -0.0958  0.0000  0.0000  0.0000
   7. Al 1 (px)    -0.0386  0.0000  0.0000  0.0000  0.0000  0.0000 -0.1846  0.0000
   8. Al 1 (py)     0.0000  0.0000  0.0000  0.0000  0.0000  0.0000  0.0000 -0.1846
   9. Al 1 (pz)     0.0000  0.0000  0.0000  0.0000  0.0000  0.1908  0.0000  0.0000
  10. Al 1 (s)      0.0000  0.0000  0.0000  0.0000  1.2703  0.0000  0.0000  0.0000
  11. Al 1 (px)     0.0744  0.0000  0.0000  0.0000  0.0000  0.0000  1.2784  0.0000
  12. Al 1 (py)     0.0000  0.0000  0.0000  0.0000  0.0000  0.0000  0.0000  1.2784
  13. Al 1 (pz)     0.0000  0.0000  0.0000  0.0000  0.0000  0.9229  0.0000  0.0000
  14. Al 1 (d5)     0.0000  0.0000  0.0000  0.0000  0.1336  0.0000  0.0000  0.0000
  15. Al 1 (d2)     0.0000  0.0681  0.0000  0.0000  0.0000  0.0000  0.0000  0.0000
  16. Al 1 (d3)     0.0000  0.0000  0.0681  0.0000  0.0000  0.0000  0.0000  0.0000
  17. Al 1 (d4)     0.0000  0.0000  0.0000  0.0000  0.0000  0.0000  0.0000  0.0637
  18. Al 1 (d1)     0.0975  0.0000  0.0000  0.0000  0.0000  0.0000  0.0637  0.0000
  19.  F 2 (s)      0.0000  0.0000  0.0000  0.0000  0.0362  0.0000  0.0000  0.0384
  20.  F 2 (s)      0.0000  0.0000  0.0000  0.0000 -0.0672  0.0000  0.0000 -0.0669
  21.  F 2 (px)     0.4538  0.0000  0.0000  0.3770  0.0000  0.0000 -0.1230  0.0000
  22.  F 2 (py)     0.0000  0.0000  0.0000  0.0000  0.1051  0.0000  0.0000  0.0004
  23.  F 2 (pz)     0.0000  0.0000  0.5209  0.0000  0.0000 -0.1316  0.0000  0.0000
  24.  F 2 (s)      0.0000  0.0000  0.0000  0.0000 -0.2636  0.0000  0.0000 -0.3341
  25.  F 2 (px)     0.3304  0.0000  0.0000  0.2910  0.0000  0.0000 -0.1496  0.0000
  26.  F 2 (py)     0.0000  0.0000  0.0000  0.0000  0.0754  0.0000  0.0000 -0.0827
  27.  F 2 (pz)     0.0000  0.0000  0.3979  0.0000  0.0000 -0.1628  0.0000  0.0000
  28.  F 2 (d5)     0.0000  0.0000  0.0000  0.0000  0.0003  0.0000  0.0000 -0.0045
  29.  F 2 (d2)     0.0000 -0.0004  0.0000  0.0000  0.0000  0.0000  0.0000  0.0000
  30.  F 2 (d3)     0.0000  0.0000 -0.0209  0.0000  0.0000 -0.0010  0.0000  0.0000
  31.  F 2 (d4)     0.0000  0.0000  0.0000  0.0000 -0.0017  0.0000  0.0000 -0.0091
  32.  F 2 (d1)    -0.0146  0.0000  0.0000 -0.0172  0.0000  0.0000  0.0006  0.0000
  33.  F 3 (s)     -0.0061  0.0000  0.0000  0.0000  0.0362  0.0000  0.0333 -0.0192
  34.  F 3 (s)      0.0185  0.0000  0.0000  0.0000 -0.0672  0.0000 -0.0579  0.0335
  35.  F 3 (px)     0.3046  0.0000  0.0000 -0.1885  0.0910  0.0000 -0.0305 -0.0534
  36.  F 3 (py)     0.0861  0.0000  0.0000 -0.3264 -0.0526  0.0000 -0.0534 -0.0922
  37.  F 3 (pz)     0.0000  0.4511 -0.2604  0.0000  0.0000 -0.1316  0.0000  0.0000
  38.  F 3 (s)      0.0246  0.0000  0.0000  0.0000 -0.2636  0.0000 -0.2894  0.1671
  39.  F 3 (px)     0.2062  0.0000  0.0000 -0.1455  0.0653  0.0000 -0.0995 -0.0290
  40.  F 3 (py)     0.0717  0.0000  0.0000 -0.2520 -0.0377  0.0000 -0.0290 -0.1329
  41.  F 3 (pz)     0.0000  0.3446 -0.1990  0.0000  0.0000 -0.1628  0.0000  0.0000
  42.  F 3 (d5)     0.0031  0.0000  0.0000  0.0000  0.0003  0.0000 -0.0039  0.0022
  43.  F 3 (d2)     0.0000 -0.0158  0.0089  0.0000  0.0000 -0.0008  0.0000  0.0000
  44.  F 3 (d3)     0.0000  0.0089 -0.0056  0.0000  0.0000  0.0005  0.0000  0.0000
  45.  F 3 (d4)    -0.0094  0.0000  0.0000  0.0149  0.0009  0.0000  0.0042 -0.0018
  46.  F 3 (d1)     0.0018  0.0000  0.0000  0.0086 -0.0015  0.0000 -0.0066  0.0042
  47.  F 4 (s)      0.0061  0.0000  0.0000  0.0000  0.0362  0.0000 -0.0333 -0.0192
  48.  F 4 (s)     -0.0185  0.0000  0.0000  0.0000 -0.0672  0.0000  0.0579  0.0335
  49.  F 4 (px)     0.3046  0.0000  0.0000 -0.1885 -0.0910  0.0000 -0.0305  0.0534
  50.  F 4 (py)    -0.0861  0.0000  0.0000  0.3264 -0.0526  0.0000  0.0534 -0.0922
  51.  F 4 (pz)     0.0000 -0.4511 -0.2604  0.0000  0.0000 -0.1316  0.0000  0.0000
  52.  F 4 (s)     -0.0246  0.0000  0.0000  0.0000 -0.2636  0.0000  0.2894  0.1671
  53.  F 4 (px)     0.2062  0.0000  0.0000 -0.1455 -0.0653  0.0000 -0.0995  0.0290
  54.  F 4 (py)    -0.0717  0.0000  0.0000  0.2520 -0.0377  0.0000  0.0290 -0.1329
  55.  F 4 (pz)     0.0000 -0.3446 -0.1990  0.0000  0.0000 -0.1628  0.0000  0.0000
  56.  F 4 (d5)    -0.0031  0.0000  0.0000  0.0000  0.0003  0.0000  0.0039  0.0022
  57.  F 4 (d2)     0.0000 -0.0158 -0.0089  0.0000  0.0000  0.0008  0.0000  0.0000
  58.  F 4 (d3)     0.0000 -0.0089 -0.0056  0.0000  0.0000  0.0005  0.0000  0.0000
  59.  F 4 (d4)     0.0094  0.0000  0.0000 -0.0149  0.0009  0.0000 -0.0042 -0.0018
  60.  F 4 (d1)     0.0018  0.0000  0.0000  0.0086  0.0015  0.0000 -0.0066 -0.0042

           AO         25      26      27      28      29      30      31      32
      ------------ ------- ------- ------- ------- ------- ------- ------- -------
   1. Al 1 (s)      0.0000  0.0670  0.0000  0.0000  0.0000  0.0000  0.0370  0.0000
   2. Al 1 (s)      0.0000 -0.1161  0.0000  0.0000  0.0000  0.0000 -0.0723  0.0000
   3. Al 1 (px)     0.0000  0.0000 -0.2851  0.0000  0.0000  0.0000  0.0000  0.0000
   4. Al 1 (py)     0.0000  0.0000  0.0000 -0.2851  0.0000  0.0000  0.0000 -0.1850
   5. Al 1 (pz)    -0.2968  0.0000  0.0000  0.0000  0.0000  0.0000  0.0000  0.0000
   6. Al 1 (s)      0.0000  2.0031  0.0000  0.0000  0.0000  0.0000  1.2431  0.0000
   7. Al 1 (px)     0.0000  0.0000  1.5996  0.0000  0.0000  0.0000  0.0000  0.0000
   8. Al 1 (py)     0.0000  0.0000  0.0000  1.5996  0.0000  0.0000  0.0000  1.6930
   9. Al 1 (pz)     1.3862  0.0000  0.0000  0.0000  0.0000  0.0000  0.0000  0.0000
  10. Al 1 (s)      0.0000 -1.5469  0.0000  0.0000  0.0000  0.0000 -0.2476  0.0000
  11. Al 1 (px)     0.0000  0.0000 -0.7293  0.0000  0.0000  0.0000  0.0000  0.0000
  12. Al 1 (py)     0.0000  0.0000  0.0000 -0.7293  0.0000  0.0000  0.0000 -0.4246
  13. Al 1 (pz)    -0.9890  0.0000  0.0000  0.0000  0.0000  0.0000  0.0000  0.0000
  14. Al 1 (d5)     0.0000  0.2367  0.0000  0.0000  0.0000  0.0000 -1.2039  0.0000
  15. Al 1 (d2)     0.0000  0.0000  0.0000  0.0000  0.0000  1.0307  0.0000  0.0000
  16. Al 1 (d3)     0.0000  0.0000  0.0000  0.0000  1.0307  0.0000  0.0000  0.0000
  17. Al 1 (d4)     0.0000  0.0000  0.0000  0.2754  0.0000  0.0000  0.0000 -1.4786
  18. Al 1 (d1)     0.0000  0.0000  0.2754  0.0000  0.0000  0.0000  0.0000  0.0000
  19.  F 2 (s)      0.0000  0.0106  0.0000  0.0296  0.0000  0.0000  0.0400  0.0789
  20.  F 2 (s)      0.0000 -0.0365  0.0000 -0.0567  0.0000  0.0000 -0.0999 -0.2198
  21.  F 2 (px)     0.0000  0.0000 -0.1723  0.0000  0.0000  0.0000  0.0000  0.0000
  22.  F 2 (py)     0.0000  0.1649  0.0000  0.1712  0.0000  0.0000  0.1111  0.1372
  23.  F 2 (pz)    -0.0785  0.0000  0.0000  0.0000 -0.2007  0.0000  0.0000  0.0000
  24.  F 2 (s)      0.0000 -0.0046  0.0000 -0.2755  0.0000  0.0000 -0.3913 -0.8709
  25.  F 2 (px)     0.0000  0.0000 -0.1578  0.0000  0.0000  0.0000  0.0000  0.0000
  26.  F 2 (py)     0.0000  0.2081  0.0000  0.3076  0.0000  0.0000  0.3903  0.8634
  27.  F 2 (pz)    -0.0756  0.0000  0.0000  0.0000 -0.1605  0.0000  0.0000  0.0000
  28.  F 2 (d5)     0.0000  0.0043  0.0000  0.0055  0.0000  0.0000 -0.0170  0.0705
  29.  F 2 (d2)     0.0000  0.0000  0.0000  0.0000  0.0000  0.0338  0.0000  0.0000
  30.  F 2 (d3)    -0.0123  0.0000  0.0000  0.0000 -0.0252  0.0000  0.0000  0.0000
  31.  F 2 (d4)     0.0000  0.0005  0.0000  0.0153  0.0000  0.0000  0.0501  0.0287
  32.  F 2 (d1)     0.0000  0.0000 -0.0278  0.0000  0.0000  0.0000  0.0000  0.0000
  33.  F 3 (s)      0.0000  0.0106  0.0256 -0.0148  0.0000  0.0000  0.0400 -0.0395
  34.  F 3 (s)      0.0000 -0.0365 -0.0491  0.0284  0.0000  0.0000 -0.0999  0.1099
  35.  F 3 (px)     0.0000  0.1428  0.0853 -0.1487  0.0000  0.0000  0.0962  0.0098
  36.  F 3 (py)     0.0000 -0.0825 -0.1487 -0.0864  0.0000  0.0000 -0.0556  0.1542
  37.  F 3 (pz)    -0.0785  0.0000  0.0000  0.0000  0.1004 -0.1738  0.0000  0.0000
  38.  F 3 (s)      0.0000 -0.0046 -0.2386  0.1378  0.0000  0.0000 -0.3913  0.4355
  39.  F 3 (px)     0.0000  0.1803  0.1913 -0.2015  0.0000  0.0000  0.3380 -0.3483
  40.  F 3 (py)     0.0000 -0.1041 -0.2015 -0.0414  0.0000  0.0000 -0.1952  0.2602
  41.  F 3 (pz)    -0.0756  0.0000  0.0000  0.0000  0.0803 -0.1390  0.0000  0.0000
  42.  F 3 (d5)     0.0000  0.0043  0.0048 -0.0028  0.0000  0.0000 -0.0170 -0.0352
  43.  F 3 (d2)    -0.0106  0.0000  0.0000  0.0000  0.0256 -0.0105  0.0000  0.0000
  44.  F 3 (d3)     0.0061  0.0000  0.0000  0.0000  0.0190  0.0256  0.0000  0.0000
  45.  F 3 (d4)     0.0000 -0.0002 -0.0186 -0.0170  0.0000  0.0000 -0.0251  0.0392
  46.  F 3 (d1)     0.0000  0.0004  0.0045 -0.0186  0.0000  0.0000  0.0434  0.0060
  47.  F 4 (s)      0.0000  0.0106 -0.0256 -0.0148  0.0000  0.0000  0.0400 -0.0395
  48.  F 4 (s)      0.0000 -0.0365  0.0491  0.0284  0.0000  0.0000 -0.0999  0.1099
  49.  F 4 (px)     0.0000 -0.1428  0.0853  0.1487  0.0000  0.0000 -0.0962 -0.0098
  50.  F 4 (py)     0.0000 -0.0825  0.1487 -0.0864  0.0000  0.0000 -0.0556  0.1542
  51.  F 4 (pz)    -0.0785  0.0000  0.0000  0.0000  0.1004  0.1738  0.0000  0.0000
  52.  F 4 (s)      0.0000 -0.0046  0.2386  0.1378  0.0000  0.0000 -0.3913  0.4355
  53.  F 4 (px)     0.0000 -0.1803  0.1913  0.2015  0.0000  0.0000 -0.3380  0.3483
  54.  F 4 (py)     0.0000 -0.1041  0.2015 -0.0414  0.0000  0.0000 -0.1952  0.2602
  55.  F 4 (pz)    -0.0756  0.0000  0.0000  0.0000  0.0803  0.1390  0.0000  0.0000
  56.  F 4 (d5)     0.0000  0.0043 -0.0048 -0.0028  0.0000  0.0000 -0.0170 -0.0352
  57.  F 4 (d2)     0.0106  0.0000  0.0000  0.0000 -0.0256 -0.0105  0.0000  0.0000
  58.  F 4 (d3)     0.0061  0.0000  0.0000  0.0000  0.0190 -0.0256  0.0000  0.0000
  59.  F 4 (d4)     0.0000 -0.0002  0.0186 -0.0170  0.0000  0.0000 -0.0251  0.0392
  60.  F 4 (d1)     0.0000 -0.0004  0.0045  0.0186  0.0000  0.0000 -0.0434 -0.0060

           AO         33      34      35      36      37      38      39      40
      ------------ ------- ------- ------- ------- ------- ------- ------- -------
   1. Al 1 (s)      0.0000  0.0000  0.0000  0.0000  0.0000  0.0000  0.0055  0.0000
   2. Al 1 (s)      0.0000  0.0000  0.0000  0.0000  0.0000  0.0000  0.1028  0.0000
   3. Al 1 (px)    -0.1850  0.0000  0.0000  0.0000  0.0000 -0.0118  0.0000  0.0000
   4. Al 1 (py)     0.0000  0.0000  0.0000  0.0000 -0.0118  0.0000  0.0000  0.0000
   5. Al 1 (pz)     0.0000  0.0000  0.0000  0.0000  0.0000  0.0000  0.0000  0.0303
   6. Al 1 (s)      0.0000  0.0000  0.0000  0.0000  0.0000  0.0000  0.8274  0.0000
   7. Al 1 (px)     1.6930  0.0000  0.0000  0.0000  0.0000 -0.0793  0.0000  0.0000
   8. Al 1 (py)     0.0000  0.0000  0.0000  0.0000 -0.0793  0.0000  0.0000  0.0000
   9. Al 1 (pz)     0.0000  0.0000  0.0000  0.0000  0.0000  0.0000  0.0000 -0.2597
  10. Al 1 (s)      0.0000  0.0000  0.0000  0.0000  0.0000  0.0000 -0.5198  0.0000
  11. Al 1 (px)    -0.4246  0.0000  0.0000  0.0000  0.0000 -0.0169  0.0000  0.0000
  12. Al 1 (py)     0.0000  0.0000  0.0000  0.0000 -0.0169  0.0000  0.0000  0.0000
  13. Al 1 (pz)     0.0000  0.0000  0.0000  0.0000  0.0000  0.0000  0.0000 -0.1917
  14. Al 1 (d5)     0.0000  0.0000  0.0000  0.0000  0.0000  0.0000 -0.0113  0.0000
  15. Al 1 (d2)     0.0000  0.0000 -0.3185  0.0000  0.0000  0.0000  0.0000  0.0000
  16. Al 1 (d3)     0.0000  0.0000  0.0000 -0.3185  0.0000  0.0000  0.0000  0.0000
  17. Al 1 (d4)     0.0000  0.0000  0.0000  0.0000 -0.4138  0.0000  0.0000  0.0000
  18. Al 1 (d1)    -1.4786  0.0000  0.0000  0.0000  0.0000 -0.4138  0.0000  0.0000
  19.  F 2 (s)      0.0000  0.0000  0.0000  0.0000 -0.0243  0.0000  0.0343  0.0000
  20.  F 2 (s)      0.0000  0.0000  0.0000  0.0000  0.3380  0.0000 -0.3573  0.0000
  21.  F 2 (px)     0.1599 -0.5537  0.0000  0.0000  0.0000 -0.6376  0.0000  0.0000
  22.  F 2 (py)     0.0000  0.0000  0.0000  0.0000  0.2929  0.0000 -0.4858  0.0000
  23.  F 2 (pz)     0.0000  0.0000  0.0000 -0.7558  0.0000  0.0000  0.0000 -0.5481
  24.  F 2 (s)      0.0000  0.0000  0.0000  0.0000 -0.4338  0.0000  0.2872  0.0000
  25.  F 2 (px)     0.0592  0.6166  0.0000  0.0000  0.0000  0.8435  0.0000  0.0000
  26.  F 2 (py)     0.0000  0.0000  0.0000  0.0000 -0.2108  0.0000  0.6758  0.0000
  27.  F 2 (pz)     0.0000  0.0000  0.0000  0.9289  0.0000  0.0000  0.0000  0.6857
  28.  F 2 (d5)     0.0000  0.0000  0.0000  0.0000  0.0106  0.0000 -0.0282  0.0000
  29.  F 2 (d2)     0.0000  0.0000 -0.0546  0.0000  0.0000  0.0000  0.0000  0.0000
  30.  F 2 (d3)     0.0000  0.0000  0.0000  0.1016  0.0000  0.0000  0.0000  0.0677
  31.  F 2 (d4)     0.0000  0.0000  0.0000  0.0000 -0.0321  0.0000 -0.0764  0.0000
  32.  F 2 (d1)     0.0426 -0.0050  0.0000  0.0000  0.0000  0.1702  0.0000  0.0000
  33.  F 3 (s)      0.0683  0.0000  0.0000  0.0000  0.0121 -0.0210  0.0343  0.0000
  34.  F 3 (s)     -0.1904  0.0000  0.0000  0.0000 -0.1690  0.2927 -0.3573  0.0000
  35.  F 3 (px)     0.1429  0.2769  0.0000  0.0000 -0.4029  0.0603 -0.4207  0.0000
  36.  F 3 (py)     0.0098  0.4795  0.0000  0.0000 -0.4050 -0.4029  0.2429  0.0000
  37.  F 3 (pz)     0.0000  0.0000 -0.6545  0.3779  0.0000  0.0000  0.0000 -0.5481
  38.  F 3 (s)     -0.7543  0.0000  0.0000  0.0000  0.2169 -0.3757  0.2872  0.0000
  39.  F 3 (px)     0.6624 -0.3083  0.0000  0.0000  0.4565  0.0527  0.5852  0.0000
  40.  F 3 (py)    -0.3483 -0.5340  0.0000  0.0000  0.5799  0.4565 -0.3379  0.0000
  41.  F 3 (pz)     0.0000  0.0000  0.8044 -0.4644  0.0000  0.0000  0.0000  0.6857
  42.  F 3 (d5)     0.0610  0.0000  0.0000  0.0000 -0.0053  0.0092 -0.0282  0.0000
  43.  F 3 (d2)     0.0000  0.0000  0.0626 -0.0676  0.0000  0.0000  0.0000  0.0587
  44.  F 3 (d3)     0.0000  0.0000 -0.0676 -0.0155  0.0000  0.0000  0.0000 -0.0339
  45.  F 3 (d4)     0.0060  0.0043  0.0000  0.0000  0.1196  0.0876  0.0382  0.0000
  46.  F 3 (d1)     0.0322  0.0025  0.0000  0.0000  0.0876  0.0185 -0.0662  0.0000
  47.  F 4 (s)     -0.0683  0.0000  0.0000  0.0000  0.0121  0.0210  0.0343  0.0000
  48.  F 4 (s)      0.1904  0.0000  0.0000  0.0000 -0.1690 -0.2927 -0.3573  0.0000
  49.  F 4 (px)     0.1429  0.2769  0.0000  0.0000  0.4029  0.0603  0.4207  0.0000
  50.  F 4 (py)    -0.0098 -0.4795  0.0000  0.0000 -0.4050  0.4029  0.2429  0.0000
  51.  F 4 (pz)     0.0000  0.0000  0.6545  0.3779  0.0000  0.0000  0.0000 -0.5481
  52.  F 4 (s)      0.7543  0.0000  0.0000  0.0000  0.2169  0.3757  0.2872  0.0000
  53.  F 4 (px)     0.6624 -0.3083  0.0000  0.0000 -0.4565  0.0527 -0.5852  0.0000
  54.  F 4 (py)     0.3483  0.5340  0.0000  0.0000  0.5799 -0.4565 -0.3379  0.0000
  55.  F 4 (pz)     0.0000  0.0000 -0.8044 -0.4644  0.0000  0.0000  0.0000  0.6857
  56.  F 4 (d5)    -0.0610  0.0000  0.0000  0.0000 -0.0053 -0.0092 -0.0282  0.0000
  57.  F 4 (d2)     0.0000  0.0000  0.0626  0.0676  0.0000  0.0000  0.0000 -0.0587
  58.  F 4 (d3)     0.0000  0.0000  0.0676 -0.0155  0.0000  0.0000  0.0000 -0.0339
  59.  F 4 (d4)    -0.0060 -0.0043  0.0000  0.0000  0.1196 -0.0876  0.0382  0.0000
  60.  F 4 (d1)     0.0322  0.0025  0.0000  0.0000 -0.0876  0.0185  0.0662  0.0000

           AO         41      42      43      44      45      46      47      48
      ------------ ------- ------- ------- ------- ------- ------- ------- -------
   1. Al 1 (s)      0.0000  0.0000  0.0000  0.0000 -0.0078  0.0000  0.0000  0.0000
   2. Al 1 (s)      0.0000  0.0000  0.0000  0.0000  0.0321  0.0000  0.0000  0.0000
   3. Al 1 (px)     0.0179  0.0000  0.0515  0.0000  0.0000  0.0000  0.0000  0.0000
   4. Al 1 (py)     0.0000  0.0179  0.0000  0.0515  0.0000  0.0000  0.0000  0.0000
   5. Al 1 (pz)     0.0000  0.0000  0.0000  0.0000  0.0000  0.0000  0.0000  0.0000
   6. Al 1 (s)      0.0000  0.0000  0.0000  0.0000 -0.0990  0.0000  0.0000  0.0000
   7. Al 1 (px)     0.5961  0.0000 -0.2696  0.0000  0.0000  0.0000  0.0000  0.0000
   8. Al 1 (py)     0.0000  0.5961  0.0000 -0.2696  0.0000  0.0000  0.0000  0.0000
   9. Al 1 (pz)     0.0000  0.0000  0.0000  0.0000  0.0000  0.0000  0.0000  0.0000
  10. Al 1 (s)      0.0000  0.0000  0.0000  0.0000 -0.4138  0.0000  0.0000  0.0000
  11. Al 1 (px)    -0.4561  0.0000 -0.2561  0.0000  0.0000  0.0000  0.0000  0.0000
  12. Al 1 (py)     0.0000 -0.4561  0.0000 -0.2561  0.0000  0.0000  0.0000  0.0000
  13. Al 1 (pz)     0.0000  0.0000  0.0000  0.0000  0.0000  0.0000  0.0000  0.0000
  14. Al 1 (d5)     0.0000  0.0000  0.0000  0.0000  0.0810  0.0000  0.0000  0.0000
  15. Al 1 (d2)     0.0000  0.0000  0.0000  0.0000  0.0000  0.0000  0.0000  0.0453
  16. Al 1 (d3)     0.0000  0.0000  0.0000  0.0000  0.0000  0.0000  0.0453  0.0000
  17. Al 1 (d4)     0.0000 -0.2635  0.0000  0.1254  0.0000  0.0000  0.0000  0.0000
  18. Al 1 (d1)    -0.2635  0.0000  0.1254  0.0000  0.0000  0.0000  0.0000  0.0000
  19.  F 2 (s)      0.0000  0.0297  0.0000  0.0428  0.0337  0.0000  0.0000  0.0000
  20.  F 2 (s)      0.0000 -0.2502  0.0000 -0.7341 -0.5572  0.0000  0.0000  0.0000
  21.  F 2 (px)    -0.3350  0.0000 -0.1286  0.0000  0.0000  0.0112  0.0000  0.0000
  22.  F 2 (py)     0.0000 -0.6762  0.0000  0.0371  0.0658  0.0000  0.0000  0.0000
  23.  F 2 (pz)     0.0000  0.0000  0.0000  0.0000  0.0000  0.0000  0.0124  0.0000
  24.  F 2 (s)      0.0000  0.0643  0.0000  0.9775  0.7007  0.0000  0.0000  0.0000
  25.  F 2 (px)     0.4251  0.0000  0.1985  0.0000  0.0000  0.0046  0.0000  0.0000
  26.  F 2 (py)     0.0000  1.0363  0.0000 -0.1843 -0.1628  0.0000  0.0000  0.0000
  27.  F 2 (pz)     0.0000  0.0000  0.0000  0.0000  0.0000  0.0000 -0.0154  0.0000
  28.  F 2 (d5)     0.0000 -0.0404  0.0000  0.2488  0.3013  0.0000  0.0000  0.0000
  29.  F 2 (d2)     0.0000  0.0000  0.0000  0.0000  0.0000  0.0000  0.0000  0.7353
  30.  F 2 (d3)     0.0000  0.0000  0.0000  0.0000  0.0000  0.0000  0.3583  0.0000
  31.  F 2 (d4)     0.0000 -0.0816  0.0000  0.5770  0.3361  0.0000  0.0000  0.0000
  32.  F 2 (d1)     0.0049  0.0000  0.1547  0.0000  0.0000  0.5776  0.0000  0.0000
  33.  F 3 (s)      0.0257 -0.0149  0.0370 -0.0214  0.0337  0.0000  0.0000  0.0000
  34.  F 3 (s)     -0.2166  0.1251 -0.6358  0.3671 -0.5572  0.0000  0.0000  0.0000
  35.  F 3 (px)    -0.5909  0.1478 -0.0043 -0.0717  0.0570 -0.0056  0.0000  0.0000
  36.  F 3 (py)     0.1478 -0.4203 -0.0717 -0.0872 -0.0329 -0.0097  0.0000  0.0000
  37.  F 3 (pz)     0.0000  0.0000  0.0000  0.0000  0.0000  0.0000 -0.0062  0.0108
  38.  F 3 (s)      0.0557 -0.0321  0.8465 -0.4887  0.7007  0.0000  0.0000  0.0000
  39.  F 3 (px)     0.8835 -0.2647 -0.0886  0.1658 -0.1410 -0.0023  0.0000  0.0000
  40.  F 3 (py)    -0.2647  0.5779  0.1658  0.1028  0.0814 -0.0040  0.0000  0.0000
  41.  F 3 (pz)     0.0000  0.0000  0.0000  0.0000  0.0000  0.0000  0.0077 -0.0133
  42.  F 3 (d5)    -0.0350  0.0202  0.2154 -0.1244  0.3013  0.0000  0.0000  0.0000
  43.  F 3 (d2)     0.0000  0.0000  0.0000  0.0000  0.0000  0.0000  0.1632  0.4526
  44.  F 3 (d3)     0.0000  0.0000  0.0000  0.0000  0.0000  0.0000  0.6411  0.1632
  45.  F 3 (d4)     0.0374 -0.0167 -0.1829  0.2602 -0.1681 -0.5002  0.0000  0.0000
  46.  F 3 (d1)    -0.0600  0.0374  0.4714 -0.1829  0.2911 -0.2888  0.0000  0.0000
  47.  F 4 (s)     -0.0257 -0.0149 -0.0370 -0.0214  0.0337  0.0000  0.0000  0.0000
  48.  F 4 (s)      0.2166  0.1251  0.6358  0.3671 -0.5572  0.0000  0.0000  0.0000
  49.  F 4 (px)    -0.5909 -0.1478 -0.0043  0.0717 -0.0570 -0.0056  0.0000  0.0000
  50.  F 4 (py)    -0.1478 -0.4203  0.0717 -0.0872 -0.0329  0.0097  0.0000  0.0000
  51.  F 4 (pz)     0.0000  0.0000  0.0000  0.0000  0.0000  0.0000 -0.0062 -0.0108
  52.  F 4 (s)     -0.0557 -0.0321 -0.8465 -0.4887  0.7007  0.0000  0.0000  0.0000
  53.  F 4 (px)     0.8835  0.2647 -0.0886 -0.1658  0.1410 -0.0023  0.0000  0.0000
  54.  F 4 (py)     0.2647  0.5779 -0.1658  0.1028  0.0814  0.0040  0.0000  0.0000
  55.  F 4 (pz)     0.0000  0.0000  0.0000  0.0000  0.0000  0.0000  0.0077  0.0133
  56.  F 4 (d5)     0.0350  0.0202 -0.2154 -0.1244  0.3013  0.0000  0.0000  0.0000
  57.  F 4 (d2)     0.0000  0.0000  0.0000  0.0000  0.0000  0.0000 -0.1632  0.4526
  58.  F 4 (d3)     0.0000  0.0000  0.0000  0.0000  0.0000  0.0000  0.6411 -0.1632
  59.  F 4 (d4)    -0.0374 -0.0167  0.1829  0.2602 -0.1681  0.5002  0.0000  0.0000
  60.  F 4 (d1)    -0.0600 -0.0374  0.4714  0.1829 -0.2911 -0.2888  0.0000  0.0000

           AO         49      50      51      52      53      54      55      56
      ------------ ------- ------- ------- ------- ------- ------- ------- -------
   1. Al 1 (s)      0.0000  0.0000  0.0000  0.0002  0.0000  0.0000  0.0000  0.0000
   2. Al 1 (s)      0.0000  0.0000  0.0000  0.0295  0.0000  0.0000  0.0000  0.0000
   3. Al 1 (px)     0.0125  0.0000  0.0000  0.0000  0.0000  0.0000  0.0000 -0.0601
   4. Al 1 (py)     0.0000  0.0125  0.0000  0.0000  0.0000  0.0000  0.0000  0.0000
   5. Al 1 (pz)     0.0000  0.0000  0.0000  0.0000 -0.0671  0.0000  0.0000  0.0000
   6. Al 1 (s)      0.0000  0.0000  0.0000  0.2672  0.0000  0.0000  0.0000  0.0000
   7. Al 1 (px)     0.1099  0.0000  0.0000  0.0000  0.0000  0.0000  0.0000  0.7921
   8. Al 1 (py)     0.0000  0.1099  0.0000  0.0000  0.0000  0.0000  0.0000  0.0000
   9. Al 1 (pz)     0.0000  0.0000  0.0000  0.0000  0.4581  0.0000  0.0000  0.0000
  10. Al 1 (s)      0.0000  0.0000  0.0000 -0.1409  0.0000  0.0000  0.0000  0.0000
  11. Al 1 (px)    -0.0333  0.0000  0.0000  0.0000  0.0000  0.0000  0.0000 -0.0915
  12. Al 1 (py)     0.0000 -0.0333  0.0000  0.0000  0.0000  0.0000  0.0000  0.0000
  13. Al 1 (pz)     0.0000  0.0000  0.0000  0.0000 -0.1306  0.0000  0.0000  0.0000
  14. Al 1 (d5)     0.0000  0.0000  0.0000  0.1210  0.0000  0.0000  0.0000  0.0000
  15. Al 1 (d2)     0.0000  0.0000  0.0000  0.0000  0.0000  0.5431  0.0000  0.0000
  16. Al 1 (d3)     0.0000  0.0000  0.0000  0.0000  0.0000  0.0000  0.5431  0.0000
  17. Al 1 (d4)     0.0000 -0.0602  0.0000  0.0000  0.0000  0.0000  0.0000  0.0000
  18. Al 1 (d1)    -0.0602  0.0000  0.0000  0.0000  0.0000  0.0000  0.0000  0.4409
  19.  F 2 (s)      0.0000 -0.0039  0.0000 -0.0044  0.0000  0.0000  0.0000  0.0000
  20.  F 2 (s)      0.0000  0.0837  0.0000  0.0643  0.0000  0.0000  0.0000  0.0000
  21.  F 2 (px)    -0.0158  0.0000  0.0000  0.0000  0.0000  0.0000  0.0000  0.2326
  22.  F 2 (py)     0.0000 -0.0405  0.0000 -0.0741  0.0000  0.0000  0.0000  0.0000
  23.  F 2 (pz)     0.0000  0.0000  0.0000  0.0000  0.0951  0.0000  0.1498  0.0000
  24.  F 2 (s)      0.0000 -0.1363  0.0000 -0.0643  0.0000  0.0000  0.0000  0.0000
  25.  F 2 (px)     0.0205  0.0000  0.0000  0.0000  0.0000  0.0000  0.0000 -0.4958
  26.  F 2 (py)     0.0000  0.0940  0.0000  0.1031  0.0000  0.0000  0.0000  0.0000
  27.  F 2 (pz)     0.0000  0.0000  0.0000  0.0000 -0.1533  0.0000 -0.3093  0.0000
  28.  F 2 (d5)     0.0000  0.7670  0.0000 -0.4020  0.0000  0.0000  0.0000  0.0000
  29.  F 2 (d2)     0.0000  0.0000  0.5774  0.0000  0.0000 -0.3607  0.0000  0.0000
  30.  F 2 (d3)     0.0000  0.0000  0.0000  0.0000  0.5956  0.0000  0.7933  0.0000
  31.  F 2 (d4)     0.0000 -0.2565  0.0000  0.4129  0.0000  0.0000  0.0000  0.0000
  32.  F 2 (d1)    -0.1147  0.0000  0.0000  0.0000  0.0000  0.0000  0.0000  0.8228
  33.  F 3 (s)     -0.0034  0.0020  0.0000 -0.0044  0.0000  0.0000  0.0000 -0.0182
  34.  F 3 (s)      0.0725 -0.0418  0.0000  0.0643  0.0000  0.0000  0.0000  0.3699
  35.  F 3 (px)    -0.0344  0.0107  0.0000 -0.0642  0.0000  0.0000  0.0000 -0.0845
  36.  F 3 (py)     0.0107 -0.0220  0.0000  0.0371  0.0000  0.0000  0.0000  0.1831
  37.  F 3 (pz)     0.0000  0.0000  0.0000  0.0000  0.0951  0.1298 -0.0749  0.0000
  38.  F 3 (s)     -0.1181  0.0682  0.0000 -0.0643  0.0000  0.0000  0.0000 -0.4949
  39.  F 3 (px)     0.0756 -0.0318  0.0000  0.0893  0.0000  0.0000  0.0000  0.1147
  40.  F 3 (py)    -0.0318  0.0389  0.0000 -0.0515  0.0000  0.0000  0.0000 -0.3524
  41.  F 3 (pz)     0.0000  0.0000  0.0000  0.0000 -0.1533 -0.2678  0.1546  0.0000
  42.  F 3 (d5)     0.6642 -0.3835  0.0000 -0.4020  0.0000  0.0000  0.0000  0.0863
  43.  F 3 (d2)     0.0000  0.0000 -0.2887  0.0000  0.5158  0.5048 -0.4997  0.0000
  44.  F 3 (d3)     0.0000  0.0000 -0.5000  0.0000 -0.2978 -0.4997 -0.0722  0.0000
  45.  F 3 (d4)     0.0614 -0.1502  0.0000 -0.2065  0.0000  0.0000  0.0000  0.3520
  46.  F 3 (d1)    -0.2210  0.0614  0.0000  0.3576  0.0000  0.0000  0.0000  0.2132
  47.  F 4 (s)      0.0034  0.0020  0.0000 -0.0044  0.0000  0.0000  0.0000  0.0182
  48.  F 4 (s)     -0.0725 -0.0418  0.0000  0.0643  0.0000  0.0000  0.0000 -0.3699
  49.  F 4 (px)    -0.0344 -0.0107  0.0000  0.0642  0.0000  0.0000  0.0000 -0.0845
  50.  F 4 (py)    -0.0107 -0.0220  0.0000  0.0371  0.0000  0.0000  0.0000 -0.1831
  51.  F 4 (pz)     0.0000  0.0000  0.0000  0.0000  0.0951 -0.1298 -0.0749  0.0000
  52.  F 4 (s)      0.1181  0.0682  0.0000 -0.0643  0.0000  0.0000  0.0000  0.4949
  53.  F 4 (px)     0.0756  0.0318  0.0000 -0.0893  0.0000  0.0000  0.0000  0.1147
  54.  F 4 (py)     0.0318  0.0389  0.0000 -0.0515  0.0000  0.0000  0.0000  0.3524
  55.  F 4 (pz)     0.0000  0.0000  0.0000  0.0000 -0.1533  0.2678  0.1546  0.0000
  56.  F 4 (d5)    -0.6642 -0.3835  0.0000 -0.4020  0.0000  0.0000  0.0000 -0.0863
  57.  F 4 (d2)     0.0000  0.0000 -0.2887  0.0000 -0.5158  0.5048  0.4997  0.0000
  58.  F 4 (d3)     0.0000  0.0000  0.5000  0.0000 -0.2978  0.4997 -0.0722  0.0000
  59.  F 4 (d4)    -0.0614 -0.1502  0.0000 -0.2065  0.0000  0.0000  0.0000 -0.3520
  60.  F 4 (d1)    -0.2210 -0.0614  0.0000 -0.3576  0.0000  0.0000  0.0000  0.2132

           AO         57      58      59      60
      ------------ ------- ------- ------- -------
   1. Al 1 (s)      0.0000  0.0339  0.0000  0.0000
   2. Al 1 (s)      0.0000  0.0657  0.0000  0.0000
   3. Al 1 (px)     0.0000  0.0000 -0.1132  0.0000
   4. Al 1 (py)    -0.0601  0.0000  0.0000  0.1132
   5. Al 1 (pz)     0.0000  0.0000  0.0000  0.0000
   6. Al 1 (s)      0.0000  2.3441  0.0000  0.0000
   7. Al 1 (px)     0.0000  0.0000  2.6768  0.0000
   8. Al 1 (py)     0.7921  0.0000  0.0000 -2.6768
   9. Al 1 (pz)     0.0000  0.0000  0.0000  0.0000
  10. Al 1 (s)      0.0000 -0.3820  0.0000  0.0000
  11. Al 1 (px)     0.0000  0.0000 -0.4579  0.0000
  12. Al 1 (py)    -0.0915  0.0000  0.0000  0.4579
  13. Al 1 (pz)     0.0000  0.0000  0.0000  0.0000
  14. Al 1 (d5)     0.0000 -0.8299  0.0000  0.0000
  15. Al 1 (d2)     0.0000  0.0000  0.0000  0.0000
  16. Al 1 (d3)     0.0000  0.0000  0.0000  0.0000
  17. Al 1 (d4)     0.4409  0.0000  0.0000  1.7115
  18. Al 1 (d1)     0.0000  0.0000 -1.7115  0.0000
  19.  F 2 (s)     -0.0210 -0.0200  0.0000  0.0096
  20.  F 2 (s)      0.4271  0.7913  0.0000 -1.2008
  21.  F 2 (px)     0.0000  0.0000  0.0039  0.0000
  22.  F 2 (py)    -0.1902 -0.2953  0.0000  0.3000
  23.  F 2 (pz)     0.0000  0.0000  0.0000  0.0000
  24.  F 2 (s)     -0.5715 -1.4079  0.0000  2.7359
  25.  F 2 (px)     0.0000  0.0000  0.1036  0.0000
  26.  F 2 (py)     0.3181  0.9550  0.0000 -1.6723
  27.  F 2 (pz)     0.0000  0.0000  0.0000  0.0000
  28.  F 2 (d5)     0.0997  0.3599  0.0000 -0.2216
  29.  F 2 (d2)     0.0000  0.0000  0.0000  0.0000
  30.  F 2 (d3)     0.0000  0.0000  0.0000  0.0000
  31.  F 2 (d4)     0.0100  0.3136  0.0000 -0.7355
  32.  F 2 (d1)     0.0000  0.0000 -0.3234  0.0000
  33.  F 3 (s)      0.0105 -0.0200 -0.0083 -0.0048
  34.  F 3 (s)     -0.2135  0.7913  1.0400  0.6004
  35.  F 3 (px)     0.1831 -0.2557 -0.2240 -0.1316
  36.  F 3 (py)     0.1269  0.1476  0.1316  0.0720
  37.  F 3 (pz)     0.0000  0.0000  0.0000  0.0000
  38.  F 3 (s)      0.2857 -1.4079 -2.3693 -1.3679
  39.  F 3 (px)    -0.3524  0.8271  1.2802  0.6793
  40.  F 3 (py)    -0.2923 -0.4775 -0.6793 -0.4958
  41.  F 3 (pz)     0.0000  0.0000  0.0000  0.0000
  42.  F 3 (d5)    -0.0498  0.3599  0.1919  0.1108
  43.  F 3 (d2)     0.0000  0.0000  0.0000  0.0000
  44.  F 3 (d3)     0.0000  0.0000  0.0000  0.0000
  45.  F 3 (d4)     0.6196 -0.1568 -0.4585  0.0587
  46.  F 3 (d1)     0.3520  0.2716  0.4708  0.4585
  47.  F 4 (s)      0.0105 -0.0200  0.0083 -0.0048
  48.  F 4 (s)     -0.2135  0.7913 -1.0400  0.6004
  49.  F 4 (px)    -0.1831  0.2557 -0.2240  0.1316
  50.  F 4 (py)     0.1269  0.1476 -0.1316  0.0720
  51.  F 4 (pz)     0.0000  0.0000  0.0000  0.0000
  52.  F 4 (s)      0.2857 -1.4079  2.3693 -1.3679
  53.  F 4 (px)     0.3524 -0.8271  1.2802 -0.6793
  54.  F 4 (py)    -0.2923 -0.4775  0.6793 -0.4958
  55.  F 4 (pz)     0.0000  0.0000  0.0000  0.0000
  56.  F 4 (d5)    -0.0498  0.3599 -0.1919  0.1108
  57.  F 4 (d2)     0.0000  0.0000  0.0000  0.0000
  58.  F 4 (d3)     0.0000  0.0000  0.0000  0.0000
  59.  F 4 (d4)     0.6196 -0.1568  0.4585  0.0587
  60.  F 4 (d1)    -0.3520 -0.2716  0.4708 -0.4585


 AO overlap matrix:

           AO          1       2       3       4       5       6       7       8
      ------------ ------- ------- ------- ------- ------- ------- ------- -------
   1. Al 1 (s)      1.0000  0.2460  0.0000  0.0000  0.0000  0.0052  0.0000  0.0000
   2. Al 1 (s)      0.2460  1.0000  0.0000  0.0000  0.0000  0.2624  0.0000  0.0000
   3. Al 1 (px)     0.0000  0.0000  1.0000  0.0000  0.0000  0.0000  0.2548  0.0000
   4. Al 1 (py)     0.0000  0.0000  0.0000  1.0000  0.0000  0.0000  0.0000  0.2548
   5. Al 1 (pz)     0.0000  0.0000  0.0000  0.0000  1.0000  0.0000  0.0000  0.0000
   6. Al 1 (s)      0.0052  0.2624  0.0000  0.0000  0.0000  1.0000  0.0000  0.0000
   7. Al 1 (px)     0.0000  0.0000  0.2548  0.0000  0.0000  0.0000  1.0000  0.0000
   8. Al 1 (py)     0.0000  0.0000  0.0000  0.2548  0.0000  0.0000  0.0000  1.0000
   9. Al 1 (pz)     0.0000  0.0000  0.0000  0.0000  0.2548  0.0000  0.0000  0.0000
  10. Al 1 (s)      0.0257  0.2233  0.0000  0.0000  0.0000  0.8377  0.0000  0.0000
  11. Al 1 (px)     0.0000  0.0000  0.0638  0.0000  0.0000  0.0000  0.6601  0.0000
  12. Al 1 (py)     0.0000  0.0000  0.0000  0.0638  0.0000  0.0000  0.0000  0.6601
  13. Al 1 (pz)     0.0000  0.0000  0.0000  0.0000  0.0638  0.0000  0.0000  0.0000
  14. Al 1 (d5)     0.0000  0.0000  0.0000  0.0000  0.0000  0.0000  0.0000  0.0000
  15. Al 1 (d2)     0.0000  0.0000  0.0000  0.0000  0.0000  0.0000  0.0000  0.0000
  16. Al 1 (d3)     0.0000  0.0000  0.0000  0.0000  0.0000  0.0000  0.0000  0.0000
  17. Al 1 (d4)     0.0000  0.0000  0.0000  0.0000  0.0000  0.0000  0.0000  0.0000
  18. Al 1 (d1)     0.0000  0.0000  0.0000  0.0000  0.0000  0.0000  0.0000  0.0000
  19.  F 2 (s)      0.0000  0.0000  0.0000  0.0001  0.0000  0.0230  0.0000  0.0456
  20.  F 2 (s)      0.0000  0.0022  0.0000  0.0052  0.0000  0.1403  0.0000  0.2601
  21.  F 2 (px)     0.0000  0.0000  0.0010  0.0000  0.0000  0.0000  0.0548  0.0000
  22.  F 2 (py)     0.0000 -0.0044  0.0000 -0.0098  0.0000 -0.0808  0.0000 -0.1184
  23.  F 2 (pz)     0.0000  0.0000  0.0000  0.0000  0.0010  0.0000  0.0000  0.0000
  24.  F 2 (s)      0.0034  0.0438  0.0000  0.0482  0.0000  0.3221  0.0000  0.4942
  25.  F 2 (px)     0.0000  0.0000  0.0259  0.0000  0.0000  0.0000  0.2657  0.0000
  26.  F 2 (py)    -0.0124 -0.1274  0.0000 -0.1150  0.0000 -0.3502  0.0000 -0.3592
  27.  F 2 (pz)     0.0000  0.0000  0.0000  0.0000  0.0259  0.0000  0.0000  0.0000
  28.  F 2 (d5)    -0.0009 -0.0230  0.0000 -0.0345  0.0000 -0.0418  0.0000 -0.0424
  29.  F 2 (d2)     0.0000  0.0000  0.0000  0.0000  0.0000  0.0000  0.0000  0.0000
  30.  F 2 (d3)     0.0000  0.0000  0.0000  0.0000 -0.0163  0.0000  0.0000  0.0000
  31.  F 2 (d4)    -0.0015 -0.0399  0.0000 -0.0598  0.0000 -0.0725  0.0000 -0.0734
  32.  F 2 (d1)     0.0000  0.0000 -0.0163  0.0000  0.0000  0.0000 -0.1281  0.0000
  33.  F 3 (s)      0.0000  0.0000  0.0001 -0.0001  0.0000  0.0230  0.0395 -0.0228
  34.  F 3 (s)      0.0000  0.0022  0.0045 -0.0026  0.0000  0.1403  0.2253 -0.1301
  35.  F 3 (px)     0.0000 -0.0038 -0.0071  0.0047  0.0000 -0.0699 -0.0751  0.0750
  36.  F 3 (py)     0.0000  0.0022  0.0047 -0.0017  0.0000  0.0404  0.0750  0.0115
  37.  F 3 (pz)     0.0000  0.0000  0.0000  0.0000  0.0010  0.0000  0.0000  0.0000
  38.  F 3 (s)      0.0034  0.0438  0.0417 -0.0241  0.0000  0.3221  0.4280 -0.2471
  39.  F 3 (px)    -0.0107 -0.1103 -0.0797  0.0610  0.0000 -0.3033 -0.2030  0.2706
  40.  F 3 (py)     0.0062  0.0637  0.0610 -0.0093  0.0000  0.1751  0.2706  0.1095
  41.  F 3 (pz)     0.0000  0.0000  0.0000  0.0000  0.0259  0.0000  0.0000  0.0000
  42.  F 3 (d5)    -0.0009 -0.0230 -0.0299  0.0173  0.0000 -0.0418 -0.0367  0.0212
  43.  F 3 (d2)     0.0000  0.0000  0.0000  0.0000 -0.0142  0.0000  0.0000  0.0000
  44.  F 3 (d3)     0.0000  0.0000  0.0000  0.0000  0.0082  0.0000  0.0000  0.0000
  45.  F 3 (d4)     0.0008  0.0199  0.0188 -0.0272  0.0000  0.0362 -0.0237 -0.1144
  46.  F 3 (d1)    -0.0013 -0.0345 -0.0489  0.0188  0.0000 -0.0628 -0.0871 -0.0237
  47.  F 4 (s)      0.0000  0.0000 -0.0001 -0.0001  0.0000  0.0230 -0.0395 -0.0228
  48.  F 4 (s)      0.0000  0.0022 -0.0045 -0.0026  0.0000  0.1403 -0.2253 -0.1301
  49.  F 4 (px)     0.0000  0.0038 -0.0071 -0.0047  0.0000  0.0699 -0.0751 -0.0750
  50.  F 4 (py)     0.0000  0.0022 -0.0047 -0.0017  0.0000  0.0404 -0.0750  0.0115
  51.  F 4 (pz)     0.0000  0.0000  0.0000  0.0000  0.0010  0.0000  0.0000  0.0000
  52.  F 4 (s)      0.0034  0.0438 -0.0417 -0.0241  0.0000  0.3221 -0.4280 -0.2471
  53.  F 4 (px)     0.0107  0.1103 -0.0797 -0.0610  0.0000  0.3033 -0.2030 -0.2706
  54.  F 4 (py)     0.0062  0.0637 -0.0610 -0.0093  0.0000  0.1751 -0.2706  0.1095
  55.  F 4 (pz)     0.0000  0.0000  0.0000  0.0000  0.0259  0.0000  0.0000  0.0000
  56.  F 4 (d5)    -0.0009 -0.0230  0.0299  0.0173  0.0000 -0.0418  0.0367  0.0212
  57.  F 4 (d2)     0.0000  0.0000  0.0000  0.0000  0.0142  0.0000  0.0000  0.0000
  58.  F 4 (d3)     0.0000  0.0000  0.0000  0.0000  0.0082  0.0000  0.0000  0.0000
  59.  F 4 (d4)     0.0008  0.0199 -0.0188 -0.0272  0.0000  0.0362  0.0237 -0.1144
  60.  F 4 (d1)     0.0013  0.0345 -0.0489 -0.0188  0.0000  0.0628 -0.0871  0.0237

           AO          9      10      11      12      13      14      15      16
      ------------ ------- ------- ------- ------- ------- ------- ------- -------
   1. Al 1 (s)      0.0000  0.0257  0.0000  0.0000  0.0000  0.0000  0.0000  0.0000
   2. Al 1 (s)      0.0000  0.2233  0.0000  0.0000  0.0000  0.0000  0.0000  0.0000
   3. Al 1 (px)     0.0000  0.0000  0.0638  0.0000  0.0000  0.0000  0.0000  0.0000
   4. Al 1 (py)     0.0000  0.0000  0.0000  0.0638  0.0000  0.0000  0.0000  0.0000
   5. Al 1 (pz)     0.2548  0.0000  0.0000  0.0000  0.0638  0.0000  0.0000  0.0000
   6. Al 1 (s)      0.0000  0.8377  0.0000  0.0000  0.0000  0.0000  0.0000  0.0000
   7. Al 1 (px)     0.0000  0.0000  0.6601  0.0000  0.0000  0.0000  0.0000  0.0000
   8. Al 1 (py)     0.0000  0.0000  0.0000  0.6601  0.0000  0.0000  0.0000  0.0000
   9. Al 1 (pz)     1.0000  0.0000  0.0000  0.0000  0.6601  0.0000  0.0000  0.0000
  10. Al 1 (s)      0.0000  1.0000  0.0000  0.0000  0.0000  0.0000  0.0000  0.0000
  11. Al 1 (px)     0.0000  0.0000  1.0000  0.0000  0.0000  0.0000  0.0000  0.0000
  12. Al 1 (py)     0.0000  0.0000  0.0000  1.0000  0.0000  0.0000  0.0000  0.0000
  13. Al 1 (pz)     0.6601  0.0000  0.0000  0.0000  1.0000  0.0000  0.0000  0.0000
  14. Al 1 (d5)     0.0000  0.0000  0.0000  0.0000  0.0000  1.0000  0.0000  0.0000
  15. Al 1 (d2)     0.0000  0.0000  0.0000  0.0000  0.0000  0.0000  1.0000  0.0000
  16. Al 1 (d3)     0.0000  0.0000  0.0000  0.0000  0.0000  0.0000  0.0000  1.0000
  17. Al 1 (d4)     0.0000  0.0000  0.0000  0.0000  0.0000  0.0000  0.0000  0.0000
  18. Al 1 (d1)     0.0000  0.0000  0.0000  0.0000  0.0000  0.0000  0.0000  0.0000
  19.  F 2 (s)      0.0000  0.0259  0.0000  0.0378  0.0000 -0.0260  0.0000  0.0000
  20.  F 2 (s)      0.0000  0.1540  0.0000  0.2164  0.0000 -0.1388  0.0000  0.0000
  21.  F 2 (px)     0.0000  0.0000  0.0455  0.0000  0.0000  0.0000  0.0000  0.0000
  22.  F 2 (py)     0.0000 -0.0334  0.0000 -0.0016  0.0000  0.0927  0.0000  0.0000
  23.  F 2 (pz)     0.0548  0.0000  0.0000  0.0000  0.0455  0.0000  0.0000  0.1022
  24.  F 2 (s)      0.0000  0.3540  0.0000  0.4493  0.0000 -0.1918  0.0000  0.0000
  25.  F 2 (px)     0.0000  0.0000  0.2415  0.0000  0.0000  0.0000  0.0000  0.0000
  26.  F 2 (py)     0.0000 -0.1771  0.0000  0.0167  0.0000  0.1332  0.0000  0.0000
  27.  F 2 (pz)     0.2657  0.0000  0.0000  0.0000  0.2415  0.0000  0.0000  0.3572
  28.  F 2 (d5)     0.0000 -0.0079  0.0000  0.0107  0.0000  0.0892  0.0000  0.0000
  29.  F 2 (d2)     0.0000  0.0000  0.0000  0.0000  0.0000  0.0000  0.0761  0.0000
  30.  F 2 (d3)    -0.1281  0.0000  0.0000  0.0000 -0.0374  0.0000  0.0000 -0.2636
  31.  F 2 (d4)     0.0000 -0.0137  0.0000  0.0186  0.0000  0.0228  0.0000  0.0000
  32.  F 2 (d1)     0.0000  0.0000 -0.0374  0.0000  0.0000  0.0000  0.0000  0.0000
  33.  F 3 (s)      0.0000  0.0259  0.0328 -0.0189  0.0000 -0.0260  0.0000  0.0000
  34.  F 3 (s)      0.0000  0.1540  0.1874 -0.1082  0.0000 -0.1388  0.0000  0.0000
  35.  F 3 (px)     0.0000 -0.0289  0.0102  0.0204  0.0000  0.0803  0.0000  0.0000
  36.  F 3 (py)     0.0000  0.0167  0.0204  0.0338  0.0000 -0.0463  0.0000  0.0000
  37.  F 3 (pz)     0.0548  0.0000  0.0000  0.0000  0.0455  0.0000  0.0885 -0.0511
  38.  F 3 (s)      0.0000  0.3540  0.3891 -0.2246  0.0000 -0.1918  0.0000  0.0000
  39.  F 3 (px)     0.0000 -0.1534  0.0729  0.0973  0.0000  0.1154  0.0000  0.0000
  40.  F 3 (py)     0.0000  0.0886  0.0973  0.1853  0.0000 -0.0666  0.0000  0.0000
  41.  F 3 (pz)     0.2657  0.0000  0.0000  0.0000  0.2415  0.0000  0.3093 -0.1786
  42.  F 3 (d5)     0.0000 -0.0079  0.0093 -0.0054  0.0000  0.0892  0.0000  0.0000
  43.  F 3 (d2)    -0.1109  0.0000  0.0000  0.0000 -0.0324  0.0000 -0.1787  0.1471
  44.  F 3 (d3)     0.0640  0.0000  0.0000  0.0000  0.0187  0.0000  0.1471 -0.0088
  45.  F 3 (d4)     0.0000  0.0069 -0.0242 -0.0234  0.0000 -0.0114  0.0000  0.0000
  46.  F 3 (d1)     0.0000 -0.0119  0.0046 -0.0242  0.0000  0.0197  0.0000  0.0000
  47.  F 4 (s)      0.0000  0.0259 -0.0328 -0.0189  0.0000 -0.0260  0.0000  0.0000
  48.  F 4 (s)      0.0000  0.1540 -0.1874 -0.1082  0.0000 -0.1388  0.0000  0.0000
  49.  F 4 (px)     0.0000  0.0289  0.0102 -0.0204  0.0000 -0.0803  0.0000  0.0000
  50.  F 4 (py)     0.0000  0.0167 -0.0204  0.0338  0.0000 -0.0463  0.0000  0.0000
  51.  F 4 (pz)     0.0548  0.0000  0.0000  0.0000  0.0455  0.0000 -0.0885 -0.0511
  52.  F 4 (s)      0.0000  0.3540 -0.3891 -0.2246  0.0000 -0.1918  0.0000  0.0000
  53.  F 4 (px)     0.0000  0.1534  0.0729 -0.0973  0.0000 -0.1154  0.0000  0.0000
  54.  F 4 (py)     0.0000  0.0886 -0.0973  0.1853  0.0000 -0.0666  0.0000  0.0000
  55.  F 4 (pz)     0.2657  0.0000  0.0000  0.0000  0.2415  0.0000 -0.3093 -0.1786
  56.  F 4 (d5)     0.0000 -0.0079 -0.0093 -0.0054  0.0000  0.0892  0.0000  0.0000
  57.  F 4 (d2)     0.1109  0.0000  0.0000  0.0000  0.0324  0.0000 -0.1787 -0.1471
  58.  F 4 (d3)     0.0640  0.0000  0.0000  0.0000  0.0187  0.0000 -0.1471 -0.0088
  59.  F 4 (d4)     0.0000  0.0069  0.0242 -0.0234  0.0000 -0.0114  0.0000  0.0000
  60.  F 4 (d1)     0.0000  0.0119  0.0046  0.0242  0.0000 -0.0197  0.0000  0.0000

           AO         17      18      19      20      21      22      23      24
      ------------ ------- ------- ------- ------- ------- ------- ------- -------
   1. Al 1 (s)      0.0000  0.0000  0.0000  0.0000  0.0000  0.0000  0.0000  0.0034
   2. Al 1 (s)      0.0000  0.0000  0.0000  0.0022  0.0000 -0.0044  0.0000  0.0438
   3. Al 1 (px)     0.0000  0.0000  0.0000  0.0000  0.0010  0.0000  0.0000  0.0000
   4. Al 1 (py)     0.0000  0.0000  0.0001  0.0052  0.0000 -0.0098  0.0000  0.0482
   5. Al 1 (pz)     0.0000  0.0000  0.0000  0.0000  0.0000  0.0000  0.0010  0.0000
   6. Al 1 (s)      0.0000  0.0000  0.0230  0.1403  0.0000 -0.0808  0.0000  0.3221
   7. Al 1 (px)     0.0000  0.0000  0.0000  0.0000  0.0548  0.0000  0.0000  0.0000
   8. Al 1 (py)     0.0000  0.0000  0.0456  0.2601  0.0000 -0.1184  0.0000  0.4942
   9. Al 1 (pz)     0.0000  0.0000  0.0000  0.0000  0.0000  0.0000  0.0548  0.0000
  10. Al 1 (s)      0.0000  0.0000  0.0259  0.1540  0.0000 -0.0334  0.0000  0.3540
  11. Al 1 (px)     0.0000  0.0000  0.0000  0.0000  0.0455  0.0000  0.0000  0.0000
  12. Al 1 (py)     0.0000  0.0000  0.0378  0.2164  0.0000 -0.0016  0.0000  0.4493
  13. Al 1 (pz)     0.0000  0.0000  0.0000  0.0000  0.0000  0.0000  0.0455  0.0000
  14. Al 1 (d5)     0.0000  0.0000 -0.0260 -0.1388  0.0000  0.0927  0.0000 -0.1918
  15. Al 1 (d2)     0.0000  0.0000  0.0000  0.0000  0.0000  0.0000  0.0000  0.0000
  16. Al 1 (d3)     0.0000  0.0000  0.0000  0.0000  0.0000  0.0000  0.1022  0.0000
  17. Al 1 (d4)     1.0000  0.0000 -0.0450 -0.2403  0.0000  0.1605  0.0000 -0.3322
  18. Al 1 (d1)     0.0000  1.0000  0.0000  0.0000  0.1022  0.0000  0.0000  0.0000
  19.  F 2 (s)     -0.0450  0.0000  1.0000  0.2443  0.0000  0.0000  0.0000  0.1716
  20.  F 2 (s)     -0.2403  0.0000  0.2443  1.0000  0.0000  0.0000  0.0000  0.7635
  21.  F 2 (px)     0.0000  0.1022  0.0000  0.0000  1.0000  0.0000  0.0000  0.0000
  22.  F 2 (py)     0.1605  0.0000  0.0000  0.0000  0.0000  1.0000  0.0000  0.0000
  23.  F 2 (pz)     0.0000  0.0000  0.0000  0.0000  0.0000  0.0000  1.0000  0.0000
  24.  F 2 (s)     -0.3322  0.0000  0.1716  0.7635  0.0000  0.0000  0.0000  1.0000
  25.  F 2 (px)     0.0000  0.3572  0.0000  0.0000  0.4995  0.0000  0.0000  0.0000
  26.  F 2 (py)     0.2307  0.0000  0.0000  0.0000  0.0000  0.4995  0.0000  0.0000
  27.  F 2 (pz)     0.0000  0.0000  0.0000  0.0000  0.0000  0.0000  0.4995  0.0000
  28.  F 2 (d5)     0.0228  0.0000  0.0000  0.0000  0.0000  0.0000  0.0000  0.0000
  29.  F 2 (d2)     0.0000  0.0000  0.0000  0.0000  0.0000  0.0000  0.0000  0.0000
  30.  F 2 (d3)     0.0000  0.0000  0.0000  0.0000  0.0000  0.0000  0.0000  0.0000
  31.  F 2 (d4)     0.1156  0.0000  0.0000  0.0000  0.0000  0.0000  0.0000  0.0000
  32.  F 2 (d1)     0.0000 -0.2636  0.0000  0.0000  0.0000  0.0000  0.0000  0.0000
  33.  F 3 (s)      0.0225 -0.0390  0.0000  0.0000  0.0000  0.0000  0.0000  0.0000
  34.  F 3 (s)      0.1202 -0.2081  0.0000  0.0000  0.0000  0.0000  0.0000  0.0002
  35.  F 3 (px)    -0.0253  0.1460  0.0000  0.0000  0.0000  0.0000  0.0000 -0.0002
  36.  F 3 (py)     0.1168 -0.0253  0.0000  0.0000  0.0000  0.0000  0.0000  0.0003
  37.  F 3 (pz)     0.0000  0.0000  0.0000  0.0000  0.0000  0.0000  0.0000  0.0000
  38.  F 3 (s)      0.1661 -0.2877  0.0000  0.0002  0.0002 -0.0003  0.0000  0.0056
  39.  F 3 (px)     0.0548  0.2623  0.0000 -0.0006 -0.0004  0.0009  0.0000 -0.0090
  40.  F 3 (py)     0.3256  0.0548  0.0000  0.0010  0.0009 -0.0014  0.0000  0.0156
  41.  F 3 (pz)     0.0000  0.0000  0.0000  0.0000  0.0000  0.0000  0.0001  0.0000
  42.  F 3 (d5)    -0.0114  0.0197  0.0000  0.0000  0.0000  0.0000  0.0000 -0.0018
  43.  F 3 (d2)     0.0000  0.0000  0.0000  0.0000  0.0000  0.0000  0.0000  0.0000
  44.  F 3 (d3)     0.0000  0.0000  0.0000  0.0000  0.0000  0.0000  0.0000  0.0000
  45.  F 3 (d4)    -0.1688 -0.1642  0.0000  0.0000  0.0000  0.0000  0.0000 -0.0015
  46.  F 3 (d1)    -0.1642  0.0208  0.0000  0.0000  0.0000  0.0000  0.0000 -0.0026
  47.  F 4 (s)      0.0225  0.0390  0.0000  0.0000  0.0000  0.0000  0.0000  0.0000
  48.  F 4 (s)      0.1202  0.2081  0.0000  0.0000  0.0000  0.0000  0.0000  0.0002
  49.  F 4 (px)     0.0253  0.1460  0.0000  0.0000  0.0000  0.0000  0.0000  0.0002
  50.  F 4 (py)     0.1168  0.0253  0.0000  0.0000  0.0000  0.0000  0.0000  0.0003
  51.  F 4 (pz)     0.0000  0.0000  0.0000  0.0000  0.0000  0.0000  0.0000  0.0000
  52.  F 4 (s)      0.1661  0.2877  0.0000  0.0002 -0.0002 -0.0003  0.0000  0.0056
  53.  F 4 (px)    -0.0548  0.2623  0.0000  0.0006 -0.0004 -0.0009  0.0000  0.0090
  54.  F 4 (py)     0.3256 -0.0548  0.0000  0.0010 -0.0009 -0.0014  0.0000  0.0156
  55.  F 4 (pz)     0.0000  0.0000  0.0000  0.0000  0.0000  0.0000  0.0001  0.0000
  56.  F 4 (d5)    -0.0114 -0.0197  0.0000  0.0000  0.0000  0.0000  0.0000 -0.0018
  57.  F 4 (d2)     0.0000  0.0000  0.0000  0.0000  0.0000  0.0000  0.0000  0.0000
  58.  F 4 (d3)     0.0000  0.0000  0.0000  0.0000  0.0000  0.0000  0.0000  0.0000
  59.  F 4 (d4)    -0.1688  0.1642  0.0000  0.0000  0.0000  0.0000  0.0000 -0.0015
  60.  F 4 (d1)     0.1642  0.0208  0.0000  0.0000  0.0000  0.0000  0.0000  0.0026

           AO         25      26      27      28      29      30      31      32
      ------------ ------- ------- ------- ------- ------- ------- ------- -------
   1. Al 1 (s)      0.0000 -0.0124  0.0000 -0.0009  0.0000  0.0000 -0.0015  0.0000
   2. Al 1 (s)      0.0000 -0.1274  0.0000 -0.0230  0.0000  0.0000 -0.0399  0.0000
   3. Al 1 (px)     0.0259  0.0000  0.0000  0.0000  0.0000  0.0000  0.0000 -0.0163
   4. Al 1 (py)     0.0000 -0.1150  0.0000 -0.0345  0.0000  0.0000 -0.0598  0.0000
   5. Al 1 (pz)     0.0000  0.0000  0.0259  0.0000  0.0000 -0.0163  0.0000  0.0000
   6. Al 1 (s)      0.0000 -0.3502  0.0000 -0.0418  0.0000  0.0000 -0.0725  0.0000
   7. Al 1 (px)     0.2657  0.0000  0.0000  0.0000  0.0000  0.0000  0.0000 -0.1281
   8. Al 1 (py)     0.0000 -0.3592  0.0000 -0.0424  0.0000  0.0000 -0.0734  0.0000
   9. Al 1 (pz)     0.0000  0.0000  0.2657  0.0000  0.0000 -0.1281  0.0000  0.0000
  10. Al 1 (s)      0.0000 -0.1771  0.0000 -0.0079  0.0000  0.0000 -0.0137  0.0000
  11. Al 1 (px)     0.2415  0.0000  0.0000  0.0000  0.0000  0.0000  0.0000 -0.0374
  12. Al 1 (py)     0.0000  0.0167  0.0000  0.0107  0.0000  0.0000  0.0186  0.0000
  13. Al 1 (pz)     0.0000  0.0000  0.2415  0.0000  0.0000 -0.0374  0.0000  0.0000
  14. Al 1 (d5)     0.0000  0.1332  0.0000  0.0892  0.0000  0.0000  0.0228  0.0000
  15. Al 1 (d2)     0.0000  0.0000  0.0000  0.0000  0.0761  0.0000  0.0000  0.0000
  16. Al 1 (d3)     0.0000  0.0000  0.3572  0.0000  0.0000 -0.2636  0.0000  0.0000
  17. Al 1 (d4)     0.0000  0.2307  0.0000  0.0228  0.0000  0.0000  0.1156  0.0000
  18. Al 1 (d1)     0.3572  0.0000  0.0000  0.0000  0.0000  0.0000  0.0000 -0.2636
  19.  F 2 (s)      0.0000  0.0000  0.0000  0.0000  0.0000  0.0000  0.0000  0.0000
  20.  F 2 (s)      0.0000  0.0000  0.0000  0.0000  0.0000  0.0000  0.0000  0.0000
  21.  F 2 (px)     0.4995  0.0000  0.0000  0.0000  0.0000  0.0000  0.0000  0.0000
  22.  F 2 (py)     0.0000  0.4995  0.0000  0.0000  0.0000  0.0000  0.0000  0.0000
  23.  F 2 (pz)     0.0000  0.0000  0.4995  0.0000  0.0000  0.0000  0.0000  0.0000
  24.  F 2 (s)      0.0000  0.0000  0.0000  0.0000  0.0000  0.0000  0.0000  0.0000
  25.  F 2 (px)     1.0000  0.0000  0.0000  0.0000  0.0000  0.0000  0.0000  0.0000
  26.  F 2 (py)     0.0000  1.0000  0.0000  0.0000  0.0000  0.0000  0.0000  0.0000
  27.  F 2 (pz)     0.0000  0.0000  1.0000  0.0000  0.0000  0.0000  0.0000  0.0000
  28.  F 2 (d5)     0.0000  0.0000  0.0000  1.0000  0.0000  0.0000  0.0000  0.0000
  29.  F 2 (d2)     0.0000  0.0000  0.0000  0.0000  1.0000  0.0000  0.0000  0.0000
  30.  F 2 (d3)     0.0000  0.0000  0.0000  0.0000  0.0000  1.0000  0.0000  0.0000
  31.  F 2 (d4)     0.0000  0.0000  0.0000  0.0000  0.0000  0.0000  1.0000  0.0000
  32.  F 2 (d1)     0.0000  0.0000  0.0000  0.0000  0.0000  0.0000  0.0000  1.0000
  33.  F 3 (s)      0.0000  0.0000  0.0000  0.0000  0.0000  0.0000  0.0000  0.0000
  34.  F 3 (s)      0.0006 -0.0010  0.0000  0.0000  0.0000  0.0000  0.0000  0.0000
  35.  F 3 (px)    -0.0004  0.0009  0.0000  0.0000  0.0000  0.0000  0.0000  0.0000
  36.  F 3 (py)     0.0009 -0.0014  0.0000  0.0000  0.0000  0.0000  0.0000  0.0000
  37.  F 3 (pz)     0.0000  0.0000  0.0001  0.0000  0.0000  0.0000  0.0000  0.0000
  38.  F 3 (s)      0.0090 -0.0156  0.0000 -0.0018  0.0000  0.0000 -0.0015 -0.0026
  39.  F 3 (px)    -0.0089  0.0251  0.0000  0.0034  0.0000  0.0000  0.0043  0.0042
  40.  F 3 (py)     0.0251 -0.0378  0.0000 -0.0058  0.0000  0.0000 -0.0042 -0.0092
  41.  F 3 (pz)     0.0000  0.0000  0.0056  0.0000  0.0009 -0.0016  0.0000  0.0000
  42.  F 3 (d5)    -0.0034  0.0058  0.0000  0.0004  0.0000  0.0000  0.0003  0.0005
  43.  F 3 (d2)     0.0000  0.0000 -0.0009  0.0000  0.0000  0.0001  0.0000  0.0000
  44.  F 3 (d3)     0.0000  0.0000  0.0016  0.0000  0.0001 -0.0002  0.0000  0.0000
  45.  F 3 (d4)    -0.0043  0.0042  0.0000  0.0003  0.0000  0.0000  0.0001  0.0005
  46.  F 3 (d1)    -0.0042  0.0092  0.0000  0.0005  0.0000  0.0000  0.0005  0.0007
  47.  F 4 (s)      0.0000  0.0000  0.0000  0.0000  0.0000  0.0000  0.0000  0.0000
  48.  F 4 (s)     -0.0006 -0.0010  0.0000  0.0000  0.0000  0.0000  0.0000  0.0000
  49.  F 4 (px)    -0.0004 -0.0009  0.0000  0.0000  0.0000  0.0000  0.0000  0.0000
  50.  F 4 (py)    -0.0009 -0.0014  0.0000  0.0000  0.0000  0.0000  0.0000  0.0000
  51.  F 4 (pz)     0.0000  0.0000  0.0001  0.0000  0.0000  0.0000  0.0000  0.0000
  52.  F 4 (s)     -0.0090 -0.0156  0.0000 -0.0018  0.0000  0.0000 -0.0015  0.0026
  53.  F 4 (px)    -0.0089 -0.0251  0.0000 -0.0034  0.0000  0.0000 -0.0043  0.0042
  54.  F 4 (py)    -0.0251 -0.0378  0.0000 -0.0058  0.0000  0.0000 -0.0042  0.0092
  55.  F 4 (pz)     0.0000  0.0000  0.0056  0.0000 -0.0009 -0.0016  0.0000  0.0000
  56.  F 4 (d5)     0.0034  0.0058  0.0000  0.0004  0.0000  0.0000  0.0003 -0.0005
  57.  F 4 (d2)     0.0000  0.0000  0.0009  0.0000  0.0000 -0.0001  0.0000  0.0000
  58.  F 4 (d3)     0.0000  0.0000  0.0016  0.0000 -0.0001 -0.0002  0.0000  0.0000
  59.  F 4 (d4)     0.0043  0.0042  0.0000  0.0003  0.0000  0.0000  0.0001 -0.0005
  60.  F 4 (d1)    -0.0042 -0.0092  0.0000 -0.0005  0.0000  0.0000 -0.0005  0.0007

           AO         33      34      35      36      37      38      39      40
      ------------ ------- ------- ------- ------- ------- ------- ------- -------
   1. Al 1 (s)      0.0000  0.0000  0.0000  0.0000  0.0000  0.0034 -0.0107  0.0062
   2. Al 1 (s)      0.0000  0.0022 -0.0038  0.0022  0.0000  0.0438 -0.1103  0.0637
   3. Al 1 (px)     0.0001  0.0045 -0.0071  0.0047  0.0000  0.0417 -0.0797  0.0610
   4. Al 1 (py)    -0.0001 -0.0026  0.0047 -0.0017  0.0000 -0.0241  0.0610 -0.0093
   5. Al 1 (pz)     0.0000  0.0000  0.0000  0.0000  0.0010  0.0000  0.0000  0.0000
   6. Al 1 (s)      0.0230  0.1403 -0.0699  0.0404  0.0000  0.3221 -0.3033  0.1751
   7. Al 1 (px)     0.0395  0.2253 -0.0751  0.0750  0.0000  0.4280 -0.2030  0.2706
   8. Al 1 (py)    -0.0228 -0.1301  0.0750  0.0115  0.0000 -0.2471  0.2706  0.1095
   9. Al 1 (pz)     0.0000  0.0000  0.0000  0.0000  0.0548  0.0000  0.0000  0.0000
  10. Al 1 (s)      0.0259  0.1540 -0.0289  0.0167  0.0000  0.3540 -0.1534  0.0886
  11. Al 1 (px)     0.0328  0.1874  0.0102  0.0204  0.0000  0.3891  0.0729  0.0973
[...]
                                        -0.8288 -0.0086  0.0000  0.0000  0.0000
                                         0.0000  0.0000 -0.0394 -0.0213
  19. (1.99272) BD ( 1)Al  1- F  3
               (  7.73%)   0.2781*Al  1 s( 33.29%)p 1.97( 65.55%)d 0.03(  1.16%)
                                         0.0000  0.0000  0.5770  0.0002  0.0000
                                         0.6944 -0.0974  0.0000 -0.4009  0.0562
                                         0.0000  0.0000  0.0000 -0.0916  0.0000
                                         0.0000  0.0529 -0.0201
               ( 92.27%)   0.9606* F  3 s( 31.10%)p 2.21( 68.70%)d 0.01(  0.20%)
                                         0.0000  0.5577 -0.0030 -0.7178 -0.0075
                                         0.4144  0.0043  0.0000  0.0000 -0.0342
                                         0.0000  0.0000  0.0197 -0.0213
  20. (1.99272) BD ( 1)Al  1- F  4
               (  7.73%)   0.2781*Al  1 s( 33.29%)p 1.97( 65.55%)d 0.03(  1.16%)
                                         0.0000  0.0000  0.5770  0.0002  0.0000
                                        -0.6944  0.0974  0.0000 -0.4009  0.0562
                                         0.0000  0.0000  0.0000  0.0916  0.0000
                                         0.0000  0.0529 -0.0201
               ( 92.27%)   0.9606* F  4 s( 31.10%)p 2.21( 68.70%)d 0.01(  0.20%)
                                         0.0000  0.5577 -0.0030  0.7178  0.0075
                                         0.4144  0.0043  0.0000  0.0000  0.0342
                                         0.0000  0.0000  0.0197 -0.0213
 ---------------- non-Lewis ----------------------------------------------------
  21. (0.11650) LV ( 1)Al  1            s(  0.00%)p 1.00(100.00%)
                                         0.0000  0.0000  0.0000  0.0000  0.0000
                                         0.0000  0.0000  0.0000  0.0000  0.0000
                                         0.0000  0.9930  0.1185  0.0000  0.0000
                                         0.0000  0.0000  0.0000
  22. (0.03561) BD*( 1)Al  1- F  2
               ( 92.27%)   0.9606*Al  1 s( 33.29%)p 1.97( 65.55%)d 0.03(  1.16%)
                                         0.0000  0.0000  0.5770  0.0002  0.0000
                                         0.0000  0.0000  0.0000  0.8018 -0.1124
                                         0.0000  0.0000  0.0000  0.0000  0.0000
                                         0.0000 -0.1058 -0.0201
               (  7.73%)  -0.2781* F  2 s( 31.10%)p 2.21( 68.70%)d 0.01(  0.20%)
                                         0.0000  0.5577 -0.0030  0.0000  0.0000
                                        -0.8288 -0.0086  0.0000  0.0000  0.0000
                                         0.0000  0.0000 -0.0394 -0.0213
  23. (0.03561) BD*( 1)Al  1- F  3
               ( 92.27%)   0.9606*Al  1 s( 33.29%)p 1.97( 65.55%)d 0.03(  1.16%)
                                         0.0000  0.0000  0.5770  0.0002  0.0000
                                         0.6944 -0.0974  0.0000 -0.4009  0.0562
                                         0.0000  0.0000  0.0000 -0.0916  0.0000
                                         0.0000  0.0529 -0.0201
               (  7.73%)  -0.2781* F  3 s( 31.10%)p 2.21( 68.70%)d 0.01(  0.20%)
                                         0.0000  0.5577 -0.0030 -0.7178 -0.0075
                                         0.4144  0.0043  0.0000  0.0000 -0.0342
                                         0.0000  0.0000  0.0197 -0.0213
  24. (0.03561) BD*( 1)Al  1- F  4
               ( 92.27%)   0.9606*Al  1 s( 33.29%)p 1.97( 65.55%)d 0.03(  1.16%)
                                         0.0000  0.0000  0.5770  0.0002  0.0000
                                        -0.6944  0.0974  0.0000 -0.4009  0.0562
                                         0.0000  0.0000  0.0000  0.0916  0.0000
                                         0.0000  0.0529 -0.0201
               (  7.73%)  -0.2781* F  4 s( 31.10%)p 2.21( 68.70%)d 0.01(  0.20%)
                                         0.0000  0.5577 -0.0030  0.7178  0.0075
                                         0.4144  0.0043  0.0000  0.0000  0.0342
                                         0.0000  0.0000  0.0197 -0.0213
  25. (0.01315) RY ( 1)Al  1            s(  0.00%)p 1.00( 36.92%)d 1.71( 63.08%)
                                         0.0000  0.0000  0.0000  0.0000  0.0000
                                         0.0000  0.0000  0.0000  0.1859  0.5785
                                         0.0000  0.0000  0.0000  0.0000  0.0000
                                         0.0000  0.7943  0.0000
  26. (0.01315) RY ( 2)Al  1            s(  0.00%)p 1.00( 36.92%)d 1.71( 63.08%)
                                         0.0000  0.0000  0.0000  0.0000  0.0000
                                         0.1859  0.5785  0.0000  0.0000  0.0000
                                         0.0000  0.0000  0.0000  0.7942  0.0000
                                         0.0000  0.0000  0.0000
  27. (0.00705) RY ( 3)Al  1            s(  0.00%)p 0.00(  0.00%)d 1.00(100.00%)
                                         0.0000  0.0000  0.0000  0.0000  0.0000
                                         0.0000  0.0000  0.0000  0.0000  0.0000
                                         0.0000  0.0000  0.0000  0.0000  1.0000
                                         0.0000  0.0000  0.0000
  28. (0.00705) RY ( 4)Al  1            s(  0.00%)p 0.00(  0.00%)d 1.00(100.00%)
                                         0.0000  0.0000  0.0000  0.0000  0.0000
                                         0.0000  0.0000  0.0000  0.0000  0.0000
                                         0.0000  0.0000  0.0000  0.0000  0.0000
                                         1.0000  0.0000  0.0000
  29. (0.00023) RY ( 5)Al  1            s(  0.00%)p 1.00( 64.76%)d 0.54( 35.24%)
                                         0.0000  0.0000  0.0000  0.0000  0.0000
                                         0.0000  0.0000  0.0000  0.0345  0.8040
                                         0.0000  0.0000  0.0000  0.0000  0.0000
                                         0.0000 -0.5936  0.0000
  30. (0.00023) RY ( 6)Al  1            s(  0.00%)p 1.00( 64.76%)d 0.54( 35.24%)
                                         0.0000  0.0000  0.0000  0.0000  0.0000
                                         0.0345  0.8040  0.0000  0.0000  0.0000
                                         0.0000  0.0000  0.0000 -0.5936  0.0000
                                         0.0000  0.0000  0.0000
  31. (0.00000) RY ( 7)Al  1            s( 68.01%)p 0.00(  0.00%)d 0.47( 31.99%)
  32. (0.00000) RY ( 8)Al  1            s(  0.00%)p 1.00(100.00%)
  33. (0.00000) RY ( 9)Al  1            s( 32.11%)p 0.00(  0.00%)d 2.11( 67.89%)
  34. (0.00017) RY ( 1) F  2            s( 64.99%)p 0.39( 25.30%)d 0.15(  9.71%)
                                         0.0000  0.0106  0.8061  0.0000  0.0000
                                        -0.0152  0.5028  0.0000  0.0000  0.0000
                                         0.0000  0.0000  0.3106 -0.0246
  35. (0.00007) RY ( 2) F  2            s(  0.00%)p 1.00( 85.17%)d 0.17( 14.83%)
  36. (0.00004) RY ( 3) F  2            s( 35.00%)p 1.32( 46.17%)d 0.54( 18.84%)
  37. (0.00002) RY ( 4) F  2            s(  0.00%)p 1.00( 96.33%)d 0.04(  3.67%)
  38. (0.00001) RY ( 5) F  2            s(  0.03%)p99.99( 20.66%)d99.99( 79.31%)
  39. (0.00000) RY ( 6) F  2            s(  0.00%)p 0.00(  0.00%)d 1.00(100.00%)
  40. (0.00000) RY ( 7) F  2            s(  0.02%)p99.99(  8.05%)d99.99( 91.93%)
  41. (0.00000) RY ( 8) F  2            s(  0.00%)p 1.00( 14.93%)d 5.70( 85.07%)
  42. (0.00000) RY ( 9) F  2            s(  0.00%)p 1.00(  3.77%)d25.53( 96.23%)
  43. (0.00017) RY ( 1) F  3            s( 64.99%)p 0.39( 25.30%)d 0.15(  9.71%)
                                         0.0000  0.0106  0.8061 -0.0131  0.4354
                                         0.0076 -0.2514  0.0000  0.0000  0.2690
                                         0.0000  0.0000 -0.1553 -0.0246
  44. (0.00007) RY ( 2) F  3            s(  0.00%)p 1.00( 85.17%)d 0.17( 14.83%)
  45. (0.00004) RY ( 3) F  3            s( 35.00%)p 1.32( 46.17%)d 0.54( 18.84%)
  46. (0.00002) RY ( 4) F  3            s(  0.00%)p 1.00( 96.33%)d 0.04(  3.67%)
  47. (0.00001) RY ( 5) F  3            s(  0.03%)p99.99( 20.66%)d99.99( 79.31%)
  48. (0.00000) RY ( 6) F  3            s(  0.00%)p 0.00(  0.00%)d 1.00(100.00%)
  49. (0.00000) RY ( 7) F  3            s(  0.02%)p99.99(  8.05%)d99.99( 91.93%)
  50. (0.00000) RY ( 8) F  3            s(  0.00%)p 1.00( 14.93%)d 5.70( 85.07%)
  51. (0.00000) RY ( 9) F  3            s(  0.00%)p 1.00(  3.77%)d25.53( 96.23%)
  52. (0.00017) RY ( 1) F  4            s( 64.99%)p 0.39( 25.30%)d 0.15(  9.71%)
                                         0.0000  0.0106  0.8061  0.0131 -0.4354
                                         0.0076 -0.2514  0.0000  0.0000 -0.2690
                                         0.0000  0.0000 -0.1553 -0.0246
  53. (0.00007) RY ( 2) F  4            s(  0.00%)p 1.00( 85.17%)d 0.17( 14.83%)
  54. (0.00004) RY ( 3) F  4            s( 35.00%)p 1.32( 46.17%)d 0.54( 18.84%)
  55. (0.00002) RY ( 4) F  4            s(  0.00%)p 1.00( 96.33%)d 0.04(  3.67%)
  56. (0.00001) RY ( 5) F  4            s(  0.03%)p99.99( 20.66%)d99.99( 79.31%)
  57. (0.00000) RY ( 6) F  4            s(  0.00%)p 0.00(  0.00%)d 1.00(100.00%)
  58. (0.00000) RY ( 7) F  4            s(  0.02%)p99.99(  8.05%)d99.99( 91.93%)
  59. (0.00000) RY ( 8) F  4            s(  0.00%)p 1.00( 14.93%)d 5.70( 85.07%)
  60. (0.00000) RY ( 9) F  4            s(  0.00%)p 1.00(  3.77%)d25.53( 96.23%)


 NHO DIRECTIONALITY AND BOND BENDING (deviation from line of nuclear centers at
                                      the position of maximum hybrid amplitude)

         [Thresholds for printing:  angular deviation  >  1.0 degree]
                                    p- or d-character  > 25.0%
                                    orbital occupancy  >  0.10e

                        Line of Centers        Hybrid 1             Hybrid 2
                        ---------------  -------------------  ------------------
           NBO            Theta   Phi    Theta   Phi    Dev   Theta   Phi    Dev
 ===============================================================================
   9. LP ( 1) F  2          --     --     90.0   90.0   --      --     --    --
  10. LP ( 2) F  2          --     --     90.0  359.7   --      --     --    --
  11. LP ( 3) F  2          --     --      0.3  270.0   --      --     --    --
  12. LP ( 1) F  3          --     --     90.0  330.0   --      --     --    --
  13. LP ( 2) F  3          --     --     90.0  239.7   --      --     --    --
  14. LP ( 3) F  3          --     --      0.3  150.0   --      --     --    --
  15. LP ( 1) F  4          --     --     90.0  210.0   --      --     --    --
  16. LP ( 2) F  4          --     --     90.0  300.3   --      --     --    --
  17. LP ( 3) F  4          --     --      0.3   30.0   --      --     --    --
  18. BD ( 1)Al  1- F  2   90.0   90.0    58.9   90.0  31.1     --     --    --
  19. BD ( 1)Al  1- F  3   90.0  330.0   121.1  330.0  31.1     --     --    --
  20. BD ( 1)Al  1- F  4   90.0  210.0   121.1  210.0  31.1     --     --    --


 SECOND ORDER PERTURBATION THEORY ANALYSIS OF FOCK MATRIX IN NBO BASIS

     Threshold for printing:   0.50 kcal/mol
                                                          E(2) E(NL)-E(L) F(L,NL)
      Donor (L) NBO              Acceptor (NL) NBO      kcal/mol   a.u.    a.u.
 ===============================================================================

 within unit  1
    9. LP ( 1) F  2            25. RY ( 1)Al  1            0.57    2.06   0.031
   10. LP ( 2) F  2            23. BD*( 1)Al  1- F  3      7.68    1.07   0.081
   10. LP ( 2) F  2            24. BD*( 1)Al  1- F  4      7.68    1.07   0.081
   10. LP ( 2) F  2            26. RY ( 2)Al  1            3.41    1.49   0.064
   10. LP ( 2) F  2            30. RY ( 6)Al  1            0.62    1.14   0.024
   11. LP ( 3) F  2            21. LV ( 1)Al  1           20.73    0.74   0.110
   11. LP ( 3) F  2            28. RY ( 4)Al  1            4.02    1.37   0.066
   13. LP ( 2) F  3            22. BD*( 1)Al  1- F  2      7.68    1.07   0.081
   13. LP ( 2) F  3            24. BD*( 1)Al  1- F  4      7.68    1.07   0.081
   13. LP ( 2) F  3            25. RY ( 1)Al  1            2.55    1.49   0.055
   13. LP ( 2) F  3            26. RY ( 2)Al  1            0.85    1.49   0.032
   14. LP ( 3) F  3            21. LV ( 1)Al  1           20.73    0.74   0.110
   14. LP ( 3) F  3            27. RY ( 3)Al  1            3.02    1.37   0.057
   14. LP ( 3) F  3            28. RY ( 4)Al  1            1.01    1.37   0.033
   16. LP ( 2) F  4            22. BD*( 1)Al  1- F  2      7.68    1.07   0.081
   16. LP ( 2) F  4            23. BD*( 1)Al  1- F  3      7.68    1.07   0.081
   16. LP ( 2) F  4            25. RY ( 1)Al  1            2.55    1.49   0.055
   16. LP ( 2) F  4            26. RY ( 2)Al  1            0.85    1.49   0.032
   17. LP ( 3) F  4            21. LV ( 1)Al  1           20.73    0.74   0.110
   17. LP ( 3) F  4            27. RY ( 3)Al  1            3.02    1.37   0.057
   17. LP ( 3) F  4            28. RY ( 4)Al  1            1.01    1.37   0.033
   18. BD ( 1)Al  1- F  2      23. BD*( 1)Al  1- F  3      1.93    1.49   0.048
   18. BD ( 1)Al  1- F  2      24. BD*( 1)Al  1- F  4      1.93    1.49   0.048
   19. BD ( 1)Al  1- F  3      22. BD*( 1)Al  1- F  2      1.93    1.49   0.048
   19. BD ( 1)Al  1- F  3      24. BD*( 1)Al  1- F  4      1.93    1.49   0.048
   20. BD ( 1)Al  1- F  4      22. BD*( 1)Al  1- F  2      1.93    1.49   0.048
   20. BD ( 1)Al  1- F  4      23. BD*( 1)Al  1- F  3      1.93    1.49   0.048


 NATURAL BOND ORBITALS (Summary):

                                                     Principal Delocalizations
           NBO                 Occupancy    Energy   (geminal,vicinal,remote)
 ===============================================================================
 Molecular unit  1  (F3Al)
 ------ Lewis --------------------------------------
    1. CR ( 1)Al  1             2.00000   -57.08494
    2. CR ( 2)Al  1             2.00000    -6.43526
    3. CR ( 3)Al  1             1.99998    -3.28418
    4. CR ( 4)Al  1             1.99998    -3.28418
    5. CR ( 5)Al  1             1.99998    -3.28789
    6. CR ( 1) F  2             2.00000   -26.27877
    7. CR ( 1) F  3             2.00000   -26.27877
    8. CR ( 1) F  4             2.00000   -26.27877
    9. LP ( 1) F  2             1.99559    -1.19568  25(v)
   10. LP ( 2) F  2             1.96694    -0.62412  23(v),24(v),26(v),30(v)
   11. LP ( 3) F  2             1.95640    -0.62304  21(v),28(v)
   12. LP ( 1) F  3             1.99559    -1.19568
   13. LP ( 2) F  3             1.96694    -0.62412  22(v),24(v),25(v),26(v)
   14. LP ( 3) F  3             1.95640    -0.62304  21(v),27(v),28(v)
   15. LP ( 1) F  4             1.99559    -1.19568
   16. LP ( 2) F  4             1.96694    -0.62412  22(v),23(v),25(v),26(v)
   17. LP ( 3) F  4             1.95640    -0.62304  21(v),27(v),28(v)
   18. BD ( 1)Al  1- F  2       1.99272    -1.04360  23(g),24(g)
   19. BD ( 1)Al  1- F  3       1.99272    -1.04360  22(g),24(g)
   20. BD ( 1)Al  1- F  4       1.99272    -1.04360  22(g),23(g)
 ------ non-Lewis ----------------------------------
   21. LV ( 1)Al  1             0.11650     0.11485
   22. BD*( 1)Al  1- F  2       0.03561     0.44298
   23. BD*( 1)Al  1- F  3       0.03561     0.44298
   24. BD*( 1)Al  1- F  4       0.03561     0.44298
   25. RY ( 1)Al  1             0.01315     0.86774
   26. RY ( 2)Al  1             0.01315     0.86774
   27. RY ( 3)Al  1             0.00705     0.74474
   28. RY ( 4)Al  1             0.00705     0.74474
   29. RY ( 5)Al  1             0.00023     0.51161
   30. RY ( 6)Al  1             0.00023     0.51161
   31. RY ( 7)Al  1             0.00000     0.51671
   32. RY ( 8)Al  1             0.00000     0.24650
   33. RY ( 9)Al  1             0.00000     0.60225
   34. RY ( 1) F  2             0.00017     2.81803
   35. RY ( 2) F  2             0.00007     1.77948
   36. RY ( 3) F  2             0.00004     1.75742
   37. RY ( 4) F  2             0.00002     1.60826
   38. RY ( 5) F  2             0.00001     1.97057
   39. RY ( 6) F  2             0.00000     2.13799
   40. RY ( 7) F  2             0.00000     2.12198
   41. RY ( 8) F  2             0.00000     2.07419
   42. RY ( 9) F  2             0.00000     2.33289
   43. RY ( 1) F  3             0.00017     2.81803
   44. RY ( 2) F  3             0.00007     1.77948
   45. RY ( 3) F  3             0.00004     1.75742
   46. RY ( 4) F  3             0.00002     1.60826
   47. RY ( 5) F  3             0.00001     1.97057
   48. RY ( 6) F  3             0.00000     2.13799
   49. RY ( 7) F  3             0.00000     2.12198
   50. RY ( 8) F  3             0.00000     2.07419
   51. RY ( 9) F  3             0.00000     2.33289
   52. RY ( 1) F  4             0.00017     2.81803
   53. RY ( 2) F  4             0.00007     1.77948
   54. RY ( 3) F  4             0.00004     1.75742
   55. RY ( 4) F  4             0.00002     1.60826
   56. RY ( 5) F  4             0.00001     1.97057
   57. RY ( 6) F  4             0.00000     2.13799
   58. RY ( 7) F  4             0.00000     2.12198
   59. RY ( 8) F  4             0.00000     2.07419
   60. RY ( 9) F  4             0.00000     2.33289
          -------------------------------
                 Total Lewis   39.73485  ( 99.3371%)
           Valence non-Lewis    0.22334  (  0.5584%)
           Rydberg non-Lewis    0.04181  (  0.1045%)
          -------------------------------
               Total unit  1   40.00000  (100.0000%)
              Charge unit  1    0.00000

 $CHOOSE
   LONE 2 3 3 3 4 3 END
   BOND S 1 2 S 1 3 S 1 4 END
 $END

 NBO analysis completed in 0.83 CPU seconds (1 wall second)
 Maximum scratch memory used by NBO was 383417 words (2.93 MB)
 Maximum scratch memory used by G16NBO was 13934 words (0.11 MB)

 Opening RunExU unformatted file "/cluster/work/users/beto93/mol57/Gau-1186023.EUF"
 Read unf file /cluster/work/users/beto93/mol57/Gau-1186023.EUF:
 Label Gaussian matrix elements                                         IVers= 2 NLab= 2 Version=ES64L-G16RevC.01
 Title mol57-NBO                                                       
 NAtoms=     4 NBasis=    60 NBsUse=    60 ICharg=     0 Multip=     1 NE=    40 Len12L=8 Len4L=8 IOpCl= 0 ICGU=111
 GAUSSIAN SCALARS                    NI= 1 NR= 1 NTot=       1 LenBuf=    2 NRI=1 N=    1000
 NPA CHARGES                         NI= 0 NR= 1 NTot=       4 LenBuf= 4000 NRI=1 N=       4
 Recovered energy= -540.443728762     dipole=      0.000000000000     -0.000000066561     -0.000000000000
 Unable to Open any file for archive entry.
 1\1\GINC-C2-38\SP\RHF\6-31G(d)\Al1F3\BETO93\18-Nov-2024\0\\#RHF/6-31G*
  int=nobasistransform Symmetry=None 5D 7F Pop=NBO7Read\\mol57-NBO\\0,1
 \Al,0,0.,0.,0.\F,0,0.,1.64472,0.\F,0,1.424369,-0.82236,0.\F,0,-1.42436
 9,-0.82236,0.\\Version=ES64L-G16RevC.01\HF=-540.4437288\RMSD=6.076e-09
 \Dipole=0.,0.,0.\Quadrupole=-2.6870352,-2.6870385,5.3740736,0.,0.,0.\P
 G=Unknown\\@
 The archive entry for this job was punched.


 "WOULD YOU TELL ME PLEASE, WHICH WAY I OUGHT TO WALK FROM HERE?"
 "THAT DEPENDS A GREAT DEAL ON WHERE YOU WANT TO GO," SAID THE CAT.
 "I DON'T MUCH CARE WHERE -- ", SAID ALICE.
 "THEN IT DOESN'T MATTER WHICH WAY YOU WALK," SAID THE CAT.

                                      -- LEWIS CARROLL
 Job cpu time:       0 days  0 hours  0 minutes  8.6 seconds.
 Elapsed time:       0 days  0 hours  0 minutes  2.8 seconds.
 File lengths (MBytes):  RWF=     10 Int=      0 D2E=      0 Chk=      1 Scr=      1
 Normal termination of Gaussian 16 at Mon Nov 18 16:40:08 2024.
