 Entering Gaussian System, Link 0=g16
 Initial command:
 /cluster/software/Gaussian/g16_C.01/l1.exe "/cluster/work/users/beto93/mol54/Gau-1064287.inp" -scrdir="/cluster/work/users/beto93/mol54/"
 Entering Link 1 = /cluster/software/Gaussian/g16_C.01/l1.exe PID=   1064288.
  
 Copyright (c) 1988-2019, Gaussian, Inc.  All Rights Reserved.
  
 This is part of the Gaussian(R) 16 program.  It is based on
 the Gaussian(R) 09 system (copyright 2009, Gaussian, Inc.),
 the Gaussian(R) 03 system (copyright 2003, Gaussian, Inc.),
 the Gaussian(R) 98 system (copyright 1998, Gaussian, Inc.),
 the Gaussian(R) 94 system (copyright 1995, Gaussian, Inc.),
 the Gaussian 92(TM) system (copyright 1992, Gaussian, Inc.),
 the Gaussian 90(TM) system (copyright 1990, Gaussian, Inc.),
 the Gaussian 88(TM) system (copyright 1988, Gaussian, Inc.),
 the Gaussian 86(TM) system (copyright 1986, Carnegie Mellon
 University), and the Gaussian 82(TM) system (copyright 1983,
 Carnegie Mellon University). Gaussian is a federally registered
 trademark of Gaussian, Inc.
  
 This software contains proprietary and confidential information,
 including trade secrets, belonging to Gaussian, Inc.
  
 This software is provided under written license and may be
 used, copied, transmitted, or stored only in accord with that
 written license.
  
 The following legend is applicable only to US Government
 contracts under FAR:
  
                    RESTRICTED RIGHTS LEGEND
  
 Use, reproduction and disclosure by the US Government is
 subject to restrictions as set forth in subparagraphs (a)
 and (c) of the Commercial Computer Software - Restricted
 Rights clause in FAR 52.227-19.
  
 Gaussian, Inc.
 340 Quinnipiac St., Bldg. 40, Wallingford CT 06492
  
  
 ---------------------------------------------------------------
 Warning -- This program may not be used in any manner that
 competes with the business of Gaussian, Inc. or will provide
 assistance to any competitor of Gaussian, Inc.  The licensee
 of this program is prohibited from giving any competitor of
 Gaussian, Inc. access to this program.  By using this program,
 the user acknowledges that Gaussian, Inc. is engaged in the
 business of creating and licensing software in the field of
 computational chemistry and represents and warrants to the
 licensee that it is not a competitor of Gaussian, Inc. and that
 it will not use this program in any manner prohibited above.
 ---------------------------------------------------------------
  

 Cite this work as:
 Gaussian 16, Revision C.01,
 M. J. Frisch, G. W. Trucks, H. B. Schlegel, G. E. Scuseria, 
 M. A. Robb, J. R. Cheeseman, G. Scalmani, V. Barone, 
 G. A. Petersson, H. Nakatsuji, X. Li, M. Caricato, A. V. Marenich, 
 J. Bloino, B. G. Janesko, R. Gomperts, B. Mennucci, H. P. Hratchian, 
 J. V. Ortiz, A. F. Izmaylov, J. L. Sonnenberg, D. Williams-Young, 
 F. Ding, F. Lipparini, F. Egidi, J. Goings, B. Peng, A. Petrone, 
 T. Henderson, D. Ranasinghe, V. G. Zakrzewski, J. Gao, N. Rega, 
 G. Zheng, W. Liang, M. Hada, M. Ehara, K. Toyota, R. Fukuda, 
 J. Hasegawa, M. Ishida, T. Nakajima, Y. Honda, O. Kitao, H. Nakai, 
 T. Vreven, K. Throssell, J. A. Montgomery, Jr., J. E. Peralta, 
 F. Ogliaro, M. J. Bearpark, J. J. Heyd, E. N. Brothers, K. N. Kudin, 
 V. N. Staroverov, T. A. Keith, R. Kobayashi, J. Normand, 
 K. Raghavachari, A. P. Rendell, J. C. Burant, S. S. Iyengar, 
 J. Tomasi, M. Cossi, J. M. Millam, M. Klene, C. Adamo, R. Cammi, 
 J. W. Ochterski, R. L. Martin, K. Morokuma, O. Farkas, 
 J. B. Foresman, and D. J. Fox, Gaussian, Inc., Wallingford CT, 2019.
 
 ******************************************
 Gaussian 16:  ES64L-G16RevC.01  3-Jul-2019
                18-Nov-2024 
 ******************************************
 %LindaWorkers=c1-36-ib
 %NProcShared=4
 Will use up to    4 processors via shared memory.
 %mem=25GB
 %chk=mol54.chk
 SetLPE:    new flags="-opt 'Tsnet.Node.lindarsharg: ssh'  -nodelist 'c1-36-ib.saga' -env GAUSS_MDEF=3355443200 -env GAUSS_EXEDIR="/cluster/software/Gaussian/g16_C.01/bsd:/cluster/software/Gaussian/g16_C.01""
 Will use up to    1 processors via Linda.
 -----------------------------------------------------------------
 #RHF/STO-3G int=nobasistransform Symmetry=None 5D 7F Pop=NBO7Read
 -----------------------------------------------------------------
 1/38=1,163=2,172=1/1;
 2/12=2,15=3,17=6,18=5,40=1/2;
 3/6=3,8=11,11=1,25=1,30=1,60=-1,116=1/1,2,3;
 4//1;
 5/5=2,38=5/2;
 6/7=2,8=2,9=2,10=2,28=1,40=2,113=1,114=1,124=2103/1,12;
 99/5=1,9=1/99;
 ---------
 mol54-NBO
 ---------
 Symbolic Z-matrix:
 Charge =  0 Multiplicity = 1
 S                     0.        0.        0.37027 
 O                     0.        1.27762  -0.37027 
 O                     0.       -1.27762  -0.37027 
 
                          Input orientation:                          
 ---------------------------------------------------------------------
 Center     Atomic      Atomic             Coordinates (Angstroms)
 Number     Number       Type             X           Y           Z
 ---------------------------------------------------------------------
      1         16           0        0.000000    0.000000    0.370268
      2          8           0        0.000000    1.277617   -0.370268
      3          8           0        0.000000   -1.277617   -0.370268
 ---------------------------------------------------------------------
                    Distance matrix (angstroms):
                    1          2          3
     1  S    0.000000
     2  O    1.476719   0.000000
     3  O    1.476719   2.555234   0.000000
 Symmetry turned off by external request.
 Stoichiometry    O2S
 Rotational constants (GHZ):          57.6319759           9.6784077           8.2867714
 Standard basis: STO-3G (5D, 7F)
    19 basis functions,    57 primitive gaussians,    19 cartesian basis functions
    16 alpha electrons       16 beta electrons
       nuclear repulsion energy       104.9908365227 Hartrees.



 Warning!  S  atom    1 may be hypervalent but has no d functions.



 NAtoms=    3 NActive=    3 NUniq=    3 SFac= 1.00D+00 NAtFMM=   60 NAOKFM=F Big=F
 Integral buffers will be    131072 words long.
 Raffenetti 1 integral format.
 Two-electron integral symmetry is turned off.
 One-electron integrals computed using PRISM.
 NBasis=    19 RedAO= T EigKep=  3.37D-01  NBF=    19
 NBsUse=    19 1.00D-06 EigRej= -1.00D+00 NBFU=    19
 ExpMin= 2.22D-01 ExpMax= 5.33D+02 ExpMxC= 5.33D+02 IAcc=3 IRadAn=         5 AccDes= 0.00D+00
 Harris functional with IExCor=  205 and IRadAn=       5 diagonalized for initial guess.
 HarFok:  IExCor=  205 AccDes= 0.00D+00 IRadAn=         5 IDoV= 1 UseB2=F ITyADJ=14
 ICtDFT=  3500011 ScaDFX=  1.000000  1.000000  1.000000  1.000000
 FoFCou: FMM=F IPFlag=           0 FMFlag=      100000 FMFlg1=           0
         NFxFlg=           0 DoJE=T BraDBF=F KetDBF=T FulRan=T
         wScrn=  0.000000 ICntrl=       500 IOpCl=  0 I1Cent=   200000004 NGrid=           0
         NMat0=    1 NMatS0=      1 NMatT0=    0 NMatD0=    1 NMtDS0=    0 NMtDT0=    0
 Symmetry not used in FoFCou.
 Keep R1 ints in memory in canonical form, NReq=822825.
 Requested convergence on RMS density matrix=1.00D-08 within 128 cycles.
 Requested convergence on MAX density matrix=1.00D-06.
 Requested convergence on             energy=1.00D-06.
 No special actions if energy rises.
 SCF Done:  E(RHF) =  -540.625176446     A.U. after   11 cycles
            NFock= 11  Conv=0.33D-09     -V/T= 2.0099

 **********************************************************************

            Population analysis using the SCF Density.

 **********************************************************************

 Alpha  occ. eigenvalues --  -91.03549 -20.19347 -20.19345  -8.91292  -6.54631
 Alpha  occ. eigenvalues --   -6.54214  -6.54086  -1.36630  -1.25294  -0.75471
 Alpha  occ. eigenvalues --   -0.54403  -0.52758  -0.51442  -0.35696  -0.30279
 Alpha  occ. eigenvalues --   -0.27481
 Alpha virt. eigenvalues --    0.15333   0.50328   0.61384
          Condensed to atoms (all electrons):
               1          2          3
     1  S   14.806088   0.188340   0.188340
     2  O    0.188340   8.229224  -0.008948
     3  O    0.188340  -0.008948   8.229224
 Mulliken charges:
               1
     1  S    0.817232
     2  O   -0.408616
     3  O   -0.408616
 Sum of Mulliken charges =  -0.00000
 Mulliken charges with hydrogens summed into heavy atoms:
               1
     1  S    0.817232
     2  O   -0.408616
     3  O   -0.408616
 Electronic spatial extent (au):  <R**2>=            156.3417
 Charge=             -0.0000 electrons
 Dipole moment (field-independent basis, Debye):
    X=             -0.0000    Y=             -0.0000    Z=              1.6281  Tot=              1.6281
 Quadrupole moment (field-independent basis, Debye-Ang):
   XX=            -17.7790   YY=            -25.5901   ZZ=            -20.3988
   XY=             -0.0000   XZ=              0.0000   YZ=              0.0000
 Traceless Quadrupole moment (field-independent basis, Debye-Ang):
   XX=              3.4770   YY=             -4.3341   ZZ=              0.8571
   XY=             -0.0000   XZ=              0.0000   YZ=              0.0000
 Octapole moment (field-independent basis, Debye-Ang**2):
  XXX=             -0.0000  YYY=             -0.0000  ZZZ=             -1.5789  XYY=             -0.0000
  XXY=             -0.0000  XXZ=             -0.4875  XZZ=             -0.0000  YZZ=             -0.0000
  YYZ=              2.5324  XYZ=             -0.0000
 Hexadecapole moment (field-independent basis, Debye-Ang**3):
 XXXX=            -11.5951 YYYY=           -113.3931 ZZZZ=            -30.6570 XXXY=             -0.0000
 XXXZ=              0.0000 YYYX=             -0.0000 YYYZ=              0.0000 ZZZX=              0.0000
 ZZZY=              0.0000 XXYY=            -18.1316 XXZZ=             -6.7898 YYZZ=            -22.7722
 XXYZ=              0.0000 YYXZ=              0.0000 ZZXY=              0.0000
 N-N= 1.049908365227D+02 E-N=-1.494840508443D+03  KE= 5.353268321142D+02
 Running external command "gaunbo7 R"
         input file       "/cluster/work/users/beto93/mol54/Gau-1064288.EIn"
         output file      "/cluster/work/users/beto93/mol54/Gau-1064288.EOu"
         message file     "/cluster/work/users/beto93/mol54/Gau-1064288.EMs"
         fchk file        "/cluster/work/users/beto93/mol54/Gau-1064288.EFC"
         mat. el file     "/cluster/work/users/beto93/mol54/Gau-1064288.EUF"

 Writing WrtUnf unformatted file "/cluster/work/users/beto93/mol54/Gau-1064288.EUF"
 Gaussian matrix elements                                         Version   2 NLab=11 Len12L=8 Len4L=8
 Write SHELL TO ATOM MAP                   from file      0 offset           0 length                   7 to matrix element file.
 Write SHELL TYPES                         from file      0 offset           0 length                   7 to matrix element file.
 Write NUMBER OF PRIMITIVES PER SHELL      from file      0 offset           0 length                   7 to matrix element file.
 Write PRIMITIVE EXPONENTS                 from file      0 offset           0 length                  21 to matrix element file.
 Write CONTRACTION COEFFICIENTS            from file      0 offset           0 length                  21 to matrix element file.
 Write P(S=P) CONTRACTION COEFFICIENTS     from file      0 offset           0 length                  21 to matrix element file.
 Write COORDINATES OF EACH SHELL           from file      0 offset           0 length                  21 to matrix element file.
 Write BONDS PER ATOM                      from file      0 offset           0 length                   3 to matrix element file.
 Write BONDED ATOMS                        from file      0 offset           0 length                   4 to matrix element file.
 Write BOND TYPES                          from file      0 offset           0 length                   4 to matrix element file.
 Write ONIOM CHARGE/MULT                   from file      0 offset           0 length                  32 to matrix element file.
 Write ONIOM ATOM LAYERS                   from file      0 offset           0 length                   3 to matrix element file.
 Write ONIOM ATOM MODIFIERS                from file      0 offset           0 length                   3 to matrix element file.
 Write ONIOM ATOM TYPES                    from file      0 offset           0 length                   3 to matrix element file.
 Write ONIOM LINK ATOMS                    from file      0 offset           0 length                   3 to matrix element file.
 Write ONIOM LINK CHARGES                  from file      0 offset           0 length                   3 to matrix element file.
 Write ONIOM LINK DISTANCES                from file      0 offset           0 length                  12 to matrix element file.
 Write SYMINF INTS                         from file      0 offset           0 length                  26 to matrix element file.
 Write ROTTR TO SO                         from file      0 offset           0 length                  12 to matrix element file.
 Write GAUSSIAN SCALARS                    from file    501 offset           0 to matrix element file.
 Write OPTIMIZATION FLAGS                  from file      0 offset           0 length                   3 to matrix element file.
 Write INTEGER ISO                         from file      0 offset           0 length                   3 to matrix element file.
 Write REAL ZEFFECTIVE                     from file      0 offset           0 length                   3 to matrix element file.
 Write REAL ZNUCLEAR                       from file      0 offset           0 length                   3 to matrix element file.
 Write MULLIKEN CHARGES                    from file      0 offset           0 length                   3 to matrix element file.
 Write NUCLEAR GRADIENT                    from file  10584 offset           0 length                   9 to matrix element file.
 Array NUCLEAR FORCE CONSTANTS              on  file  10585 does not exist.
 Write ELECTRIC DIPOLE MOMENT              from file      0 offset           0 length                   3 to matrix element file.
 Write NON-ADIABATIC COUPLING              from file  10810 offset           0 length                   9 to matrix element file.
 Write FINITE EM FIELD                     from file  10521 offset           0 length                  35 to matrix element file.
 Write OVERLAP                             from file  10514 offset           0 length                 190 to matrix element file.
 Write CORE HAMILTONIAN ALPHA              from file  10515 offset           0 length                 190 to matrix element file.
 Write CORE HAMILTONIAN BETA               from file  10515 offset         190 length                 190 to matrix element file.
 Write KINETIC ENERGY                      from file  10516 offset           0 length                 190 to matrix element file.
 Write ORTHOGONAL BASIS                    from file  10685 offset           0 length                 361 to matrix element file.
 Write DIPOLE INTEGRALS                    from file  10518 offset           0 length                 570 to matrix element file.
 Array DIP VEL INTEGRALS                    on  file  10572 does not exist.
 Array R X DEL INTEGRALS                    on  file  10572 does not exist.
 Write ALPHA ORBITAL ENERGIES              from file      0 offset           0 length                  19 to matrix element file.
 Write ALPHA MO COEFFICIENTS               from file  10524 offset           0 length                 361 to matrix element file.
 Write ALPHA DENSITY MATRIX                from file      0 offset           0 length                 190 to matrix element file.
 Write ALPHA FOCK MATRIX                   from file  10536 offset           0 length                 190 to matrix element file.
 Write ENERGY-WEIGHTED DENSITY             from file  10571 offset           0 length                 190 to matrix element file.
 Write ALPHA SCF DENSITY MATRIX            from file      0 offset           0 length                 190 to matrix element file.
 No 2e integrals to process.
 Perform NBO analysis...executing G16NBO...

 *********************************** NBO 7.0 ***********************************
             N A T U R A L   A T O M I C   O R B I T A L   A N D
          N A T U R A L   B O N D   O R B I T A L   A N A L Y S I S
 **************************** Espen Tangen (S101595) ***************************
  (c) Copyright 1996-2021 Board of Regents of the University of Wisconsin System
      on behalf of the Theoretical Chemistry Institute.  All rights reserved.

          Cite this program [NBO 7.0.10 (8-Feb-2021)] as:

          NBO 7.0.  E. D. Glendening, J. K. Badenhoop, A. E. Reed,
          J. E. Carpenter, J. A. Bohmann, C. M. Morales, P. Karafiloglou,
          C. R. Landis, and F. Weinhold, Theoretical Chemistry Institute,
          University of Wisconsin, Madison, WI (2018)

       /NPA    / : Natural Population Analysis
       /AOPNAO / : Print the AO to PNAO transformation
       /AONAO  / : Print the AO to NAO transformation
       /AOMO   / : Print the MOs in the AO basis
       /BOAO   / : Print the AO bond-order matrix
       /DMAO   / : Print the AO density matrix
       /DMPNAO / : Print the PNAO density matrix
       /DMNAO  / : Print the NAO density matrix
       /DMMO   / : Print the MO density matrix
       /SAO    / : Print the AO overlap matrix
       /SPNAO  / : Print the PNAO overlap matrix
       /DETAIL / : Write details of NBO search
       /ARCHIVE/ : Write the archive file to lfn47
       /AOINFO / : Write AO information to lfn31
       /FILE   / : Set to mol54.gen*

 Filename set to mol54.gen1

 Job title: mol54-NBO


 MOs in the AO basis:

           AO          1       2       3       4       5       6       7       8
      ------------ ------- ------- ------- ------- ------- ------- ------- -------
   1.  S 1 (s)      0.9942 -0.0002  0.0000 -0.3674  0.0000  0.0000 -0.0070  0.0533
   2.  S 1 (s)      0.0171  0.0005  0.0000  1.0471  0.0000  0.0000  0.0203 -0.1856
   3.  S 1 (px)     0.0000  0.0000  0.0000  0.0000  0.0000  0.9858  0.0000  0.0000
   4.  S 1 (py)     0.0000  0.0000  0.0010  0.0000  0.9832  0.0000  0.0000  0.0000
   5.  S 1 (pz)    -0.0002 -0.0006  0.0000 -0.0163  0.0000  0.0000  0.9850  0.0571
   6.  S 1 (s)     -0.0025 -0.0067  0.0000  0.0520  0.0000  0.0000 -0.0070  0.4413
   7.  S 1 (px)     0.0000  0.0000  0.0000  0.0000  0.0000  0.0508  0.0000  0.0000
   8.  S 1 (py)     0.0000  0.0000 -0.0068  0.0000  0.0628  0.0000  0.0000  0.0000
   9.  S 1 (pz)     0.0004  0.0041  0.0000 -0.0071  0.0000  0.0000  0.0541 -0.1207
  10.  O 2 (s)     -0.0001  0.7031  0.7032  0.0008  0.0006  0.0000 -0.0004 -0.1399
  11.  O 2 (s)      0.0006  0.0172  0.0171 -0.0091 -0.0122  0.0000  0.0073  0.4858
  12.  O 2 (px)     0.0000  0.0000  0.0000  0.0000  0.0000 -0.0039  0.0000  0.0000
  13.  O 2 (py)    -0.0003 -0.0028 -0.0024  0.0040  0.0033  0.0000 -0.0046 -0.1078
  14.  O 2 (pz)     0.0001  0.0012  0.0017 -0.0016 -0.0049  0.0000 -0.0014  0.0564
  15.  O 3 (s)     -0.0001  0.7031 -0.7032  0.0008 -0.0006  0.0000 -0.0004 -0.1399
  16.  O 3 (s)      0.0006  0.0172 -0.0171 -0.0091  0.0122  0.0000  0.0073  0.4858
  17.  O 3 (px)     0.0000  0.0000  0.0000  0.0000  0.0000 -0.0039  0.0000  0.0000
  18.  O 3 (py)     0.0003  0.0028 -0.0024 -0.0040  0.0033  0.0000  0.0046  0.1078
  19.  O 3 (pz)     0.0001  0.0012 -0.0017 -0.0016  0.0049  0.0000 -0.0014  0.0564

           AO          9      10      11      12      13      14      15      16
      ------------ ------- ------- ------- ------- ------- ------- ------- -------
   1.  S 1 (s)      0.0000  0.0732  0.0037  0.0000  0.0000  0.0000 -0.0215  0.0000
   2.  S 1 (s)      0.0000 -0.2442 -0.0109  0.0000  0.0000  0.0000  0.0659  0.0000
   3.  S 1 (px)     0.0000  0.0000  0.0000 -0.2329  0.0000  0.0000  0.0000  0.0000
   4.  S 1 (py)    -0.1102  0.0000  0.0000  0.0000 -0.1732  0.0538  0.0000  0.0000
   5.  S 1 (pz)     0.0000 -0.0582 -0.2017  0.0000  0.0000  0.0000  0.1443  0.0000
   6.  S 1 (s)      0.0000  0.8286  0.0601  0.0000  0.0000  0.0000 -0.3305  0.0000
   7.  S 1 (px)     0.0000  0.0000  0.0000  0.7408  0.0000  0.0000  0.0000  0.0000
   8.  S 1 (py)     0.2311  0.0000  0.0000  0.0000  0.5192 -0.1490  0.0000  0.0000
   9.  S 1 (pz)     0.0000  0.1703  0.6355  0.0000  0.0000  0.0000 -0.4631  0.0000
  10.  O 2 (s)     -0.1687  0.1157 -0.0463  0.0000  0.0742 -0.0231  0.0099  0.0000
  11.  O 2 (s)      0.6213 -0.5272  0.2333  0.0000 -0.3730  0.1148 -0.0467  0.0000
  12.  O 2 (px)     0.0000  0.0000  0.0000  0.4000  0.0000  0.0000  0.0000  0.7079
  13.  O 2 (py)    -0.0936 -0.1321  0.3750  0.0000 -0.2064  0.5537 -0.0207  0.0000
  14.  O 2 (pz)     0.0622  0.1242  0.2597  0.0000  0.4398  0.4233  0.6431  0.0000
  15.  O 3 (s)      0.1687  0.1157 -0.0463  0.0000 -0.0742  0.0231  0.0099  0.0000
  16.  O 3 (s)     -0.6213 -0.5272  0.2333  0.0000  0.3730 -0.1148 -0.0467  0.0000
  17.  O 3 (px)     0.0000  0.0000  0.0000  0.4000  0.0000  0.0000  0.0000 -0.7079
  18.  O 3 (py)    -0.0936  0.1321 -0.3750  0.0000 -0.2064  0.5537  0.0207  0.0000
  19.  O 3 (pz)    -0.0622  0.1242  0.2597  0.0000 -0.4398 -0.4233  0.6431  0.0000

           AO         17      18      19
      ------------ ------- ------- -------
   1.  S 1 (s)      0.0000 -0.0435  0.0000
   2.  S 1 (s)      0.0000  0.1292  0.0000
   3.  S 1 (px)    -0.2169  0.0000  0.0000
   4.  S 1 (py)     0.0000  0.0000 -0.2869
   5.  S 1 (pz)     0.0000 -0.2042  0.0000
   6.  S 1 (s)      0.0000 -0.7417  0.0000
   7.  S 1 (px)     0.7525  0.0000  0.0000
   8.  S 1 (py)     0.0000  0.0000  1.1699
   9.  S 1 (pz)     0.0000  0.8136  0.0000
  10.  O 2 (s)      0.0000 -0.0600  0.0634
  11.  O 2 (s)      0.0000  0.3852 -0.4284
  12.  O 2 (px)    -0.6005  0.0000  0.0000
  13.  O 2 (py)     0.0000 -0.6746  0.4667
  14.  O 2 (pz)     0.0000  0.1461 -0.4324
  15.  O 3 (s)      0.0000 -0.0600 -0.0634
  16.  O 3 (s)      0.0000  0.3852  0.4284
  17.  O 3 (px)    -0.6005  0.0000  0.0000
  18.  O 3 (py)     0.0000  0.6746  0.4667
  19.  O 3 (pz)     0.0000  0.1461  0.4324


 AO overlap matrix:

           AO          1       2       3       4       5       6       7       8
      ------------ ------- ------- ------- ------- ------- ------- ------- -------
   1.  S 1 (s)      1.0000  0.3355  0.0000  0.0000  0.0000  0.0143  0.0000  0.0000
   2.  S 1 (s)      0.3355  1.0000  0.0000  0.0000  0.0000  0.2431  0.0000  0.0000
   3.  S 1 (px)     0.0000  0.0000  1.0000  0.0000  0.0000  0.0000  0.2574  0.0000
   4.  S 1 (py)     0.0000  0.0000  0.0000  1.0000  0.0000  0.0000  0.0000  0.2574
   5.  S 1 (pz)     0.0000  0.0000  0.0000  0.0000  1.0000  0.0000  0.0000  0.0000
   6.  S 1 (s)      0.0143  0.2431  0.0000  0.0000  0.0000  1.0000  0.0000  0.0000
   7.  S 1 (px)     0.0000  0.0000  0.2574  0.0000  0.0000  0.0000  1.0000  0.0000
   8.  S 1 (py)     0.0000  0.0000  0.0000  0.2574  0.0000  0.0000  0.0000  1.0000
   9.  S 1 (pz)     0.0000  0.0000  0.0000  0.0000  0.2574  0.0000  0.0000  0.0000
  10.  O 2 (s)      0.0000  0.0000  0.0000  0.0000  0.0000  0.0251  0.0000  0.0363
  11.  O 2 (s)      0.0029  0.0255  0.0000  0.0170 -0.0098  0.2710  0.0000  0.3210
  12.  O 2 (px)     0.0000  0.0000  0.0065  0.0000  0.0000  0.0000  0.1414  0.0000
  13.  O 2 (py)    -0.0048 -0.0396  0.0000 -0.0219  0.0165 -0.2179  0.0000 -0.1924
  14.  O 2 (pz)     0.0028  0.0230  0.0000  0.0165 -0.0030  0.1263  0.0000  0.1935
  15.  O 3 (s)      0.0000  0.0000  0.0000  0.0000  0.0000  0.0251  0.0000 -0.0363
  16.  O 3 (s)      0.0029  0.0255  0.0000 -0.0170 -0.0098  0.2710  0.0000 -0.3210
  17.  O 3 (px)     0.0000  0.0000  0.0065  0.0000  0.0000  0.0000  0.1414  0.0000
  18.  O 3 (py)     0.0048  0.0396  0.0000 -0.0219 -0.0165  0.2179  0.0000 -0.1924
  19.  O 3 (pz)     0.0028  0.0230  0.0000 -0.0165 -0.0030  0.1263  0.0000 -0.1935

           AO          9      10      11      12      13      14      15      16
      ------------ ------- ------- ------- ------- ------- ------- ------- -------
   1.  S 1 (s)      0.0000  0.0000  0.0029  0.0000 -0.0048  0.0028  0.0000  0.0029
   2.  S 1 (s)      0.0000  0.0000  0.0255  0.0000 -0.0396  0.0230  0.0000  0.0255
   3.  S 1 (px)     0.0000  0.0000  0.0000  0.0065  0.0000  0.0000  0.0000  0.0000
   4.  S 1 (py)     0.0000  0.0000  0.0170  0.0000 -0.0219  0.0165  0.0000 -0.0170
   5.  S 1 (pz)     0.2574  0.0000 -0.0098  0.0000  0.0165 -0.0030  0.0000 -0.0098
   6.  S 1 (s)      0.0000  0.0251  0.2710  0.0000 -0.2179  0.1263  0.0251  0.2710
   7.  S 1 (px)     0.0000  0.0000  0.0000  0.1414  0.0000  0.0000  0.0000  0.0000
   8.  S 1 (py)     0.0000  0.0363  0.3210  0.0000 -0.1924  0.1935 -0.0363 -0.3210
   9.  S 1 (pz)     1.0000 -0.0210 -0.1861  0.0000  0.1935  0.0292 -0.0210 -0.1861
  10.  O 2 (s)     -0.0210  1.0000  0.2367  0.0000  0.0000  0.0000  0.0000  0.0000
  11.  O 2 (s)     -0.1861  0.2367  1.0000  0.0000  0.0000  0.0000  0.0000  0.0064
  12.  O 2 (px)     0.0000  0.0000  0.0000  1.0000  0.0000  0.0000  0.0000  0.0000
  13.  O 2 (py)     0.1935  0.0000  0.0000  0.0000  1.0000  0.0000 -0.0001 -0.0115
  14.  O 2 (pz)     0.0292  0.0000  0.0000  0.0000  0.0000  1.0000  0.0000  0.0000
  15.  O 3 (s)     -0.0210  0.0000  0.0000  0.0000 -0.0001  0.0000  1.0000  0.2367
  16.  O 3 (s)     -0.1861  0.0000  0.0064  0.0000 -0.0115  0.0000  0.2367  1.0000
  17.  O 3 (px)     0.0000  0.0000  0.0000  0.0022  0.0000  0.0000  0.0000  0.0000
  18.  O 3 (py)    -0.1935  0.0001  0.0115  0.0000 -0.0195  0.0000  0.0000  0.0000
  19.  O 3 (pz)     0.0292  0.0000  0.0000  0.0000  0.0000  0.0022  0.0000  0.0000

           AO         17      18      19
      ------------ ------- ------- -------
   1.  S 1 (s)      0.0000  0.0048  0.0028
   2.  S 1 (s)      0.0000  0.0396  0.0230
   3.  S 1 (px)     0.0065  0.0000  0.0000
   4.  S 1 (py)     0.0000 -0.0219 -0.0165
   5.  S 1 (pz)     0.0000 -0.0165 -0.0030
   6.  S 1 (s)      0.0000  0.2179  0.1263
   7.  S 1 (px)     0.1414  0.0000  0.0000
   8.  S 1 (py)     0.0000 -0.1924 -0.1935
   9.  S 1 (pz)     0.0000 -0.1935  0.0292
  10.  O 2 (s)      0.0000  0.0001  0.0000
  11.  O 2 (s)      0.0000  0.0115  0.0000
  12.  O 2 (px)     0.0022  0.0000  0.0000
  13.  O 2 (py)     0.0000 -0.0195  0.0000
  14.  O 2 (pz)     0.0000  0.0000  0.0022
  15.  O 3 (s)      0.0000  0.0000  0.0000
  16.  O 3 (s)      0.0000  0.0000  0.0000
  17.  O 3 (px)     1.0000  0.0000  0.0000
  18.  O 3 (py)     0.0000  1.0000  0.0000
  19.  O 3 (pz)     0.0000  0.0000  1.0000


 AO bond-order matrix:

           AO          1       2       3       4       5       6       7       8
      ------------ ------- ------- ------- ------- ------- ------- ------- -------
   1.  S 1 (s)      2.2642 -0.7942  0.0000  0.0000 -0.0123  0.1398  0.0000  0.0000
   2.  S 1 (s)     -0.7942  2.3914  0.0000  0.0000  0.0366 -0.5047  0.0000  0.0000
   3.  S 1 (px)     0.0000  0.0000  2.0521  0.0000  0.0000  0.0000 -0.2448  0.0000
   4.  S 1 (py)     0.0000  0.0000  0.0000  2.0235  0.0000  0.0000  0.0000 -0.1233
   5.  S 1 (pz)    -0.0123  0.0366  0.0000  0.0000  2.0774 -0.1812  0.0000  0.0000
   6.  S 1 (s)      0.1398 -0.5047  0.0000  0.0000 -0.1812  1.9937  0.0000  0.0000
   7.  S 1 (px)     0.0000  0.0000 -0.2448  0.0000  0.0000  0.0000  1.1027  0.0000
   8.  S 1 (py)     0.0000  0.0000  0.0000 -0.1233  0.0000  0.0000  0.0000  0.6983
   9.  S 1 (pz)     0.0418 -0.1259  0.0000  0.0000 -0.3169  0.5566  0.0000  0.0000
  10.  O 2 (s)      0.0003  0.0000  0.0000  0.0116 -0.0096  0.0468  0.0000 -0.0036
  11.  O 2 (s)     -0.0139  0.0472  0.0000 -0.0194  0.0238 -0.3873  0.0000 -0.1362
  12.  O 2 (px)     0.0000  0.0000 -0.1939  0.0000  0.0000  0.0000  0.5922  0.0000
  13.  O 2 (py)    -0.0307  0.1018  0.0000  0.1581 -0.1633 -0.2547  0.0000 -0.4222
  14.  O 2 (pz)     0.0000 -0.0058  0.0000 -0.1302  0.0701 -0.1385  0.0000  0.3587
  15.  O 3 (s)      0.0003  0.0000  0.0000 -0.0116 -0.0096  0.0468  0.0000  0.0036
  16.  O 3 (s)     -0.0139  0.0472  0.0000  0.0194  0.0238 -0.3873  0.0000  0.1362
  17.  O 3 (px)     0.0000  0.0000 -0.1939  0.0000  0.0000  0.0000  0.5922  0.0000
  18.  O 3 (py)     0.0307 -0.1018  0.0000  0.1581  0.1633  0.2547  0.0000 -0.4222
  19.  O 3 (pz)     0.0000 -0.0058  0.0000  0.1302  0.0701 -0.1385  0.0000 -0.3587

           AO          9      10      11      12      13      14      15      16
      ------------ ------- ------- ------- ------- ------- ------- ------- -------
   1.  S 1 (s)      0.0418  0.0003 -0.0139  0.0000 -0.0307  0.0000  0.0003 -0.0139
   2.  S 1 (s)     -0.1259  0.0000  0.0472  0.0000  0.1018 -0.0058  0.0000  0.0472
   3.  S 1 (px)     0.0000  0.0000  0.0000 -0.1939  0.0000  0.0000  0.0000  0.0000
   4.  S 1 (py)     0.0000  0.0116 -0.0194  0.0000  0.1581 -0.1302 -0.0116  0.0194
   5.  S 1 (pz)    -0.3169 -0.0096  0.0238  0.0000 -0.1633  0.0701 -0.0096  0.0238
   6.  S 1 (s)      0.5566  0.0468 -0.3873  0.0000 -0.2547 -0.1385  0.0468 -0.3873
   7.  S 1 (px)     0.0000  0.0000  0.0000  0.5922  0.0000  0.0000  0.0000  0.0000
   8.  S 1 (py)     0.0000 -0.0036 -0.1362  0.0000 -0.4222  0.3587  0.0036  0.1362
   9.  S 1 (pz)     1.3297  0.0108  0.0440  0.0000  0.4762 -0.2370  0.0108  0.0440
  10.  O 2 (s)      0.0108  2.1170 -0.5025  0.0000 -0.0674  0.0305  0.0013 -0.0100
  11.  O 2 (s)      0.0440 -0.5025  2.2195  0.0000  0.3759 -0.1684 -0.0100  0.0643
  12.  O 2 (px)     0.0000  0.0000  0.0000  1.3222  0.0000  0.0000  0.0000  0.0000
  13.  O 2 (py)     0.4762 -0.0674  0.3759  0.0000  1.0563  0.3987 -0.0116  0.0466
  14.  O 2 (pz)    -0.2370  0.0305 -0.1684  0.0000  0.3987  1.7521 -0.0238  0.1385
  15.  O 3 (s)      0.0108  0.0013 -0.0100  0.0000 -0.0116 -0.0238  2.1170 -0.5025
  16.  O 3 (s)      0.0440 -0.0100  0.0643  0.0000  0.0466  0.1385 -0.5025  2.2195
  17.  O 3 (px)     0.0000  0.0000  0.0000 -0.6823  0.0000  0.0000  0.0000  0.0000
  18.  O 3 (py)    -0.4762  0.0116 -0.0466  0.0000  0.3758  0.1524  0.0674 -0.3759
  19.  O 3 (pz)    -0.2370 -0.0238  0.1385  0.0000 -0.1524  0.2462  0.0305 -0.1684

           AO         17      18      19
      ------------ ------- ------- -------
   1.  S 1 (s)      0.0000  0.0307  0.0000
   2.  S 1 (s)      0.0000 -0.1018 -0.0058
   3.  S 1 (px)    -0.1939  0.0000  0.0000
   4.  S 1 (py)     0.0000  0.1581  0.1302
   5.  S 1 (pz)     0.0000  0.1633  0.0701
   6.  S 1 (s)      0.0000  0.2547 -0.1385
   7.  S 1 (px)     0.5922  0.0000  0.0000
   8.  S 1 (py)     0.0000 -0.4222 -0.3587
   9.  S 1 (pz)     0.0000 -0.4762 -0.2370
  10.  O 2 (s)      0.0000  0.0116 -0.0238
  11.  O 2 (s)      0.0000 -0.0466  0.1385
  12.  O 2 (px)    -0.6823  0.0000  0.0000
  13.  O 2 (py)     0.0000  0.3758 -0.1524
  14.  O 2 (pz)     0.0000  0.1524  0.2462
  15.  O 3 (s)      0.0000  0.0674  0.0305
  16.  O 3 (s)      0.0000 -0.3759 -0.1684
  17.  O 3 (px)     1.3222  0.0000  0.0000
  18.  O 3 (py)     0.0000  1.0563 -0.3987
  19.  O 3 (pz)     0.0000 -0.3987  1.7521


 AO density matrix:

           AO          1       2       3       4       5       6       7       8
      ------------ ------- ------- ------- ------- ------- ------- ------- -------
   1.  S 1 (s)      2.0000  0.6711  0.0000  0.0000 -0.0001  0.0281  0.0000  0.0000
   2.  S 1 (s)      0.6711  1.9996  0.0000  0.0000  0.0007  0.4911  0.0000  0.0000
   3.  S 1 (px)     0.0000  0.0000  1.9981  0.0000  0.0000  0.0000  0.5475  0.0000
   4.  S 1 (py)     0.0000  0.0000  0.0000  1.9975  0.0000  0.0000  0.0000  0.5483
   5.  S 1 (pz)    -0.0001  0.0007  0.0000  0.0000  1.9987 -0.0089  0.0000  0.0000
   6.  S 1 (s)      0.0281  0.4911  0.0000  0.0000 -0.0089  1.9393  0.0000  0.0000
   7.  S 1 (px)     0.0000  0.0000  0.5475  0.0000  0.0000  0.0000  1.4449  0.0000
   8.  S 1 (py)     0.0000  0.0000  0.0000  0.5483  0.0000  0.0000  0.0000  1.5419
   9.  S 1 (pz)     0.0008 -0.0104  0.0000  0.0000  0.5335  0.1281  0.0000  0.0000
  10.  O 2 (s)      0.0000  0.0001  0.0000  0.0003 -0.0002  0.0486  0.0000  0.0682
  11.  O 2 (s)      0.0058  0.0500  0.0000  0.0315 -0.0180  0.5539  0.0000  0.6752
  12.  O 2 (px)     0.0000  0.0000 -0.0178  0.0000  0.0000  0.0000  0.8064  0.0000
  13.  O 2 (py)    -0.0105 -0.0685  0.0000 -0.0274  0.0135 -0.5687  0.0000 -0.6087
  14.  O 2 (pz)     0.0058  0.0437  0.0000  0.0183 -0.0019  0.2805  0.0000  0.5878
  15.  O 3 (s)      0.0000  0.0001  0.0000 -0.0003 -0.0002  0.0486  0.0000 -0.0682
  16.  O 3 (s)      0.0058  0.0500  0.0000 -0.0315 -0.0180  0.5539  0.0000 -0.6752
  17.  O 3 (px)     0.0000  0.0000 -0.0178  0.0000  0.0000  0.0000  0.8064  0.0000
  18.  O 3 (py)     0.0105  0.0685  0.0000 -0.0274 -0.0135  0.5687  0.0000 -0.6087
  19.  O 3 (pz)     0.0058  0.0437  0.0000 -0.0183 -0.0019  0.2805  0.0000 -0.5878

           AO          9      10      11      12      13      14      15      16
      ------------ ------- ------- ------- ------- ------- ------- ------- -------
   1.  S 1 (s)      0.0008  0.0000  0.0058  0.0000 -0.0105  0.0058  0.0000  0.0058
   2.  S 1 (s)     -0.0104  0.0001  0.0500  0.0000 -0.0685  0.0437  0.0001  0.0500
   3.  S 1 (px)     0.0000  0.0000  0.0000 -0.0178  0.0000  0.0000  0.0000  0.0000
   4.  S 1 (py)     0.0000  0.0003  0.0315  0.0000 -0.0274  0.0183 -0.0003 -0.0315
   5.  S 1 (pz)     0.5335 -0.0002 -0.0180  0.0000  0.0135 -0.0019 -0.0002 -0.0180
   6.  S 1 (s)      0.1281  0.0486  0.5539  0.0000 -0.5687  0.2805  0.0486  0.5539
   7.  S 1 (px)     0.0000  0.0000  0.0000  0.8064  0.0000  0.0000  0.0000  0.0000
   8.  S 1 (py)     0.0000  0.0682  0.6752  0.0000 -0.6087  0.5878 -0.0682 -0.6752
   9.  S 1 (pz)     1.7296 -0.0388 -0.3971  0.0000  0.6674 -0.0003 -0.0388 -0.3971
  10.  O 2 (s)     -0.0388  1.9999  0.4740  0.0000 -0.0055  0.0026  0.0000  0.0000
  11.  O 2 (s)     -0.3971  0.4740  1.9953  0.0000  0.0421 -0.0200  0.0000  0.0128
  12.  O 2 (px)     0.0000  0.0000  0.0000  1.5062  0.0000  0.0000  0.0000  0.0000
  13.  O 2 (py)     0.6674 -0.0055  0.0421  0.0000  1.5998  0.1592 -0.0015 -0.0133
  14.  O 2 (pz)    -0.0003  0.0026 -0.0200  0.0000  0.1592  1.8991 -0.0012  0.0091
  15.  O 3 (s)     -0.0388  0.0000  0.0000  0.0000 -0.0015 -0.0012  1.9999  0.4740
  16.  O 3 (s)     -0.3971  0.0000  0.0128  0.0000 -0.0133  0.0091  0.4740  1.9953
  17.  O 3 (px)     0.0000  0.0000  0.0000 -0.4894  0.0000  0.0000  0.0000  0.0000
  18.  O 3 (py)    -0.6674  0.0015  0.0133  0.0000  0.1425  0.0371  0.0055 -0.0421
  19.  O 3 (pz)    -0.0003 -0.0012  0.0091  0.0000 -0.0371  0.0797  0.0026 -0.0200

           AO         17      18      19
      ------------ ------- ------- -------
   1.  S 1 (s)      0.0000  0.0105  0.0058
   2.  S 1 (s)      0.0000  0.0685  0.0437
   3.  S 1 (px)    -0.0178  0.0000  0.0000
   4.  S 1 (py)     0.0000 -0.0274 -0.0183
   5.  S 1 (pz)     0.0000 -0.0135 -0.0019
   6.  S 1 (s)      0.0000  0.5687  0.2805
   7.  S 1 (px)     0.8064  0.0000  0.0000
   8.  S 1 (py)     0.0000 -0.6087 -0.5878
   9.  S 1 (pz)     0.0000 -0.6674 -0.0003
  10.  O 2 (s)      0.0000  0.0015 -0.0012
  11.  O 2 (s)      0.0000  0.0133  0.0091
  12.  O 2 (px)    -0.4894  0.0000  0.0000
  13.  O 2 (py)     0.0000  0.1425 -0.0371
  14.  O 2 (pz)     0.0000  0.0371  0.0797
  15.  O 3 (s)      0.0000  0.0055  0.0026
  16.  O 3 (s)      0.0000 -0.0421 -0.0200
  17.  O 3 (px)     1.5062  0.0000  0.0000
  18.  O 3 (py)     0.0000  1.5998 -0.1592
  19.  O 3 (pz)     0.0000 -0.1592  1.8991


 MO density matrix:

      MO     1       2       3       4       5       6       7       8       9
     ---- ------  ------  ------  ------  ------  ------  ------  ------  ------
   1.     2.0000  0.0000  0.0000  0.0000  0.0000  0.0000  0.0000  0.0000  0.0000
   2.     0.0000  2.0000  0.0000  0.0000  0.0000  0.0000  0.0000  0.0000  0.0000
   3.     0.0000  0.0000  2.0000  0.0000  0.0000  0.0000  0.0000  0.0000  0.0000
   4.     0.0000  0.0000  0.0000  2.0000  0.0000  0.0000  0.0000  0.0000  0.0000
   5.     0.0000  0.0000  0.0000  0.0000  2.0000  0.0000  0.0000  0.0000  0.0000
   6.     0.0000  0.0000  0.0000  0.0000  0.0000  2.0000  0.0000  0.0000  0.0000
   7.     0.0000  0.0000  0.0000  0.0000  0.0000  0.0000  2.0000  0.0000  0.0000
   8.     0.0000  0.0000  0.0000  0.0000  0.0000  0.0000  0.0000  2.0000  0.0000
   9.     0.0000  0.0000  0.0000  0.0000  0.0000  0.0000  0.0000  0.0000  2.0000
  10.     0.0000  0.0000  0.0000  0.0000  0.0000  0.0000  0.0000  0.0000  0.0000
  11.     0.0000  0.0000  0.0000  0.0000  0.0000  0.0000  0.0000  0.0000  0.0000
  12.     0.0000  0.0000  0.0000  0.0000  0.0000  0.0000  0.0000  0.0000  0.0000
  13.     0.0000  0.0000  0.0000  0.0000  0.0000  0.0000  0.0000  0.0000  0.0000
  14.     0.0000  0.0000  0.0000  0.0000  0.0000  0.0000  0.0000  0.0000  0.0000
  15.     0.0000  0.0000  0.0000  0.0000  0.0000  0.0000  0.0000  0.0000  0.0000
  16.     0.0000  0.0000  0.0000  0.0000  0.0000  0.0000  0.0000  0.0000  0.0000
  17.     0.0000  0.0000  0.0000  0.0000  0.0000  0.0000  0.0000  0.0000  0.0000
  18.     0.0000  0.0000  0.0000  0.0000  0.0000  0.0000  0.0000  0.0000  0.0000
  19.     0.0000  0.0000  0.0000  0.0000  0.0000  0.0000  0.0000  0.0000  0.0000

      MO    10      11      12      13      14      15      16      17      18
     ---- ------  ------  ------  ------  ------  ------  ------  ------  ------
   1.     0.0000  0.0000  0.0000  0.0000  0.0000  0.0000  0.0000  0.0000  0.0000
   2.     0.0000  0.0000  0.0000  0.0000  0.0000  0.0000  0.0000  0.0000  0.0000
   3.     0.0000  0.0000  0.0000  0.0000  0.0000  0.0000  0.0000  0.0000  0.0000
   4.     0.0000  0.0000  0.0000  0.0000  0.0000  0.0000  0.0000  0.0000  0.0000
   5.     0.0000  0.0000  0.0000  0.0000  0.0000  0.0000  0.0000  0.0000  0.0000
   6.     0.0000  0.0000  0.0000  0.0000  0.0000  0.0000  0.0000  0.0000  0.0000
   7.     0.0000  0.0000  0.0000  0.0000  0.0000  0.0000  0.0000  0.0000  0.0000
   8.     0.0000  0.0000  0.0000  0.0000  0.0000  0.0000  0.0000  0.0000  0.0000
   9.     0.0000  0.0000  0.0000  0.0000  0.0000  0.0000  0.0000  0.0000  0.0000
  10.     2.0000  0.0000  0.0000  0.0000  0.0000  0.0000  0.0000  0.0000  0.0000
  11.     0.0000  2.0000  0.0000  0.0000  0.0000  0.0000  0.0000  0.0000  0.0000
  12.     0.0000  0.0000  2.0000  0.0000  0.0000  0.0000  0.0000  0.0000  0.0000
  13.     0.0000  0.0000  0.0000  2.0000  0.0000  0.0000  0.0000  0.0000  0.0000
  14.     0.0000  0.0000  0.0000  0.0000  2.0000  0.0000  0.0000  0.0000  0.0000
  15.     0.0000  0.0000  0.0000  0.0000  0.0000  2.0000  0.0000  0.0000  0.0000
  16.     0.0000  0.0000  0.0000  0.0000  0.0000  0.0000  2.0000  0.0000  0.0000
  17.     0.0000  0.0000  0.0000  0.0000  0.0000  0.0000  0.0000  0.0000  0.0000
  18.     0.0000  0.0000  0.0000  0.0000  0.0000  0.0000  0.0000  0.0000  0.0000
  19.     0.0000  0.0000  0.0000  0.0000  0.0000  0.0000  0.0000  0.0000  0.0000

      MO    19
     ---- ------
   1.     0.0000
   2.     0.0000
   3.     0.0000
   4.     0.0000
   5.     0.0000
   6.     0.0000
   7.     0.0000
   8.     0.0000
   9.     0.0000
  10.     0.0000
  11.     0.0000
  12.     0.0000
  13.     0.0000
  14.     0.0000
  15.     0.0000
  16.     0.0000
  17.     0.0000
  18.     0.0000
  19.     0.0000


 NATURAL POPULATIONS:  Natural atomic orbital occupancies

  NAO Atom No lang   Type(AO)    Occupancy      Energy
 -------------------------------------------------------
   1    S  1  s      Cor( 1s)     2.00000     -89.79496
   2    S  1  s      Cor( 2s)     2.00000     -10.13877
   3    S  1  s      Val( 3s)     1.72343      -0.77742
   4    S  1  px     Cor( 2p)     1.99997      -6.54062
   5    S  1  px     Val( 3p)     1.18059      -0.24983
   6    S  1  py     Cor( 2p)     1.99998      -6.54428
   7    S  1  py     Val( 3p)     0.86637      -0.01446
   8    S  1  pz     Cor( 2p)     2.00000      -6.53973
   9    S  1  pz     Val( 3p)     1.38923      -0.23316

  10    O  2  s      Cor( 1s)     2.00000     -19.99848
  11    O  2  s      Val( 2s)     1.90205      -1.21789
  12    O  2  px     Val( 2p)     1.40972      -0.20037
  13    O  2  py     Val( 2p)     1.30349      -0.14246
  14    O  2  pz     Val( 2p)     1.80496      -0.31854

  15    O  3  s      Cor( 1s)     2.00000     -19.99848
  16    O  3  s      Val( 2s)     1.90205      -1.21789
  17    O  3  px     Val( 2p)     1.40972      -0.20037
  18    O  3  py     Val( 2p)     1.30349      -0.14246
  19    O  3  pz     Val( 2p)     1.80496      -0.31854


 Summary of Natural Population Analysis:

                                     Natural Population
             Natural    ---------------------------------------------
  Atom No    Charge        Core      Valence    Rydberg      Total
 --------------------------------------------------------------------
    S  1    0.84044      9.99995     5.15962    0.00000    15.15956
    O  2   -0.42022      2.00000     6.42022    0.00000     8.42022
    O  3   -0.42022      2.00000     6.42022    0.00000     8.42022
 ====================================================================
 * Total *  0.00000     13.99995    18.00005    0.00000    32.00000

                                 Natural Population
 ---------------------------------------------------------
   Core                      13.99995 ( 99.9996% of   14)
   Valence                   18.00005 (100.0003% of   18)
   Natural Minimal Basis     32.00000 (100.0000% of   32)
   Natural Rydberg Basis      0.00000 (  0.0000% of   32)
 ---------------------------------------------------------

    Atom No         Natural Electron Configuration
 ----------------------------------------------------------------------------
      S  1      [core]3s( 1.72)3p( 3.44)
      O  2      [core]2s( 1.90)2p( 4.52)
      O  3      [core]2s( 1.90)2p( 4.52)


 PNAOs in the AO basis:

           AO          1       2       3       4       5       6       7       8
      ------------ ------- ------- ------- ------- ------- ------- ------- -------
   1.  S 1 (s)      0.9417 -0.4830  0.1140  0.0000  0.0000  0.0000  0.0000  0.0000
   2.  S 1 (s)      0.1451  1.0245 -0.3650  0.0000  0.0000  0.0000  0.0000  0.0000
   3.  S 1 (px)     0.0000  0.0000  0.0000  0.9813 -0.3287  0.0000  0.0000  0.0000
   4.  S 1 (py)     0.0000  0.0000  0.0000  0.0000  0.0000  0.9813 -0.3287  0.0000
   5.  S 1 (pz)     0.0000  0.0000  0.0000  0.0000  0.0000  0.0000  0.0000  0.9813
   6.  S 1 (s)      0.0056  0.0861  1.0301  0.0000  0.0000  0.0000  0.0000  0.0000
   7.  S 1 (px)     0.0000  0.0000  0.0000  0.0651  1.0328  0.0000  0.0000  0.0000
   8.  S 1 (py)     0.0000  0.0000  0.0000  0.0000  0.0000  0.0651  1.0328  0.0000
   9.  S 1 (pz)     0.0000  0.0000  0.0000  0.0000  0.0000  0.0000  0.0000  0.0651
  10.  O 2 (s)      0.0000  0.0000  0.0000  0.0000  0.0000  0.0000  0.0000  0.0000
  11.  O 2 (s)      0.0000  0.0000  0.0000  0.0000  0.0000  0.0000  0.0000  0.0000
  12.  O 2 (px)     0.0000  0.0000  0.0000  0.0000  0.0000  0.0000  0.0000  0.0000
  13.  O 2 (py)     0.0000  0.0000  0.0000  0.0000  0.0000  0.0000  0.0000  0.0000
  14.  O 2 (pz)     0.0000  0.0000  0.0000  0.0000  0.0000  0.0000  0.0000  0.0000
  15.  O 3 (s)      0.0000  0.0000  0.0000  0.0000  0.0000  0.0000  0.0000  0.0000
  16.  O 3 (s)      0.0000  0.0000  0.0000  0.0000  0.0000  0.0000  0.0000  0.0000
  17.  O 3 (px)     0.0000  0.0000  0.0000  0.0000  0.0000  0.0000  0.0000  0.0000
  18.  O 3 (py)     0.0000  0.0000  0.0000  0.0000  0.0000  0.0000  0.0000  0.0000
  19.  O 3 (pz)     0.0000  0.0000  0.0000  0.0000  0.0000  0.0000  0.0000  0.0000

           AO          9      10      11      12      13      14      15      16
      ------------ ------- ------- ------- ------- ------- ------- ------- -------
   1.  S 1 (s)      0.0000  0.0000  0.0000  0.0000  0.0000  0.0000  0.0000  0.0000
   2.  S 1 (s)      0.0000  0.0000  0.0000  0.0000  0.0000  0.0000  0.0000  0.0000
   3.  S 1 (px)     0.0000  0.0000  0.0000  0.0000  0.0000  0.0000  0.0000  0.0000
   4.  S 1 (py)     0.0000  0.0000  0.0000  0.0000  0.0000  0.0000  0.0000  0.0000
   5.  S 1 (pz)    -0.3287  0.0000  0.0000  0.0000  0.0000  0.0000  0.0000  0.0000
   6.  S 1 (s)      0.0000  0.0000  0.0000  0.0000  0.0000  0.0000  0.0000  0.0000
   7.  S 1 (px)     0.0000  0.0000  0.0000  0.0000  0.0000  0.0000  0.0000  0.0000
   8.  S 1 (py)     0.0000  0.0000  0.0000  0.0000  0.0000  0.0000  0.0000  0.0000
   9.  S 1 (pz)     1.0328  0.0000  0.0000  0.0000  0.0000  0.0000  0.0000  0.0000
  10.  O 2 (s)      0.0000  0.9630 -0.3633  0.0000  0.0000  0.0000  0.0000  0.0000
  11.  O 2 (s)      0.0000  0.1251  1.0216  0.0000  0.0000  0.0000  0.0000  0.0000
  12.  O 2 (px)     0.0000  0.0000  0.0000  1.0000  0.0000  0.0000  0.0000  0.0000
  13.  O 2 (py)     0.0000  0.0000  0.0000  0.0000  1.0000  0.0000  0.0000  0.0000
  14.  O 2 (pz)     0.0000  0.0000  0.0000  0.0000  0.0000  1.0000  0.0000  0.0000
  15.  O 3 (s)      0.0000  0.0000  0.0000  0.0000  0.0000  0.0000  0.9630 -0.3633
  16.  O 3 (s)      0.0000  0.0000  0.0000  0.0000  0.0000  0.0000  0.1251  1.0216
  17.  O 3 (px)     0.0000  0.0000  0.0000  0.0000  0.0000  0.0000  0.0000  0.0000
  18.  O 3 (py)     0.0000  0.0000  0.0000  0.0000  0.0000  0.0000  0.0000  0.0000
  19.  O 3 (pz)     0.0000  0.0000  0.0000  0.0000  0.0000  0.0000  0.0000  0.0000

           AO         17      18      19
      ------------ ------- ------- -------
   1.  S 1 (s)      0.0000  0.0000  0.0000
   2.  S 1 (s)      0.0000  0.0000  0.0000
   3.  S 1 (px)     0.0000  0.0000  0.0000
   4.  S 1 (py)     0.0000  0.0000  0.0000
   5.  S 1 (pz)     0.0000  0.0000  0.0000
   6.  S 1 (s)      0.0000  0.0000  0.0000
   7.  S 1 (px)     0.0000  0.0000  0.0000
   8.  S 1 (py)     0.0000  0.0000  0.0000
   9.  S 1 (pz)     0.0000  0.0000  0.0000
  10.  O 2 (s)      0.0000  0.0000  0.0000
  11.  O 2 (s)      0.0000  0.0000  0.0000
  12.  O 2 (px)     0.0000  0.0000  0.0000
  13.  O 2 (py)     0.0000  0.0000  0.0000
  14.  O 2 (pz)     0.0000  0.0000  0.0000
  15.  O 3 (s)      0.0000  0.0000  0.0000
  16.  O 3 (s)      0.0000  0.0000  0.0000
  17.  O 3 (px)     1.0000  0.0000  0.0000
  18.  O 3 (py)     0.0000  1.0000  0.0000
  19.  O 3 (pz)     0.0000  0.0000  1.0000


 PNAO overlap matrix:

           NAO         1       2       3       4       5       6       7       8
      ------------ ------- ------- ------- ------- ------- ------- ------- -------
   1.  S 1( 1s )    1.0000  0.0000  0.0000  0.0000  0.0000  0.0000  0.0000  0.0000
   2.  S 1( 2s )    0.0000  1.0000  0.0000  0.0000  0.0000  0.0000  0.0000  0.0000
   3.  S 1( 3s )    0.0000  0.0000  1.0000  0.0000  0.0000  0.0000  0.0000  0.0000
   4.  S 1( 2px)    0.0000  0.0000  0.0000  1.0000  0.0000  0.0000  0.0000  0.0000
   5.  S 1( 3px)    0.0000  0.0000  0.0000  0.0000  1.0000  0.0000  0.0000  0.0000
   6.  S 1( 2py)    0.0000  0.0000  0.0000  0.0000  0.0000  1.0000  0.0000  0.0000
   7.  S 1( 3py)    0.0000  0.0000  0.0000  0.0000  0.0000  0.0000  1.0000  0.0000
   8.  S 1( 2pz)    0.0000  0.0000  0.0000  0.0000  0.0000  0.0000  0.0000  1.0000
   9.  S 1( 3pz)    0.0000  0.0000  0.0000  0.0000  0.0000  0.0000  0.0000  0.0000
  10.  O 2( 1s )    0.0011  0.0081  0.0587  0.0000  0.0000  0.0070  0.0768 -0.0040
  11.  O 2( 2s )    0.0080  0.0483  0.2667  0.0000  0.0000  0.0375  0.3194 -0.0217
  12.  O 2( 2px)    0.0000  0.0000  0.0000  0.0156  0.1439  0.0000  0.0000  0.0000
  13.  O 2( 2py)   -0.0115 -0.0570 -0.2106  0.0000  0.0000 -0.0340 -0.1915  0.0288
  14.  O 2( 2pz)    0.0067  0.0331  0.1221  0.0000  0.0000  0.0288  0.1944 -0.0011
  15.  O 3( 1s )    0.0011  0.0081  0.0587  0.0000  0.0000 -0.0070 -0.0768 -0.0040
  16.  O 3( 2s )    0.0080  0.0483  0.2667  0.0000  0.0000 -0.0375 -0.3194 -0.0217
  17.  O 3( 2px)    0.0000  0.0000  0.0000  0.0156  0.1439  0.0000  0.0000  0.0000
  18.  O 3( 2py)    0.0115  0.0570  0.2106  0.0000  0.0000 -0.0340 -0.1915 -0.0288
  19.  O 3( 2pz)    0.0067  0.0331  0.1221  0.0000  0.0000 -0.0288 -0.1944 -0.0011

           NAO         9      10      11      12      13      14      15      16
      ------------ ------- ------- ------- ------- ------- ------- ------- -------
   1.  S 1( 1s )    0.0000  0.0011  0.0080  0.0000 -0.0115  0.0067  0.0011  0.0080
   2.  S 1( 2s )    0.0000  0.0081  0.0483  0.0000 -0.0570  0.0331  0.0081  0.0483
   3.  S 1( 3s )    0.0000  0.0587  0.2667  0.0000 -0.2106  0.1221  0.0587  0.2667
   4.  S 1( 2px)    0.0000  0.0000  0.0000  0.0156  0.0000  0.0000  0.0000  0.0000
   5.  S 1( 3px)    0.0000  0.0000  0.0000  0.1439  0.0000  0.0000  0.0000  0.0000
   6.  S 1( 2py)    0.0000  0.0070  0.0375  0.0000 -0.0340  0.0288 -0.0070 -0.0375
   7.  S 1( 3py)    0.0000  0.0768  0.3194  0.0000 -0.1915  0.1944 -0.0768 -0.3194
   8.  S 1( 2pz)    0.0000 -0.0040 -0.0217  0.0000  0.0288 -0.0011 -0.0040 -0.0217
   9.  S 1( 3pz)    1.0000 -0.0445 -0.1851  0.0000  0.1944  0.0312 -0.0445 -0.1851
  10.  O 2( 1s )   -0.0445  1.0000  0.0000  0.0000  0.0000  0.0000  0.0001  0.0008
  11.  O 2( 2s )   -0.1851  0.0000  1.0000  0.0000  0.0000  0.0000  0.0008  0.0066
  12.  O 2( 2px)    0.0000  0.0000  0.0000  1.0000  0.0000  0.0000  0.0000  0.0000
  13.  O 2( 2py)    0.1944  0.0000  0.0000  0.0000  1.0000  0.0000 -0.0015 -0.0117
  14.  O 2( 2pz)    0.0312  0.0000  0.0000  0.0000  0.0000  1.0000  0.0000  0.0000
  15.  O 3( 1s )   -0.0445  0.0001  0.0008  0.0000 -0.0015  0.0000  1.0000  0.0000
  16.  O 3( 2s )   -0.1851  0.0008  0.0066  0.0000 -0.0117  0.0000  0.0000  1.0000
  17.  O 3( 2px)    0.0000  0.0000  0.0000  0.0022  0.0000  0.0000  0.0000  0.0000
  18.  O 3( 2py)   -0.1944  0.0015  0.0117  0.0000 -0.0195  0.0000  0.0000  0.0000
  19.  O 3( 2pz)    0.0312  0.0000  0.0000  0.0000  0.0000  0.0022  0.0000  0.0000

           NAO        17      18      19
      ------------ ------- ------- -------
   1.  S 1( 1s )    0.0000  0.0115  0.0067
   2.  S 1( 2s )    0.0000  0.0570  0.0331
   3.  S 1( 3s )    0.0000  0.2106  0.1221
   4.  S 1( 2px)    0.0156  0.0000  0.0000
   5.  S 1( 3px)    0.1439  0.0000  0.0000
   6.  S 1( 2py)    0.0000 -0.0340 -0.0288
   7.  S 1( 3py)    0.0000 -0.1915 -0.1944
   8.  S 1( 2pz)    0.0000 -0.0288 -0.0011
   9.  S 1( 3pz)    0.0000 -0.1944  0.0312
  10.  O 2( 1s )    0.0000  0.0015  0.0000
  11.  O 2( 2s )    0.0000  0.0117  0.0000
  12.  O 2( 2px)    0.0022  0.0000  0.0000
  13.  O 2( 2py)    0.0000 -0.0195  0.0000
  14.  O 2( 2pz)    0.0000  0.0000  0.0022
  15.  O 3( 1s )    0.0000  0.0000  0.0000
  16.  O 3( 2s )    0.0000  0.0000  0.0000
  17.  O 3( 2px)    1.0000  0.0000  0.0000
  18.  O 3( 2py)    0.0000  1.0000  0.0000
  19.  O 3( 2pz)    0.0000  0.0000  1.0000


 PNAO density matrix:

           NAO         1       2       3       4       5       6       7       8
      ------------ ------- ------- ------- ------- ------- ------- ------- -------
   1.  S 1( 1s )    2.0000  0.0000  0.0000  0.0000  0.0000  0.0000  0.0000  0.0000
   2.  S 1( 2s )    0.0000  2.0000  0.0000  0.0000  0.0000  0.0000  0.0000  0.0000
   3.  S 1( 3s )    0.0000  0.0000  1.9317  0.0000  0.0000  0.0000  0.0000 -0.0004
   4.  S 1( 2px)    0.0000  0.0000  0.0000  2.0000 -0.0042  0.0000  0.0000  0.0000
   5.  S 1( 3px)    0.0000  0.0000  0.0000 -0.0042  1.3854  0.0000  0.0000  0.0000
   6.  S 1( 2py)    0.0000  0.0000  0.0000  0.0000  0.0000  2.0000  0.0033  0.0000
   7.  S 1( 3py)    0.0000  0.0000  0.0000  0.0000  0.0000  0.0033  1.4882  0.0000
   8.  S 1( 2pz)    0.0000  0.0000 -0.0004  0.0000  0.0000  0.0000  0.0000  2.0000
   9.  S 1( 3pz)    0.0000  0.0000  0.1434  0.0000  0.0000  0.0000  0.0000  0.0009
  10.  O 2( 1s )    0.0022  0.0162  0.1173  0.0000  0.0000  0.0139  0.1537 -0.0081
  11.  O 2( 2s )    0.0161  0.0966  0.5467  0.0000  0.0000  0.0748  0.6763 -0.0434
  12.  O 2( 2px)    0.0000  0.0000  0.0000  0.0350  0.8387  0.0000  0.0000  0.0000
  13.  O 2( 2py)   -0.0230 -0.1141 -0.5621  0.0000  0.0000 -0.0665 -0.6197  0.0567
  14.  O 2( 2pz)    0.0133  0.0661  0.2737  0.0000  0.0000  0.0562  0.6011 -0.0019
  15.  O 3( 1s )    0.0022  0.0162  0.1173  0.0000  0.0000 -0.0139 -0.1537 -0.0081
  16.  O 3( 2s )    0.0161  0.0966  0.5467  0.0000  0.0000 -0.0748 -0.6763 -0.0434
  17.  O 3( 2px)    0.0000  0.0000  0.0000  0.0350  0.8387  0.0000  0.0000  0.0000
  18.  O 3( 2py)    0.0230  0.1141  0.5621  0.0000  0.0000 -0.0665 -0.6197 -0.0567
  19.  O 3( 2pz)    0.0133  0.0661  0.2737  0.0000  0.0000 -0.0562 -0.6011 -0.0019

           NAO         9      10      11      12      13      14      15      16
      ------------ ------- ------- ------- ------- ------- ------- ------- -------
   1.  S 1( 1s )    0.0000  0.0022  0.0161  0.0000 -0.0230  0.0133  0.0022  0.0161
   2.  S 1( 2s )    0.0000  0.0162  0.0966  0.0000 -0.1141  0.0661  0.0162  0.0966
   3.  S 1( 3s )    0.1434  0.1173  0.5467  0.0000 -0.5621  0.2737  0.1173  0.5467
   4.  S 1( 2px)    0.0000  0.0000  0.0000  0.0350  0.0000  0.0000  0.0000  0.0000
   5.  S 1( 3px)    0.0000  0.0000  0.0000  0.8387  0.0000  0.0000  0.0000  0.0000
   6.  S 1( 2py)    0.0000  0.0139  0.0748  0.0000 -0.0665  0.0562 -0.0139 -0.0748
   7.  S 1( 3py)    0.0000  0.1537  0.6763  0.0000 -0.6197  0.6011 -0.1537 -0.6763
   8.  S 1( 2pz)    0.0009 -0.0081 -0.0434  0.0000  0.0567 -0.0019 -0.0081 -0.0434
   9.  S 1( 3pz)    1.6987 -0.0891 -0.3984  0.0000  0.6849  0.0003 -0.0891 -0.3984
  10.  O 2( 1s )   -0.0891  2.0000  0.0000  0.0000  0.0000  0.0000  0.0002  0.0017
  11.  O 2( 2s )   -0.3984  0.0000  1.9946  0.0000  0.0450 -0.0214  0.0017  0.0133
  12.  O 2( 2px)    0.0000  0.0000  0.0000  1.5062  0.0000  0.0000  0.0000  0.0000
  13.  O 2( 2py)    0.6849  0.0000  0.0450  0.0000  1.5998  0.1592 -0.0031 -0.0130
  14.  O 2( 2pz)    0.0003  0.0000 -0.0214  0.0000  0.1592  1.8991  0.0000  0.0097
  15.  O 3( 1s )   -0.0891  0.0002  0.0017  0.0000 -0.0031  0.0000  2.0000  0.0000
  16.  O 3( 2s )   -0.3984  0.0017  0.0133  0.0000 -0.0130  0.0097  0.0000  1.9946
  17.  O 3( 2px)    0.0000  0.0000  0.0000 -0.4894  0.0000  0.0000  0.0000  0.0000
  18.  O 3( 2py)   -0.6849  0.0031  0.0130  0.0000  0.1425  0.0371  0.0000 -0.0450
  19.  O 3( 2pz)    0.0003  0.0000  0.0097  0.0000 -0.0371  0.0797  0.0000 -0.0214

           NAO        17      18      19
      ------------ ------- ------- -------
   1.  S 1( 1s )    0.0000  0.0230  0.0133
   2.  S 1( 2s )    0.0000  0.1141  0.0661
   3.  S 1( 3s )    0.0000  0.5621  0.2737
   4.  S 1( 2px)    0.0350  0.0000  0.0000
   5.  S 1( 3px)    0.8387  0.0000  0.0000
   6.  S 1( 2py)    0.0000 -0.0665 -0.0562
   7.  S 1( 3py)    0.0000 -0.6197 -0.6011
   8.  S 1( 2pz)    0.0000 -0.0567 -0.0019
   9.  S 1( 3pz)    0.0000 -0.6849  0.0003
  10.  O 2( 1s )    0.0000  0.0031  0.0000
  11.  O 2( 2s )    0.0000  0.0130  0.0097
  12.  O 2( 2px)   -0.4894  0.0000  0.0000
  13.  O 2( 2py)    0.0000  0.1425 -0.0371
  14.  O 2( 2pz)    0.0000  0.0371  0.0797
  15.  O 3( 1s )    0.0000  0.0000  0.0000
  16.  O 3( 2s )    0.0000 -0.0450 -0.0214
  17.  O 3( 2px)    1.5062  0.0000  0.0000
  18.  O 3( 2py)    0.0000  1.5998 -0.1592
  19.  O 3( 2pz)    0.0000 -0.1592  1.8991


 NAOs in the AO basis:

           AO          1       2       3       4       5       6       7       8
      ------------ ------- ------- ------- ------- ------- ------- ------- -------
   1.  S 1 (s)      0.9417 -0.4830  0.1179  0.0000  0.0000  0.0000  0.0000  0.0000
   2.  S 1 (s)      0.1451  1.0246 -0.3754  0.0000  0.0000  0.0000  0.0000  0.0000
   3.  S 1 (px)     0.0000  0.0000  0.0000  0.9813 -0.3317  0.0000  0.0000  0.0000
   4.  S 1 (py)     0.0000  0.0000  0.0000  0.0000  0.0000  0.9813 -0.3611  0.0000
   5.  S 1 (pz)     0.0000  0.0000  0.0129  0.0000  0.0000  0.0000  0.0000  0.9813
   6.  S 1 (s)      0.0056  0.0862  1.1773  0.0000  0.0000  0.0000  0.0000  0.0000
   7.  S 1 (px)     0.0000  0.0000  0.0000  0.0651  1.0500  0.0000  0.0000  0.0000
   8.  S 1 (py)     0.0000  0.0000  0.0000  0.0000  0.0000  0.0651  1.2513  0.0000
   9.  S 1 (pz)     0.0000  0.0000 -0.0921  0.0000  0.0000  0.0000  0.0000  0.0651
  10.  O 2 (s)     -0.0005 -0.0039 -0.0022  0.0000  0.0000 -0.0034 -0.0014  0.0019
  11.  O 2 (s)     -0.0001 -0.0005 -0.1943  0.0000  0.0000 -0.0004 -0.2613  0.0003
  12.  O 2 (px)     0.0000  0.0000  0.0000  0.0000 -0.0771  0.0000  0.0000  0.0000
  13.  O 2 (py)     0.0000  0.0000  0.1348  0.0000  0.0000  0.0000  0.1400  0.0000
  14.  O 2 (pz)     0.0000  0.0000 -0.0692  0.0000  0.0000  0.0000 -0.1376  0.0000
  15.  O 3 (s)     -0.0005 -0.0039 -0.0022  0.0000  0.0000  0.0034  0.0014  0.0019
  16.  O 3 (s)     -0.0001 -0.0005 -0.1943  0.0000  0.0000  0.0004  0.2613  0.0003
  17.  O 3 (px)     0.0000  0.0000  0.0000  0.0000 -0.0771  0.0000  0.0000  0.0000
  18.  O 3 (py)     0.0000  0.0000 -0.1348  0.0000  0.0000  0.0000  0.1400  0.0000
  19.  O 3 (pz)     0.0000  0.0000 -0.0692  0.0000  0.0000  0.0000  0.1376  0.0000

           AO          9      10      11      12      13      14      15      16
      ------------ ------- ------- ------- ------- ------- ------- ------- -------
   1.  S 1 (s)     -0.0035  0.0014 -0.0008  0.0000 -0.0022  0.0017  0.0014 -0.0008
   2.  S 1 (s)      0.0096 -0.0042  0.0017  0.0000  0.0144 -0.0095 -0.0042  0.0017
   3.  S 1 (px)     0.0000  0.0000  0.0000  0.0076  0.0000  0.0000  0.0000  0.0000
   4.  S 1 (py)     0.0000 -0.0034  0.0167  0.0000 -0.0028  0.0079  0.0034 -0.0167
   5.  S 1 (pz)    -0.3420  0.0020 -0.0100  0.0000  0.0073  0.0044  0.0020 -0.0100
   6.  S 1 (s)     -0.1177 -0.0004 -0.1862  0.0000  0.1667 -0.0858 -0.0004 -0.1862
   7.  S 1 (px)     0.0000  0.0000  0.0000 -0.0738  0.0000  0.0000  0.0000  0.0000
   8.  S 1 (py)     0.0000 -0.0002 -0.1958  0.0000  0.1347 -0.1321  0.0002  0.1958
   9.  S 1 (pz)     1.1200  0.0001  0.1155  0.0000 -0.1283 -0.0057  0.0001  0.1155
  10.  O 2 (s)      0.0004  0.9630 -0.3723  0.0000  0.0082 -0.0047  0.0000 -0.0004
  11.  O 2 (s)      0.1542  0.1251  1.1330  0.0000 -0.0949  0.0549  0.0000  0.0014
  12.  O 2 (px)     0.0000  0.0000  0.0000  1.0079  0.0000  0.0000  0.0000  0.0000
  13.  O 2 (py)    -0.1337  0.0000 -0.0751  0.0000  1.0669 -0.0335  0.0000 -0.0104
  14.  O 2 (pz)    -0.0062  0.0000  0.0434  0.0000 -0.0335  1.0282  0.0000 -0.0145
  15.  O 3 (s)      0.0004  0.0000 -0.0004  0.0000  0.0012  0.0013  0.9630 -0.3723
  16.  O 3 (s)      0.1542  0.0000  0.0014  0.0000 -0.0132 -0.0184  0.1251  1.1330
  17.  O 3 (px)     0.0000  0.0000  0.0000  0.0067  0.0000  0.0000  0.0000  0.0000
  18.  O 3 (py)     0.1337  0.0000  0.0104  0.0000 -0.0149 -0.0075  0.0000  0.0751
  19.  O 3 (pz)    -0.0062  0.0000 -0.0145  0.0000  0.0075 -0.0130  0.0000  0.0434

           AO         17      18      19
      ------------ ------- ------- -------
   1.  S 1 (s)      0.0000  0.0022  0.0017
   2.  S 1 (s)      0.0000 -0.0144 -0.0095
   3.  S 1 (px)     0.0076  0.0000  0.0000
   4.  S 1 (py)     0.0000 -0.0028 -0.0079
   5.  S 1 (pz)     0.0000 -0.0073  0.0044
   6.  S 1 (s)      0.0000 -0.1667 -0.0858
   7.  S 1 (px)    -0.0738  0.0000  0.0000
   8.  S 1 (py)     0.0000  0.1347  0.1321
   9.  S 1 (pz)     0.0000  0.1283 -0.0057
  10.  O 2 (s)      0.0000 -0.0012  0.0013
  11.  O 2 (s)      0.0000  0.0132 -0.0184
  12.  O 2 (px)     0.0067  0.0000  0.0000
  13.  O 2 (py)     0.0000 -0.0149  0.0075
  14.  O 2 (pz)     0.0000 -0.0075 -0.0130
  15.  O 3 (s)      0.0000 -0.0082 -0.0047
  16.  O 3 (s)      0.0000  0.0949  0.0549
  17.  O 3 (px)     1.0079  0.0000  0.0000
  18.  O 3 (py)     0.0000  1.0669  0.0335
  19.  O 3 (pz)     0.0000  0.0335  1.0282


 NAO density matrix:

           NAO         1       2       3       4       5       6       7       8
      ------------ ------- ------- ------- ------- ------- ------- ------- -------
   1.  S 1( 1s )    2.0000  0.0000  0.0000  0.0000  0.0000  0.0000  0.0000  0.0000
   2.  S 1( 2s )    0.0000  2.0000  0.0000  0.0000  0.0000  0.0000  0.0000  0.0000
   3.  S 1( 3s )    0.0000  0.0000  1.7234  0.0000  0.0000  0.0000  0.0000 -0.0009
   4.  S 1( 2px)    0.0000  0.0000  0.0000  2.0000 -0.0049  0.0000  0.0000  0.0000
   5.  S 1( 3px)    0.0000  0.0000  0.0000 -0.0049  1.1806  0.0000  0.0000  0.0000
   6.  S 1( 2py)    0.0000  0.0000  0.0000  0.0000  0.0000  2.0000  0.0049  0.0000
   7.  S 1( 3py)    0.0000  0.0000  0.0000  0.0000  0.0000  0.0049  0.8664  0.0000
   8.  S 1( 2pz)    0.0000  0.0000 -0.0009  0.0000  0.0000  0.0000  0.0000  2.0000
   9.  S 1( 3pz)    0.0000  0.0000  0.4110  0.0000  0.0000  0.0000  0.0000  0.0013
  10.  O 2( 1s )    0.0000  0.0000  0.0000  0.0000  0.0000  0.0000  0.0000  0.0000
  11.  O 2( 2s )    0.0000  0.0000  0.1118  0.0000  0.0000 -0.0011  0.2446  0.0003
  12.  O 2( 2px)    0.0000  0.0000  0.0000  0.0041  0.6955  0.0000  0.0000  0.0000
  13.  O 2( 2py)    0.0000  0.0000 -0.3678  0.0000  0.0000  0.0021 -0.4849 -0.0011
  14.  O 2( 2pz)    0.0000  0.0000  0.0781  0.0000  0.0000 -0.0019  0.4428  0.0002
  15.  O 3( 1s )    0.0000  0.0000  0.0000  0.0000  0.0000  0.0000  0.0000  0.0000
  16.  O 3( 2s )    0.0000  0.0000  0.1118  0.0000  0.0000  0.0011 -0.2446  0.0003
  17.  O 3( 2px)    0.0000  0.0000  0.0000  0.0041  0.6955  0.0000  0.0000  0.0000
  18.  O 3( 2py)    0.0000  0.0000  0.3678  0.0000  0.0000  0.0021 -0.4849  0.0011
  19.  O 3( 2pz)    0.0000  0.0000  0.0781  0.0000  0.0000  0.0019 -0.4428  0.0002

           NAO         9      10      11      12      13      14      15      16
      ------------ ------- ------- ------- ------- ------- ------- ------- -------
   1.  S 1( 1s )    0.0000  0.0000  0.0000  0.0000  0.0000  0.0000  0.0000  0.0000
   2.  S 1( 2s )    0.0000  0.0000  0.0000  0.0000  0.0000  0.0000  0.0000  0.0000
   3.  S 1( 3s )    0.4110  0.0000  0.1118  0.0000 -0.3678  0.0781  0.0000  0.1118
   4.  S 1( 2px)    0.0000  0.0000  0.0000  0.0041  0.0000  0.0000  0.0000  0.0000
   5.  S 1( 3px)    0.0000  0.0000  0.0000  0.6955  0.0000  0.0000  0.0000  0.0000
   6.  S 1( 2py)    0.0000  0.0000 -0.0011  0.0000  0.0021 -0.0019  0.0000  0.0011
   7.  S 1( 3py)    0.0000  0.0000  0.2446  0.0000 -0.4849  0.4428  0.0000 -0.2446
   8.  S 1( 2pz)    0.0013  0.0000  0.0003  0.0000 -0.0011  0.0002  0.0000  0.0003
   9.  S 1( 3pz)    1.3892  0.0000 -0.1661  0.0000  0.5466 -0.1160  0.0000 -0.1661
  10.  O 2( 1s )    0.0000  2.0000  0.0000  0.0000  0.0000  0.0000  0.0000  0.0000
  11.  O 2( 2s )   -0.1661  0.0000  1.9020  0.0000  0.2533 -0.1271  0.0000  0.0076
  12.  O 2( 2px)    0.0000  0.0000  0.0000  1.4097  0.0000  0.0000  0.0000  0.0000
  13.  O 2( 2py)    0.5466  0.0000  0.2533  0.0000  1.3035  0.2933  0.0000  0.0440
  14.  O 2( 2pz)   -0.1160  0.0000 -0.1271  0.0000  0.2933  1.8050  0.0000  0.0640
  15.  O 3( 1s )    0.0000  0.0000  0.0000  0.0000  0.0000  0.0000  2.0000  0.0000
  16.  O 3( 2s )   -0.1661  0.0000  0.0076  0.0000  0.0440  0.0640  0.0000  1.9020
  17.  O 3( 2px)    0.0000  0.0000  0.0000 -0.5903  0.0000  0.0000  0.0000  0.0000
  18.  O 3( 2py)   -0.5466  0.0000 -0.0440  0.0000  0.2817  0.0856  0.0000 -0.2533
  19.  O 3( 2pz)   -0.1160  0.0000  0.0640  0.0000 -0.0856  0.1509  0.0000 -0.1271

           NAO        17      18      19
      ------------ ------- ------- -------
   1.  S 1( 1s )    0.0000  0.0000  0.0000
   2.  S 1( 2s )    0.0000  0.0000  0.0000
   3.  S 1( 3s )    0.0000  0.3678  0.0781
   4.  S 1( 2px)    0.0041  0.0000  0.0000
   5.  S 1( 3px)    0.6955  0.0000  0.0000
   6.  S 1( 2py)    0.0000  0.0021  0.0019
   7.  S 1( 3py)    0.0000 -0.4849 -0.4428
   8.  S 1( 2pz)    0.0000  0.0011  0.0002
   9.  S 1( 3pz)    0.0000 -0.5466 -0.1160
  10.  O 2( 1s )    0.0000  0.0000  0.0000
  11.  O 2( 2s )    0.0000 -0.0440  0.0640
  12.  O 2( 2px)   -0.5903  0.0000  0.0000
  13.  O 2( 2py)    0.0000  0.2817 -0.0856
  14.  O 2( 2pz)    0.0000  0.0856  0.1509
  15.  O 3( 1s )    0.0000  0.0000  0.0000
  16.  O 3( 2s )    0.0000 -0.2533 -0.1271
  17.  O 3( 2px)    1.4097  0.0000  0.0000
  18.  O 3( 2py)    0.0000  1.3035 -0.2933
  19.  O 3( 2pz)    0.0000 -0.2933  1.8050


 NATURAL BOND ORBITAL ANALYSIS:

 Initiate 2-center NBO search using THRESH = 1.900 and PRJTHR = 0.300

 Search of NAO DM block for core orbitals on atom:   1
      Eigenvector ( 1) has occupancy 2.00000
            1.0000 0.0000 0.0000 0.0000 0.0000 0.0000 0.0000 0.0000
            0.0000
      Eigenvector ( 2) has occupancy 2.00000
            0.0000 1.0000 0.0000 0.0000 0.0000 0.0000 0.0000 0.0000
            0.0000
      Eigenvector ( 3) has occupancy 1.99997
            0.0000 0.0000 0.0000 1.0000 0.0000 0.0000 0.0000 0.0000
            0.0000
      Eigenvector ( 4) has occupancy 1.99998
            0.0000 0.0000 0.0000 0.0000 0.0000 1.0000 0.0000 0.0000
            0.0000
      Eigenvector ( 5) has occupancy 2.00000
            0.0000 0.0000 0.0000 0.0000 0.0000 0.0000 0.0000 1.0000
            0.0000
        5 eigenvector(s) stashed in permanent list

 Search of NAO DM block for core orbitals on atom:   2
      Eigenvector ( 1) has occupancy 2.00000
            1.0000 0.0000 0.0000 0.0000 0.0000
        1 eigenvector(s) stashed in permanent list

 Search of NAO DM block for core orbitals on atom:   3
      Eigenvector ( 1) has occupancy 2.00000
            1.0000 0.0000 0.0000 0.0000 0.0000
        1 eigenvector(s) stashed in permanent list

 Core orbitals projected from the NAO density matrix
      18.000 electrons remain (>1.900); search continues

 Search of NAO DM block for the following atom(s):   1
      Select eigenvectors with eigenvalue > 1.900
       2.000 1.181 1.113 0.866 0.000 0.000 0.000 0.000 0.000
      Eigenvector ( 1) has occupancy 2.00000
            0.0000 0.0000 0.8296 0.0000 0.0000 0.0000 0.0000 0.0000
            0.5583
      1 hybrid on atom 1 stashed in prospective list

 Search of NAO DM block for the following atom(s):   2
      Select eigenvectors with eigenvalue > 1.900
       2.000 1.939 1.410 1.072 0.000
      Eigenvector ( 1) has occupancy 2.00000
            0.0000 0.9362 0.0000 0.2276-0.2680
      Eigenvector ( 2) has occupancy 1.93873
            0.0000 0.1391 0.0000 0.4602 0.8768
      2 hybrids on atom 2 stashed in prospective list

 Search of NAO DM block for the following atom(s):   3
      Select eigenvectors with eigenvalue > 1.900
       2.000 1.939 1.410 1.072 0.000
      Eigenvector ( 1) has occupancy 2.00000
            0.0000 0.9362 0.0000-0.2276-0.2680
      Eigenvector ( 2) has occupancy 1.93873
            0.0000 0.1391 0.0000-0.4602 0.8768
      2 hybrids on atom 3 stashed in prospective list

 Stash prospective hybrids having projection expectation value > 0.300
       1.000 1.000 1.000 1.000 1.000
      0 hybrids eliminated in 1 pass
      5 hybrids moved from prospective to permanent list

 NHOs of 1-center eigenvectors projected from the NAO density matrix
       8.123 electrons remain (>1.900); search continues

 Search of NAO DM block for the following atom(s):   1   2
      Select eigenvectors with eigenvalue > 1.900
       2.000 2.000 0.988 0.590 0.062 0.000 0.000 0.000 0.000 0.000 0.000 0.000
       0.000 0.000
      Eigenvector ( 1) has occupancy 2.00000
            0.0000 0.0000 0.1918 0.0000 0.5075 0.0000 0.2634 0.0000
           -0.2850 0.0000 0.1435 0.5980-0.3814 0.1774
      Eigenvector ( 2) has occupancy 2.00000
            0.0000 0.0000-0.2424 0.0000 0.4014 0.0000-0.3330 0.0000
            0.3603 0.0000-0.1814 0.4730 0.4821-0.2243
      2 hybrids on atom 1 stashed in prospective list
      2 hybrids on atom 2 stashed in prospective list

 Search of NAO DM block for the following atom(s):   1   3
      Select eigenvectors with eigenvalue > 1.900
       2.000 2.000 0.988 0.590 0.062 0.000 0.000 0.000 0.000 0.000 0.000 0.000
       0.000 0.000
      Eigenvector ( 1) has occupancy 2.00000
            0.0000 0.0000-0.2315 0.0000 0.4288 0.0000 0.3180 0.0000
            0.3440 0.0000-0.1732 0.5052-0.4604-0.2142
      Eigenvector ( 2) has occupancy 2.00000
            0.0000 0.0000 0.2048 0.0000 0.4846 0.0000-0.2813 0.0000
           -0.3044 0.0000 0.1533 0.5710 0.4073 0.1895
      2 hybrids on atom 1 stashed in prospective list
      2 hybrids on atom 3 stashed in prospective list

 Search of NAO DM block for the following atom(s):   2   3
      Select eigenvectors with eigenvalue > 1.900
       2.000 1.204 0.940 0.819 0.000 0.000 0.000 0.000 0.000 0.000
      Eigenvector ( 1) has occupancy 2.00000
            0.0000 0.0000 0.7071 0.0000 0.0000 0.0000 0.0000-0.7071
            0.0000 0.0000
      1 hybrid on atom 2 stashed in prospective list
      1 hybrid on atom 3 stashed in prospective list

 Stash prospective hybrids having projection expectation value > 0.300
       0.000 0.000 0.000 0.000 0.000 0.000 0.000 0.000 0.000 0.000
      10 hybrids eliminated in 2 passes

 Stash additional hybrids from high occupancy eigenvectors
       2.000 2.000 2.000 2.000 2.000
      Hybrid projection expectation values
       1.000 1.000 1.000 1.000 1.000 1.000 1.000 1.000 1.000 1.000
      Occ=2.000; Vecs=  1
       0.000 0.995 0.000 0.996 0.876 0.555 1.000 1.000 0.356 1.000
      Occ=4.000; Vecs=  1  2
       0.000 0.000 0.000 0.000 0.557 0.444 1.000 1.000 0.000 1.000
      Occ=6.000; Vecs=  1  2  3
       0.000 0.000 0.000 0.000 0.000 0.000 0.000 0.996 0.000 0.530
      Occ=6.000; Vecs=  2  3  4
       0.000 0.000 0.996 0.000 0.000 0.000 0.000 0.000 0.585 0.000
      54 bonding patterns considered
       0.000 0.606 0.000 0.606 0.656 0.847 0.656 0.847 0.000 0.000
       0.847 0.847 0.656 0.656 0.606 0.606
      6 additional hybrids moved from prospective to permanent list

 NHOs of 2-center eigenvectors projected from the NAO density matrix
       1.270 electrons remain in the fully projected matrix

 Search of NHO DM block for the following atom(s):   1
      Select eigenvectors with eigenvalue > 1.900
       2.000 2.000 2.000 2.000 2.000 2.000 0.000 0.000 0.000
      Eigenvector ( 1) has occupancy 2.00000
            1.0000 0.0000 0.0000 0.0000 0.0000 0.0000 0.0000 0.0000
            0.0000
           NBO accepted:    1. Label:CR ( 1)   1
      Eigenvector ( 2) has occupancy 2.00000
            0.0000 1.0000 0.0000 0.0000 0.0000 0.0000 0.0000 0.0000
            0.0000
           NBO accepted:    2. Label:CR ( 2)   1
      Eigenvector ( 3) has occupancy 2.00000
            0.0000 0.0000 0.0000 0.0000 1.0000 0.0000 0.0000 0.0000
            0.0000
           NBO accepted:    3. Label:CR ( 3)   1
      Eigenvector ( 4) has occupancy 1.99998
            0.0000 0.0000 0.0000 1.0000 0.0000 0.0000 0.0000 0.0000
            0.0000
           NBO accepted:    4. Label:CR ( 4)   1
      Eigenvector ( 5) has occupancy 1.99997
            0.0000 0.0000 1.0000 0.0000 0.0000 0.0000 0.0000 0.0000
            0.0000
           NBO accepted:    5. Label:CR ( 5)   1
      Eigenvector ( 6) has occupancy 2.00000
            0.0000 0.0000 0.0000 0.0000 0.0000 1.0000 0.0000 0.0000
            0.0000
           NBO accepted:    6. Label:LP ( 1)   1
        6 eigenvector(s) stashed in permanent list

 Search of NHO DM block for the following atom(s):   2
      Select eigenvectors with eigenvalue > 1.900
       2.000 2.000 1.939 0.000 0.000
      Eigenvector ( 1) has occupancy 2.00000
            1.0000 0.0000 0.0000 0.0000 0.0000
           NBO accepted:    7. Label:CR ( 1)   2
      Eigenvector ( 2) has occupancy 2.00000
            0.0000 1.0000 0.0000 0.0000 0.0000
           NBO accepted:    8. Label:LP ( 1)   2
      Eigenvector ( 3) has occupancy 1.93873
            0.0000 0.0000 1.0000 0.0000 0.0000
           NBO accepted:    9. Label:LP ( 2)   2
        3 eigenvector(s) stashed in permanent list

 Search of NHO DM block for the following atom(s):   3
      Select eigenvectors with eigenvalue > 1.900
       2.000 2.000 1.939 0.000 0.000
      Eigenvector ( 1) has occupancy 2.00000
            1.0000 0.0000 0.0000 0.0000 0.0000
           NBO accepted:   10. Label:CR ( 1)   3
      Eigenvector ( 2) has occupancy 2.00000
            0.0000 1.0000 0.0000 0.0000 0.0000
           NBO accepted:   11. Label:LP ( 1)   3
      Eigenvector ( 3) has occupancy 1.93873
            0.0000 0.0000 1.0000 0.0000 0.0000
           NBO accepted:   12. Label:LP ( 2)   3
        3 eigenvector(s) stashed in permanent list

  1-center NBOs projected from the NHO density matrix
       8.123 electrons remain (>1.900); search continues

 Search of NHO DM block for the following atom(s):   1   2
      Select eigenvectors with eigenvalue > 1.900
       1.954 0.264 0.000 0.000 0.000 0.000 0.000 0.000 0.000 0.000 0.000 0.000
       0.000 0.000
      Eigenvector ( 1) has occupancy 1.95353
            0.0000 0.0000 0.0000 0.0000 0.0000 0.0000 0.6625 0.0000
            0.0000 0.0000 0.0000 0.0000 0.7491 0.0000
      Occupancy is 1.954 after deleting minor hybrid components
            0.0000 0.0000 0.0000 0.0000 0.0000 0.0000 0.6625 0.0000
            0.0000 0.0000 0.0000 0.0000 0.7491 0.0000
           NBO accepted:   13. Label:BD ( 1)   1   2
      Occupancy is 0.264 for antibonding component
            0.0000 0.0000 0.0000 0.0000 0.0000 0.0000 0.7491 0.0000
            0.0000 0.0000 0.0000 0.0000-0.6625 0.0000
           NBO accepted:   14. Label:BD*( 1)   1   2
        2 eigenvector(s) stashed in permanent list

 Search of NHO DM block for the following atom(s):   1   3
      Select eigenvectors with eigenvalue > 1.900
       2.000 1.950 0.615 0.071 0.000 0.000 0.000 0.000 0.000 0.000 0.000 0.000
       0.000 0.000
      Eigenvector ( 1) has occupancy 2.00000
            0.0000 0.0000 0.0000 0.0000 0.0000 0.0000 0.0000 0.3395
            0.6027 0.0000 0.0000 0.0000 0.3262 0.6443
      Occupancy is 1.986 after deleting minor hybrid components
            0.0000 0.0000 0.0000 0.0000 0.0000 0.0000 0.0000 0.0000
            0.6768 0.0000 0.0000 0.0000 0.0000 0.7361
           NBO accepted:   15. Label:BD ( 1)   1   3
      Occupancy is 0.405 for antibonding component
            0.0000 0.0000 0.0000 0.0000 0.0000 0.0000 0.0000 0.0000
            0.7361 0.0000 0.0000 0.0000 0.0000-0.6768
           NBO accepted:   16. Label:BD*( 1)   1   3
      Eigenvector ( 2) has occupancy 1.95022
            0.0000 0.0000 0.0000 0.0000 0.0000 0.0000 0.0000 0.5673
           -0.2944 0.0000 0.0000 0.0000 0.6764-0.3660
      Occupancy is 1.960 after deleting minor hybrid components
            0.0000 0.0000 0.0000 0.0000 0.0000 0.0000 0.0000 0.6647
            0.0000 0.0000 0.0000 0.0000 0.7471 0.0000
           NBO accepted:   17. Label:BD ( 2)   1   3
      Occupancy is 0.285 for antibonding component
            0.0000 0.0000 0.0000 0.0000 0.0000 0.0000 0.0000 0.7471
            0.0000 0.0000 0.0000 0.0000-0.6647 0.0000
           NBO accepted:   18. Label:BD*( 2)   1   3
        4 eigenvector(s) stashed in permanent list

  2-center NBOs projected from the NHO density matrix
       1.270 electrons remain in the fully projected matrix

                            Occupancies       Lewis Structure    Low   High
         Max    Occ     -------------------  -----------------   occ   occ
  Cycle  Ctr   Thresh    Lewis   non-Lewis     CR  BD  nC  LP    (L)   (NL)
 ============================================================================
    1     2     1.90    31.04597   0.95403      7   3   0   6     1      3
 ----------------------------------------------------------------------------

 Strongly delocalized structure accepted

 -------------------------------------------------------
   Core                     13.99995 (100.000% of  14)
   Valence Lewis            17.04602 ( 94.700% of  18)
  ==================      =============================
   Total Lewis              31.04597 ( 97.019% of  32)
  -----------------------------------------------------
   Valence non-Lewis         0.95403 (  2.981% of  32)
   Rydberg non-Lewis         0.00000 (  0.000% of  32)
  ==================      =============================
   Total non-Lewis           0.95403 (  2.981% of  32)
 -------------------------------------------------------


     (Occupancy)   Bond orbital / Coefficients / Hybrids
 ------------------ Lewis ------------------------------------------------------
   1. (2.00000) CR ( 1) S  1            s(100.00%)
                                         1.0000  0.0000  0.0000  0.0000  0.0000
                                         0.0000  0.0000  0.0000  0.0000
   2. (2.00000) CR ( 2) S  1            s(100.00%)
                                         0.0000  1.0000  0.0000  0.0000  0.0000
                                         0.0000  0.0000  0.0000  0.0000
   3. (1.99997) CR ( 3) S  1            s(  0.00%)p 1.00(100.00%)
                                         0.0000  0.0000  0.0000  1.0000  0.0000
                                         0.0000  0.0000  0.0000  0.0000
   4. (1.99998) CR ( 4) S  1            s(  0.00%)p 1.00(100.00%)
                                         0.0000  0.0000  0.0000  0.0000  0.0000
                                         1.0000  0.0000  0.0000  0.0000
   5. (2.00000) CR ( 5) S  1            s(  0.00%)p 1.00(100.00%)
                                         0.0000  0.0000  0.0000  0.0000  0.0000
                                         0.0000  0.0000  1.0000  0.0000
   6. (2.00000) CR ( 1) O  2            s(100.00%)
                                         1.0000  0.0000  0.0000  0.0000  0.0000
   7. (2.00000) CR ( 1) O  3            s(100.00%)
                                         1.0000  0.0000  0.0000  0.0000  0.0000
   8. (2.00000) LP ( 1) S  1            s( 68.83%)p 0.45( 31.17%)
                                         0.0000  0.0000  0.8296  0.0000  0.0000
                                         0.0000  0.0000  0.0000  0.5583
   9. (2.00000) LP ( 1) O  2            s( 87.64%)p 0.14( 12.36%)
                                         0.0000  0.9362  0.0000  0.2276 -0.2680
  10. (1.93873) LP ( 2) O  2            s(  1.94%)p50.67( 98.06%)
                                         0.0000  0.1391  0.0000  0.4602  0.8768
  11. (1.26956) LP ( 3) O  2            s(  4.32%)p22.13( 95.68%)
                                         0.0000  0.2079  0.7650 -0.5526  0.2571
  12. (2.00000) LP ( 1) O  3            s( 87.64%)p 0.14( 12.36%)
                                         0.0000  0.9362  0.0000 -0.2276 -0.2680
  13. (1.93873) LP ( 2) O  3            s(  1.94%)p50.67( 98.06%)
                                         0.0000  0.1391  0.0000 -0.4602  0.8768
  14. (1.95353) BD ( 1) S  1- O  2
               ( 43.89%)   0.6625* S  1 s( 13.59%)p 6.36( 86.41%)
                                         0.0000  0.0000  0.3687  0.0000 -0.3177
                                         0.0000  0.6804  0.0000 -0.5479
               ( 56.11%)   0.7491* O  2 s(  6.10%)p15.39( 93.90%)
                                         0.0000  0.2470 -0.6440 -0.6565  0.3054
  15. (1.98573) BD ( 1) S  1- O  3
               ( 45.81%)   0.6768* S  1 s( 12.52%)p 6.99( 87.48%)
                                         0.0000  0.0000  0.3538  0.0000  0.7219
                                         0.0000 -0.2780  0.0000 -0.5258
               ( 54.19%)   0.7361* O  3 s(  4.57%)p20.87( 95.43%)
                                         0.0000  0.2139  0.7492  0.5684  0.2644
  16. (1.95975) BD ( 2) S  1- O  3
               ( 44.18%)   0.6647* S  1 s(  5.06%)p18.77( 94.94%)
                                         0.0000  0.0000  0.2249  0.0000 -0.6148
                                         0.0000 -0.6780  0.0000 -0.3342
               ( 55.82%)   0.7471* O  3 s(  5.85%)p16.09( 94.15%)
                                         0.0000  0.2419 -0.6623  0.6429  0.2991
 ---------------- non-Lewis ----------------------------------------------------
  17. (0.26389) BD*( 1) S  1- O  2
               ( 56.11%)   0.7491* S  1 s( 13.59%)p 6.36( 86.41%)
                                         0.0000  0.0000  0.3687  0.0000 -0.3177
                                         0.0000  0.6804  0.0000 -0.5479
               ( 43.89%)  -0.6625* O  2 s(  6.10%)p15.39( 93.90%)
                                         0.0000  0.2470 -0.6440 -0.6565  0.3054
  18. (0.40475) BD*( 1) S  1- O  3
               ( 54.19%)   0.7361* S  1 s( 12.52%)p 6.99( 87.48%)
                                         0.0000  0.0000  0.3538  0.0000  0.7219
                                         0.0000 -0.2780  0.0000 -0.5258
               ( 45.81%)  -0.6768* O  3 s(  4.57%)p20.87( 95.43%)
                                         0.0000  0.2139  0.7492  0.5684  0.2644
  19. (0.28540) BD*( 2) S  1- O  3
               ( 55.82%)   0.7471* S  1 s(  5.06%)p18.77( 94.94%)
                                         0.0000  0.0000  0.2249  0.0000 -0.6148
                                         0.0000 -0.6780  0.0000 -0.3342
               ( 44.18%)  -0.6647* O  3 s(  5.85%)p16.09( 94.15%)
                                         0.0000  0.2419 -0.6623  0.6429  0.2991


 NHO DIRECTIONALITY AND BOND BENDING (deviation from line of nuclear centers at
                                      the position of maximum hybrid amplitude)

         [Thresholds for printing:  angular deviation  >  1.0 degree]
                                    p- or d-character  > 25.0%
                                    orbital occupancy  >  0.10e

                        Line of Centers        Hybrid 1             Hybrid 2
                        ---------------  -------------------  ------------------
           NBO            Theta   Phi    Theta   Phi    Dev   Theta   Phi    Dev
 ===============================================================================
   8. LP ( 1) S  1          --     --      0.0    0.0   --      --     --    --
  10. LP ( 2) O  2          --     --     27.1   90.0   --      --     --    --
  11. LP ( 3) O  2          --     --     73.9  322.4   --      --     --    --
  13. LP ( 2) O  3          --     --     27.1  270.0   --      --     --    --
  14. BD ( 1) S  1- O  2  120.1   90.0   126.5  126.7  31.2    70.9  227.3  40.1
  15. BD ( 1) S  1- O  3  120.1  270.0   124.7  340.9  58.8    73.5   39.0  48.4
  16. BD ( 2) S  1- O  3  120.1  270.0   106.7  224.3  43.7    71.3  134.1  41.4


 3-Center, 4-Electron A:-B-:C Hyperbonds (A-B :C <=> A: B-C)
              [threshold for detection: 33.3%]

                                                  NBOs       3-center hybrids
                                              -------------  ----------------
       Hyperbond A:-B-:C   %A-B/%B-C   occ    BD(A-B) LP(C)  h(A)  h(B)  h(C)
      -------------------  ---------  ------  ------- -----  ----  ----  ----
   1.  O  3:- S  1-: O  2  61.7/38.3  3.6600      15     11    16    17    11


 SECOND ORDER PERTURBATION THEORY ANALYSIS OF FOCK MATRIX IN NBO BASIS

     Threshold for printing:   0.50 kcal/mol
                                                          E(2) E(NL)-E(L) F(L,NL)
      Donor (L) NBO              Acceptor (NL) NBO      kcal/mol   a.u.    a.u.
 ===============================================================================

 within unit  1
    8. LP ( 1) S  1            17. BD*( 1) S  1- O  2      0.74    1.10   0.025
    8. LP ( 1) S  1            18. BD*( 1) S  1- O  3      1.09    0.92   0.028
    9. LP ( 1) O  2            17. BD*( 1) S  1- O  2      2.16    1.49   0.051
    9. LP ( 1) O  2            18. BD*( 1) S  1- O  3      3.36    1.31   0.059
    9. LP ( 1) O  2            19. BD*( 2) S  1- O  3      1.11    1.43   0.036
   10. LP ( 2) O  2            17. BD*( 1) S  1- O  2      0.95    0.76   0.024
   10. LP ( 2) O  2            18. BD*( 1) S  1- O  3     19.44    0.59   0.095
   10. LP ( 2) O  2            19. BD*( 2) S  1- O  3     32.47    0.71   0.135
   11. LP ( 3) O  2            17. BD*( 1) S  1- O  2    171.72    0.57   0.278
   11. LP ( 3) O  2            18. BD*( 1) S  1- O  3    149.67    0.39   0.217
   11. LP ( 3) O  2            19. BD*( 2) S  1- O  3     64.57    0.51   0.163
   13. LP ( 2) O  3            17. BD*( 1) S  1- O  2     37.51    0.76   0.151
   13. LP ( 2) O  3            18. BD*( 1) S  1- O  3      0.94    0.59   0.021
   13. LP ( 2) O  3            19. BD*( 2) S  1- O  3      2.61    0.71   0.038
   14. BD ( 1) S  1- O  2      17. BD*( 1) S  1- O  2      2.97    1.09   0.051
   14. BD ( 1) S  1- O  2      18. BD*( 1) S  1- O  3      4.50    0.92   0.057
   14. BD ( 1) S  1- O  2      19. BD*( 2) S  1- O  3      3.94    1.04   0.057
   15. BD ( 1) S  1- O  3      17. BD*( 1) S  1- O  2      0.79    1.01   0.025
   15. BD ( 1) S  1- O  3      18. BD*( 1) S  1- O  3      5.83    0.84   0.063
   16. BD ( 2) S  1- O  3      17. BD*( 1) S  1- O  2     14.72    1.03   0.110
   16. BD ( 2) S  1- O  3      19. BD*( 2) S  1- O  3      1.65    0.98   0.036


 NATURAL BOND ORBITALS (Summary):

                                                     Principal Delocalizations
           NBO                 Occupancy    Energy   (geminal,vicinal,remote)
 ===============================================================================
 Molecular unit  1  (O2S)
 ------ Lewis --------------------------------------
    1. CR ( 1) S  1             2.00000   -89.79496
    2. CR ( 2) S  1             2.00000   -10.13877
    3. CR ( 3) S  1             1.99997    -6.54062
    4. CR ( 4) S  1             1.99998    -6.54428
    5. CR ( 5) S  1             2.00000    -6.53973
    6. CR ( 1) O  2             2.00000   -19.99848
    7. CR ( 1) O  3             2.00000   -19.99848
    8. LP ( 1) S  1             2.00000    -0.72321  18(g),17(g)
    9. LP ( 1) O  2             2.00000    -1.11164  18(v),17(g),19(v)
   10. LP ( 2) O  2             1.93873    -0.38456  19(v),18(v),17(g)
   11. LP ( 3) O  2             1.26956    -0.19304  17(g),18(v),19(v)
   12. LP ( 1) O  3             2.00000    -1.11164
   13. LP ( 2) O  3             1.93873    -0.38456  17(v),19(g),18(g)
   14. BD ( 1) S  1- O  2       1.95353    -0.72099  18(g),19(g),17(g)
   15. BD ( 1) S  1- O  3       1.98573    -0.64071  18(g),17(g)
   16. BD ( 2) S  1- O  3       1.95975    -0.65905  17(g),19(g)
 ------ non-Lewis ----------------------------------
   17. BD*( 1) S  1- O  2       0.26389     0.37375
   18. BD*( 1) S  1- O  3       0.40475     0.20138
   19. BD*( 2) S  1- O  3       0.28540     0.32088
          -------------------------------
                 Total Lewis   31.04597  ( 97.0186%)
           Valence non-Lewis    0.95403  (  2.9814%)
           Rydberg non-Lewis    0.00000  (  0.0000%)
          -------------------------------
               Total unit  1   32.00000  (100.0000%)
              Charge unit  1    0.00000

 $CHOOSE
   LONE 1 1 2 3 3 2 END
   BOND S 1 2 D 1 3 END
 $END

 NBO analysis completed in 0.22 CPU seconds (0 wall seconds)
 Maximum scratch memory used by NBO was 264320 words (2.02 MB)
 Maximum scratch memory used by G16NBO was 8738 words (0.07 MB)

 Opening RunExU unformatted file "/cluster/work/users/beto93/mol54/Gau-1064288.EUF"
 Read unf file /cluster/work/users/beto93/mol54/Gau-1064288.EUF:
 Label Gaussian matrix elements                                         IVers= 2 NLab= 2 Version=ES64L-G16RevC.01
 Title mol54-NBO                                                       
 NAtoms=     3 NBasis=    19 NBsUse=    19 ICharg=     0 Multip=     1 NE=    32 Len12L=8 Len4L=8 IOpCl= 0 ICGU=111
 GAUSSIAN SCALARS                    NI= 1 NR= 1 NTot=       1 LenBuf=    2 NRI=1 N=    1000
 NPA CHARGES                         NI= 0 NR= 1 NTot=       3 LenBuf= 4000 NRI=1 N=       3
 Recovered energy= -540.625176446     dipole=     -0.000000000000     -0.000000000042      0.640529696618
 Unable to Open any file for archive entry.
 1\1\GINC-C1-36\SP\RHF\STO-3G\O2S1\BETO93\18-Nov-2024\0\\#RHF/STO-3G in
 t=nobasistransform Symmetry=None 5D 7F Pop=NBO7Read\\mol54-NBO\\0,1\S,
 0,0.,0.,0.370268\O,0,0.,1.277617,-0.370268\O,0,0.,-1.277617,-0.370268\
 \Version=ES64L-G16RevC.01\HF=-540.6251764\RMSD=3.306e-10\Dipole=0.,0.,
 0.6405297\Quadrupole=2.5850538,-3.2223203,0.6372665,0.,0.,0.\PG=Unknow
 n\\@
 The archive entry for this job was punched.


 ON A TOMBSTONE, "HERE LIES LESTER MOORE,
 FOUR SLUGS FROM A 44, NO LES, NO MORE".
 Job cpu time:       0 days  0 hours  0 minutes 12.4 seconds.
 Elapsed time:       0 days  0 hours  0 minutes  4.2 seconds.
 File lengths (MBytes):  RWF=     10 Int=      0 D2E=      0 Chk=      1 Scr=      1
 Normal termination of Gaussian 16 at Mon Nov 18 15:41:21 2024.
