 Entering Gaussian System, Link 0=g16
 Initial command:
 /cluster/software/Gaussian/g16_C.01/l1.exe "/cluster/work/users/beto93/LiOH/Gau-2325355.inp" -scrdir="/cluster/work/users/beto93/LiOH/"
 Entering Link 1 = /cluster/software/Gaussian/g16_C.01/l1.exe PID=   2325356.
  
 Copyright (c) 1988-2019, Gaussian, Inc.  All Rights Reserved.
  
 This is part of the Gaussian(R) 16 program.  It is based on
 the Gaussian(R) 09 system (copyright 2009, Gaussian, Inc.),
 the Gaussian(R) 03 system (copyright 2003, Gaussian, Inc.),
 the Gaussian(R) 98 system (copyright 1998, Gaussian, Inc.),
 the Gaussian(R) 94 system (copyright 1995, Gaussian, Inc.),
 the Gaussian 92(TM) system (copyright 1992, Gaussian, Inc.),
 the Gaussian 90(TM) system (copyright 1990, Gaussian, Inc.),
 the Gaussian 88(TM) system (copyright 1988, Gaussian, Inc.),
 the Gaussian 86(TM) system (copyright 1986, Carnegie Mellon
 University), and the Gaussian 82(TM) system (copyright 1983,
 Carnegie Mellon University). Gaussian is a federally registered
 trademark of Gaussian, Inc.
  
 This software contains proprietary and confidential information,
 including trade secrets, belonging to Gaussian, Inc.
  
 This software is provided under written license and may be
 used, copied, transmitted, or stored only in accord with that
 written license.
  
 The following legend is applicable only to US Government
 contracts under FAR:
  
                    RESTRICTED RIGHTS LEGEND
  
 Use, reproduction and disclosure by the US Government is
 subject to restrictions as set forth in subparagraphs (a)
 and (c) of the Commercial Computer Software - Restricted
 Rights clause in FAR 52.227-19.
  
 Gaussian, Inc.
 340 Quinnipiac St., Bldg. 40, Wallingford CT 06492
  
  
 ---------------------------------------------------------------
 Warning -- This program may not be used in any manner that
 competes with the business of Gaussian, Inc. or will provide
 assistance to any competitor of Gaussian, Inc.  The licensee
 of this program is prohibited from giving any competitor of
 Gaussian, Inc. access to this program.  By using this program,
 the user acknowledges that Gaussian, Inc. is engaged in the
 business of creating and licensing software in the field of
 computational chemistry and represents and warrants to the
 licensee that it is not a competitor of Gaussian, Inc. and that
 it will not use this program in any manner prohibited above.
 ---------------------------------------------------------------
  

 Cite this work as:
 Gaussian 16, Revision C.01,
 M. J. Frisch, G. W. Trucks, H. B. Schlegel, G. E. Scuseria, 
 M. A. Robb, J. R. Cheeseman, G. Scalmani, V. Barone, 
 G. A. Petersson, H. Nakatsuji, X. Li, M. Caricato, A. V. Marenich, 
 J. Bloino, B. G. Janesko, R. Gomperts, B. Mennucci, H. P. Hratchian, 
 J. V. Ortiz, A. F. Izmaylov, J. L. Sonnenberg, D. Williams-Young, 
 F. Ding, F. Lipparini, F. Egidi, J. Goings, B. Peng, A. Petrone, 
 T. Henderson, D. Ranasinghe, V. G. Zakrzewski, J. Gao, N. Rega, 
 G. Zheng, W. Liang, M. Hada, M. Ehara, K. Toyota, R. Fukuda, 
 J. Hasegawa, M. Ishida, T. Nakajima, Y. Honda, O. Kitao, H. Nakai, 
 T. Vreven, K. Throssell, J. A. Montgomery, Jr., J. E. Peralta, 
 F. Ogliaro, M. J. Bearpark, J. J. Heyd, E. N. Brothers, K. N. Kudin, 
 V. N. Staroverov, T. A. Keith, R. Kobayashi, J. Normand, 
 K. Raghavachari, A. P. Rendell, J. C. Burant, S. S. Iyengar, 
 J. Tomasi, M. Cossi, J. M. Millam, M. Klene, C. Adamo, R. Cammi, 
 J. W. Ochterski, R. L. Martin, K. Morokuma, O. Farkas, 
 J. B. Foresman, and D. J. Fox, Gaussian, Inc., Wallingford CT, 2019.
 
 ******************************************
 Gaussian 16:  ES64L-G16RevC.01  3-Jul-2019
                24-Jul-2024 
 ******************************************
 %LindaWorkers=c1-4-ib
 %NProcShared=4
 Will use up to    4 processors via shared memory.
 %mem=25GB
 %chk=LiOH.chk
 SetLPE:    new flags="-opt 'Tsnet.Node.lindarsharg: ssh'  -nodelist 'c1-4-ib.saga' -env GAUSS_MDEF=3355443200 -env GAUSS_EXEDIR="/cluster/software/Gaussian/g16_C.01/bsd:/cluster/software/Gaussian/g16_C.01""
 Will use up to    1 processors via Linda.
 -----------------------------------
 #Opt=VTight RHF/STO-3G Pop=NBO7Read
 -----------------------------------
 1/7=1,18=20,19=15,38=1,163=2/1,3;
 2/9=110,12=2,17=6,18=5,40=1/2;
 3/6=3,11=1,25=1,30=1,71=1,116=1/1,2,3;
 4//1;
 5/5=2,38=5/2;
 6/7=2,8=2,9=2,10=2,28=1,40=2,113=1,114=1,124=2103/1,12;
 7//1,2,3,16;
 1/7=1,18=20,19=15/3(2);
 2/9=110/2;
 99//99;
 2/9=110/2;
 3/6=3,11=1,25=1,30=1,71=1,116=1/1,2,3;
 4/5=5,16=3,69=1/1;
 5/5=2,38=5/2;
 7//1,2,3,16;
 1/7=1,18=20,19=15/3(-5);
 2/9=110/2;
 6/7=2,8=2,9=2,10=2,19=2,28=1,40=2,113=1,114=1,124=2103/1,12;
 99/9=1/99;
 --------
 NBO-LiOH
 --------
 Symbolic Z-matrix:
 Charge =  0 Multiplicity = 1
 O                     0.        0.        0. 
 Li                    0.        0.        1.432 
 H                     0.        0.       -0.971 
 

 GradGradGradGradGradGradGradGradGradGradGradGradGradGradGradGradGradGrad
 Berny optimization.
 Initialization pass.
                           ----------------------------
                           !    Initial Parameters    !
                           ! (Angstroms and Degrees)  !
 --------------------------                            --------------------------
 ! Name  Definition              Value          Derivative Info.                !
 --------------------------------------------------------------------------------
 ! R1    R(1,2)                  1.432          estimate D2E/DX2                !
 ! R2    R(1,3)                  0.971          estimate D2E/DX2                !
 ! A1    L(2,1,3,-1,-1)        180.0            estimate D2E/DX2                !
 ! A2    L(2,1,3,-2,-2)        180.0            estimate D2E/DX2                !
 --------------------------------------------------------------------------------
 Trust Radius=3.00D-01 FncErr=1.00D-07 GrdErr=1.00D-07 EigMax=2.50D+02 EigMin=1.00D-04
 Number of steps in this run=     20 maximum allowed number of steps=    100.
 GradGradGradGradGradGradGradGradGradGradGradGradGradGradGradGradGradGrad

                          Input orientation:                          
 ---------------------------------------------------------------------
 Center     Atomic      Atomic             Coordinates (Angstroms)
 Number     Number       Type             X           Y           Z
 ---------------------------------------------------------------------
      1          8           0        0.000000    0.000000    0.000000
      2          3           0        0.000000    0.000000    1.432000
      3          1           0        0.000000    0.000000   -0.971000
 ---------------------------------------------------------------------
                    Distance matrix (angstroms):
                    1          2          3
     1  O    0.000000
     2  Li   1.432000   0.000000
     3  H    0.971000   2.403000   0.000000
 Stoichiometry    HLiO
 Framework group  C*V[C*(LiOH)]
 Deg. of freedom     2
 Full point group                 C*V     NOp   4
 Largest Abelian subgroup         C2V     NOp   4
 Largest concise Abelian subgroup C1      NOp   1
                         Standard orientation:                         
 ---------------------------------------------------------------------
 Center     Atomic      Atomic             Coordinates (Angstroms)
 Number     Number       Type             X           Y           Z
 ---------------------------------------------------------------------
      1          8           0        0.000000    0.000000    0.277083
      2          3           0        0.000000    0.000000   -1.154917
      3          1           0        0.000000    0.000000    1.248083
 ---------------------------------------------------------------------
 Rotational constants (GHZ):           0.0000000          42.4201829          42.4201829
 Standard basis: STO-3G (5D, 7F)
 There are     7 symmetry adapted cartesian basis functions of A1  symmetry.
 There are     0 symmetry adapted cartesian basis functions of A2  symmetry.
 There are     2 symmetry adapted cartesian basis functions of B1  symmetry.
 There are     2 symmetry adapted cartesian basis functions of B2  symmetry.
 There are     7 symmetry adapted basis functions of A1  symmetry.
 There are     0 symmetry adapted basis functions of A2  symmetry.
 There are     2 symmetry adapted basis functions of B1  symmetry.
 There are     2 symmetry adapted basis functions of B2  symmetry.
    11 basis functions,    33 primitive gaussians,    11 cartesian basis functions
     6 alpha electrons        6 beta electrons
       nuclear repulsion energy        13.8893909467 Hartrees.
 NAtoms=    3 NActive=    3 NUniq=    3 SFac= 1.00D+00 NAtFMM=   60 NAOKFM=F Big=F
 Integral buffers will be    131072 words long.
 Raffenetti 1 integral format.
 Two-electron integral symmetry is turned on.
 One-electron integrals computed using PRISM.
 NBasis=    11 RedAO= T EigKep=  3.45D-01  NBF=     7     0     2     2
 NBsUse=    11 1.00D-06 EigRej= -1.00D+00 NBFU=     7     0     2     2
 ExpMin= 4.81D-02 ExpMax= 1.31D+02 ExpMxC= 1.31D+02 IAcc=3 IRadAn=         5 AccDes= 0.00D+00
 Harris functional with IExCor=  205 and IRadAn=       5 diagonalized for initial guess.
 HarFok:  IExCor=  205 AccDes= 0.00D+00 IRadAn=         5 IDoV= 1 UseB2=F ITyADJ=14
 ICtDFT=  3500011 ScaDFX=  1.000000  1.000000  1.000000  1.000000
 FoFCou: FMM=F IPFlag=           0 FMFlag=      100000 FMFlg1=           0
         NFxFlg=           0 DoJE=T BraDBF=F KetDBF=T FulRan=T
         wScrn=  0.000000 ICntrl=       500 IOpCl=  0 I1Cent=   200000004 NGrid=           0
         NMat0=    1 NMatS0=      1 NMatT0=    0 NMatD0=    1 NMtDS0=    0 NMtDT0=    0
 Petite list used in FoFCou.
 Initial guess orbital symmetries:
       Occupied  (SG) (SG) (SG) (SG) (PI) (PI)
       Virtual   (SG) (PI) (PI) (SG) (SG)
 The electronic state of the initial guess is 1-SG.
 Keep R1 ints in memory in symmetry-blocked form, NReq=806043.
 Requested convergence on RMS density matrix=1.00D-08 within 128 cycles.
 Requested convergence on MAX density matrix=1.00D-06.
 Requested convergence on             energy=1.00D-06.
 No special actions if energy rises.
 SCF Done:  E(RHF) =  -81.7685651326     A.U. after   10 cycles
            NFock= 10  Conv=0.12D-08     -V/T= 2.0072

 **********************************************************************

            Population analysis using the SCF Density.

 **********************************************************************

 Orbital symmetries:
       Occupied  (SG) (SG) (SG) (SG) (PI) (PI)
       Virtual   (SG) (PI) (PI) (SG) (SG)
 The electronic state is 1-SG.
 Alpha  occ. eigenvalues --  -20.20139  -2.29784  -1.15264  -0.50953  -0.32328
 Alpha  occ. eigenvalues --   -0.32328
 Alpha virt. eigenvalues --    0.10543   0.26716   0.26716   0.39859   0.77847
          Condensed to atoms (all electrons):
               1          2          3
     1  O    7.687428   0.371132   0.284670
     2  Li   0.371132   2.533746  -0.081651
     3  H    0.284670  -0.081651   0.630524
 Mulliken charges:
               1
     1  O   -0.343230
     2  Li   0.176773
     3  H    0.166457
 Sum of Mulliken charges =  -0.00000
 Mulliken charges with hydrogens summed into heavy atoms:
               1
     1  O   -0.176773
     2  Li   0.176773
 Electronic spatial extent (au):  <R**2>=             37.4179
 Charge=             -0.0000 electrons
 Dipole moment (field-independent basis, Debye):
    X=              0.0000    Y=              0.0000    Z=             -1.4728  Tot=              1.4728
 Quadrupole moment (field-independent basis, Debye-Ang):
   XX=             -9.3637   YY=             -9.3637   ZZ=             -1.9488
   XY=              0.0000   XZ=              0.0000   YZ=              0.0000
 Traceless Quadrupole moment (field-independent basis, Debye-Ang):
   XX=             -2.4717   YY=             -2.4717   ZZ=              4.9433
   XY=              0.0000   XZ=              0.0000   YZ=              0.0000
 Octapole moment (field-independent basis, Debye-Ang**2):
  XXX=              0.0000  YYY=              0.0000  ZZZ=             -0.9332  XYY=              0.0000
  XXY=              0.0000  XXZ=              1.7928  XZZ=              0.0000  YZZ=              0.0000
  YYZ=              1.7928  XYZ=              0.0000
 Hexadecapole moment (field-independent basis, Debye-Ang**3):
 XXXX=            -15.1960 YYYY=            -15.1960 ZZZZ=            -20.8653 XXXY=              0.0000
 XXXZ=              0.0000 YYYX=              0.0000 YYYZ=              0.0000 ZZZX=              0.0000
 ZZZY=              0.0000 XXYY=             -5.0653 XXZZ=             -8.9042 YYZZ=             -8.9042
 XXYZ=              0.0000 YYXZ=              0.0000 ZZXY=              0.0000
 N-N= 1.388939094668D+01 E-N=-2.228813984698D+02  KE= 8.118138610032D+01
 Symmetry A1   KE= 7.297634856461D+01
 Symmetry A2   KE= 0.000000000000D+00
 Symmetry B1   KE= 4.102518767855D+00
 Symmetry B2   KE= 4.102518767855D+00
 Running external command "gaunbo7 R"
         input file       "/cluster/work/users/beto93/LiOH/Gau-2325356.EIn"
         output file      "/cluster/work/users/beto93/LiOH/Gau-2325356.EOu"
         message file     "/cluster/work/users/beto93/LiOH/Gau-2325356.EMs"
         fchk file        "/cluster/work/users/beto93/LiOH/Gau-2325356.EFC"
         mat. el file     "/cluster/work/users/beto93/LiOH/Gau-2325356.EUF"

 Writing WrtUnf unformatted file "/cluster/work/users/beto93/LiOH/Gau-2325356.EUF"
 Gaussian matrix elements                                         Version   2 NLab=11 Len12L=8 Len4L=8
 Write SHELL TO ATOM MAP                   from file      0 offset           0 length                   5 to matrix element file.
 Write SHELL TYPES                         from file      0 offset           0 length                   5 to matrix element file.
 Write NUMBER OF PRIMITIVES PER SHELL      from file      0 offset           0 length                   5 to matrix element file.
 Write PRIMITIVE EXPONENTS                 from file      0 offset           0 length                  15 to matrix element file.
 Write CONTRACTION COEFFICIENTS            from file      0 offset           0 length                  15 to matrix element file.
 Write P(S=P) CONTRACTION COEFFICIENTS     from file      0 offset           0 length                  15 to matrix element file.
 Write COORDINATES OF EACH SHELL           from file      0 offset           0 length                  15 to matrix element file.
 Write BONDS PER ATOM                      from file      0 offset           0 length                   3 to matrix element file.
 Write BONDED ATOMS                        from file      0 offset           0 length                   4 to matrix element file.
 Write BOND TYPES                          from file      0 offset           0 length                   4 to matrix element file.
 Write ONIOM CHARGE/MULT                   from file      0 offset           0 length                  32 to matrix element file.
 Write ONIOM ATOM LAYERS                   from file      0 offset           0 length                   3 to matrix element file.
 Write ONIOM ATOM MODIFIERS                from file      0 offset           0 length                   3 to matrix element file.
 Write ONIOM ATOM TYPES                    from file      0 offset           0 length                   3 to matrix element file.
 Write ONIOM LINK ATOMS                    from file      0 offset           0 length                   3 to matrix element file.
 Write ONIOM LINK CHARGES                  from file      0 offset           0 length                   3 to matrix element file.
 Write ONIOM LINK DISTANCES                from file      0 offset           0 length                  12 to matrix element file.
 Write SYMINF INTS                         from file      0 offset           0 length                  26 to matrix element file.
 Write ROTTR TO SO                         from file      0 offset           0 length                  12 to matrix element file.
 Write GAUSSIAN SCALARS                    from file    501 offset           0 to matrix element file.
 Write OPTIMIZATION FLAGS                  from file      0 offset           0 length                   3 to matrix element file.
 Write INTEGER ISO                         from file      0 offset           0 length                   3 to matrix element file.
 Write INTEGER SPIN                        from file      0 offset           0 length                   3 to matrix element file.
 Write REAL ZEFFECTIVE                     from file      0 offset           0 length                   3 to matrix element file.
 Write REAL QUADRUPOLEMOMENT               from file      0 offset           0 length                   3 to matrix element file.
 Write REAL GFACTOR                        from file      0 offset           0 length                   3 to matrix element file.
 Write REAL ZNUCLEAR                       from file      0 offset           0 length                   3 to matrix element file.
 Write MULLIKEN CHARGES                    from file      0 offset           0 length                   3 to matrix element file.
 Write NUCLEAR GRADIENT                    from file  10584 offset           0 length                   9 to matrix element file.
 Array NUCLEAR FORCE CONSTANTS              on  file  10585 does not exist.
 Write ELECTRIC DIPOLE MOMENT              from file      0 offset           0 length                   3 to matrix element file.
 Write NON-ADIABATIC COUPLING              from file  10810 offset           0 length                   9 to matrix element file.
 Write RED INT COORD DIMS                  from file      0 offset           0 length                   4 to matrix element file.
 Write RED INT COORD ATOMS                 from file      0 offset           0 length                  16 to matrix element file.
 Write RED INT COORD VALS                  from file      0 offset           0 length                   4 to matrix element file.
 Write RED INT COORD IFLAGS                from file      0 offset           0 length                   4 to matrix element file.
 Write RED INT COORD RFLAGS                from file      0 offset           0 length                   4 to matrix element file.
 Write RED INT COORD CONSTRAINT            from file      0 offset           0 length                   8 to matrix element file.
 Write FINITE EM FIELD                     from file  10521 offset           0 length                  35 to matrix element file.
 Write OVERLAP                             from file  10514 offset           0 length                  66 to matrix element file.
 Write CORE HAMILTONIAN ALPHA              from file  10515 offset           0 length                  66 to matrix element file.
 Write CORE HAMILTONIAN BETA               from file  10515 offset          66 length                  66 to matrix element file.
 Write KINETIC ENERGY                      from file  10516 offset           0 length                  66 to matrix element file.
 Write ORTHOGONAL BASIS                    from file  10685 offset           0 length                 121 to matrix element file.
 Write DIPOLE INTEGRALS                    from file  10518 offset           0 length                 198 to matrix element file.
 Array DIP VEL INTEGRALS                    on  file  10572 does not exist.
 Array R X DEL INTEGRALS                    on  file  10572 does not exist.
 Write ALPHA ORBITAL ENERGIES              from file      0 offset           0 length                  11 to matrix element file.
 Write ALPHA MO COEFFICIENTS               from file  10524 offset           0 length                 121 to matrix element file.
 Write ALPHA DENSITY MATRIX                from file      0 offset           0 length                  66 to matrix element file.
 Write ALPHA FOCK MATRIX                   from file  10536 offset           0 length                  66 to matrix element file.
 Write ENERGY-WEIGHTED DENSITY             from file  10571 offset           0 length                  66 to matrix element file.
 Write ALPHA SCF DENSITY MATRIX            from file      0 offset           0 length                  66 to matrix element file.
 No 2e integrals to process.
 Perform NBO analysis...executing G16NBO...

 *********************************** NBO 7.0 ***********************************
             N A T U R A L   A T O M I C   O R B I T A L   A N D
          N A T U R A L   B O N D   O R B I T A L   A N A L Y S I S
 **************************** Espen Tangen (S101595) ***************************
  (c) Copyright 1996-2021 Board of Regents of the University of Wisconsin System
      on behalf of the Theoretical Chemistry Institute.  All rights reserved.

          Cite this program [NBO 7.0.10 (8-Feb-2021)] as:

          NBO 7.0.  E. D. Glendening, J. K. Badenhoop, A. E. Reed,
          J. E. Carpenter, J. A. Bohmann, C. M. Morales, P. Karafiloglou,
          C. R. Landis, and F. Weinhold, Theoretical Chemistry Institute,
          University of Wisconsin, Madison, WI (2018)

       /NPA    / : Natural Population Analysis
       /AOPNAO / : Print the AO to PNAO transformation
       /AONAO  / : Print the AO to NAO transformation
       /AONO   / : Print the NOs in the AO basis
       /AOMO   / : Print the MOs in the AO basis
       /BOAO   / : Print the AO bond-order matrix
       /DMAO   / : Print the AO density matrix
       /DMPNAO / : Print the PNAO density matrix
       /DMNAO  / : Print the NAO density matrix
       /DMMO   / : Print the MO density matrix
       /SAO    / : Print the AO overlap matrix
       /SPNAO  / : Print the PNAO overlap matrix
       /DETAIL / : Write details of NBO search
       /ARCHIVE/ : Write the archive file to lfn47
       /AOINFO / : Write AO information to lfn31
       /FILE   / : Set to LiOH

 Filename set to LiOH

 Job title: NBO-LiOH


 MOs in the AO basis:

           AO          1       2       3       4       5       6       7       8
      ------------ ------- ------- ------- ------- ------- ------- ------- -------
   1.  O 1 (s)      0.9941 -0.0109 -0.2416  0.0665  0.0000  0.0000  0.0208  0.0000
   2.  O 1 (s)      0.0270  0.0362  0.8862 -0.3118  0.0000  0.0000 -0.1041  0.0000
   3.  O 1 (px)     0.0000  0.0000  0.0000  0.0000  0.0000  0.8856  0.0000  0.0000
   4.  O 1 (py)     0.0000  0.0000  0.0000  0.0000  0.8856  0.0000  0.0000 -0.5059
   5.  O 1 (pz)     0.0013 -0.0237  0.0719  0.6574  0.0000  0.0000  0.0470  0.0000
   6. Li 2 (s)     -0.0004  0.9855 -0.0972  0.1533  0.0000  0.0000 -0.2378  0.0000
   7. Li 2 (s)     -0.0041  0.0327  0.0305 -0.1499  0.0000  0.0000  0.9099  0.0000
   8. Li 2 (px)     0.0000  0.0000  0.0000  0.0000  0.0000  0.3218  0.0000  0.0000
   9. Li 2 (py)     0.0000  0.0000  0.0000  0.0000  0.3218  0.0000  0.0000  0.9679
  10. Li 2 (pz)    -0.0052 -0.0081  0.0312 -0.1642  0.0000  0.0000 -0.4722  0.0000
  11.  H 3 (s)     -0.0046 -0.0013  0.1931  0.5272  0.0000  0.0000  0.0234  0.0000

           AO          9      10      11
      ------------ ------- ------- -------
   1.  O 1 (s)      0.0000  0.1345  0.0420
   2.  O 1 (s)      0.0000 -0.9639 -0.2278
   3.  O 1 (px)    -0.5059  0.0000  0.0000
   4.  O 1 (py)     0.0000  0.0000  0.0000
   5.  O 1 (pz)     0.0000  0.0186 -0.9684
   6. Li 2 (s)      0.0000 -0.0857 -0.0217
   7. Li 2 (s)      0.0000  0.6031 -0.3486
   8. Li 2 (px)     0.9679  0.0000  0.0000
   9. Li 2 (py)     0.0000  0.0000  0.0000
  10. Li 2 (pz)     0.0000  1.0130 -0.4977
  11.  H 3 (s)      0.0000  0.2833  1.1477


 NOs in the AO basis:

           AO          1       2       3       4       5       6       7       8
      ------------ ------- ------- ------- ------- ------- ------- ------- -------
   1.  O 1 (s)      0.7826  0.5781  0.0445 -0.2466 -0.1990  0.0456  0.0144  0.0067
   2.  O 1 (s)     -0.0434  0.0583 -0.4302  0.8265 -0.0877 -0.0593 -0.0581 -0.0523
   3.  O 1 (px)     0.4332 -0.5589 -0.1182  0.0485  0.1094  0.5060 -0.2941  0.3506
   4.  O 1 (py)    -0.0547  0.3430 -0.0683  0.0368  0.7751  0.2385  0.0304  0.0791
   5.  O 1 (pz)     0.2421 -0.2136 -0.0055 -0.1534  0.2685 -0.4879 -0.0876  0.4258
   6. Li 2 (s)     -0.1091 -0.0005 -0.8222 -0.5597 -0.0422 -0.0363 -0.1880 -0.1331
   7. Li 2 (s)     -0.0598  0.0446 -0.0433  0.0623 -0.0607  0.0974  0.6486  0.7111
   8. Li 2 (px)     0.1574 -0.2030 -0.0429  0.0176  0.0398  0.1838  0.5626 -0.6707
   9. Li 2 (py)    -0.0199  0.1246 -0.0248  0.0134  0.2816  0.0867 -0.0581 -0.1514
  10. Li 2 (pz)    -0.0592  0.0467 -0.0078  0.0855 -0.0620  0.1056 -0.4983  0.0292
  11.  H 3 (s)      0.1949 -0.1827 -0.0797 -0.0179  0.2219 -0.4336  0.1498 -0.4323

           AO          9      10      11
      ------------ ------- ------- -------
   1.  O 1 (s)      0.0016  0.0582  0.1290
   2.  O 1 (s)     -0.0270 -0.4679 -0.8752
   3.  O 1 (px)    -0.0176 -0.1900  0.1007
   4.  O 1 (py)    -0.4823  0.1153 -0.0535
   5.  O 1 (pz)     0.2697  0.5937 -0.5712
   6. Li 2 (s)     -0.0239 -0.0071 -0.1034
   7. Li 2 (s)      0.2315  0.4669  0.3395
   8. Li 2 (px)     0.0336  0.3634 -0.1926
   9. Li 2 (py)     0.9227 -0.2206  0.1024
  10. Li 2 (pz)     0.1733  1.0253  0.4077
  11.  H 3 (s)     -0.2869 -0.5183  0.9152


 AO overlap matrix:

           AO          1       2       3       4       5       6       7       8
      ------------ ------- ------- ------- ------- ------- ------- ------- -------
   1.  O 1 (s)      1.0000  0.2367  0.0000  0.0000  0.0000  0.0007  0.0377  0.0000
   2.  O 1 (s)      0.2367  1.0000  0.0000  0.0000  0.0000  0.0658  0.3478  0.0000
   3.  O 1 (px)     0.0000  0.0000  1.0000  0.0000  0.0000  0.0000  0.0000  0.1968
   4.  O 1 (py)     0.0000  0.0000  0.0000  1.0000  0.0000  0.0000  0.0000  0.0000
   5.  O 1 (pz)     0.0000  0.0000  0.0000  0.0000  1.0000 -0.1056 -0.1251  0.0000
   6. Li 2 (s)      0.0007  0.0658  0.0000  0.0000 -0.1056  1.0000  0.2411  0.0000
   7. Li 2 (s)      0.0377  0.3478  0.0000  0.0000 -0.1251  0.2411  1.0000  0.0000
   8. Li 2 (px)     0.0000  0.0000  0.1968  0.0000  0.0000  0.0000  0.0000  1.0000
   9. Li 2 (py)     0.0000  0.0000  0.0000  0.1968  0.0000  0.0000  0.0000  0.0000
  10. Li 2 (pz)     0.0639  0.4977  0.0000  0.0000 -0.1177  0.0000  0.0000  0.0000
  11.  H 3 (s)      0.0522  0.4658  0.0000  0.0000  0.3886  0.0105  0.2150  0.0000

           AO          9      10      11
      ------------ ------- ------- -------
   1.  O 1 (s)      0.0000  0.0639  0.0522
   2.  O 1 (s)      0.0000  0.4977  0.4658
   3.  O 1 (px)     0.0000  0.0000  0.0000
   4.  O 1 (py)     0.1968  0.0000  0.0000
   5.  O 1 (pz)     0.0000 -0.1177  0.3886
   6. Li 2 (s)      0.0000  0.0000  0.0105
   7. Li 2 (s)      0.0000  0.0000  0.2150
   8. Li 2 (px)     0.0000  0.0000  0.0000
   9. Li 2 (py)     1.0000  0.0000  0.0000
  10. Li 2 (pz)     0.0000  1.0000  0.3196
  11.  H 3 (s)      0.0000  0.3196  1.0000


 AO bond-order matrix:

           AO          1       2       3       4       5       6       7       8
      ------------ ------- ------- ------- ------- ------- ------- ------- -------
   1.  O 1 (s)      2.1024 -0.4168  0.0000  0.0000  0.0558  0.0451 -0.0435  0.0000
   2.  O 1 (s)     -0.4168  1.7691  0.0000  0.0000 -0.2841 -0.1966  0.1496  0.0000
   3.  O 1 (px)     0.0000  0.0000  1.5687  0.0000  0.0000  0.0000  0.0000  0.5699
   4.  O 1 (py)     0.0000  0.0000  0.0000  1.5687  0.0000  0.0000  0.0000  0.0000
   5.  O 1 (pz)     0.0558 -0.2841  0.0000  0.0000  0.8759  0.1409 -0.1943  0.0000
   6. Li 2 (s)      0.0451 -0.1966  0.0000  0.0000  0.1409  2.0085  0.0126  0.0000
   7. Li 2 (s)     -0.0435  0.1496  0.0000  0.0000 -0.1943  0.0126  0.0490  0.0000
   8. Li 2 (px)     0.0000  0.0000  0.5699  0.0000  0.0000  0.0000  0.0000  0.2071
   9. Li 2 (py)     0.0000  0.0000  0.0000  0.5699  0.0000  0.0000  0.0000  0.0000
  10. Li 2 (pz)    -0.0472  0.1569  0.0000  0.0000 -0.2111 -0.0725  0.0507  0.0000
  11.  H 3 (s)     -0.0323  0.0132  0.0000  0.0000  0.7211  0.1216 -0.1463  0.0000

           AO          9      10      11
      ------------ ------- ------- -------
   1.  O 1 (s)      0.0000 -0.0472 -0.0323
   2.  O 1 (s)      0.0000  0.1569  0.0132
   3.  O 1 (px)     0.0000  0.0000  0.0000
   4.  O 1 (py)     0.5699  0.0000  0.0000
   5.  O 1 (pz)     0.0000 -0.2111  0.7211
   6. Li 2 (s)      0.0000 -0.0725  0.1216
   7. Li 2 (s)      0.0000  0.0507 -0.1463
   8. Li 2 (px)     0.0000  0.0000  0.0000
   9. Li 2 (py)     0.2071  0.0000  0.0000
  10. Li 2 (pz)     0.0000  0.0561 -0.1610
  11.  H 3 (s)      0.0000 -0.1610  0.6305


 AO density matrix:

           AO          1       2       3       4       5       6       7       8
      ------------ ------- ------- ------- ------- ------- ------- ------- -------
   1.  O 1 (s)      1.9998  0.4754  0.0000  0.0000  0.0035  0.0016  0.0682  0.0000
   2.  O 1 (s)      0.4754  1.9764  0.0000  0.0000 -0.0543  0.1292  0.7825  0.0000
   3.  O 1 (px)     0.0000  0.0000  1.8010  0.0000  0.0000  0.0000  0.0000  0.9414
   4.  O 1 (py)     0.0000  0.0000  0.0000  1.8010  0.0000  0.0000  0.0000  0.0000
   5.  O 1 (pz)     0.0035 -0.0543  0.0000  0.0000  1.6431 -0.2154 -0.3055  0.0000
   6. Li 2 (s)      0.0016  0.1292  0.0000  0.0000 -0.2154  1.9981  0.5320  0.0000
   7. Li 2 (s)      0.0682  0.7825  0.0000  0.0000 -0.3055  0.5320  0.4661  0.0000
   8. Li 2 (px)     0.0000  0.0000  0.9414  0.0000  0.0000  0.0000  0.0000  0.4921
   9. Li 2 (py)     0.0000  0.0000  0.0000  0.9414  0.0000  0.0000  0.0000  0.0000
  10. Li 2 (pz)     0.1192  1.0740  0.0000  0.0000 -0.2463 -0.0295  0.4420  0.0000
  11.  H 3 (s)      0.0966  1.0350  0.0000  0.0000  1.1719  0.0303  0.2383  0.0000

           AO          9      10      11
      ------------ ------- ------- -------
   1.  O 1 (s)      0.0000  0.1192  0.0966
   2.  O 1 (s)      0.0000  1.0740  1.0350
   3.  O 1 (px)     0.0000  0.0000  0.0000
   4.  O 1 (py)     0.9414  0.0000  0.0000
   5.  O 1 (pz)     0.0000 -0.2463  1.1719
   6. Li 2 (s)      0.0000 -0.0295  0.0303
   7. Li 2 (s)      0.0000  0.4420  0.2383
   8. Li 2 (px)     0.0000  0.0000  0.0000
   9. Li 2 (py)     0.4921  0.0000  0.0000
  10. Li 2 (pz)     0.0000  0.6308  0.4082
  11.  H 3 (s)      0.0000  0.4082  1.4408


 MO density matrix:

      MO     1       2       3       4       5       6       7       8       9
     ---- ------  ------  ------  ------  ------  ------  ------  ------  ------
   1.     2.0000  0.0000  0.0000  0.0000  0.0000  0.0000  0.0000  0.0000  0.0000
   2.     0.0000  2.0000  0.0000  0.0000  0.0000  0.0000  0.0000  0.0000  0.0000
   3.     0.0000  0.0000  2.0000  0.0000  0.0000  0.0000  0.0000  0.0000  0.0000
   4.     0.0000  0.0000  0.0000  2.0000  0.0000  0.0000  0.0000  0.0000  0.0000
   5.     0.0000  0.0000  0.0000  0.0000  2.0000  0.0000  0.0000  0.0000  0.0000
   6.     0.0000  0.0000  0.0000  0.0000  0.0000  2.0000  0.0000  0.0000  0.0000
   7.     0.0000  0.0000  0.0000  0.0000  0.0000  0.0000  0.0000  0.0000  0.0000
   8.     0.0000  0.0000  0.0000  0.0000  0.0000  0.0000  0.0000  0.0000  0.0000
   9.     0.0000  0.0000  0.0000  0.0000  0.0000  0.0000  0.0000  0.0000  0.0000
  10.     0.0000  0.0000  0.0000  0.0000  0.0000  0.0000  0.0000  0.0000  0.0000
  11.     0.0000  0.0000  0.0000  0.0000  0.0000  0.0000  0.0000  0.0000  0.0000

      MO    10      11
     ---- ------  ------
   1.     0.0000  0.0000
   2.     0.0000  0.0000
   3.     0.0000  0.0000
   4.     0.0000  0.0000
   5.     0.0000  0.0000
   6.     0.0000  0.0000
   7.     0.0000  0.0000
   8.     0.0000  0.0000
   9.     0.0000  0.0000
  10.     0.0000  0.0000
  11.     0.0000  0.0000


 NATURAL POPULATIONS:  Natural atomic orbital occupancies

  NAO Atom No lang   Type(AO)    Occupancy      Energy
 -------------------------------------------------------
   1    O  1  s      Cor( 1s)     1.99999     -20.13518
   2    O  1  s      Val( 2s)     1.83041      -1.02119
   3    O  1  px     Val( 2p)     1.80096      -0.26452
   4    O  1  py     Val( 2p)     1.80096      -0.26452
   5    O  1  pz     Val( 2p)     1.32465      -0.08882

   6   Li  2  s      Cor( 1s)     1.99973      -2.29545
   7   Li  2  s      Val( 2s)     0.03839       0.14052
   8   Li  2  px     Ryd( 2p)     0.19904       0.20840
   9   Li  2  py     Ryd( 2p)     0.19904       0.20840
  10   Li  2  pz     Ryd( 2p)     0.03678       0.39990

  11    H  3  s      Val( 1s)     0.77005       0.12134


 Summary of Natural Population Analysis:

                                     Natural Population
             Natural    ---------------------------------------------
  Atom No    Charge        Core      Valence    Rydberg      Total
 --------------------------------------------------------------------
    O  1   -0.75697      1.99999     6.75697    0.00000     8.75697
   Li  2    0.52702      1.99973     0.03839    0.43487     2.47298
    H  3    0.22995      0.00000     0.77005    0.00000     0.77005
 ====================================================================
 * Total *  0.00000      3.99972     7.56541    0.43487    12.00000

                                 Natural Population
 ---------------------------------------------------------
   Core                       3.99972 ( 99.9930% of    4)
   Valence                    7.56541 ( 94.5676% of    8)
   Natural Minimal Basis     11.56513 ( 96.3761% of   12)
   Natural Rydberg Basis      0.43487 (  3.6239% of   12)
 ---------------------------------------------------------

    Atom No         Natural Electron Configuration
 ----------------------------------------------------------------------------
      O  1      [core]2s( 1.83)2p( 4.93)
     Li  2      [core]2s( 0.04)2p( 0.43)
      H  3            1s( 0.77)


 PNAOs in the AO basis:

           AO          1       2       3       4       5       6       7       8
      ------------ ------- ------- ------- ------- ------- ------- ------- -------
   1.  O 1 (s)      0.9777 -0.3217  0.0000  0.0000  0.0000  0.0000  0.0000  0.0000
   2.  O 1 (s)      0.0811  1.0260  0.0000  0.0000  0.0000  0.0000  0.0000  0.0000
   3.  O 1 (px)     0.0000  0.0000  1.0000  0.0000  0.0000  0.0000  0.0000  0.0000
   4.  O 1 (py)     0.0000  0.0000  0.0000  1.0000  0.0000  0.0000  0.0000  0.0000
   5.  O 1 (pz)     0.0000  0.0000  0.0000  0.0000  1.0000  0.0000  0.0000  0.0000
   6. Li 2 (s)      0.0000  0.0000  0.0000  0.0000  0.0000  0.9918 -0.2796  0.0000
   7. Li 2 (s)      0.0000  0.0000  0.0000  0.0000  0.0000  0.0322  1.0299  0.0000
   8. Li 2 (px)     0.0000  0.0000  0.0000  0.0000  0.0000  0.0000  0.0000  1.0000
   9. Li 2 (py)     0.0000  0.0000  0.0000  0.0000  0.0000  0.0000  0.0000  0.0000
  10. Li 2 (pz)     0.0000  0.0000  0.0000  0.0000  0.0000  0.0000  0.0000  0.0000
  11.  H 3 (s)      0.0000  0.0000  0.0000  0.0000  0.0000  0.0000  0.0000  0.0000

           AO          9      10      11
      ------------ ------- ------- -------
   1.  O 1 (s)      0.0000  0.0000  0.0000
   2.  O 1 (s)      0.0000  0.0000  0.0000
   3.  O 1 (px)     0.0000  0.0000  0.0000
   4.  O 1 (py)     0.0000  0.0000  0.0000
   5.  O 1 (pz)     0.0000  0.0000  0.0000
   6. Li 2 (s)      0.0000  0.0000  0.0000
   7. Li 2 (s)      0.0000  0.0000  0.0000
   8. Li 2 (px)     0.0000  0.0000  0.0000
   9. Li 2 (py)     1.0000  0.0000  0.0000
  10. Li 2 (pz)     0.0000  1.0000  0.0000
  11.  H 3 (s)      0.0000  0.0000  1.0000


 PNAO overlap matrix:

           NAO         1       2       3       4       5       6       7       8
      ------------ ------- ------- ------- ------- ------- ------- ------- -------
   1.  O 1( 1s )    1.0000  0.0000  0.0000  0.0000  0.0000  0.0081  0.0653  0.0000
   2.  O 1( 2s )    0.0000  1.0000  0.0000  0.0000  0.0000  0.0779  0.3362  0.0000
   3.  O 1( 2px)    0.0000  0.0000  1.0000  0.0000  0.0000  0.0000  0.0000  0.1968
   4.  O 1( 2py)    0.0000  0.0000  0.0000  1.0000  0.0000  0.0000  0.0000  0.0000
   5.  O 1( 2pz)    0.0000  0.0000  0.0000  0.0000  1.0000 -0.1087 -0.0993  0.0000
   6. Li 2( 1s )    0.0081  0.0779  0.0000  0.0000 -0.1087  1.0000  0.0000  0.0000
   7. Li 2( 2s )    0.0653  0.3362  0.0000  0.0000 -0.0993  0.0000  1.0000  0.0000
   8. Li 2( 2px)    0.0000  0.0000  0.1968  0.0000  0.0000  0.0000  0.0000  1.0000
   9. Li 2( 2py)    0.0000  0.0000  0.0000  0.1968  0.0000  0.0000  0.0000  0.0000
  10. Li 2( 2pz)    0.1028  0.4901  0.0000  0.0000 -0.1177  0.0000  0.0000  0.0000
  11.  H 3( 1s )    0.0888  0.4611  0.0000  0.0000  0.3886  0.0173  0.2185  0.0000

           NAO         9      10      11
      ------------ ------- ------- -------
   1.  O 1( 1s )    0.0000  0.1028  0.0888
   2.  O 1( 2s )    0.0000  0.4901  0.4611
   3.  O 1( 2px)    0.0000  0.0000  0.0000
   4.  O 1( 2py)    0.1968  0.0000  0.0000
   5.  O 1( 2pz)    0.0000 -0.1177  0.3886
   6. Li 2( 1s )    0.0000  0.0000  0.0173
   7. Li 2( 2s )    0.0000  0.0000  0.2185
   8. Li 2( 2px)    0.0000  0.0000  0.0000
   9. Li 2( 2py)    1.0000  0.0000  0.0000
  10. Li 2( 2pz)    0.0000  1.0000  0.3196
  11.  H 3( 1s )    0.0000  0.3196  1.0000


 PNAO density matrix:

           NAO         1       2       3       4       5       6       7       8
      ------------ ------- ------- ------- ------- ------- ------- ------- -------
   1.  O 1( 1s )    2.0000  0.0000  0.0000  0.0000 -0.0010  0.0162  0.1307  0.0000
   2.  O 1( 2s )    0.0000  1.9738  0.0000  0.0000 -0.0568  0.1561  0.7674  0.0000
   3.  O 1( 2px)    0.0000  0.0000  1.8010  0.0000  0.0000  0.0000  0.0000  0.9414
   4.  O 1( 2py)    0.0000  0.0000  0.0000  1.8010  0.0000  0.0000  0.0000  0.0000
   5.  O 1( 2pz)   -0.0010 -0.0568  0.0000  0.0000  1.6431 -0.2235 -0.2544  0.0000
   6. Li 2( 1s )    0.0162  0.1561  0.0000  0.0000 -0.2235  1.9997  0.0000  0.0000
   7. Li 2( 2s )    0.1307  0.7674  0.0000  0.0000 -0.2544  0.0000  0.3442  0.0000
   8. Li 2( 2px)    0.0000  0.0000  0.9414  0.0000  0.0000  0.0000  0.0000  0.4921
   9. Li 2( 2py)    0.0000  0.0000  0.0000  0.9414  0.0000  0.0000  0.0000  0.0000
  10. Li 2( 2pz)    0.2036  1.0637  0.0000  0.0000 -0.2463 -0.0151  0.4635  0.0000
  11.  H 3( 1s )    0.1784  1.0309  0.0000  0.0000  1.1719  0.0377  0.2370  0.0000

           NAO         9      10      11
      ------------ ------- ------- -------
   1.  O 1( 1s )    0.0000  0.2036  0.1784
   2.  O 1( 2s )    0.0000  1.0637  1.0309
   3.  O 1( 2px)    0.0000  0.0000  0.0000
   4.  O 1( 2py)    0.9414  0.0000  0.0000
   5.  O 1( 2pz)    0.0000 -0.2463  1.1719
   6. Li 2( 1s )    0.0000 -0.0151  0.0377
   7. Li 2( 2s )    0.0000  0.4635  0.2370
   8. Li 2( 2px)    0.0000  0.0000  0.0000
   9. Li 2( 2py)    0.4921  0.0000  0.0000
  10. Li 2( 2pz)    0.0000  0.6308  0.4082
  11.  H 3( 1s )    0.0000  0.4082  1.4408


 NAOs in the AO basis:

           AO          1       2       3       4       5       6       7       8
      ------------ ------- ------- ------- ------- ------- ------- ------- -------
   1.  O 1 (s)      0.9777 -0.3322  0.0000  0.0000 -0.0071 -0.0040  0.0251  0.0000
   2.  O 1 (s)      0.0811  1.1426  0.0000  0.0000  0.0820 -0.0003 -0.2680  0.0000
   3.  O 1 (px)     0.0000  0.0000  1.0000  0.0000  0.0000  0.0000  0.0000 -0.2007
   4.  O 1 (py)     0.0000  0.0000  0.0000  1.0000  0.0000  0.0000  0.0000  0.0000
   5.  O 1 (pz)     0.0000  0.0695  0.0000  0.0000  1.0847  0.0000  0.1433  0.0000
   6. Li 2 (s)     -0.0040 -0.0617  0.0000  0.0000  0.1070  0.9918 -0.2636  0.0000
   7. Li 2 (s)     -0.0001 -0.0485  0.0000  0.0000  0.0328  0.0322  1.1123  0.0000
   8. Li 2 (px)     0.0000  0.0000  0.0000  0.0000  0.0000  0.0000  0.0000  1.0199
   9. Li 2 (py)     0.0000  0.0000  0.0000  0.0000  0.0000  0.0000  0.0000  0.0000
  10. Li 2 (pz)     0.0000  0.0000  0.0000  0.0000  0.0000  0.0000  0.0000  0.0000
  11.  H 3 (s)      0.0000 -0.2515  0.0000  0.0000 -0.2404  0.0000 -0.1351  0.0000

           AO          9      10      11
      ------------ ------- ------- -------
   1.  O 1 (s)      0.0000  0.0664  0.0074
   2.  O 1 (s)      0.0000 -0.5955 -0.3621
   3.  O 1 (px)     0.0000  0.0000  0.0000
   4.  O 1 (py)    -0.2007  0.0000  0.0000
   5.  O 1 (pz)     0.0000  0.3022 -0.2917
   6. Li 2 (s)      0.0000  0.0000 -0.0159
   7. Li 2 (s)      0.0000  0.3079 -0.0341
   8. Li 2 (px)     0.0000  0.0000  0.0000
   9. Li 2 (py)     1.0199  0.0000  0.0000
  10. Li 2 (pz)     0.0000  1.2348  0.0000
  11.  H 3 (s)      0.0000 -0.3044  1.2171


 NAO density matrix:

           NAO         1       2       3       4       5       6       7       8
      ------------ ------- ------- ------- ------- ------- ------- ------- -------
   1.  O 1( 1s )    2.0000 -0.0002  0.0000  0.0000 -0.0012  0.0000 -0.0001  0.0000
   2.  O 1( 2s )   -0.0002  1.8304  0.0000  0.0000 -0.2702 -0.0008  0.1938  0.0000
   3.  O 1( 2px)    0.0000  0.0000  1.8010  0.0000  0.0000  0.0000  0.0000  0.5987
   4.  O 1( 2py)    0.0000  0.0000  0.0000  1.8010  0.0000  0.0000  0.0000  0.0000
   5.  O 1( 2pz)   -0.0012 -0.2702  0.0000  0.0000  1.3246 -0.0073 -0.1801  0.0000
   6. Li 2( 1s )    0.0000 -0.0008  0.0000  0.0000 -0.0073  1.9997 -0.0014  0.0000
   7. Li 2( 2s )   -0.0001  0.1938  0.0000  0.0000 -0.1801 -0.0014  0.0384  0.0000
   8. Li 2( 2px)    0.0000  0.0000  0.5987  0.0000  0.0000  0.0000  0.0000  0.1990
   9. Li 2( 2py)    0.0000  0.0000  0.0000  0.5987  0.0000  0.0000  0.0000  0.0000
  10. Li 2( 2pz)   -0.0029  0.1188  0.0000  0.0000 -0.2099 -0.0216  0.0353  0.0000
  11.  H 3( 1s )    0.0011  0.4310  0.0000  0.0000  0.8631  0.0054 -0.0637  0.0000

           NAO         9      10      11
      ------------ ------- ------- -------
   1.  O 1( 1s )    0.0000 -0.0029  0.0011
   2.  O 1( 2s )    0.0000  0.1188  0.4310
   3.  O 1( 2px)    0.0000  0.0000  0.0000
   4.  O 1( 2py)    0.5987  0.0000  0.0000
   5.  O 1( 2pz)    0.0000 -0.2099  0.8631
   6. Li 2( 1s )    0.0000 -0.0216  0.0054
   7. Li 2( 2s )    0.0000  0.0353 -0.0637
   8. Li 2( 2px)    0.0000  0.0000  0.0000
   9. Li 2( 2py)    0.1990  0.0000  0.0000
  10. Li 2( 2pz)    0.0000  0.0368 -0.1110
  11.  H 3( 1s )    0.0000 -0.1110  0.7701


 NATURAL BOND ORBITAL ANALYSIS:

 Initiate 2-center NBO search using THRESH = 1.900 and PRJTHR = 0.300

 Search of NAO DM block for core orbitals on atom:   1
      Eigenvector ( 1) has occupancy 1.99999
            1.0000 0.0000 0.0000 0.0000 0.0000
        1 eigenvector(s) stashed in permanent list

 Search of NAO DM block for core orbitals on atom:   2
      Eigenvector ( 1) has occupancy 1.99973
            1.0000 0.0000 0.0000 0.0000 0.0000
        1 eigenvector(s) stashed in permanent list

 Core orbitals projected from the NAO density matrix
       8.000 electrons remain (>1.900); search continues

 Search of NAO DM block for the following atom(s):   1
      Select eigenvectors with eigenvalue > 1.900
       1.948 1.801 1.801 1.207 0.000
      Eigenvector ( 1) has occupancy 1.94763
            0.0000 0.9174 0.0000 0.0000-0.3979
      1 hybrid on atom 1 stashed in prospective list

 Stash prospective hybrids having projection expectation value > 0.300
       1.000
      0 hybrids eliminated in 1 pass
      1 hybrid moved from prospective to permanent list

 NHOs of 1-center eigenvectors projected from the NAO density matrix
       6.053 electrons remain (>1.900); search continues

 Search of NAO DM block for the following atom(s):   1   2
      Select eigenvectors with eigenvalue > 1.900
       2.000 2.000 1.232 0.050 0.000 0.000 0.000 0.000 0.000 0.000
      Eigenvector ( 1) has occupancy 2.00000
            0.0000 0.0000 0.9092-0.2718 0.0000 0.0000 0.0000 0.3023
           -0.0904 0.0000
      Eigenvector ( 2) has occupancy 2.00000
            0.0000 0.0000 0.2718 0.9092 0.0000 0.0000 0.0000 0.0904
            0.3023 0.0000
      2 hybrids on atom 1 stashed in prospective list
      2 hybrids on atom 2 stashed in prospective list

 Search of NAO DM block for the following atom(s):   1   3
      Select eigenvectors with eigenvalue > 1.900
       1.977 1.801 1.801 0.001 0.000 0.000
      Eigenvector ( 1) has occupancy 1.97660
            0.0000 0.3110 0.0000 0.0000 0.7169 0.6239
      1 hybrid on atom 1 stashed in prospective list
      1 hybrid on atom 3 stashed in prospective list

 Stash prospective hybrids having projection expectation value > 0.300
       1.000 1.000 1.000 1.000 1.000 1.000
      0 hybrids eliminated in 1 pass
      6 hybrids moved from prospective to permanent list

 NHOs of 2-center eigenvectors projected from the NAO density matrix
       0.075 electrons remain in the fully projected matrix

 Search of NHO DM block for the following atom(s):   1
      Select eigenvectors with eigenvalue > 1.900
       2.000 1.948 0.000 0.000 0.000
      Eigenvector ( 1) has occupancy 1.99999
            1.0000 0.0000 0.0000 0.0000 0.0000
           NBO accepted:    1. Label:CR ( 1)   1
      Eigenvector ( 2) has occupancy 1.94763
            0.0000 1.0000 0.0000 0.0000 0.0000
           NBO accepted:    2. Label:LP ( 1)   1
        2 eigenvector(s) stashed in permanent list

 Search of NHO DM block for the following atom(s):   2
      Select eigenvectors with eigenvalue > 1.900
       2.000 0.073 0.002 0.000 0.000
      Eigenvector ( 1) has occupancy 1.99973
            1.0000 0.0000 0.0000 0.0000 0.0000
           NBO accepted:    3. Label:CR ( 1)   2
        1 eigenvector(s) stashed in permanent list

  1-center NBOs projected from the NHO density matrix
       6.053 electrons remain (>1.900); search continues

 Search of NHO DM block for the following atom(s):   1   2
      Select eigenvectors with eigenvalue > 1.900
       2.000 2.000 0.000 0.000 0.000 0.000 0.000 0.000 0.000 0.000
      Eigenvector ( 1) has occupancy 2.00000
            0.0000 0.0000 0.4839 0.8163 0.0000 0.0000 0.1609 0.2714
            0.0000 0.0000
      Occupancy is 2.000 after deleting minor hybrid components
            0.0000 0.0000 0.0000 0.9489 0.0000 0.0000 0.0000 0.3155
            0.0000 0.0000
           NBO accepted:    4. Label:BD ( 1)   1   2
      Occupancy is 0.000 for antibonding component
            0.0000 0.0000 0.0000-0.3155 0.0000 0.0000 0.0000 0.9489
            0.0000 0.0000
           NBO accepted:    5. Label:BD*( 1)   1   2
      Eigenvector ( 2) has occupancy 2.00000
            0.0000 0.0000 0.8163-0.4839 0.0000 0.0000 0.2714-0.1609
            0.0000 0.0000
      Occupancy is 2.000 after deleting minor hybrid components
            0.0000 0.0000 0.9489 0.0000 0.0000 0.0000 0.3155 0.0000
            0.0000 0.0000
           NBO accepted:    6. Label:BD ( 2)   1   2
      Occupancy is 0.000 for antibonding component
            0.0000 0.0000-0.3155 0.0000 0.0000 0.0000 0.9489 0.0000
            0.0000 0.0000
           NBO accepted:    7. Label:BD*( 2)   1   2
        4 eigenvector(s) stashed in permanent list

 Search of NHO DM block for the following atom(s):   1   3
      Select eigenvectors with eigenvalue > 1.900
       1.977 0.001 0.000 0.000 0.000 0.000
      Eigenvector ( 1) has occupancy 1.97660
            0.0000 0.0000 0.0000 0.0000 0.7815 0.6239
      Occupancy is 1.977 after deleting minor hybrid components
            0.0000 0.0000 0.0000 0.0000 0.7815 0.6239
           NBO accepted:    8. Label:BD ( 1)   1   3
      Occupancy is 0.001 for antibonding component
            0.0000 0.0000 0.0000 0.0000-0.6239 0.7815
           NBO accepted:    9. Label:BD*( 1)   1   3
        2 eigenvector(s) stashed in permanent list

  2-center NBOs projected from the NHO density matrix
       0.075 electrons remain in the fully projected matrix

                            Occupancies       Lewis Structure    Low   High
         Max    Occ     -------------------  -----------------   occ   occ
  Cycle  Ctr   Thresh    Lewis   non-Lewis     CR  BD  nC  LP    (L)   (NL)
 ============================================================================
    1     2     1.90    11.92395   0.07605      2   3   0   1     0      0

 Initiate 2-center NBO search using THRESH = 1.800 and PRJTHR = 0.300

 Search of NAO DM block for core orbitals on atom:   1
      Eigenvector ( 1) has occupancy 1.99999
            1.0000 0.0000 0.0000 0.0000 0.0000
        1 eigenvector(s) stashed in permanent list

 Search of NAO DM block for core orbitals on atom:   2
      Eigenvector ( 1) has occupancy 1.99973
            1.0000 0.0000 0.0000 0.0000 0.0000
        1 eigenvector(s) stashed in permanent list

 Core orbitals projected from the NAO density matrix
       8.000 electrons remain (>1.800); search continues

 Search of NAO DM block for the following atom(s):   1
      Select eigenvectors with eigenvalue > 1.800
       1.948 1.801 1.801 1.207 0.000
      Eigenvector ( 1) has occupancy 1.94763
            0.0000 0.9174 0.0000 0.0000-0.3979
      Eigenvector ( 2) has occupancy 1.80096
            0.0000 0.0000 0.3963 0.9181 0.0000
      Eigenvector ( 3) has occupancy 1.80096
            0.0000 0.0000 0.9181-0.3963 0.0000
      3 hybrids on atom 1 stashed in prospective list

 Stash prospective hybrids having projection expectation value > 0.300
       1.000 1.000 1.000
      0 hybrids eliminated in 1 pass
      3 hybrids moved from prospective to permanent list

 NHOs of 1-center eigenvectors projected from the NAO density matrix
       2.451 electrons remain (>1.800); search continues

 Search of NAO DM block for the following atom(s):   1   2
      Select eigenvectors with eigenvalue > 1.800
       1.232 0.199 0.199 0.050 0.000 0.000 0.000 0.000 0.000 0.000

 Search of NAO DM block for the following atom(s):   1   3
      Select eigenvectors with eigenvalue > 1.800
       1.977 0.001 0.000 0.000 0.000 0.000
      Eigenvector ( 1) has occupancy 1.97660
            0.0000 0.3110 0.0000 0.0000 0.7169 0.6239
      1 hybrid on atom 1 stashed in prospective list
      1 hybrid on atom 3 stashed in prospective list

 Stash prospective hybrids having projection expectation value > 0.300
       1.000 1.000
      0 hybrids eliminated in 1 pass
      2 hybrids moved from prospective to permanent list

 NHOs of 2-center eigenvectors projected from the NAO density matrix
       0.473 electrons remain in the fully projected matrix

 Search of NHO DM block for the following atom(s):   1
      Select eigenvectors with eigenvalue > 1.800
       2.000 1.948 1.801 1.801 0.000
      Eigenvector ( 1) has occupancy 1.99999
            1.0000 0.0000 0.0000 0.0000 0.0000
           NBO accepted:    1. Label:CR ( 1)   1
      Eigenvector ( 2) has occupancy 1.94763
            0.0000 1.0000 0.0000 0.0000 0.0000
           NBO accepted:    2. Label:LP ( 1)   1
      Eigenvector ( 3) has occupancy 1.80096
            0.0000 0.0000 1.0000 0.0000 0.0000
           NBO accepted:    3. Label:LP ( 2)   1
      Eigenvector ( 4) has occupancy 1.80096
            0.0000 0.0000 0.0000 1.0000 0.0000
           NBO accepted:    4. Label:LP ( 3)   1
        4 eigenvector(s) stashed in permanent list

 Search of NHO DM block for the following atom(s):   2
      Select eigenvectors with eigenvalue > 1.800
       2.000 0.199 0.199 0.073 0.002
      Eigenvector ( 1) has occupancy 1.99973
            1.0000 0.0000 0.0000 0.0000 0.0000
           NBO accepted:    5. Label:CR ( 1)   2
        1 eigenvector(s) stashed in permanent list

  1-center NBOs projected from the NHO density matrix
       2.451 electrons remain (>1.800); search continues

 Search of NHO DM block for the following atom(s):   1   3
      Select eigenvectors with eigenvalue > 1.800
       1.977 0.001 0.000 0.000 0.000 0.000
      Eigenvector ( 1) has occupancy 1.97660
            0.0000 0.0000 0.0000 0.0000 0.7815 0.6239
      Occupancy is 1.977 after deleting minor hybrid components
            0.0000 0.0000 0.0000 0.0000 0.7815 0.6239
           NBO accepted:    6. Label:BD ( 1)   1   3
      Occupancy is 0.001 for antibonding component
            0.0000 0.0000 0.0000 0.0000-0.6239 0.7815
           NBO accepted:    7. Label:BD*( 1)   1   3
        2 eigenvector(s) stashed in permanent list

  2-center NBOs projected from the NHO density matrix
       0.473 electrons remain in the fully projected matrix

                            Occupancies       Lewis Structure    Low   High
         Max    Occ     -------------------  -----------------   occ   occ
  Cycle  Ctr   Thresh    Lewis   non-Lewis     CR  BD  nC  LP    (L)   (NL)
 ============================================================================
    2     2     1.80    11.52586   0.47414      2   1   0   3     0      2

 Initiate 2-center NBO search using THRESH = 1.900 and PRJTHR = 0.300

 Search of NAO DM block for core orbitals on atom:   1
      Eigenvector ( 1) has occupancy 1.99999
            1.0000 0.0000 0.0000 0.0000 0.0000
        1 eigenvector(s) stashed in permanent list

 Search of NAO DM block for core orbitals on atom:   2
      Eigenvector ( 1) has occupancy 1.99973
            1.0000 0.0000 0.0000 0.0000 0.0000
        1 eigenvector(s) stashed in permanent list

 Core orbitals projected from the NAO density matrix
       8.000 electrons remain (>1.900); search continues

 Search of NAO DM block for the following atom(s):   1
      Select eigenvectors with eigenvalue > 1.900
       1.948 1.801 1.801 1.207 0.000
      Eigenvector ( 1) has occupancy 1.94763
            0.0000 0.9174 0.0000 0.0000-0.3979
      1 hybrid on atom 1 stashed in prospective list

 Stash prospective hybrids having projection expectation value > 0.300
       1.000
      0 hybrids eliminated in 1 pass
      1 hybrid moved from prospective to permanent list

 NHOs of 1-center eigenvectors projected from the NAO density matrix
       6.053 electrons remain (>1.900); search continues

 Search of NAO DM block for the following atom(s):   1   2
      Select eigenvectors with eigenvalue > 1.900
       2.000 2.000 1.232 0.050 0.000 0.000 0.000 0.000 0.000 0.000
      Eigenvector ( 1) has occupancy 2.00000
            0.0000 0.0000 0.9092-0.2718 0.0000 0.0000 0.0000 0.3023
           -0.0904 0.0000
      Eigenvector ( 2) has occupancy 2.00000
            0.0000 0.0000 0.2718 0.9092 0.0000 0.0000 0.0000 0.0904
            0.3023 0.0000
      2 hybrids on atom 1 stashed in prospective list
      2 hybrids on atom 2 stashed in prospective list

 Search of NAO DM block for the following atom(s):   1   3
      Select eigenvectors with eigenvalue > 1.900
       1.977 1.801 1.801 0.001 0.000 0.000
      Eigenvector ( 1) has occupancy 1.97660
            0.0000 0.3110 0.0000 0.0000 0.7169 0.6239
      1 hybrid on atom 1 stashed in prospective list
      1 hybrid on atom 3 stashed in prospective list

 Stash prospective hybrids having projection expectation value > 0.300
       1.000 1.000 1.000 1.000 1.000 1.000
      0 hybrids eliminated in 1 pass
      6 hybrids moved from prospective to permanent list

 NHOs of 2-center eigenvectors projected from the NAO density matrix
       0.075 electrons remain in the fully projected matrix

 Search of NHO DM block for the following atom(s):   1
      Select eigenvectors with eigenvalue > 1.900
       2.000 1.948 0.000 0.000 0.000
      Eigenvector ( 1) has occupancy 1.99999
            1.0000 0.0000 0.0000 0.0000 0.0000
           NBO accepted:    1. Label:CR ( 1)   1
      Eigenvector ( 2) has occupancy 1.94763
            0.0000 1.0000 0.0000 0.0000 0.0000
           NBO accepted:    2. Label:LP ( 1)   1
        2 eigenvector(s) stashed in permanent list

 Search of NHO DM block for the following atom(s):   2
      Select eigenvectors with eigenvalue > 1.900
       2.000 0.073 0.002 0.000 0.000
      Eigenvector ( 1) has occupancy 1.99973
            1.0000 0.0000 0.0000 0.0000 0.0000
           NBO accepted:    3. Label:CR ( 1)   2
        1 eigenvector(s) stashed in permanent list

  1-center NBOs projected from the NHO density matrix
       6.053 electrons remain (>1.900); search continues

 Search of NHO DM block for the following atom(s):   1   2
      Select eigenvectors with eigenvalue > 1.900
       2.000 2.000 0.000 0.000 0.000 0.000 0.000 0.000 0.000 0.000
      Eigenvector ( 1) has occupancy 2.00000
            0.0000 0.0000 0.4839 0.8163 0.0000 0.0000 0.1609 0.2714
            0.0000 0.0000
      Occupancy is 2.000 after deleting minor hybrid components
            0.0000 0.0000 0.0000 0.9489 0.0000 0.0000 0.0000 0.3155
            0.0000 0.0000
           NBO accepted:    4. Label:BD ( 1)   1   2
      Occupancy is 0.000 for antibonding component
            0.0000 0.0000 0.0000-0.3155 0.0000 0.0000 0.0000 0.9489
            0.0000 0.0000
           NBO accepted:    5. Label:BD*( 1)   1   2
      Eigenvector ( 2) has occupancy 2.00000
            0.0000 0.0000 0.8163-0.4839 0.0000 0.0000 0.2714-0.1609
            0.0000 0.0000
      Occupancy is 2.000 after deleting minor hybrid components
            0.0000 0.0000 0.9489 0.0000 0.0000 0.0000 0.3155 0.0000
            0.0000 0.0000
           NBO accepted:    6. Label:BD ( 2)   1   2
      Occupancy is 0.000 for antibonding component
            0.0000 0.0000-0.3155 0.0000 0.0000 0.0000 0.9489 0.0000
            0.0000 0.0000
           NBO accepted:    7. Label:BD*( 2)   1   2
        4 eigenvector(s) stashed in permanent list

 Search of NHO DM block for the following atom(s):   1   3
      Select eigenvectors with eigenvalue > 1.900
       1.977 0.001 0.000 0.000 0.000 0.000
      Eigenvector ( 1) has occupancy 1.97660
            0.0000 0.0000 0.0000 0.0000 0.7815 0.6239
      Occupancy is 1.977 after deleting minor hybrid components
            0.0000 0.0000 0.0000 0.0000 0.7815 0.6239
           NBO accepted:    8. Label:BD ( 1)   1   3
      Occupancy is 0.001 for antibonding component
            0.0000 0.0000 0.0000 0.0000-0.6239 0.7815
           NBO accepted:    9. Label:BD*( 1)   1   3
        2 eigenvector(s) stashed in permanent list

  2-center NBOs projected from the NHO density matrix
       0.075 electrons remain in the fully projected matrix

                            Occupancies       Lewis Structure    Low   High
         Max    Occ     -------------------  -----------------   occ   occ
  Cycle  Ctr   Thresh    Lewis   non-Lewis     CR  BD  nC  LP    (L)   (NL)
 ============================================================================
    3     2     1.90    11.92395   0.07605      2   3   0   1     0      0
 ----------------------------------------------------------------------------

 Structure accepted: No low occupancy Lewis orbitals

 -------------------------------------------------------
   Core                      3.99972 ( 99.993% of   4)
   Valence Lewis             7.92423 ( 99.053% of   8)
  ==================      =============================
   Total Lewis              11.92395 ( 99.366% of  12)
  -----------------------------------------------------
   Valence non-Lewis         0.00088 (  0.007% of  12)
   Rydberg non-Lewis         0.07517 (  0.626% of  12)
  ==================      =============================
   Total non-Lewis           0.07605 (  0.634% of  12)
 -------------------------------------------------------


     (Occupancy)   Bond orbital / Coefficients / Hybrids
 ------------------ Lewis ------------------------------------------------------
   1. (1.99999) CR ( 1) O  1            s(100.00%)
                                         1.0000  0.0000  0.0000  0.0000  0.0000
   2. (1.99973) CR ( 1)Li  2            s(100.00%)
                                         1.0000  0.0000  0.0000  0.0000  0.0000
   3. (1.94763) LP ( 1) O  1            s( 84.16%)p 0.19( 15.84%)
                                         0.0000  0.9174  0.0000  0.0000 -0.3979
   4. (2.00000) BD ( 1) O  1-Li  2
               ( 90.05%)   0.9489* O  1 s(  0.00%)p 1.00(100.00%)
                                         0.0000  0.0000  0.2864  0.9581  0.0000
               (  9.95%)   0.3155*Li  2 s(  0.00%)p 1.00(100.00%)
                                         0.0000  0.0000  0.2864  0.9581  0.0000
   5. (2.00000) BD ( 2) O  1-Li  2
               ( 90.05%)   0.9489* O  1 s(  0.00%)p 1.00(100.00%)
                                         0.0000  0.0000  0.9581 -0.2864  0.0000
               (  9.95%)   0.3155*Li  2 s(  0.00%)p 1.00(100.00%)
                                         0.0000  0.0000  0.9581 -0.2864  0.0000
   6. (1.97660) BD ( 1) O  1- H  3
               ( 61.07%)   0.7815* O  1 s( 15.84%)p 5.31( 84.16%)
                                         0.0000  0.3979  0.0000  0.0000  0.9174
               ( 38.93%)   0.6239* H  3 s(100.00%)
                                         1.0000
 ---------------- non-Lewis ----------------------------------------------------
   7. (0.00000) BD*( 1) O  1-Li  2
               (  9.95%)   0.3155* O  1 s(  0.00%)p 1.00(100.00%)
               ( 90.05%)  -0.9489*Li  2 s(  0.00%)p 1.00(100.00%)
   8. (0.00000) BD*( 2) O  1-Li  2
               (  9.95%)   0.3155* O  1 s(  0.00%)p 1.00(100.00%)
               ( 90.05%)  -0.9489*Li  2 s(  0.00%)p 1.00(100.00%)
   9. (0.00088) BD*( 1) O  1- H  3
               ( 38.93%)   0.6239* O  1 s( 15.84%)p 5.31( 84.16%)
                                         0.0000 -0.3979  0.0000  0.0000 -0.9174
               ( 61.07%)  -0.7815* H  3 s(100.00%)
                                        -1.0000
  10. (0.07288) RY ( 1)Li  2            s( 51.14%)p 0.96( 48.86%)
                                         0.0000  0.7151  0.0000  0.0000  0.6990
  11. (0.00229) RY ( 2)Li  2            s( 48.86%)p 1.05( 51.14%)
                                         0.0000  0.6990  0.0000  0.0000 -0.7151


 NHO DIRECTIONALITY AND BOND BENDING (deviation from line of nuclear centers at
                                      the position of maximum hybrid amplitude)

         [Thresholds for printing:  angular deviation  >  1.0 degree]
                                    p- or d-character  > 25.0%
                                    orbital occupancy  >  0.10e

                        Line of Centers        Hybrid 1             Hybrid 2
                        ---------------  -------------------  ------------------
           NBO            Theta   Phi    Theta   Phi    Dev   Theta   Phi    Dev
 ===============================================================================
   4. BD ( 1) O  1-Li  2  180.0    0.0    90.0   73.4  90.0    91.3  253.4  91.3
   5. BD ( 2) O  1-Li  2  180.0    0.0    90.0  343.4  90.0    91.3  343.4  91.3


 SECOND ORDER PERTURBATION THEORY ANALYSIS OF FOCK MATRIX IN NBO BASIS

     Threshold for printing:   0.50 kcal/mol
                                                          E(2) E(NL)-E(L) F(L,NL)
      Donor (L) NBO              Acceptor (NL) NBO      kcal/mol   a.u.    a.u.
 ===============================================================================

 within unit  1
    1. CR ( 1) O  1            10. RY ( 1)Li  2            1.07   20.51   0.132
    3. LP ( 1) O  1            10. RY ( 1)Li  2           30.93    1.34   0.181
    6. BD ( 1) O  1- H  3      10. RY ( 1)Li  2            5.45    1.11   0.070
    6. BD ( 1) O  1- H  3      11. RY ( 2)Li  2            2.75    0.90   0.044


 NATURAL BOND ORBITALS (Summary):

                                                     Principal Delocalizations
           NBO                 Occupancy    Energy   (geminal,vicinal,remote)
 ===============================================================================
 Molecular unit  1  (HOLi)
 ------ Lewis --------------------------------------
    1. CR ( 1) O  1             1.99999   -20.13518  10(v)
    2. CR ( 1)Li  2             1.99973    -2.29545
    3. LP ( 1) O  1             1.94763    -0.95699  10(v)
    4. BD ( 1) O  1-Li  2       2.00000    -0.32328
    5. BD ( 2) O  1-Li  2       2.00000    -0.32328
    6. BD ( 1) O  1- H  3       1.97660    -0.73479  10(v),11(v)
 ------ non-Lewis ----------------------------------
    7. BD*( 1) O  1-Li  2       0.00000     0.26716
    8. BD*( 2) O  1-Li  2       0.00000     0.26716
    9. BD*( 1) O  1- H  3       0.00088     0.70311
   10. RY ( 1)Li  2             0.07288     0.37933
   11. RY ( 2)Li  2             0.00229     0.16109
          -------------------------------
                 Total Lewis   11.92395  ( 99.3663%)
           Valence non-Lewis    0.00088  (  0.0073%)
           Rydberg non-Lewis    0.07517  (  0.6264%)
          -------------------------------
               Total unit  1   12.00000  (100.0000%)
              Charge unit  1    0.00000

 $CHOOSE
   LONE 1 1 END
   BOND D 1 2 S 1 3 END
 $END

 NBO analysis completed in 0.16 CPU seconds (1 wall second)
 Maximum scratch memory used by NBO was 221794 words (1.69 MB)
 Maximum scratch memory used by G16NBO was 8312 words (0.06 MB)

 Opening RunExU unformatted file "/cluster/work/users/beto93/LiOH/Gau-2325356.EUF"
 Read unf file /cluster/work/users/beto93/LiOH/Gau-2325356.EUF:
 Label Gaussian matrix elements                                         IVers= 2 NLab= 2 Version=ES64L-G16RevC.01
 Title NBO-LiOH                                                        
 NAtoms=     3 NBasis=    11 NBsUse=    11 ICharg=     0 Multip=     1 NE=    12 Len12L=8 Len4L=8 IOpCl= 0 ICGU=111
 GAUSSIAN SCALARS                    NI= 1 NR= 1 NTot=       1 LenBuf=    2 NRI=1 N=    1000
 NPA CHARGES                         NI= 0 NR= 1 NTot=       3 LenBuf= 4000 NRI=1 N=       3
 Recovered energy= -81.7685651326     dipole=      0.000000000000      0.000000000000     -0.579438994532
 Calling FoFJK, ICntrl=      2127 FMM=F ISym2X=1 I1Cent= 0 IOpClX= 0 NMat=1 NMatS=1 NMatT=0.
 ***** Axes restored to original set *****
 -------------------------------------------------------------------
 Center     Atomic                   Forces (Hartrees/Bohr)
 Number     Number              X              Y              Z
 -------------------------------------------------------------------
      1        8          -0.000000000   -0.000000000   -0.000243728
      2        3          -0.000000000   -0.000000000    0.000186198
      3        1          -0.000000000   -0.000000000    0.000057530
 -------------------------------------------------------------------
 Cartesian Forces:  Max     0.000243728 RMS     0.000104021

 GradGradGradGradGradGradGradGradGradGradGradGradGradGradGradGradGradGrad
 Berny optimization.
 FormGI is forming the generalized inverse of G from B-inverse, IUseBI=4.
 Internal  Forces:  Max     0.000186198 RMS     0.000097442
 Search for a local minimum.
 Step number   1 out of a maximum of   20
 All quantities printed in internal units (Hartrees-Bohrs-Radians)
 Mixed Optimization -- En-DIIS/RFO-DIIS
 Second derivative matrix not updated -- first step.
 The second derivative matrix:
                          R1        R2        A1        A2
           R1           0.40703
           R2           0.00000   0.53173
           A1           0.00000   0.00000   0.01412
           A2           0.00000   0.00000   0.00000   0.01412
 ITU=  0
     Eigenvalues ---    0.01412   0.01412   0.40703   0.53173
 RFO step:  Lambda=-9.14012591D-08 EMin= 1.41199656D-02
 Linear search not attempted -- first point.
 Iteration  1 RMS(Cart)=  0.00016905 RMS(Int)=  0.00000000
 Iteration  2 RMS(Cart)=  0.00000000 RMS(Int)=  0.00000000
 ClnCor:  largest displacement from symmetrization is 2.22D-16 for atom     3.
 Variable       Old X    -DE/DX   Delta X   Delta X   Delta X     New X
                                 (Linear)    (Quad)   (Total)
    R1        2.70609   0.00019   0.00000   0.00046   0.00046   2.70655
    R2        1.83492  -0.00006   0.00000  -0.00011  -0.00011   1.83482
    A1        3.14159  -0.00000   0.00000  -0.00000   0.00000   3.14159
    A2        3.14159  -0.00000   0.00000   0.00000   0.00000   3.14159
         Item               Value     Threshold  Converged?
 Maximum Force            0.000186     0.000002     NO 
 RMS     Force            0.000097     0.000001     NO 
 Maximum Displacement     0.000269     0.000006     NO 
 RMS     Displacement     0.000169     0.000004     NO 
 Predicted change in Energy=-4.570063D-08
 GradGradGradGradGradGradGradGradGradGradGradGradGradGradGradGradGradGrad

                          Input orientation:                          
 ---------------------------------------------------------------------
 Center     Atomic      Atomic             Coordinates (Angstroms)
 Number     Number       Type             X           Y           Z
 ---------------------------------------------------------------------
      1          8           0        0.000000    0.000000   -0.000100
      2          3           0        0.000000    0.000000    1.432142
      3          1           0        0.000000    0.000000   -0.971043
 ---------------------------------------------------------------------
                    Distance matrix (angstroms):
                    1          2          3
     1  O    0.000000
     2  Li   1.432242   0.000000
     3  H    0.970943   2.403185   0.000000
 Stoichiometry    HLiO
 Framework group  C*V[C*(LiOH)]
 Deg. of freedom     2
 Full point group                 C*V     NOp   4
 Largest Abelian subgroup         C2V     NOp   4
 Largest concise Abelian subgroup C1      NOp   1
                         Standard orientation:                         
 ---------------------------------------------------------------------
 Center     Atomic      Atomic             Coordinates (Angstroms)
 Number     Number       Type             X           Y           Z
 ---------------------------------------------------------------------
      1          8           0        0.000000    0.000000    0.277149
      2          3           0        0.000000    0.000000   -1.155093
      3          1           0        0.000000    0.000000    1.248091
 ---------------------------------------------------------------------
 Rotational constants (GHZ):           0.0000000          42.4079863          42.4079863
 Standard basis: STO-3G (5D, 7F)
 There are     7 symmetry adapted cartesian basis functions of A1  symmetry.
 There are     0 symmetry adapted cartesian basis functions of A2  symmetry.
 There are     2 symmetry adapted cartesian basis functions of B1  symmetry.
 There are     2 symmetry adapted cartesian basis functions of B2  symmetry.
 There are     7 symmetry adapted basis functions of A1  symmetry.
 There are     0 symmetry adapted basis functions of A2  symmetry.
 There are     2 symmetry adapted basis functions of B1  symmetry.
 There are     2 symmetry adapted basis functions of B2  symmetry.
    11 basis functions,    33 primitive gaussians,    11 cartesian basis functions
     6 alpha electrons        6 beta electrons
       nuclear repulsion energy        13.8880982300 Hartrees.
 NAtoms=    3 NActive=    3 NUniq=    3 SFac= 1.00D+00 NAtFMM=   60 NAOKFM=F Big=F
 Integral buffers will be    131072 words long.
 Raffenetti 1 integral format.
 Two-electron integral symmetry is turned on.
 One-electron integrals computed using PRISM.
 NBasis=    11 RedAO= T EigKep=  3.45D-01  NBF=     7     0     2     2
 NBsUse=    11 1.00D-06 EigRej= -1.00D+00 NBFU=     7     0     2     2
 Initial guess from the checkpoint file:  "LiOH.chk"
 B after Tr=     0.000000    0.000000   -0.000000
         Rot=    1.000000    0.000000    0.000000    0.000000 Ang=   0.00 deg.
 Initial guess orbital symmetries:
       Occupied  (SG) (SG) (SG) (SG) (PI) (PI)
       Virtual   (SG) (PI) (PI) (SG) (SG)
 Keep R1 ints in memory in symmetry-blocked form, NReq=806043.
 Requested convergence on RMS density matrix=1.00D-08 within 128 cycles.
 Requested convergence on MAX density matrix=1.00D-06.
 Requested convergence on             energy=1.00D-06.
 No special actions if energy rises.
 SCF Done:  E(RHF) =  -81.7685651803     A.U. after    6 cycles
            NFock=  6  Conv=0.20D-08     -V/T= 2.0072
 Calling FoFJK, ICntrl=      2127 FMM=F ISym2X=1 I1Cent= 0 IOpClX= 0 NMat=1 NMatS=1 NMatT=0.
 ***** Axes restored to original set *****
 -------------------------------------------------------------------
 Center     Atomic                   Forces (Hartrees/Bohr)
 Number     Number              X              Y              Z
 -------------------------------------------------------------------
      1        8          -0.000000000   -0.000000000    0.000005416
      2        3          -0.000000000   -0.000000000    0.000013137
      3        1          -0.000000000   -0.000000000   -0.000018554
 -------------------------------------------------------------------
 Cartesian Forces:  Max     0.000018554 RMS     0.000007790

 GradGradGradGradGradGradGradGradGradGradGradGradGradGradGradGradGradGrad
 Berny optimization.
 Using GEDIIS/GDIIS optimizer.
 Internal  Forces:  Max     0.000018554 RMS     0.000011367
 Search for a local minimum.
 Step number   2 out of a maximum of   20
 All quantities printed in internal units (Hartrees-Bohrs-Radians)
 Mixed Optimization -- En-DIIS/RFO-DIIS
 Swapping is turned off.
 Update second derivatives using D2CorX and points    1    2
 DE= -4.77D-08 DEPred=-4.57D-08 R= 1.04D+00
 Trust test= 1.04D+00 RLast= 4.70D-04 DXMaxT set to 3.00D-01
 The second derivative matrix:
                          R1        R2        A1        A2
           R1           0.37040
           R2          -0.03346   0.56175
           A1           0.00000   0.00000   0.01412
           A2           0.00000   0.00000   0.00000   0.01412
 ITU=  0  0
     Eigenvalues ---    0.01412   0.01412   0.36472   0.56744
 En-DIIS/RFO-DIIS/Sim-DIIS IScMMF=       -3 using points:     2    1
 RFO step:  Lambda=-1.07293726D-09.
 DIIS inversion failure, remove point   2.
 Use linear search instead of GDIIS.
 RFO step:  Lambda= 0.00000000D+00 EMin= 1.41199656D-02
 Quartic linear search produced a step of  0.04582.
 Iteration  1 RMS(Cart)=  0.00002617 RMS(Int)=  0.00000000
 Iteration  2 RMS(Cart)=  0.00000000 RMS(Int)=  0.00000000
 ClnCor:  largest displacement from symmetrization is 0.00D+00 for atom     0.
 Variable       Old X    -DE/DX   Delta X   Delta X   Delta X     New X
                                 (Linear)    (Quad)   (Total)
    R1        2.70655   0.00001   0.00002   0.00002   0.00004   2.70658
    R2        1.83482   0.00002  -0.00000   0.00004   0.00004   1.83485
    A1        3.14159  -0.00000   0.00000   0.00000   0.00000   3.14159
    A2        3.14159  -0.00000   0.00000  -0.00000   0.00000   3.14159
         Item               Value     Threshold  Converged?
 Maximum Force            0.000019     0.000002     NO 
 RMS     Force            0.000011     0.000001     NO 
 Maximum Displacement     0.000038     0.000006     NO 
 RMS     Displacement     0.000026     0.000004     NO 
 Predicted change in Energy=-5.817018D-10
 GradGradGradGradGradGradGradGradGradGradGradGradGradGradGradGradGradGrad

                          Input orientation:                          
 ---------------------------------------------------------------------
 Center     Atomic      Atomic             Coordinates (Angstroms)
 Number     Number       Type             X           Y           Z
 ---------------------------------------------------------------------
      1          8           0        0.000000    0.000000   -0.000100
      2          3           0        0.000000    0.000000    1.432162
      3          1           0        0.000000    0.000000   -0.971062
 ---------------------------------------------------------------------
                    Distance matrix (angstroms):
                    1          2          3
     1  O    0.000000
     2  Li   1.432263   0.000000
     3  H    0.970961   2.403224   0.000000
 Stoichiometry    HLiO
 Framework group  C*V[C*(LiOH)]
 Deg. of freedom     2
 Full point group                 C*V     NOp   4
 Largest Abelian subgroup         C2V     NOp   4
 Largest concise Abelian subgroup C1      NOp   1
                         Standard orientation:                         
 ---------------------------------------------------------------------
 Center     Atomic      Atomic             Coordinates (Angstroms)
 Number     Number       Type             X           Y           Z
 ---------------------------------------------------------------------
      1          8           0        0.000000    0.000000    0.277152
      2          3           0        0.000000    0.000000   -1.155110
      3          1           0        0.000000    0.000000    1.248114
 ---------------------------------------------------------------------
 Rotational constants (GHZ):           0.0000000          42.4067278          42.4067278
 Standard basis: STO-3G (5D, 7F)
 There are     7 symmetry adapted cartesian basis functions of A1  symmetry.
 There are     0 symmetry adapted cartesian basis functions of A2  symmetry.
 There are     2 symmetry adapted cartesian basis functions of B1  symmetry.
 There are     2 symmetry adapted cartesian basis functions of B2  symmetry.
 There are     7 symmetry adapted basis functions of A1  symmetry.
 There are     0 symmetry adapted basis functions of A2  symmetry.
 There are     2 symmetry adapted basis functions of B1  symmetry.
 There are     2 symmetry adapted basis functions of B2  symmetry.
    11 basis functions,    33 primitive gaussians,    11 cartesian basis functions
     6 alpha electrons        6 beta electrons
       nuclear repulsion energy        13.8878768139 Hartrees.
 NAtoms=    3 NActive=    3 NUniq=    3 SFac= 1.00D+00 NAtFMM=   60 NAOKFM=F Big=F
 Integral buffers will be    131072 words long.
 Raffenetti 1 integral format.
 Two-electron integral symmetry is turned on.
 One-electron integrals computed using PRISM.
 NBasis=    11 RedAO= T EigKep=  3.45D-01  NBF=     7     0     2     2
 NBsUse=    11 1.00D-06 EigRej= -1.00D+00 NBFU=     7     0     2     2
 Initial guess from the checkpoint file:  "LiOH.chk"
 B after Tr=     0.000000    0.000000   -0.000000
         Rot=    1.000000    0.000000    0.000000    0.000000 Ang=   0.00 deg.
 Initial guess orbital symmetries:
       Occupied  (SG) (SG) (SG) (SG) (PI) (PI)
       Virtual   (SG) (PI) (PI) (SG) (SG)
 Keep R1 ints in memory in symmetry-blocked form, NReq=806043.
 Requested convergence on RMS density matrix=1.00D-08 within 128 cycles.
 Requested convergence on MAX density matrix=1.00D-06.
 Requested convergence on             energy=1.00D-06.
 No special actions if energy rises.
 SCF Done:  E(RHF) =  -81.7685651808     A.U. after    5 cycles
            NFock=  5  Conv=0.36D-08     -V/T= 2.0072
 Calling FoFJK, ICntrl=      2127 FMM=F ISym2X=1 I1Cent= 0 IOpClX= 0 NMat=1 NMatS=1 NMatT=0.
 ***** Axes restored to original set *****
 -------------------------------------------------------------------
 Center     Atomic                   Forces (Hartrees/Bohr)
 Number     Number              X              Y              Z
 -------------------------------------------------------------------
      1        8          -0.000000000   -0.000000000   -0.000004990
      2        3          -0.000000000   -0.000000000   -0.000001539
      3        1          -0.000000000   -0.000000000    0.000006528
 -------------------------------------------------------------------
 Cartesian Forces:  Max     0.000006528 RMS     0.000002787

 GradGradGradGradGradGradGradGradGradGradGradGradGradGradGradGradGradGrad
 Berny optimization.
 Using GEDIIS/GDIIS optimizer.
 Internal  Forces:  Max     0.000006528 RMS     0.000003354
 Search for a local minimum.
 Step number   3 out of a maximum of   20
 All quantities printed in internal units (Hartrees-Bohrs-Radians)
 Mixed Optimization -- En-DIIS/RFO-DIIS
 Swapping is turned off.
 Update second derivatives using D2CorX and points    1    2    3
 DE= -4.37D-10 DEPred=-5.82D-10 R= 7.51D-01
 Trust test= 7.51D-01 RLast= 5.24D-05 DXMaxT set to 3.00D-01
 The second derivative matrix:
                          R1        R2        A1        A2
           R1           0.36502
           R2           0.01584   0.69260
           A1           0.00000   0.00000   0.01412
           A2           0.00000   0.00000   0.00000   0.01412
 ITU=  0  0  0
[...]
      Eigenvector ( 2) has occupancy 2.00000
            0.0000 0.0000 0.7955-0.5174 0.0000 0.0000 0.2645-0.1720
            0.0000 0.0000
      Occupancy is 2.000 after deleting minor hybrid components
            0.0000 0.0000 0.9489 0.0000 0.0000 0.0000 0.3155 0.0000
            0.0000 0.0000
           NBO accepted:    6. Label:BD ( 2)   1   2
      Occupancy is 0.000 for antibonding component
            0.0000 0.0000-0.3155 0.0000 0.0000 0.0000 0.9489 0.0000
            0.0000 0.0000
           NBO accepted:    7. Label:BD*( 2)   1   2
        4 eigenvector(s) stashed in permanent list

 Search of NHO DM block for the following atom(s):   1   3
      Select eigenvectors with eigenvalue > 1.900
       1.977 0.001 0.000 0.000 0.000 0.000
      Eigenvector ( 1) has occupancy 1.97658
            0.0000 0.0000 0.0000 0.0000 0.7815 0.6239
      Occupancy is 1.977 after deleting minor hybrid components
            0.0000 0.0000 0.0000 0.0000 0.7815 0.6239
           NBO accepted:    8. Label:BD ( 1)   1   3
      Occupancy is 0.001 for antibonding component
            0.0000 0.0000 0.0000 0.0000-0.6239 0.7815
           NBO accepted:    9. Label:BD*( 1)   1   3
        2 eigenvector(s) stashed in permanent list

  2-center NBOs projected from the NHO density matrix
       0.075 electrons remain in the fully projected matrix

                            Occupancies       Lewis Structure    Low   High
         Max    Occ     -------------------  -----------------   occ   occ
  Cycle  Ctr   Thresh    Lewis   non-Lewis     CR  BD  nC  LP    (L)   (NL)
 ============================================================================
    1     2     1.90    11.92391   0.07609      2   3   0   1     0      0

 Initiate 2-center NBO search using THRESH = 1.800 and PRJTHR = 0.300

 Search of NAO DM block for core orbitals on atom:   1
      Eigenvector ( 1) has occupancy 1.99999
            1.0000 0.0000 0.0000 0.0000 0.0000
        1 eigenvector(s) stashed in permanent list

 Search of NAO DM block for core orbitals on atom:   2
      Eigenvector ( 1) has occupancy 1.99973
            1.0000 0.0000 0.0000 0.0000 0.0000
        1 eigenvector(s) stashed in permanent list

 Core orbitals projected from the NAO density matrix
       8.000 electrons remain (>1.800); search continues

 Search of NAO DM block for the following atom(s):   1
      Select eigenvectors with eigenvalue > 1.800
       1.948 1.801 1.801 1.207 0.000
      Eigenvector ( 1) has occupancy 1.94760
            0.0000 0.9174 0.0000 0.0000-0.3980
      Eigenvector ( 2) has occupancy 1.80097
            0.0000 0.0000 0.3608 0.9327 0.0000
      Eigenvector ( 3) has occupancy 1.80097
            0.0000 0.0000 0.9327-0.3608 0.0000
      3 hybrids on atom 1 stashed in prospective list

 Stash prospective hybrids having projection expectation value > 0.300
       1.000 1.000 1.000
      0 hybrids eliminated in 1 pass
      3 hybrids moved from prospective to permanent list

 NHOs of 1-center eigenvectors projected from the NAO density matrix
       2.451 electrons remain (>1.800); search continues

 Search of NAO DM block for the following atom(s):   1   2
      Select eigenvectors with eigenvalue > 1.800
       1.232 0.199 0.199 0.050 0.000 0.000 0.000 0.000 0.000 0.000

 Search of NAO DM block for the following atom(s):   1   3
      Select eigenvectors with eigenvalue > 1.800
       1.977 0.001 0.000 0.000 0.000 0.000
      Eigenvector ( 1) has occupancy 1.97658
            0.0000 0.3110 0.0000 0.0000 0.7169 0.6239
      1 hybrid on atom 1 stashed in prospective list
      1 hybrid on atom 3 stashed in prospective list

 Stash prospective hybrids having projection expectation value > 0.300
       1.000 1.000
      0 hybrids eliminated in 1 pass
      2 hybrids moved from prospective to permanent list

 NHOs of 2-center eigenvectors projected from the NAO density matrix
       0.473 electrons remain in the fully projected matrix

 Search of NHO DM block for the following atom(s):   1
      Select eigenvectors with eigenvalue > 1.800
       2.000 1.948 1.801 1.801 0.000
      Eigenvector ( 1) has occupancy 1.99999
            1.0000 0.0000 0.0000 0.0000 0.0000
           NBO accepted:    1. Label:CR ( 1)   1
      Eigenvector ( 2) has occupancy 1.94760
            0.0000 1.0000 0.0000 0.0000 0.0000
           NBO accepted:    2. Label:LP ( 1)   1
      Eigenvector ( 3) has occupancy 1.80097
            0.0000 0.0000 1.0000 0.0000 0.0000
           NBO accepted:    3. Label:LP ( 2)   1
      Eigenvector ( 4) has occupancy 1.80097
            0.0000 0.0000 0.0000 1.0000 0.0000
           NBO accepted:    4. Label:LP ( 3)   1
        4 eigenvector(s) stashed in permanent list

 Search of NHO DM block for the following atom(s):   2
      Select eigenvectors with eigenvalue > 1.800
       2.000 0.199 0.199 0.073 0.002
      Eigenvector ( 1) has occupancy 1.99973
            1.0000 0.0000 0.0000 0.0000 0.0000
           NBO accepted:    5. Label:CR ( 1)   2
        1 eigenvector(s) stashed in permanent list

  1-center NBOs projected from the NHO density matrix
       2.451 electrons remain (>1.800); search continues

 Search of NHO DM block for the following atom(s):   1   3
      Select eigenvectors with eigenvalue > 1.800
       1.977 0.001 0.000 0.000 0.000 0.000
      Eigenvector ( 1) has occupancy 1.97658
            0.0000 0.0000 0.0000 0.0000 0.7815 0.6239
      Occupancy is 1.977 after deleting minor hybrid components
            0.0000 0.0000 0.0000 0.0000 0.7815 0.6239
           NBO accepted:    6. Label:BD ( 1)   1   3
      Occupancy is 0.001 for antibonding component
            0.0000 0.0000 0.0000 0.0000-0.6239 0.7815
           NBO accepted:    7. Label:BD*( 1)   1   3
        2 eigenvector(s) stashed in permanent list

  2-center NBOs projected from the NHO density matrix
       0.473 electrons remain in the fully projected matrix

                            Occupancies       Lewis Structure    Low   High
         Max    Occ     -------------------  -----------------   occ   occ
  Cycle  Ctr   Thresh    Lewis   non-Lewis     CR  BD  nC  LP    (L)   (NL)
 ============================================================================
    2     2     1.80    11.52584   0.47416      2   1   0   3     0      2

 Initiate 2-center NBO search using THRESH = 1.900 and PRJTHR = 0.300

 Search of NAO DM block for core orbitals on atom:   1
      Eigenvector ( 1) has occupancy 1.99999
            1.0000 0.0000 0.0000 0.0000 0.0000
        1 eigenvector(s) stashed in permanent list

 Search of NAO DM block for core orbitals on atom:   2
      Eigenvector ( 1) has occupancy 1.99973
            1.0000 0.0000 0.0000 0.0000 0.0000
        1 eigenvector(s) stashed in permanent list

 Core orbitals projected from the NAO density matrix
       8.000 electrons remain (>1.900); search continues

 Search of NAO DM block for the following atom(s):   1
      Select eigenvectors with eigenvalue > 1.900
       1.948 1.801 1.801 1.207 0.000
      Eigenvector ( 1) has occupancy 1.94760
            0.0000 0.9174 0.0000 0.0000-0.3980
      1 hybrid on atom 1 stashed in prospective list

 Stash prospective hybrids having projection expectation value > 0.300
       1.000
      0 hybrids eliminated in 1 pass
      1 hybrid moved from prospective to permanent list

 NHOs of 1-center eigenvectors projected from the NAO density matrix
       6.053 electrons remain (>1.900); search continues

 Search of NAO DM block for the following atom(s):   1   2
      Select eigenvectors with eigenvalue > 1.900
       2.000 2.000 1.232 0.050 0.000 0.000 0.000 0.000 0.000 0.000
      Eigenvector ( 1) has occupancy 2.00000
            0.0000 0.0000 0.8649-0.3904 0.0000 0.0000 0.0000 0.2875
           -0.1298 0.0000
      Eigenvector ( 2) has occupancy 2.00000
            0.0000 0.0000 0.3904 0.8649 0.0000 0.0000 0.0000 0.1298
            0.2875 0.0000
      2 hybrids on atom 1 stashed in prospective list
      2 hybrids on atom 2 stashed in prospective list

 Search of NAO DM block for the following atom(s):   1   3
      Select eigenvectors with eigenvalue > 1.900
       1.977 1.801 1.801 0.001 0.000 0.000
      Eigenvector ( 1) has occupancy 1.97658
            0.0000 0.3110 0.0000 0.0000 0.7169 0.6239
      1 hybrid on atom 1 stashed in prospective list
      1 hybrid on atom 3 stashed in prospective list

 Stash prospective hybrids having projection expectation value > 0.300
       1.000 1.000 1.000 1.000 1.000 1.000
      0 hybrids eliminated in 1 pass
      6 hybrids moved from prospective to permanent list

 NHOs of 2-center eigenvectors projected from the NAO density matrix
       0.075 electrons remain in the fully projected matrix

 Search of NHO DM block for the following atom(s):   1
      Select eigenvectors with eigenvalue > 1.900
       2.000 1.948 0.000 0.000 0.000
      Eigenvector ( 1) has occupancy 1.99999
            1.0000 0.0000 0.0000 0.0000 0.0000
           NBO accepted:    1. Label:CR ( 1)   1
      Eigenvector ( 2) has occupancy 1.94760
            0.0000 1.0000 0.0000 0.0000 0.0000
           NBO accepted:    2. Label:LP ( 1)   1
        2 eigenvector(s) stashed in permanent list

 Search of NHO DM block for the following atom(s):   2
      Select eigenvectors with eigenvalue > 1.900
       2.000 0.073 0.002 0.000 0.000
      Eigenvector ( 1) has occupancy 1.99973
            1.0000 0.0000 0.0000 0.0000 0.0000
           NBO accepted:    3. Label:CR ( 1)   2
        1 eigenvector(s) stashed in permanent list

  1-center NBOs projected from the NHO density matrix
       6.053 electrons remain (>1.900); search continues

 Search of NHO DM block for the following atom(s):   1   2
      Select eigenvectors with eigenvalue > 1.900
       2.000 2.000 0.000 0.000 0.000 0.000 0.000 0.000 0.000 0.000
      Eigenvector ( 1) has occupancy 2.00000
            0.0000 0.0000 0.5174 0.7955 0.0000 0.0000 0.1720 0.2645
            0.0000 0.0000
      Occupancy is 2.000 after deleting minor hybrid components
            0.0000 0.0000 0.0000 0.9489 0.0000 0.0000 0.0000 0.3155
            0.0000 0.0000
           NBO accepted:    4. Label:BD ( 1)   1   2
      Occupancy is 0.000 for antibonding component
            0.0000 0.0000 0.0000-0.3155 0.0000 0.0000 0.0000 0.9489
            0.0000 0.0000
           NBO accepted:    5. Label:BD*( 1)   1   2
      Eigenvector ( 2) has occupancy 2.00000
            0.0000 0.0000 0.7955-0.5174 0.0000 0.0000 0.2645-0.1720
            0.0000 0.0000
      Occupancy is 2.000 after deleting minor hybrid components
            0.0000 0.0000 0.9489 0.0000 0.0000 0.0000 0.3155 0.0000
            0.0000 0.0000
           NBO accepted:    6. Label:BD ( 2)   1   2
      Occupancy is 0.000 for antibonding component
            0.0000 0.0000-0.3155 0.0000 0.0000 0.0000 0.9489 0.0000
            0.0000 0.0000
           NBO accepted:    7. Label:BD*( 2)   1   2
        4 eigenvector(s) stashed in permanent list

 Search of NHO DM block for the following atom(s):   1   3
      Select eigenvectors with eigenvalue > 1.900
       1.977 0.001 0.000 0.000 0.000 0.000
      Eigenvector ( 1) has occupancy 1.97658
            0.0000 0.0000 0.0000 0.0000 0.7815 0.6239
      Occupancy is 1.977 after deleting minor hybrid components
            0.0000 0.0000 0.0000 0.0000 0.7815 0.6239
           NBO accepted:    8. Label:BD ( 1)   1   3
      Occupancy is 0.001 for antibonding component
            0.0000 0.0000 0.0000 0.0000-0.6239 0.7815
           NBO accepted:    9. Label:BD*( 1)   1   3
        2 eigenvector(s) stashed in permanent list

  2-center NBOs projected from the NHO density matrix
       0.075 electrons remain in the fully projected matrix

                            Occupancies       Lewis Structure    Low   High
         Max    Occ     -------------------  -----------------   occ   occ
  Cycle  Ctr   Thresh    Lewis   non-Lewis     CR  BD  nC  LP    (L)   (NL)
 ============================================================================
    3     2     1.90    11.92391   0.07609      2   3   0   1     0      0
 ----------------------------------------------------------------------------

 Structure accepted: No low occupancy Lewis orbitals

 -------------------------------------------------------
   Core                      3.99972 ( 99.993% of   4)
   Valence Lewis             7.92419 ( 99.052% of   8)
  ==================      =============================
   Total Lewis              11.92391 ( 99.366% of  12)
  -----------------------------------------------------
   Valence non-Lewis         0.00088 (  0.007% of  12)
   Rydberg non-Lewis         0.07521 (  0.627% of  12)
  ==================      =============================
   Total non-Lewis           0.07609 (  0.634% of  12)
 -------------------------------------------------------


     (Occupancy)   Bond orbital / Coefficients / Hybrids
 ------------------ Lewis ------------------------------------------------------
   1. (1.99999) CR ( 1) O  1            s(100.00%)
                                         1.0000  0.0000  0.0000  0.0000  0.0000
   2. (1.99973) CR ( 1)Li  2            s(100.00%)
                                         1.0000  0.0000  0.0000  0.0000  0.0000
   3. (1.94760) LP ( 1) O  1            s( 84.16%)p 0.19( 15.84%)
                                         0.0000  0.9174  0.0000  0.0000 -0.3980
   4. (2.00000) BD ( 1) O  1-Li  2
               ( 90.05%)   0.9489* O  1 s(  0.00%)p 1.00(100.00%)
                                         0.0000  0.0000  0.4114  0.9114  0.0000
               (  9.95%)   0.3155*Li  2 s(  0.00%)p 1.00(100.00%)
                                         0.0000  0.0000  0.4114  0.9114  0.0000
   5. (2.00000) BD ( 2) O  1-Li  2
               ( 90.05%)   0.9489* O  1 s(  0.00%)p 1.00(100.00%)
                                         0.0000  0.0000  0.9114 -0.4114  0.0000
               (  9.95%)   0.3155*Li  2 s(  0.00%)p 1.00(100.00%)
                                         0.0000  0.0000  0.9114 -0.4114  0.0000
   6. (1.97658) BD ( 1) O  1- H  3
               ( 61.07%)   0.7815* O  1 s( 15.84%)p 5.31( 84.16%)
                                         0.0000  0.3980  0.0000  0.0000  0.9174
               ( 38.93%)   0.6239* H  3 s(100.00%)
                                         1.0000
 ---------------- non-Lewis ----------------------------------------------------
   7. (0.00000) BD*( 1) O  1-Li  2
               (  9.95%)   0.3155* O  1 s(  0.00%)p 1.00(100.00%)
               ( 90.05%)  -0.9489*Li  2 s(  0.00%)p 1.00(100.00%)
   8. (0.00000) BD*( 2) O  1-Li  2
               (  9.95%)   0.3155* O  1 s(  0.00%)p 1.00(100.00%)
               ( 90.05%)  -0.9489*Li  2 s(  0.00%)p 1.00(100.00%)
   9. (0.00088) BD*( 1) O  1- H  3
               ( 38.93%)   0.6239* O  1 s( 15.84%)p 5.31( 84.16%)
                                         0.0000 -0.3980  0.0000  0.0000 -0.9174
               ( 61.07%)  -0.7815* H  3 s(100.00%)
                                        -1.0000
  10. (0.07293) RY ( 1)Li  2            s( 51.14%)p 0.96( 48.86%)
                                         0.0000  0.7152  0.0000  0.0000  0.6990
  11. (0.00229) RY ( 2)Li  2            s( 48.86%)p 1.05( 51.14%)
                                         0.0000  0.6990  0.0000  0.0000 -0.7152


 NHO DIRECTIONALITY AND BOND BENDING (deviation from line of nuclear centers at
                                      the position of maximum hybrid amplitude)

         [Thresholds for printing:  angular deviation  >  1.0 degree]
                                    p- or d-character  > 25.0%
                                    orbital occupancy  >  0.10e

                        Line of Centers        Hybrid 1             Hybrid 2
                        ---------------  -------------------  ------------------
           NBO            Theta   Phi    Theta   Phi    Dev   Theta   Phi    Dev
 ===============================================================================
   4. BD ( 1) O  1-Li  2  180.0    0.0    90.0  245.7  90.0    91.3   65.7  91.3
   5. BD ( 2) O  1-Li  2  180.0    0.0    90.0  155.7  90.0    91.3  335.7  91.3


 SECOND ORDER PERTURBATION THEORY ANALYSIS OF FOCK MATRIX IN NBO BASIS

     Threshold for printing:   0.50 kcal/mol
                                                          E(2) E(NL)-E(L) F(L,NL)
      Donor (L) NBO              Acceptor (NL) NBO      kcal/mol   a.u.    a.u.
 ===============================================================================

 within unit  1
    1. CR ( 1) O  1            10. RY ( 1)Li  2            1.07   20.51   0.132
    3. LP ( 1) O  1            10. RY ( 1)Li  2           30.94    1.34   0.182
    6. BD ( 1) O  1- H  3      10. RY ( 1)Li  2            5.45    1.11   0.070
    6. BD ( 1) O  1- H  3      11. RY ( 2)Li  2            2.75    0.90   0.044


 NATURAL BOND ORBITALS (Summary):

                                                     Principal Delocalizations
           NBO                 Occupancy    Energy   (geminal,vicinal,remote)
 ===============================================================================
 Molecular unit  1  (HOLi)
 ------ Lewis --------------------------------------
    1. CR ( 1) O  1             1.99999   -20.13514  10(v)
    2. CR ( 1)Li  2             1.99973    -2.29548
    3. LP ( 1) O  1             1.94760    -0.95691  10(v)
    4. BD ( 1) O  1-Li  2       2.00000    -0.32323
    5. BD ( 2) O  1-Li  2       2.00000    -0.32323
    6. BD ( 1) O  1- H  3       1.97658    -0.73479  10(v),11(v)
 ------ non-Lewis ----------------------------------
    7. BD*( 1) O  1-Li  2       0.00000     0.26713
    8. BD*( 2) O  1-Li  2       0.00000     0.26713
    9. BD*( 1) O  1- H  3       0.00088     0.70318
   10. RY ( 1)Li  2             0.07293     0.37931
   11. RY ( 2)Li  2             0.00229     0.16108
          -------------------------------
                 Total Lewis   11.92391  ( 99.3659%)
           Valence non-Lewis    0.00088  (  0.0074%)
           Rydberg non-Lewis    0.07521  (  0.6268%)
          -------------------------------
               Total unit  1   12.00000  (100.0000%)
              Charge unit  1    0.00000

 $CHOOSE
   LONE 1 1 END
   BOND D 1 2 S 1 3 END
 $END

 NBO analysis completed in 0.16 CPU seconds (0 wall seconds)
 Maximum scratch memory used by NBO was 221794 words (1.69 MB)
 Maximum scratch memory used by G16NBO was 8312 words (0.06 MB)

 Opening RunExU unformatted file "/cluster/work/users/beto93/LiOH/Gau-2325356.EUF"
 Read unf file /cluster/work/users/beto93/LiOH/Gau-2325356.EUF:
 Label Gaussian matrix elements                                         IVers= 2 NLab= 2 Version=ES64L-G16RevC.01
 Title NBO-LiOH                                                        
 NAtoms=     3 NBasis=    11 NBsUse=    11 ICharg=     0 Multip=     1 NE=    12 Len12L=8 Len4L=8 IOpCl= 0 ICGU=111
 GAUSSIAN SCALARS                    NI= 1 NR= 1 NTot=       1 LenBuf=    2 NRI=1 N=    1000
 NPA CHARGES                         NI= 0 NR= 1 NTot=       3 LenBuf= 4000 NRI=1 N=       3
 Recovered energy= -81.7685651808     dipole=      0.000000000000      0.000000000000     -0.579720294647
 Unable to Open any file for archive entry.
 1\1\GINC-C1-4\FOpt\RHF\STO-3G\H1Li1O1\BETO93\24-Jul-2024\0\\#Opt=VTigh
 t RHF/STO-3G Pop=NBO7Read\\NBO-LiOH\\0,1\O,0.,0.,-0.0001013409\Li,0.,0
 .,1.4321591834\H,0.,0.,-0.9710578425\\Version=ES64L-G16RevC.01\State=1
 -SG\HF=-81.7685652\RMSD=4.656e-09\RMSF=7.362e-08\Dipole=0.,0.,0.579720
 3\Quadrupole=-1.8379691,-1.8379691,3.6759382,0.,0.,0.\PG=C*V [C*(Li1O1
 H1)]\\@
 The archive entry for this job was punched.


 THERE'S A SUCKER BORN EVERY MINUTE

              -- PHINEAS TAYLOR (P.T.) BARNUM
 Job cpu time:       0 days  0 hours  0 minutes 25.7 seconds.
 Elapsed time:       0 days  0 hours  0 minutes  8.5 seconds.
 File lengths (MBytes):  RWF=     10 Int=      0 D2E=      0 Chk=      1 Scr=      1
 Normal termination of Gaussian 16 at Wed Jul 24 10:54:14 2024.
