 Entering Gaussian System, Link 0=g16
 Initial command:
 /cluster/software/Gaussian/g16_C.01/l1.exe "/cluster/work/users/beto93/mol06/Gau-980693.inp" -scrdir="/cluster/work/users/beto93/mol06/"
 Entering Link 1 = /cluster/software/Gaussian/g16_C.01/l1.exe PID=    980701.
  
 Copyright (c) 1988-2019, Gaussian, Inc.  All Rights Reserved.
  
 This is part of the Gaussian(R) 16 program.  It is based on
 the Gaussian(R) 09 system (copyright 2009, Gaussian, Inc.),
 the Gaussian(R) 03 system (copyright 2003, Gaussian, Inc.),
 the Gaussian(R) 98 system (copyright 1998, Gaussian, Inc.),
 the Gaussian(R) 94 system (copyright 1995, Gaussian, Inc.),
 the Gaussian 92(TM) system (copyright 1992, Gaussian, Inc.),
 the Gaussian 90(TM) system (copyright 1990, Gaussian, Inc.),
 the Gaussian 88(TM) system (copyright 1988, Gaussian, Inc.),
 the Gaussian 86(TM) system (copyright 1986, Carnegie Mellon
 University), and the Gaussian 82(TM) system (copyright 1983,
 Carnegie Mellon University). Gaussian is a federally registered
 trademark of Gaussian, Inc.
  
 This software contains proprietary and confidential information,
 including trade secrets, belonging to Gaussian, Inc.
  
 This software is provided under written license and may be
 used, copied, transmitted, or stored only in accord with that
 written license.
  
 The following legend is applicable only to US Government
 contracts under FAR:
  
                    RESTRICTED RIGHTS LEGEND
  
 Use, reproduction and disclosure by the US Government is
 subject to restrictions as set forth in subparagraphs (a)
 and (c) of the Commercial Computer Software - Restricted
 Rights clause in FAR 52.227-19.
  
 Gaussian, Inc.
 340 Quinnipiac St., Bldg. 40, Wallingford CT 06492
  
  
 ---------------------------------------------------------------
 Warning -- This program may not be used in any manner that
 competes with the business of Gaussian, Inc. or will provide
 assistance to any competitor of Gaussian, Inc.  The licensee
 of this program is prohibited from giving any competitor of
 Gaussian, Inc. access to this program.  By using this program,
 the user acknowledges that Gaussian, Inc. is engaged in the
 business of creating and licensing software in the field of
 computational chemistry and represents and warrants to the
 licensee that it is not a competitor of Gaussian, Inc. and that
 it will not use this program in any manner prohibited above.
 ---------------------------------------------------------------
  

 Cite this work as:
 Gaussian 16, Revision C.01,
 M. J. Frisch, G. W. Trucks, H. B. Schlegel, G. E. Scuseria, 
 M. A. Robb, J. R. Cheeseman, G. Scalmani, V. Barone, 
 G. A. Petersson, H. Nakatsuji, X. Li, M. Caricato, A. V. Marenich, 
 J. Bloino, B. G. Janesko, R. Gomperts, B. Mennucci, H. P. Hratchian, 
 J. V. Ortiz, A. F. Izmaylov, J. L. Sonnenberg, D. Williams-Young, 
 F. Ding, F. Lipparini, F. Egidi, J. Goings, B. Peng, A. Petrone, 
 T. Henderson, D. Ranasinghe, V. G. Zakrzewski, J. Gao, N. Rega, 
 G. Zheng, W. Liang, M. Hada, M. Ehara, K. Toyota, R. Fukuda, 
 J. Hasegawa, M. Ishida, T. Nakajima, Y. Honda, O. Kitao, H. Nakai, 
 T. Vreven, K. Throssell, J. A. Montgomery, Jr., J. E. Peralta, 
 F. Ogliaro, M. J. Bearpark, J. J. Heyd, E. N. Brothers, K. N. Kudin, 
 V. N. Staroverov, T. A. Keith, R. Kobayashi, J. Normand, 
 K. Raghavachari, A. P. Rendell, J. C. Burant, S. S. Iyengar, 
 J. Tomasi, M. Cossi, J. M. Millam, M. Klene, C. Adamo, R. Cammi, 
 J. W. Ochterski, R. L. Martin, K. Morokuma, O. Farkas, 
 J. B. Foresman, and D. J. Fox, Gaussian, Inc., Wallingford CT, 2019.
 
 ******************************************
 Gaussian 16:  ES64L-G16RevC.01  3-Jul-2019
                18-Nov-2024 
 ******************************************
 %LindaWorkers=c1-28-ib
 %NProcShared=4
 Will use up to    4 processors via shared memory.
 %mem=25GB
 %chk=mol06.chk
 SetLPE:    new flags="-opt 'Tsnet.Node.lindarsharg: ssh'  -nodelist 'c1-28-ib.saga' -env GAUSS_MDEF=3355443200 -env GAUSS_EXEDIR="/cluster/software/Gaussian/g16_C.01/bsd:/cluster/software/Gaussian/g16_C.01""
 Will use up to    1 processors via Linda.
 -----------------------------------------------------------------
 #RHF/6-31G* int=nobasistransform Symmetry=None 5D 7F Pop=NBO7Read
 -----------------------------------------------------------------
 1/38=1,163=2,172=1/1;
 2/12=2,15=3,17=6,18=5,40=1/2;
 3/5=1,6=6,7=1,8=11,11=1,25=1,30=1,60=-1,116=1/1,2,3;
 4//1;
 5/5=2,38=5/2;
 6/7=2,8=2,9=2,10=2,28=1,40=2,113=1,114=1,124=2103/1,12;
 99/5=1,9=1/99;
 ---------
 mol06-NBO
 ---------
 Symbolic Z-matrix:
 Charge =  0 Multiplicity = 1
 C                     0.        0.        0. 
 H                     0.62912   0.62912   0.62912 
 H                    -0.62912  -0.62912   0.62912 
 H                     0.62912  -0.62912  -0.62912 
 H                    -0.62912   0.62912  -0.62912 
 
                          Input orientation:                          
 ---------------------------------------------------------------------
 Center     Atomic      Atomic             Coordinates (Angstroms)
 Number     Number       Type             X           Y           Z
 ---------------------------------------------------------------------
      1          6           0        0.000000    0.000000    0.000000
      2          1           0        0.629118    0.629118    0.629118
      3          1           0       -0.629118   -0.629118    0.629118
      4          1           0        0.629118   -0.629118   -0.629118
      5          1           0       -0.629118    0.629118   -0.629118
 ---------------------------------------------------------------------
                    Distance matrix (angstroms):
                    1          2          3          4          5
     1  C    0.000000
     2  H    1.089664   0.000000
     3  H    1.089664   1.779414   0.000000
     4  H    1.089664   1.779414   1.779414   0.000000
     5  H    1.089664   1.779414   1.779414   1.779414   0.000000
 Symmetry turned off by external request.
 Stoichiometry    CH4
 Rotational constants (GHZ):         158.3717979         158.3717979         158.3717979
 Standard basis: 6-31G(d) (5D, 7F)
    22 basis functions,    44 primitive gaussians,    23 cartesian basis functions
     5 alpha electrons        5 beta electrons
       nuclear repulsion energy        13.4395278899 Hartrees.
 NAtoms=    5 NActive=    5 NUniq=    5 SFac= 1.00D+00 NAtFMM=   60 NAOKFM=F Big=F
 Integral buffers will be    131072 words long.
 Raffenetti 1 integral format.
 Two-electron integral symmetry is turned off.
 One-electron integrals computed using PRISM.
 NBasis=    22 RedAO= T EigKep=  2.05D-02  NBF=    22
 NBsUse=    22 1.00D-06 EigRej= -1.00D+00 NBFU=    22
 ExpMin= 1.61D-01 ExpMax= 3.05D+03 ExpMxC= 4.57D+02 IAcc=3 IRadAn=         5 AccDes= 0.00D+00
 Harris functional with IExCor=  205 and IRadAn=       5 diagonalized for initial guess.
 HarFok:  IExCor=  205 AccDes= 0.00D+00 IRadAn=         5 IDoV= 1 UseB2=F ITyADJ=14
 ICtDFT=  3500011 ScaDFX=  1.000000  1.000000  1.000000  1.000000
 FoFCou: FMM=F IPFlag=           0 FMFlag=      100000 FMFlg1=           0
         NFxFlg=           0 DoJE=T BraDBF=F KetDBF=T FulRan=T
         wScrn=  0.000000 ICntrl=       500 IOpCl=  0 I1Cent=   200000004 NGrid=           0
         NMat0=    1 NMatS0=      1 NMatT0=    0 NMatD0=    1 NMtDS0=    0 NMtDT0=    0
 Symmetry not used in FoFCou.
 Keep R1 ints in memory in canonical form, NReq=862014.
 Requested convergence on RMS density matrix=1.00D-08 within 128 cycles.
 Requested convergence on MAX density matrix=1.00D-06.
 Requested convergence on             energy=1.00D-06.
 No special actions if energy rises.
 SCF Done:  E(RHF) =  -40.1947434984     A.U. after    8 cycles
            NFock=  8  Conv=0.46D-09     -V/T= 1.9993

 **********************************************************************

            Population analysis using the SCF Density.

 **********************************************************************

 Alpha  occ. eigenvalues --  -11.20369  -0.94218  -0.54469  -0.54469  -0.54469
 Alpha virt. eigenvalues --    0.25602   0.32613   0.32613   0.32613   0.73037
 Alpha virt. eigenvalues --    0.73037   0.73037   1.17908   1.17908   1.17908
 Alpha virt. eigenvalues --    1.24441   1.32858   1.94171   1.94171   2.58291
 Alpha virt. eigenvalues --    2.58291   2.58291
          Condensed to atoms (all electrons):
               1          2          3          4          5
     1  C    5.129997   0.386519   0.386519   0.386519   0.386519
     2  H    0.386519   0.523684  -0.026407  -0.026407  -0.026407
     3  H    0.386519  -0.026407   0.523684  -0.026407  -0.026407
     4  H    0.386519  -0.026407  -0.026407   0.523684  -0.026407
     5  H    0.386519  -0.026407  -0.026407  -0.026407   0.523684
 Mulliken charges:
               1
     1  C   -0.676074
     2  H    0.169019
     3  H    0.169019
     4  H    0.169019
     5  H    0.169019
 Sum of Mulliken charges =  -0.00000
 Mulliken charges with hydrogens summed into heavy atoms:
               1
     1  C   -0.000000
 Electronic spatial extent (au):  <R**2>=             35.6844
 Charge=             -0.0000 electrons
 Dipole moment (field-independent basis, Debye):
    X=              0.0000    Y=             -0.0000    Z=             -0.0000  Tot=              0.0000
 Quadrupole moment (field-independent basis, Debye-Ang):
   XX=             -8.3947   YY=             -8.3947   ZZ=             -8.3947
   XY=             -0.0000   XZ=             -0.0000   YZ=              0.0000
 Traceless Quadrupole moment (field-independent basis, Debye-Ang):
   XX=             -0.0000   YY=              0.0000   ZZ=             -0.0000
   XY=             -0.0000   XZ=             -0.0000   YZ=              0.0000
 Octapole moment (field-independent basis, Debye-Ang**2):
  XXX=              0.0000  YYY=             -0.0000  ZZZ=             -0.0000  XYY=              0.0000
  XXY=             -0.0000  XXZ=             -0.0000  XZZ=              0.0000  YZZ=             -0.0000
  YYZ=             -0.0000  XYZ=              0.6609
 Hexadecapole moment (field-independent basis, Debye-Ang**3):
 XXXX=            -15.9561 YYYY=            -15.9561 ZZZZ=            -15.9561 XXXY=             -0.0000
 XXXZ=             -0.0000 YYYX=             -0.0000 YYYZ=              0.0000 ZZZX=             -0.0000
 ZZZY=              0.0000 XXYY=             -4.8710 XXZZ=             -4.8710 YYZZ=             -4.8710
 XXYZ=              0.0000 YYXZ=             -0.0000 ZZXY=             -0.0000
 N-N= 1.343952788990D+01 E-N=-1.199307645797D+02  KE= 4.022211473888D+01
 Running external command "gaunbo7 R"
         input file       "/cluster/work/users/beto93/mol06/Gau-980701.EIn"
         output file      "/cluster/work/users/beto93/mol06/Gau-980701.EOu"
         message file     "/cluster/work/users/beto93/mol06/Gau-980701.EMs"
         fchk file        "/cluster/work/users/beto93/mol06/Gau-980701.EFC"
         mat. el file     "/cluster/work/users/beto93/mol06/Gau-980701.EUF"

 Writing WrtUnf unformatted file "/cluster/work/users/beto93/mol06/Gau-980701.EUF"
 Gaussian matrix elements                                         Version   2 NLab=11 Len12L=8 Len4L=8
 Write SHELL TO ATOM MAP                   from file      0 offset           0 length                  12 to matrix element file.
 Write SHELL TYPES                         from file      0 offset           0 length                  12 to matrix element file.
 Write NUMBER OF PRIMITIVES PER SHELL      from file      0 offset           0 length                  12 to matrix element file.
 Write PRIMITIVE EXPONENTS                 from file      0 offset           0 length                  27 to matrix element file.
 Write CONTRACTION COEFFICIENTS            from file      0 offset           0 length                  27 to matrix element file.
 Write P(S=P) CONTRACTION COEFFICIENTS     from file      0 offset           0 length                  27 to matrix element file.
 Write COORDINATES OF EACH SHELL           from file      0 offset           0 length                  36 to matrix element file.
 Write BONDS PER ATOM                      from file      0 offset           0 length                   5 to matrix element file.
 Write BONDED ATOMS                        from file      0 offset           0 length                   8 to matrix element file.
 Write BOND TYPES                          from file      0 offset           0 length                   8 to matrix element file.
 Write ONIOM CHARGE/MULT                   from file      0 offset           0 length                  32 to matrix element file.
 Write ONIOM ATOM LAYERS                   from file      0 offset           0 length                   5 to matrix element file.
 Write ONIOM ATOM MODIFIERS                from file      0 offset           0 length                   5 to matrix element file.
 Write ONIOM ATOM TYPES                    from file      0 offset           0 length                   5 to matrix element file.
 Write ONIOM LINK ATOMS                    from file      0 offset           0 length                   5 to matrix element file.
 Write ONIOM LINK CHARGES                  from file      0 offset           0 length                   5 to matrix element file.
 Write ONIOM LINK DISTANCES                from file      0 offset           0 length                  20 to matrix element file.
 Write SYMINF INTS                         from file      0 offset           0 length                  26 to matrix element file.
 Write ROTTR TO SO                         from file      0 offset           0 length                  12 to matrix element file.
 Write GAUSSIAN SCALARS                    from file    501 offset           0 to matrix element file.
 Write OPTIMIZATION FLAGS                  from file      0 offset           0 length                   5 to matrix element file.
 Write INTEGER ISO                         from file      0 offset           0 length                   5 to matrix element file.
 Write INTEGER SPIN                        from file      0 offset           0 length                   5 to matrix element file.
 Write REAL ZEFFECTIVE                     from file      0 offset           0 length                   5 to matrix element file.
 Write REAL GFACTOR                        from file      0 offset           0 length                   5 to matrix element file.
 Write REAL ZNUCLEAR                       from file      0 offset           0 length                   5 to matrix element file.
 Write MULLIKEN CHARGES                    from file      0 offset           0 length                   5 to matrix element file.
 Write NUCLEAR GRADIENT                    from file  10584 offset           0 length                  15 to matrix element file.
 Array NUCLEAR FORCE CONSTANTS              on  file  10585 does not exist.
 Write ELECTRIC DIPOLE MOMENT              from file      0 offset           0 length                   3 to matrix element file.
 Write NON-ADIABATIC COUPLING              from file  10810 offset           0 length                  15 to matrix element file.
 Write FINITE EM FIELD                     from file  10521 offset           0 length                  35 to matrix element file.
 Write OVERLAP                             from file  10514 offset           0 length                 253 to matrix element file.
 Write CORE HAMILTONIAN ALPHA              from file  10515 offset           0 length                 253 to matrix element file.
 Write CORE HAMILTONIAN BETA               from file  10515 offset         253 length                 253 to matrix element file.
 Write KINETIC ENERGY                      from file  10516 offset           0 length                 253 to matrix element file.
 Write ORTHOGONAL BASIS                    from file  10685 offset           0 length                 484 to matrix element file.
 Write DIPOLE INTEGRALS                    from file  10518 offset           0 length                 759 to matrix element file.
 Array DIP VEL INTEGRALS                    on  file  10572 does not exist.
 Array R X DEL INTEGRALS                    on  file  10572 does not exist.
 Write ALPHA ORBITAL ENERGIES              from file      0 offset           0 length                  22 to matrix element file.
 Write ALPHA MO COEFFICIENTS               from file  10524 offset           0 length                 484 to matrix element file.
 Write ALPHA DENSITY MATRIX                from file      0 offset           0 length                 253 to matrix element file.
 Write ALPHA FOCK MATRIX                   from file  10536 offset           0 length                 253 to matrix element file.
 Write ENERGY-WEIGHTED DENSITY             from file  10571 offset           0 length                 253 to matrix element file.
 Write ALPHA SCF DENSITY MATRIX            from file      0 offset           0 length                 253 to matrix element file.
 No 2e integrals to process.
 Perform NBO analysis...executing G16NBO...

 *********************************** NBO 7.0 ***********************************
             N A T U R A L   A T O M I C   O R B I T A L   A N D
          N A T U R A L   B O N D   O R B I T A L   A N A L Y S I S
 **************************** Espen Tangen (S101595) ***************************
  (c) Copyright 1996-2021 Board of Regents of the University of Wisconsin System
      on behalf of the Theoretical Chemistry Institute.  All rights reserved.

          Cite this program [NBO 7.0.10 (8-Feb-2021)] as:

          NBO 7.0.  E. D. Glendening, J. K. Badenhoop, A. E. Reed,
          J. E. Carpenter, J. A. Bohmann, C. M. Morales, P. Karafiloglou,
          C. R. Landis, and F. Weinhold, Theoretical Chemistry Institute,
          University of Wisconsin, Madison, WI (2018)

       /NPA    / : Natural Population Analysis
       /AOPNAO / : Print the AO to PNAO transformation
       /AONAO  / : Print the AO to NAO transformation
       /AOMO   / : Print the MOs in the AO basis
       /BOAO   / : Print the AO bond-order matrix
       /DMAO   / : Print the AO density matrix
       /DMPNAO / : Print the PNAO density matrix
       /DMNAO  / : Print the NAO density matrix
       /DMMO   / : Print the MO density matrix
       /SAO    / : Print the AO overlap matrix
       /SPNAO  / : Print the PNAO overlap matrix
       /DETAIL / : Write details of NBO search
       /ARCHIVE/ : Write the archive file to lfn47
       /AOINFO / : Write AO information to lfn31
       /FILE   / : Set to mol06.gen*

 Filename set to mol06.gen1

 Job title: mol06-NBO


 MOs in the AO basis:

           AO          1       2       3       4       5       6       7       8
      ------------ ------- ------- ------- ------- ------- ------- ------- -------
   1.  C 1 (s)      0.9962 -0.1966  0.0000  0.0000  0.0000 -0.1540  0.0000  0.0000
   2.  C 1 (s)      0.0254  0.3721  0.0000  0.0000  0.0000  0.0925  0.0000  0.0000
   3.  C 1 (px)     0.0000  0.0000  0.2814  0.2670  0.1962  0.0000 -0.2432  0.0184
   4.  C 1 (py)     0.0000  0.0000  0.3311 -0.2358 -0.1539  0.0000 -0.1649 -0.1139
   5.  C 1 (pz)     0.0000  0.0000 -0.0119 -0.2491  0.3560  0.0000 -0.0519  0.2751
   6.  C 1 (s)     -0.0164  0.3838  0.0000  0.0000  0.0000  2.7627  0.0000  0.0000
   7.  C 1 (px)     0.0000  0.0000  0.1488  0.1412  0.1038  0.0000 -1.2184  0.0924
   8.  C 1 (py)     0.0000  0.0000  0.1751 -0.1247 -0.0814  0.0000 -0.8260 -0.5705
   9.  C 1 (pz)     0.0000  0.0000 -0.0063 -0.1317  0.1883  0.0000 -0.2602  1.3786
  10.  C 1 (d5)     0.0000  0.0000  0.0000  0.0000  0.0000  0.0000  0.0000  0.0000
  11.  C 1 (d2)     0.0000  0.0000  0.0274 -0.0195 -0.0127  0.0000  0.0084  0.0058
  12.  C 1 (d3)     0.0000  0.0000  0.0233  0.0221  0.0162  0.0000  0.0123 -0.0009
  13.  C 1 (d4)     0.0000  0.0000  0.0000  0.0000  0.0000  0.0000  0.0000  0.0000
  14.  C 1 (d1)     0.0000  0.0000 -0.0010 -0.0206  0.0295  0.0000  0.0026 -0.0140
  15.  H 2 (s)     -0.0001  0.1346  0.2327 -0.0845  0.1543  0.0033  0.0691 -0.0270
  16.  H 2 (s)      0.0031  0.0341  0.1929 -0.0700  0.1279 -1.0359  1.7816 -0.6961
  17.  H 3 (s)     -0.0001  0.1346 -0.2420 -0.1086  0.1216  0.0033 -0.0535 -0.0557
  18.  H 3 (s)      0.0031  0.0341 -0.2006 -0.0900  0.1008 -1.0359 -1.3793 -1.4353
  19.  H 4 (s)     -0.0001  0.1346 -0.0147  0.2914 -0.0023  0.0033  0.0040  0.0215
  20.  H 4 (s)      0.0031  0.0341 -0.0122  0.2415 -0.0019 -1.0359  0.1022  0.5532
  21.  H 5 (s)     -0.0001  0.1346  0.0239 -0.0983 -0.2737  0.0033 -0.0196  0.0613
  22.  H 5 (s)      0.0031  0.0341  0.0198 -0.0815 -0.2268 -1.0359 -0.5044  1.5782

           AO          9      10      11      12      13      14      15      16
      ------------ ------- ------- ------- ------- ------- ------- ------- -------
   1.  C 1 (s)      0.0000  0.0000  0.0000  0.0000  0.0000  0.0000  0.0000  0.1038
   2.  C 1 (s)      0.0000  0.0000  0.0000  0.0000  0.0000  0.0000  0.0000 -1.0498
   3.  C 1 (px)    -0.1719 -0.0534 -0.7290 -0.0580 -0.6315  0.0796 -0.6561  0.0000
   4.  C 1 (py)     0.2210 -0.7287  0.0482  0.0653  0.6498  0.2406 -0.5962  0.0000
   5.  C 1 (pz)     0.1030 -0.0611  0.0624 -0.7280 -0.1208  0.8783  0.2228  0.0000
   6.  C 1 (s)      0.0000  0.0000  0.0000  0.0000  0.0000  0.0000  0.0000  1.4307
   7.  C 1 (px)    -0.8611  0.0983  1.3427  0.1068  0.8287 -0.1045  0.8611  0.0000
   8.  C 1 (py)     1.1076  1.3423 -0.0887 -0.1202 -0.8528 -0.3158  0.7824  0.0000
   9.  C 1 (pz)     0.5161  0.1125 -0.1149  1.3409  0.1586 -1.1526 -0.2924  0.0000
  10.  C 1 (d5)     0.0000  0.0000  0.0000  0.0000  0.0000  0.0000  0.0000  0.0000
  11.  C 1 (d2)    -0.0112 -0.1031  0.0068  0.0092 -0.1551 -0.0574  0.1423  0.0000
  12.  C 1 (d3)     0.0087 -0.0076 -0.1031 -0.0082  0.1507 -0.0190  0.1566  0.0000
  13.  C 1 (d4)     0.0000  0.0000  0.0000  0.0000  0.0000  0.0000  0.0000  0.0000
  14.  C 1 (d1)    -0.0052 -0.0086  0.0088 -0.1030  0.0288 -0.2096 -0.0532  0.0000
  15.  H 2 (s)     -0.0229 -0.3582 -0.2627 -0.3062  0.0554 -0.6478  0.5565  0.6213
  16.  H 2 (s)     -0.5895 -0.0567 -0.0416 -0.0484 -0.1026  1.2005 -1.0312 -0.5754
  17.  H 3 (s)     -0.0081  0.3063  0.3157 -0.3124  0.0752 -0.3016 -0.7973  0.6213
  18.  H 3 (s)     -0.2084  0.0485  0.0500 -0.0494 -0.1394  0.5590  1.4776 -0.5754
  19.  H 4 (s)      0.0745  0.3129 -0.3567  0.2569  0.6272  0.5618  0.1528  0.6213
  20.  H 4 (s)      1.9208  0.0495 -0.0564  0.0406 -1.1624 -1.0410 -0.2832 -0.5754
  21.  H 5 (s)     -0.0436 -0.2610  0.3037  0.3617 -0.7578  0.3877  0.0880  0.6213
  22.  H 5 (s)     -1.1229 -0.0413  0.0480  0.0572  1.4044 -0.7184 -0.1631 -0.5754

           AO         17      18      19      20      21      22
      ------------ ------- ------- ------- ------- ------- -------
   1.  C 1 (s)     -0.0793  0.0000  0.0000  0.0000  0.0000  0.0000
   2.  C 1 (s)     -2.1518  0.0000  0.0000  0.0000  0.0000  0.0000
   3.  C 1 (px)     0.0000  0.0000  0.0000  0.0387 -0.0475  0.1603
   4.  C 1 (py)     0.0000  0.0000  0.0000 -0.0079  0.1638  0.0504
   5.  C 1 (pz)     0.0000  0.0000  0.0000  0.1670  0.0188 -0.0348
   6.  C 1 (s)      5.1591  0.0000  0.0000  0.0000  0.0000  0.0000
   7.  C 1 (px)     0.0000  0.0000  0.0000  0.0931 -0.1140  0.3850
   8.  C 1 (py)     0.0000  0.0000  0.0000 -0.0190  0.3935  0.1211
   9.  C 1 (pz)     0.0000  0.0000  0.0000  0.4011  0.0451 -0.0836
  10.  C 1 (d5)     0.0000  0.9950  0.0997  0.0000  0.0000  0.0000
  11.  C 1 (d2)     0.0000  0.0000  0.0000 -0.0521  1.0780  0.3317
  12.  C 1 (d3)     0.0000  0.0000  0.0000  0.2549 -0.3122  1.0546
  13.  C 1 (d4)     0.0000 -0.0997  0.9950  0.0000  0.0000  0.0000
  14.  C 1 (d1)     0.0000  0.0000  0.0000  1.0987  0.1236 -0.2290
  15.  H 2 (s)     -0.3574  0.0000  0.0000 -0.5616 -0.3837 -0.4994
  16.  H 2 (s)     -0.9412  0.0000  0.0000  0.0699  0.0477  0.0621
  17.  H 3 (s)     -0.3574  0.0000  0.0000 -0.3866  0.2771  0.6971
  18.  H 3 (s)     -0.9412  0.0000  0.0000  0.0481 -0.0345 -0.0867
  19.  H 4 (s)     -0.3574  0.0000  0.0000  0.3416  0.6532 -0.4108
  20.  H 4 (s)     -0.9412  0.0000  0.0000 -0.0425 -0.0813  0.0511
  21.  H 5 (s)     -0.3574  0.0000  0.0000  0.6066 -0.5466  0.2131
  22.  H 5 (s)     -0.9412  0.0000  0.0000 -0.0755  0.0680 -0.0265


 AO overlap matrix:

           AO          1       2       3       4       5       6       7       8
      ------------ ------- ------- ------- ------- ------- ------- ------- -------
   1.  C 1 (s)      1.0000  0.2191  0.0000  0.0000  0.0000  0.1843  0.0000  0.0000
   2.  C 1 (s)      0.2191  1.0000  0.0000  0.0000  0.0000  0.8123  0.0000  0.0000
   3.  C 1 (px)     0.0000  0.0000  1.0000  0.0000  0.0000  0.0000  0.5698  0.0000
   4.  C 1 (py)     0.0000  0.0000  0.0000  1.0000  0.0000  0.0000  0.0000  0.5698
   5.  C 1 (pz)     0.0000  0.0000  0.0000  0.0000  1.0000  0.0000  0.0000  0.0000
   6.  C 1 (s)      0.1843  0.8123  0.0000  0.0000  0.0000  1.0000  0.0000  0.0000
   7.  C 1 (px)     0.0000  0.0000  0.5698  0.0000  0.0000  0.0000  1.0000  0.0000
   8.  C 1 (py)     0.0000  0.0000  0.0000  0.5698  0.0000  0.0000  0.0000  1.0000
   9.  C 1 (pz)     0.0000  0.0000  0.0000  0.0000  0.5698  0.0000  0.0000  0.0000
  10.  C 1 (d5)     0.0000  0.0000  0.0000  0.0000  0.0000  0.0000  0.0000  0.0000
  11.  C 1 (d2)     0.0000  0.0000  0.0000  0.0000  0.0000  0.0000  0.0000  0.0000
  12.  C 1 (d3)     0.0000  0.0000  0.0000  0.0000  0.0000  0.0000  0.0000  0.0000
  13.  C 1 (d4)     0.0000  0.0000  0.0000  0.0000  0.0000  0.0000  0.0000  0.0000
  14.  C 1 (d1)     0.0000  0.0000  0.0000  0.0000  0.0000  0.0000  0.0000  0.0000
  15.  H 2 (s)      0.0328  0.2739  0.2134  0.2134  0.2134  0.3772  0.2974  0.2974
  16.  H 2 (s)      0.0922  0.4763  0.1534  0.1534  0.1534  0.7047  0.3364  0.3364
  17.  H 3 (s)      0.0328  0.2739 -0.2134 -0.2134  0.2134  0.3772 -0.2974 -0.2974
  18.  H 3 (s)      0.0922  0.4763 -0.1534 -0.1534  0.1534  0.7047 -0.3364 -0.3364
  19.  H 4 (s)      0.0328  0.2739  0.2134 -0.2134 -0.2134  0.3772  0.2974 -0.2974
  20.  H 4 (s)      0.0922  0.4763  0.1534 -0.1534 -0.1534  0.7047  0.3364 -0.3364
  21.  H 5 (s)      0.0328  0.2739 -0.2134  0.2134 -0.2134  0.3772 -0.2974  0.2974
  22.  H 5 (s)      0.0922  0.4763 -0.1534  0.1534 -0.1534  0.7047 -0.3364  0.3364

           AO          9      10      11      12      13      14      15      16
      ------------ ------- ------- ------- ------- ------- ------- ------- -------
   1.  C 1 (s)      0.0000  0.0000  0.0000  0.0000  0.0000  0.0000  0.0328  0.0922
   2.  C 1 (s)      0.0000  0.0000  0.0000  0.0000  0.0000  0.0000  0.2739  0.4763
   3.  C 1 (px)     0.0000  0.0000  0.0000  0.0000  0.0000  0.0000  0.2134  0.1534
   4.  C 1 (py)     0.0000  0.0000  0.0000  0.0000  0.0000  0.0000  0.2134  0.1534
   5.  C 1 (pz)     0.5698  0.0000  0.0000  0.0000  0.0000  0.0000  0.2134  0.1534
   6.  C 1 (s)      0.0000  0.0000  0.0000  0.0000  0.0000  0.0000  0.3772  0.7047
   7.  C 1 (px)     0.0000  0.0000  0.0000  0.0000  0.0000  0.0000  0.2974  0.3364
   8.  C 1 (py)     0.0000  0.0000  0.0000  0.0000  0.0000  0.0000  0.2974  0.3364
   9.  C 1 (pz)     1.0000  0.0000  0.0000  0.0000  0.0000  0.0000  0.2974  0.3364
  10.  C 1 (d5)     0.0000  1.0000  0.0000  0.0000  0.0000  0.0000  0.0000  0.0000
  11.  C 1 (d2)     0.0000  0.0000  1.0000  0.0000  0.0000  0.0000  0.1955  0.0466
  12.  C 1 (d3)     0.0000  0.0000  0.0000  1.0000  0.0000  0.0000  0.1955  0.0466
  13.  C 1 (d4)     0.0000  0.0000  0.0000  0.0000  1.0000  0.0000  0.0000  0.0000
  14.  C 1 (d1)     0.0000  0.0000  0.0000  0.0000  0.0000  1.0000  0.1955  0.0466
  15.  H 2 (s)      0.2974  0.0000  0.1955  0.1955  0.0000  0.1955  1.0000  0.6583
  16.  H 2 (s)      0.3364  0.0000  0.0466  0.0466  0.0000  0.0466  0.6583  1.0000
  17.  H 3 (s)      0.2974  0.0000 -0.1955 -0.1955  0.0000  0.1955  0.0185  0.1493
  18.  H 3 (s)      0.3364  0.0000 -0.0466 -0.0466  0.0000  0.0466  0.1493  0.4018
  19.  H 4 (s)     -0.2974  0.0000 -0.1955  0.1955  0.0000 -0.1955  0.0185  0.1493
  20.  H 4 (s)     -0.3364  0.0000 -0.0466  0.0466  0.0000 -0.0466  0.1493  0.4018
  21.  H 5 (s)     -0.2974  0.0000  0.1955 -0.1955  0.0000 -0.1955  0.0185  0.1493
  22.  H 5 (s)     -0.3364  0.0000  0.0466 -0.0466  0.0000 -0.0466  0.1493  0.4018

           AO         17      18      19      20      21      22
      ------------ ------- ------- ------- ------- ------- -------
   1.  C 1 (s)      0.0328  0.0922  0.0328  0.0922  0.0328  0.0922
   2.  C 1 (s)      0.2739  0.4763  0.2739  0.4763  0.2739  0.4763
   3.  C 1 (px)    -0.2134 -0.1534  0.2134  0.1534 -0.2134 -0.1534
   4.  C 1 (py)    -0.2134 -0.1534 -0.2134 -0.1534  0.2134  0.1534
   5.  C 1 (pz)     0.2134  0.1534 -0.2134 -0.1534 -0.2134 -0.1534
   6.  C 1 (s)      0.3772  0.7047  0.3772  0.7047  0.3772  0.7047
   7.  C 1 (px)    -0.2974 -0.3364  0.2974  0.3364 -0.2974 -0.3364
   8.  C 1 (py)    -0.2974 -0.3364 -0.2974 -0.3364  0.2974  0.3364
   9.  C 1 (pz)     0.2974  0.3364 -0.2974 -0.3364 -0.2974 -0.3364
  10.  C 1 (d5)     0.0000  0.0000  0.0000  0.0000  0.0000  0.0000
  11.  C 1 (d2)    -0.1955 -0.0466 -0.1955 -0.0466  0.1955  0.0466
  12.  C 1 (d3)    -0.1955 -0.0466  0.1955  0.0466 -0.1955 -0.0466
  13.  C 1 (d4)     0.0000  0.0000  0.0000  0.0000  0.0000  0.0000
  14.  C 1 (d1)     0.1955  0.0466 -0.1955 -0.0466 -0.1955 -0.0466
  15.  H 2 (s)      0.0185  0.1493  0.0185  0.1493  0.0185  0.1493
  16.  H 2 (s)      0.1493  0.4018  0.1493  0.4018  0.1493  0.4018
  17.  H 3 (s)      1.0000  0.6583  0.0185  0.1493  0.0185  0.1493
  18.  H 3 (s)      0.6583  1.0000  0.1493  0.4018  0.1493  0.4018
  19.  H 4 (s)      0.0185  0.1493  1.0000  0.6583  0.0185  0.1493
  20.  H 4 (s)      0.1493  0.4018  0.6583  1.0000  0.1493  0.4018
  21.  H 5 (s)      0.0185  0.1493  0.0185  0.1493  1.0000  0.6583
  22.  H 5 (s)      0.1493  0.4018  0.1493  0.4018  0.6583  1.0000


 AO bond-order matrix:

           AO          1       2       3       4       5       6       7       8
      ------------ ------- ------- ------- ------- ------- ------- ------- -------
   1.  C 1 (s)      2.0620 -0.0957  0.0000  0.0000  0.0000 -0.1836  0.0000  0.0000
   2.  C 1 (s)     -0.0957  0.2783  0.0000  0.0000  0.0000  0.2848  0.0000  0.0000
   3.  C 1 (px)     0.0000  0.0000  0.3778  0.0000  0.0000  0.0000  0.1998  0.0000
   4.  C 1 (py)     0.0000  0.0000  0.0000  0.3778  0.0000  0.0000  0.0000  0.1998
   5.  C 1 (pz)     0.0000  0.0000  0.0000  0.0000  0.3778  0.0000  0.0000  0.0000
   6.  C 1 (s)     -0.1836  0.2848  0.0000  0.0000  0.0000  0.2952  0.0000  0.0000
   7.  C 1 (px)     0.0000  0.0000  0.1998  0.0000  0.0000  0.0000  0.1057  0.0000
   8.  C 1 (py)     0.0000  0.0000  0.0000  0.1998  0.0000  0.0000  0.0000  0.1057
   9.  C 1 (pz)     0.0000  0.0000  0.0000  0.0000  0.1998  0.0000  0.0000  0.0000
  10.  C 1 (d5)     0.0000  0.0000  0.0000  0.0000  0.0000  0.0000  0.0000  0.0000
  11.  C 1 (d2)     0.0000  0.0000  0.0000  0.0313  0.0000  0.0000  0.0000  0.0165
  12.  C 1 (d3)     0.0000  0.0000  0.0313  0.0000  0.0000  0.0000  0.0165  0.0000
  13.  C 1 (d4)     0.0000  0.0000  0.0000  0.0000  0.0000  0.0000  0.0000  0.0000
  14.  C 1 (d1)     0.0000  0.0000  0.0000  0.0000  0.0313  0.0000  0.0000  0.0000
  15.  H 2 (s)     -0.0531  0.1002  0.1464  0.1464  0.1464  0.1034  0.0774  0.0774
  16.  H 2 (s)     -0.0072  0.0255  0.1214  0.1214  0.1214  0.0261  0.0642  0.0642
  17.  H 3 (s)     -0.0531  0.1002 -0.1464 -0.1464  0.1464  0.1034 -0.0774 -0.0774
  18.  H 3 (s)     -0.0072  0.0255 -0.1214 -0.1214  0.1214  0.0261 -0.0642 -0.0642
  19.  H 4 (s)     -0.0531  0.1002  0.1464 -0.1464 -0.1464  0.1034  0.0774 -0.0774
  20.  H 4 (s)     -0.0072  0.0255  0.1214 -0.1214 -0.1214  0.0261  0.0642 -0.0642
  21.  H 5 (s)     -0.0531  0.1002 -0.1464  0.1464 -0.1464  0.1034 -0.0774  0.0774
  22.  H 5 (s)     -0.0072  0.0255 -0.1214  0.1214 -0.1214  0.0261 -0.0642  0.0642

           AO          9      10      11      12      13      14      15      16
      ------------ ------- ------- ------- ------- ------- ------- ------- -------
   1.  C 1 (s)      0.0000  0.0000  0.0000  0.0000  0.0000  0.0000 -0.0531 -0.0072
   2.  C 1 (s)      0.0000  0.0000  0.0000  0.0000  0.0000  0.0000  0.1002  0.0255
   3.  C 1 (px)     0.0000  0.0000  0.0000  0.0313  0.0000  0.0000  0.1464  0.1214
   4.  C 1 (py)     0.0000  0.0000  0.0313  0.0000  0.0000  0.0000  0.1464  0.1214
   5.  C 1 (pz)     0.1998  0.0000  0.0000  0.0000  0.0000  0.0313  0.1464  0.1214
   6.  C 1 (s)      0.0000  0.0000  0.0000  0.0000  0.0000  0.0000  0.1034  0.0261
   7.  C 1 (px)     0.0000  0.0000  0.0000  0.0165  0.0000  0.0000  0.0774  0.0642
   8.  C 1 (py)     0.0000  0.0000  0.0165  0.0000  0.0000  0.0000  0.0774  0.0642
   9.  C 1 (pz)     0.1057  0.0000  0.0000  0.0000  0.0000  0.0165  0.0774  0.0642
  10.  C 1 (d5)     0.0000  0.0000  0.0000  0.0000  0.0000  0.0000  0.0000  0.0000
  11.  C 1 (d2)     0.0000  0.0000  0.0026  0.0000  0.0000  0.0000  0.0121  0.0101
  12.  C 1 (d3)     0.0000  0.0000  0.0000  0.0026  0.0000  0.0000  0.0121  0.0101
  13.  C 1 (d4)     0.0000  0.0000  0.0000  0.0000  0.0000  0.0000  0.0000  0.0000
  14.  C 1 (d1)     0.0165  0.0000  0.0000  0.0000  0.0000  0.0026  0.0121  0.0101
  15.  H 2 (s)      0.0774  0.0000  0.0121  0.0121  0.0000  0.0121  0.2065  0.1503
  16.  H 2 (s)      0.0642  0.0000  0.0101  0.0101  0.0000  0.0101  0.1503  0.1193
  17.  H 3 (s)      0.0774  0.0000 -0.0121 -0.0121  0.0000  0.0121 -0.0205 -0.0379
  18.  H 3 (s)      0.0642  0.0000 -0.0101 -0.0101  0.0000  0.0101 -0.0379 -0.0366
  19.  H 4 (s)     -0.0774  0.0000 -0.0121  0.0121  0.0000 -0.0121 -0.0205 -0.0379
  20.  H 4 (s)     -0.0642  0.0000 -0.0101  0.0101  0.0000 -0.0101 -0.0379 -0.0366
  21.  H 5 (s)     -0.0774  0.0000  0.0121 -0.0121  0.0000 -0.0121 -0.0205 -0.0379
  22.  H 5 (s)     -0.0642  0.0000  0.0101 -0.0101  0.0000 -0.0101 -0.0379 -0.0366

           AO         17      18      19      20      21      22
      ------------ ------- ------- ------- ------- ------- -------
   1.  C 1 (s)     -0.0531 -0.0072 -0.0531 -0.0072 -0.0531 -0.0072
   2.  C 1 (s)      0.1002  0.0255  0.1002  0.0255  0.1002  0.0255
   3.  C 1 (px)    -0.1464 -0.1214  0.1464  0.1214 -0.1464 -0.1214
   4.  C 1 (py)    -0.1464 -0.1214 -0.1464 -0.1214  0.1464  0.1214
   5.  C 1 (pz)     0.1464  0.1214 -0.1464 -0.1214 -0.1464 -0.1214
   6.  C 1 (s)      0.1034  0.0261  0.1034  0.0261  0.1034  0.0261
   7.  C 1 (px)    -0.0774 -0.0642  0.0774  0.0642 -0.0774 -0.0642
   8.  C 1 (py)    -0.0774 -0.0642 -0.0774 -0.0642  0.0774  0.0642
   9.  C 1 (pz)     0.0774  0.0642 -0.0774 -0.0642 -0.0774 -0.0642
  10.  C 1 (d5)     0.0000  0.0000  0.0000  0.0000  0.0000  0.0000
  11.  C 1 (d2)    -0.0121 -0.0101 -0.0121 -0.0101  0.0121  0.0101
  12.  C 1 (d3)    -0.0121 -0.0101  0.0121  0.0101 -0.0121 -0.0101
  13.  C 1 (d4)     0.0000  0.0000  0.0000  0.0000  0.0000  0.0000
  14.  C 1 (d1)     0.0121  0.0101 -0.0121 -0.0101 -0.0121 -0.0101
  15.  H 2 (s)     -0.0205 -0.0379 -0.0205 -0.0379 -0.0205 -0.0379
  16.  H 2 (s)     -0.0379 -0.0366 -0.0379 -0.0366 -0.0379 -0.0366
  17.  H 3 (s)      0.2065  0.1503 -0.0205 -0.0379 -0.0205 -0.0379
  18.  H 3 (s)      0.1503  0.1193 -0.0379 -0.0366 -0.0379 -0.0366
  19.  H 4 (s)     -0.0205 -0.0379  0.2065  0.1503 -0.0205 -0.0379
  20.  H 4 (s)     -0.0379 -0.0366  0.1503  0.1193 -0.0379 -0.0366
  21.  H 5 (s)     -0.0205 -0.0379 -0.0205 -0.0379  0.2065  0.1503
  22.  H 5 (s)     -0.0379 -0.0366 -0.0379 -0.0366  0.1503  0.1193


 AO density matrix:

           AO          1       2       3       4       5       6       7       8
      ------------ ------- ------- ------- ------- ------- ------- ------- -------
   1.  C 1 (s)      1.9998  0.4480  0.0000  0.0000  0.0000  0.3659  0.0000  0.0000
   2.  C 1 (s)      0.4480  1.5678  0.0000  0.0000  0.0000  1.7125  0.0000  0.0000
   3.  C 1 (px)     0.0000  0.0000  1.2643  0.0000  0.0000  0.0000  1.3766  0.0000
   4.  C 1 (py)     0.0000  0.0000  0.0000  1.2643  0.0000  0.0000  0.0000  1.3766
   5.  C 1 (pz)     0.0000  0.0000  0.0000  0.0000  1.2643  0.0000  0.0000  0.0000
   6.  C 1 (s)      0.3659  1.7125  0.0000  0.0000  0.0000  1.8788  0.0000  0.0000
   7.  C 1 (px)     0.0000  0.0000  1.3766  0.0000  0.0000  0.0000  1.4989  0.0000
   8.  C 1 (py)     0.0000  0.0000  0.0000  1.3766  0.0000  0.0000  0.0000  1.4989
   9.  C 1 (pz)     0.0000  0.0000  0.0000  0.0000  1.3766  0.0000  0.0000  0.0000
  10.  C 1 (d5)     0.0000  0.0000  0.0000  0.0000  0.0000  0.0000  0.0000  0.0000
  11.  C 1 (d2)     0.0000  0.0000  0.0000  0.3080  0.0000  0.0000  0.0000  0.3354
  12.  C 1 (d3)     0.0000  0.0000  0.3080  0.0000  0.0000  0.0000  0.3354  0.0000
  13.  C 1 (d4)     0.0000  0.0000  0.0000  0.0000  0.0000  0.0000  0.0000  0.0000
  14.  C 1 (d1)     0.0000  0.0000  0.0000  0.0000  0.3080  0.0000  0.0000  0.0000
  15.  H 2 (s)      0.0617  0.7343  0.6433  0.6433  0.6433  0.8118  0.7004  0.7004
  16.  H 2 (s)      0.1798  1.1625  0.5008  0.5008  0.5008  1.2799  0.5453  0.5453
  17.  H 3 (s)      0.0617  0.7343 -0.6433 -0.6433  0.6433  0.8118 -0.7004 -0.7004
  18.  H 3 (s)      0.1798  1.1625 -0.5008 -0.5008  0.5008  1.2799 -0.5453 -0.5453
  19.  H 4 (s)      0.0617  0.7343  0.6433 -0.6433 -0.6433  0.8118  0.7004 -0.7004
  20.  H 4 (s)      0.1798  1.1625  0.5008 -0.5008 -0.5008  1.2799  0.5453 -0.5453
  21.  H 5 (s)      0.0617  0.7343 -0.6433  0.6433 -0.6433  0.8118 -0.7004  0.7004
  22.  H 5 (s)      0.1798  1.1625 -0.5008  0.5008 -0.5008  1.2799 -0.5453  0.5453

           AO          9      10      11      12      13      14      15      16
      ------------ ------- ------- ------- ------- ------- ------- ------- -------
   1.  C 1 (s)      0.0000  0.0000  0.0000  0.0000  0.0000  0.0000  0.0617  0.1798
   2.  C 1 (s)      0.0000  0.0000  0.0000  0.0000  0.0000  0.0000  0.7343  1.1625
   3.  C 1 (px)     0.0000  0.0000  0.0000  0.3080  0.0000  0.0000  0.6433  0.5008
   4.  C 1 (py)     0.0000  0.0000  0.3080  0.0000  0.0000  0.0000  0.6433  0.5008
   5.  C 1 (pz)     1.3766  0.0000  0.0000  0.0000  0.0000  0.3080  0.6433  0.5008
   6.  C 1 (s)      0.0000  0.0000  0.0000  0.0000  0.0000  0.0000  0.8118  1.2799
   7.  C 1 (px)     0.0000  0.0000  0.0000  0.3354  0.0000  0.0000  0.7004  0.5453
   8.  C 1 (py)     0.0000  0.0000  0.3354  0.0000  0.0000  0.0000  0.7004  0.5453
   9.  C 1 (pz)     1.4989  0.0000  0.0000  0.0000  0.0000  0.3354  0.7004  0.5453
  10.  C 1 (d5)     0.0000  0.0000  0.0000  0.0000  0.0000  0.0000  0.0000  0.0000
  11.  C 1 (d2)     0.0000  0.0000  0.0750  0.0000  0.0000  0.0000  0.1567  0.1220
  12.  C 1 (d3)     0.0000  0.0000  0.0000  0.0750  0.0000  0.0000  0.1567  0.1220
  13.  C 1 (d4)     0.0000  0.0000  0.0000  0.0000  0.0000  0.0000  0.0000  0.0000
  14.  C 1 (d1)     0.3354  0.0000  0.0000  0.0000  0.0000  0.0750  0.1567  0.1220
  15.  H 2 (s)      0.7004  0.0000  0.1567  0.1567  0.0000  0.1567  1.3375  1.3209
  16.  H 2 (s)      0.5453  0.0000  0.1220  0.1220  0.0000  0.1220  1.3209  1.4695
  17.  H 3 (s)      0.7004  0.0000 -0.1567 -0.1567  0.0000  0.1567  0.0283  0.3017
  18.  H 3 (s)      0.5453  0.0000 -0.1220 -0.1220  0.0000  0.1220  0.3017  0.6760
  19.  H 4 (s)     -0.7004  0.0000 -0.1567  0.1567  0.0000 -0.1567  0.0283  0.3017
  20.  H 4 (s)     -0.5453  0.0000 -0.1220  0.1220  0.0000 -0.1220  0.3017  0.6760
  21.  H 5 (s)     -0.7004  0.0000  0.1567 -0.1567  0.0000 -0.1567  0.0283  0.3017
  22.  H 5 (s)     -0.5453  0.0000  0.1220 -0.1220  0.0000 -0.1220  0.3017  0.6760

           AO         17      18      19      20      21      22
      ------------ ------- ------- ------- ------- ------- -------
   1.  C 1 (s)      0.0617  0.1798  0.0617  0.1798  0.0617  0.1798
   2.  C 1 (s)      0.7343  1.1625  0.7343  1.1625  0.7343  1.1625
   3.  C 1 (px)    -0.6433 -0.5008  0.6433  0.5008 -0.6433 -0.5008
   4.  C 1 (py)    -0.6433 -0.5008 -0.6433 -0.5008  0.6433  0.5008
   5.  C 1 (pz)     0.6433  0.5008 -0.6433 -0.5008 -0.6433 -0.5008
   6.  C 1 (s)      0.8118  1.2799  0.8118  1.2799  0.8118  1.2799
   7.  C 1 (px)    -0.7004 -0.5453  0.7004  0.5453 -0.7004 -0.5453
   8.  C 1 (py)    -0.7004 -0.5453 -0.7004 -0.5453  0.7004  0.5453
   9.  C 1 (pz)     0.7004  0.5453 -0.7004 -0.5453 -0.7004 -0.5453
  10.  C 1 (d5)     0.0000  0.0000  0.0000  0.0000  0.0000  0.0000
  11.  C 1 (d2)    -0.1567 -0.1220 -0.1567 -0.1220  0.1567  0.1220
  12.  C 1 (d3)    -0.1567 -0.1220  0.1567  0.1220 -0.1567 -0.1220
  13.  C 1 (d4)     0.0000  0.0000  0.0000  0.0000  0.0000  0.0000
  14.  C 1 (d1)     0.1567  0.1220 -0.1567 -0.1220 -0.1567 -0.1220
  15.  H 2 (s)      0.0283  0.3017  0.0283  0.3017  0.0283  0.3017
  16.  H 2 (s)      0.3017  0.6760  0.3017  0.6760  0.3017  0.6760
  17.  H 3 (s)      1.3375  1.3209  0.0283  0.3017  0.0283  0.3017
  18.  H 3 (s)      1.3209  1.4695  0.3017  0.6760  0.3017  0.6760
  19.  H 4 (s)      0.0283  0.3017  1.3375  1.3209  0.0283  0.3017
  20.  H 4 (s)      0.3017  0.6760  1.3209  1.4695  0.3017  0.6760
  21.  H 5 (s)      0.0283  0.3017  0.0283  0.3017  1.3375  1.3209
  22.  H 5 (s)      0.3017  0.6760  0.3017  0.6760  1.3209  1.4695


 MO density matrix:

      MO     1       2       3       4       5       6       7       8       9
     ---- ------  ------  ------  ------  ------  ------  ------  ------  ------
   1.     2.0000  0.0000  0.0000  0.0000  0.0000  0.0000  0.0000  0.0000  0.0000
   2.     0.0000  2.0000  0.0000  0.0000  0.0000  0.0000  0.0000  0.0000  0.0000
   3.     0.0000  0.0000  2.0000  0.0000  0.0000  0.0000  0.0000  0.0000  0.0000
   4.     0.0000  0.0000  0.0000  2.0000  0.0000  0.0000  0.0000  0.0000  0.0000
   5.     0.0000  0.0000  0.0000  0.0000  2.0000  0.0000  0.0000  0.0000  0.0000
   6.     0.0000  0.0000  0.0000  0.0000  0.0000  0.0000  0.0000  0.0000  0.0000
   7.     0.0000  0.0000  0.0000  0.0000  0.0000  0.0000  0.0000  0.0000  0.0000
   8.     0.0000  0.0000  0.0000  0.0000  0.0000  0.0000  0.0000  0.0000  0.0000
   9.     0.0000  0.0000  0.0000  0.0000  0.0000  0.0000  0.0000  0.0000  0.0000
  10.     0.0000  0.0000  0.0000  0.0000  0.0000  0.0000  0.0000  0.0000  0.0000
  11.     0.0000  0.0000  0.0000  0.0000  0.0000  0.0000  0.0000  0.0000  0.0000
  12.     0.0000  0.0000  0.0000  0.0000  0.0000  0.0000  0.0000  0.0000  0.0000
  13.     0.0000  0.0000  0.0000  0.0000  0.0000  0.0000  0.0000  0.0000  0.0000
  14.     0.0000  0.0000  0.0000  0.0000  0.0000  0.0000  0.0000  0.0000  0.0000
  15.     0.0000  0.0000  0.0000  0.0000  0.0000  0.0000  0.0000  0.0000  0.0000
  16.     0.0000  0.0000  0.0000  0.0000  0.0000  0.0000  0.0000  0.0000  0.0000
  17.     0.0000  0.0000  0.0000  0.0000  0.0000  0.0000  0.0000  0.0000  0.0000
  18.     0.0000  0.0000  0.0000  0.0000  0.0000  0.0000  0.0000  0.0000  0.0000
  19.     0.0000  0.0000  0.0000  0.0000  0.0000  0.0000  0.0000  0.0000  0.0000
  20.     0.0000  0.0000  0.0000  0.0000  0.0000  0.0000  0.0000  0.0000  0.0000
  21.     0.0000  0.0000  0.0000  0.0000  0.0000  0.0000  0.0000  0.0000  0.0000
  22.     0.0000  0.0000  0.0000  0.0000  0.0000  0.0000  0.0000  0.0000  0.0000

      MO    10      11      12      13      14      15      16      17      18
     ---- ------  ------  ------  ------  ------  ------  ------  ------  ------
   1.     0.0000  0.0000  0.0000  0.0000  0.0000  0.0000  0.0000  0.0000  0.0000
   2.     0.0000  0.0000  0.0000  0.0000  0.0000  0.0000  0.0000  0.0000  0.0000
   3.     0.0000  0.0000  0.0000  0.0000  0.0000  0.0000  0.0000  0.0000  0.0000
   4.     0.0000  0.0000  0.0000  0.0000  0.0000  0.0000  0.0000  0.0000  0.0000
   5.     0.0000  0.0000  0.0000  0.0000  0.0000  0.0000  0.0000  0.0000  0.0000
   6.     0.0000  0.0000  0.0000  0.0000  0.0000  0.0000  0.0000  0.0000  0.0000
   7.     0.0000  0.0000  0.0000  0.0000  0.0000  0.0000  0.0000  0.0000  0.0000
   8.     0.0000  0.0000  0.0000  0.0000  0.0000  0.0000  0.0000  0.0000  0.0000
   9.     0.0000  0.0000  0.0000  0.0000  0.0000  0.0000  0.0000  0.0000  0.0000
  10.     0.0000  0.0000  0.0000  0.0000  0.0000  0.0000  0.0000  0.0000  0.0000
  11.     0.0000  0.0000  0.0000  0.0000  0.0000  0.0000  0.0000  0.0000  0.0000
  12.     0.0000  0.0000  0.0000  0.0000  0.0000  0.0000  0.0000  0.0000  0.0000
  13.     0.0000  0.0000  0.0000  0.0000  0.0000  0.0000  0.0000  0.0000  0.0000
  14.     0.0000  0.0000  0.0000  0.0000  0.0000  0.0000  0.0000  0.0000  0.0000
  15.     0.0000  0.0000  0.0000  0.0000  0.0000  0.0000  0.0000  0.0000  0.0000
  16.     0.0000  0.0000  0.0000  0.0000  0.0000  0.0000  0.0000  0.0000  0.0000
  17.     0.0000  0.0000  0.0000  0.0000  0.0000  0.0000  0.0000  0.0000  0.0000
  18.     0.0000  0.0000  0.0000  0.0000  0.0000  0.0000  0.0000  0.0000  0.0000
  19.     0.0000  0.0000  0.0000  0.0000  0.0000  0.0000  0.0000  0.0000  0.0000
  20.     0.0000  0.0000  0.0000  0.0000  0.0000  0.0000  0.0000  0.0000  0.0000
  21.     0.0000  0.0000  0.0000  0.0000  0.0000  0.0000  0.0000  0.0000  0.0000
  22.     0.0000  0.0000  0.0000  0.0000  0.0000  0.0000  0.0000  0.0000  0.0000

      MO    19      20      21      22
     ---- ------  ------  ------  ------
   1.     0.0000  0.0000  0.0000  0.0000
   2.     0.0000  0.0000  0.0000  0.0000
   3.     0.0000  0.0000  0.0000  0.0000
   4.     0.0000  0.0000  0.0000  0.0000
   5.     0.0000  0.0000  0.0000  0.0000
   6.     0.0000  0.0000  0.0000  0.0000
   7.     0.0000  0.0000  0.0000  0.0000
   8.     0.0000  0.0000  0.0000  0.0000
   9.     0.0000  0.0000  0.0000  0.0000
  10.     0.0000  0.0000  0.0000  0.0000
  11.     0.0000  0.0000  0.0000  0.0000
  12.     0.0000  0.0000  0.0000  0.0000
  13.     0.0000  0.0000  0.0000  0.0000
  14.     0.0000  0.0000  0.0000  0.0000
  15.     0.0000  0.0000  0.0000  0.0000
  16.     0.0000  0.0000  0.0000  0.0000
  17.     0.0000  0.0000  0.0000  0.0000
  18.     0.0000  0.0000  0.0000  0.0000
  19.     0.0000  0.0000  0.0000  0.0000
  20.     0.0000  0.0000  0.0000  0.0000
  21.     0.0000  0.0000  0.0000  0.0000
  22.     0.0000  0.0000  0.0000  0.0000


 NATURAL POPULATIONS:  Natural atomic orbital occupancies

  NAO Atom No lang   Type(AO)    Occupancy      Energy
 -------------------------------------------------------
   1    C  1  s      Cor( 1s)     1.99999     -11.20363
   2    C  1  s      Val( 2s)     1.17089      -0.23161
   3    C  1  s      Ryd( 3s)     0.00000       1.31986
   4    C  1  px     Val( 2p)     1.22943      -0.06861
   5    C  1  px     Ryd( 3p)     0.00000       0.77466
   6    C  1  py     Val( 2p)     1.22943      -0.06861
   7    C  1  py     Ryd( 3p)     0.00000       0.77466
   8    C  1  pz     Val( 2p)     1.22943      -0.06861
   9    C  1  pz     Ryd( 3p)     0.00000       0.77466
  10    C  1  dxy    Ryd( 3d)     0.00263       2.49355
  11    C  1  dxz    Ryd( 3d)     0.00263       2.49355
  12    C  1  dyz    Ryd( 3d)     0.00263       2.49355
  13    C  1  dx2y2  Ryd( 3d)     0.00000       1.94171
  14    C  1  dz2    Ryd( 3d)     0.00000       1.94171

  15    H  2  s      Val( 1s)     0.78276       0.18994
  16    H  2  s      Ryd( 2s)     0.00048       0.81533

  17    H  3  s      Val( 1s)     0.78276       0.18994
  18    H  3  s      Ryd( 2s)     0.00048       0.81533

  19    H  4  s      Val( 1s)     0.78276       0.18994
  20    H  4  s      Ryd( 2s)     0.00048       0.81533

  21    H  5  s      Val( 1s)     0.78276       0.18994
  22    H  5  s      Ryd( 2s)     0.00048       0.81533


 Summary of Natural Population Analysis:

                                     Natural Population
             Natural    ---------------------------------------------
  Atom No    Charge        Core      Valence    Rydberg      Total
 --------------------------------------------------------------------
    C  1   -0.86705      1.99999     4.85917    0.00789     6.86705
    H  2    0.21676      0.00000     0.78276    0.00048     0.78324
    H  3    0.21676      0.00000     0.78276    0.00048     0.78324
    H  4    0.21676      0.00000     0.78276    0.00048     0.78324
    H  5    0.21676      0.00000     0.78276    0.00048     0.78324
 ====================================================================
 * Total *  0.00000      1.99999     7.99021    0.00979    10.00000

                                 Natural Population
 ---------------------------------------------------------
   Core                       1.99999 ( 99.9996% of    2)
   Valence                    7.99021 ( 99.8777% of    8)
   Natural Minimal Basis      9.99021 ( 99.9021% of   10)
   Natural Rydberg Basis      0.00979 (  0.0979% of   10)
 ---------------------------------------------------------

    Atom No         Natural Electron Configuration
 ----------------------------------------------------------------------------
      C  1      [core]2s( 1.17)2p( 3.69)3d( 0.01)
      H  2            1s( 0.78)
      H  3            1s( 0.78)
      H  4            1s( 0.78)
      H  5            1s( 0.78)


 PNAOs in the AO basis:

           AO          1       2       3       4       5       6       7       8
      ------------ ------- ------- ------- ------- ------- ------- ------- -------
   1.  C 1 (s)      0.9961 -0.2192 -0.1011  0.0000  0.0000  0.0000  0.0000  0.0000
   2.  C 1 (s)      0.0217  0.2913  1.7023  0.0000  0.0000  0.0000  0.0000  0.0000
   3.  C 1 (px)     0.0000  0.0000  0.0000  0.4752  1.1202  0.0000  0.0000  0.0000
   4.  C 1 (py)     0.0000  0.0000  0.0000  0.0000  0.0000  0.4752  1.1202  0.0000
   5.  C 1 (pz)     0.0000  0.0000  0.0000  0.0000  0.0000  0.0000  0.0000  0.4752
   6.  C 1 (s)     -0.0057  0.7700 -1.5319  0.0000  0.0000  0.0000  0.0000  0.0000
   7.  C 1 (px)     0.0000  0.0000  0.0000  0.6498 -1.0288  0.0000  0.0000  0.0000
   8.  C 1 (py)     0.0000  0.0000  0.0000  0.0000  0.0000  0.6498 -1.0288  0.0000
   9.  C 1 (pz)     0.0000  0.0000  0.0000  0.0000  0.0000  0.0000  0.0000  0.6498
  10.  C 1 (d5)     0.0000  0.0000  0.0000  0.0000  0.0000  0.0000  0.0000  0.0000
  11.  C 1 (d2)     0.0000  0.0000  0.0000  0.0000  0.0000  0.0000  0.0000  0.0000
  12.  C 1 (d3)     0.0000  0.0000  0.0000  0.0000  0.0000  0.0000  0.0000  0.0000
  13.  C 1 (d4)     0.0000  0.0000  0.0000  0.0000  0.0000  0.0000  0.0000  0.0000
  14.  C 1 (d1)     0.0000  0.0000  0.0000  0.0000  0.0000  0.0000  0.0000  0.0000
  15.  H 2 (s)      0.0000  0.0000  0.0000  0.0000  0.0000  0.0000  0.0000  0.0000
  16.  H 2 (s)      0.0000  0.0000  0.0000  0.0000  0.0000  0.0000  0.0000  0.0000
  17.  H 3 (s)      0.0000  0.0000  0.0000  0.0000  0.0000  0.0000  0.0000  0.0000
  18.  H 3 (s)      0.0000  0.0000  0.0000  0.0000  0.0000  0.0000  0.0000  0.0000
  19.  H 4 (s)      0.0000  0.0000  0.0000  0.0000  0.0000  0.0000  0.0000  0.0000
  20.  H 4 (s)      0.0000  0.0000  0.0000  0.0000  0.0000  0.0000  0.0000  0.0000
  21.  H 5 (s)      0.0000  0.0000  0.0000  0.0000  0.0000  0.0000  0.0000  0.0000
  22.  H 5 (s)      0.0000  0.0000  0.0000  0.0000  0.0000  0.0000  0.0000  0.0000

           AO          9      10      11      12      13      14      15      16
      ------------ ------- ------- ------- ------- ------- ------- ------- -------
   1.  C 1 (s)      0.0000  0.0000  0.0000  0.0000  0.0000  0.0000  0.0000  0.0000
   2.  C 1 (s)      0.0000  0.0000  0.0000  0.0000  0.0000  0.0000  0.0000  0.0000
   3.  C 1 (px)     0.0000  0.0000  0.0000  0.0000  0.0000  0.0000  0.0000  0.0000
   4.  C 1 (py)     0.0000  0.0000  0.0000  0.0000  0.0000  0.0000  0.0000  0.0000
   5.  C 1 (pz)     1.1202  0.0000  0.0000  0.0000  0.0000  0.0000  0.0000  0.0000
   6.  C 1 (s)      0.0000  0.0000  0.0000  0.0000  0.0000  0.0000  0.0000  0.0000
   7.  C 1 (px)     0.0000  0.0000  0.0000  0.0000  0.0000  0.0000  0.0000  0.0000
   8.  C 1 (py)     0.0000  0.0000  0.0000  0.0000  0.0000  0.0000  0.0000  0.0000
   9.  C 1 (pz)    -1.0288  0.0000  0.0000  0.0000  0.0000  0.0000  0.0000  0.0000
  10.  C 1 (d5)     0.0000  0.0000  0.0000  0.0000  0.0000  1.0000  0.0000  0.0000
  11.  C 1 (d2)     0.0000  0.0000  1.0000  0.0000  0.0000  0.0000  0.0000  0.0000
  12.  C 1 (d3)     0.0000  0.0000  0.0000  1.0000  0.0000  0.0000  0.0000  0.0000
  13.  C 1 (d4)     0.0000  0.0000  0.0000  0.0000  1.0000  0.0000  0.0000  0.0000
  14.  C 1 (d1)     0.0000  1.0000  0.0000  0.0000  0.0000  0.0000  0.0000  0.0000
  15.  H 2 (s)      0.0000  0.0000  0.0000  0.0000  0.0000  0.0000  0.4728  1.2415
  16.  H 2 (s)      0.0000  0.0000  0.0000  0.0000  0.0000  0.0000  0.6233 -1.1731
  17.  H 3 (s)      0.0000  0.0000  0.0000  0.0000  0.0000  0.0000  0.0000  0.0000
  18.  H 3 (s)      0.0000  0.0000  0.0000  0.0000  0.0000  0.0000  0.0000  0.0000
  19.  H 4 (s)      0.0000  0.0000  0.0000  0.0000  0.0000  0.0000  0.0000  0.0000
  20.  H 4 (s)      0.0000  0.0000  0.0000  0.0000  0.0000  0.0000  0.0000  0.0000
  21.  H 5 (s)      0.0000  0.0000  0.0000  0.0000  0.0000  0.0000  0.0000  0.0000
  22.  H 5 (s)      0.0000  0.0000  0.0000  0.0000  0.0000  0.0000  0.0000  0.0000

           AO         17      18      19      20      21      22
      ------------ ------- ------- ------- ------- ------- -------
   1.  C 1 (s)      0.0000  0.0000  0.0000  0.0000  0.0000  0.0000
   2.  C 1 (s)      0.0000  0.0000  0.0000  0.0000  0.0000  0.0000
   3.  C 1 (px)     0.0000  0.0000  0.0000  0.0000  0.0000  0.0000
   4.  C 1 (py)     0.0000  0.0000  0.0000  0.0000  0.0000  0.0000
   5.  C 1 (pz)     0.0000  0.0000  0.0000  0.0000  0.0000  0.0000
   6.  C 1 (s)      0.0000  0.0000  0.0000  0.0000  0.0000  0.0000
   7.  C 1 (px)     0.0000  0.0000  0.0000  0.0000  0.0000  0.0000
   8.  C 1 (py)     0.0000  0.0000  0.0000  0.0000  0.0000  0.0000
   9.  C 1 (pz)     0.0000  0.0000  0.0000  0.0000  0.0000  0.0000
  10.  C 1 (d5)     0.0000  0.0000  0.0000  0.0000  0.0000  0.0000
  11.  C 1 (d2)     0.0000  0.0000  0.0000  0.0000  0.0000  0.0000
  12.  C 1 (d3)     0.0000  0.0000  0.0000  0.0000  0.0000  0.0000
  13.  C 1 (d4)     0.0000  0.0000  0.0000  0.0000  0.0000  0.0000
  14.  C 1 (d1)     0.0000  0.0000  0.0000  0.0000  0.0000  0.0000
  15.  H 2 (s)      0.0000  0.0000  0.0000  0.0000  0.0000  0.0000
  16.  H 2 (s)      0.0000  0.0000  0.0000  0.0000  0.0000  0.0000
  17.  H 3 (s)      0.4728  1.2415  0.0000  0.0000  0.0000  0.0000
  18.  H 3 (s)      0.6233 -1.1731  0.0000  0.0000  0.0000  0.0000
  19.  H 4 (s)      0.0000  0.0000  0.4728  1.2415  0.0000  0.0000
  20.  H 4 (s)      0.0000  0.0000  0.6233 -1.1731  0.0000  0.0000
  21.  H 5 (s)      0.0000  0.0000  0.0000  0.0000  0.4728  1.2415
  22.  H 5 (s)      0.0000  0.0000  0.0000  0.0000  0.6233 -1.1731


 PNAO overlap matrix:

           NAO         1       2       3       4       5       6       7       8
      ------------ ------- ------- ------- ------- ------- ------- ------- -------
   1.  C 1( 1s )    1.0000  0.0000  0.0000  0.0000  0.0000  0.0000  0.0000  0.0000
   2.  C 1( 2s )    0.0000  1.0000  0.0000  0.0000  0.0000  0.0000  0.0000  0.0000
   3.  C 1( 3s )    0.0000  0.0000  1.0000  0.0000  0.0000  0.0000  0.0000  0.0000
   4.  C 1( 2px)    0.0000  0.0000  0.0000  1.0000  0.0000  0.0000  0.0000  0.0000
   5.  C 1( 3px)    0.0000  0.0000  0.0000  0.0000  1.0000  0.0000  0.0000  0.0000
   6.  C 1( 2py)    0.0000  0.0000  0.0000  0.0000  0.0000  1.0000  0.0000  0.0000
   7.  C 1( 3py)    0.0000  0.0000  0.0000  0.0000  0.0000  0.0000  1.0000  0.0000
   8.  C 1( 2pz)    0.0000  0.0000  0.0000  0.0000  0.0000  0.0000  0.0000  1.0000
   9.  C 1( 3pz)    0.0000  0.0000  0.0000  0.0000  0.0000  0.0000  0.0000  0.0000
  10.  C 1( 3d1)    0.0000  0.0000  0.0000  0.0000  0.0000  0.0000  0.0000  0.0000
  11.  C 1( 3d2)    0.0000  0.0000  0.0000  0.0000  0.0000  0.0000  0.0000  0.0000
  12.  C 1( 3d3)    0.0000  0.0000  0.0000  0.0000  0.0000  0.0000  0.0000  0.0000
  13.  C 1( 3d4)    0.0000  0.0000  0.0000  0.0000  0.0000  0.0000  0.0000  0.0000
  14.  C 1( 3d5)    0.0000  0.0000  0.0000  0.0000  0.0000  0.0000  0.0000  0.0000
  15.  H 2( 1s )    0.0785  0.5837 -0.2276  0.3210 -0.1402  0.3210 -0.1402  0.3210
  16.  H 2( 2s )   -0.0700 -0.3249  0.1836  0.0238  0.1213  0.0238  0.1213  0.0238
  17.  H 3( 1s )    0.0785  0.5837 -0.2276 -0.3210  0.1402 -0.3210  0.1402  0.3210
  18.  H 3( 2s )   -0.0700 -0.3249  0.1836 -0.0238 -0.1213 -0.0238 -0.1213  0.0238
  19.  H 4( 1s )    0.0785  0.5837 -0.2276  0.3210 -0.1402 -0.3210  0.1402 -0.3210
  20.  H 4( 2s )   -0.0700 -0.3249  0.1836  0.0238  0.1213 -0.0238 -0.1213 -0.0238
  21.  H 5( 1s )    0.0785  0.5837 -0.2276 -0.3210  0.1402  0.3210 -0.1402 -0.3210
  22.  H 5( 2s )   -0.0700 -0.3249  0.1836 -0.0238 -0.1213  0.0238  0.1213 -0.0238

           NAO         9      10      11      12      13      14      15      16
      ------------ ------- ------- ------- ------- ------- ------- ------- -------
   1.  C 1( 1s )    0.0000  0.0000  0.0000  0.0000  0.0000  0.0000  0.0785 -0.0700
   2.  C 1( 2s )    0.0000  0.0000  0.0000  0.0000  0.0000  0.0000  0.5837 -0.3249
   3.  C 1( 3s )    0.0000  0.0000  0.0000  0.0000  0.0000  0.0000 -0.2276  0.1836
   4.  C 1( 2px)    0.0000  0.0000  0.0000  0.0000  0.0000  0.0000  0.3210  0.0238
   5.  C 1( 3px)    0.0000  0.0000  0.0000  0.0000  0.0000  0.0000 -0.1402  0.1213
   6.  C 1( 2py)    0.0000  0.0000  0.0000  0.0000  0.0000  0.0000  0.3210  0.0238
   7.  C 1( 3py)    0.0000  0.0000  0.0000  0.0000  0.0000  0.0000 -0.1402  0.1213
   8.  C 1( 2pz)    0.0000  0.0000  0.0000  0.0000  0.0000  0.0000  0.3210  0.0238
   9.  C 1( 3pz)    1.0000  0.0000  0.0000  0.0000  0.0000  0.0000 -0.1402  0.1213
  10.  C 1( 3d1)    0.0000  1.0000  0.0000  0.0000  0.0000  0.0000  0.1214  0.1881
  11.  C 1( 3d2)    0.0000  0.0000  1.0000  0.0000  0.0000  0.0000  0.1214  0.1881
  12.  C 1( 3d3)    0.0000  0.0000  0.0000  1.0000  0.0000  0.0000  0.1214  0.1881
  13.  C 1( 3d4)    0.0000  0.0000  0.0000  0.0000  1.0000  0.0000  0.0000  0.0000
  14.  C 1( 3d5)    0.0000  0.0000  0.0000  0.0000  0.0000  1.0000  0.0000  0.0000
  15.  H 2( 1s )   -0.1402  0.1214  0.1214  0.1214  0.0000  0.0000  1.0000  0.0000
  16.  H 2( 2s )    0.1213  0.1881  0.1881  0.1881  0.0000  0.0000  0.0000  1.0000
  17.  H 3( 1s )   -0.1402  0.1214 -0.1214 -0.1214  0.0000  0.0000  0.2482 -0.2502
  18.  H 3( 2s )    0.1213  0.1881 -0.1881 -0.1881  0.0000  0.0000 -0.2502  0.1466
  19.  H 4( 1s )    0.1402 -0.1214 -0.1214  0.1214  0.0000  0.0000  0.2482 -0.2502
  20.  H 4( 2s )   -0.1213 -0.1881 -0.1881  0.1881  0.0000  0.0000 -0.2502  0.1466
  21.  H 5( 1s )    0.1402 -0.1214  0.1214 -0.1214  0.0000  0.0000  0.2482 -0.2502
  22.  H 5( 2s )   -0.1213 -0.1881  0.1881 -0.1881  0.0000  0.0000 -0.2502  0.1466

           NAO        17      18      19      20      21      22
      ------------ ------- ------- ------- ------- ------- -------
   1.  C 1( 1s )    0.0785 -0.0700  0.0785 -0.0700  0.0785 -0.0700
   2.  C 1( 2s )    0.5837 -0.3249  0.5837 -0.3249  0.5837 -0.3249
   3.  C 1( 3s )   -0.2276  0.1836 -0.2276  0.1836 -0.2276  0.1836
   4.  C 1( 2px)   -0.3210 -0.0238  0.3210  0.0238 -0.3210 -0.0238
   5.  C 1( 3px)    0.1402 -0.1213 -0.1402  0.1213  0.1402 -0.1213
   6.  C 1( 2py)   -0.3210 -0.0238 -0.3210 -0.0238  0.3210  0.0238
   7.  C 1( 3py)    0.1402 -0.1213  0.1402 -0.1213 -0.1402  0.1213
   8.  C 1( 2pz)    0.3210  0.0238 -0.3210 -0.0238 -0.3210 -0.0238
   9.  C 1( 3pz)   -0.1402  0.1213  0.1402 -0.1213  0.1402 -0.1213
  10.  C 1( 3d1)    0.1214  0.1881 -0.1214 -0.1881 -0.1214 -0.1881
  11.  C 1( 3d2)   -0.1214 -0.1881 -0.1214 -0.1881  0.1214  0.1881
  12.  C 1( 3d3)   -0.1214 -0.1881  0.1214  0.1881 -0.1214 -0.1881
  13.  C 1( 3d4)    0.0000  0.0000  0.0000  0.0000  0.0000  0.0000
  14.  C 1( 3d5)    0.0000  0.0000  0.0000  0.0000  0.0000  0.0000
  15.  H 2( 1s )    0.2482 -0.2502  0.2482 -0.2502  0.2482 -0.2502
  16.  H 2( 2s )   -0.2502  0.1466 -0.2502  0.1466 -0.2502  0.1466
  17.  H 3( 1s )    1.0000  0.0000  0.2482 -0.2502  0.2482 -0.2502
  18.  H 3( 2s )    0.0000  1.0000 -0.2502  0.1466 -0.2502  0.1466
  19.  H 4( 1s )    0.2482 -0.2502  1.0000  0.0000  0.2482 -0.2502
  20.  H 4( 2s )   -0.2502  0.1466  0.0000  1.0000 -0.2502  0.1466
  21.  H 5( 1s )    0.2482 -0.2502  0.2482 -0.2502  1.0000  0.0000
  22.  H 5( 2s )   -0.2502  0.1466 -0.2502  0.1466  0.0000  1.0000


 PNAO density matrix:

           NAO         1       2       3       4       5       6       7       8
      ------------ ------- ------- ------- ------- ------- ------- ------- -------
   1.  C 1( 1s )    2.0000  0.0000  0.0000  0.0000  0.0000  0.0000  0.0000  0.0000
   2.  C 1( 2s )    0.0000  1.9305  0.0000  0.0000  0.0000  0.0000  0.0000  0.0000
   3.  C 1( 3s )    0.0000  0.0000  0.0000  0.0000  0.0000  0.0000  0.0000  0.0000
   4.  C 1( 2px)    0.0000  0.0000  0.0000  1.7687  0.0000  0.0000  0.0000  0.0000
   5.  C 1( 3px)    0.0000  0.0000  0.0000  0.0000  0.0000  0.0000  0.0000  0.0000
   6.  C 1( 2py)    0.0000  0.0000  0.0000  0.0000  0.0000  1.7687  0.0000  0.0000
   7.  C 1( 3py)    0.0000  0.0000  0.0000  0.0000  0.0000  0.0000  0.0000  0.0000
   8.  C 1( 2pz)    0.0000  0.0000  0.0000  0.0000  0.0000  0.0000  0.0000  1.7687
   9.  C 1( 3pz)    0.0000  0.0000  0.0000  0.0000  0.0000  0.0000  0.0000  0.0000
  10.  C 1( 3d1)    0.0000  0.0000  0.0000  0.0000  0.0000  0.0000  0.0000  0.3643
  11.  C 1( 3d2)    0.0000  0.0000  0.0000  0.0000  0.0000  0.3643  0.0000  0.0000
  12.  C 1( 3d3)    0.0000  0.0000  0.0000  0.3643  0.0000  0.0000  0.0000  0.0000
  13.  C 1( 3d4)    0.0000  0.0000  0.0000  0.0000  0.0000  0.0000  0.0000  0.0000
  14.  C 1( 3d5)    0.0000  0.0000  0.0000  0.0000  0.0000  0.0000  0.0000  0.0000
  15.  H 2( 1s )    0.1573  1.1910  0.0000  0.7289  0.0000  0.7289  0.0000  0.7289
  16.  H 2( 2s )   -0.1409 -0.4823  0.0000  0.2496  0.0000  0.2496  0.0000  0.2496
  17.  H 3( 1s )    0.1573  1.1910  0.0000 -0.7289  0.0000 -0.7289  0.0000  0.7289
  18.  H 3( 2s )   -0.1409 -0.4823  0.0000 -0.2496  0.0000 -0.2496  0.0000  0.2496
  19.  H 4( 1s )    0.1573  1.1910  0.0000  0.7289  0.0000 -0.7289  0.0000 -0.7289
  20.  H 4( 2s )   -0.1409 -0.4823  0.0000  0.2496  0.0000 -0.2496  0.0000 -0.2496
  21.  H 5( 1s )    0.1573  1.1910  0.0000 -0.7289  0.0000  0.7289  0.0000 -0.7289
  22.  H 5( 2s )   -0.1409 -0.4823  0.0000 -0.2496  0.0000  0.2496  0.0000 -0.2496

           NAO         9      10      11      12      13      14      15      16
      ------------ ------- ------- ------- ------- ------- ------- ------- -------
   1.  C 1( 1s )    0.0000  0.0000  0.0000  0.0000  0.0000  0.0000  0.1573 -0.1409
   2.  C 1( 2s )    0.0000  0.0000  0.0000  0.0000  0.0000  0.0000  1.1910 -0.4823
   3.  C 1( 3s )    0.0000  0.0000  0.0000  0.0000  0.0000  0.0000  0.0000  0.0000
   4.  C 1( 2px)    0.0000  0.0000  0.0000  0.3643  0.0000  0.0000  0.7289  0.2496
   5.  C 1( 3px)    0.0000  0.0000  0.0000  0.0000  0.0000  0.0000  0.0000  0.0000
   6.  C 1( 2py)    0.0000  0.0000  0.3643  0.0000  0.0000  0.0000  0.7289  0.2496
   7.  C 1( 3py)    0.0000  0.0000  0.0000  0.0000  0.0000  0.0000  0.0000  0.0000
   8.  C 1( 2pz)    0.0000  0.3643  0.0000  0.0000  0.0000  0.0000  0.7289  0.2496
   9.  C 1( 3pz)    0.0000  0.0000  0.0000  0.0000  0.0000  0.0000  0.0000  0.0000
  10.  C 1( 3d1)    0.0000  0.0750  0.0000  0.0000  0.0000  0.0000  0.1501  0.0514
  11.  C 1( 3d2)    0.0000  0.0000  0.0750  0.0000  0.0000  0.0000  0.1501  0.0514
  12.  C 1( 3d3)    0.0000  0.0000  0.0000  0.0750  0.0000  0.0000  0.1501  0.0514
  13.  C 1( 3d4)    0.0000  0.0000  0.0000  0.0000  0.0000  0.0000  0.0000  0.0000
  14.  C 1( 3d5)    0.0000  0.0000  0.0000  0.0000  0.0000  0.0000  0.0000  0.0000
  15.  H 2( 1s )    0.0000  0.1501  0.1501  0.1501  0.0000  0.0000  1.6484  0.0000
  16.  H 2( 2s )    0.0000  0.0514  0.0514  0.0514  0.0000  0.0000  0.0000  0.2361
  17.  H 3( 1s )    0.0000  0.1501 -0.1501 -0.1501  0.0000  0.0000  0.4468 -0.4115
  18.  H 3( 2s )    0.0000  0.0514 -0.0514 -0.0514  0.0000  0.0000 -0.4115  0.0952
  19.  H 4( 1s )    0.0000 -0.1501 -0.1501  0.1501  0.0000  0.0000  0.4468 -0.4115
  20.  H 4( 2s )    0.0000 -0.0514 -0.0514  0.0514  0.0000  0.0000 -0.4115  0.0952
  21.  H 5( 1s )    0.0000 -0.1501  0.1501 -0.1501  0.0000  0.0000  0.4468 -0.4115
  22.  H 5( 2s )    0.0000 -0.0514  0.0514 -0.0514  0.0000  0.0000 -0.4115  0.0952

           NAO        17      18      19      20      21      22
      ------------ ------- ------- ------- ------- ------- -------
   1.  C 1( 1s )    0.1573 -0.1409  0.1573 -0.1409  0.1573 -0.1409
   2.  C 1( 2s )    1.1910 -0.4823  1.1910 -0.4823  1.1910 -0.4823
   3.  C 1( 3s )    0.0000  0.0000  0.0000  0.0000  0.0000  0.0000
   4.  C 1( 2px)   -0.7289 -0.2496  0.7289  0.2496 -0.7289 -0.2496
   5.  C 1( 3px)    0.0000  0.0000  0.0000  0.0000  0.0000  0.0000
   6.  C 1( 2py)   -0.7289 -0.2496 -0.7289 -0.2496  0.7289  0.2496
   7.  C 1( 3py)    0.0000  0.0000  0.0000  0.0000  0.0000  0.0000
   8.  C 1( 2pz)    0.7289  0.2496 -0.7289 -0.2496 -0.7289 -0.2496
   9.  C 1( 3pz)    0.0000  0.0000  0.0000  0.0000  0.0000  0.0000
  10.  C 1( 3d1)    0.1501  0.0514 -0.1501 -0.0514 -0.1501 -0.0514
  11.  C 1( 3d2)   -0.1501 -0.0514 -0.1501 -0.0514  0.1501  0.0514
  12.  C 1( 3d3)   -0.1501 -0.0514  0.1501  0.0514 -0.1501 -0.0514
  13.  C 1( 3d4)    0.0000  0.0000  0.0000  0.0000  0.0000  0.0000
  14.  C 1( 3d5)    0.0000  0.0000  0.0000  0.0000  0.0000  0.0000
  15.  H 2( 1s )    0.4468 -0.4115  0.4468 -0.4115  0.4468 -0.4115
  16.  H 2( 2s )   -0.4115  0.0952 -0.4115  0.0952 -0.4115  0.0952
  17.  H 3( 1s )    1.6484  0.0000  0.4468 -0.4115  0.4468 -0.4115
  18.  H 3( 2s )    0.0000  0.2361 -0.4115  0.0952 -0.4115  0.0952
  19.  H 4( 1s )    0.4468 -0.4115  1.6484  0.0000  0.4468 -0.4115
  20.  H 4( 2s )   -0.4115  0.0952  0.0000  0.2361 -0.4115  0.0952
  21.  H 5( 1s )    0.4468 -0.4115  0.4468 -0.4115  1.6484  0.0000
  22.  H 5( 2s )   -0.4115  0.0952 -0.4115  0.0952  0.0000  0.2361


 NAOs in the AO basis:

           AO          1       2       3       4       5       6       7       8
      ------------ ------- ------- ------- ------- ------- ------- ------- -------
   1.  C 1 (s)      0.9961 -0.2663  0.0861  0.0000  0.0000  0.0000  0.0000  0.0000
   2.  C 1 (s)      0.0217  0.8262  2.2055  0.0000  0.0000  0.0000  0.0000  0.0000
   3.  C 1 (px)     0.0000  0.0000  0.0000  0.8187  0.9306  0.0000  0.0000  0.0000
   4.  C 1 (py)     0.0000  0.0000  0.0000  0.0000  0.0000  0.8187  0.9306  0.0000
   5.  C 1 (pz)     0.0000  0.0000  0.0000  0.0000  0.0000  0.0000  0.0000  0.8187
   6.  C 1 (s)     -0.0057  0.8295 -5.4714  0.0000  0.0000  0.0000  0.0000  0.0000
   7.  C 1 (px)     0.0000  0.0000  0.0000  0.5027 -2.0018  0.0000  0.0000  0.0000
   8.  C 1 (py)     0.0000  0.0000  0.0000  0.0000  0.0000  0.5027 -2.0018  0.0000
   9.  C 1 (pz)     0.0000  0.0000  0.0000  0.0000  0.0000  0.0000  0.0000  0.5027
  10.  C 1 (d5)     0.0000  0.0000  0.0000  0.0000  0.0000  0.0000  0.0000  0.0000
  11.  C 1 (d2)     0.0000  0.0000  0.0000  0.0000  0.0000 -0.0034 -0.0180  0.0000
  12.  C 1 (d3)     0.0000  0.0000  0.0000 -0.0034 -0.0180  0.0000  0.0000  0.0000
  13.  C 1 (d4)     0.0000  0.0000  0.0000  0.0000  0.0000  0.0000  0.0000  0.0000
  14.  C 1 (d1)     0.0000  0.0000  0.0000  0.0000  0.0000  0.0000  0.0000 -0.0034
  15.  H 2 (s)      0.0000 -0.1825  0.3100 -0.1262  0.1220 -0.1262  0.1220 -0.1262
  16.  H 2 (s)      0.0000 -0.1622  1.0675 -0.0772  0.6343 -0.0772  0.6343 -0.0772
  17.  H 3 (s)      0.0000 -0.1825  0.3100  0.1262 -0.1220  0.1262 -0.1220 -0.1262
  18.  H 3 (s)      0.0000 -0.1622  1.0675  0.0772 -0.6343  0.0772 -0.6343 -0.0772
  19.  H 4 (s)      0.0000 -0.1825  0.3100 -0.1262  0.1220  0.1262 -0.1220  0.1262
  20.  H 4 (s)      0.0000 -0.1622  1.0675 -0.0772  0.6343  0.0772 -0.6343  0.0772
  21.  H 5 (s)      0.0000 -0.1825  0.3100  0.1262 -0.1220 -0.1262  0.1220  0.1262
  22.  H 5 (s)      0.0000 -0.1622  1.0675  0.0772 -0.6343 -0.0772  0.6343  0.0772

           AO          9      10      11      12      13      14      15      16
      ------------ ------- ------- ------- ------- ------- ------- ------- -------
   1.  C 1 (s)      0.0000  0.0000  0.0000  0.0000  0.0000  0.0000  0.0069 -0.0155
   2.  C 1 (s)      0.0000  0.0000  0.0000  0.0000  0.0000  0.0000 -0.1933 -0.2141
   3.  C 1 (px)     0.0000  0.0000  0.0000  0.0810  0.0000  0.0000 -0.1707 -0.0727
   4.  C 1 (py)     0.0000  0.0000  0.0810  0.0000  0.0000  0.0000 -0.1707 -0.0727
   5.  C 1 (pz)     0.9306  0.0810  0.0000  0.0000  0.0000  0.0000 -0.1707 -0.0727
   6.  C 1 (s)      0.0000  0.0000  0.0000  0.0000  0.0000  0.0000 -0.2435  1.1813
   7.  C 1 (px)     0.0000  0.0000  0.0000  0.5003  0.0000  0.0000 -0.1394  0.5321
   8.  C 1 (py)     0.0000  0.0000  0.5003  0.0000  0.0000  0.0000 -0.1394  0.5321
   9.  C 1 (pz)    -2.0018  0.5003  0.0000  0.0000  0.0000  0.0000 -0.1394  0.5321
  10.  C 1 (d5)     0.0000  0.0000  0.0000  0.0000  0.0000  1.0000  0.0000  0.0000
  11.  C 1 (d2)     0.0000  0.0000  1.1545  0.0000  0.0000  0.0000 -0.0029 -0.0192
  12.  C 1 (d3)     0.0000  0.0000  0.0000  1.1545  0.0000  0.0000 -0.0029 -0.0192
  13.  C 1 (d4)     0.0000  0.0000  0.0000  0.0000  1.0000  0.0000  0.0000  0.0000
  14.  C 1 (d1)    -0.0180  1.1545  0.0000  0.0000  0.0000  0.0000 -0.0029 -0.0192
  15.  H 2 (s)      0.1220 -0.3285 -0.3285 -0.3285  0.0000  0.0000  0.8907  1.0086
  16.  H 2 (s)      0.6343 -0.1217 -0.1217 -0.1217  0.0000  0.0000  0.6105 -2.4544
  17.  H 3 (s)      0.1220 -0.3285  0.3285  0.3285  0.0000  0.0000 -0.0260 -0.0114
  18.  H 3 (s)      0.6343 -0.1217  0.1217  0.1217  0.0000  0.0000 -0.0115  0.1375
  19.  H 4 (s)     -0.1220  0.3285  0.3285 -0.3285  0.0000  0.0000 -0.0260 -0.0114
  20.  H 4 (s)     -0.6343  0.1217  0.1217 -0.1217  0.0000  0.0000 -0.0115  0.1375
  21.  H 5 (s)     -0.1220  0.3285 -0.3285  0.3285  0.0000  0.0000 -0.0260 -0.0114
  22.  H 5 (s)     -0.6343  0.1217 -0.1217  0.1217  0.0000  0.0000 -0.0115  0.1375

           AO         17      18      19      20      21      22
      ------------ ------- ------- ------- ------- ------- -------
   1.  C 1 (s)      0.0069 -0.0155  0.0069 -0.0155  0.0069 -0.0155
   2.  C 1 (s)     -0.1933 -0.2141 -0.1933 -0.2141 -0.1933 -0.2141
   3.  C 1 (px)     0.1707  0.0727 -0.1707 -0.0727  0.1707  0.0727
   4.  C 1 (py)     0.1707  0.0727  0.1707  0.0727 -0.1707 -0.0727
   5.  C 1 (pz)    -0.1707 -0.0727  0.1707  0.0727  0.1707  0.0727
   6.  C 1 (s)     -0.2435  1.1813 -0.2435  1.1813 -0.2435  1.1813
   7.  C 1 (px)     0.1394 -0.5321 -0.1394  0.5321  0.1394 -0.5321
   8.  C 1 (py)     0.1394 -0.5321  0.1394 -0.5321 -0.1394  0.5321
   9.  C 1 (pz)    -0.1394  0.5321  0.1394 -0.5321  0.1394 -0.5321
  10.  C 1 (d5)     0.0000  0.0000  0.0000  0.0000  0.0000  0.0000
  11.  C 1 (d2)     0.0029  0.0192  0.0029  0.0192 -0.0029 -0.0192
  12.  C 1 (d3)     0.0029  0.0192 -0.0029 -0.0192  0.0029  0.0192
  13.  C 1 (d4)     0.0000  0.0000  0.0000  0.0000  0.0000  0.0000
  14.  C 1 (d1)    -0.0029 -0.0192  0.0029  0.0192  0.0029  0.0192
  15.  H 2 (s)     -0.0260 -0.0114 -0.0260 -0.0114 -0.0260 -0.0114
  16.  H 2 (s)     -0.0115  0.1375 -0.0115  0.1375 -0.0115  0.1375
  17.  H 3 (s)      0.8907  1.0086 -0.0260 -0.0114 -0.0260 -0.0114
  18.  H 3 (s)      0.6105 -2.4544 -0.0115  0.1375 -0.0115  0.1375
  19.  H 4 (s)     -0.0260 -0.0114  0.8907  1.0086 -0.0260 -0.0114
  20.  H 4 (s)     -0.0115  0.1375  0.6105 -2.4544 -0.0115  0.1375
  21.  H 5 (s)     -0.0260 -0.0114 -0.0260 -0.0114  0.8907  1.0086
  22.  H 5 (s)     -0.0115  0.1375 -0.0115  0.1375  0.6105 -2.4544


 NAO density matrix:

           NAO         1       2       3       4       5       6       7       8
      ------------ ------- ------- ------- ------- ------- ------- ------- -------
   1.  C 1( 1s )    2.0000 -0.0003  0.0026  0.0000  0.0000  0.0000  0.0000  0.0000
   2.  C 1( 2s )   -0.0003  1.1709  0.0000  0.0000  0.0000  0.0000  0.0000  0.0000
   3.  C 1( 3s )    0.0026  0.0000  0.0000  0.0000  0.0000  0.0000  0.0000  0.0000
   4.  C 1( 2px)    0.0000  0.0000  0.0000  1.2294  0.0000  0.0000  0.0000  0.0000
   5.  C 1( 3px)    0.0000  0.0000  0.0000  0.0000  0.0000  0.0000  0.0000  0.0000
   6.  C 1( 2py)    0.0000  0.0000  0.0000  0.0000  0.0000  1.2294  0.0000  0.0000
   7.  C 1( 3py)    0.0000  0.0000  0.0000  0.0000  0.0000  0.0000  0.0000  0.0000
   8.  C 1( 2pz)    0.0000  0.0000  0.0000  0.0000  0.0000  0.0000  0.0000  1.2294
   9.  C 1( 3pz)    0.0000  0.0000  0.0000  0.0000  0.0000  0.0000  0.0000  0.0000
  10.  C 1( 3d1)    0.0000  0.0000  0.0000  0.0000  0.0000  0.0000  0.0000  0.0568
  11.  C 1( 3d2)    0.0000  0.0000  0.0000  0.0000  0.0000  0.0568  0.0000  0.0000
  12.  C 1( 3d3)    0.0000  0.0000  0.0000  0.0568  0.0000  0.0000  0.0000  0.0000
  13.  C 1( 3d4)    0.0000  0.0000  0.0000  0.0000  0.0000  0.0000  0.0000  0.0000
  14.  C 1( 3d5)    0.0000  0.0000  0.0000  0.0000  0.0000  0.0000  0.0000  0.0000
  15.  H 2( 1s )    0.0002  0.4922  0.0000  0.4858  0.0000  0.4858  0.0000  0.4858
  16.  H 2( 2s )   -0.0015  0.0202  0.0000 -0.0072  0.0000 -0.0072  0.0000 -0.0072
  17.  H 3( 1s )    0.0002  0.4922  0.0000 -0.4858  0.0000 -0.4858  0.0000  0.4858
  18.  H 3( 2s )   -0.0015  0.0202  0.0000  0.0072  0.0000  0.0072  0.0000 -0.0072
  19.  H 4( 1s )    0.0002  0.4922  0.0000  0.4858  0.0000 -0.4858  0.0000 -0.4858
  20.  H 4( 2s )   -0.0015  0.0202  0.0000 -0.0072  0.0000  0.0072  0.0000  0.0072
  21.  H 5( 1s )    0.0002  0.4922  0.0000 -0.4858  0.0000  0.4858  0.0000 -0.4858
  22.  H 5( 2s )   -0.0015  0.0202  0.0000  0.0072  0.0000 -0.0072  0.0000  0.0072

           NAO         9      10      11      12      13      14      15      16
      ------------ ------- ------- ------- ------- ------- ------- ------- -------
   1.  C 1( 1s )    0.0000  0.0000  0.0000  0.0000  0.0000  0.0000  0.0002 -0.0015
   2.  C 1( 2s )    0.0000  0.0000  0.0000  0.0000  0.0000  0.0000  0.4922  0.0202
   3.  C 1( 3s )    0.0000  0.0000  0.0000  0.0000  0.0000  0.0000  0.0000  0.0000
   4.  C 1( 2px)    0.0000  0.0000  0.0000  0.0568  0.0000  0.0000  0.4858 -0.0072
   5.  C 1( 3px)    0.0000  0.0000  0.0000  0.0000  0.0000  0.0000  0.0000  0.0000
   6.  C 1( 2py)    0.0000  0.0000  0.0568  0.0000  0.0000  0.0000  0.4858 -0.0072
   7.  C 1( 3py)    0.0000  0.0000  0.0000  0.0000  0.0000  0.0000  0.0000  0.0000
   8.  C 1( 2pz)    0.0000  0.0568  0.0000  0.0000  0.0000  0.0000  0.4858 -0.0072
   9.  C 1( 3pz)    0.0000  0.0000  0.0000  0.0000  0.0000  0.0000  0.0000  0.0000
  10.  C 1( 3d1)    0.0000  0.0026  0.0000  0.0000  0.0000  0.0000  0.0225 -0.0003
  11.  C 1( 3d2)    0.0000  0.0000  0.0026  0.0000  0.0000  0.0000  0.0225 -0.0003
  12.  C 1( 3d3)    0.0000  0.0000  0.0000  0.0026  0.0000  0.0000  0.0225 -0.0003
  13.  C 1( 3d4)    0.0000  0.0000  0.0000  0.0000  0.0000  0.0000  0.0000  0.0000
  14.  C 1( 3d5)    0.0000  0.0000  0.0000  0.0000  0.0000  0.0000  0.0000  0.0000
  15.  H 2( 1s )    0.0000  0.0225  0.0225  0.0225  0.0000  0.0000  0.7828  0.0000
  16.  H 2( 2s )    0.0000 -0.0003 -0.0003 -0.0003  0.0000  0.0000  0.0000  0.0005
  17.  H 3( 1s )    0.0000  0.0225 -0.0225 -0.0225  0.0000  0.0000  0.0150  0.0113
  18.  H 3( 2s )    0.0000 -0.0003  0.0003  0.0003  0.0000  0.0000  0.0113  0.0003
  19.  H 4( 1s )    0.0000 -0.0225 -0.0225  0.0225  0.0000  0.0000  0.0150  0.0113
  20.  H 4( 2s )    0.0000  0.0003  0.0003 -0.0003  0.0000  0.0000  0.0113  0.0003
  21.  H 5( 1s )    0.0000 -0.0225  0.0225 -0.0225  0.0000  0.0000  0.0150  0.0113
  22.  H 5( 2s )    0.0000  0.0003 -0.0003  0.0003  0.0000  0.0000  0.0113  0.0003

           NAO        17      18      19      20      21      22
      ------------ ------- ------- ------- ------- ------- -------
   1.  C 1( 1s )    0.0002 -0.0015  0.0002 -0.0015  0.0002 -0.0015
   2.  C 1( 2s )    0.4922  0.0202  0.4922  0.0202  0.4922  0.0202
   3.  C 1( 3s )    0.0000  0.0000  0.0000  0.0000  0.0000  0.0000
   4.  C 1( 2px)   -0.4858  0.0072  0.4858 -0.0072 -0.4858  0.0072
   5.  C 1( 3px)    0.0000  0.0000  0.0000  0.0000  0.0000  0.0000
   6.  C 1( 2py)   -0.4858  0.0072 -0.4858  0.0072  0.4858 -0.0072
   7.  C 1( 3py)    0.0000  0.0000  0.0000  0.0000  0.0000  0.0000
   8.  C 1( 2pz)    0.4858 -0.0072 -0.4858  0.0072 -0.4858  0.0072
   9.  C 1( 3pz)    0.0000  0.0000  0.0000  0.0000  0.0000  0.0000
  10.  C 1( 3d1)    0.0225 -0.0003 -0.0225  0.0003 -0.0225  0.0003
  11.  C 1( 3d2)   -0.0225  0.0003 -0.0225  0.0003  0.0225 -0.0003
  12.  C 1( 3d3)   -0.0225  0.0003  0.0225 -0.0003 -0.0225  0.0003
  13.  C 1( 3d4)    0.0000  0.0000  0.0000  0.0000  0.0000  0.0000
  14.  C 1( 3d5)    0.0000  0.0000  0.0000  0.0000  0.0000  0.0000
  15.  H 2( 1s )    0.0150  0.0113  0.0150  0.0113  0.0150  0.0113
  16.  H 2( 2s )    0.0113  0.0003  0.0113  0.0003  0.0113  0.0003
  17.  H 3( 1s )    0.7828  0.0000  0.0150  0.0113  0.0150  0.0113
  18.  H 3( 2s )    0.0000  0.0005  0.0113  0.0003  0.0113  0.0003
  19.  H 4( 1s )    0.0150  0.0113  0.7828  0.0000  0.0150  0.0113
  20.  H 4( 2s )    0.0113  0.0003  0.0000  0.0005  0.0113  0.0003
  21.  H 5( 1s )    0.0150  0.0113  0.0150  0.0113  0.7828  0.0000
  22.  H 5( 2s )    0.0113  0.0003  0.0113  0.0003  0.0000  0.0005


 NATURAL BOND ORBITAL ANALYSIS:

 Initiate 2-center NBO search using THRESH = 1.900 and PRJTHR = 0.300

 Search of NAO DM block for core orbitals on atom:   1
      Eigenvector ( 1) has occupancy 1.99999
            1.0000 0.0000 0.0000 0.0000 0.0000 0.0000 0.0000 0.0000
            0.0000 0.0000 0.0000 0.0000 0.0000 0.0000
        1 eigenvector(s) stashed in permanent list

 Core orbitals projected from the NAO density matrix
       8.000 electrons remain (>1.900); search continues

 Search of NAO DM block for the following atom(s):   1
      Select eigenvectors with eigenvalue > 1.900
       1.232 1.232 1.232 1.171 0.000 0.000 0.000 0.000 0.000 0.000 0.000 0.000
       0.000 0.000

 No NHOs identified in the 1-center search of the NAO density matrix
       8.000 electrons remain (>1.900); search continues

 Search of NAO DM block for the following atom(s):   1   2
      Select eigenvectors with eigenvalue > 1.900
       2.000 1.232 1.232 1.187 0.000 0.000 0.000 0.000 0.000 0.000 0.000 0.000
       0.000 0.000 0.000 0.000
      Eigenvector ( 1) has occupancy 1.99954
            0.0000 0.3714 0.0000 0.3958 0.0000 0.3958 0.0000 0.3958
            0.0000 0.0183 0.0183 0.0183 0.0000 0.0000 0.6253-0.0005
      1 hybrid on atom 1 stashed in prospective list
      1 hybrid on atom 2 stashed in prospective list

 Search of NAO DM block for the following atom(s):   1   3
      Select eigenvectors with eigenvalue > 1.900
       2.000 1.232 1.232 1.187 0.000 0.000 0.000 0.000 0.000 0.000 0.000 0.000
       0.000 0.000 0.000 0.000
      Eigenvector ( 1) has occupancy 1.99954
            0.0000 0.3714 0.0000-0.3958 0.0000-0.3958 0.0000 0.3958
            0.0000 0.0183-0.0183-0.0183 0.0000 0.0000 0.6253-0.0005
      1 hybrid on atom 1 stashed in prospective list
      1 hybrid on atom 3 stashed in prospective list

 Search of NAO DM block for the following atom(s):   1   4
      Select eigenvectors with eigenvalue > 1.900
       2.000 1.232 1.232 1.187 0.000 0.000 0.000 0.000 0.000 0.000 0.000 0.000
       0.000 0.000 0.000 0.000
      Eigenvector ( 1) has occupancy 1.99954
            0.0000 0.3714 0.0000 0.3958 0.0000-0.3958 0.0000-0.3958
            0.0000-0.0183-0.0183 0.0183 0.0000 0.0000 0.6253-0.0005
      1 hybrid on atom 1 stashed in prospective list
      1 hybrid on atom 4 stashed in prospective list

 Search of NAO DM block for the following atom(s):   1   5
      Select eigenvectors with eigenvalue > 1.900
       2.000 1.232 1.232 1.187 0.000 0.000 0.000 0.000 0.000 0.000 0.000 0.000
       0.000 0.000 0.000 0.000
      Eigenvector ( 1) has occupancy 1.99954
            0.0000 0.3714 0.0000-0.3958 0.0000 0.3958 0.0000-0.3958
            0.0000-0.0183 0.0183-0.0183 0.0000 0.0000 0.6253-0.0005
      1 hybrid on atom 1 stashed in prospective list
      1 hybrid on atom 5 stashed in prospective list

 Stash prospective hybrids having projection expectation value > 0.300
       0.997 0.997 0.997 0.997 0.997 0.997 0.997 0.997
      0 hybrids eliminated in 1 pass
      8 hybrids moved from prospective to permanent list

 NHOs of 2-center eigenvectors projected from the NAO density matrix
       0.002 electrons remain in the fully projected matrix

 Search of NHO DM block for the following atom(s):   1
      Select eigenvectors with eigenvalue > 1.900
       2.000 0.000 0.000 0.000 0.000 0.000 0.000 0.000 0.000 0.000 0.000 0.000
       0.000 0.000
      Eigenvector ( 1) has occupancy 1.99999
            1.0000 0.0000 0.0000 0.0000 0.0000 0.0000 0.0000 0.0000
            0.0000 0.0000 0.0000 0.0000 0.0000 0.0000
           NBO accepted:    1. Label:CR ( 1)   1
        1 eigenvector(s) stashed in permanent list

  1-center NBOs projected from the NHO density matrix
       8.000 electrons remain (>1.900); search continues

 Search of NHO DM block for the following atom(s):   1   2
      Select eigenvectors with eigenvalue > 1.900
       1.999 0.000 0.000 0.000 0.000 0.000 0.000 0.000 0.000 0.000 0.000 0.000
       0.000 0.000 0.000 0.000
      Eigenvector ( 1) has occupancy 1.99917
            0.0000 0.7801 0.0000 0.0000 0.0000 0.0000 0.0000 0.0000
            0.0000 0.0000 0.0000 0.0000 0.0000 0.0000 0.6256 0.0000
      Occupancy is 1.999 after deleting minor hybrid components
            0.0000 0.7801 0.0000 0.0000 0.0000 0.0000 0.0000 0.0000
            0.0000 0.0000 0.0000 0.0000 0.0000 0.0000 0.6256 0.0000
           NBO accepted:    2. Label:BD ( 1)   1   2
      Occupancy is 0.000 for antibonding component
            0.0000-0.6256 0.0000 0.0000 0.0000 0.0000 0.0000 0.0000
            0.0000 0.0000 0.0000 0.0000 0.0000 0.0000 0.7801 0.0000
           NBO accepted:    3. Label:BD*( 1)   1   2
        2 eigenvector(s) stashed in permanent list

 Search of NHO DM block for the following atom(s):   1   3
      Select eigenvectors with eigenvalue > 1.900
       1.999 0.000 0.000 0.000 0.000 0.000 0.000 0.000 0.000 0.000 0.000 0.000
       0.000 0.000 0.000 0.000
      Eigenvector ( 1) has occupancy 1.99917
            0.0000 0.0000 0.7801 0.0000 0.0000 0.0000 0.0000 0.0000
            0.0000 0.0000 0.0000 0.0000 0.0000 0.0000 0.6256 0.0000
      Occupancy is 1.999 after deleting minor hybrid components
            0.0000 0.0000 0.7801 0.0000 0.0000 0.0000 0.0000 0.0000
            0.0000 0.0000 0.0000 0.0000 0.0000 0.0000 0.6256 0.0000
           NBO accepted:    4. Label:BD ( 1)   1   3
      Occupancy is 0.000 for antibonding component
            0.0000 0.0000-0.6256 0.0000 0.0000 0.0000 0.0000 0.0000
            0.0000 0.0000 0.0000 0.0000 0.0000 0.0000 0.7801 0.0000
           NBO accepted:    5. Label:BD*( 1)   1   3
        2 eigenvector(s) stashed in permanent list

 Search of NHO DM block for the following atom(s):   1   4
      Select eigenvectors with eigenvalue > 1.900
       1.999 0.000 0.000 0.000 0.000 0.000 0.000 0.000 0.000 0.000 0.000 0.000
       0.000 0.000 0.000 0.000
      Eigenvector ( 1) has occupancy 1.99917
            0.0000 0.0000 0.0000 0.7801 0.0000 0.0000 0.0000 0.0000
            0.0000 0.0000 0.0000 0.0000 0.0000 0.0000 0.6256 0.0000
      Occupancy is 1.999 after deleting minor hybrid components
            0.0000 0.0000 0.0000 0.7801 0.0000 0.0000 0.0000 0.0000
            0.0000 0.0000 0.0000 0.0000 0.0000 0.0000 0.6256 0.0000
           NBO accepted:    6. Label:BD ( 1)   1   4
      Occupancy is 0.000 for antibonding component
            0.0000 0.0000 0.0000-0.6256 0.0000 0.0000 0.0000 0.0000
            0.0000 0.0000 0.0000 0.0000 0.0000 0.0000 0.7801 0.0000
           NBO accepted:    7. Label:BD*( 1)   1   4
        2 eigenvector(s) stashed in permanent list

 Search of NHO DM block for the following atom(s):   1   5
      Select eigenvectors with eigenvalue > 1.900
       1.999 0.000 0.000 0.000 0.000 0.000 0.000 0.000 0.000 0.000 0.000 0.000
       0.000 0.000 0.000 0.000
      Eigenvector ( 1) has occupancy 1.99917
            0.0000 0.0000 0.0000 0.0000 0.7801 0.0000 0.0000 0.0000
            0.0000 0.0000 0.0000 0.0000 0.0000 0.0000 0.6256 0.0000
      Occupancy is 1.999 after deleting minor hybrid components
            0.0000 0.0000 0.0000 0.0000 0.7801 0.0000 0.0000 0.0000
            0.0000 0.0000 0.0000 0.0000 0.0000 0.0000 0.6256 0.0000
           NBO accepted:    8. Label:BD ( 1)   1   5
      Occupancy is 0.000 for antibonding component
            0.0000 0.0000 0.0000 0.0000-0.6256 0.0000 0.0000 0.0000
            0.0000 0.0000 0.0000 0.0000 0.0000 0.0000 0.7801 0.0000
           NBO accepted:    9. Label:BD*( 1)   1   5
        2 eigenvector(s) stashed in permanent list

  2-center NBOs projected from the NHO density matrix
       0.002 electrons remain in the fully projected matrix

                            Occupancies       Lewis Structure    Low   High
         Max    Occ     -------------------  -----------------   occ   occ
  Cycle  Ctr   Thresh    Lewis   non-Lewis     CR  BD  nC  LP    (L)   (NL)
 ============================================================================
    1     2     1.90     9.99666   0.00334      1   4   0   0     0      0
 ----------------------------------------------------------------------------

 Structure accepted: No low occupancy Lewis orbitals

 -------------------------------------------------------
   Core                      1.99999 (100.000% of   2)
   Valence Lewis             7.99667 ( 99.958% of   8)
  ==================      =============================
   Total Lewis               9.99666 ( 99.967% of  10)
  -----------------------------------------------------
   Valence non-Lewis         0.00143 (  0.014% of  10)
   Rydberg non-Lewis         0.00191 (  0.019% of  10)
  ==================      =============================
   Total non-Lewis           0.00334 (  0.033% of  10)
 -------------------------------------------------------


     (Occupancy)   Bond orbital / Coefficients / Hybrids
 ------------------ Lewis ------------------------------------------------------
   1. (1.99999) CR ( 1) C  1            s(100.00%)
                                         1.0000  0.0000  0.0000  0.0000  0.0000
                                         0.0000  0.0000  0.0000  0.0000  0.0000
                                         0.0000  0.0000  0.0000  0.0000
   2. (1.99917) BD ( 1) C  1- H  2
               ( 60.86%)   0.7801* C  1 s( 25.00%)p 2.99( 74.84%)d 0.01(  0.16%)
                                         0.0000  0.5000  0.0000  0.4995  0.0000
                                         0.4995  0.0000  0.4995  0.0000  0.0231
                                         0.0231  0.0231  0.0000  0.0000
               ( 39.14%)   0.6256* H  2 s(100.00%)
                                         1.0000 -0.0008
   3. (1.99917) BD ( 1) C  1- H  3
               ( 60.86%)   0.7801* C  1 s( 25.00%)p 2.99( 74.84%)d 0.01(  0.16%)
                                         0.0000  0.5000  0.0000 -0.4995  0.0000
                                        -0.4995  0.0000  0.4995  0.0000  0.0231
                                        -0.0231 -0.0231  0.0000  0.0000
               ( 39.14%)   0.6256* H  3 s(100.00%)
                                         1.0000 -0.0008
   4. (1.99917) BD ( 1) C  1- H  4
               ( 60.86%)   0.7801* C  1 s( 25.00%)p 2.99( 74.84%)d 0.01(  0.16%)
                                         0.0000  0.5000  0.0000  0.4995  0.0000
                                        -0.4995  0.0000 -0.4995  0.0000 -0.0231
                                        -0.0231  0.0231  0.0000  0.0000
               ( 39.14%)   0.6256* H  4 s(100.00%)
                                         1.0000 -0.0008
   5. (1.99917) BD ( 1) C  1- H  5
               ( 60.86%)   0.7801* C  1 s( 25.00%)p 2.99( 74.84%)d 0.01(  0.16%)
                                         0.0000  0.5000  0.0000 -0.4995  0.0000
                                         0.4995  0.0000 -0.4995  0.0000 -0.0231
                                         0.0231 -0.0231  0.0000  0.0000
               ( 39.14%)   0.6256* H  5 s(100.00%)
                                         1.0000 -0.0008
 ---------------- non-Lewis ----------------------------------------------------
   6. (0.00036) BD*( 1) C  1- H  2
               ( 39.14%)   0.6256* C  1 s( 25.00%)p 2.99( 74.84%)d 0.01(  0.16%)
                                         0.0000 -0.5000  0.0000 -0.4995  0.0000
                                        -0.4995  0.0000 -0.4995  0.0000 -0.0231
                                        -0.0231 -0.0231  0.0000  0.0000
               ( 60.86%)  -0.7801* H  2 s(100.00%)
                                        -1.0000  0.0008
   7. (0.00036) BD*( 1) C  1- H  3
               ( 39.14%)   0.6256* C  1 s( 25.00%)p 2.99( 74.84%)d 0.01(  0.16%)
                                         0.0000 -0.5000  0.0000  0.4995  0.0000
                                         0.4995  0.0000 -0.4995  0.0000 -0.0231
                                         0.0231  0.0231  0.0000  0.0000
               ( 60.86%)  -0.7801* H  3 s(100.00%)
                                        -1.0000  0.0008
   8. (0.00036) BD*( 1) C  1- H  4
               ( 39.14%)   0.6256* C  1 s( 25.00%)p 2.99( 74.84%)d 0.01(  0.16%)
                                         0.0000 -0.5000  0.0000 -0.4995  0.0000
                                         0.4995  0.0000  0.4995  0.0000  0.0231
                                         0.0231 -0.0231  0.0000  0.0000
               ( 60.86%)  -0.7801* H  4 s(100.00%)
                                        -1.0000  0.0008
   9. (0.00036) BD*( 1) C  1- H  5
               ( 39.14%)   0.6256* C  1 s( 25.00%)p 2.99( 74.84%)d 0.01(  0.16%)
                                         0.0000 -0.5000  0.0000  0.4995  0.0000
                                        -0.4995  0.0000  0.4995  0.0000  0.0231
                                        -0.0231  0.0231  0.0000  0.0000
               ( 60.86%)  -0.7801* H  5 s(100.00%)
                                        -1.0000  0.0008
  10. (0.00000) RY ( 1) C  1            s(100.00%)
  11. (0.00000) RY ( 2) C  1            s(  0.00%)p 1.00( 93.65%)d 0.07(  6.35%)
  12. (0.00000) RY ( 3) C  1            s(  0.00%)p 1.00( 35.89%)d 1.79( 64.11%)
  13. (0.00000) RY ( 4) C  1            s(  0.00%)p 1.00(  8.21%)d11.18( 91.79%)
  14. (0.00000) RY ( 5) C  1            s(  0.00%)p 0.00(  0.00%)d 1.00(100.00%)
  15. (0.00000) RY ( 6) C  1            s(  0.00%)p 0.00(  0.00%)d 1.00(100.00%)
  16. (0.00000) RY ( 7) C  1            s(  0.00%)p 1.00( 42.15%)d 1.37( 57.85%)
  17. (0.00000) RY ( 8) C  1            s(  0.00%)p 1.00( 63.04%)d 0.59( 36.96%)
  18. (0.00000) RY ( 9) C  1            s(  0.00%)p 1.00( 57.69%)d 0.73( 42.31%)
  19. (0.00048) RY ( 1) H  2            s(100.00%)
                                         0.0008  1.0000
  20. (0.00048) RY ( 1) H  3            s(100.00%)
                                         0.0008  1.0000
  21. (0.00048) RY ( 1) H  4            s(100.00%)
                                         0.0008  1.0000
  22. (0.00048) RY ( 1) H  5            s(100.00%)
                                         0.0008  1.0000


 NHO DIRECTIONALITY AND BOND BENDING (deviation from line of nuclear centers at
                                      the position of maximum hybrid amplitude)

         [Thresholds for printing:  angular deviation  >  1.0 degree]
                                    p- or d-character  > 25.0%
                                    orbital occupancy  >  0.10e

                        Line of Centers        Hybrid 1             Hybrid 2
                        ---------------  -------------------  ------------------
           NBO            Theta   Phi    Theta   Phi    Dev   Theta   Phi    Dev
 ===============================================================================
    None exceeding thresholds


 SECOND ORDER PERTURBATION THEORY ANALYSIS OF FOCK MATRIX IN NBO BASIS

     Threshold for printing:   0.50 kcal/mol
                                                          E(2) E(NL)-E(L) F(L,NL)
      Donor (L) NBO              Acceptor (NL) NBO      kcal/mol   a.u.    a.u.
 ===============================================================================

 within unit  1
       None above threshold


 NATURAL BOND ORBITALS (Summary):

                                                     Principal Delocalizations
           NBO                 Occupancy    Energy   (geminal,vicinal,remote)
 ===============================================================================
 Molecular unit  1  (CH4)
 ------ Lewis --------------------------------------
    1. CR ( 1) C  1             1.99999   -11.20363
    2. BD ( 1) C  1- H  2       1.99917    -0.64320
    3. BD ( 1) C  1- H  3       1.99917    -0.64320
    4. BD ( 1) C  1- H  4       1.99917    -0.64320
    5. BD ( 1) C  1- H  5       1.99917    -0.64320
 ------ non-Lewis ----------------------------------
    6. BD*( 1) C  1- H  2       0.00036     0.72954
    7. BD*( 1) C  1- H  3       0.00036     0.72954
    8. BD*( 1) C  1- H  4       0.00036     0.72954
    9. BD*( 1) C  1- H  5       0.00036     0.72954
   10. RY ( 1) C  1             0.00000     1.31986
   11. RY ( 2) C  1             0.00000     0.92647
   12. RY ( 3) C  1             0.00000     1.80697
   13. RY ( 4) C  1             0.00000     2.31337
   14. RY ( 5) C  1             0.00000     1.94171
   15. RY ( 6) C  1             0.00000     1.94171
   16. RY ( 7) C  1             0.00000     1.68570
   17. RY ( 8) C  1             0.00000     1.48726
   18. RY ( 9) C  1             0.00000     1.55955
   19. RY ( 1) H  2             0.00048     0.81590
   20. RY ( 1) H  3             0.00048     0.81590
   21. RY ( 1) H  4             0.00048     0.81590
   22. RY ( 1) H  5             0.00048     0.81590
          -------------------------------
                 Total Lewis    9.99666  ( 99.9666%)
           Valence non-Lewis    0.00143  (  0.0143%)
           Rydberg non-Lewis    0.00191  (  0.0191%)
          -------------------------------
               Total unit  1   10.00000  (100.0000%)
              Charge unit  1    0.00000

 $CHOOSE
   BOND S 1 2 S 1 3 S 1 4 S 1 5 END
 $END

 NBO analysis completed in 0.21 CPU seconds (0 wall seconds)
 Maximum scratch memory used by NBO was 315936 words (2.41 MB)
 Maximum scratch memory used by G16NBO was 8977 words (0.07 MB)

 Opening RunExU unformatted file "/cluster/work/users/beto93/mol06/Gau-980701.EUF"
 Read unf file /cluster/work/users/beto93/mol06/Gau-980701.EUF:
 Label Gaussian matrix elements                                         IVers= 2 NLab= 2 Version=ES64L-G16RevC.01
 Title mol06-NBO                                                       
 NAtoms=     5 NBasis=    22 NBsUse=    22 ICharg=     0 Multip=     1 NE=    10 Len12L=8 Len4L=8 IOpCl= 0 ICGU=111
 GAUSSIAN SCALARS                    NI= 1 NR= 1 NTot=       1 LenBuf=    2 NRI=1 N=    1000
 NPA CHARGES                         NI= 0 NR= 1 NTot=       5 LenBuf= 4000 NRI=1 N=       5
 Recovered energy= -40.1947434984     dipole=      0.000000000000     -0.000000000000     -0.000000000000
 Unable to Open any file for archive entry.
 1\1\GINC-C1-28\SP\RHF\6-31G(d)\C1H4\BETO93\18-Nov-2024\0\\#RHF/6-31G* 
 int=nobasistransform Symmetry=None 5D 7F Pop=NBO7Read\\mol06-NBO\\0,1\
 C,0,0.,0.,0.\H,0,0.629118,0.629118,0.629118\H,0,-0.629118,-0.629118,0.
 629118\H,0,0.629118,-0.629118,-0.629118\H,0,-0.629118,0.629118,-0.6291
 18\\Version=ES64L-G16RevC.01\HF=-40.1947435\RMSD=4.604e-10\Dipole=0.,0
 .,0.\Quadrupole=0.,0.,0.,0.,0.,0.\PG=Unknown\\@
 The archive entry for this job was punched.


 I take a simple view of life: keep your eyes open and get on with it.
 -- Laurence Olivier
 Job cpu time:       0 days  0 hours  0 minutes  6.5 seconds.
 Elapsed time:       0 days  0 hours  0 minutes  2.2 seconds.
 File lengths (MBytes):  RWF=     10 Int=      0 D2E=      0 Chk=      1 Scr=      1
 Normal termination of Gaussian 16 at Mon Nov 18 16:40:10 2024.
