 Entering Gaussian System, Link 0=g16
 Initial command:
 /cluster/software/Gaussian/g16_C.01/l1.exe "/cluster/work/users/beto93/mol135/Gau-512055.inp" -scrdir="/cluster/work/users/beto93/mol135/"
 Entering Link 1 = /cluster/software/Gaussian/g16_C.01/l1.exe PID=    512056.
  
 Copyright (c) 1988-2019, Gaussian, Inc.  All Rights Reserved.
  
 This is part of the Gaussian(R) 16 program.  It is based on
 the Gaussian(R) 09 system (copyright 2009, Gaussian, Inc.),
 the Gaussian(R) 03 system (copyright 2003, Gaussian, Inc.),
 the Gaussian(R) 98 system (copyright 1998, Gaussian, Inc.),
 the Gaussian(R) 94 system (copyright 1995, Gaussian, Inc.),
 the Gaussian 92(TM) system (copyright 1992, Gaussian, Inc.),
 the Gaussian 90(TM) system (copyright 1990, Gaussian, Inc.),
 the Gaussian 88(TM) system (copyright 1988, Gaussian, Inc.),
 the Gaussian 86(TM) system (copyright 1986, Carnegie Mellon
 University), and the Gaussian 82(TM) system (copyright 1983,
 Carnegie Mellon University). Gaussian is a federally registered
 trademark of Gaussian, Inc.
  
 This software contains proprietary and confidential information,
 including trade secrets, belonging to Gaussian, Inc.
  
 This software is provided under written license and may be
 used, copied, transmitted, or stored only in accord with that
 written license.
  
 The following legend is applicable only to US Government
 contracts under FAR:
  
                    RESTRICTED RIGHTS LEGEND
  
 Use, reproduction and disclosure by the US Government is
 subject to restrictions as set forth in subparagraphs (a)
 and (c) of the Commercial Computer Software - Restricted
 Rights clause in FAR 52.227-19.
  
 Gaussian, Inc.
 340 Quinnipiac St., Bldg. 40, Wallingford CT 06492
  
  
 ---------------------------------------------------------------
 Warning -- This program may not be used in any manner that
 competes with the business of Gaussian, Inc. or will provide
 assistance to any competitor of Gaussian, Inc.  The licensee
 of this program is prohibited from giving any competitor of
 Gaussian, Inc. access to this program.  By using this program,
 the user acknowledges that Gaussian, Inc. is engaged in the
 business of creating and licensing software in the field of
 computational chemistry and represents and warrants to the
 licensee that it is not a competitor of Gaussian, Inc. and that
 it will not use this program in any manner prohibited above.
 ---------------------------------------------------------------
  

 Cite this work as:
 Gaussian 16, Revision C.01,
 M. J. Frisch, G. W. Trucks, H. B. Schlegel, G. E. Scuseria, 
 M. A. Robb, J. R. Cheeseman, G. Scalmani, V. Barone, 
 G. A. Petersson, H. Nakatsuji, X. Li, M. Caricato, A. V. Marenich, 
 J. Bloino, B. G. Janesko, R. Gomperts, B. Mennucci, H. P. Hratchian, 
 J. V. Ortiz, A. F. Izmaylov, J. L. Sonnenberg, D. Williams-Young, 
 F. Ding, F. Lipparini, F. Egidi, J. Goings, B. Peng, A. Petrone, 
 T. Henderson, D. Ranasinghe, V. G. Zakrzewski, J. Gao, N. Rega, 
 G. Zheng, W. Liang, M. Hada, M. Ehara, K. Toyota, R. Fukuda, 
 J. Hasegawa, M. Ishida, T. Nakajima, Y. Honda, O. Kitao, H. Nakai, 
 T. Vreven, K. Throssell, J. A. Montgomery, Jr., J. E. Peralta, 
 F. Ogliaro, M. J. Bearpark, J. J. Heyd, E. N. Brothers, K. N. Kudin, 
 V. N. Staroverov, T. A. Keith, R. Kobayashi, J. Normand, 
 K. Raghavachari, A. P. Rendell, J. C. Burant, S. S. Iyengar, 
 J. Tomasi, M. Cossi, J. M. Millam, M. Klene, C. Adamo, R. Cammi, 
 J. W. Ochterski, R. L. Martin, K. Morokuma, O. Farkas, 
 J. B. Foresman, and D. J. Fox, Gaussian, Inc., Wallingford CT, 2019.
 
 ******************************************
 Gaussian 16:  ES64L-G16RevC.01  3-Jul-2019
                18-Nov-2024 
 ******************************************
 %LindaWorkers=c1-41-ib
 %NProcShared=4
 Will use up to    4 processors via shared memory.
 %mem=25GB
 %chk=mol135.chk
 SetLPE:    new flags="-opt 'Tsnet.Node.lindarsharg: ssh'  -nodelist 'c1-41-ib.saga' -env GAUSS_MDEF=3355443200 -env GAUSS_EXEDIR="/cluster/software/Gaussian/g16_C.01/bsd:/cluster/software/Gaussian/g16_C.01""
 Will use up to    1 processors via Linda.
 -----------------------------------------------------------------
 #RHF/6-31G* int=nobasistransform Symmetry=None 5D 7F Pop=NBO7Read
 -----------------------------------------------------------------
 1/38=1,163=2,172=1/1;
 2/12=2,15=3,17=6,18=5,40=1/2;
 3/5=1,6=6,7=1,8=11,11=1,25=1,30=1,60=-1,116=1/1,2,3;
 4//1;
 5/5=2,38=5/2;
 6/7=2,8=2,9=2,10=2,28=1,40=2,113=1,114=1,124=2103/1,12;
 99/5=1,9=1/99;
 ----------
 mol135-NBO
 ----------
 Symbolic Z-matrix:
 Charge =  0 Multiplicity = 1
 H                     0.        0.        0.36858 
 H                     0.        0.       -0.36858 
 
                          Input orientation:                          
 ---------------------------------------------------------------------
 Center     Atomic      Atomic             Coordinates (Angstroms)
 Number     Number       Type             X           Y           Z
 ---------------------------------------------------------------------
      1          1           0        0.000000    0.000000    0.368583
      2          1           0        0.000000    0.000000   -0.368583
 ---------------------------------------------------------------------
 Symmetry turned off by external request.
 Stoichiometry    H2
 Rotational constants (GHZ):           0.0000000        1845.5739846        1845.5739846
 Standard basis: 6-31G(d) (5D, 7F)
     4 basis functions,     8 primitive gaussians,     4 cartesian basis functions
     1 alpha electrons        1 beta electrons
       nuclear repulsion energy         0.7178535241 Hartrees.
 NAtoms=    2 NActive=    2 NUniq=    2 SFac= 1.00D+00 NAtFMM=   60 NAOKFM=F Big=F
 Integral buffers will be    131072 words long.
 Raffenetti 1 integral format.
 Two-electron integral symmetry is turned off.
 One-electron integrals computed using PRISM.
 NBasis=     4 RedAO= T EigKep=  9.56D-02  NBF=     4
 NBsUse=     4 1.00D-06 EigRej= -1.00D+00 NBFU=     4
 ExpMin= 1.61D-01 ExpMax= 1.87D+01 ExpMxC= 1.87D+01 IAcc=3 IRadAn=         5 AccDes= 0.00D+00
 Harris functional with IExCor=  205 and IRadAn=       5 diagonalized for initial guess.
 HarFok:  IExCor=  205 AccDes= 0.00D+00 IRadAn=         5 IDoV= 1 UseB2=F ITyADJ=14
 ICtDFT=  3500011 ScaDFX=  1.000000  1.000000  1.000000  1.000000
 FoFCou: FMM=F IPFlag=           0 FMFlag=      100000 FMFlg1=           0
         NFxFlg=           0 DoJE=T BraDBF=F KetDBF=T FulRan=T
         wScrn=  0.000000 ICntrl=       500 IOpCl=  0 I1Cent=   200000004 NGrid=           0
         NMat0=    1 NMatS0=      1 NMatT0=    0 NMatD0=    1 NMtDS0=    0 NMtDT0=    0
 Symmetry not used in FoFCou.
 Keep R1 ints in memory in canonical form, NReq=801456.
 Requested convergence on RMS density matrix=1.00D-08 within 128 cycles.
 Requested convergence on MAX density matrix=1.00D-06.
 Requested convergence on             energy=1.00D-06.
 No special actions if energy rises.
 SCF Done:  E(RHF) =  -1.12679024342     A.U. after    4 cycles
            NFock=  4  Conv=0.93D-09     -V/T= 1.9989

 **********************************************************************

            Population analysis using the SCF Density.

 **********************************************************************

 Alpha  occ. eigenvalues --   -0.59668
 Alpha virt. eigenvalues --    0.23923   0.77336   1.40817
          Condensed to atoms (all electrons):
               1          2
     1  H    0.595071   0.404929
     2  H    0.404929   0.595071
 Mulliken charges:
               1
     1  H   -0.000000
     2  H   -0.000000
 Sum of Mulliken charges =  -0.00000
 Mulliken charges with hydrogens summed into heavy atoms:
               1
 Electronic spatial extent (au):  <R**2>=              5.2041
 Charge=             -0.0000 electrons
 Dipole moment (field-independent basis, Debye):
    X=              0.0000    Y=              0.0000    Z=              0.0000  Tot=              0.0000
 Quadrupole moment (field-independent basis, Debye-Ang):
   XX=             -2.0386   YY=             -2.0386   ZZ=             -1.6173
   XY=              0.0000   XZ=              0.0000   YZ=              0.0000
 Traceless Quadrupole moment (field-independent basis, Debye-Ang):
   XX=             -0.1404   YY=             -0.1404   ZZ=              0.2809
   XY=              0.0000   XZ=              0.0000   YZ=              0.0000
 Octapole moment (field-independent basis, Debye-Ang**2):
  XXX=              0.0000  YYY=              0.0000  ZZZ=              0.0000  XYY=              0.0000
  XXY=              0.0000  XXZ=              0.0000  XZZ=              0.0000  YZZ=              0.0000
  YYZ=              0.0000  XYZ=              0.0000
 Hexadecapole moment (field-independent basis, Debye-Ang**3):
 XXXX=             -1.8872 YYYY=             -1.8872 ZZZZ=             -2.8436 XXXY=              0.0000
 XXXZ=              0.0000 YYYX=              0.0000 YYYZ=              0.0000 ZZZX=              0.0000
 ZZZY=              0.0000 XXYY=             -0.6291 XXZZ=             -0.7993 YYZZ=             -0.7993
 XXYZ=              0.0000 YYXZ=              0.0000 ZZXY=              0.0000
 N-N= 7.178535240638D-01 E-N=-3.623990507146D+00  KE= 1.128061351332D+00
 Running external command "gaunbo7 R"
         input file       "/cluster/work/users/beto93/mol135/Gau-512056.EIn"
         output file      "/cluster/work/users/beto93/mol135/Gau-512056.EOu"
         message file     "/cluster/work/users/beto93/mol135/Gau-512056.EMs"
         fchk file        "/cluster/work/users/beto93/mol135/Gau-512056.EFC"
         mat. el file     "/cluster/work/users/beto93/mol135/Gau-512056.EUF"

 Writing WrtUnf unformatted file "/cluster/work/users/beto93/mol135/Gau-512056.EUF"
 Gaussian matrix elements                                         Version   2 NLab=11 Len12L=8 Len4L=8
 Write SHELL TO ATOM MAP                   from file      0 offset           0 length                   4 to matrix element file.
 Write SHELL TYPES                         from file      0 offset           0 length                   4 to matrix element file.
 Write NUMBER OF PRIMITIVES PER SHELL      from file      0 offset           0 length                   4 to matrix element file.
 Write PRIMITIVE EXPONENTS                 from file      0 offset           0 length                   8 to matrix element file.
 Write CONTRACTION COEFFICIENTS            from file      0 offset           0 length                   8 to matrix element file.
 Write P(S=P) CONTRACTION COEFFICIENTS     from file      0 offset           0 length                   8 to matrix element file.
 Write COORDINATES OF EACH SHELL           from file      0 offset           0 length                  12 to matrix element file.
 Write BONDS PER ATOM                      from file      0 offset           0 length                   2 to matrix element file.
 Write BONDED ATOMS                        from file      0 offset           0 length                   2 to matrix element file.
 Write BOND TYPES                          from file      0 offset           0 length                   2 to matrix element file.
 Write ONIOM CHARGE/MULT                   from file      0 offset           0 length                  32 to matrix element file.
 Write ONIOM ATOM LAYERS                   from file      0 offset           0 length                   2 to matrix element file.
 Write ONIOM ATOM MODIFIERS                from file      0 offset           0 length                   2 to matrix element file.
 Write ONIOM ATOM TYPES                    from file      0 offset           0 length                   2 to matrix element file.
 Write ONIOM LINK ATOMS                    from file      0 offset           0 length                   2 to matrix element file.
 Write ONIOM LINK CHARGES                  from file      0 offset           0 length                   2 to matrix element file.
 Write ONIOM LINK DISTANCES                from file      0 offset           0 length                   8 to matrix element file.
 Write SYMINF INTS                         from file      0 offset           0 length                  26 to matrix element file.
 Write ROTTR TO SO                         from file      0 offset           0 length                  12 to matrix element file.
 Write GAUSSIAN SCALARS                    from file    501 offset           0 to matrix element file.
 Write OPTIMIZATION FLAGS                  from file      0 offset           0 length                   2 to matrix element file.
 Write INTEGER ISO                         from file      0 offset           0 length                   2 to matrix element file.
 Write INTEGER SPIN                        from file      0 offset           0 length                   2 to matrix element file.
 Write REAL ZEFFECTIVE                     from file      0 offset           0 length                   2 to matrix element file.
 Write REAL GFACTOR                        from file      0 offset           0 length                   2 to matrix element file.
 Write REAL ZNUCLEAR                       from file      0 offset           0 length                   2 to matrix element file.
 Write MULLIKEN CHARGES                    from file      0 offset           0 length                   2 to matrix element file.
 Write NUCLEAR GRADIENT                    from file  10584 offset           0 length                   6 to matrix element file.
 Array NUCLEAR FORCE CONSTANTS              on  file  10585 does not exist.
 Write ELECTRIC DIPOLE MOMENT              from file      0 offset           0 length                   3 to matrix element file.
 Write NON-ADIABATIC COUPLING              from file  10810 offset           0 length                   6 to matrix element file.
 Write FINITE EM FIELD                     from file  10521 offset           0 length                  35 to matrix element file.
 Write OVERLAP                             from file  10514 offset           0 length                  10 to matrix element file.
 Write CORE HAMILTONIAN ALPHA              from file  10515 offset           0 length                  10 to matrix element file.
 Write CORE HAMILTONIAN BETA               from file  10515 offset          10 length                  10 to matrix element file.
 Write KINETIC ENERGY                      from file  10516 offset           0 length                  10 to matrix element file.
 Write ORTHOGONAL BASIS                    from file  10685 offset           0 length                  16 to matrix element file.
 Write DIPOLE INTEGRALS                    from file  10518 offset           0 length                  30 to matrix element file.
 Array DIP VEL INTEGRALS                    on  file  10572 does not exist.
 Array R X DEL INTEGRALS                    on  file  10572 does not exist.
 Write ALPHA ORBITAL ENERGIES              from file      0 offset           0 length                   4 to matrix element file.
 Write ALPHA MO COEFFICIENTS               from file  10524 offset           0 length                  16 to matrix element file.
 Write ALPHA DENSITY MATRIX                from file      0 offset           0 length                  10 to matrix element file.
 Write ALPHA FOCK MATRIX                   from file  10536 offset           0 length                  10 to matrix element file.
 Write ENERGY-WEIGHTED DENSITY             from file  10571 offset           0 length                  10 to matrix element file.
 Write ALPHA SCF DENSITY MATRIX            from file      0 offset           0 length                  10 to matrix element file.
 No 2e integrals to process.
 Perform NBO analysis...executing G16NBO...

 *********************************** NBO 7.0 ***********************************
             N A T U R A L   A T O M I C   O R B I T A L   A N D
          N A T U R A L   B O N D   O R B I T A L   A N A L Y S I S
 **************************** Espen Tangen (S101595) ***************************
  (c) Copyright 1996-2021 Board of Regents of the University of Wisconsin System
      on behalf of the Theoretical Chemistry Institute.  All rights reserved.

          Cite this program [NBO 7.0.10 (8-Feb-2021)] as:

          NBO 7.0.  E. D. Glendening, J. K. Badenhoop, A. E. Reed,
          J. E. Carpenter, J. A. Bohmann, C. M. Morales, P. Karafiloglou,
          C. R. Landis, and F. Weinhold, Theoretical Chemistry Institute,
          University of Wisconsin, Madison, WI (2018)

       /NPA    / : Natural Population Analysis
       /AOPNAO / : Print the AO to PNAO transformation
       /AONAO  / : Print the AO to NAO transformation
       /AOMO   / : Print the MOs in the AO basis
       /BOAO   / : Print the AO bond-order matrix
       /DMAO   / : Print the AO density matrix
       /DMPNAO / : Print the PNAO density matrix
       /DMNAO  / : Print the NAO density matrix
       /DMMO   / : Print the MO density matrix
       /SAO    / : Print the AO overlap matrix
       /SPNAO  / : Print the PNAO overlap matrix
       /DETAIL / : Write details of NBO search
       /ARCHIVE/ : Write the archive file to lfn47
       /AOINFO / : Write AO information to lfn31
       /FILE   / : Set to mol135.gen*

 Filename set to mol135.gen1

 Job title: mol135-NBO


 MOs in the AO basis:

           AO          1       2       3       4
      ------------ ------- ------- ------- -------
   1.  H 1 (s)      0.3274  0.1221  0.7651 -1.1250
   2.  H 1 (s)      0.2711  1.7221 -0.6861  1.3516
   3.  H 2 (s)      0.3274 -0.1221  0.7651  1.1250
   4.  H 2 (s)      0.2711 -1.7221 -0.6861 -1.3516


 AO overlap matrix:

           AO          1       2       3       4
      ------------ ------- ------- ------- -------
   1.  H 1 (s)      1.0000  0.6583  0.4578  0.5101
   2.  H 1 (s)      0.6583  1.0000  0.5101  0.8551
   3.  H 2 (s)      0.4578  0.5101  1.0000  0.6583
   4.  H 2 (s)      0.5101  0.8551  0.6583  1.0000


 AO bond-order matrix:

           AO          1       2       3       4
      ------------ ------- ------- ------- -------
   1.  H 1 (s)      0.2144  0.1775  0.2144  0.1775
   2.  H 1 (s)      0.1775  0.1470  0.1775  0.1470
   3.  H 2 (s)      0.2144  0.1775  0.2144  0.1775
   4.  H 2 (s)      0.1775  0.1470  0.1775  0.1470


 AO density matrix:

           AO          1       2       3       4
      ------------ ------- ------- ------- -------
   1.  H 1 (s)      1.2610  1.4061  1.2610  1.4061
   2.  H 1 (s)      1.4061  1.5680  1.4061  1.5680
   3.  H 2 (s)      1.2610  1.4061  1.2610  1.4061
   4.  H 2 (s)      1.4061  1.5680  1.4061  1.5680


 MO density matrix:

      MO     1       2       3       4
     ---- ------  ------  ------  ------
   1.     2.0000  0.0000  0.0000  0.0000
   2.     0.0000  0.0000  0.0000  0.0000
   3.     0.0000  0.0000  0.0000  0.0000
   4.     0.0000  0.0000  0.0000  0.0000


 NATURAL POPULATIONS:  Natural atomic orbital occupancies

  NAO Atom No lang   Type(AO)    Occupancy      Energy
 -------------------------------------------------------
   1    H  1  s      Val( 1s)     1.00000      -0.00524
   2    H  1  s      Ryd( 2s)     0.00000       0.91728

   3    H  2  s      Val( 1s)     1.00000      -0.00524
   4    H  2  s      Ryd( 2s)     0.00000       0.91728


 Summary of Natural Population Analysis:

                                     Natural Population
             Natural    ---------------------------------------------
  Atom No    Charge        Core      Valence    Rydberg      Total
 --------------------------------------------------------------------
    H  1    0.00000      0.00000     1.00000    0.00000     1.00000
    H  2    0.00000      0.00000     1.00000    0.00000     1.00000
 ====================================================================
 * Total *  0.00000      0.00000     2.00000    0.00000     2.00000

                                 Natural Population
 ---------------------------------------------------------
   Valence                    2.00000 (100.0000% of    2)
   Natural Minimal Basis      2.00000 (100.0000% of    2)
   Natural Rydberg Basis      0.00000 (  0.0000% of    2)
 ---------------------------------------------------------

    Atom No         Natural Electron Configuration
 ----------------------------------------------------------------------------
      H  1            1s( 1.00)
      H  2            1s( 1.00)


 PNAOs in the AO basis:

           AO          1       2       3       4
      ------------ ------- ------- ------- -------
   1.  H 1 (s)      0.4012  1.2664  0.0000  0.0000
   2.  H 1 (s)      0.6892 -1.1357  0.0000  0.0000
   3.  H 2 (s)      0.0000  0.0000  0.4012  1.2664
   4.  H 2 (s)      0.0000  0.0000  0.6892 -1.1357


 PNAO overlap matrix:

           NAO         1       2       3       4
      ------------ ------- ------- ------- -------
   1.  H 1( 1s )    1.0000  0.0000  0.7620 -0.2239
   2.  H 1( 2s )    0.0000  1.0000 -0.2239  0.3700
   3.  H 2( 1s )    0.7620 -0.2239  1.0000  0.0000
   4.  H 2( 2s )   -0.2239  0.3700  0.0000  1.0000


 PNAO density matrix:

           NAO         1       2       3       4
      ------------ ------- ------- ------- -------
   1.  H 1( 1s )    1.7254  0.0000  1.7254  0.0000
   2.  H 1( 2s )    0.0000  0.0000  0.0000  0.0000
   3.  H 2( 1s )    1.7254  0.0000  1.7254  0.0000
   4.  H 2( 2s )    0.0000  0.0000  0.0000  0.0000


 NAOs in the AO basis:

           AO          1       2       3       4
      ------------ ------- ------- ------- -------
   1.  H 1 (s)      0.7373  1.1610 -0.2743 -0.0790
   2.  H 1 (s)      0.6921 -1.9500 -0.3087  0.9797
   3.  H 2 (s)     -0.2743 -0.0790  0.7373  1.1610
   4.  H 2 (s)     -0.3087  0.9797  0.6921 -1.9500


 NAO density matrix:

           NAO         1       2       3       4
      ------------ ------- ------- ------- -------
   1.  H 1( 1s )    1.0000  0.0000  1.0000  0.0000
   2.  H 1( 2s )    0.0000  0.0000  0.0000  0.0000
   3.  H 2( 1s )    1.0000  0.0000  1.0000  0.0000
   4.  H 2( 2s )    0.0000  0.0000  0.0000  0.0000


 NATURAL BOND ORBITAL ANALYSIS:

 Initiate 2-center NBO search using THRESH = 1.900 and PRJTHR = 0.300

 No core orbitals identified in the NAO density matrix
       2.000 electrons remain (>1.900); search continues

 No NHOs identified in the 1-center search of the NAO density matrix
       2.000 electrons remain (>1.900); search continues

 Search of NAO DM block for the following atom(s):   1   2
      Select eigenvectors with eigenvalue > 1.900
       2.000 0.000 0.000 0.000
      Eigenvector ( 1) has occupancy 2.00000
            0.7071 0.0000 0.7071 0.0000
      1 hybrid on atom 1 stashed in prospective list
      1 hybrid on atom 2 stashed in prospective list

 Stash prospective hybrids having projection expectation value > 0.300
       1.000 1.000
      0 hybrids eliminated in 1 pass
      2 hybrids moved from prospective to permanent list

 NHOs of 2-center eigenvectors projected from the NAO density matrix
       0.000 electrons remain in the fully projected matrix

 Search of NHO DM block for the following atom(s):   1   2
      Select eigenvectors with eigenvalue > 1.900
       2.000 0.000 0.000 0.000
      Eigenvector ( 1) has occupancy 2.00000
            0.7071 0.0000 0.7071 0.0000
      Occupancy is 2.000 after deleting minor hybrid components
            0.7071 0.0000 0.7071 0.0000
           NBO accepted:    1. Label:BD ( 1)   1   2
      Occupancy is 0.000 for antibonding component
            0.7071 0.0000-0.7071 0.0000
           NBO accepted:    2. Label:BD*( 1)   1   2
        2 eigenvector(s) stashed in permanent list

  2-center NBOs projected from the NHO density matrix
       0.000 electrons remain in the fully projected matrix

                            Occupancies       Lewis Structure    Low   High
         Max    Occ     -------------------  -----------------   occ   occ
  Cycle  Ctr   Thresh    Lewis   non-Lewis     CR  BD  nC  LP    (L)   (NL)
 ============================================================================
    1     2     1.90     2.00000   0.00000      0   1   0   0     0      0
 ----------------------------------------------------------------------------

 Structure accepted: No low occupancy Lewis orbitals

 -------------------------------------------------------
   Valence Lewis             2.00000 (100.000% of   2)
  ==================      =============================
   Total Lewis               2.00000 (100.000% of   2)
  -----------------------------------------------------
   Valence non-Lewis         0.00000 (  0.000% of   2)
   Rydberg non-Lewis         0.00000 (  0.000% of   2)
  ==================      =============================
   Total non-Lewis           0.00000 (  0.000% of   2)
 -------------------------------------------------------


     (Occupancy)   Bond orbital / Coefficients / Hybrids
 ------------------ Lewis ------------------------------------------------------
   1. (2.00000) BD ( 1) H  1- H  2
               ( 50.00%)   0.7071* H  1 s(100.00%)
                                         1.0000  0.0000
               ( 50.00%)   0.7071* H  2 s(100.00%)
                                         1.0000  0.0000
 ---------------- non-Lewis ----------------------------------------------------
   2. (0.00000) BD*( 1) H  1- H  2
               ( 50.00%)   0.7071* H  1 s(100.00%)
               ( 50.00%)  -0.7071* H  2 s(100.00%)
   3. (0.00000) RY ( 1) H  1            s(100.00%)
   4. (0.00000) RY ( 1) H  2            s(100.00%)


 NHO DIRECTIONALITY AND BOND BENDING (deviation from line of nuclear centers at
                                      the position of maximum hybrid amplitude)

         [Thresholds for printing:  angular deviation  >  1.0 degree]
                                    p- or d-character  > 25.0%
                                    orbital occupancy  >  0.10e

                        Line of Centers        Hybrid 1             Hybrid 2
                        ---------------  -------------------  ------------------
           NBO            Theta   Phi    Theta   Phi    Dev   Theta   Phi    Dev
 ===============================================================================
    None exceeding thresholds


 SECOND ORDER PERTURBATION THEORY ANALYSIS OF FOCK MATRIX IN NBO BASIS

     Threshold for printing:   0.50 kcal/mol
                                                          E(2) E(NL)-E(L) F(L,NL)
      Donor (L) NBO              Acceptor (NL) NBO      kcal/mol   a.u.    a.u.
 ===============================================================================

 within unit  1
       None above threshold


 NATURAL BOND ORBITALS (Summary):

                                                     Principal Delocalizations
           NBO                 Occupancy    Energy   (geminal,vicinal,remote)
 ===============================================================================
 Molecular unit  1  (H2)
 ------ Lewis --------------------------------------
    1. BD ( 1) H  1- H  2       2.00000    -0.59668
 ------ non-Lewis ----------------------------------
    2. BD*( 1) H  1- H  2       0.00000     0.58620
    3. RY ( 1) H  1             0.00000     0.91728
    4. RY ( 1) H  2             0.00000     0.91728
          -------------------------------
                 Total Lewis    2.00000  (100.0000%)
           Valence non-Lewis    0.00000  (  0.0000%)
           Rydberg non-Lewis    0.00000  (  0.0000%)
          -------------------------------
               Total unit  1    2.00000  (100.0000%)
              Charge unit  1    0.00000

 $CHOOSE
   BOND S 1 2 END
 $END

 NBO analysis completed in 0.08 CPU seconds (1 wall second)
 Maximum scratch memory used by NBO was 190515 words (1.45 MB)
 Maximum scratch memory used by G16NBO was 8080 words (0.06 MB)

 Opening RunExU unformatted file "/cluster/work/users/beto93/mol135/Gau-512056.EUF"
 Read unf file /cluster/work/users/beto93/mol135/Gau-512056.EUF:
 Label Gaussian matrix elements                                         IVers= 2 NLab= 2 Version=ES64L-G16RevC.01
 Title mol135-NBO                                                      
 NAtoms=     2 NBasis=     4 NBsUse=     4 ICharg=     0 Multip=     1 NE=     2 Len12L=8 Len4L=8 IOpCl= 0 ICGU=111
 GAUSSIAN SCALARS                    NI= 1 NR= 1 NTot=       1 LenBuf=    2 NRI=1 N=    1000
 NPA CHARGES                         NI= 0 NR= 1 NTot=       2 LenBuf= 4000 NRI=1 N=       2
 Recovered energy= -1.12679024342     dipole=      0.000000000000      0.000000000000      0.000000000000
 Unable to Open any file for archive entry.
 1\1\GINC-C1-41\SP\RHF\6-31G(d)\H2\BETO93\18-Nov-2024\0\\#RHF/6-31G* in
 t=nobasistransform Symmetry=None 5D 7F Pop=NBO7Read\\mol135-NBO\\0,1\H
 ,0,0.,0.,0.368583\H,0,0.,0.,-0.368583\\Version=ES64L-G16RevC.01\HF=-1.
 1267902\RMSD=9.339e-10\Dipole=0.,0.,0.\Quadrupole=-0.1044172,-0.104417
 2,0.2088345,0.,0.,0.\PG=Unknown\\@
 The archive entry for this job was punched.


 THE THINKER DIES, BUT HIS THOUGHTS ARE BEYOND THE 
 REACH OF DESTRUCTION.  MEN ARE MORTAL; BUT IDEAS 
 ARE IMMORTAL.
                              -- WALTER LIPPMANN
 Job cpu time:       0 days  0 hours  0 minutes  4.8 seconds.
 Elapsed time:       0 days  0 hours  0 minutes  1.6 seconds.
 File lengths (MBytes):  RWF=     10 Int=      0 D2E=      0 Chk=      1 Scr=      1
 Normal termination of Gaussian 16 at Mon Nov 18 16:41:09 2024.
