 Entering Gaussian System, Link 0=g16
 Initial command:
 /cluster/software/Gaussian/g16_C.01/l1.exe "/cluster/work/users/beto93/mol46/Gau-780182.inp" -scrdir="/cluster/work/users/beto93/mol46/"
 Entering Link 1 = /cluster/software/Gaussian/g16_C.01/l1.exe PID=    780183.
  
 Copyright (c) 1988-2019, Gaussian, Inc.  All Rights Reserved.
  
 This is part of the Gaussian(R) 16 program.  It is based on
 the Gaussian(R) 09 system (copyright 2009, Gaussian, Inc.),
 the Gaussian(R) 03 system (copyright 2003, Gaussian, Inc.),
 the Gaussian(R) 98 system (copyright 1998, Gaussian, Inc.),
 the Gaussian(R) 94 system (copyright 1995, Gaussian, Inc.),
 the Gaussian 92(TM) system (copyright 1992, Gaussian, Inc.),
 the Gaussian 90(TM) system (copyright 1990, Gaussian, Inc.),
 the Gaussian 88(TM) system (copyright 1988, Gaussian, Inc.),
 the Gaussian 86(TM) system (copyright 1986, Carnegie Mellon
 University), and the Gaussian 82(TM) system (copyright 1983,
 Carnegie Mellon University). Gaussian is a federally registered
 trademark of Gaussian, Inc.
  
 This software contains proprietary and confidential information,
 including trade secrets, belonging to Gaussian, Inc.
  
 This software is provided under written license and may be
 used, copied, transmitted, or stored only in accord with that
 written license.
  
 The following legend is applicable only to US Government
 contracts under FAR:
  
                    RESTRICTED RIGHTS LEGEND
  
 Use, reproduction and disclosure by the US Government is
 subject to restrictions as set forth in subparagraphs (a)
 and (c) of the Commercial Computer Software - Restricted
 Rights clause in FAR 52.227-19.
  
 Gaussian, Inc.
 340 Quinnipiac St., Bldg. 40, Wallingford CT 06492
  
  
 ---------------------------------------------------------------
 Warning -- This program may not be used in any manner that
 competes with the business of Gaussian, Inc. or will provide
 assistance to any competitor of Gaussian, Inc.  The licensee
 of this program is prohibited from giving any competitor of
 Gaussian, Inc. access to this program.  By using this program,
 the user acknowledges that Gaussian, Inc. is engaged in the
 business of creating and licensing software in the field of
 computational chemistry and represents and warrants to the
 licensee that it is not a competitor of Gaussian, Inc. and that
 it will not use this program in any manner prohibited above.
 ---------------------------------------------------------------
  

 Cite this work as:
 Gaussian 16, Revision C.01,
 M. J. Frisch, G. W. Trucks, H. B. Schlegel, G. E. Scuseria, 
 M. A. Robb, J. R. Cheeseman, G. Scalmani, V. Barone, 
 G. A. Petersson, H. Nakatsuji, X. Li, M. Caricato, A. V. Marenich, 
 J. Bloino, B. G. Janesko, R. Gomperts, B. Mennucci, H. P. Hratchian, 
 J. V. Ortiz, A. F. Izmaylov, J. L. Sonnenberg, D. Williams-Young, 
 F. Ding, F. Lipparini, F. Egidi, J. Goings, B. Peng, A. Petrone, 
 T. Henderson, D. Ranasinghe, V. G. Zakrzewski, J. Gao, N. Rega, 
 G. Zheng, W. Liang, M. Hada, M. Ehara, K. Toyota, R. Fukuda, 
 J. Hasegawa, M. Ishida, T. Nakajima, Y. Honda, O. Kitao, H. Nakai, 
 T. Vreven, K. Throssell, J. A. Montgomery, Jr., J. E. Peralta, 
 F. Ogliaro, M. J. Bearpark, J. J. Heyd, E. N. Brothers, K. N. Kudin, 
 V. N. Staroverov, T. A. Keith, R. Kobayashi, J. Normand, 
 K. Raghavachari, A. P. Rendell, J. C. Burant, S. S. Iyengar, 
 J. Tomasi, M. Cossi, J. M. Millam, M. Klene, C. Adamo, R. Cammi, 
 J. W. Ochterski, R. L. Martin, K. Morokuma, O. Farkas, 
 J. B. Foresman, and D. J. Fox, Gaussian, Inc., Wallingford CT, 2019.
 
 ******************************************
 Gaussian 16:  ES64L-G16RevC.01  3-Jul-2019
                18-Nov-2024 
 ******************************************
 %LindaWorkers=c1-44-ib
 %NProcShared=4
 Will use up to    4 processors via shared memory.
 %mem=25GB
 %chk=mol46.chk
 SetLPE:    new flags="-opt 'Tsnet.Node.lindarsharg: ssh'  -nodelist 'c1-44-ib.saga' -env GAUSS_MDEF=3355443200 -env GAUSS_EXEDIR="/cluster/software/Gaussian/g16_C.01/bsd:/cluster/software/Gaussian/g16_C.01""
 Will use up to    1 processors via Linda.
 -----------------------------------------------------------------
 #RHF/6-31G* int=nobasistransform Symmetry=None 5D 7F Pop=NBO7Read
 -----------------------------------------------------------------
 1/38=1,163=2,172=1/1;
 2/12=2,15=3,17=6,18=5,40=1/2;
 3/5=1,6=6,7=1,8=11,11=1,25=1,30=1,60=-1,116=1/1,2,3;
 4//1;
 5/5=2,38=5/2;
 6/7=2,8=2,9=2,10=2,28=1,40=2,113=1,114=1,124=2103/1,12;
 99/5=1,9=1/99;
 ---------
 mol46-NBO
 ---------
 Symbolic Z-matrix:
 Charge =  0 Multiplicity = 1
 C                     0.        0.       -1.12338 
 S                     0.        0.        0.42127 
 
                          Input orientation:                          
 ---------------------------------------------------------------------
 Center     Atomic      Atomic             Coordinates (Angstroms)
 Number     Number       Type             X           Y           Z
 ---------------------------------------------------------------------
      1          6           0        0.000000    0.000000   -1.123382
      2         16           0        0.000000    0.000000    0.421268
 ---------------------------------------------------------------------
 Symmetry turned off by external request.
 Stoichiometry    CS
 Rotational constants (GHZ):           0.0000000          24.2762681          24.2762681
 Standard basis: 6-31G(d) (5D, 7F)
    32 basis functions,    80 primitive gaussians,    34 cartesian basis functions
    11 alpha electrons       11 beta electrons
       nuclear repulsion energy        32.8883645151 Hartrees.
 NAtoms=    2 NActive=    2 NUniq=    2 SFac= 1.00D+00 NAtFMM=   60 NAOKFM=F Big=F
 Integral buffers will be    131072 words long.
 Raffenetti 1 integral format.
 Two-electron integral symmetry is turned off.
 One-electron integrals computed using PRISM.
 NBasis=    32 RedAO= T EigKep=  1.76D-02  NBF=    32
 NBsUse=    32 1.00D-06 EigRej= -1.00D+00 NBFU=    32
 ExpMin= 1.17D-01 ExpMax= 2.19D+04 ExpMxC= 3.30D+03 IAcc=3 IRadAn=         5 AccDes= 0.00D+00
 Harris functional with IExCor=  205 and IRadAn=       5 diagonalized for initial guess.
 HarFok:  IExCor=  205 AccDes= 0.00D+00 IRadAn=         5 IDoV= 1 UseB2=F ITyADJ=14
 ICtDFT=  3500011 ScaDFX=  1.000000  1.000000  1.000000  1.000000
 FoFCou: FMM=F IPFlag=           0 FMFlag=      100000 FMFlg1=           0
         NFxFlg=           0 DoJE=T BraDBF=F KetDBF=T FulRan=T
         wScrn=  0.000000 ICntrl=       500 IOpCl=  0 I1Cent=   200000004 NGrid=           0
         NMat0=    1 NMatS0=      1 NMatT0=    0 NMatD0=    1 NMtDS0=    0 NMtDT0=    0
 Symmetry not used in FoFCou.
 Keep R1 ints in memory in canonical form, NReq=969430.
 Requested convergence on RMS density matrix=1.00D-08 within 128 cycles.
 Requested convergence on MAX density matrix=1.00D-06.
 Requested convergence on             energy=1.00D-06.
 No special actions if energy rises.
 SCF Done:  E(RHF) =  -435.302042121     A.U. after   11 cycles
            NFock= 11  Conv=0.18D-08     -V/T= 1.9999

 **********************************************************************

            Population analysis using the SCF Density.

 **********************************************************************

 Alpha  occ. eigenvalues --  -91.98174 -11.36173  -9.00271  -6.68362  -6.68177
 Alpha  occ. eigenvalues --   -6.68177  -1.10128  -0.69034  -0.46914  -0.45844
 Alpha  occ. eigenvalues --   -0.45844
 Alpha virt. eigenvalues --    0.07055   0.07055   0.22655   0.42504   0.50515
 Alpha virt. eigenvalues --    0.50515   0.61349   0.71995   0.81217   0.81217
 Alpha virt. eigenvalues --    0.99250   0.99250   1.00635   1.00635   1.09182
 Alpha virt. eigenvalues --    1.46278   1.95808   1.95808   2.18862   2.18862
 Alpha virt. eigenvalues --    2.69578
          Condensed to atoms (all electrons):
               1          2
     1  C    5.398462   0.622826
     2  S    0.622826  15.355885
 Mulliken charges:
               1
     1  C   -0.021289
     2  S    0.021289
 Sum of Mulliken charges =  -0.00000
 Mulliken charges with hydrogens summed into heavy atoms:
               1
     1  C   -0.021289
     2  S    0.021289
 Electronic spatial extent (au):  <R**2>=             79.7781
 Charge=             -0.0000 electrons
 Dipole moment (field-independent basis, Debye):
    X=              0.0000    Y=              0.0000    Z=              1.2076  Tot=              1.2076
 Quadrupole moment (field-independent basis, Debye-Ang):
   XX=            -18.3965   YY=            -18.3965   ZZ=            -20.5033
   XY=             -0.0000   XZ=              0.0000   YZ=              0.0000
 Traceless Quadrupole moment (field-independent basis, Debye-Ang):
   XX=              0.7023   YY=              0.7023   ZZ=             -1.4046
   XY=             -0.0000   XZ=              0.0000   YZ=              0.0000
 Octapole moment (field-independent basis, Debye-Ang**2):
  XXX=              0.0000  YYY=              0.0000  ZZZ=             11.6731  XYY=              0.0000
  XXY=              0.0000  XXZ=              1.0146  XZZ=             -0.0000  YZZ=              0.0000
  YYZ=              1.0146  XYZ=              0.0000
 Hexadecapole moment (field-independent basis, Debye-Ang**3):
 XXXX=            -22.5614 YYYY=            -22.5614 ZZZZ=            -93.6004 XXXY=             -0.0000
 XXXZ=              0.0000 YYYX=             -0.0000 YYYZ=              0.0000 ZZZX=              0.0000
 ZZZY=              0.0000 XXYY=             -7.5205 XXZZ=            -17.0131 YYZZ=            -17.0131
 XXYZ=              0.0000 YYXZ=              0.0000 ZZXY=             -0.0000
 N-N= 3.288836451515D+01 E-N=-1.100589438517D+03  KE= 4.353506075654D+02
 Running external command "gaunbo7 R"
         input file       "/cluster/work/users/beto93/mol46/Gau-780183.EIn"
         output file      "/cluster/work/users/beto93/mol46/Gau-780183.EOu"
         message file     "/cluster/work/users/beto93/mol46/Gau-780183.EMs"
         fchk file        "/cluster/work/users/beto93/mol46/Gau-780183.EFC"
         mat. el file     "/cluster/work/users/beto93/mol46/Gau-780183.EUF"

 Writing WrtUnf unformatted file "/cluster/work/users/beto93/mol46/Gau-780183.EUF"
 Gaussian matrix elements                                         Version   2 NLab=11 Len12L=8 Len4L=8
 Write SHELL TO ATOM MAP                   from file      0 offset           0 length                   9 to matrix element file.
 Write SHELL TYPES                         from file      0 offset           0 length                   9 to matrix element file.
 Write NUMBER OF PRIMITIVES PER SHELL      from file      0 offset           0 length                   9 to matrix element file.
 Write PRIMITIVE EXPONENTS                 from file      0 offset           0 length                  28 to matrix element file.
 Write CONTRACTION COEFFICIENTS            from file      0 offset           0 length                  28 to matrix element file.
 Write P(S=P) CONTRACTION COEFFICIENTS     from file      0 offset           0 length                  28 to matrix element file.
 Write COORDINATES OF EACH SHELL           from file      0 offset           0 length                  27 to matrix element file.
 Write BONDS PER ATOM                      from file      0 offset           0 length                   2 to matrix element file.
 Write BONDED ATOMS                        from file      0 offset           0 length                   2 to matrix element file.
 Write BOND TYPES                          from file      0 offset           0 length                   2 to matrix element file.
 Write ONIOM CHARGE/MULT                   from file      0 offset           0 length                  32 to matrix element file.
 Write ONIOM ATOM LAYERS                   from file      0 offset           0 length                   2 to matrix element file.
 Write ONIOM ATOM MODIFIERS                from file      0 offset           0 length                   2 to matrix element file.
 Write ONIOM ATOM TYPES                    from file      0 offset           0 length                   2 to matrix element file.
 Write ONIOM LINK ATOMS                    from file      0 offset           0 length                   2 to matrix element file.
 Write ONIOM LINK CHARGES                  from file      0 offset           0 length                   2 to matrix element file.
 Write ONIOM LINK DISTANCES                from file      0 offset           0 length                   8 to matrix element file.
 Write SYMINF INTS                         from file      0 offset           0 length                  26 to matrix element file.
 Write ROTTR TO SO                         from file      0 offset           0 length                  12 to matrix element file.
 Write GAUSSIAN SCALARS                    from file    501 offset           0 to matrix element file.
 Write OPTIMIZATION FLAGS                  from file      0 offset           0 length                   2 to matrix element file.
 Write INTEGER ISO                         from file      0 offset           0 length                   2 to matrix element file.
 Write REAL ZEFFECTIVE                     from file      0 offset           0 length                   2 to matrix element file.
 Write REAL ZNUCLEAR                       from file      0 offset           0 length                   2 to matrix element file.
 Write MULLIKEN CHARGES                    from file      0 offset           0 length                   2 to matrix element file.
 Write NUCLEAR GRADIENT                    from file  10584 offset           0 length                   6 to matrix element file.
 Array NUCLEAR FORCE CONSTANTS              on  file  10585 does not exist.
 Write ELECTRIC DIPOLE MOMENT              from file      0 offset           0 length                   3 to matrix element file.
 Write NON-ADIABATIC COUPLING              from file  10810 offset           0 length                   6 to matrix element file.
 Write FINITE EM FIELD                     from file  10521 offset           0 length                  35 to matrix element file.
 Write OVERLAP                             from file  10514 offset           0 length                 528 to matrix element file.
 Write CORE HAMILTONIAN ALPHA              from file  10515 offset           0 length                 528 to matrix element file.
 Write CORE HAMILTONIAN BETA               from file  10515 offset         528 length                 528 to matrix element file.
 Write KINETIC ENERGY                      from file  10516 offset           0 length                 528 to matrix element file.
 Write ORTHOGONAL BASIS                    from file  10685 offset           0 length                1024 to matrix element file.
 Write DIPOLE INTEGRALS                    from file  10518 offset           0 length                1584 to matrix element file.
 Array DIP VEL INTEGRALS                    on  file  10572 does not exist.
 Array R X DEL INTEGRALS                    on  file  10572 does not exist.
 Write ALPHA ORBITAL ENERGIES              from file      0 offset           0 length                  32 to matrix element file.
 Write ALPHA MO COEFFICIENTS               from file  10524 offset           0 length                1024 to matrix element file.
 Write ALPHA DENSITY MATRIX                from file      0 offset           0 length                 528 to matrix element file.
 Write ALPHA FOCK MATRIX                   from file  10536 offset           0 length                 528 to matrix element file.
 Write ENERGY-WEIGHTED DENSITY             from file  10571 offset           0 length                 528 to matrix element file.
 Write ALPHA SCF DENSITY MATRIX            from file      0 offset           0 length                 528 to matrix element file.
 No 2e integrals to process.
 Perform NBO analysis...executing G16NBO...

 *********************************** NBO 7.0 ***********************************
             N A T U R A L   A T O M I C   O R B I T A L   A N D
          N A T U R A L   B O N D   O R B I T A L   A N A L Y S I S
 **************************** Espen Tangen (S101595) ***************************
  (c) Copyright 1996-2021 Board of Regents of the University of Wisconsin System
      on behalf of the Theoretical Chemistry Institute.  All rights reserved.

          Cite this program [NBO 7.0.10 (8-Feb-2021)] as:

          NBO 7.0.  E. D. Glendening, J. K. Badenhoop, A. E. Reed,
          J. E. Carpenter, J. A. Bohmann, C. M. Morales, P. Karafiloglou,
          C. R. Landis, and F. Weinhold, Theoretical Chemistry Institute,
          University of Wisconsin, Madison, WI (2018)

       /NPA    / : Natural Population Analysis
       /AOPNAO / : Print the AO to PNAO transformation
       /AONAO  / : Print the AO to NAO transformation
       /AOMO   / : Print the MOs in the AO basis
       /BOAO   / : Print the AO bond-order matrix
       /DMAO   / : Print the AO density matrix
       /DMPNAO / : Print the PNAO density matrix
       /DMNAO  / : Print the NAO density matrix
       /DMMO   / : Print the MO density matrix
       /SAO    / : Print the AO overlap matrix
       /SPNAO  / : Print the PNAO overlap matrix
       /DETAIL / : Write details of NBO search
       /ARCHIVE/ : Write the archive file to lfn47
       /AOINFO / : Write AO information to lfn31
       /FILE   / : Set to mol46.gen*

 Filename set to mol46.gen1

 Job title: mol46-NBO


 MOs in the AO basis:

           AO          1       2       3       4       5       6       7       8
      ------------ ------- ------- ------- ------- ------- ------- ------- -------
   1.  C 1 (s)      0.0000  0.9965 -0.0005  0.0008  0.0000  0.0000 -0.1322  0.1483
   2.  C 1 (s)      0.0001  0.0220 -0.0002  0.0000  0.0000  0.0000  0.2704 -0.3171
   3.  C 1 (px)     0.0000  0.0000  0.0000  0.0000 -0.0003 -0.0001  0.0000  0.0000
   4.  C 1 (py)     0.0000  0.0000  0.0000  0.0000  0.0001 -0.0003  0.0000  0.0000
   5.  C 1 (pz)     0.0004  0.0031 -0.0001  0.0000  0.0000  0.0000  0.1820  0.0006
   6.  C 1 (s)      0.0003 -0.0110  0.0003  0.0021  0.0000  0.0000  0.1896 -0.3795
   7.  C 1 (px)     0.0000  0.0000  0.0000  0.0000  0.0004  0.0002  0.0000  0.0000
   8.  C 1 (py)     0.0000  0.0000  0.0000  0.0000 -0.0002  0.0004  0.0000  0.0000
   9.  C 1 (pz)     0.0005 -0.0036 -0.0008  0.0028  0.0000  0.0000  0.0315  0.0179
  10.  C 1 (d5)     0.0005  0.0010 -0.0002 -0.0002  0.0000  0.0000  0.0257 -0.0053
  11.  C 1 (d2)     0.0000  0.0000  0.0000  0.0000 -0.0003 -0.0001  0.0000  0.0000
  12.  C 1 (d3)     0.0000  0.0000  0.0000  0.0000  0.0001 -0.0003  0.0000  0.0000
  13.  C 1 (d4)     0.0000  0.0000  0.0000  0.0000  0.0000  0.0000  0.0000  0.0000
  14.  C 1 (d1)     0.0000  0.0000  0.0000  0.0000  0.0000  0.0000  0.0000  0.0000
  15.  S 2 (s)      0.9967 -0.0001 -0.2819 -0.0003  0.0000  0.0000  0.0599  0.0474
  16.  S 2 (s)      0.0123  0.0002  1.0306  0.0012  0.0000  0.0000 -0.2763 -0.2199
  17.  S 2 (px)     0.0000  0.0000  0.0000  0.0000  0.8813  0.4585  0.0000  0.0000
  18.  S 2 (py)     0.0000  0.0000  0.0000  0.0000 -0.4585  0.8813  0.0000  0.0000
  19.  S 2 (pz)    -0.0001 -0.0001 -0.0002  0.9930  0.0000  0.0000  0.0803 -0.1476
  20.  S 2 (s)     -0.0039 -0.0005  0.0209 -0.0019  0.0000  0.0000  0.5533  0.4772
  21.  S 2 (px)     0.0000  0.0000  0.0000  0.0000  0.0193  0.0100  0.0000  0.0000
  22.  S 2 (py)     0.0000  0.0000  0.0000  0.0000 -0.0100  0.0193  0.0000  0.0000
  23.  S 2 (pz)     0.0005  0.0006 -0.0013  0.0236  0.0000  0.0000 -0.1718  0.3717
  24.  S 2 (s)      0.0015  0.0051 -0.0054 -0.0023  0.0000  0.0000  0.1494  0.3208
  25.  S 2 (px)     0.0000  0.0000  0.0000  0.0000 -0.0048 -0.0025  0.0000  0.0000
  26.  S 2 (py)     0.0000  0.0000  0.0000  0.0000  0.0025 -0.0048  0.0000  0.0000
  27.  S 2 (pz)     0.0000 -0.0032  0.0003 -0.0041  0.0000  0.0000  0.0073  0.0784
  28.  S 2 (d5)    -0.0003 -0.0008  0.0006 -0.0010  0.0000  0.0000  0.0440 -0.0393
  29.  S 2 (d2)     0.0000  0.0000  0.0000  0.0000  0.0000  0.0000  0.0000  0.0000
  30.  S 2 (d3)     0.0000  0.0000  0.0000  0.0000  0.0000  0.0000  0.0000  0.0000
  31.  S 2 (d4)     0.0000  0.0000  0.0000  0.0000  0.0000  0.0000  0.0000  0.0000
  32.  S 2 (d1)     0.0000  0.0000  0.0000  0.0000  0.0000  0.0000  0.0000  0.0000

           AO          9      10      11      12      13      14      15      16
      ------------ ------- ------- ------- ------- ------- ------- ------- -------
   1.  C 1 (s)      0.0959  0.0000  0.0000  0.0000  0.0000 -0.0986  0.0063  0.0000
   2.  C 1 (s)     -0.1860  0.0000  0.0000  0.0000  0.0000  0.1166 -0.0977  0.0000
   3.  C 1 (px)     0.0000  0.2680 -0.0078  0.0149  0.4492  0.0000  0.0000  0.0415
   4.  C 1 (py)     0.0000  0.0078  0.2680  0.4492 -0.0149  0.0000  0.0000 -0.0774
   5.  C 1 (pz)     0.4761  0.0000  0.0000  0.0000  0.0000  0.2238  0.0878  0.0000
   6.  C 1 (s)     -0.3853  0.0000  0.0000  0.0000  0.0000  1.9188 -0.2762  0.0000
   7.  C 1 (px)     0.0000  0.1768 -0.0051  0.0222  0.6670  0.0000  0.0000  0.0185
   8.  C 1 (py)     0.0000  0.0051  0.1768  0.6670 -0.0222  0.0000  0.0000 -0.0345
   9.  C 1 (pz)     0.2711  0.0000  0.0000  0.0000  0.0000  0.9154 -0.0263  0.0000
  10.  C 1 (d5)     0.0312  0.0000  0.0000  0.0000  0.0000  0.0211 -0.0359  0.0000
  11.  C 1 (d2)     0.0000  0.0392 -0.0011  0.0006  0.0172  0.0000  0.0000  0.0248
  12.  C 1 (d3)     0.0000  0.0011  0.0392  0.0172 -0.0006  0.0000  0.0000 -0.0463
  13.  C 1 (d4)     0.0000  0.0000  0.0000  0.0000  0.0000  0.0000  0.0000  0.0000
  14.  C 1 (d1)     0.0000  0.0000  0.0000  0.0000  0.0000  0.0000  0.0000  0.0000
  15.  S 2 (s)     -0.0012  0.0000  0.0000  0.0000  0.0000 -0.0083 -0.0725  0.0000
  16.  S 2 (s)      0.0135  0.0000  0.0000  0.0000  0.0000  0.0827  0.1159  0.0000
  17.  S 2 (px)     0.0000 -0.2259  0.0066  0.0043  0.1279  0.0000  0.0000 -0.1348
  18.  S 2 (py)     0.0000 -0.0066 -0.2259  0.1279 -0.0043  0.0000  0.0000  0.2516
  19.  S 2 (pz)     0.1614  0.0000  0.0000  0.0000  0.0000 -0.0447  0.0686  0.0000
  20.  S 2 (s)      0.0084  0.0000  0.0000  0.0000  0.0000  0.0590 -1.6552  0.0000
  21.  S 2 (px)     0.0000  0.5946 -0.0173 -0.0115 -0.3456  0.0000  0.0000  0.5509
  22.  S 2 (py)     0.0000  0.0173  0.5946 -0.3456  0.0115  0.0000  0.0000 -1.0281
  23.  S 2 (pz)    -0.4207  0.0000  0.0000  0.0000  0.0000  0.0985 -0.2760  0.0000
  24.  S 2 (s)     -0.2014  0.0000  0.0000  0.0000  0.0000 -1.7592  1.8865  0.0000
  25.  S 2 (px)     0.0000  0.3082 -0.0089 -0.0165 -0.4964  0.0000  0.0000 -0.5969
  26.  S 2 (py)     0.0000  0.0089  0.3082 -0.4964  0.0165  0.0000  0.0000  1.1138
  27.  S 2 (pz)    -0.0857  0.0000  0.0000  0.0000  0.0000  1.8283  0.1241  0.0000
  28.  S 2 (d5)     0.0350  0.0000  0.0000  0.0000  0.0000  0.1572 -0.0247  0.0000
  29.  S 2 (d2)     0.0000 -0.0548  0.0016 -0.0033 -0.0998  0.0000  0.0000 -0.0377
  30.  S 2 (d3)     0.0000 -0.0016 -0.0548 -0.0998  0.0033  0.0000  0.0000  0.0703
  31.  S 2 (d4)     0.0000  0.0000  0.0000  0.0000  0.0000  0.0000  0.0000  0.0000
  32.  S 2 (d1)     0.0000  0.0000  0.0000  0.0000  0.0000  0.0000  0.0000  0.0000

           AO         17      18      19      20      21      22      23      24
      ------------ ------- ------- ------- ------- ------- ------- ------- -------
   1.  C 1 (s)      0.0000 -0.0709 -0.0493  0.0000  0.0000  0.0000  0.0000  0.0000
   2.  C 1 (s)      0.0000  0.1182  0.2552  0.0000  0.0000  0.0000  0.0000  0.0000
   3.  C 1 (px)    -0.0774  0.0000  0.0000 -0.2102 -1.0781  0.0000  0.0000  0.0515
   4.  C 1 (py)    -0.0415  0.0000  0.0000 -1.0781  0.2102  0.0000  0.0000  0.1867
   5.  C 1 (pz)     0.0000  0.0104 -0.8949  0.0000  0.0000  0.0000  0.0000  0.0000
   6.  C 1 (s)      0.0000  0.3203  0.7345  0.0000  0.0000  0.0000  0.0000  0.0000
   7.  C 1 (px)    -0.0345  0.0000  0.0000  0.2406  1.2338  0.0000  0.0000  0.0526
   8.  C 1 (py)    -0.0185  0.0000  0.0000  1.2338 -0.2406  0.0000  0.0000  0.1909
   9.  C 1 (pz)     0.0000  1.0652  1.4094  0.0000  0.0000  0.0000  0.0000  0.0000
  10.  C 1 (d5)     0.0000 -0.0863  0.0166  0.0000  0.0000  0.0000  0.0000  0.0000
  11.  C 1 (d2)    -0.0463  0.0000  0.0000 -0.0084 -0.0432  0.0000  0.0000 -0.0553
  12.  C 1 (d3)    -0.0248  0.0000  0.0000 -0.0432  0.0084  0.0000  0.0000 -0.2005
  13.  C 1 (d4)     0.0000  0.0000  0.0000  0.0000  0.0000  0.0476  0.0672  0.0000
  14.  C 1 (d1)     0.0000  0.0000  0.0000  0.0000  0.0000  0.0672 -0.0476  0.0000
  15.  S 2 (s)      0.0000 -0.0229  0.0078  0.0000  0.0000  0.0000  0.0000  0.0000
  16.  S 2 (s)      0.0000  0.0360 -0.0482  0.0000  0.0000  0.0000  0.0000  0.0000
  17.  S 2 (px)     0.2516  0.0000  0.0000 -0.0101 -0.0516  0.0000  0.0000 -0.0103
  18.  S 2 (py)     0.1348  0.0000  0.0000 -0.0516  0.0101  0.0000  0.0000 -0.0374
  19.  S 2 (pz)     0.0000 -0.2879  0.1097  0.0000  0.0000  0.0000  0.0000  0.0000
  20.  S 2 (s)      0.0000 -0.5276  0.0499  0.0000  0.0000  0.0000  0.0000  0.0000
  21.  S 2 (px)    -1.0281  0.0000  0.0000  0.0370  0.1896  0.0000  0.0000  0.0430
  22.  S 2 (py)    -0.5509  0.0000  0.0000  0.1896 -0.0370  0.0000  0.0000  0.1559
  23.  S 2 (pz)     0.0000  1.2337 -0.3348  0.0000  0.0000  0.0000  0.0000  0.0000
  24.  S 2 (s)      0.0000 -0.3262 -1.0640  0.0000  0.0000  0.0000  0.0000  0.0000
  25.  S 2 (px)     1.1138  0.0000  0.0000 -0.1019 -0.5226  0.0000  0.0000 -0.0649
  26.  S 2 (py)     0.5969  0.0000  0.0000 -0.5226  0.1019  0.0000  0.0000 -0.2356
  27.  S 2 (pz)     0.0000 -0.6614  0.8722  0.0000  0.0000  0.0000  0.0000  0.0000
  28.  S 2 (d5)     0.0000  0.0782 -0.3465  0.0000  0.0000  0.0000  0.0000  0.0000
  29.  S 2 (d2)     0.0703  0.0000  0.0000  0.0114  0.0585  0.0000  0.0000  0.2481
  30.  S 2 (d3)     0.0377  0.0000  0.0000  0.0585 -0.0114  0.0000  0.0000  0.9000
  31.  S 2 (d4)     0.0000  0.0000  0.0000  0.0000  0.0000  0.5741  0.8100  0.0000
  32.  S 2 (d1)     0.0000  0.0000  0.0000  0.0000  0.0000  0.8100 -0.5741  0.0000

           AO         25      26      27      28      29      30      31      32
      ------------ ------- ------- ------- ------- ------- ------- ------- -------
   1.  C 1 (s)      0.0000 -0.0284  0.0470  0.0000  0.0000  0.0000  0.0000 -0.0739
   2.  C 1 (s)      0.0000 -1.9794 -0.7742  0.0000  0.0000  0.0000  0.0000 -0.3452
   3.  C 1 (px)     0.1867  0.0000  0.0000  0.0000  0.0000  0.0155 -0.0405  0.0000
   4.  C 1 (py)    -0.0515  0.0000  0.0000  0.0000  0.0000 -0.0405 -0.0155  0.0000
   5.  C 1 (pz)     0.0000 -0.0577 -0.8020  0.0000  0.0000  0.0000  0.0000  0.2877
   6.  C 1 (s)      0.0000  4.4089  0.4035  0.0000  0.0000  0.0000  0.0000  1.8729
   7.  C 1 (px)     0.1909  0.0000  0.0000  0.0000  0.0000 -0.0806  0.2103  0.0000
   8.  C 1 (py)    -0.0526  0.0000  0.0000  0.0000  0.0000  0.2103  0.0806  0.0000
   9.  C 1 (pz)     0.0000  1.5901  0.4883  0.0000  0.0000  0.0000  0.0000  1.1045
  10.  C 1 (d5)     0.0000 -0.0773  0.1450  0.0000  0.0000  0.0000  0.0000  1.2327
  11.  C 1 (d2)    -0.2005  0.0000  0.0000  0.0000  0.0000 -0.3667  0.9566  0.0000
  12.  C 1 (d3)     0.0553  0.0000  0.0000  0.0000  0.0000  0.9566  0.3667  0.0000
  13.  C 1 (d4)     0.0000  0.0000  0.0000  0.9966  0.0467  0.0000  0.0000  0.0000
  14.  C 1 (d1)     0.0000  0.0000  0.0000 -0.0467  0.9966  0.0000  0.0000  0.0000
  15.  S 2 (s)      0.0000  0.0098  0.0035  0.0000  0.0000  0.0000  0.0000 -0.0276
  16.  S 2 (s)      0.0000 -0.0133 -0.0623  0.0000  0.0000  0.0000  0.0000  0.0761
  17.  S 2 (px)    -0.0374  0.0000  0.0000  0.0000  0.0000 -0.0180  0.0471  0.0000
  18.  S 2 (py)     0.0103  0.0000  0.0000  0.0000  0.0000  0.0471  0.0180  0.0000
  19.  S 2 (pz)     0.0000  0.0050  0.0758  0.0000  0.0000  0.0000  0.0000 -0.1707
  20.  S 2 (s)      0.0000  0.2205 -0.1200  0.0000  0.0000  0.0000  0.0000 -0.6351
  21.  S 2 (px)     0.1559  0.0000  0.0000  0.0000  0.0000  0.0665 -0.1735  0.0000
  22.  S 2 (py)    -0.0430  0.0000  0.0000  0.0000  0.0000 -0.1735 -0.0665  0.0000
  23.  S 2 (pz)     0.0000  0.1682 -0.2155  0.0000  0.0000  0.0000  0.0000  0.9843
  24.  S 2 (s)      0.0000 -2.7474  0.0480  0.0000  0.0000  0.0000  0.0000 -1.1059
  25.  S 2 (px)    -0.2356  0.0000  0.0000  0.0000  0.0000  0.0379 -0.0988  0.0000
  26.  S 2 (py)     0.0649  0.0000  0.0000  0.0000  0.0000 -0.0988 -0.0379  0.0000
  27.  S 2 (pz)     0.0000  1.7310 -0.0917  0.0000  0.0000  0.0000  0.0000  0.5118
  28.  S 2 (d5)     0.0000 -0.3332  0.9453  0.0000  0.0000  0.0000  0.0000 -0.6612
  29.  S 2 (d2)     0.9000  0.0000  0.0000  0.0000  0.0000 -0.1715  0.4474  0.0000
  30.  S 2 (d3)    -0.2481  0.0000  0.0000  0.0000  0.0000  0.4474  0.1715  0.0000
  31.  S 2 (d4)     0.0000  0.0000  0.0000 -0.1283 -0.0060  0.0000  0.0000  0.0000
  32.  S 2 (d1)     0.0000  0.0000  0.0000  0.0060 -0.1283  0.0000  0.0000  0.0000


 AO overlap matrix:

           AO          1       2       3       4       5       6       7       8
      ------------ ------- ------- ------- ------- ------- ------- ------- -------
   1.  C 1 (s)      1.0000  0.2191  0.0000  0.0000  0.0000  0.1843  0.0000  0.0000
   2.  C 1 (s)      0.2191  1.0000  0.0000  0.0000  0.0000  0.8123  0.0000  0.0000
   3.  C 1 (px)     0.0000  0.0000  1.0000  0.0000  0.0000  0.0000  0.5698  0.0000
   4.  C 1 (py)     0.0000  0.0000  0.0000  1.0000  0.0000  0.0000  0.0000  0.5698
   5.  C 1 (pz)     0.0000  0.0000  0.0000  0.0000  1.0000  0.0000  0.0000  0.0000
   6.  C 1 (s)      0.1843  0.8123  0.0000  0.0000  0.0000  1.0000  0.0000  0.0000
   7.  C 1 (px)     0.0000  0.0000  0.5698  0.0000  0.0000  0.0000  1.0000  0.0000
   8.  C 1 (py)     0.0000  0.0000  0.0000  0.5698  0.0000  0.0000  0.0000  1.0000
   9.  C 1 (pz)     0.0000  0.0000  0.0000  0.0000  0.5698  0.0000  0.0000  0.0000
  10.  C 1 (d5)     0.0000  0.0000  0.0000  0.0000  0.0000  0.0000  0.0000  0.0000
  11.  C 1 (d2)     0.0000  0.0000  0.0000  0.0000  0.0000  0.0000  0.0000  0.0000
  12.  C 1 (d3)     0.0000  0.0000  0.0000  0.0000  0.0000  0.0000  0.0000  0.0000
  13.  C 1 (d4)     0.0000  0.0000  0.0000  0.0000  0.0000  0.0000  0.0000  0.0000
  14.  C 1 (d1)     0.0000  0.0000  0.0000  0.0000  0.0000  0.0000  0.0000  0.0000
  15.  S 2 (s)      0.0000  0.0012  0.0000  0.0000  0.0033  0.0101  0.0000  0.0000
  16.  S 2 (s)      0.0000  0.0161  0.0000  0.0000  0.0369  0.0827  0.0000  0.0000
  17.  S 2 (px)     0.0000  0.0000  0.0053  0.0000  0.0000  0.0000  0.0271  0.0000
  18.  S 2 (py)     0.0000  0.0000  0.0000  0.0053  0.0000  0.0000  0.0000  0.0271
  19.  S 2 (pz)     0.0000 -0.0174  0.0000  0.0000 -0.0354 -0.0326  0.0000  0.0000
  20.  S 2 (s)      0.0209  0.1829  0.0000  0.0000  0.2295  0.3587  0.0000  0.0000
  21.  S 2 (px)     0.0000  0.0000  0.1090  0.0000  0.0000  0.0000  0.2880  0.0000
  22.  S 2 (py)     0.0000  0.0000  0.0000  0.1090  0.0000  0.0000  0.0000  0.2880
  23.  S 2 (pz)    -0.0485 -0.3045  0.0000  0.0000 -0.3219 -0.3453  0.0000  0.0000
  24.  S 2 (s)      0.0538  0.3100  0.0000  0.0000  0.1861  0.5412  0.0000  0.0000
  25.  S 2 (px)     0.0000  0.0000  0.1862  0.0000  0.0000  0.0000  0.5323  0.0000
  26.  S 2 (py)     0.0000  0.0000  0.0000  0.1862  0.0000  0.0000  0.0000  0.5323
  27.  S 2 (pz)    -0.1049 -0.5033  0.0000  0.0000 -0.1244 -0.6383  0.0000  0.0000
  28.  S 2 (d5)     0.0335  0.2238  0.0000  0.0000  0.2711  0.1262  0.0000  0.0000
  29.  S 2 (d2)     0.0000  0.0000 -0.1400  0.0000  0.0000  0.0000 -0.1824  0.0000
  30.  S 2 (d3)     0.0000  0.0000  0.0000 -0.1400  0.0000  0.0000  0.0000 -0.1824
  31.  S 2 (d4)     0.0000  0.0000  0.0000  0.0000  0.0000  0.0000  0.0000  0.0000
  32.  S 2 (d1)     0.0000  0.0000  0.0000  0.0000  0.0000  0.0000  0.0000  0.0000

           AO          9      10      11      12      13      14      15      16
      ------------ ------- ------- ------- ------- ------- ------- ------- -------
   1.  C 1 (s)      0.0000  0.0000  0.0000  0.0000  0.0000  0.0000  0.0000  0.0000
   2.  C 1 (s)      0.0000  0.0000  0.0000  0.0000  0.0000  0.0000  0.0012  0.0161
   3.  C 1 (px)     0.0000  0.0000  0.0000  0.0000  0.0000  0.0000  0.0000  0.0000
   4.  C 1 (py)     0.0000  0.0000  0.0000  0.0000  0.0000  0.0000  0.0000  0.0000
   5.  C 1 (pz)     0.5698  0.0000  0.0000  0.0000  0.0000  0.0000  0.0033  0.0369
   6.  C 1 (s)      0.0000  0.0000  0.0000  0.0000  0.0000  0.0000  0.0101  0.0827
   7.  C 1 (px)     0.0000  0.0000  0.0000  0.0000  0.0000  0.0000  0.0000  0.0000
   8.  C 1 (py)     0.0000  0.0000  0.0000  0.0000  0.0000  0.0000  0.0000  0.0000
   9.  C 1 (pz)     1.0000  0.0000  0.0000  0.0000  0.0000  0.0000  0.0242  0.1857
  10.  C 1 (d5)     0.0000  1.0000  0.0000  0.0000  0.0000  0.0000  0.0026  0.0381
  11.  C 1 (d2)     0.0000  0.0000  1.0000  0.0000  0.0000  0.0000  0.0000  0.0000
  12.  C 1 (d3)     0.0000  0.0000  0.0000  1.0000  0.0000  0.0000  0.0000  0.0000
  13.  C 1 (d4)     0.0000  0.0000  0.0000  0.0000  1.0000  0.0000  0.0000  0.0000
  14.  C 1 (d1)     0.0000  0.0000  0.0000  0.0000  0.0000  1.0000  0.0000  0.0000
  15.  S 2 (s)      0.0242  0.0026  0.0000  0.0000  0.0000  0.0000  1.0000  0.2627
  16.  S 2 (s)      0.1857  0.0381  0.0000  0.0000  0.0000  0.0000  0.2627  1.0000
  17.  S 2 (px)     0.0000  0.0000  0.0094  0.0000  0.0000  0.0000  0.0000  0.0000
  18.  S 2 (py)     0.0000  0.0000  0.0000  0.0094  0.0000  0.0000  0.0000  0.0000
  19.  S 2 (pz)    -0.0462 -0.0450  0.0000  0.0000  0.0000  0.0000  0.0000  0.0000
  20.  S 2 (s)      0.5669  0.1675  0.0000  0.0000  0.0000  0.0000  0.0102  0.3228
  21.  S 2 (px)     0.0000  0.0000  0.1453  0.0000  0.0000  0.0000  0.0000  0.0000
  22.  S 2 (py)     0.0000  0.0000  0.0000  0.1453  0.0000  0.0000  0.0000  0.0000
  23.  S 2 (pz)    -0.2864 -0.2152  0.0000  0.0000  0.0000  0.0000  0.0000  0.0000
  24.  S 2 (s)      0.5319  0.0587  0.0000  0.0000  0.0000  0.0000  0.0323  0.2491
  25.  S 2 (px)     0.0000  0.0000  0.1017  0.0000  0.0000  0.0000  0.0000  0.0000
  26.  S 2 (py)     0.0000  0.0000  0.0000  0.1017  0.0000  0.0000  0.0000  0.0000
  27.  S 2 (pz)    -0.0949  0.0152  0.0000  0.0000  0.0000  0.0000  0.0000  0.0000
  28.  S 2 (d5)     0.0297  0.2450  0.0000  0.0000  0.0000  0.0000  0.0000  0.0000
  29.  S 2 (d2)     0.0000  0.0000 -0.2362  0.0000  0.0000  0.0000  0.0000  0.0000
  30.  S 2 (d3)     0.0000  0.0000  0.0000 -0.2362  0.0000  0.0000  0.0000  0.0000
  31.  S 2 (d4)     0.0000  0.0000  0.0000  0.0000  0.0462  0.0000  0.0000  0.0000
  32.  S 2 (d1)     0.0000  0.0000  0.0000  0.0000  0.0000  0.0462  0.0000  0.0000

           AO         17      18      19      20      21      22      23      24
      ------------ ------- ------- ------- ------- ------- ------- ------- -------
   1.  C 1 (s)      0.0000  0.0000  0.0000  0.0209  0.0000  0.0000 -0.0485  0.0538
   2.  C 1 (s)      0.0000  0.0000 -0.0174  0.1829  0.0000  0.0000 -0.3045  0.3100
   3.  C 1 (px)     0.0053  0.0000  0.0000  0.0000  0.1090  0.0000  0.0000  0.0000
   4.  C 1 (py)     0.0000  0.0053  0.0000  0.0000  0.0000  0.1090  0.0000  0.0000
   5.  C 1 (pz)     0.0000  0.0000 -0.0354  0.2295  0.0000  0.0000 -0.3219  0.1861
   6.  C 1 (s)      0.0000  0.0000 -0.0326  0.3587  0.0000  0.0000 -0.3453  0.5412
   7.  C 1 (px)     0.0271  0.0000  0.0000  0.0000  0.2880  0.0000  0.0000  0.0000
   8.  C 1 (py)     0.0000  0.0271  0.0000  0.0000  0.0000  0.2880  0.0000  0.0000
   9.  C 1 (pz)     0.0000  0.0000 -0.0462  0.5669  0.0000  0.0000 -0.2864  0.5319
  10.  C 1 (d5)     0.0000  0.0000 -0.0450  0.1675  0.0000  0.0000 -0.2152  0.0587
  11.  C 1 (d2)     0.0094  0.0000  0.0000  0.0000  0.1453  0.0000  0.0000  0.0000
  12.  C 1 (d3)     0.0000  0.0094  0.0000  0.0000  0.0000  0.1453  0.0000  0.0000
  13.  C 1 (d4)     0.0000  0.0000  0.0000  0.0000  0.0000  0.0000  0.0000  0.0000
  14.  C 1 (d1)     0.0000  0.0000  0.0000  0.0000  0.0000  0.0000  0.0000  0.0000
  15.  S 2 (s)      0.0000  0.0000  0.0000  0.0102  0.0000  0.0000  0.0000  0.0323
  16.  S 2 (s)      0.0000  0.0000  0.0000  0.3228  0.0000  0.0000  0.0000  0.2491
  17.  S 2 (px)     1.0000  0.0000  0.0000  0.0000  0.3105  0.0000  0.0000  0.0000
  18.  S 2 (py)     0.0000  1.0000  0.0000  0.0000  0.0000  0.3105  0.0000  0.0000
  19.  S 2 (pz)     0.0000  0.0000  1.0000  0.0000  0.0000  0.0000  0.3105  0.0000
  20.  S 2 (s)      0.0000  0.0000  0.0000  1.0000  0.0000  0.0000  0.0000  0.8283
  21.  S 2 (px)     0.3105  0.0000  0.0000  0.0000  1.0000  0.0000  0.0000  0.0000
  22.  S 2 (py)     0.0000  0.3105  0.0000  0.0000  0.0000  1.0000  0.0000  0.0000
  23.  S 2 (pz)     0.0000  0.0000  0.3105  0.0000  0.0000  0.0000  1.0000  0.0000
  24.  S 2 (s)      0.0000  0.0000  0.0000  0.8283  0.0000  0.0000  0.0000  1.0000
  25.  S 2 (px)     0.0696  0.0000  0.0000  0.0000  0.6335  0.0000  0.0000  0.0000
  26.  S 2 (py)     0.0000  0.0696  0.0000  0.0000  0.0000  0.6335  0.0000  0.0000
  27.  S 2 (pz)     0.0000  0.0000  0.0696  0.0000  0.0000  0.0000  0.6335  0.0000
  28.  S 2 (d5)     0.0000  0.0000  0.0000  0.0000  0.0000  0.0000  0.0000  0.0000
  29.  S 2 (d2)     0.0000  0.0000  0.0000  0.0000  0.0000  0.0000  0.0000  0.0000
  30.  S 2 (d3)     0.0000  0.0000  0.0000  0.0000  0.0000  0.0000  0.0000  0.0000
  31.  S 2 (d4)     0.0000  0.0000  0.0000  0.0000  0.0000  0.0000  0.0000  0.0000
  32.  S 2 (d1)     0.0000  0.0000  0.0000  0.0000  0.0000  0.0000  0.0000  0.0000

           AO         25      26      27      28      29      30      31      32
      ------------ ------- ------- ------- ------- ------- ------- ------- -------
   1.  C 1 (s)      0.0000  0.0000 -0.1049  0.0335  0.0000  0.0000  0.0000  0.0000
   2.  C 1 (s)      0.0000  0.0000 -0.5033  0.2238  0.0000  0.0000  0.0000  0.0000
   3.  C 1 (px)     0.1862  0.0000  0.0000  0.0000 -0.1400  0.0000  0.0000  0.0000
   4.  C 1 (py)     0.0000  0.1862  0.0000  0.0000  0.0000 -0.1400  0.0000  0.0000
   5.  C 1 (pz)     0.0000  0.0000 -0.1244  0.2711  0.0000  0.0000  0.0000  0.0000
   6.  C 1 (s)      0.0000  0.0000 -0.6383  0.1262  0.0000  0.0000  0.0000  0.0000
   7.  C 1 (px)     0.5323  0.0000  0.0000  0.0000 -0.1824  0.0000  0.0000  0.0000
   8.  C 1 (py)     0.0000  0.5323  0.0000  0.0000  0.0000 -0.1824  0.0000  0.0000
   9.  C 1 (pz)     0.0000  0.0000 -0.0949  0.0297  0.0000  0.0000  0.0000  0.0000
  10.  C 1 (d5)     0.0000  0.0000  0.0152  0.2450  0.0000  0.0000  0.0000  0.0000
  11.  C 1 (d2)     0.1017  0.0000  0.0000  0.0000 -0.2362  0.0000  0.0000  0.0000
  12.  C 1 (d3)     0.0000  0.1017  0.0000  0.0000  0.0000 -0.2362  0.0000  0.0000
  13.  C 1 (d4)     0.0000  0.0000  0.0000  0.0000  0.0000  0.0000  0.0462  0.0000
  14.  C 1 (d1)     0.0000  0.0000  0.0000  0.0000  0.0000  0.0000  0.0000  0.0462
  15.  S 2 (s)      0.0000  0.0000  0.0000  0.0000  0.0000  0.0000  0.0000  0.0000
  16.  S 2 (s)      0.0000  0.0000  0.0000  0.0000  0.0000  0.0000  0.0000  0.0000
  17.  S 2 (px)     0.0696  0.0000  0.0000  0.0000  0.0000  0.0000  0.0000  0.0000
  18.  S 2 (py)     0.0000  0.0696  0.0000  0.0000  0.0000  0.0000  0.0000  0.0000
  19.  S 2 (pz)     0.0000  0.0000  0.0696  0.0000  0.0000  0.0000  0.0000  0.0000
  20.  S 2 (s)      0.0000  0.0000  0.0000  0.0000  0.0000  0.0000  0.0000  0.0000
  21.  S 2 (px)     0.6335  0.0000  0.0000  0.0000  0.0000  0.0000  0.0000  0.0000
  22.  S 2 (py)     0.0000  0.6335  0.0000  0.0000  0.0000  0.0000  0.0000  0.0000
  23.  S 2 (pz)     0.0000  0.0000  0.6335  0.0000  0.0000  0.0000  0.0000  0.0000
  24.  S 2 (s)      0.0000  0.0000  0.0000  0.0000  0.0000  0.0000  0.0000  0.0000
  25.  S 2 (px)     1.0000  0.0000  0.0000  0.0000  0.0000  0.0000  0.0000  0.0000
  26.  S 2 (py)     0.0000  1.0000  0.0000  0.0000  0.0000  0.0000  0.0000  0.0000
  27.  S 2 (pz)     0.0000  0.0000  1.0000  0.0000  0.0000  0.0000  0.0000  0.0000
  28.  S 2 (d5)     0.0000  0.0000  0.0000  1.0000  0.0000  0.0000  0.0000  0.0000
  29.  S 2 (d2)     0.0000  0.0000  0.0000  0.0000  1.0000  0.0000  0.0000  0.0000
  30.  S 2 (d3)     0.0000  0.0000  0.0000  0.0000  0.0000  1.0000  0.0000  0.0000
  31.  S 2 (d4)     0.0000  0.0000  0.0000  0.0000  0.0000  0.0000  1.0000  0.0000
  32.  S 2 (d1)     0.0000  0.0000  0.0000  0.0000  0.0000  0.0000  0.0000  1.0000


 AO bond-order matrix:

           AO          1       2       3       4       5       6       7       8
      ------------ ------- ------- ------- ------- ------- ------- ------- -------
   1.  C 1 (s)      2.0834 -0.1573  0.0000  0.0000  0.0496 -0.2584  0.0000  0.0000
   2.  C 1 (s)     -0.1573  0.4175  0.0000  0.0000 -0.0790  0.4860  0.0000  0.0000
   3.  C 1 (px)     0.0000  0.0000  0.1438  0.0000  0.0000  0.0000  0.0949  0.0000
   4.  C 1 (py)     0.0000  0.0000  0.0000  0.1438  0.0000  0.0000  0.0000  0.0949
   5.  C 1 (pz)     0.0496 -0.0790  0.0000  0.0000  0.5196 -0.2984  0.0000  0.0000
   6.  C 1 (s)     -0.2584  0.4860  0.0000  0.0000 -0.2984  0.6570  0.0000  0.0000
   7.  C 1 (px)     0.0000  0.0000  0.0949  0.0000  0.0000  0.0000  0.0626  0.0000
   8.  C 1 (py)     0.0000  0.0000  0.0000  0.0949  0.0000  0.0000  0.0000  0.0626
   9.  C 1 (pz)     0.0418 -0.0953  0.0000  0.0000  0.2697 -0.2105  0.0000  0.0000
  10.  C 1 (d5)    -0.0004  0.0057  0.0000  0.0000  0.0391 -0.0103  0.0000  0.0000
  11.  C 1 (d2)     0.0000  0.0000  0.0210  0.0000  0.0000  0.0000  0.0139  0.0000
  12.  C 1 (d3)     0.0000  0.0000  0.0000  0.0210  0.0000  0.0000  0.0000  0.0139
  13.  C 1 (d4)     0.0000  0.0000  0.0000  0.0000  0.0000  0.0000  0.0000  0.0000
  14.  C 1 (d1)     0.0000  0.0000  0.0000  0.0000  0.0000  0.0000  0.0000  0.0000
  15.  S 2 (s)     -0.0019  0.0032  0.0000  0.0000  0.0214 -0.0119  0.0000  0.0000
  16.  S 2 (s)      0.0099 -0.0154  0.0000  0.0000 -0.0882  0.0523  0.0000  0.0000
  17.  S 2 (px)     0.0000  0.0000 -0.1219  0.0000  0.0000  0.0000 -0.0790  0.0000
  18.  S 2 (py)     0.0000  0.0000  0.0000 -0.1219  0.0000  0.0000  0.0000 -0.0790
  19.  S 2 (pz)    -0.0327  0.0769  0.0000  0.0000  0.1826  0.0223  0.0000  0.0000
  20.  S 2 (s)     -0.0042 -0.0065  0.0000  0.0000  0.2099 -0.1589  0.0000  0.0000
  21.  S 2 (px)     0.0000  0.0000  0.3190  0.0000  0.0000  0.0000  0.2105  0.0000
  22.  S 2 (py)     0.0000  0.0000  0.0000  0.3190  0.0000  0.0000  0.0000  0.2105
  23.  S 2 (pz)     0.0761 -0.1721  0.0000  0.0000 -0.4626 -0.0230  0.0000  0.0000
  24.  S 2 (s)      0.0271 -0.0475  0.0000  0.0000 -0.1369 -0.0318  0.0000  0.0000
  25.  S 2 (px)     0.0000  0.0000  0.1653  0.0000  0.0000  0.0000  0.1091  0.0000
  26.  S 2 (py)     0.0000  0.0000  0.0000  0.1653  0.0000  0.0000  0.0000  0.1091
  27.  S 2 (pz)    -0.0015 -0.0140  0.0000  0.0000 -0.0788  0.0093  0.0000  0.0000
  28.  S 2 (d5)    -0.0182  0.0357  0.0000  0.0000  0.0493  0.0195  0.0000  0.0000
  29.  S 2 (d2)     0.0000  0.0000 -0.0294  0.0000  0.0000  0.0000 -0.0194  0.0000
  30.  S 2 (d3)     0.0000  0.0000  0.0000 -0.0294  0.0000  0.0000  0.0000 -0.0194
  31.  S 2 (d4)     0.0000  0.0000  0.0000  0.0000  0.0000  0.0000  0.0000  0.0000
  32.  S 2 (d1)     0.0000  0.0000  0.0000  0.0000  0.0000  0.0000  0.0000  0.0000

           AO          9      10      11      12      13      14      15      16
      ------------ ------- ------- ------- ------- ------- ------- ------- -------
   1.  C 1 (s)      0.0418 -0.0004  0.0000  0.0000  0.0000  0.0000 -0.0019  0.0099
   2.  C 1 (s)     -0.0953  0.0057  0.0000  0.0000  0.0000  0.0000  0.0032 -0.0154
   3.  C 1 (px)     0.0000  0.0000  0.0210  0.0000  0.0000  0.0000  0.0000  0.0000
   4.  C 1 (py)     0.0000  0.0000  0.0000  0.0210  0.0000  0.0000  0.0000  0.0000
   5.  C 1 (pz)     0.2697  0.0391  0.0000  0.0000  0.0000  0.0000  0.0214 -0.0882
   6.  C 1 (s)     -0.2105 -0.0103  0.0000  0.0000  0.0000  0.0000 -0.0119  0.0523
   7.  C 1 (px)     0.0000  0.0000  0.0139  0.0000  0.0000  0.0000  0.0000  0.0000
   8.  C 1 (py)     0.0000  0.0000  0.0000  0.0139  0.0000  0.0000  0.0000  0.0000
   9.  C 1 (pz)     0.1497  0.0184  0.0000  0.0000  0.0000  0.0000  0.0062 -0.0196
  10.  C 1 (d5)     0.0184  0.0033  0.0000  0.0000  0.0000  0.0000  0.0036 -0.0115
  11.  C 1 (d2)     0.0000  0.0000  0.0031  0.0000  0.0000  0.0000  0.0000  0.0000
  12.  C 1 (d3)     0.0000  0.0000  0.0000  0.0031  0.0000  0.0000  0.0000  0.0000
  13.  C 1 (d4)     0.0000  0.0000  0.0000  0.0000  0.0000  0.0000  0.0000  0.0000
  14.  C 1 (d1)     0.0000  0.0000  0.0000  0.0000  0.0000  0.0000  0.0000  0.0000
  15.  S 2 (s)      0.0062  0.0036  0.0000  0.0000  0.0000  0.0000  2.1573 -0.6104
  16.  S 2 (s)     -0.0196 -0.0115  0.0000  0.0000  0.0000  0.0000 -0.6104  2.3742
  17.  S 2 (px)     0.0000  0.0000 -0.0183  0.0000  0.0000  0.0000  0.0000  0.0000
  18.  S 2 (py)     0.0000  0.0000  0.0000 -0.0183  0.0000  0.0000  0.0000  0.0000
  19.  S 2 (pz)     0.0928  0.0153  0.0000  0.0000  0.0000  0.0000 -0.0055  0.0267
  20.  S 2 (s)      0.0565  0.0239  0.0000  0.0000  0.0000  0.0000  0.0920 -0.4724
  21.  S 2 (px)     0.0000  0.0000  0.0466  0.0000  0.0000  0.0000  0.0000  0.0000
  22.  S 2 (py)     0.0000  0.0000  0.0000  0.0466  0.0000  0.0000  0.0000  0.0000
  23.  S 2 (pz)    -0.2255 -0.0390  0.0000  0.0000  0.0000  0.0000  0.0175 -0.0825
  24.  S 2 (s)     -0.0883 -0.0083  0.0000  0.0000  0.0000  0.0000  0.0547 -0.2401
  25.  S 2 (px)     0.0000  0.0000  0.0242  0.0000  0.0000  0.0000  0.0000  0.0000
  26.  S 2 (py)     0.0000  0.0000  0.0000  0.0242  0.0000  0.0000  0.0000  0.0000
  27.  S 2 (pz)    -0.0432 -0.0058  0.0000  0.0000  0.0000  0.0000  0.0084 -0.0402
  28.  S 2 (d5)     0.0203  0.0049  0.0000  0.0000  0.0000  0.0000  0.0005 -0.0048
  29.  S 2 (d2)     0.0000  0.0000 -0.0043  0.0000  0.0000  0.0000  0.0000  0.0000
  30.  S 2 (d3)     0.0000  0.0000  0.0000 -0.0043  0.0000  0.0000  0.0000  0.0000
  31.  S 2 (d4)     0.0000  0.0000  0.0000  0.0000  0.0000  0.0000  0.0000  0.0000
  32.  S 2 (d1)     0.0000  0.0000  0.0000  0.0000  0.0000  0.0000  0.0000  0.0000

           AO         17      18      19      20      21      22      23      24
      ------------ ------- ------- ------- ------- ------- ------- ------- -------
   1.  C 1 (s)      0.0000  0.0000 -0.0327 -0.0042  0.0000  0.0000  0.0761  0.0271
   2.  C 1 (s)      0.0000  0.0000  0.0769 -0.0065  0.0000  0.0000 -0.1721 -0.0475
   3.  C 1 (px)    -0.1219  0.0000  0.0000  0.0000  0.3190  0.0000  0.0000  0.0000
   4.  C 1 (py)     0.0000 -0.1219  0.0000  0.0000  0.0000  0.3190  0.0000  0.0000
   5.  C 1 (pz)     0.0000  0.0000  0.1826  0.2099  0.0000  0.0000 -0.4626 -0.1369
   6.  C 1 (s)      0.0000  0.0000  0.0223 -0.1589  0.0000  0.0000 -0.0230 -0.0318
   7.  C 1 (px)    -0.0790  0.0000  0.0000  0.0000  0.2105  0.0000  0.0000  0.0000
   8.  C 1 (py)     0.0000 -0.0790  0.0000  0.0000  0.0000  0.2105  0.0000  0.0000
   9.  C 1 (pz)     0.0000  0.0000  0.0928  0.0565  0.0000  0.0000 -0.2255 -0.0883
  10.  C 1 (d5)     0.0000  0.0000  0.0153  0.0239  0.0000  0.0000 -0.0390 -0.0083
  11.  C 1 (d2)    -0.0183  0.0000  0.0000  0.0000  0.0466  0.0000  0.0000  0.0000
  12.  C 1 (d3)     0.0000 -0.0183  0.0000  0.0000  0.0000  0.0466  0.0000  0.0000
  13.  C 1 (d4)     0.0000  0.0000  0.0000  0.0000  0.0000  0.0000  0.0000  0.0000
  14.  C 1 (d1)     0.0000  0.0000  0.0000  0.0000  0.0000  0.0000  0.0000  0.0000
  15.  S 2 (s)      0.0000  0.0000 -0.0055  0.0920  0.0000  0.0000  0.0175  0.0547
  16.  S 2 (s)      0.0000  0.0000  0.0267 -0.4724  0.0000  0.0000 -0.0825 -0.2401
  17.  S 2 (px)     2.0761  0.0000  0.0000  0.0000 -0.2257  0.0000  0.0000  0.0000
  18.  S 2 (py)     0.0000  2.0761  0.0000  0.0000  0.0000 -0.2257  0.0000  0.0000
  19.  S 2 (pz)     0.0000  0.0000  2.0805 -0.0531  0.0000  0.0000 -0.2262 -0.1402
  20.  S 2 (s)      0.0000  0.0000 -0.0531  1.0687  0.0000  0.0000  0.1574  0.4679
  21.  S 2 (px)    -0.2257  0.0000  0.0000  0.0000  0.7086  0.0000  0.0000  0.0000
  22.  S 2 (py)     0.0000 -0.2257  0.0000  0.0000  0.0000  0.7086  0.0000  0.0000
  23.  S 2 (pz)     0.0000  0.0000 -0.2262  0.1574  0.0000  0.0000  0.6903  0.3564
  24.  S 2 (s)      0.0000  0.0000 -0.1402  0.4679  0.0000  0.0000  0.3564  0.3317
  25.  S 2 (px)    -0.1502  0.0000  0.0000  0.0000  0.3665  0.0000  0.0000  0.0000
  26.  S 2 (py)     0.0000 -0.1502  0.0000  0.0000  0.0000  0.3665  0.0000  0.0000
  27.  S 2 (pz)     0.0000  0.0000 -0.0577  0.0816  0.0000  0.0000  0.1277  0.0870
  28.  S 2 (d5)     0.0000  0.0000  0.0279  0.0118  0.0000  0.0000 -0.0738 -0.0262
  29.  S 2 (d2)     0.0247  0.0000  0.0000  0.0000 -0.0652  0.0000  0.0000  0.0000
  30.  S 2 (d3)     0.0000  0.0247  0.0000  0.0000  0.0000 -0.0652  0.0000  0.0000
  31.  S 2 (d4)     0.0000  0.0000  0.0000  0.0000  0.0000  0.0000  0.0000  0.0000
  32.  S 2 (d1)     0.0000  0.0000  0.0000  0.0000  0.0000  0.0000  0.0000  0.0000

           AO         25      26      27      28      29      30      31      32
      ------------ ------- ------- ------- ------- ------- ------- ------- -------
   1.  C 1 (s)      0.0000  0.0000 -0.0015 -0.0182  0.0000  0.0000  0.0000  0.0000
   2.  C 1 (s)      0.0000  0.0000 -0.0140  0.0357  0.0000  0.0000  0.0000  0.0000
   3.  C 1 (px)     0.1653  0.0000  0.0000  0.0000 -0.0294  0.0000  0.0000  0.0000
   4.  C 1 (py)     0.0000  0.1653  0.0000  0.0000  0.0000 -0.0294  0.0000  0.0000
   5.  C 1 (pz)     0.0000  0.0000 -0.0788  0.0493  0.0000  0.0000  0.0000  0.0000
   6.  C 1 (s)      0.0000  0.0000  0.0093  0.0195  0.0000  0.0000  0.0000  0.0000
   7.  C 1 (px)     0.1091  0.0000  0.0000  0.0000 -0.0194  0.0000  0.0000  0.0000
   8.  C 1 (py)     0.0000  0.1091  0.0000  0.0000  0.0000 -0.0194  0.0000  0.0000
   9.  C 1 (pz)     0.0000  0.0000 -0.0432  0.0203  0.0000  0.0000  0.0000  0.0000
  10.  C 1 (d5)     0.0000  0.0000 -0.0058  0.0049  0.0000  0.0000  0.0000  0.0000
  11.  C 1 (d2)     0.0242  0.0000  0.0000  0.0000 -0.0043  0.0000  0.0000  0.0000
  12.  C 1 (d3)     0.0000  0.0242  0.0000  0.0000  0.0000 -0.0043  0.0000  0.0000
  13.  C 1 (d4)     0.0000  0.0000  0.0000  0.0000  0.0000  0.0000  0.0000  0.0000
  14.  C 1 (d1)     0.0000  0.0000  0.0000  0.0000  0.0000  0.0000  0.0000  0.0000
  15.  S 2 (s)      0.0000  0.0000  0.0084  0.0005  0.0000  0.0000  0.0000  0.0000
  16.  S 2 (s)      0.0000  0.0000 -0.0402 -0.0048  0.0000  0.0000  0.0000  0.0000
  17.  S 2 (px)    -0.1502  0.0000  0.0000  0.0000  0.0247  0.0000  0.0000  0.0000
  18.  S 2 (py)     0.0000 -0.1502  0.0000  0.0000  0.0000  0.0247  0.0000  0.0000
  19.  S 2 (pz)     0.0000  0.0000 -0.0577  0.0279  0.0000  0.0000  0.0000  0.0000
  20.  S 2 (s)      0.0000  0.0000  0.0816  0.0118  0.0000  0.0000  0.0000  0.0000
  21.  S 2 (px)     0.3665  0.0000  0.0000  0.0000 -0.0652  0.0000  0.0000  0.0000
  22.  S 2 (py)     0.0000  0.3665  0.0000  0.0000  0.0000 -0.0652  0.0000  0.0000
  23.  S 2 (pz)     0.0000  0.0000  0.1277 -0.0738  0.0000  0.0000  0.0000  0.0000
  24.  S 2 (s)      0.0000  0.0000  0.0870 -0.0262  0.0000  0.0000  0.0000  0.0000
  25.  S 2 (px)     0.1901  0.0000  0.0000  0.0000 -0.0338  0.0000  0.0000  0.0000
  26.  S 2 (py)     0.0000  0.1901  0.0000  0.0000  0.0000 -0.0338  0.0000  0.0000
  27.  S 2 (pz)     0.0000  0.0000  0.0271 -0.0115  0.0000  0.0000  0.0000  0.0000
  28.  S 2 (d5)     0.0000  0.0000 -0.0115  0.0094  0.0000  0.0000  0.0000  0.0000
  29.  S 2 (d2)    -0.0338  0.0000  0.0000  0.0000  0.0060  0.0000  0.0000  0.0000
  30.  S 2 (d3)     0.0000 -0.0338  0.0000  0.0000  0.0000  0.0060  0.0000  0.0000
  31.  S 2 (d4)     0.0000  0.0000  0.0000  0.0000  0.0000  0.0000  0.0000  0.0000
  32.  S 2 (d1)     0.0000  0.0000  0.0000  0.0000  0.0000  0.0000  0.0000  0.0000


 AO density matrix:

           AO          1       2       3       4       5       6       7       8
      ------------ ------- ------- ------- ------- ------- ------- ------- -------
   1.  C 1 (s)      1.9998  0.4444  0.0000  0.0000  0.0028  0.3652  0.0000  0.0000
   2.  C 1 (s)      0.4444  1.7299  0.0000  0.0000 -0.0920  1.7615  0.0000  0.0000
   3.  C 1 (px)     0.0000  0.0000  0.4954  0.0000  0.0000  0.0000  0.6662  0.0000
   4.  C 1 (py)     0.0000  0.0000  0.0000  0.4954  0.0000  0.0000  0.0000  0.6662
   5.  C 1 (pz)     0.0028 -0.0920  0.0000  0.0000  1.4540 -0.0850  0.0000  0.0000
   6.  C 1 (s)      0.3652  1.7615  0.0000  0.0000 -0.0850  1.8586  0.0000  0.0000
   7.  C 1 (px)     0.0000  0.0000  0.6662  0.0000  0.0000  0.0000  0.8969  0.0000
   8.  C 1 (py)     0.0000  0.0000  0.0000  0.6662  0.0000  0.0000  0.0000  0.8969
   9.  C 1 (pz)     0.0014 -0.1286  0.0000  0.0000  1.3135  0.0056  0.0000  0.0000
  10.  C 1 (d5)    -0.0004  0.1110  0.0000  0.0000  0.3061  0.1387  0.0000  0.0000
  11.  C 1 (d2)     0.0000  0.0000  0.1672  0.0000  0.0000  0.0000  0.2252  0.0000
  12.  C 1 (d3)     0.0000  0.0000  0.0000  0.1672  0.0000  0.0000  0.0000  0.2252
  13.  C 1 (d4)     0.0000  0.0000  0.0000  0.0000  0.0000  0.0000  0.0000  0.0000
  14.  C 1 (d1)     0.0000  0.0000  0.0000  0.0000  0.0000  0.0000  0.0000  0.0000
  15.  S 2 (s)      0.0000  0.0026  0.0000  0.0000  0.0073  0.0205  0.0000  0.0000
  16.  S 2 (s)      0.0000  0.0311  0.0000  0.0000  0.0707  0.1646  0.0000  0.0000
  17.  S 2 (px)     0.0000  0.0000 -0.0001  0.0000  0.0000  0.0000  0.0435  0.0000
  18.  S 2 (py)     0.0000  0.0000  0.0000 -0.0001  0.0000  0.0000  0.0000  0.0435
  19.  S 2 (pz)    -0.0001 -0.0310  0.0000  0.0000 -0.0634 -0.0643  0.0000  0.0000
  20.  S 2 (s)      0.0405  0.4205  0.0000  0.0000  0.6077  0.7379  0.0000  0.0000
  21.  S 2 (px)     0.0000  0.0000  0.8063  0.0000  0.0000  0.0000  1.0981  0.0000
  22.  S 2 (py)     0.0000  0.0000  0.0000  0.8063  0.0000  0.0000  0.0000  1.0981
  23.  S 2 (pz)    -0.0927 -0.7909  0.0000  0.0000 -0.9865 -0.6851  0.0000  0.0000
  24.  S 2 (s)      0.1060  0.6866  0.0000  0.0000  0.3560  0.9864  0.0000  0.0000
  25.  S 2 (px)     0.0000  0.0000  0.8146  0.0000  0.0000  0.0000  1.0984  0.0000
  26.  S 2 (py)     0.0000  0.0000  0.0000  0.8146  0.0000  0.0000  0.0000  1.0984
  27.  S 2 (pz)    -0.2051 -1.2024  0.0000  0.0000 -0.3962 -1.1124  0.0000  0.0000
  28.  S 2 (d5)     0.0690  0.3402  0.0000  0.0000  0.2744  0.3304  0.0000  0.0000
  29.  S 2 (d2)     0.0000  0.0000 -0.1332  0.0000  0.0000  0.0000 -0.1790  0.0000
  30.  S 2 (d3)     0.0000  0.0000  0.0000 -0.1332  0.0000  0.0000  0.0000 -0.1790
  31.  S 2 (d4)     0.0000  0.0000  0.0000  0.0000  0.0000  0.0000  0.0000  0.0000
  32.  S 2 (d1)     0.0000  0.0000  0.0000  0.0000  0.0000  0.0000  0.0000  0.0000

           AO          9      10      11      12      13      14      15      16
      ------------ ------- ------- ------- ------- ------- ------- ------- -------
   1.  C 1 (s)      0.0014 -0.0004  0.0000  0.0000  0.0000  0.0000  0.0000  0.0000
   2.  C 1 (s)     -0.1286  0.1110  0.0000  0.0000  0.0000  0.0000  0.0026  0.0311
   3.  C 1 (px)     0.0000  0.0000  0.1672  0.0000  0.0000  0.0000  0.0000  0.0000
   4.  C 1 (py)     0.0000  0.0000  0.0000  0.1672  0.0000  0.0000  0.0000  0.0000
   5.  C 1 (pz)     1.3135  0.3061  0.0000  0.0000  0.0000  0.0000  0.0073  0.0707
   6.  C 1 (s)      0.0056  0.1387  0.0000  0.0000  0.0000  0.0000  0.0205  0.1646
   7.  C 1 (px)     0.0000  0.0000  0.2252  0.0000  0.0000  0.0000  0.0000  0.0000
   8.  C 1 (py)     0.0000  0.0000  0.0000  0.2252  0.0000  0.0000  0.0000  0.0000
   9.  C 1 (pz)     1.4633  0.3189  0.0000  0.0000  0.0000  0.0000  0.0489  0.3693
  10.  C 1 (d5)     0.3189  0.0856  0.0000  0.0000  0.0000  0.0000  0.0050  0.0786
  11.  C 1 (d2)     0.0000  0.0000  0.0566  0.0000  0.0000  0.0000  0.0000  0.0000
  12.  C 1 (d3)     0.0000  0.0000  0.0000  0.0566  0.0000  0.0000  0.0000  0.0000
  13.  C 1 (d4)     0.0000  0.0000  0.0000  0.0000  0.0000  0.0000  0.0000  0.0000
  14.  C 1 (d1)     0.0000  0.0000  0.0000  0.0000  0.0000  0.0000  0.0000  0.0000
  15.  S 2 (s)      0.0489  0.0050  0.0000  0.0000  0.0000  0.0000  2.0000  0.5255
  16.  S 2 (s)      0.3693  0.0786  0.0000  0.0000  0.0000  0.0000  0.5255  1.9999
  17.  S 2 (px)     0.0000  0.0000  0.0188  0.0000  0.0000  0.0000  0.0000  0.0000
  18.  S 2 (py)     0.0000  0.0000  0.0000  0.0188  0.0000  0.0000  0.0000  0.0000
  19.  S 2 (pz)    -0.0903 -0.0968  0.0000  0.0000  0.0000  0.0000  0.0000  0.0000
  20.  S 2 (s)      1.1815  0.2670  0.0000  0.0000  0.0000  0.0000  0.0198  0.6480
  21.  S 2 (px)     0.0000  0.0000  0.2780  0.0000  0.0000  0.0000  0.0000  0.0000
  22.  S 2 (py)     0.0000  0.0000  0.0000  0.2780  0.0000  0.0000  0.0000  0.0000
  23.  S 2 (pz)    -0.5791 -0.2510  0.0000  0.0000  0.0000  0.0000  0.0003 -0.0014
  24.  S 2 (s)      0.9011  0.2247  0.0000  0.0000  0.0000  0.0000  0.0655  0.4948
  25.  S 2 (px)     0.0000  0.0000  0.2761  0.0000  0.0000  0.0000  0.0000  0.0000
  26.  S 2 (py)     0.0000  0.0000  0.0000  0.2761  0.0000  0.0000  0.0000  0.0000
  27.  S 2 (pz)    -0.0705 -0.1423  0.0000  0.0000  0.0000  0.0000  0.0005 -0.0021
  28.  S 2 (d5)     0.1986  0.0780  0.0000  0.0000  0.0000  0.0000  0.0002 -0.0010
  29.  S 2 (d2)     0.0000  0.0000 -0.0449  0.0000  0.0000  0.0000  0.0000  0.0000
  30.  S 2 (d3)     0.0000  0.0000  0.0000 -0.0449  0.0000  0.0000  0.0000  0.0000
  31.  S 2 (d4)     0.0000  0.0000  0.0000  0.0000  0.0000  0.0000  0.0000  0.0000
  32.  S 2 (d1)     0.0000  0.0000  0.0000  0.0000  0.0000  0.0000  0.0000  0.0000

           AO         17      18      19      20      21      22      23      24
      ------------ ------- ------- ------- ------- ------- ------- ------- -------
   1.  C 1 (s)      0.0000  0.0000 -0.0001  0.0405  0.0000  0.0000 -0.0927  0.1060
   2.  C 1 (s)      0.0000  0.0000 -0.0310  0.4205  0.0000  0.0000 -0.7909  0.6866
   3.  C 1 (px)    -0.0001  0.0000  0.0000  0.0000  0.8063  0.0000  0.0000  0.0000
   4.  C 1 (py)     0.0000 -0.0001  0.0000  0.0000  0.0000  0.8063  0.0000  0.0000
   5.  C 1 (pz)     0.0000  0.0000 -0.0634  0.6077  0.0000  0.0000 -0.9865  0.3560
   6.  C 1 (s)      0.0000  0.0000 -0.0643  0.7379  0.0000  0.0000 -0.6851  0.9864
   7.  C 1 (px)     0.0435  0.0000  0.0000  0.0000  1.0981  0.0000  0.0000  0.0000
   8.  C 1 (py)     0.0000  0.0435  0.0000  0.0000  0.0000  1.0981  0.0000  0.0000
   9.  C 1 (pz)     0.0000  0.0000 -0.0903  1.1815  0.0000  0.0000 -0.5791  0.9011
  10.  C 1 (d5)     0.0000  0.0000 -0.0968  0.2670  0.0000  0.0000 -0.2510  0.2247
  11.  C 1 (d2)     0.0188  0.0000  0.0000  0.0000  0.2780  0.0000  0.0000  0.0000
  12.  C 1 (d3)     0.0000  0.0188  0.0000  0.0000  0.0000  0.2780  0.0000  0.0000
  13.  C 1 (d4)     0.0000  0.0000  0.0000  0.0000  0.0000  0.0000  0.0000  0.0000
  14.  C 1 (d1)     0.0000  0.0000  0.0000  0.0000  0.0000  0.0000  0.0000  0.0000
  15.  S 2 (s)      0.0000  0.0000  0.0000  0.0198  0.0000  0.0000  0.0003  0.0655
  16.  S 2 (s)      0.0000  0.0000  0.0000  0.6480  0.0000  0.0000 -0.0014  0.4948
  17.  S 2 (px)     1.9997  0.0000  0.0000  0.0000  0.6322  0.0000  0.0000  0.0000
  18.  S 2 (py)     0.0000  1.9997  0.0000  0.0000  0.0000  0.6322  0.0000  0.0000
  19.  S 2 (pz)     0.0000  0.0000  1.9998 -0.0015  0.0000  0.0000  0.6296 -0.0020
  20.  S 2 (s)      0.0000  0.0000 -0.0015  1.9055  0.0000  0.0000  0.0833  1.7615
  21.  S 2 (px)     0.6322  0.0000  0.0000  0.0000  1.5123  0.0000  0.0000  0.0000
  22.  S 2 (py)     0.0000  0.6322  0.0000  0.0000  0.0000  1.5123  0.0000  0.0000
  23.  S 2 (pz)     0.0000  0.0000  0.6296  0.0833  0.0000  0.0000  1.6312  0.0949
  24.  S 2 (s)      0.0000  0.0000 -0.0020  1.7615  0.0000  0.0000  0.0949  1.7142
  25.  S 2 (px)     0.1336  0.0000  0.0000  0.0000  1.3682  0.0000  0.0000  0.0000
  26.  S 2 (py)     0.0000  0.1336  0.0000  0.0000  0.0000  1.3682  0.0000  0.0000
  27.  S 2 (pz)     0.0000  0.0000  0.1362  0.1214  0.0000  0.0000  1.2290 -0.0164
  28.  S 2 (d5)     0.0000  0.0000  0.0060  0.1177  0.0000  0.0000 -0.4038  0.1273
  29.  S 2 (d2)     0.0036  0.0000  0.0000  0.0000 -0.2157  0.0000  0.0000  0.0000
  30.  S 2 (d3)     0.0000  0.0036  0.0000  0.0000  0.0000 -0.2157  0.0000  0.0000
  31.  S 2 (d4)     0.0000  0.0000  0.0000  0.0000  0.0000  0.0000  0.0000  0.0000
  32.  S 2 (d1)     0.0000  0.0000  0.0000  0.0000  0.0000  0.0000  0.0000  0.0000

           AO         25      26      27      28      29      30      31      32
      ------------ ------- ------- ------- ------- ------- ------- ------- -------
   1.  C 1 (s)      0.0000  0.0000 -0.2051  0.0690  0.0000  0.0000  0.0000  0.0000
   2.  C 1 (s)      0.0000  0.0000 -1.2024  0.3402  0.0000  0.0000  0.0000  0.0000
   3.  C 1 (px)     0.8146  0.0000  0.0000  0.0000 -0.1332  0.0000  0.0000  0.0000
   4.  C 1 (py)     0.0000  0.8146  0.0000  0.0000  0.0000 -0.1332  0.0000  0.0000
   5.  C 1 (pz)     0.0000  0.0000 -0.3962  0.2744  0.0000  0.0000  0.0000  0.0000
   6.  C 1 (s)      0.0000  0.0000 -1.1124  0.3304  0.0000  0.0000  0.0000  0.0000
   7.  C 1 (px)     1.0984  0.0000  0.0000  0.0000 -0.1790  0.0000  0.0000  0.0000
   8.  C 1 (py)     0.0000  1.0984  0.0000  0.0000  0.0000 -0.1790  0.0000  0.0000
   9.  C 1 (pz)     0.0000  0.0000 -0.0705  0.1986  0.0000  0.0000  0.0000  0.0000
  10.  C 1 (d5)     0.0000  0.0000 -0.1423  0.0780  0.0000  0.0000  0.0000  0.0000
  11.  C 1 (d2)     0.2761  0.0000  0.0000  0.0000 -0.0449  0.0000  0.0000  0.0000
  12.  C 1 (d3)     0.0000  0.2761  0.0000  0.0000  0.0000 -0.0449  0.0000  0.0000
  13.  C 1 (d4)     0.0000  0.0000  0.0000  0.0000  0.0000  0.0000  0.0000  0.0000
  14.  C 1 (d1)     0.0000  0.0000  0.0000  0.0000  0.0000  0.0000  0.0000  0.0000
  15.  S 2 (s)      0.0000  0.0000  0.0005  0.0002  0.0000  0.0000  0.0000  0.0000
  16.  S 2 (s)      0.0000  0.0000 -0.0021 -0.0010  0.0000  0.0000  0.0000  0.0000
  17.  S 2 (px)     0.1336  0.0000  0.0000  0.0000  0.0036  0.0000  0.0000  0.0000
  18.  S 2 (py)     0.0000  0.1336  0.0000  0.0000  0.0000  0.0036  0.0000  0.0000
  19.  S 2 (pz)     0.0000  0.0000  0.1362  0.0060  0.0000  0.0000  0.0000  0.0000
  20.  S 2 (s)      0.0000  0.0000  0.1214  0.1177  0.0000  0.0000  0.0000  0.0000
  21.  S 2 (px)     1.3682  0.0000  0.0000  0.0000 -0.2157  0.0000  0.0000  0.0000
  22.  S 2 (py)     0.0000  1.3682  0.0000  0.0000  0.0000 -0.2157  0.0000  0.0000
  23.  S 2 (pz)     0.0000  0.0000  1.2290 -0.4038  0.0000  0.0000  0.0000  0.0000
  24.  S 2 (s)      0.0000  0.0000 -0.0164  0.1273  0.0000  0.0000  0.0000  0.0000
  25.  S 2 (px)     1.3485  0.0000  0.0000  0.0000 -0.2188  0.0000  0.0000  0.0000
  26.  S 2 (py)     0.0000  1.3485  0.0000  0.0000  0.0000 -0.2188  0.0000  0.0000
  27.  S 2 (pz)     0.0000  0.0000  1.2678 -0.3694  0.0000  0.0000  0.0000  0.0000
  28.  S 2 (d5)     0.0000  0.0000 -0.3694  0.1325  0.0000  0.0000  0.0000  0.0000
  29.  S 2 (d2)    -0.2188  0.0000  0.0000  0.0000  0.0358  0.0000  0.0000  0.0000
  30.  S 2 (d3)     0.0000 -0.2188  0.0000  0.0000  0.0000  0.0358  0.0000  0.0000
  31.  S 2 (d4)     0.0000  0.0000  0.0000  0.0000  0.0000  0.0000  0.0000  0.0000
  32.  S 2 (d1)     0.0000  0.0000  0.0000  0.0000  0.0000  0.0000  0.0000  0.0000


 MO density matrix:

      MO     1       2       3       4       5       6       7       8       9
     ---- ------  ------  ------  ------  ------  ------  ------  ------  ------
   1.     2.0000  0.0000  0.0000  0.0000  0.0000  0.0000  0.0000  0.0000  0.0000
   2.     0.0000  2.0000  0.0000  0.0000  0.0000  0.0000  0.0000  0.0000  0.0000
   3.     0.0000  0.0000  2.0000  0.0000  0.0000  0.0000  0.0000  0.0000  0.0000
   4.     0.0000  0.0000  0.0000  2.0000  0.0000  0.0000  0.0000  0.0000  0.0000
   5.     0.0000  0.0000  0.0000  0.0000  2.0000  0.0000  0.0000  0.0000  0.0000
   6.     0.0000  0.0000  0.0000  0.0000  0.0000  2.0000  0.0000  0.0000  0.0000
   7.     0.0000  0.0000  0.0000  0.0000  0.0000  0.0000  2.0000  0.0000  0.0000
   8.     0.0000  0.0000  0.0000  0.0000  0.0000  0.0000  0.0000  2.0000  0.0000
   9.     0.0000  0.0000  0.0000  0.0000  0.0000  0.0000  0.0000  0.0000  2.0000
  10.     0.0000  0.0000  0.0000  0.0000  0.0000  0.0000  0.0000  0.0000  0.0000
  11.     0.0000  0.0000  0.0000  0.0000  0.0000  0.0000  0.0000  0.0000  0.0000
  12.     0.0000  0.0000  0.0000  0.0000  0.0000  0.0000  0.0000  0.0000  0.0000
  13.     0.0000  0.0000  0.0000  0.0000  0.0000  0.0000  0.0000  0.0000  0.0000
  14.     0.0000  0.0000  0.0000  0.0000  0.0000  0.0000  0.0000  0.0000  0.0000
  15.     0.0000  0.0000  0.0000  0.0000  0.0000  0.0000  0.0000  0.0000  0.0000
  16.     0.0000  0.0000  0.0000  0.0000  0.0000  0.0000  0.0000  0.0000  0.0000
  17.     0.0000  0.0000  0.0000  0.0000  0.0000  0.0000  0.0000  0.0000  0.0000
  18.     0.0000  0.0000  0.0000  0.0000  0.0000  0.0000  0.0000  0.0000  0.0000
  19.     0.0000  0.0000  0.0000  0.0000  0.0000  0.0000  0.0000  0.0000  0.0000
  20.     0.0000  0.0000  0.0000  0.0000  0.0000  0.0000  0.0000  0.0000  0.0000
  21.     0.0000  0.0000  0.0000  0.0000  0.0000  0.0000  0.0000  0.0000  0.0000
  22.     0.0000  0.0000  0.0000  0.0000  0.0000  0.0000  0.0000  0.0000  0.0000
  23.     0.0000  0.0000  0.0000  0.0000  0.0000  0.0000  0.0000  0.0000  0.0000
  24.     0.0000  0.0000  0.0000  0.0000  0.0000  0.0000  0.0000  0.0000  0.0000
  25.     0.0000  0.0000  0.0000  0.0000  0.0000  0.0000  0.0000  0.0000  0.0000
  26.     0.0000  0.0000  0.0000  0.0000  0.0000  0.0000  0.0000  0.0000  0.0000
  27.     0.0000  0.0000  0.0000  0.0000  0.0000  0.0000  0.0000  0.0000  0.0000
  28.     0.0000  0.0000  0.0000  0.0000  0.0000  0.0000  0.0000  0.0000  0.0000
  29.     0.0000  0.0000  0.0000  0.0000  0.0000  0.0000  0.0000  0.0000  0.0000
  30.     0.0000  0.0000  0.0000  0.0000  0.0000  0.0000  0.0000  0.0000  0.0000
  31.     0.0000  0.0000  0.0000  0.0000  0.0000  0.0000  0.0000  0.0000  0.0000
  32.     0.0000  0.0000  0.0000  0.0000  0.0000  0.0000  0.0000  0.0000  0.0000

      MO    10      11      12      13      14      15      16      17      18
     ---- ------  ------  ------  ------  ------  ------  ------  ------  ------
   1.     0.0000  0.0000  0.0000  0.0000  0.0000  0.0000  0.0000  0.0000  0.0000
   2.     0.0000  0.0000  0.0000  0.0000  0.0000  0.0000  0.0000  0.0000  0.0000
   3.     0.0000  0.0000  0.0000  0.0000  0.0000  0.0000  0.0000  0.0000  0.0000
   4.     0.0000  0.0000  0.0000  0.0000  0.0000  0.0000  0.0000  0.0000  0.0000
   5.     0.0000  0.0000  0.0000  0.0000  0.0000  0.0000  0.0000  0.0000  0.0000
   6.     0.0000  0.0000  0.0000  0.0000  0.0000  0.0000  0.0000  0.0000  0.0000
   7.     0.0000  0.0000  0.0000  0.0000  0.0000  0.0000  0.0000  0.0000  0.0000
   8.     0.0000  0.0000  0.0000  0.0000  0.0000  0.0000  0.0000  0.0000  0.0000
   9.     0.0000  0.0000  0.0000  0.0000  0.0000  0.0000  0.0000  0.0000  0.0000
  10.     2.0000  0.0000  0.0000  0.0000  0.0000  0.0000  0.0000  0.0000  0.0000
  11.     0.0000  2.0000  0.0000  0.0000  0.0000  0.0000  0.0000  0.0000  0.0000
  12.     0.0000  0.0000  0.0000  0.0000  0.0000  0.0000  0.0000  0.0000  0.0000
  13.     0.0000  0.0000  0.0000  0.0000  0.0000  0.0000  0.0000  0.0000  0.0000
  14.     0.0000  0.0000  0.0000  0.0000  0.0000  0.0000  0.0000  0.0000  0.0000
  15.     0.0000  0.0000  0.0000  0.0000  0.0000  0.0000  0.0000  0.0000  0.0000
  16.     0.0000  0.0000  0.0000  0.0000  0.0000  0.0000  0.0000  0.0000  0.0000
  17.     0.0000  0.0000  0.0000  0.0000  0.0000  0.0000  0.0000  0.0000  0.0000
  18.     0.0000  0.0000  0.0000  0.0000  0.0000  0.0000  0.0000  0.0000  0.0000
  19.     0.0000  0.0000  0.0000  0.0000  0.0000  0.0000  0.0000  0.0000  0.0000
  20.     0.0000  0.0000  0.0000  0.0000  0.0000  0.0000  0.0000  0.0000  0.0000
  21.     0.0000  0.0000  0.0000  0.0000  0.0000  0.0000  0.0000  0.0000  0.0000
  22.     0.0000  0.0000  0.0000  0.0000  0.0000  0.0000  0.0000  0.0000  0.0000
  23.     0.0000  0.0000  0.0000  0.0000  0.0000  0.0000  0.0000  0.0000  0.0000
  24.     0.0000  0.0000  0.0000  0.0000  0.0000  0.0000  0.0000  0.0000  0.0000
  25.     0.0000  0.0000  0.0000  0.0000  0.0000  0.0000  0.0000  0.0000  0.0000
  26.     0.0000  0.0000  0.0000  0.0000  0.0000  0.0000  0.0000  0.0000  0.0000
  27.     0.0000  0.0000  0.0000  0.0000  0.0000  0.0000  0.0000  0.0000  0.0000
  28.     0.0000  0.0000  0.0000  0.0000  0.0000  0.0000  0.0000  0.0000  0.0000
  29.     0.0000  0.0000  0.0000  0.0000  0.0000  0.0000  0.0000  0.0000  0.0000
  30.     0.0000  0.0000  0.0000  0.0000  0.0000  0.0000  0.0000  0.0000  0.0000
  31.     0.0000  0.0000  0.0000  0.0000  0.0000  0.0000  0.0000  0.0000  0.0000
  32.     0.0000  0.0000  0.0000  0.0000  0.0000  0.0000  0.0000  0.0000  0.0000

      MO    19      20      21      22      23      24      25      26      27
     ---- ------  ------  ------  ------  ------  ------  ------  ------  ------
   1.     0.0000  0.0000  0.0000  0.0000  0.0000  0.0000  0.0000  0.0000  0.0000
   2.     0.0000  0.0000  0.0000  0.0000  0.0000  0.0000  0.0000  0.0000  0.0000
   3.     0.0000  0.0000  0.0000  0.0000  0.0000  0.0000  0.0000  0.0000  0.0000
   4.     0.0000  0.0000  0.0000  0.0000  0.0000  0.0000  0.0000  0.0000  0.0000
   5.     0.0000  0.0000  0.0000  0.0000  0.0000  0.0000  0.0000  0.0000  0.0000
   6.     0.0000  0.0000  0.0000  0.0000  0.0000  0.0000  0.0000  0.0000  0.0000
   7.     0.0000  0.0000  0.0000  0.0000  0.0000  0.0000  0.0000  0.0000  0.0000
   8.     0.0000  0.0000  0.0000  0.0000  0.0000  0.0000  0.0000  0.0000  0.0000
   9.     0.0000  0.0000  0.0000  0.0000  0.0000  0.0000  0.0000  0.0000  0.0000
  10.     0.0000  0.0000  0.0000  0.0000  0.0000  0.0000  0.0000  0.0000  0.0000
  11.     0.0000  0.0000  0.0000  0.0000  0.0000  0.0000  0.0000  0.0000  0.0000
  12.     0.0000  0.0000  0.0000  0.0000  0.0000  0.0000  0.0000  0.0000  0.0000
  13.     0.0000  0.0000  0.0000  0.0000  0.0000  0.0000  0.0000  0.0000  0.0000
  14.     0.0000  0.0000  0.0000  0.0000  0.0000  0.0000  0.0000  0.0000  0.0000
  15.     0.0000  0.0000  0.0000  0.0000  0.0000  0.0000  0.0000  0.0000  0.0000
  16.     0.0000  0.0000  0.0000  0.0000  0.0000  0.0000  0.0000  0.0000  0.0000
  17.     0.0000  0.0000  0.0000  0.0000  0.0000  0.0000  0.0000  0.0000  0.0000
  18.     0.0000  0.0000  0.0000  0.0000  0.0000  0.0000  0.0000  0.0000  0.0000
  19.     0.0000  0.0000  0.0000  0.0000  0.0000  0.0000  0.0000  0.0000  0.0000
  20.     0.0000  0.0000  0.0000  0.0000  0.0000  0.0000  0.0000  0.0000  0.0000
  21.     0.0000  0.0000  0.0000  0.0000  0.0000  0.0000  0.0000  0.0000  0.0000
  22.     0.0000  0.0000  0.0000  0.0000  0.0000  0.0000  0.0000  0.0000  0.0000
  23.     0.0000  0.0000  0.0000  0.0000  0.0000  0.0000  0.0000  0.0000  0.0000
  24.     0.0000  0.0000  0.0000  0.0000  0.0000  0.0000  0.0000  0.0000  0.0000
  25.     0.0000  0.0000  0.0000  0.0000  0.0000  0.0000  0.0000  0.0000  0.0000
  26.     0.0000  0.0000  0.0000  0.0000  0.0000  0.0000  0.0000  0.0000  0.0000
  27.     0.0000  0.0000  0.0000  0.0000  0.0000  0.0000  0.0000  0.0000  0.0000
  28.     0.0000  0.0000  0.0000  0.0000  0.0000  0.0000  0.0000  0.0000  0.0000
  29.     0.0000  0.0000  0.0000  0.0000  0.0000  0.0000  0.0000  0.0000  0.0000
  30.     0.0000  0.0000  0.0000  0.0000  0.0000  0.0000  0.0000  0.0000  0.0000
  31.     0.0000  0.0000  0.0000  0.0000  0.0000  0.0000  0.0000  0.0000  0.0000
  32.     0.0000  0.0000  0.0000  0.0000  0.0000  0.0000  0.0000  0.0000  0.0000

      MO    28      29      30      31      32
     ---- ------  ------  ------  ------  ------
   1.     0.0000  0.0000  0.0000  0.0000  0.0000
   2.     0.0000  0.0000  0.0000  0.0000  0.0000
   3.     0.0000  0.0000  0.0000  0.0000  0.0000
   4.     0.0000  0.0000  0.0000  0.0000  0.0000
   5.     0.0000  0.0000  0.0000  0.0000  0.0000
   6.     0.0000  0.0000  0.0000  0.0000  0.0000
   7.     0.0000  0.0000  0.0000  0.0000  0.0000
   8.     0.0000  0.0000  0.0000  0.0000  0.0000
   9.     0.0000  0.0000  0.0000  0.0000  0.0000
  10.     0.0000  0.0000  0.0000  0.0000  0.0000
  11.     0.0000  0.0000  0.0000  0.0000  0.0000
  12.     0.0000  0.0000  0.0000  0.0000  0.0000
  13.     0.0000  0.0000  0.0000  0.0000  0.0000
  14.     0.0000  0.0000  0.0000  0.0000  0.0000
  15.     0.0000  0.0000  0.0000  0.0000  0.0000
  16.     0.0000  0.0000  0.0000  0.0000  0.0000
  17.     0.0000  0.0000  0.0000  0.0000  0.0000
  18.     0.0000  0.0000  0.0000  0.0000  0.0000
  19.     0.0000  0.0000  0.0000  0.0000  0.0000
  20.     0.0000  0.0000  0.0000  0.0000  0.0000
  21.     0.0000  0.0000  0.0000  0.0000  0.0000
  22.     0.0000  0.0000  0.0000  0.0000  0.0000
  23.     0.0000  0.0000  0.0000  0.0000  0.0000
  24.     0.0000  0.0000  0.0000  0.0000  0.0000
  25.     0.0000  0.0000  0.0000  0.0000  0.0000
  26.     0.0000  0.0000  0.0000  0.0000  0.0000
  27.     0.0000  0.0000  0.0000  0.0000  0.0000
  28.     0.0000  0.0000  0.0000  0.0000  0.0000
  29.     0.0000  0.0000  0.0000  0.0000  0.0000
  30.     0.0000  0.0000  0.0000  0.0000  0.0000
  31.     0.0000  0.0000  0.0000  0.0000  0.0000
  32.     0.0000  0.0000  0.0000  0.0000  0.0000


 NATURAL POPULATIONS:  Natural atomic orbital occupancies

  NAO Atom No lang   Type(AO)    Occupancy      Energy
 -------------------------------------------------------
   1    C  1  s      Cor( 1s)     1.99999     -11.36145
   2    C  1  s      Val( 2s)     1.70052      -0.57116
   3    C  1  s      Ryd( 3s)     0.00905       1.09925
   4    C  1  px     Val( 2p)     0.52473      -0.03210
   5    C  1  px     Ryd( 3p)     0.00065       0.78486
   6    C  1  py     Val( 2p)     0.52473      -0.03210
   7    C  1  py     Ryd( 3p)     0.00065       0.78486
   8    C  1  pz     Val( 2p)     1.27264      -0.16889
   9    C  1  pz     Ryd( 3p)     0.00569       0.76019
  10    C  1  dxy    Ryd( 3d)     0.00000       1.94772
  11    C  1  dxz    Ryd( 3d)     0.00418       2.05449
  12    C  1  dyz    Ryd( 3d)     0.00418       2.05449
  13    C  1  dx2y2  Ryd( 3d)     0.00000       1.94772
  14    C  1  dz2    Ryd( 3d)     0.00783       2.49129

  15    S  2  s      Cor( 1s)     2.00000     -79.76485
  16    S  2  s      Cor( 2s)     2.00000     -21.21931
  17    S  2  s      Val( 3s)     1.74631      -0.74343
  18    S  2  s      Ryd( 4s)     0.02267       0.41938
  19    S  2  px     Cor( 2p)     2.00000      -6.68177
  20    S  2  px     Val( 3p)     1.46198      -0.30577
  21    S  2  px     Ryd( 4p)     0.00154       0.51326
  22    S  2  py     Cor( 2p)     2.00000      -6.68177
  23    S  2  py     Val( 3p)     1.46198      -0.30577
  24    S  2  py     Ryd( 4p)     0.00154       0.51326
  25    S  2  pz     Cor( 2p)     1.99999      -6.68359
  26    S  2  pz     Val( 3p)     1.21246      -0.21675
  27    S  2  pz     Ryd( 4p)     0.01004       0.47129
  28    S  2  dxy    Ryd( 3d)     0.00000       1.00286
  29    S  2  dxz    Ryd( 3d)     0.00692       1.10966
  30    S  2  dyz    Ryd( 3d)     0.00692       1.10966
  31    S  2  dx2y2  Ryd( 3d)     0.00000       1.00286
  32    S  2  dz2    Ryd( 3d)     0.01282       1.43286


 Summary of Natural Population Analysis:

                                     Natural Population
             Natural    ---------------------------------------------
  Atom No    Charge        Core      Valence    Rydberg      Total
 --------------------------------------------------------------------
    C  1   -0.05485      1.99999     4.02262    0.03224     6.05485
    S  2    0.05485      9.99999     5.88273    0.06243    15.94515
 ====================================================================
 * Total *  0.00000     11.99998     9.90535    0.09467    22.00000

                                 Natural Population
 ---------------------------------------------------------
   Core                      11.99998 ( 99.9998% of   12)
   Valence                    9.90535 ( 99.0535% of   10)
   Natural Minimal Basis     21.90533 ( 99.5697% of   22)
   Natural Rydberg Basis      0.09467 (  0.4303% of   22)
 ---------------------------------------------------------

    Atom No         Natural Electron Configuration
 ----------------------------------------------------------------------------
      C  1      [core]2s( 1.70)2p( 2.32)3s( 0.01)3p( 0.01)3d( 0.02)
      S  2      [core]3s( 1.75)3p( 4.14)4s( 0.02)3d( 0.03)4p( 0.01)


 PNAOs in the AO basis:

           AO          1       2       3       4       5       6       7       8
      ------------ ------- ------- ------- ------- ------- ------- ------- -------
   1.  C 1 (s)      0.9955 -0.2299 -0.0820  0.0000  0.0000  0.0000  0.0000  0.0000
   2.  C 1 (s)      0.0219  0.4297  1.6727  0.0000  0.0000  0.0000  0.0000  0.0000
   3.  C 1 (px)     0.0000  0.0000  0.0000  0.3879  1.1533  0.0000  0.0000  0.0000
   4.  C 1 (py)     0.0000  0.0000  0.0000  0.0000  0.0000  0.3879  1.1533  0.0000
   5.  C 1 (pz)     0.0000  0.0000  0.0000  0.0000  0.0000  0.0000  0.0000  0.3879
   6.  C 1 (s)     -0.0024  0.6419 -1.5898  0.0000  0.0000  0.0000  0.0000  0.0000
   7.  C 1 (px)     0.0000  0.0000  0.0000  0.7269 -0.9759  0.0000  0.0000  0.0000
   8.  C 1 (py)     0.0000  0.0000  0.0000  0.0000  0.0000  0.7269 -0.9759  0.0000
   9.  C 1 (pz)     0.0000  0.0000  0.0000  0.0000  0.0000  0.0000  0.0000  0.7269
  10.  C 1 (d5)     0.0000  0.0000  0.0000  0.0000  0.0000  0.0000  0.0000  0.0000
  11.  C 1 (d2)     0.0000  0.0000  0.0000  0.0000  0.0000  0.0000  0.0000  0.0000
  12.  C 1 (d3)     0.0000  0.0000  0.0000  0.0000  0.0000  0.0000  0.0000  0.0000
  13.  C 1 (d4)     0.0000  0.0000  0.0000  0.0000  0.0000  0.0000  0.0000  0.0000
  14.  C 1 (d1)     0.0000  0.0000  0.0000  0.0000  0.0000  0.0000  0.0000  0.0000
  15.  S 2 (s)      0.0000  0.0000  0.0000  0.0000  0.0000  0.0000  0.0000  0.0000
  16.  S 2 (s)      0.0000  0.0000  0.0000  0.0000  0.0000  0.0000  0.0000  0.0000
  17.  S 2 (px)     0.0000  0.0000  0.0000  0.0000  0.0000  0.0000  0.0000  0.0000
  18.  S 2 (py)     0.0000  0.0000  0.0000  0.0000  0.0000  0.0000  0.0000  0.0000
  19.  S 2 (pz)     0.0000  0.0000  0.0000  0.0000  0.0000  0.0000  0.0000  0.0000
  20.  S 2 (s)      0.0000  0.0000  0.0000  0.0000  0.0000  0.0000  0.0000  0.0000
  21.  S 2 (px)     0.0000  0.0000  0.0000  0.0000  0.0000  0.0000  0.0000  0.0000
  22.  S 2 (py)     0.0000  0.0000  0.0000  0.0000  0.0000  0.0000  0.0000  0.0000
  23.  S 2 (pz)     0.0000  0.0000  0.0000  0.0000  0.0000  0.0000  0.0000  0.0000
  24.  S 2 (s)      0.0000  0.0000  0.0000  0.0000  0.0000  0.0000  0.0000  0.0000
  25.  S 2 (px)     0.0000  0.0000  0.0000  0.0000  0.0000  0.0000  0.0000  0.0000
  26.  S 2 (py)     0.0000  0.0000  0.0000  0.0000  0.0000  0.0000  0.0000  0.0000
  27.  S 2 (pz)     0.0000  0.0000  0.0000  0.0000  0.0000  0.0000  0.0000  0.0000
  28.  S 2 (d5)     0.0000  0.0000  0.0000  0.0000  0.0000  0.0000  0.0000  0.0000
  29.  S 2 (d2)     0.0000  0.0000  0.0000  0.0000  0.0000  0.0000  0.0000  0.0000
  30.  S 2 (d3)     0.0000  0.0000  0.0000  0.0000  0.0000  0.0000  0.0000  0.0000
  31.  S 2 (d4)     0.0000  0.0000  0.0000  0.0000  0.0000  0.0000  0.0000  0.0000
  32.  S 2 (d1)     0.0000  0.0000  0.0000  0.0000  0.0000  0.0000  0.0000  0.0000

           AO          9      10      11      12      13      14      15      16
      ------------ ------- ------- ------- ------- ------- ------- ------- -------
   1.  C 1 (s)      0.0000  0.0000  0.0000  0.0000  0.0000  0.0000  0.0000  0.0000
   2.  C 1 (s)      0.0000  0.0000  0.0000  0.0000  0.0000  0.0000  0.0000  0.0000
   3.  C 1 (px)     0.0000  0.0000  0.0000  0.0000  0.0000  0.0000  0.0000  0.0000
   4.  C 1 (py)     0.0000  0.0000  0.0000  0.0000  0.0000  0.0000  0.0000  0.0000
   5.  C 1 (pz)     1.1533  0.0000  0.0000  0.0000  0.0000  0.0000  0.0000  0.0000
   6.  C 1 (s)      0.0000  0.0000  0.0000  0.0000  0.0000  0.0000  0.0000  0.0000
   7.  C 1 (px)     0.0000  0.0000  0.0000  0.0000  0.0000  0.0000  0.0000  0.0000
   8.  C 1 (py)     0.0000  0.0000  0.0000  0.0000  0.0000  0.0000  0.0000  0.0000
   9.  C 1 (pz)    -0.9759  0.0000  0.0000  0.0000  0.0000  0.0000  0.0000  0.0000
  10.  C 1 (d5)     0.0000  0.0000  0.0000  0.0000  0.0000  1.0000  0.0000  0.0000
  11.  C 1 (d2)     0.0000  0.0000  1.0000  0.0000  0.0000  0.0000  0.0000  0.0000
  12.  C 1 (d3)     0.0000  0.0000  0.0000  1.0000  0.0000  0.0000  0.0000  0.0000
[...]
            0.0000 0.0000
           NBO accepted:    8. Label:LP ( 1)   2
        6 eigenvector(s) stashed in permanent list

  1-center NBOs projected from the NHO density matrix
       6.007 electrons remain (>1.900); search continues

 Search of NHO DM block for the following atom(s):   1   2
      Select eigenvectors with eigenvalue > 1.900
       2.000 2.000 2.000 0.000 0.000 0.000 0.000 0.000 0.000 0.000 0.000 0.000
       0.000 0.000 0.000 0.000 0.000 0.000 0.000 0.000 0.000 0.000 0.000 0.000
       0.000 0.000 0.000 0.000 0.000 0.000 0.000 0.000
      Eigenvector ( 1) has occupancy 2.00000
            0.0000 0.0000 0.5147-0.0029 0.0130 0.0000 0.0000 0.0000
            0.0000 0.0000 0.0000 0.0000 0.0000 0.0000 0.0000 0.0000
            0.0000 0.0000 0.0000 0.0000 0.8572-0.0083 0.0034 0.0000
            0.0000 0.0000 0.0000 0.0000 0.0000 0.0000 0.0000 0.0000
      Occupancy is 2.000 after deleting minor hybrid components
            0.0000 0.0000 0.5147 0.0000 0.0000 0.0000 0.0000 0.0000
            0.0000 0.0000 0.0000 0.0000 0.0000 0.0000 0.0000 0.0000
            0.0000 0.0000 0.0000 0.0000 0.8573 0.0000 0.0000 0.0000
            0.0000 0.0000 0.0000 0.0000 0.0000 0.0000 0.0000 0.0000
           NBO accepted:    9. Label:BD ( 1)   1   2
      Occupancy is 0.000 for antibonding component
            0.0000 0.0000 0.8573 0.0000 0.0000 0.0000 0.0000 0.0000
            0.0000 0.0000 0.0000 0.0000 0.0000 0.0000 0.0000 0.0000
            0.0000 0.0000 0.0000 0.0000-0.5147 0.0000 0.0000 0.0000
            0.0000 0.0000 0.0000 0.0000 0.0000 0.0000 0.0000 0.0000
           NBO accepted:   10. Label:BD*( 1)   1   2
      Eigenvector ( 2) has occupancy 2.00000
            0.0000 0.0000 0.0033 0.3802 0.5375 0.0000 0.0000 0.0000
            0.0000 0.0000 0.0000 0.0000 0.0000 0.0000 0.0000 0.0000
            0.0000 0.0000 0.0000 0.0000-0.0054 0.5597 0.5031 0.0000
            0.0000 0.0000 0.0000 0.0000 0.0000 0.0000 0.0000 0.0000
      Occupancy is 1.996 after deleting minor hybrid components
            0.0000 0.0000 0.0000 0.0000 0.6991 0.0000 0.0000 0.0000
            0.0000 0.0000 0.0000 0.0000 0.0000 0.0000 0.0000 0.0000
            0.0000 0.0000 0.0000 0.0000 0.0000 0.0000 0.7150 0.0000
            0.0000 0.0000 0.0000 0.0000 0.0000 0.0000 0.0000 0.0000
           NBO accepted:   11. Label:BD ( 2)   1   2
      Occupancy is 0.005 for antibonding component
            0.0000 0.0000 0.0000 0.0000 0.7150 0.0000 0.0000 0.0000
            0.0000 0.0000 0.0000 0.0000 0.0000 0.0000 0.0000 0.0000
            0.0000 0.0000 0.0000 0.0000 0.0000 0.0000-0.6991 0.0000
            0.0000 0.0000 0.0000 0.0000 0.0000 0.0000 0.0000 0.0000
           NBO accepted:   12. Label:BD*( 2)   1   2
      Eigenvector ( 3) has occupancy 2.00000
            0.0000 0.0000 0.0043 0.3589-0.4471 0.0000 0.0000 0.0000
            0.0000 0.0000 0.0000 0.0000 0.0000 0.0000 0.0000 0.0000
            0.0000 0.0000 0.0000 0.0000 0.0137 0.6425-0.5082 0.0000
            0.0000 0.0000 0.0000 0.0000 0.0000 0.0000 0.0000 0.0000
      Occupancy is 1.995 after deleting minor hybrid components
            0.0000 0.0000 0.0000 0.5221 0.0000 0.0000 0.0000 0.0000
            0.0000 0.0000 0.0000 0.0000 0.0000 0.0000 0.0000 0.0000
            0.0000 0.0000 0.0000 0.0000 0.0000 0.8529 0.0000 0.0000
            0.0000 0.0000 0.0000 0.0000 0.0000 0.0000 0.0000 0.0000
           NBO accepted:   13. Label:BD ( 3)   1   2
      Occupancy is 0.004 for antibonding component
            0.0000 0.0000 0.0000 0.8529 0.0000 0.0000 0.0000 0.0000
            0.0000 0.0000 0.0000 0.0000 0.0000 0.0000 0.0000 0.0000
            0.0000 0.0000 0.0000 0.0000 0.0000-0.5221 0.0000 0.0000
            0.0000 0.0000 0.0000 0.0000 0.0000 0.0000 0.0000 0.0000
           NBO accepted:   14. Label:BD*( 3)   1   2
        6 eigenvector(s) stashed in permanent list

  2-center NBOs projected from the NHO density matrix
       0.007 electrons remain in the fully projected matrix

                            Occupancies       Lewis Structure    Low   High
         Max    Occ     -------------------  -----------------   occ   occ
  Cycle  Ctr   Thresh    Lewis   non-Lewis     CR  BD  nC  LP    (L)   (NL)
 ============================================================================
    1     2     1.90    21.98417   0.01583      6   3   0   2     0      0
 ----------------------------------------------------------------------------

 Structure accepted: No low occupancy Lewis orbitals

 -------------------------------------------------------
   Core                     11.99998 (100.000% of  12)
   Valence Lewis             9.98419 ( 99.842% of  10)
  ==================      =============================
   Total Lewis              21.98417 ( 99.928% of  22)
  -----------------------------------------------------
   Valence non-Lewis         0.00863 (  0.039% of  22)
   Rydberg non-Lewis         0.00720 (  0.033% of  22)
  ==================      =============================
   Total non-Lewis           0.01583 (  0.072% of  22)
 -------------------------------------------------------


     (Occupancy)   Bond orbital / Coefficients / Hybrids
 ------------------ Lewis ------------------------------------------------------
   1. (1.99999) CR ( 1) C  1            s(100.00%)
                                         1.0000  0.0000  0.0000  0.0000  0.0000
                                         0.0000  0.0000  0.0000  0.0000  0.0000
                                         0.0000  0.0000  0.0000  0.0000
   2. (2.00000) CR ( 1) S  2            s(100.00%)
                                         1.0000  0.0000  0.0000  0.0000  0.0000
                                         0.0000  0.0000  0.0000  0.0000  0.0000
                                         0.0000  0.0000  0.0000  0.0000  0.0000
                                         0.0000  0.0000  0.0000
   3. (2.00000) CR ( 2) S  2            s(100.00%)
                                         0.0000  1.0000  0.0000  0.0000  0.0000
                                         0.0000  0.0000  0.0000  0.0000  0.0000
                                         0.0000  0.0000  0.0000  0.0000  0.0000
                                         0.0000  0.0000  0.0000
   4. (2.00000) CR ( 3) S  2            s(  0.00%)p 1.00(100.00%)
                                         0.0000  0.0000  0.0000  0.0000  1.0000
                                         0.0000  0.0000  0.0000  0.0000  0.0000
                                         0.0000  0.0000  0.0000  0.0000  0.0000
                                         0.0000  0.0000  0.0000
   5. (2.00000) CR ( 4) S  2            s(  0.00%)p 1.00(100.00%)
                                         0.0000  0.0000  0.0000  0.0000  0.0000
                                         0.0000  0.0000  1.0000  0.0000  0.0000
                                         0.0000  0.0000  0.0000  0.0000  0.0000
                                         0.0000  0.0000  0.0000
   6. (1.99999) CR ( 5) S  2            s(  0.00%)p 1.00(100.00%)
                                         0.0000  0.0000  0.0000  0.0000  0.0000
                                         0.0000  0.0000  0.0000  0.0000  0.0000
                                         1.0000  0.0000  0.0000  0.0000  0.0000
                                         0.0000  0.0000  0.0000
   7. (1.99648) LP ( 1) C  1            s( 70.77%)p 0.41( 29.20%)d 0.00(  0.03%)
                                         0.0000  0.8408 -0.0268  0.0000  0.0000
                                         0.0000  0.0000 -0.5403  0.0065  0.0000
                                         0.0000  0.0000  0.0000 -0.0163
   8. (1.99633) LP ( 1) S  2            s( 75.27%)p 0.33( 24.67%)d 0.00(  0.06%)
                                         0.0000  0.0000  0.8668  0.0376  0.0000
                                         0.0000  0.0000  0.0000  0.0000  0.0000
                                         0.0000  0.4965 -0.0154  0.0000  0.0000
                                         0.0000  0.0000 -0.0244
   9. (1.99989) BD ( 1) C  1- S  2
               ( 26.50%)   0.5147* C  1 s(  0.02%)p99.99( 99.19%)d32.04(  0.79%)
                                         0.0000  0.0155  0.0024  0.8118 -0.0286
                                        -0.5753  0.0203  0.0240  0.0015  0.0000
                                         0.0724 -0.0513  0.0000  0.0024
               ( 73.50%)   0.8573* S  2 s(  0.02%)p99.99( 99.51%)d20.34(  0.47%)
                                         0.0000  0.0000  0.0147 -0.0039  0.0000
                                         0.8131  0.0264  0.0000 -0.5764 -0.0187
                                         0.0000 -0.0251  0.0028  0.0000 -0.0559
                                         0.0397  0.0000  0.0032
  10. (1.99614) BD ( 2) C  1- S  2
               ( 48.87%)   0.6991* C  1 s( 28.61%)p 2.47( 70.68%)d 0.02(  0.71%)
                                         0.0000  0.5285  0.0823 -0.1335  0.0047
                                        -0.1397  0.0049  0.8165  0.0524  0.0000
                                        -0.0119 -0.0125  0.0000  0.0825
               ( 51.13%)   0.7150* S  2 s( 25.22%)p 2.92( 73.65%)d 0.04(  1.12%)
                                         0.0000  0.0000  0.4855 -0.1284  0.0000
                                        -0.1372 -0.0044  0.0000 -0.1433 -0.0046
                                         0.0000 -0.8299  0.0919  0.0000  0.0094
                                         0.0099  0.0000  0.1051
  11. (1.99534) BD ( 3) C  1- S  2
               ( 27.26%)   0.5221* C  1 s(  1.10%)p89.58( 98.12%)d 0.72(  0.79%)
                                         0.0000  0.1034  0.0161  0.5604 -0.0197
                                         0.8002 -0.0282  0.1598  0.0102  0.0000
                                         0.0500  0.0714  0.0000  0.0161
               ( 72.74%)   0.8529* S  2 s(  1.02%)p96.86( 98.49%)d 0.49(  0.50%)
                                         0.0000  0.0000  0.0975 -0.0258  0.0000
                                         0.5606  0.0182  0.0000  0.8009  0.0260
                                         0.0000 -0.1666  0.0185  0.0000 -0.0386
                                        -0.0551  0.0000  0.0211
 ---------------- non-Lewis ----------------------------------------------------
  12. (0.00009) BD*( 1) C  1- S  2
               ( 73.50%)   0.8573* C  1 s(  0.02%)p99.99( 99.19%)d32.04(  0.79%)
               ( 26.50%)  -0.5147* S  2 s(  0.02%)p99.99( 99.51%)d20.34(  0.47%)
  13. (0.00476) BD*( 2) C  1- S  2
               ( 51.13%)   0.7150* C  1 s( 28.61%)p 2.47( 70.68%)d 0.02(  0.71%)
                                         0.0000  0.5285  0.0823 -0.1335  0.0047
                                        -0.1397  0.0049  0.8165  0.0524  0.0000
                                        -0.0119 -0.0125  0.0000  0.0825
               ( 48.87%)  -0.6991* S  2 s( 25.22%)p 2.92( 73.65%)d 0.04(  1.12%)
                                         0.0000  0.0000  0.4855 -0.1284  0.0000
                                        -0.1372 -0.0044  0.0000 -0.1433 -0.0046
                                         0.0000 -0.8299  0.0919  0.0000  0.0094
                                         0.0099  0.0000  0.1051
  14. (0.00378) BD*( 3) C  1- S  2
               ( 72.74%)   0.8529* C  1 s(  1.10%)p89.58( 98.12%)d 0.72(  0.79%)
                                         0.0000  0.1034  0.0161  0.5604 -0.0197
                                         0.8002 -0.0282  0.1598  0.0102  0.0000
                                         0.0500  0.0714  0.0000  0.0161
               ( 27.26%)  -0.5221* S  2 s(  1.02%)p96.86( 98.49%)d 0.49(  0.50%)
                                         0.0000  0.0000  0.0975 -0.0258  0.0000
                                         0.5606  0.0182  0.0000  0.8009  0.0260
                                         0.0000 -0.1666  0.0185  0.0000 -0.0386
                                        -0.0551  0.0000  0.0211
  15. (0.00368) RY ( 1) C  1            s( 16.76%)p 4.54( 76.16%)d 0.42(  7.08%)
                                         0.0000 -0.0480  0.4066  0.0000  0.0000
                                         0.0000  0.0000 -0.0925  0.8678  0.0000
                                         0.0000  0.0000  0.0000  0.2660
  16. (0.00000) RY ( 2) C  1            s(  0.00%)p 0.00(  0.00%)d 1.00(100.00%)
  17. (0.00000) RY ( 3) C  1            s(  0.00%)p 0.00(  0.00%)d 1.00(100.00%)
  18. (0.00000) RY ( 4) C  1            s(  0.00%)p 1.00( 41.90%)d 1.39( 58.10%)
  19. (0.00000) RY ( 5) C  1            s( 80.69%)p 0.15( 11.82%)d 0.09(  7.50%)
  20. (0.00000) RY ( 6) C  1            s(  0.00%)p 1.00( 58.88%)d 0.70( 41.12%)
  21. (0.00000) RY ( 7) C  1            s(  0.00%)p 1.00( 58.88%)d 0.70( 41.12%)
  22. (0.00000) RY ( 8) C  1            s(  2.05%)p 6.48( 13.26%)d41.38( 84.69%)
  23. (0.00000) RY ( 9) C  1            s(  0.00%)p 1.00( 41.90%)d 1.39( 58.10%)
  24. (0.00352) RY ( 1) S  2            s( 74.29%)p 0.32( 23.75%)d 0.03(  1.97%)
                                         0.0000  0.0000  0.0494  0.8605  0.0000
                                         0.0000  0.0000  0.0000  0.0000  0.0000
                                         0.0000 -0.1725 -0.4558  0.0000  0.0000
                                         0.0000  0.0000 -0.1402
  25. (0.00000) RY ( 2) S  2            s(  9.13%)p 0.77(  7.02%)d 9.19( 83.85%)
  26. (0.00000) RY ( 3) S  2            s(  0.00%)p 0.00(  0.00%)d 1.00(100.00%)
  27. (0.00000) RY ( 4) S  2            s(  0.00%)p 0.00(  0.00%)d 1.00(100.00%)
  28. (0.00000) RY ( 5) S  2            s(  0.00%)p 1.00( 24.98%)d 3.00( 75.02%)
  29. (0.00000) RY ( 6) S  2            s(  0.00%)p 1.00( 75.49%)d 0.32( 24.51%)
  30. (0.00000) RY ( 7) S  2            s(  0.00%)p 1.00( 75.49%)d 0.32( 24.51%)
  31. (0.00000) RY ( 8) S  2            s( 15.06%)p 4.78( 71.97%)d 0.86( 12.97%)
  32. (0.00000) RY ( 9) S  2            s(  0.00%)p 1.00( 24.98%)d 3.00( 75.02%)


 NHO DIRECTIONALITY AND BOND BENDING (deviation from line of nuclear centers at
                                      the position of maximum hybrid amplitude)

         [Thresholds for printing:  angular deviation  >  1.0 degree]
                                    p- or d-character  > 25.0%
                                    orbital occupancy  >  0.10e

                        Line of Centers        Hybrid 1             Hybrid 2
                        ---------------  -------------------  ------------------
           NBO            Theta   Phi    Theta   Phi    Dev   Theta   Phi    Dev
 ===============================================================================
   7. LP ( 1) C  1          --     --    180.0    0.0   --      --     --    --
   9. BD ( 1) C  1- S  2    0.0    0.0    83.9  324.7  83.9   100.9  324.7  79.1
  10. BD ( 2) C  1- S  2    0.0    0.0    10.8  226.3  10.8   165.8  226.3  14.2
  11. BD ( 3) C  1- S  2    0.0    0.0    73.2   55.0  73.2   110.2   55.0  69.8


 SECOND ORDER PERTURBATION THEORY ANALYSIS OF FOCK MATRIX IN NBO BASIS

     Threshold for printing:   0.50 kcal/mol
                                                          E(2) E(NL)-E(L) F(L,NL)
      Donor (L) NBO              Acceptor (NL) NBO      kcal/mol   a.u.    a.u.
 ===============================================================================

 within unit  1
    7. LP ( 1) C  1            24. RY ( 1) S  2            2.07    0.93   0.039
    8. LP ( 1) S  2            15. RY ( 1) C  1            3.73    1.61   0.069
   10. BD ( 2) C  1- S  2      14. BD*( 3) C  1- S  2      2.49    1.04   0.045
   11. BD ( 3) C  1- S  2      13. BD*( 2) C  1- S  2      3.19    1.08   0.052


 NATURAL BOND ORBITALS (Summary):

                                                     Principal Delocalizations
           NBO                 Occupancy    Energy   (geminal,vicinal,remote)
 ===============================================================================
 Molecular unit  1  (CS)
 ------ Lewis --------------------------------------
    1. CR ( 1) C  1             1.99999   -11.36145
    2. CR ( 1) S  2             2.00000   -79.76485
    3. CR ( 2) S  2             2.00000   -21.21931
    4. CR ( 3) S  2             2.00000    -6.68177
    5. CR ( 4) S  2             2.00000    -6.68177
    6. CR ( 5) S  2             1.99999    -6.68359
    7. LP ( 1) C  1             1.99648    -0.57394  24(v)
    8. LP ( 1) S  2             1.99633    -0.75658  15(v)
    9. BD ( 1) C  1- S  2       1.99989    -0.45876
   10. BD ( 2) C  1- S  2       1.99614    -0.90687  14(g)
   11. BD ( 3) C  1- S  2       1.99534    -0.47277  13(g)
 ------ non-Lewis ----------------------------------
   12. BD*( 1) C  1- S  2       0.00009     0.11996
   13. BD*( 2) C  1- S  2       0.00476     0.60944
   14. BD*( 3) C  1- S  2       0.00378     0.13581
   15. RY ( 1) C  1             0.00368     0.85697
   16. RY ( 2) C  1             0.00000     1.94772
   17. RY ( 3) C  1             0.00000     1.94772
   18. RY ( 4) C  1             0.00000     1.59579
   19. RY ( 5) C  1             0.00000     1.24732
   20. RY ( 6) C  1             0.00000     1.24491
   21. RY ( 7) C  1             0.00000     1.24491
   22. RY ( 8) C  1             0.00000     2.22461
   23. RY ( 9) C  1             0.00000     1.59579
   24. RY ( 1) S  2             0.00352     0.36075
   25. RY ( 2) S  2             0.00000     1.31292
   26. RY ( 3) S  2             0.00000     1.00286
   27. RY ( 4) S  2             0.00000     1.00286
   28. RY ( 5) S  2             0.00000     0.91017
   29. RY ( 6) S  2             0.00000     0.71236
   30. RY ( 7) S  2             0.00000     0.71236
   31. RY ( 8) S  2             0.00000     0.59748
   32. RY ( 9) S  2             0.00000     0.91017
          -------------------------------
                 Total Lewis   21.98417  ( 99.9280%)
           Valence non-Lewis    0.00863  (  0.0392%)
           Rydberg non-Lewis    0.00720  (  0.0327%)
          -------------------------------
               Total unit  1   22.00000  (100.0000%)
              Charge unit  1    0.00000

 $CHOOSE
   LONE 1 1 2 1 END
   BOND T 1 2 END
 $END

 NBO analysis completed in 0.29 CPU seconds (1 wall second)
 Maximum scratch memory used by NBO was 361115 words (2.76 MB)
 Maximum scratch memory used by G16NBO was 9824 words (0.07 MB)

 Opening RunExU unformatted file "/cluster/work/users/beto93/mol46/Gau-780183.EUF"
 Read unf file /cluster/work/users/beto93/mol46/Gau-780183.EUF:
 Label Gaussian matrix elements                                         IVers= 2 NLab= 2 Version=ES64L-G16RevC.01
 Title mol46-NBO                                                       
 NAtoms=     2 NBasis=    32 NBsUse=    32 ICharg=     0 Multip=     1 NE=    22 Len12L=8 Len4L=8 IOpCl= 0 ICGU=111
 GAUSSIAN SCALARS                    NI= 1 NR= 1 NTot=       1 LenBuf=    2 NRI=1 N=    1000
 NPA CHARGES                         NI= 0 NR= 1 NTot=       2 LenBuf= 4000 NRI=1 N=       2
 Recovered energy= -435.302042121     dipole=      0.000000000000      0.000000000000      0.475118991198
 Unable to Open any file for archive entry.
 1\1\GINC-C1-44\SP\RHF\6-31G(d)\C1S1\BETO93\18-Nov-2024\0\\#RHF/6-31G* 
 int=nobasistransform Symmetry=None 5D 7F Pop=NBO7Read\\mol46-NBO\\0,1\
 C,0,0.,0.,-1.123382\S,0,0.,0.,0.421268\\Version=ES64L-G16RevC.01\HF=-4
 35.3020421\RMSD=1.822e-09\Dipole=0.,0.,0.475119\Quadrupole=0.5221326,0
 .5221326,-1.0442651,0.,0.,0.\PG=Unknown\\@
 The archive entry for this job was punched.


 NOTHING WILL BE ATTEMPTED IF ALL POSSIBLE OBJECTIONS
 MUST FIRST BE OVERCOME.

                               -- THE GOLDEN PRINCIPLE,
                    PAUL DICKSON'S "THE OFFICIAL RULES"
 Job cpu time:       0 days  0 hours  0 minutes  8.9 seconds.
 Elapsed time:       0 days  0 hours  0 minutes  2.9 seconds.
 File lengths (MBytes):  RWF=     10 Int=      0 D2E=      0 Chk=      1 Scr=      1
 Normal termination of Gaussian 16 at Mon Nov 18 16:40:07 2024.
