 Entering Gaussian System, Link 0=g16
 Initial command:
 /cluster/software/Gaussian/g16_C.01/l1.exe "/cluster/work/users/beto93/CH3NH2/Gau-160479.inp" -scrdir="/cluster/work/users/beto93/CH3NH2/"
 Entering Link 1 = /cluster/software/Gaussian/g16_C.01/l1.exe PID=    160483.
  
 Copyright (c) 1988-2019, Gaussian, Inc.  All Rights Reserved.
  
 This is part of the Gaussian(R) 16 program.  It is based on
 the Gaussian(R) 09 system (copyright 2009, Gaussian, Inc.),
 the Gaussian(R) 03 system (copyright 2003, Gaussian, Inc.),
 the Gaussian(R) 98 system (copyright 1998, Gaussian, Inc.),
 the Gaussian(R) 94 system (copyright 1995, Gaussian, Inc.),
 the Gaussian 92(TM) system (copyright 1992, Gaussian, Inc.),
 the Gaussian 90(TM) system (copyright 1990, Gaussian, Inc.),
 the Gaussian 88(TM) system (copyright 1988, Gaussian, Inc.),
 the Gaussian 86(TM) system (copyright 1986, Carnegie Mellon
 University), and the Gaussian 82(TM) system (copyright 1983,
 Carnegie Mellon University). Gaussian is a federally registered
 trademark of Gaussian, Inc.
  
 This software contains proprietary and confidential information,
 including trade secrets, belonging to Gaussian, Inc.
  
 This software is provided under written license and may be
 used, copied, transmitted, or stored only in accord with that
 written license.
  
 The following legend is applicable only to US Government
 contracts under FAR:
  
                    RESTRICTED RIGHTS LEGEND
  
 Use, reproduction and disclosure by the US Government is
 subject to restrictions as set forth in subparagraphs (a)
 and (c) of the Commercial Computer Software - Restricted
 Rights clause in FAR 52.227-19.
  
 Gaussian, Inc.
 340 Quinnipiac St., Bldg. 40, Wallingford CT 06492
  
  
 ---------------------------------------------------------------
 Warning -- This program may not be used in any manner that
 competes with the business of Gaussian, Inc. or will provide
 assistance to any competitor of Gaussian, Inc.  The licensee
 of this program is prohibited from giving any competitor of
 Gaussian, Inc. access to this program.  By using this program,
 the user acknowledges that Gaussian, Inc. is engaged in the
 business of creating and licensing software in the field of
 computational chemistry and represents and warrants to the
 licensee that it is not a competitor of Gaussian, Inc. and that
 it will not use this program in any manner prohibited above.
 ---------------------------------------------------------------
  

 Cite this work as:
 Gaussian 16, Revision C.01,
 M. J. Frisch, G. W. Trucks, H. B. Schlegel, G. E. Scuseria, 
 M. A. Robb, J. R. Cheeseman, G. Scalmani, V. Barone, 
 G. A. Petersson, H. Nakatsuji, X. Li, M. Caricato, A. V. Marenich, 
 J. Bloino, B. G. Janesko, R. Gomperts, B. Mennucci, H. P. Hratchian, 
 J. V. Ortiz, A. F. Izmaylov, J. L. Sonnenberg, D. Williams-Young, 
 F. Ding, F. Lipparini, F. Egidi, J. Goings, B. Peng, A. Petrone, 
 T. Henderson, D. Ranasinghe, V. G. Zakrzewski, J. Gao, N. Rega, 
 G. Zheng, W. Liang, M. Hada, M. Ehara, K. Toyota, R. Fukuda, 
 J. Hasegawa, M. Ishida, T. Nakajima, Y. Honda, O. Kitao, H. Nakai, 
 T. Vreven, K. Throssell, J. A. Montgomery, Jr., J. E. Peralta, 
 F. Ogliaro, M. J. Bearpark, J. J. Heyd, E. N. Brothers, K. N. Kudin, 
 V. N. Staroverov, T. A. Keith, R. Kobayashi, J. Normand, 
 K. Raghavachari, A. P. Rendell, J. C. Burant, S. S. Iyengar, 
 J. Tomasi, M. Cossi, J. M. Millam, M. Klene, C. Adamo, R. Cammi, 
 J. W. Ochterski, R. L. Martin, K. Morokuma, O. Farkas, 
 J. B. Foresman, and D. J. Fox, Gaussian, Inc., Wallingford CT, 2019.
 
 ******************************************
 Gaussian 16:  ES64L-G16RevC.01  3-Jul-2019
                24-Jul-2024 
 ******************************************
 %LindaWorkers=c1-8-ib
 %NProcShared=4
 Will use up to    4 processors via shared memory.
 %mem=25GB
 %chk=a.chk
 SetLPE:    new flags="-opt 'Tsnet.Node.lindarsharg: ssh'  -nodelist 'c1-8-ib.saga' -env GAUSS_MDEF=3355443200 -env GAUSS_EXEDIR="/cluster/software/Gaussian/g16_C.01/bsd:/cluster/software/Gaussian/g16_C.01""
 Will use up to    1 processors via Linda.
 -----------------------
 #RHF/4-31G Pop=NBO7Read
 -----------------------
 1/38=1,163=2,172=1/1;
 2/12=2,17=6,18=5,40=1/2;
 3/5=1,11=1,25=1,30=1,116=1/1,2,3;
 4//1;
 5/5=2,38=5/2;
 6/7=2,8=2,9=2,10=2,28=1,40=2,113=1,114=1,124=2103/1,12;
 99/5=1,9=1/99;
 -----
 NBO-a
 -----
 Symbolic Z-matrix:
 Charge =  0 Multiplicity = 1
 C                     0.004    -0.00755  -0.00604 
 H                     0.0049    0.0068    1.08263 
 H                     1.04102   0.02994  -0.34972 
 H                    -0.50431   0.88878  -0.35763 
 N                    -0.73886  -1.20488  -0.47661 
 H                    -0.67648  -1.2201   -1.50799 
 H                    -0.20508  -2.0366   -0.17464 
 
                          Input orientation:                          
 ---------------------------------------------------------------------
 Center     Atomic      Atomic             Coordinates (Angstroms)
 Number     Number       Type             X           Y           Z
 ---------------------------------------------------------------------
      1          6           0        0.004002   -0.007547   -0.006036
      2          1           0        0.004898    0.006802    1.082630
      3          1           0        1.041020    0.029944   -0.349717
      4          1           0       -0.504309    0.888779   -0.357633
      5          7           0       -0.738855   -1.204882   -0.476612
      6          1           0       -0.676480   -1.220095   -1.507986
      7          1           0       -0.205075   -2.036596   -0.174644
 ---------------------------------------------------------------------
                    Distance matrix (angstroms):
                    1          2          3          4          5
     1  C    0.000000
     2  H    1.088761   0.000000
     3  H    1.093128   1.767966   0.000000
     4  H    1.088761   1.763954   1.767965   0.000000
     5  N    1.485560   2.110114   2.169989   2.110115   0.000000
     6  H    2.046749   2.946327   2.419502   2.408382   1.033370
     7  H    2.046749   2.408382   2.419502   2.946327   1.033370
                    6          7
     6  H    0.000000
     7  H    1.633003   0.000000
 Stoichiometry    CH5N
 Framework group  CS[SG(CHN),X(H4)]
 Deg. of freedom     9
 Full point group                 CS      NOp   2
 Largest Abelian subgroup         CS      NOp   2
 Largest concise Abelian subgroup CS      NOp   2
                         Standard orientation:                         
 ---------------------------------------------------------------------
 Center     Atomic      Atomic             Coordinates (Angstroms)
 Number     Number       Type             X           Y           Z
 ---------------------------------------------------------------------
      1          6           0       -0.058292    0.712886   -0.000000
      2          1           0       -0.587597    1.069752    0.881977
      3          1           0        0.942410    1.152799    0.000000
      4          1           0       -0.587597    1.069752   -0.881977
      5          7           0       -0.058292   -0.772674   -0.000000
      6          1           0        0.495291   -1.080450   -0.816502
      7          1           0        0.495291   -1.080450    0.816502
 ---------------------------------------------------------------------
 Rotational constants (GHZ):         101.1622786          22.3891021          21.5971473
 Standard basis: 4-31G (6D, 7F)
 There are    20 symmetry adapted cartesian basis functions of A'  symmetry.
 There are     8 symmetry adapted cartesian basis functions of A"  symmetry.
 There are    20 symmetry adapted basis functions of A'  symmetry.
 There are     8 symmetry adapted basis functions of A"  symmetry.
    28 basis functions,    60 primitive gaussians,    28 cartesian basis functions
     9 alpha electrons        9 beta electrons
       nuclear repulsion energy        41.6464971655 Hartrees.
 NAtoms=    7 NActive=    7 NUniq=    5 SFac= 1.96D+00 NAtFMM=   60 NAOKFM=F Big=F
 Integral buffers will be    131072 words long.
 Raffenetti 1 integral format.
 Two-electron integral symmetry is turned on.
 One-electron integrals computed using PRISM.
 NBasis=    28 RedAO= T EigKep=  1.66D-02  NBF=    20     8
 NBsUse=    28 1.00D-06 EigRej= -1.00D+00 NBFU=    20     8
 ExpMin= 1.61D-01 ExpMax= 6.71D+02 ExpMxC= 6.71D+02 IAcc=3 IRadAn=         5 AccDes= 0.00D+00
 Harris functional with IExCor=  205 and IRadAn=       5 diagonalized for initial guess.
 HarFok:  IExCor=  205 AccDes= 0.00D+00 IRadAn=         5 IDoV= 1 UseB2=F ITyADJ=14
 ICtDFT=  3500011 ScaDFX=  1.000000  1.000000  1.000000  1.000000
 FoFCou: FMM=F IPFlag=           0 FMFlag=      100000 FMFlg1=           0
         NFxFlg=           0 DoJE=T BraDBF=F KetDBF=T FulRan=T
         wScrn=  0.000000 ICntrl=       500 IOpCl=  0 I1Cent=   200000004 NGrid=           0
         NMat0=    1 NMatS0=      1 NMatT0=    0 NMatD0=    1 NMtDS0=    0 NMtDT0=    0
 Petite list used in FoFCou.
 Initial guess orbital symmetries:
       Occupied  (A') (A') (A') (A') (A") (A') (A') (A") (A')
       Virtual   (A') (A') (A") (A') (A") (A') (A') (A") (A') (A')
                 (A") (A') (A') (A") (A') (A") (A') (A') (A')
 The electronic state of the initial guess is 1-A'.
 Keep R1 ints in memory in symmetry-blocked form, NReq=896210.
 Requested convergence on RMS density matrix=1.00D-08 within 128 cycles.
 Requested convergence on MAX density matrix=1.00D-06.
 Requested convergence on             energy=1.00D-06.
 No special actions if energy rises.
 SCF Done:  E(RHF) =  -95.0649841993     A.U. after   11 cycles
            NFock= 11  Conv=0.32D-08     -V/T= 2.0003

 **********************************************************************

            Population analysis using the SCF Density.

 **********************************************************************

 Orbital symmetries:
       Occupied  (A') (A') (A') (A') (A") (A') (A') (A") (A')
       Virtual   (A') (A') (A") (A') (A") (A') (A") (A') (A') (A")
                 (A') (A') (A') (A") (A') (A") (A') (A') (A')
 The electronic state is 1-A'.
 Alpha  occ. eigenvalues --  -15.51855 -11.22493  -1.16845  -0.89885  -0.65220
 Alpha  occ. eigenvalues --   -0.59902  -0.54615  -0.51570  -0.38700
 Alpha virt. eigenvalues --    0.22207   0.28350   0.30206   0.32409   0.33427
 Alpha virt. eigenvalues --    0.41834   0.85021   0.87520   0.88562   1.07035
 Alpha virt. eigenvalues --    1.08285   1.13604   1.19162   1.23913   1.26926
 Alpha virt. eigenvalues --    1.28497   1.31038   1.50574   1.97886
          Condensed to atoms (all electrons):
               1          2          3          4          5          6
     1  C    4.988730   0.390271   0.383918   0.390271   0.217550  -0.047150
     2  H    0.390271   0.545914  -0.038883  -0.026258  -0.040119   0.005068
     3  H    0.383918  -0.038883   0.623090  -0.038883  -0.054036  -0.002117
     4  H    0.390271  -0.026258  -0.038883   0.545914  -0.040119  -0.004007
     5  N    0.217550  -0.040119  -0.054036  -0.040119   7.047896   0.325334
     6  H   -0.047150   0.005068  -0.002117  -0.004007   0.325334   0.463348
     7  H   -0.047150  -0.004007  -0.002117   0.005068   0.325334  -0.037088
               7
     1  C   -0.047150
     2  H   -0.004007
     3  H   -0.002117
     4  H    0.005068
     5  N    0.325334
     6  H   -0.037088
     7  H    0.463348
 Mulliken charges:
               1
     1  C   -0.276440
     2  H    0.168014
     3  H    0.129027
     4  H    0.168014
     5  N   -0.781840
     6  H    0.296612
     7  H    0.296612
 Sum of Mulliken charges =   0.00000
 Mulliken charges with hydrogens summed into heavy atoms:
               1
     1  C    0.188616
     5  N   -0.188616
 Electronic spatial extent (au):  <R**2>=             96.3100
 Charge=              0.0000 electrons
 Dipole moment (field-independent basis, Debye):
    X=              1.8868    Y=              0.8286    Z=              0.0000  Tot=              2.0607
 Quadrupole moment (field-independent basis, Debye-Ang):
   XX=            -14.8274   YY=            -14.6954   ZZ=            -12.6786
   XY=             -2.6625   XZ=              0.0000   YZ=             -0.0000
 Traceless Quadrupole moment (field-independent basis, Debye-Ang):
   XX=             -0.7603   YY=             -0.6283   ZZ=              1.3886
   XY=             -2.6625   XZ=              0.0000   YZ=             -0.0000
 Octapole moment (field-independent basis, Debye-Ang**2):
  XXX=              1.8256  YYY=             -0.8844  ZZZ=              0.0000  XYY=              2.8558
  XXY=              0.1188  XXZ=              0.0000  XZZ=              0.6650  YZZ=             -1.6398
  YYZ=              0.0000  XYZ=             -0.0000
 Hexadecapole moment (field-independent basis, Debye-Ang**3):
 XXXX=            -23.4702 YYYY=            -76.4384 ZZZZ=            -22.7685 XXXY=              0.8980
 XXXZ=             -0.0000 YYYX=             -1.7269 YYYZ=             -0.0000 ZZZX=             -0.0000
 ZZZY=              0.0000 XXYY=            -16.5916 XXZZ=             -7.2619 YYZZ=            -14.7263
 XXYZ=             -0.0000 YYXZ=              0.0000 ZZXY=             -1.2369
 N-N= 4.164649716549D+01 E-N=-3.054423553390D+02  KE= 9.504109543935D+01
 Symmetry A'   KE= 9.049606198833D+01
 Symmetry A"   KE= 4.545033451016D+00
 Running external command "gaunbo7 R"
         input file       "/cluster/work/users/beto93/CH3NH2/Gau-160483.EIn"
         output file      "/cluster/work/users/beto93/CH3NH2/Gau-160483.EOu"
         message file     "/cluster/work/users/beto93/CH3NH2/Gau-160483.EMs"
         fchk file        "/cluster/work/users/beto93/CH3NH2/Gau-160483.EFC"
         mat. el file     "/cluster/work/users/beto93/CH3NH2/Gau-160483.EUF"

 Writing WrtUnf unformatted file "/cluster/work/users/beto93/CH3NH2/Gau-160483.EUF"
 Gaussian matrix elements                                         Version   2 NLab=11 Len12L=8 Len4L=8
 Write SHELL TO ATOM MAP                   from file      0 offset           0 length                  16 to matrix element file.
 Write SHELL TYPES                         from file      0 offset           0 length                  16 to matrix element file.
 Write NUMBER OF PRIMITIVES PER SHELL      from file      0 offset           0 length                  16 to matrix element file.
 Write PRIMITIVE EXPONENTS                 from file      0 offset           0 length                  36 to matrix element file.
 Write CONTRACTION COEFFICIENTS            from file      0 offset           0 length                  36 to matrix element file.
 Write P(S=P) CONTRACTION COEFFICIENTS     from file      0 offset           0 length                  36 to matrix element file.
 Write COORDINATES OF EACH SHELL           from file      0 offset           0 length                  48 to matrix element file.
 Write BONDS PER ATOM                      from file      0 offset           0 length                   7 to matrix element file.
 Write BONDED ATOMS                        from file      0 offset           0 length                  12 to matrix element file.
 Write BOND TYPES                          from file      0 offset           0 length                  12 to matrix element file.
 Write ONIOM CHARGE/MULT                   from file      0 offset           0 length                  32 to matrix element file.
 Write ONIOM ATOM LAYERS                   from file      0 offset           0 length                   7 to matrix element file.
 Write ONIOM ATOM MODIFIERS                from file      0 offset           0 length                   7 to matrix element file.
 Write ONIOM ATOM TYPES                    from file      0 offset           0 length                   7 to matrix element file.
 Write ONIOM LINK ATOMS                    from file      0 offset           0 length                   7 to matrix element file.
 Write ONIOM LINK CHARGES                  from file      0 offset           0 length                   7 to matrix element file.
 Write ONIOM LINK DISTANCES                from file      0 offset           0 length                  28 to matrix element file.
 Write SYMINF INTS                         from file      0 offset           0 length                  26 to matrix element file.
 Write ROTTR TO SO                         from file      0 offset           0 length                  12 to matrix element file.
 Write GAUSSIAN SCALARS                    from file    501 offset           0 to matrix element file.
 Write OPTIMIZATION FLAGS                  from file      0 offset           0 length                   7 to matrix element file.
 Write INTEGER ISO                         from file      0 offset           0 length                   7 to matrix element file.
 Write INTEGER SPIN                        from file      0 offset           0 length                   7 to matrix element file.
 Write REAL ZEFFECTIVE                     from file      0 offset           0 length                   7 to matrix element file.
 Write REAL QUADRUPOLEMOMENT               from file      0 offset           0 length                   7 to matrix element file.
 Write REAL GFACTOR                        from file      0 offset           0 length                   7 to matrix element file.
 Write REAL ZNUCLEAR                       from file      0 offset           0 length                   7 to matrix element file.
 Write MULLIKEN CHARGES                    from file      0 offset           0 length                   7 to matrix element file.
 Write NUCLEAR GRADIENT                    from file  10584 offset           0 length                  21 to matrix element file.
 Array NUCLEAR FORCE CONSTANTS              on  file  10585 does not exist.
 Write ELECTRIC DIPOLE MOMENT              from file      0 offset           0 length                   3 to matrix element file.
 Write NON-ADIABATIC COUPLING              from file  10810 offset           0 length                  21 to matrix element file.
 Write FINITE EM FIELD                     from file  10521 offset           0 length                  35 to matrix element file.
 Write OVERLAP                             from file  10514 offset           0 length                 406 to matrix element file.
 Write CORE HAMILTONIAN ALPHA              from file  10515 offset           0 length                 406 to matrix element file.
 Write CORE HAMILTONIAN BETA               from file  10515 offset         406 length                 406 to matrix element file.
 Write KINETIC ENERGY                      from file  10516 offset           0 length                 406 to matrix element file.
 Write ORTHOGONAL BASIS                    from file  10685 offset           0 length                 784 to matrix element file.
 Write DIPOLE INTEGRALS                    from file  10518 offset           0 length                1218 to matrix element file.
 Array DIP VEL INTEGRALS                    on  file  10572 does not exist.
 Array R X DEL INTEGRALS                    on  file  10572 does not exist.
 Write ALPHA ORBITAL ENERGIES              from file      0 offset           0 length                  28 to matrix element file.
 Write ALPHA MO COEFFICIENTS               from file  10524 offset           0 length                 784 to matrix element file.
 Write ALPHA DENSITY MATRIX                from file      0 offset           0 length                 406 to matrix element file.
 Write ALPHA FOCK MATRIX                   from file  10536 offset           0 length                 406 to matrix element file.
 Write ENERGY-WEIGHTED DENSITY             from file  10571 offset           0 length                 406 to matrix element file.
 Write ALPHA SCF DENSITY MATRIX            from file      0 offset           0 length                 406 to matrix element file.
 No 2e integrals to process.
 Perform NBO analysis...executing G16NBO...

 *********************************** NBO 7.0 ***********************************
             N A T U R A L   A T O M I C   O R B I T A L   A N D
          N A T U R A L   B O N D   O R B I T A L   A N A L Y S I S
 **************************** Espen Tangen (S101595) ***************************
  (c) Copyright 1996-2021 Board of Regents of the University of Wisconsin System
      on behalf of the Theoretical Chemistry Institute.  All rights reserved.

          Cite this program [NBO 7.0.10 (8-Feb-2021)] as:

          NBO 7.0.  E. D. Glendening, J. K. Badenhoop, A. E. Reed,
          J. E. Carpenter, J. A. Bohmann, C. M. Morales, P. Karafiloglou,
          C. R. Landis, and F. Weinhold, Theoretical Chemistry Institute,
          University of Wisconsin, Madison, WI (2018)

       /NPA    / : Natural Population Analysis
       /AOPNAO / : Print the AO to PNAO transformation
       /AONAO  / : Print the AO to NAO transformation
       /AONO   / : Print the NOs in the AO basis
       /AOMO   / : Print the MOs in the AO basis
       /BOAO   / : Print the AO bond-order matrix
       /DMAO   / : Print the AO density matrix
       /DMPNAO / : Print the PNAO density matrix
       /DMNAO  / : Print the NAO density matrix
       /DMMO   / : Print the MO density matrix
       /SAO    / : Print the AO overlap matrix
       /SPNAO  / : Print the PNAO overlap matrix
       /DETAIL / : Write details of NBO search
       /ARCHIVE/ : Write the archive file to lfn47
       /AOINFO / : Write AO information to lfn31
       /FILE   / : Set to inpGenNbo

 Filename set to inpGenNbo

 Job title: NBO-a


 MOs in the AO basis:

           AO          1       2       3       4       5       6       7       8
      ------------ ------- ------- ------- ------- ------- ------- ------- -------
   1.  C 1 (s)     -0.0002  0.9936 -0.0959 -0.1694  0.0000 -0.0022 -0.0073  0.0000
   2.  C 1 (s)     -0.0017  0.0586  0.1607  0.2730  0.0000 -0.0009  0.0152  0.0000
   3.  C 1 (px)     0.0001  0.0001  0.0068 -0.0114  0.0000  0.3215  0.2231  0.0000
   4.  C 1 (py)    -0.0003  0.0001 -0.0840  0.0862  0.0000  0.1820 -0.3070  0.0000
   5.  C 1 (pz)     0.0000  0.0000  0.0000  0.0000  0.2354  0.0000  0.0000  0.3531
   6.  C 1 (s)      0.0125 -0.0442  0.1276  0.4330  0.0000  0.0081 -0.0039  0.0000
   7.  C 1 (px)     0.0007  0.0004  0.0026  0.0112  0.0000  0.1730  0.1557  0.0000
   8.  C 1 (py)    -0.0061  0.0001  0.0090  0.0227  0.0000  0.0827 -0.1571  0.0000
   9.  C 1 (pz)     0.0000  0.0000  0.0000  0.0000  0.1493  0.0000  0.0000  0.2214
  10.  H 2 (s)     -0.0007 -0.0004  0.0431  0.1388  0.1175 -0.0618 -0.1437  0.2183
  11.  H 2 (s)     -0.0003  0.0082  0.0030  0.0398  0.0638 -0.0458 -0.1116  0.1857
  12.  H 3 (s)     -0.0009 -0.0005  0.0444  0.1339  0.0000  0.2503  0.0714  0.0000
  13.  H 3 (s)     -0.0006  0.0079  0.0019  0.0317  0.0000  0.2000  0.0524  0.0000
  14.  H 4 (s)     -0.0007 -0.0004  0.0431  0.1388 -0.1175 -0.0618 -0.1437 -0.2183
  15.  H 4 (s)     -0.0003  0.0082  0.0030  0.0398 -0.0638 -0.0458 -0.1116 -0.1857
  16.  N 5 (s)      0.9929  0.0000 -0.1818  0.0787  0.0000  0.0315 -0.0007  0.0000
  17.  N 5 (s)      0.0547 -0.0005  0.3290 -0.1404  0.0000 -0.0658 -0.0064  0.0000
  18.  N 5 (px)     0.0027  0.0001  0.0786 -0.0760  0.0000  0.2309 -0.0298  0.0000
  19.  N 5 (py)     0.0013 -0.0006  0.0528  0.1293  0.0000 -0.1559  0.3609  0.0000
  20.  N 5 (pz)     0.0000  0.0000  0.0000  0.0000  0.3729  0.0000  0.0000 -0.2539
  21.  N 5 (s)     -0.0364  0.0056  0.4707 -0.2714  0.0000 -0.1126  0.0245  0.0000
  22.  N 5 (px)    -0.0050 -0.0006  0.0583 -0.0479  0.0000  0.1598 -0.0176  0.0000
  23.  N 5 (py)    -0.0055  0.0037  0.0414  0.0356  0.0000 -0.0874  0.2538  0.0000
  24.  N 5 (pz)     0.0000  0.0000  0.0000  0.0000  0.2174  0.0000  0.0000 -0.1813
  25.  H 6 (s)      0.0008 -0.0001  0.1150 -0.0978 -0.2022  0.0802 -0.1007  0.1608
  26.  H 6 (s)      0.0058  0.0011 -0.0005 -0.0274 -0.1162  0.0518 -0.0780  0.1249
  27.  H 7 (s)      0.0008 -0.0001  0.1150 -0.0978  0.2022  0.0802 -0.1007 -0.1608
  28.  H 7 (s)      0.0058  0.0011 -0.0005 -0.0274  0.1162  0.0518 -0.0780 -0.1249

           AO          9      10      11      12      13      14      15      16
      ------------ ------- ------- ------- ------- ------- ------- ------- -------
   1.  C 1 (s)     -0.0100 -0.0569 -0.1472  0.0000  0.0069  0.0000  0.0664  0.0000
   2.  C 1 (s)      0.0251  0.0138  0.0584  0.0000  0.0059  0.0000 -0.0354  0.0000
   3.  C 1 (px)    -0.1521  0.0298 -0.0056  0.0000 -0.3305  0.0000  0.0287  0.0000
   4.  C 1 (py)    -0.0794  0.1299  0.0472  0.0000  0.0183  0.0000  0.2511  0.0000
   5.  C 1 (pz)     0.0000  0.0000  0.0000  0.2054  0.0000 -0.2349  0.0000 -0.5979
   6.  C 1 (s)     -0.0229  0.9225  2.2786  0.0000 -0.0925  0.0000 -0.9531  0.0000
   7.  C 1 (px)    -0.0749  0.0110 -0.0354  0.0000 -1.3939  0.0000  0.2180  0.0000
   8.  C 1 (py)    -0.0143  0.5089  0.1334  0.0000  0.1502  0.0000  1.6810  0.0000
   9.  C 1 (pz)     0.0000  0.0000  0.0000  0.7410  0.0000 -1.2265  0.0000  1.2892
  10.  H 2 (s)      0.0673 -0.0029 -0.0029 -0.0349 -0.0258  0.0486 -0.0701 -0.5571
  11.  H 2 (s)      0.0697 -0.4507 -1.0027 -0.9165 -0.9326  1.2760 -0.0642 -0.0624
  12.  H 3 (s)     -0.1618  0.0001  0.0023  0.0000  0.0439  0.0000 -0.0511  0.0000
  13.  H 3 (s)     -0.1915 -0.5983 -0.9489  0.0000  1.7459  0.0000 -0.5091  0.0000
  14.  H 4 (s)      0.0673 -0.0029 -0.0029  0.0349 -0.0258 -0.0486 -0.0701  0.5571
  15.  H 4 (s)      0.0697 -0.4507 -1.0027  0.9165 -0.9326 -1.2760 -0.0642  0.0624
  16.  N 5 (s)      0.0595 -0.0955  0.0688  0.0000 -0.0099  0.0000 -0.0505  0.0000
  17.  N 5 (s)     -0.1320  0.0737 -0.0434  0.0000  0.0009  0.0000  0.0367  0.0000
  18.  N 5 (px)     0.4667  0.1465 -0.0946  0.0000  0.0379  0.0000 -0.1025  0.0000
  19.  N 5 (py)     0.1827 -0.0531 -0.0383  0.0000  0.0629  0.0000  0.3429  0.0000
  20.  N 5 (pz)     0.0000  0.0000  0.0000  0.2542  0.0000  0.2145  0.0000 -0.0136
  21.  N 5 (s)     -0.2290  1.3763 -1.0446  0.0000  0.1795  0.0000  0.8419  0.0000
  22.  N 5 (px)     0.4598  0.4374 -0.2620  0.0000  0.2431  0.0000 -0.3044  0.0000
  23.  N 5 (py)     0.1993 -0.1443 -0.1896  0.0000  0.1434  0.0000  1.3253  0.0000
  24.  N 5 (pz)     0.0000  0.0000  0.0000  0.7296  0.0000  0.7982  0.0000  0.1129
  25.  H 6 (s)      0.0629 -0.0342  0.0257  0.0493  0.0112  0.0094  0.0266  0.3573
  26.  H 6 (s)      0.0481 -0.9105  0.5665  1.1277 -0.0161  0.8537  0.5368 -0.0485
  27.  H 7 (s)      0.0629 -0.0342  0.0257 -0.0493  0.0112 -0.0094  0.0266 -0.3573
  28.  H 7 (s)      0.0481 -0.9105  0.5665 -1.1277 -0.0161 -0.8537  0.5368  0.0485

           AO         17      18      19      20      21      22      23      24
      ------------ ------- ------- ------- ------- ------- ------- ------- -------
   1.  C 1 (s)     -0.0300  0.0156  0.0000 -0.0178 -0.0399 -0.0624  0.0000 -0.0177
   2.  C 1 (s)      0.2397 -0.1562  0.0000  0.1307  0.1326  0.3258  0.0000  0.2802
   3.  C 1 (px)    -0.1968 -0.6212  0.0000  0.1673 -0.6657  0.5262  0.0000 -0.4789
   4.  C 1 (py)    -0.9244  0.4704  0.0000 -0.0357 -0.0980  0.3728  0.0000  0.2150
   5.  C 1 (pz)     0.0000  0.0000 -0.7413  0.0000  0.0000  0.0000  0.4712  0.0000
   6.  C 1 (s)     -0.0453 -0.0106  0.0000 -0.6750 -0.3336 -0.5044  0.0000 -0.3181
   7.  C 1 (px)     0.4925  1.4412  0.0000 -0.4288  1.2419 -0.7113  0.0000  0.0901
   8.  C 1 (py)     1.3244 -0.5197  0.0000  0.2249  0.4601 -0.0585  0.0000 -0.3042
   9.  C 1 (pz)     0.0000  0.0000  1.6146  0.0000  0.0000  0.0000 -0.2825  0.0000
  10.  H 2 (s)     -0.0125  0.3558  0.1068 -0.0430 -0.3592 -0.2889 -0.6109 -0.5749
  11.  H 2 (s)     -0.0869  0.1450 -0.7608 -0.0112  0.4875 -0.0927  0.7028  0.6201
  12.  H 3 (s)     -0.4724 -0.5172  0.0000  0.0352  0.1264 -0.9158  0.0000  0.4950
  13.  H 3 (s)     -0.1228 -0.1589  0.0000  0.2020 -0.8789  1.1011  0.0000 -0.5064
  14.  H 4 (s)     -0.0125  0.3558 -0.1068 -0.0430 -0.3592 -0.2889  0.6109 -0.5749
  15.  H 4 (s)     -0.0869  0.1450  0.7608 -0.0112  0.4875 -0.0927 -0.7028  0.6201
  16.  N 5 (s)      0.0053 -0.0313  0.0000  0.0148  0.0420 -0.0171  0.0000 -0.0495
  17.  N 5 (s)     -0.1085  0.1605  0.0000 -0.0909 -0.2607 -0.0254  0.0000  0.3974
  18.  N 5 (px)    -0.1677 -0.1740  0.0000 -0.7031  0.5202  0.2787  0.0000 -0.2589
  19.  N 5 (py)    -0.0953 -0.0771  0.0000 -0.6275 -0.4013 -0.3744  0.0000 -0.0816
  20.  N 5 (pz)     0.0000  0.0000  0.2711  0.0000  0.0000  0.0000 -0.5953  0.0000
  21.  N 5 (s)      0.6960 -0.1766  0.0000  0.3013  0.1657  0.0672  0.0000 -0.3043
  22.  N 5 (px)     0.1478 -0.1084  0.0000  0.5931 -1.0339 -0.1096  0.0000  0.7278
  23.  N 5 (py)    -0.0139  0.1059  0.0000  0.9989  0.7570  0.4369  0.0000 -0.1935
  24.  N 5 (pz)     0.0000  0.0000 -1.1615  0.0000  0.0000  0.0000  0.3787  0.0000
  25.  H 6 (s)     -0.2073 -0.0606 -0.6817  0.3991  0.3661 -0.3026 -0.6060 -0.5555
  26.  H 6 (s)      0.1042 -0.0628  0.2707 -0.1934  0.0796  0.2419  0.7675  0.1810
  27.  H 7 (s)     -0.2073 -0.0606  0.6817  0.3991  0.3661 -0.3026  0.6060 -0.5555
  28.  H 7 (s)      0.1042 -0.0628 -0.2707 -0.1934  0.0796  0.2419 -0.7675  0.1810

           AO         25      26      27      28
      ------------ ------- ------- ------- -------
   1.  C 1 (s)      0.0000  0.0332 -0.0940  0.1175
   2.  C 1 (s)      0.0000 -0.6573 -2.0516  0.9997
   3.  C 1 (px)     0.0000  0.1216 -0.0397 -0.0263
   4.  C 1 (py)     0.0000 -0.3022  0.0358  0.1836
   5.  C 1 (pz)    -0.5510  0.0000  0.0000  0.0000
   6.  C 1 (s)      0.0000  0.5813  4.1474 -3.7615
   7.  C 1 (px)     0.0000 -0.1892 -0.1677 -0.1336
   8.  C 1 (py)     0.0000  0.7577  0.0615  0.9406
   9.  C 1 (pz)     0.3361  0.0000  0.0000  0.0000
  10.  H 2 (s)      0.4887  0.3831 -0.3195  0.3549
  11.  H 2 (s)     -0.6894 -0.6136 -0.7372  0.2963
  12.  H 3 (s)      0.0000  0.3839 -0.1723  0.4450
  13.  H 3 (s)      0.0000 -0.4691 -0.7426  0.2872
  14.  H 4 (s)     -0.4887  0.3831 -0.3195  0.3549
  15.  H 4 (s)      0.6894 -0.6136 -0.7372  0.2963
  16.  N 5 (s)      0.0000 -0.0415  0.0131 -0.0585
  17.  N 5 (s)      0.0000  0.5591 -0.7388 -1.7787
  18.  N 5 (px)     0.0000  0.3526 -0.1555 -0.0452
  19.  N 5 (py)     0.0000 -0.6322 -0.0114 -0.2192
  20.  N 5 (pz)    -0.8868  0.0000  0.0000  0.0000
  21.  N 5 (s)      0.0000 -0.6482  0.6094  4.0811
  22.  N 5 (px)     0.0000 -0.4272  0.5009  0.5750
  23.  N 5 (py)     0.0000  1.0973 -0.5685  1.2807
  24.  N 5 (pz)     1.4623  0.0000  0.0000  0.0000
  25.  H 6 (s)     -0.0262 -0.3671 -0.1233 -0.5534
  26.  H 6 (s)      0.7530  0.7765 -0.4405 -0.2380
  27.  H 7 (s)      0.0262 -0.3671 -0.1233 -0.5534
  28.  H 7 (s)     -0.7530  0.7765 -0.4405 -0.2380


 NOs in the AO basis:

           AO          1       2       3       4       5       6       7       8
      ------------ ------- ------- ------- ------- ------- ------- ------- -------
   1.  C 1 (s)     -0.0769  0.8332  0.5276 -0.1340  0.0055  0.0309 -0.0657  0.1237
   2.  C 1 (s)      0.0809  0.1373 -0.1906 -0.0468 -0.0802 -0.0005  0.1807 -0.0401
   3.  C 1 (px)    -0.0477  0.0805 -0.0121  0.1693  0.1438 -0.2138 -0.0204 -0.2649
   4.  C 1 (py)     0.0281  0.0275  0.0170  0.1614 -0.0353  0.3057 -0.0064 -0.1581
   5.  C 1 (pz)    -0.0285 -0.0653  0.0836  0.0666 -0.0122 -0.0215  0.1633 -0.0377
   6.  C 1 (s)      0.0849  0.0804 -0.2967  0.0088 -0.1997  0.0197  0.2255 -0.1127
   7.  C 1 (px)    -0.0261  0.0509 -0.0197  0.0975  0.0688 -0.1494 -0.0024 -0.1380
   8.  C 1 (py)     0.0310  0.0128 -0.0034  0.0492  0.0239  0.1569  0.0102 -0.0594
   9.  C 1 (pz)    -0.0178 -0.0408  0.0519  0.0419 -0.0077 -0.0135  0.1018 -0.0237
  10.  H 2 (s)      0.0445 -0.0261 -0.0257  0.0161 -0.0891  0.1334  0.1951  0.0300
  11.  H 2 (s)      0.0183 -0.0369  0.0430  0.0241 -0.0372  0.1010  0.1369  0.0535
  12.  H 3 (s)     -0.0015  0.0907 -0.0832  0.1199  0.0305 -0.0622  0.0504 -0.2745
  13.  H 3 (s)     -0.0346  0.0541  0.0020  0.0809  0.0377 -0.0497 -0.0142 -0.2546
  14.  H 4 (s)      0.0814  0.0594 -0.1455 -0.0621 -0.0766  0.1596 -0.0279  0.0738
  15.  H 4 (s)      0.0517  0.0419 -0.0800 -0.0371 -0.0297  0.1228 -0.0799  0.0871
  16.  N 5 (s)     -0.9217  0.0951 -0.2646  0.1857 -0.0500  0.1535  0.0825  0.1789
  17.  N 5 (s)     -0.0490 -0.0204 -0.0444 -0.3044  0.2028  0.0136  0.0408 -0.1050
  18.  N 5 (px)     0.1197  0.0690 -0.0938  0.2459  0.3178  0.0513  0.0812  0.2922
  19.  N 5 (py)     0.0219  0.0378 -0.1443 -0.0528 -0.0759 -0.3495  0.1055  0.2072
  20.  N 5 (pz)     0.0358  0.0923 -0.2183 -0.0079 -0.0154  0.0115 -0.3201 -0.0003
  21.  N 5 (s)      0.0092 -0.0546  0.0146 -0.4770  0.3081 -0.0349  0.0098 -0.1780
  22.  N 5 (px)     0.1217  0.0564 -0.0931  0.2119  0.2516  0.0358  0.0825  0.3162
  23.  N 5 (py)     0.0295  0.0260 -0.0855 -0.0129  0.0110 -0.2452  0.0644  0.2034
  24.  N 5 (pz)     0.0242  0.0618 -0.1416 -0.0092 -0.0088  0.0085 -0.2103  0.0022
  25.  H 6 (s)      0.0114 -0.0529  0.1245 -0.0040  0.1836  0.0966  0.2018  0.0107
  26.  H 6 (s)     -0.0031 -0.0359  0.0954  0.0541  0.0571  0.0739  0.1298  0.0173
  27.  H 7 (s)      0.0548  0.0583 -0.1322 -0.0189  0.1671  0.1116 -0.1783  0.0137
  28.  H 7 (s)      0.0283  0.0437 -0.0802  0.0364  0.0479  0.0862 -0.1349  0.0238

           AO          9      10      11      12      13      14      15      16
      ------------ ------- ------- ------- ------- ------- ------- ------- -------
   1.  C 1 (s)      0.0903  0.0136  0.0920 -0.0021  0.0279 -0.0012  0.0348 -0.0138
   2.  C 1 (s)     -0.0046 -0.0041 -0.8603  0.3669 -0.2369 -0.1482 -0.3097  0.1992
   3.  C 1 (px)    -0.0432  0.0124  0.0137 -0.1226 -0.9825  0.0498 -0.3218  0.0280
   4.  C 1 (py)    -0.0227  0.0509  0.1197  0.0626 -0.0866  0.0127  0.3029 -0.0913
   5.  C 1 (pz)     0.3672  0.3018 -0.0981  0.1770 -0.1024  0.6972 -0.0220 -0.4327
   6.  C 1 (s)     -0.0305 -0.1500  0.1588 -0.6674  0.0184  0.1987  0.0189 -0.0448
   7.  C 1 (px)    -0.0257 -0.2169  0.7731 -0.2638  0.6010 -0.2654  0.1901  0.2830
   8.  C 1 (py)    -0.0041 -0.2947  0.2917  1.1004 -0.4049 -0.3135  0.4014  0.3484
   9.  C 1 (pz)     0.2317 -2.2806  0.2074 -0.2738  0.2256 -0.3914 -0.0418  0.2429
  10.  H 2 (s)      0.2081  0.4208  0.0357 -0.3485  0.0212 -0.0800 -0.0137  0.2785
  11.  H 2 (s)      0.1494  1.2891  0.3957 -0.1498 -0.0563 -0.0788 -0.0427  0.0230
  12.  H 3 (s)     -0.0400  0.0240  0.1136 -0.0260  0.1679  0.1659 -0.0332 -0.2943
  13.  H 3 (s)     -0.0297  0.3416 -0.8429  0.0402  0.3753  0.0552  0.0899 -0.2236
  14.  H 4 (s)     -0.1971 -0.3288  0.1201 -0.4746  0.1428 -0.0147  0.0130 -0.0932
  15.  H 4 (s)     -0.1324 -1.2932  0.6296  0.0263  0.0797  0.1941 -0.2911 -0.1341
  16.  N 5 (s)     -0.0391 -0.0077 -0.0482  0.0230  0.0235  0.0135 -0.0746  0.0165
  17.  N 5 (s)      0.0364  0.0799 -0.0135 -0.3091 -0.3876 -0.1346  1.0108  0.1328
  18.  N 5 (px)     0.0058  0.0069  0.0921 -0.1833 -0.1235 -0.3421  0.0029 -0.5745
  19.  N 5 (py)     0.0022 -0.0231  0.2619  0.4645  0.0616 -0.0154 -0.0564  0.0588
  20.  N 5 (pz)     0.2077 -0.1590 -0.2161 -0.2587 -0.0431  0.6271  0.2164  0.2400
  21.  N 5 (s)      0.0596 -0.1436  0.4125  0.5644  0.2359  0.0780 -0.6646 -0.3613
  22.  N 5 (px)     0.0085  0.1142 -0.1256 -0.1153  0.1128  0.4442 -0.1893  0.2810
  23.  N 5 (py)     0.0069 -0.1085  0.1548  0.4942 -0.3148 -0.1642  0.7539  0.1469
  24.  N 5 (pz)     0.1058  1.0280  0.7939  0.6045  0.1913 -0.1974 -0.4089 -0.5986
  25.  H 6 (s)     -0.0881  0.1030 -0.3867  0.3091 -0.0570  0.1780  0.3279 -0.4652
  26.  H 6 (s)     -0.0423  0.1917  1.0274  0.5032  0.1178  0.0126 -0.3503  0.5949
  27.  H 7 (s)      0.1160 -0.2739 -0.0590  0.0226 -0.0546  0.1339  0.2194  0.4104
  28.  H 7 (s)      0.0451 -0.2177 -0.8760  0.2309 -0.3355 -0.5713  0.2918  0.1304

           AO         17      18      19      20      21      22      23      24
      ------------ ------- ------- ------- ------- ------- ------- ------- -------
   1.  C 1 (s)      0.0122 -0.0034 -0.0550  0.0581  0.0492 -0.0084  0.0014  0.0544
   2.  C 1 (s)      0.0222  0.1083  0.3720 -0.1225 -0.5908  0.2356 -0.0408  0.2756
   3.  C 1 (px)     0.2524  0.0659 -0.2244  0.4708 -0.0603 -0.0567  0.1225  0.1538
   4.  C 1 (py)     0.6738 -0.0335  0.7796  0.1288  0.1232 -0.4632 -0.0951 -0.1149
   5.  C 1 (pz)    -0.4537  0.0579  0.1141 -0.1607  0.0616 -0.4785 -0.0200  0.4557
   6.  C 1 (s)     -0.2431  0.1881  0.0509 -0.5413 -0.0107 -0.0318  0.1783 -0.6248
   7.  C 1 (px)    -1.1002 -0.2797  1.1686 -1.0318  0.7047  0.5937  0.3573 -0.0496
   8.  C 1 (py)    -0.8944 -0.3182 -0.5580 -0.6569  0.0760  0.5206 -0.1427  0.3490
   9.  C 1 (pz)     0.3483 -0.0668 -0.0638  0.4657 -0.3483  0.2601  0.0105 -0.5698
  10.  H 2 (s)     -0.3390 -0.2571  0.1480  0.6216  0.1319  0.2823  0.2067 -0.1658
  11.  H 2 (s)      0.2444  0.3614 -0.0293 -1.0634  0.6840 -0.0766 -0.0787  0.6579
  12.  H 3 (s)      0.3298 -0.3838 -0.6173 -0.5877  0.0563 -0.1292 -0.1312 -0.1662
  13.  H 3 (s)      0.6655  0.6537 -0.4587  1.9276 -0.5963 -0.3199 -0.3100  0.3924
  14.  H 4 (s)      0.1114  0.0027 -0.0529 -0.0919 -0.0220 -0.0976  0.4103  1.0344
  15.  H 4 (s)     -0.4638 -0.0349  0.3689  0.5197  0.1550  0.1784  0.0794 -1.3223
  16.  N 5 (s)     -0.0027 -0.0543 -0.0157  0.0200  0.0205  0.0320  0.0131  0.0015
  17.  N 5 (s)     -0.3614 -0.1773 -0.2371  0.2277 -0.8370 -0.0535  0.2396  0.1983
  18.  N 5 (px)    -0.1752 -0.2875  0.1821  0.0732 -0.1293  0.3248 -0.5816  0.2042
  19.  N 5 (py)     0.1781  0.5510  0.1000  0.2268  0.1645  0.1577 -0.1301  0.3258
  20.  N 5 (pz)     0.2093 -0.1197  0.0466  0.0027  0.2733  0.4595 -0.2624  0.2407
  21.  N 5 (s)      0.3065  1.2632  0.2963 -0.8474  1.1623  0.1596 -0.5126 -0.3672
  22.  N 5 (px)     0.5230  1.0324 -0.3645 -0.1586 -0.0505 -0.6434  0.3301 -0.4786
  23.  N 5 (py)    -0.1621 -1.3445 -0.1437 -0.2142  0.1562 -0.1768  0.0611  0.0618
  24.  N 5 (pz)     0.0727 -0.0455  0.1675 -0.0145 -1.0053  0.2179  0.8735 -0.3824
  25.  H 6 (s)      0.1437 -0.1610  0.0043  0.1536  0.3769  0.7177  0.7282 -0.0989
  26.  H 6 (s)     -0.0245 -1.1749 -0.0525  0.1015 -1.4895  0.0335 -0.0711  0.3209
  27.  H 7 (s)     -0.0959  0.0166 -0.1172  0.0339  0.0389  0.0457 -0.3535 -0.1556
  28.  H 7 (s)     -0.4908 -1.1186 -0.2709  0.2642  0.8469 -0.4275  0.0487  0.7655

           AO         25      26      27      28
      ------------ ------- ------- ------- -------
   1.  C 1 (s)     -0.0436  0.1456  0.0462  0.1109
   2.  C 1 (s)     -0.2573  1.8764  0.1816  0.7683
   3.  C 1 (px)    -0.0113 -0.1619 -0.1048  0.1406
   4.  C 1 (py)    -0.0516  0.1189  0.0520  0.0330
   5.  C 1 (pz)    -0.0619  0.0052 -0.1407 -0.0330
   6.  C 1 (s)      0.2744 -5.1324 -0.0950 -3.4350
   7.  C 1 (px)    -0.1236  0.6176 -0.1570 -0.5014
   8.  C 1 (py)     0.2843 -0.4221  0.0939  1.6467
   9.  C 1 (pz)     0.0178  0.0433  0.2524  0.0675
  10.  H 2 (s)     -0.5684 -0.0101  0.5207  0.5041
  11.  H 2 (s)      0.3396  1.7117 -0.7267 -0.3302
  12.  H 3 (s)     -0.5011  0.2906  0.6428  0.1336
  13.  H 3 (s)      0.2773  0.6472 -0.5181  0.6653
  14.  H 4 (s)     -0.3742  0.0499 -0.1768  0.4079
  15.  H 4 (s)      0.0568  1.7014  0.4583 -0.1111
  16.  N 5 (s)     -0.0256 -0.0183 -0.0574 -0.0925
  17.  N 5 (s)      0.0162  0.1470  0.2217 -1.3609
  18.  N 5 (px)     0.0050 -0.0060 -0.0178 -0.0445
  19.  N 5 (py)    -0.3127  0.0111  0.3806 -0.4246
  20.  N 5 (pz)     0.3904  0.0227  0.2462 -0.0118
  21.  N 5 (s)      0.1130  0.3883  0.1509  4.0380
  22.  N 5 (px)     0.2895 -0.1312  0.4066  0.5352
  23.  N 5 (py)     0.1584  0.5429 -0.3953  1.8375
  24.  N 5 (pz)    -0.2095 -0.0971 -0.2983  0.1193
  25.  H 6 (s)     -0.1634 -0.0051 -0.2472 -0.4383
  26.  H 6 (s)     -0.0823  0.0570 -0.3078 -0.1070
  27.  H 7 (s)     -0.9061  0.0020 -0.8219 -0.4145
  28.  H 7 (s)      0.6392  0.1890  0.7382 -0.3899


 AO overlap matrix:

           AO          1       2       3       4       5       6       7       8
      ------------ ------- ------- ------- ------- ------- ------- ------- -------
   1.  C 1 (s)      1.0000  0.1903  0.0000  0.0000  0.0000  0.1846  0.0000  0.0000
   2.  C 1 (s)      0.1903  1.0000  0.0000  0.0000  0.0000  0.8114  0.0000  0.0000
   3.  C 1 (px)     0.0000  0.0000  1.0000  0.0000  0.0000  0.0000  0.5686  0.0000
   4.  C 1 (py)     0.0000  0.0000  0.0000  1.0000  0.0000  0.0000  0.0000  0.5686
   5.  C 1 (pz)     0.0000  0.0000  0.0000  0.0000  1.0000  0.0000  0.0000  0.0000
   6.  C 1 (s)      0.1846  0.8114  0.0000  0.0000  0.0000  1.0000  0.0000  0.0000
   7.  C 1 (px)     0.0000  0.0000  0.5686  0.0000  0.0000  0.0000  1.0000  0.0000
   8.  C 1 (py)     0.0000  0.0000  0.0000  0.5686  0.0000  0.0000  0.0000  1.0000
   9.  C 1 (pz)     0.0000  0.0000  0.0000  0.0000  0.5686  0.0000  0.0000  0.0000
  10.  H 2 (s)      0.0303  0.2604 -0.1695  0.1143  0.2824  0.3766 -0.2563  0.1728
  11.  H 2 (s)      0.0869  0.4559 -0.1198  0.0808  0.1996  0.6931 -0.2778  0.1873
  12.  H 3 (s)      0.0297  0.2576  0.3166  0.1392  0.0000  0.3748  0.4822  0.2120
  13.  H 3 (s)      0.0864  0.4540  0.2255  0.0991  0.0000  0.6911  0.5237  0.2302
  14.  H 4 (s)      0.0303  0.2604 -0.1695  0.1143 -0.2824  0.3766 -0.2563  0.1728
  15.  H 4 (s)      0.0869  0.4559 -0.1198  0.0808 -0.1996  0.6931 -0.2778  0.1873
  16.  N 5 (s)      0.0000  0.0048  0.0000 -0.0124  0.0000  0.0357  0.0000 -0.0837
  17.  N 5 (s)      0.0020  0.0806  0.0000 -0.1384  0.0000  0.2212  0.0000 -0.4295
  18.  N 5 (px)     0.0000  0.0000  0.0391  0.0000  0.0000  0.0000  0.1321  0.0000
  19.  N 5 (py)     0.0056  0.1218  0.0000 -0.1887  0.0000  0.1589  0.0000 -0.1856
  20.  N 5 (pz)     0.0000  0.0000  0.0000  0.0000  0.0391  0.0000  0.0000  0.0000
  21.  N 5 (s)      0.0386  0.2476  0.0000 -0.2303  0.0000  0.4465  0.0000 -0.5927
  22.  N 5 (px)     0.0000  0.0000  0.1726  0.0000  0.0000  0.0000  0.4441  0.0000
  23.  N 5 (py)     0.0989  0.4689  0.0000 -0.2855  0.0000  0.5342  0.0000 -0.2649
  24.  N 5 (pz)     0.0000  0.0000  0.0000  0.0000  0.1726  0.0000  0.0000  0.0000
  25.  H 6 (s)      0.0001  0.0092  0.0051 -0.0166 -0.0076  0.0792  0.0561 -0.1817
  26.  H 6 (s)      0.0162  0.1194  0.0313 -0.1012 -0.0461  0.2760  0.1157 -0.3748
  27.  H 7 (s)      0.0001  0.0092  0.0051 -0.0166  0.0076  0.0792  0.0561 -0.1817
  28.  H 7 (s)      0.0162  0.1194  0.0313 -0.1012  0.0461  0.2760  0.1157 -0.3748

           AO          9      10      11      12      13      14      15      16
      ------------ ------- ------- ------- ------- ------- ------- ------- -------
   1.  C 1 (s)      0.0000  0.0303  0.0869  0.0297  0.0864  0.0303  0.0869  0.0000
   2.  C 1 (s)      0.0000  0.2604  0.4559  0.2576  0.4540  0.2604  0.4559  0.0048
   3.  C 1 (px)     0.0000 -0.1695 -0.1198  0.3166  0.2255 -0.1695 -0.1198  0.0000
   4.  C 1 (py)     0.0000  0.1143  0.0808  0.1392  0.0991  0.1143  0.0808 -0.0124
   5.  C 1 (pz)     0.5686  0.2824  0.1996  0.0000  0.0000 -0.2824 -0.1996  0.0000
   6.  C 1 (s)      0.0000  0.3766  0.6931  0.3748  0.6911  0.3766  0.6931  0.0357
   7.  C 1 (px)     0.0000 -0.2563 -0.2778  0.4822  0.5237 -0.2563 -0.2778  0.0000
   8.  C 1 (py)     0.0000  0.1728  0.1873  0.2120  0.2302  0.1728  0.1873 -0.0837
   9.  C 1 (pz)     1.0000  0.4271  0.4630  0.0000  0.0000 -0.4271 -0.4630  0.0000
  10.  H 2 (s)      0.4271  1.0000  0.6583  0.0194  0.1522  0.0197  0.1532  0.0000
  11.  H 2 (s)      0.4630  0.6583  1.0000  0.1522  0.4065  0.1532  0.4082  0.0108
  12.  H 3 (s)      0.0000  0.0194  0.1522  1.0000  0.6583  0.0194  0.1522  0.0000
  13.  H 3 (s)      0.0000  0.1522  0.4065  0.6583  1.0000  0.1522  0.4065  0.0094
  14.  H 4 (s)     -0.4271  0.0197  0.1532  0.0194  0.1522  1.0000  0.6583  0.0000
  15.  H 4 (s)     -0.4630  0.1532  0.4082  0.1522  0.4065  0.6583  1.0000  0.0108
  16.  N 5 (s)      0.0000  0.0000  0.0108  0.0000  0.0094  0.0000  0.0108  1.0000
  17.  N 5 (s)      0.0000  0.0030  0.0802  0.0021  0.0710  0.0030  0.0802  0.1971
  18.  N 5 (px)     0.0000 -0.0016 -0.0180  0.0021  0.0300 -0.0016 -0.0180  0.0000
  19.  N 5 (py)     0.0000  0.0054  0.0626  0.0040  0.0577  0.0054  0.0626  0.0000
  20.  N 5 (pz)     0.1321  0.0026  0.0300  0.0000  0.0000 -0.0026 -0.0300  0.0000
  21.  N 5 (s)      0.0000  0.0504  0.2192  0.0431  0.2011  0.0504  0.2192  0.1696
  22.  N 5 (px)     0.0000 -0.0360 -0.0868  0.0582  0.1506 -0.0360 -0.0868  0.0000
  23.  N 5 (py)     0.0000  0.1252  0.3022  0.1120  0.2898  0.1252  0.3022  0.0000
  24.  N 5 (pz)     0.4441  0.0600  0.1447  0.0000  0.0000 -0.0600 -0.1447  0.0000
  25.  H 6 (s)     -0.0827  0.0000  0.0114  0.0008  0.0426  0.0009  0.0437  0.0295
  26.  H 6 (s)     -0.1707  0.0114  0.0821  0.0426  0.1853  0.0437  0.1882  0.0731
  27.  H 7 (s)      0.0827  0.0009  0.0437  0.0008  0.0426  0.0000  0.0114  0.0295
  28.  H 7 (s)      0.1707  0.0437  0.1882  0.0426  0.1853  0.0114  0.0821  0.0731

           AO         17      18      19      20      21      22      23      24
      ------------ ------- ------- ------- ------- ------- ------- ------- -------
   1.  C 1 (s)      0.0020  0.0000  0.0056  0.0000  0.0386  0.0000  0.0989  0.0000
   2.  C 1 (s)      0.0806  0.0000  0.1218  0.0000  0.2476  0.0000  0.4689  0.0000
   3.  C 1 (px)     0.0000  0.0391  0.0000  0.0000  0.0000  0.1726  0.0000  0.0000
   4.  C 1 (py)    -0.1384  0.0000 -0.1887  0.0000 -0.2303  0.0000 -0.2855  0.0000
   5.  C 1 (pz)     0.0000  0.0000  0.0000  0.0391  0.0000  0.0000  0.0000  0.1726
   6.  C 1 (s)      0.2212  0.0000  0.1589  0.0000  0.4465  0.0000  0.5342  0.0000
   7.  C 1 (px)     0.0000  0.1321  0.0000  0.0000  0.0000  0.4441  0.0000  0.0000
   8.  C 1 (py)    -0.4295  0.0000 -0.1856  0.0000 -0.5927  0.0000 -0.2649  0.0000
   9.  C 1 (pz)     0.0000  0.0000  0.0000  0.1321  0.0000  0.0000  0.0000  0.4441
  10.  H 2 (s)      0.0030 -0.0016  0.0054  0.0026  0.0504 -0.0360  0.1252  0.0600
  11.  H 2 (s)      0.0802 -0.0180  0.0626  0.0300  0.2192 -0.0868  0.3022  0.1447
  12.  H 3 (s)      0.0021  0.0021  0.0040  0.0000  0.0431  0.0582  0.1120  0.0000
  13.  H 3 (s)      0.0710  0.0300  0.0577  0.0000  0.2011  0.1506  0.2898  0.0000
  14.  H 4 (s)      0.0030 -0.0016  0.0054 -0.0026  0.0504 -0.0360  0.1252 -0.0600
  15.  H 4 (s)      0.0802 -0.0180  0.0626 -0.0300  0.2192 -0.0868  0.3022 -0.1447
  16.  N 5 (s)      0.1971  0.0000  0.0000  0.0000  0.1696  0.0000  0.0000  0.0000
  17.  N 5 (s)      1.0000  0.0000  0.0000  0.0000  0.7759  0.0000  0.0000  0.0000
  18.  N 5 (px)     0.0000  1.0000  0.0000  0.0000  0.0000  0.5196  0.0000  0.0000
  19.  N 5 (py)     0.0000  0.0000  1.0000  0.0000  0.0000  0.0000  0.5196  0.0000
  20.  N 5 (pz)     0.0000  0.0000  0.0000  1.0000  0.0000  0.0000  0.0000  0.5196
  21.  N 5 (s)      0.7759  0.0000  0.0000  0.0000  1.0000  0.0000  0.0000  0.0000
  22.  N 5 (px)     0.0000  0.5196  0.0000  0.0000  0.0000  1.0000  0.0000  0.0000
  23.  N 5 (py)     0.0000  0.0000  0.5196  0.0000  0.0000  0.0000  1.0000  0.0000
  24.  N 5 (pz)     0.0000  0.0000  0.0000  0.5196  0.0000  0.0000  0.0000  1.0000
  25.  H 6 (s)      0.2374  0.1599 -0.0889 -0.2358  0.3958  0.2987 -0.1661 -0.4406
  26.  H 6 (s)      0.4020  0.0982 -0.0546 -0.1449  0.6838  0.2832 -0.1575 -0.4178
  27.  H 7 (s)      0.2374  0.1599 -0.0889  0.2358  0.3958  0.2987 -0.1661  0.4406
  28.  H 7 (s)      0.4020  0.0982 -0.0546  0.1449  0.6838  0.2832 -0.1575  0.4178

           AO         25      26      27      28
      ------------ ------- ------- ------- -------
   1.  C 1 (s)      0.0001  0.0162  0.0001  0.0162
   2.  C 1 (s)      0.0092  0.1194  0.0092  0.1194
   3.  C 1 (px)     0.0051  0.0313  0.0051  0.0313
   4.  C 1 (py)    -0.0166 -0.1012 -0.0166 -0.1012
   5.  C 1 (pz)    -0.0076 -0.0461  0.0076  0.0461
   6.  C 1 (s)      0.0792  0.2760  0.0792  0.2760
   7.  C 1 (px)     0.0561  0.1157  0.0561  0.1157
   8.  C 1 (py)    -0.1817 -0.3748 -0.1817 -0.3748
   9.  C 1 (pz)    -0.0827 -0.1707  0.0827  0.1707
  10.  H 2 (s)      0.0000  0.0114  0.0009  0.0437
  11.  H 2 (s)      0.0114  0.0821  0.0437  0.1882
  12.  H 3 (s)      0.0008  0.0426  0.0008  0.0426
  13.  H 3 (s)      0.0426  0.1853  0.0426  0.1853
  14.  H 4 (s)      0.0009  0.0437  0.0000  0.0114
  15.  H 4 (s)      0.0437  0.1882  0.0114  0.0821
  16.  N 5 (s)      0.0295  0.0731  0.0295  0.0731
  17.  N 5 (s)      0.2374  0.4020  0.2374  0.4020
  18.  N 5 (px)     0.1599  0.0982  0.1599  0.0982
  19.  N 5 (py)    -0.0889 -0.0546 -0.0889 -0.0546
  20.  N 5 (pz)    -0.2358 -0.1449  0.2358  0.1449
  21.  N 5 (s)      0.3958  0.6838  0.3958  0.6838
  22.  N 5 (px)     0.2987  0.2832  0.2987  0.2832
  23.  N 5 (py)    -0.1661 -0.1575 -0.1661 -0.1575
  24.  N 5 (pz)    -0.4406 -0.4178  0.4406  0.4178
  25.  H 6 (s)      1.0000  0.6583  0.0333  0.1886
  26.  H 6 (s)      0.6583  1.0000  0.1886  0.4640
  27.  H 7 (s)      0.0333  0.1886  1.0000  0.6583
  28.  H 7 (s)      0.1886  0.4640  0.6583  1.0000


 AO bond-order matrix:

           AO          1       2       3       4       5       6       7       8
      ------------ ------- ------- ------- ------- ------- ------- ------- -------
   1.  C 1 (s)      2.0506 -0.0076  0.0010 -0.0076  0.0000 -0.2585 -0.0050 -0.0069
   2.  C 1 (s)     -0.0076  0.2093 -0.0054  0.0064  0.0000  0.2709  0.0077  0.0097
   3.  C 1 (px)     0.0010 -0.0054  0.3528  0.0011  0.0000  0.0023  0.2033 -0.0130
   4.  C 1 (py)    -0.0076  0.0064  0.0011  0.2963  0.0000  0.0622 -0.0192  0.1313
   5.  C 1 (pz)     0.0000  0.0000  0.0000  0.0000  0.3601  0.0000  0.0000  0.0000
   6.  C 1 (s)     -0.2585  0.2709  0.0023  0.0622  0.0000  0.4131  0.0153  0.0251
   7.  C 1 (px)    -0.0050  0.0077  0.2033 -0.0192  0.0000  0.0153  0.1198 -0.0176
   8.  C 1 (py)    -0.0069  0.0097 -0.0130  0.1313  0.0000  0.0251 -0.0176  0.0648
   9.  C 1 (pz)     0.0000  0.0000  0.0000  0.0000  0.2266  0.0000  0.0000  0.0000
  10.  H 2 (s)     -0.0551  0.0887 -0.1269  0.0718  0.2095  0.1283 -0.0729  0.0401
  11.  H 2 (s)      0.0027  0.0239 -0.1013  0.0472  0.1612  0.0315 -0.0601  0.0274
  12.  H 3 (s)     -0.0538  0.0809  0.2396  0.0885  0.0000  0.1382  0.1363  0.0305
  13.  H 3 (s)      0.0068  0.0105  0.2095  0.0762  0.0000  0.0388  0.1149  0.0236
  14.  H 4 (s)     -0.0551  0.0887 -0.1269  0.0718 -0.2095  0.1283 -0.0729  0.0401
  15.  H 4 (s)      0.0027  0.0239 -0.1013  0.0472 -0.1612  0.0315 -0.0601  0.0274
  16.  N 5 (s)      0.0066 -0.0159 -0.0022  0.0459  0.0000  0.0444  0.0040 -0.0081
  17.  N 5 (s)     -0.0135  0.0222  0.0027 -0.0786  0.0000 -0.0312 -0.0064 -0.0062
  18.  N 5 (px)     0.0010  0.0059 -0.0039  0.0019  0.0000 -0.0631 -0.0005  0.0322
  19.  N 5 (py)    -0.0632  0.1079  0.0030 -0.2939  0.0000  0.1118  0.0343 -0.1376
  20.  N 5 (pz)     0.0000  0.0000  0.0000  0.0000 -0.0037  0.0000  0.0000  0.0000
  21.  N 5 (s)      0.0174 -0.0066  0.0208 -0.1455  0.0000 -0.1078 -0.0008 -0.0232
  22.  N 5 (px)    -0.0059  0.0148 -0.0430 -0.0221  0.0000 -0.0450 -0.0198  0.0178
  23.  N 5 (py)    -0.0198  0.0511 -0.0039 -0.2201  0.0000  0.0284  0.0199 -0.0975
  24.  N 5 (pz)     0.0000  0.0000  0.0000  0.0000 -0.0257  0.0000  0.0000  0.0000
  25.  H 6 (s)      0.0108 -0.0165 -0.0087  0.0448  0.0183 -0.0561 -0.0146  0.0407
  26.  H 6 (s)      0.0116 -0.0151 -0.0155  0.0545  0.0335 -0.0246 -0.0142  0.0304
  27.  H 7 (s)      0.0108 -0.0165 -0.0087  0.0448 -0.0183 -0.0561 -0.0146  0.0407
  28.  H 7 (s)      0.0116 -0.0151 -0.0155  0.0545 -0.0335 -0.0246 -0.0142  0.0304

           AO          9      10      11      12      13      14      15      16
      ------------ ------- ------- ------- ------- ------- ------- ------- -------
   1.  C 1 (s)      0.0000 -0.0551  0.0027 -0.0538  0.0068 -0.0551  0.0027  0.0066
   2.  C 1 (s)      0.0000  0.0887  0.0239  0.0809  0.0105  0.0887  0.0239 -0.0159
   3.  C 1 (px)     0.0000 -0.1269 -0.1013  0.2396  0.2095 -0.1269 -0.1013 -0.0022
   4.  C 1 (py)     0.0000  0.0718  0.0472  0.0885  0.0762  0.0718  0.0472  0.0459
   5.  C 1 (pz)     0.2266  0.2095  0.1612  0.0000  0.0000 -0.2095 -0.1612  0.0000
   6.  C 1 (s)      0.0000  0.1283  0.0315  0.1382  0.0388  0.1283  0.0315  0.0444
   7.  C 1 (px)     0.0000 -0.0729 -0.0601  0.1363  0.1149 -0.0729 -0.0601  0.0040
   8.  C 1 (py)     0.0000  0.0401  0.0274  0.0305  0.0236  0.0401  0.0274 -0.0081
   9.  C 1 (pz)     0.1426  0.1317  0.1013  0.0000  0.0000 -0.1317 -0.1013  0.0000
  10.  H 2 (s)      0.1317  0.2232  0.1545 -0.0322 -0.0566 -0.0227 -0.0377  0.0090
  11.  H 2 (s)      0.1013  0.1545  0.1193 -0.0505 -0.0540 -0.0377 -0.0350  0.0102
  12.  H 3 (s)      0.0000 -0.0322 -0.0505  0.2276  0.1782 -0.0322 -0.0505 -0.0004
  13.  H 3 (s)      0.0000 -0.0566 -0.0540  0.1782  0.1609 -0.0566 -0.0540 -0.0072
  14.  H 4 (s)     -0.1317 -0.0227 -0.0377 -0.0322 -0.0566  0.2232  0.1545  0.0090
  15.  H 4 (s)     -0.1013 -0.0377 -0.0350 -0.0505 -0.0540  0.1545  0.1193  0.0102
  16.  N 5 (s)      0.0000  0.0090  0.0102 -0.0004 -0.0072  0.0090  0.0102  2.0591
  17.  N 5 (s)      0.0000 -0.0185 -0.0202  0.0004  0.0158 -0.0185 -0.0202 -0.0529
  18.  N 5 (px)     0.0000  0.0285  0.0450 -0.0530 -0.0940  0.0285  0.0450  0.0350
  19.  N 5 (py)     0.0000 -0.0195 -0.0302 -0.0463 -0.0861 -0.0195 -0.0302  0.0152
  20.  N 5 (pz)    -0.0011 -0.0233 -0.0468  0.0000  0.0000  0.0233  0.0468  0.0000
  21.  N 5 (s)      0.0000 -0.0587 -0.0458 -0.0096  0.0299 -0.0587 -0.0458 -0.3205
  22.  N 5 (px)     0.0000  0.0389  0.0500 -0.0789 -0.1168  0.0389  0.0500  0.0262
  23.  N 5 (py)     0.0000 -0.0219 -0.0177 -0.0588 -0.0822 -0.0219 -0.0177 -0.0024
  24.  N 5 (pz)    -0.0154 -0.0281 -0.0396  0.0000  0.0000  0.0281  0.0396  0.0000
  25.  H 6 (s)      0.0108  0.0330  0.0508 -0.0106 -0.0084 -0.0124 -0.0171 -0.0430
  26.  H 6 (s)      0.0206  0.0421  0.0488 -0.0082 -0.0076 -0.0124 -0.0144  0.0165
  27.  H 7 (s)     -0.0108 -0.0124 -0.0171 -0.0106 -0.0084  0.0330  0.0508 -0.0430
  28.  H 7 (s)     -0.0206 -0.0124 -0.0144 -0.0082 -0.0076  0.0421  0.0488  0.0165

           AO         17      18      19      20      21      22      23      24
      ------------ ------- ------- ------- ------- ------- ------- ------- -------
   1.  C 1 (s)     -0.0135  0.0010 -0.0632  0.0000  0.0174 -0.0059 -0.0198  0.0000
   2.  C 1 (s)      0.0222  0.0059  0.1079  0.0000 -0.0066  0.0148  0.0511  0.0000
   3.  C 1 (px)     0.0027 -0.0039  0.0030  0.0000  0.0208 -0.0430 -0.0039  0.0000
   4.  C 1 (py)    -0.0786  0.0019 -0.2939  0.0000 -0.1455 -0.0221 -0.2201  0.0000
   5.  C 1 (pz)     0.0000  0.0000  0.0000 -0.0037  0.0000  0.0000  0.0000 -0.0257
   6.  C 1 (s)     -0.0312 -0.0631  0.1118  0.0000 -0.1078 -0.0450  0.0284  0.0000
   7.  C 1 (px)    -0.0064 -0.0005  0.0343  0.0000 -0.0008 -0.0198  0.0199  0.0000
   8.  C 1 (py)    -0.0062  0.0322 -0.1376  0.0000 -0.0232  0.0178 -0.0975  0.0000
   9.  C 1 (pz)     0.0000  0.0000  0.0000 -0.0011  0.0000  0.0000  0.0000 -0.0154
  10.  H 2 (s)     -0.0185  0.0285 -0.0195 -0.0233 -0.0587  0.0389 -0.0219 -0.0281
  11.  H 2 (s)     -0.0202  0.0450 -0.0302 -0.0468 -0.0458  0.0500 -0.0177 -0.0396
  12.  H 3 (s)      0.0004 -0.0530 -0.0463  0.0000 -0.0096 -0.0789 -0.0588  0.0000
  13.  H 3 (s)      0.0158 -0.0940 -0.0861  0.0000  0.0299 -0.1168 -0.0822  0.0000
  14.  H 4 (s)     -0.0185  0.0285 -0.0195  0.0233 -0.0587  0.0389 -0.0219  0.0281
  15.  H 4 (s)     -0.0202  0.0450 -0.0302  0.0468 -0.0458  0.0500 -0.0177  0.0396
  16.  N 5 (s)     -0.0529  0.0350  0.0152  0.0000 -0.3205  0.0262 -0.0024  0.0000
  17.  N 5 (s)      0.3055 -0.0799 -0.0337  0.0000  0.4569 -0.0910 -0.0277  0.0000
  18.  N 5 (px)    -0.0799  0.5680  0.0657  0.0000 -0.1521  0.5205  0.1316  0.0000
  19.  N 5 (py)    -0.0337  0.0657  0.4149  0.0000 -0.0514  0.0993  0.2968  0.0000
  20.  N 5 (pz)     0.0000  0.0000  0.0000  0.4070  0.0000  0.0000  0.0000  0.2542
  21.  N 5 (s)      0.4569 -0.1521 -0.0514  0.0000  0.7246 -0.1662 -0.0390  0.0000
  22.  N 5 (px)    -0.0910  0.5205  0.0993  0.0000 -0.1662  0.4861  0.1479  0.0000
  23.  N 5 (py)    -0.0277  0.1316  0.2968  0.0000 -0.0390  0.1479  0.2296  0.0000
  24.  N 5 (pz)     0.0000  0.0000  0.0000  0.2542  0.0000  0.0000  0.0000  0.1603
  25.  H 6 (s)      0.0773  0.1347 -0.0878 -0.2324  0.1094  0.1098 -0.0375 -0.1462
  26.  H 6 (s)     -0.0105  0.0776 -0.0621 -0.1501 -0.0236  0.0661 -0.0316 -0.0958
  27.  H 7 (s)      0.0773  0.1347 -0.0878  0.2324  0.1094  0.1098 -0.0375  0.1462
  28.  H 7 (s)     -0.0105  0.0776 -0.0621  0.1501 -0.0236  0.0661 -0.0316  0.0958

           AO         25      26      27      28
      ------------ ------- ------- ------- -------
   1.  C 1 (s)      0.0108  0.0116  0.0108  0.0116
   2.  C 1 (s)     -0.0165 -0.0151 -0.0165 -0.0151
   3.  C 1 (px)    -0.0087 -0.0155 -0.0087 -0.0155
   4.  C 1 (py)     0.0448  0.0545  0.0448  0.0545
   5.  C 1 (pz)     0.0183  0.0335 -0.0183 -0.0335
   6.  C 1 (s)     -0.0561 -0.0246 -0.0561 -0.0246
   7.  C 1 (px)    -0.0146 -0.0142 -0.0146 -0.0142
   8.  C 1 (py)     0.0407  0.0304  0.0407  0.0304
   9.  C 1 (pz)     0.0108  0.0206 -0.0108 -0.0206
  10.  H 2 (s)      0.0330  0.0421 -0.0124 -0.0124
  11.  H 2 (s)      0.0508  0.0488 -0.0171 -0.0144
  12.  H 3 (s)     -0.0106 -0.0082 -0.0106 -0.0082
  13.  H 3 (s)     -0.0084 -0.0076 -0.0084 -0.0076
  14.  H 4 (s)     -0.0124 -0.0124  0.0330  0.0421
  15.  H 4 (s)     -0.0171 -0.0144  0.0508  0.0488
  16.  N 5 (s)     -0.0430  0.0165 -0.0430  0.0165
  17.  N 5 (s)      0.0773 -0.0105  0.0773 -0.0105
  18.  N 5 (px)     0.1347  0.0776  0.1347  0.0776
  19.  N 5 (py)    -0.0878 -0.0621 -0.0878 -0.0621
  20.  N 5 (pz)    -0.2324 -0.1501  0.2324  0.1501
  21.  N 5 (s)      0.1094 -0.0236  0.1094 -0.0236
  22.  N 5 (px)     0.1098  0.0661  0.1098  0.0661
  23.  N 5 (py)    -0.0375 -0.0316 -0.0375 -0.0316
  24.  N 5 (pz)    -0.1462 -0.0958  0.1462  0.0958
  25.  H 6 (s)      0.2201  0.1225 -0.0468 -0.0518
  26.  H 6 (s)      0.1225  0.0820 -0.0518 -0.0344
  27.  H 7 (s)     -0.0468 -0.0518  0.2201  0.1225
  28.  H 7 (s)     -0.0518 -0.0344  0.1225  0.0820


 AO density matrix:

           AO          1       2       3       4       5       6       7       8
      ------------ ------- ------- ------- ------- ------- ------- ------- -------
   1.  C 1 (s)      1.9986  0.4069  0.0002 -0.0022  0.0000  0.3661  0.0002 -0.0042
   2.  C 1 (s)      0.4069  1.4849 -0.0037  0.0488  0.0000  1.6484 -0.0055  0.1100
   3.  C 1 (px)     0.0002 -0.0037  1.2050 -0.0024  0.0000 -0.0044  1.3636  0.0102
   4.  C 1 (py)    -0.0022  0.0488 -0.0024  1.0953  0.0000  0.0891  0.0091  1.1375
   5.  C 1 (pz)     0.0000  0.0000  0.0000  0.0000  1.2288  0.0000  0.0000  0.0000
   6.  C 1 (s)      0.3661  1.6484 -0.0044  0.0891  0.0000  1.8871 -0.0012  0.0471
   7.  C 1 (px)     0.0002 -0.0055  1.3636  0.0091  0.0000 -0.0012  1.5885  0.0139
   8.  C 1 (py)    -0.0042  0.1100  0.0102  1.1375  0.0000  0.0471  0.0139  1.4240
   9.  C 1 (pz)     0.0000  0.0000  0.0000  0.0000  1.3744  0.0000  0.0000  0.0000
  10.  H 2 (s)      0.0511  0.7222 -0.5270  0.3451  0.8869  0.8181 -0.5784  0.3836
  11.  H 2 (s)      0.1640  1.1221 -0.4103  0.3048  0.6861  1.2837 -0.4594  0.3084
  12.  H 3 (s)      0.0499  0.7172  0.9983  0.4072  0.0000  0.8206  1.1015  0.4496
  13.  H 3 (s)      0.1630  1.1186  0.7774  0.3609  0.0000  1.2836  0.8814  0.3741
  14.  H 4 (s)      0.0511  0.7222 -0.5270  0.3451 -0.8869  0.8181 -0.5784  0.3836
  15.  H 4 (s)      0.1640  1.1221 -0.4103  0.3048 -0.6861  1.2837 -0.4594  0.3084
  16.  N 5 (s)      0.0002  0.0051 -0.0001 -0.0140  0.0000  0.0666  0.0002 -0.1568
  17.  N 5 (s)      0.0000  0.2633 -0.0016 -0.5189  0.0000  0.5341 -0.0116 -1.0740
  18.  N 5 (px)     0.0002 -0.0038  0.1341  0.0020  0.0000  0.0076  0.4024 -0.0185
  19.  N 5 (py)     0.0000  0.5061  0.0265 -0.8615  0.0000  0.4247  0.0311 -0.6233
  20.  N 5 (pz)     0.0000  0.0000  0.0000  0.0000  0.1166  0.0000  0.0000  0.0000
  21.  N 5 (s)      0.0753  0.5199 -0.0118 -0.4799  0.0000  0.8421 -0.0060 -1.0708
  22.  N 5 (px)     0.0007 -0.0172  0.4032  0.0289  0.0000  0.0049  0.7106 -0.0132
  23.  N 5 (py)     0.1923  1.0284  0.0189 -0.7182  0.0000  0.9950  0.0145 -0.4305
  24.  N 5 (pz)     0.0000  0.0000  0.0000  0.0000  0.3917  0.0000  0.0000  0.0000
  25.  H 6 (s)      0.0013 -0.0038  0.0202  0.0025 -0.0243  0.1522  0.1313 -0.3305
  26.  H 6 (s)      0.0316  0.2453  0.0733 -0.1228 -0.1171  0.4762  0.1664 -0.5570
  27.  H 7 (s)      0.0013 -0.0038  0.0202  0.0025  0.0243  0.1522  0.1313 -0.3305
  28.  H 7 (s)      0.0316  0.2453  0.0733 -0.1228  0.1171  0.4762  0.1664 -0.5570

           AO          9      10      11      12      13      14      15      16
      ------------ ------- ------- ------- ------- ------- ------- ------- -------
   1.  C 1 (s)      0.0000  0.0511  0.1640  0.0499  0.1630  0.0511  0.1640  0.0002
   2.  C 1 (s)      0.0000  0.7222  1.1221  0.7172  1.1186  0.7222  1.1221  0.0051
   3.  C 1 (px)     0.0000 -0.5270 -0.4103  0.9983  0.7774 -0.5270 -0.4103 -0.0001
   4.  C 1 (py)     0.0000  0.3451  0.3048  0.4072  0.3609  0.3451  0.3048 -0.0140
   5.  C 1 (pz)     1.3744  0.8869  0.6861  0.0000  0.0000 -0.8869 -0.6861  0.0000
   6.  C 1 (s)      0.0000  0.8181  1.2837  0.8206  1.2836  0.8181  1.2837  0.0666
   7.  C 1 (px)     0.0000 -0.5784 -0.4594  1.1015  0.8814 -0.5784 -0.4594  0.0002
   8.  C 1 (py)     0.0000  0.3836  0.3084  0.4496  0.3741  0.3836  0.3084 -0.1568
   9.  C 1 (pz)     1.5884  0.9720  0.7705  0.0000  0.0000 -0.9720 -0.7705  0.0000
  10.  H 2 (s)      0.9720  1.3377  1.3062  0.0255  0.3085  0.0420  0.3182  0.0016
  11.  H 2 (s)      0.7705  1.3062  1.4549  0.3105  0.6825  0.3182  0.6883  0.0202
  12.  H 3 (s)      0.0000  0.0255  0.3105  1.3467  1.3182  0.0255  0.3105  0.0007
  13.  H 3 (s)      0.0000  0.3085  0.6825  1.3182  1.4677  0.3085  0.6825  0.0173
  14.  H 4 (s)     -0.9720  0.0420  0.3182  0.0255  0.3085  1.3377  1.3062  0.0016
  15.  H 4 (s)     -0.7705  0.3182  0.6883  0.3105  0.6825  1.3062  1.4549  0.0202
  16.  N 5 (s)      0.0000  0.0016  0.0202  0.0007  0.0173  0.0016  0.0202  1.9987
  17.  N 5 (s)      0.0000 -0.0314  0.1881 -0.0048  0.1719 -0.0314  0.1881  0.4169
  18.  N 5 (px)     0.0000  0.0249 -0.0377 -0.0674  0.0727  0.0249 -0.0377  0.0055
  19.  N 5 (py)     0.0000 -0.0030  0.1185 -0.0601  0.0903 -0.0030  0.1185  0.0027
  20.  N 5 (pz)     0.3738 -0.0107  0.0800  0.0000  0.0000  0.0107 -0.0800  0.0000
  21.  N 5 (s)      0.0000  0.1107  0.4030  0.1137  0.3783  0.1107  0.4030  0.3306
  22.  N 5 (px)     0.0000 -0.0905 -0.1271  0.1587  0.2503 -0.0905 -0.1271  0.0019
  23.  N 5 (py)     0.0000  0.2844  0.5372  0.2318  0.5085  0.2844  0.5372  0.0027
  24.  N 5 (pz)     0.7100  0.1767  0.2353  0.0000  0.0000 -0.1767 -0.2353  0.0000
  25.  H 6 (s)     -0.2051  0.0719  0.0378 -0.0331  0.0812 -0.0318  0.0867  0.0483
  26.  H 6 (s)     -0.2535  0.0351  0.1512  0.1135  0.2930  0.1086  0.2970  0.1339
  27.  H 7 (s)      0.2051 -0.0318  0.0867 -0.0331  0.0812  0.0719  0.0378  0.0483
  28.  H 7 (s)      0.2535  0.1086  0.2970  0.1135  0.2930  0.0351  0.1512  0.1339

           AO         17      18      19      20      21      22      23      24
      ------------ ------- ------- ------- ------- ------- ------- ------- -------
   1.  C 1 (s)      0.0000  0.0002  0.0000  0.0000  0.0753  0.0007  0.1923  0.0000
   2.  C 1 (s)      0.2633 -0.0038  0.5061  0.0000  0.5199 -0.0172  1.0284  0.0000
   3.  C 1 (px)    -0.0016  0.1341  0.0265  0.0000 -0.0118  0.4032  0.0189  0.0000
   4.  C 1 (py)    -0.5189  0.0020 -0.8615  0.0000 -0.4799  0.0289 -0.7182  0.0000
   5.  C 1 (pz)     0.0000  0.0000  0.0000  0.1166  0.0000  0.0000  0.0000  0.3917
   6.  C 1 (s)      0.5341  0.0076  0.4247  0.0000  0.8421  0.0049  0.9950  0.0000
   7.  C 1 (px)    -0.0116  0.4024  0.0311  0.0000 -0.0060  0.7106  0.0145  0.0000
   8.  C 1 (py)    -1.0740 -0.0185 -0.6233  0.0000 -1.0708 -0.0132 -0.4305  0.0000
   9.  C 1 (pz)     0.0000  0.0000  0.0000  0.3738  0.0000  0.0000  0.0000  0.7100
  10.  H 2 (s)     -0.0314  0.0249 -0.0030 -0.0107  0.1107 -0.0905  0.2844  0.1767
  11.  H 2 (s)      0.1881 -0.0377  0.1185  0.0800  0.4030 -0.1271  0.5372  0.2353
  12.  H 3 (s)     -0.0048 -0.0674 -0.0601  0.0000  0.1137  0.1587  0.2318  0.0000
  13.  H 3 (s)      0.1719  0.0727  0.0903  0.0000  0.3783  0.2503  0.5085  0.0000
  14.  H 4 (s)     -0.0314  0.0249 -0.0030  0.0107  0.1107 -0.0905  0.2844 -0.1767
  15.  H 4 (s)      0.1881 -0.0377  0.1185 -0.0800  0.4030 -0.1271  0.5372 -0.2353
  16.  N 5 (s)      0.4169  0.0055  0.0027  0.0000  0.3306  0.0019  0.0027  0.0000
  17.  N 5 (s)      1.5715 -0.0977 -0.0520  0.0000  1.6961 -0.0594 -0.0717  0.0000
  18.  N 5 (px)    -0.0977  1.4051  0.0973  0.0000 -0.0121  1.4503  0.0494  0.0000
  19.  N 5 (py)    -0.0520  0.0973  1.1661  0.0000 -0.0395  0.0505  1.2606  0.0000
  20.  N 5 (pz)     0.0000  0.0000  0.0000  1.1681  0.0000  0.0000  0.0000  1.3298
  21.  N 5 (s)      1.6961 -0.0121 -0.0395  0.0000  1.8871  0.0293  0.0266  0.0000
  22.  N 5 (px)    -0.0594  1.4503  0.0505  0.0000  0.0293  1.5592 -0.0033  0.0000
  23.  N 5 (py)    -0.0717  0.0494  1.2606  0.0000  0.0266 -0.0033  1.5586  0.0000
  24.  N 5 (pz)     0.0000  0.0000  0.0000  1.3298  0.0000  0.0000  0.0000  1.5690
  25.  H 6 (s)      0.6961  0.5574 -0.3121 -0.8480  0.8011  0.6027 -0.3641 -0.9525
  26.  H 6 (s)      1.0683  0.4185 -0.2387 -0.5934  1.2229  0.4795 -0.2255 -0.6879
  27.  H 7 (s)      0.6961  0.5574 -0.3121  0.8480  0.8011  0.6027 -0.3641  0.9525
  28.  H 7 (s)      1.0683  0.4185 -0.2387  0.5934  1.2229  0.4795 -0.2255  0.6879

           AO         25      26      27      28
      ------------ ------- ------- ------- -------
   1.  C 1 (s)      0.0013  0.0316  0.0013  0.0316
   2.  C 1 (s)     -0.0038  0.2453 -0.0038  0.2453
   3.  C 1 (px)     0.0202  0.0733  0.0202  0.0733
   4.  C 1 (py)     0.0025 -0.1228  0.0025 -0.1228
   5.  C 1 (pz)    -0.0243 -0.1171  0.0243  0.1171
   6.  C 1 (s)      0.1522  0.4762  0.1522  0.4762
   7.  C 1 (px)     0.1313  0.1664  0.1313  0.1664
   8.  C 1 (py)    -0.3305 -0.5570 -0.3305 -0.5570
   9.  C 1 (pz)    -0.2051 -0.2535  0.2051  0.2535
  10.  H 2 (s)      0.0719  0.0351 -0.0318  0.1086
  11.  H 2 (s)      0.0378  0.1512  0.0867  0.2970
  12.  H 3 (s)     -0.0331  0.1135 -0.0331  0.1135
  13.  H 3 (s)      0.0812  0.2930  0.0812  0.2930
  14.  H 4 (s)     -0.0318  0.1086  0.0719  0.0351
  15.  H 4 (s)      0.0867  0.2970  0.0378  0.1512
  16.  N 5 (s)      0.0483  0.1339  0.0483  0.1339
  17.  N 5 (s)      0.6961  1.0683  0.6961  1.0683
  18.  N 5 (px)     0.5574  0.4185  0.5574  0.4185
  19.  N 5 (py)    -0.3121 -0.2387 -0.3121 -0.2387
  20.  N 5 (pz)    -0.8480 -0.5934  0.8480  0.5934
  21.  N 5 (s)      0.8011  1.2229  0.8011  1.2229
  22.  N 5 (px)     0.6027  0.4795  0.6027  0.4795
  23.  N 5 (py)    -0.3641 -0.2255 -0.3641 -0.2255
  24.  N 5 (pz)    -0.9525 -0.6879  0.9525  0.6879
  25.  H 6 (s)      1.2909  1.1898  0.0538  0.3339
  26.  H 6 (s)      1.1898  1.2823  0.3339  0.6738
  27.  H 7 (s)      0.0538  0.3339  1.2909  1.1898
  28.  H 7 (s)      0.3339  0.6738  1.1898  1.2823


 MO density matrix:

      MO     1       2       3       4       5       6       7       8       9
     ---- ------  ------  ------  ------  ------  ------  ------  ------  ------
   1.     2.0000  0.0000  0.0000  0.0000  0.0000  0.0000  0.0000  0.0000  0.0000
   2.     0.0000  2.0000  0.0000  0.0000  0.0000  0.0000  0.0000  0.0000  0.0000
   3.     0.0000  0.0000  2.0000  0.0000  0.0000  0.0000  0.0000  0.0000  0.0000
   4.     0.0000  0.0000  0.0000  2.0000  0.0000  0.0000  0.0000  0.0000  0.0000
   5.     0.0000  0.0000  0.0000  0.0000  2.0000  0.0000  0.0000  0.0000  0.0000
   6.     0.0000  0.0000  0.0000  0.0000  0.0000  2.0000  0.0000  0.0000  0.0000
   7.     0.0000  0.0000  0.0000  0.0000  0.0000  0.0000  2.0000  0.0000  0.0000
   8.     0.0000  0.0000  0.0000  0.0000  0.0000  0.0000  0.0000  2.0000  0.0000
   9.     0.0000  0.0000  0.0000  0.0000  0.0000  0.0000  0.0000  0.0000  2.0000
  10.     0.0000  0.0000  0.0000  0.0000  0.0000  0.0000  0.0000  0.0000  0.0000
  11.     0.0000  0.0000  0.0000  0.0000  0.0000  0.0000  0.0000  0.0000  0.0000
  12.     0.0000  0.0000  0.0000  0.0000  0.0000  0.0000  0.0000  0.0000  0.0000
  13.     0.0000  0.0000  0.0000  0.0000  0.0000  0.0000  0.0000  0.0000  0.0000
  14.     0.0000  0.0000  0.0000  0.0000  0.0000  0.0000  0.0000  0.0000  0.0000
  15.     0.0000  0.0000  0.0000  0.0000  0.0000  0.0000  0.0000  0.0000  0.0000
  16.     0.0000  0.0000  0.0000  0.0000  0.0000  0.0000  0.0000  0.0000  0.0000
  17.     0.0000  0.0000  0.0000  0.0000  0.0000  0.0000  0.0000  0.0000  0.0000
  18.     0.0000  0.0000  0.0000  0.0000  0.0000  0.0000  0.0000  0.0000  0.0000
  19.     0.0000  0.0000  0.0000  0.0000  0.0000  0.0000  0.0000  0.0000  0.0000
  20.     0.0000  0.0000  0.0000  0.0000  0.0000  0.0000  0.0000  0.0000  0.0000
  21.     0.0000  0.0000  0.0000  0.0000  0.0000  0.0000  0.0000  0.0000  0.0000
  22.     0.0000  0.0000  0.0000  0.0000  0.0000  0.0000  0.0000  0.0000  0.0000
  23.     0.0000  0.0000  0.0000  0.0000  0.0000  0.0000  0.0000  0.0000  0.0000
  24.     0.0000  0.0000  0.0000  0.0000  0.0000  0.0000  0.0000  0.0000  0.0000
  25.     0.0000  0.0000  0.0000  0.0000  0.0000  0.0000  0.0000  0.0000  0.0000
  26.     0.0000  0.0000  0.0000  0.0000  0.0000  0.0000  0.0000  0.0000  0.0000
  27.     0.0000  0.0000  0.0000  0.0000  0.0000  0.0000  0.0000  0.0000  0.0000
  28.     0.0000  0.0000  0.0000  0.0000  0.0000  0.0000  0.0000  0.0000  0.0000

      MO    10      11      12      13      14      15      16      17      18
     ---- ------  ------  ------  ------  ------  ------  ------  ------  ------
   1.     0.0000  0.0000  0.0000  0.0000  0.0000  0.0000  0.0000  0.0000  0.0000
   2.     0.0000  0.0000  0.0000  0.0000  0.0000  0.0000  0.0000  0.0000  0.0000
   3.     0.0000  0.0000  0.0000  0.0000  0.0000  0.0000  0.0000  0.0000  0.0000
   4.     0.0000  0.0000  0.0000  0.0000  0.0000  0.0000  0.0000  0.0000  0.0000
   5.     0.0000  0.0000  0.0000  0.0000  0.0000  0.0000  0.0000  0.0000  0.0000
   6.     0.0000  0.0000  0.0000  0.0000  0.0000  0.0000  0.0000  0.0000  0.0000
   7.     0.0000  0.0000  0.0000  0.0000  0.0000  0.0000  0.0000  0.0000  0.0000
   8.     0.0000  0.0000  0.0000  0.0000  0.0000  0.0000  0.0000  0.0000  0.0000
   9.     0.0000  0.0000  0.0000  0.0000  0.0000  0.0000  0.0000  0.0000  0.0000
  10.     0.0000  0.0000  0.0000  0.0000  0.0000  0.0000  0.0000  0.0000  0.0000
  11.     0.0000  0.0000  0.0000  0.0000  0.0000  0.0000  0.0000  0.0000  0.0000
  12.     0.0000  0.0000  0.0000  0.0000  0.0000  0.0000  0.0000  0.0000  0.0000
  13.     0.0000  0.0000  0.0000  0.0000  0.0000  0.0000  0.0000  0.0000  0.0000
  14.     0.0000  0.0000  0.0000  0.0000  0.0000  0.0000  0.0000  0.0000  0.0000
  15.     0.0000  0.0000  0.0000  0.0000  0.0000  0.0000  0.0000  0.0000  0.0000
  16.     0.0000  0.0000  0.0000  0.0000  0.0000  0.0000  0.0000  0.0000  0.0000
  17.     0.0000  0.0000  0.0000  0.0000  0.0000  0.0000  0.0000  0.0000  0.0000
  18.     0.0000  0.0000  0.0000  0.0000  0.0000  0.0000  0.0000  0.0000  0.0000
  19.     0.0000  0.0000  0.0000  0.0000  0.0000  0.0000  0.0000  0.0000  0.0000
  20.     0.0000  0.0000  0.0000  0.0000  0.0000  0.0000  0.0000  0.0000  0.0000
  21.     0.0000  0.0000  0.0000  0.0000  0.0000  0.0000  0.0000  0.0000  0.0000
  22.     0.0000  0.0000  0.0000  0.0000  0.0000  0.0000  0.0000  0.0000  0.0000
  23.     0.0000  0.0000  0.0000  0.0000  0.0000  0.0000  0.0000  0.0000  0.0000
  24.     0.0000  0.0000  0.0000  0.0000  0.0000  0.0000  0.0000  0.0000  0.0000
  25.     0.0000  0.0000  0.0000  0.0000  0.0000  0.0000  0.0000  0.0000  0.0000
  26.     0.0000  0.0000  0.0000  0.0000  0.0000  0.0000  0.0000  0.0000  0.0000
  27.     0.0000  0.0000  0.0000  0.0000  0.0000  0.0000  0.0000  0.0000  0.0000
  28.     0.0000  0.0000  0.0000  0.0000  0.0000  0.0000  0.0000  0.0000  0.0000

      MO    19      20      21      22      23      24      25      26      27
     ---- ------  ------  ------  ------  ------  ------  ------  ------  ------
   1.     0.0000  0.0000  0.0000  0.0000  0.0000  0.0000  0.0000  0.0000  0.0000
   2.     0.0000  0.0000  0.0000  0.0000  0.0000  0.0000  0.0000  0.0000  0.0000
   3.     0.0000  0.0000  0.0000  0.0000  0.0000  0.0000  0.0000  0.0000  0.0000
   4.     0.0000  0.0000  0.0000  0.0000  0.0000  0.0000  0.0000  0.0000  0.0000
   5.     0.0000  0.0000  0.0000  0.0000  0.0000  0.0000  0.0000  0.0000  0.0000
   6.     0.0000  0.0000  0.0000  0.0000  0.0000  0.0000  0.0000  0.0000  0.0000
   7.     0.0000  0.0000  0.0000  0.0000  0.0000  0.0000  0.0000  0.0000  0.0000
   8.     0.0000  0.0000  0.0000  0.0000  0.0000  0.0000  0.0000  0.0000  0.0000
   9.     0.0000  0.0000  0.0000  0.0000  0.0000  0.0000  0.0000  0.0000  0.0000
  10.     0.0000  0.0000  0.0000  0.0000  0.0000  0.0000  0.0000  0.0000  0.0000
  11.     0.0000  0.0000  0.0000  0.0000  0.0000  0.0000  0.0000  0.0000  0.0000
  12.     0.0000  0.0000  0.0000  0.0000  0.0000  0.0000  0.0000  0.0000  0.0000
  13.     0.0000  0.0000  0.0000  0.0000  0.0000  0.0000  0.0000  0.0000  0.0000
  14.     0.0000  0.0000  0.0000  0.0000  0.0000  0.0000  0.0000  0.0000  0.0000
  15.     0.0000  0.0000  0.0000  0.0000  0.0000  0.0000  0.0000  0.0000  0.0000
  16.     0.0000  0.0000  0.0000  0.0000  0.0000  0.0000  0.0000  0.0000  0.0000
  17.     0.0000  0.0000  0.0000  0.0000  0.0000  0.0000  0.0000  0.0000  0.0000
  18.     0.0000  0.0000  0.0000  0.0000  0.0000  0.0000  0.0000  0.0000  0.0000
  19.     0.0000  0.0000  0.0000  0.0000  0.0000  0.0000  0.0000  0.0000  0.0000
  20.     0.0000  0.0000  0.0000  0.0000  0.0000  0.0000  0.0000  0.0000  0.0000
  21.     0.0000  0.0000  0.0000  0.0000  0.0000  0.0000  0.0000  0.0000  0.0000
  22.     0.0000  0.0000  0.0000  0.0000  0.0000  0.0000  0.0000  0.0000  0.0000
  23.     0.0000  0.0000  0.0000  0.0000  0.0000  0.0000  0.0000  0.0000  0.0000
  24.     0.0000  0.0000  0.0000  0.0000  0.0000  0.0000  0.0000  0.0000  0.0000
  25.     0.0000  0.0000  0.0000  0.0000  0.0000  0.0000  0.0000  0.0000  0.0000
  26.     0.0000  0.0000  0.0000  0.0000  0.0000  0.0000  0.0000  0.0000  0.0000
  27.     0.0000  0.0000  0.0000  0.0000  0.0000  0.0000  0.0000  0.0000  0.0000
  28.     0.0000  0.0000  0.0000  0.0000  0.0000  0.0000  0.0000  0.0000  0.0000

      MO    28
     ---- ------
   1.     0.0000
   2.     0.0000
   3.     0.0000
   4.     0.0000
   5.     0.0000
   6.     0.0000
   7.     0.0000
   8.     0.0000
   9.     0.0000
  10.     0.0000
  11.     0.0000
  12.     0.0000
  13.     0.0000
  14.     0.0000
  15.     0.0000
  16.     0.0000
  17.     0.0000
  18.     0.0000
  19.     0.0000
  20.     0.0000
  21.     0.0000
  22.     0.0000
  23.     0.0000
  24.     0.0000
  25.     0.0000
  26.     0.0000
  27.     0.0000
  28.     0.0000


 NATURAL POPULATIONS:  Natural atomic orbital occupancies

  NAO Atom No lang   Type(AO)    Occupancy      Energy
 -------------------------------------------------------
   1    C  1  s      Cor( 1s)     1.99994     -11.22452
   2    C  1  s      Val( 2s)     1.09911      -0.21951
   3    C  1  s      Ryd( 3s)     0.00108       1.53302
   4    C  1  px     Val( 2p)     1.22787      -0.08208
   5    C  1  px     Ryd( 3p)     0.00080       0.93622
   6    C  1  py     Val( 2p)     0.90416      -0.00079
   7    C  1  py     Ryd( 3p)     0.00164       0.83411
   8    C  1  pz     Val( 2p)     1.25437      -0.09529
   9    C  1  pz     Ryd( 3p)     0.00089       0.91490

  10    H  2  s      Val( 1s)     0.76897       0.18077
  11    H  2  s      Ryd( 2s)     0.00122       0.80045

  12    H  3  s      Val( 1s)     0.80021       0.15349
  13    H  3  s      Ryd( 2s)     0.00185       0.80131

  14    H  4  s      Val( 1s)     0.76897       0.18077
  15    H  4  s      Ryd( 2s)     0.00122       0.80045

  16    N  5  s      Cor( 1s)     1.99994     -15.51796
  17    N  5  s      Val( 2s)     1.47510      -0.61158
  18    N  5  s      Ryd( 3s)     0.00032       1.81448
  19    N  5  px     Val( 2p)     1.76410      -0.32574
  20    N  5  px     Ryd( 3p)     0.00353       1.14349
  21    N  5  py     Val( 2p)     1.30792      -0.18048
  22    N  5  py     Ryd( 3p)     0.00186       1.12973
  23    N  5  pz     Val( 2p)     1.36682      -0.19936
  24    N  5  pz     Ryd( 3p)     0.00134       1.18953

  25    H  6  s      Val( 1s)     0.62172       0.24478
  26    H  6  s      Ryd( 2s)     0.00167       0.80438

  27    H  7  s      Val( 1s)     0.62172       0.24478
  28    H  7  s      Ryd( 2s)     0.00167       0.80438


 Summary of Natural Population Analysis:

                                     Natural Population
             Natural    ---------------------------------------------
  Atom No    Charge        Core      Valence    Rydberg      Total
 --------------------------------------------------------------------
    C  1   -0.48986      1.99994     4.48550    0.00441     6.48986
    H  2    0.22981      0.00000     0.76897    0.00122     0.77019
    H  3    0.19794      0.00000     0.80021    0.00185     0.80206
    H  4    0.22981      0.00000     0.76897    0.00122     0.77019
    N  5   -0.92093      1.99994     5.91394    0.00706     7.92093
    H  6    0.37662      0.00000     0.62172    0.00167     0.62338
    H  7    0.37662      0.00000     0.62172    0.00167     0.62338
 ====================================================================
 * Total *  0.00000      3.99988    13.98103    0.01909    18.00000

                                 Natural Population
 ---------------------------------------------------------
   Core                       3.99988 ( 99.9969% of    4)
   Valence                   13.98103 ( 99.8645% of   14)
   Natural Minimal Basis     17.98091 ( 99.8939% of   18)
   Natural Rydberg Basis      0.01909 (  0.1061% of   18)
 ---------------------------------------------------------

    Atom No         Natural Electron Configuration
 ----------------------------------------------------------------------------
      C  1      [core]2s( 1.10)2p( 3.39)
      H  2            1s( 0.77)
      H  3            1s( 0.80)
      H  4            1s( 0.77)
      N  5      [core]2s( 1.48)2p( 4.44)3p( 0.01)
      H  6            1s( 0.62)
      H  7            1s( 0.62)


 PNAOs in the AO basis:

           AO          1       2       3       4       5       6       7       8
      ------------ ------- ------- ------- ------- ------- ------- ------- -------
   1.  C 1 (s)      0.9928 -0.2210 -0.0773  0.0000  0.0000  0.0000  0.0000  0.0000
   2.  C 1 (s)      0.0499  0.1861  1.7044  0.0000  0.0000  0.0000  0.0000  0.0000
   3.  C 1 (px)     0.0000  0.0000  0.0000  0.4118  1.1438  0.0000  0.0000  0.0000
   4.  C 1 (py)     0.0000  0.0000  0.0000  0.0000  0.0000  0.4118  1.1438  0.0000
   5.  C 1 (pz)     0.0000  0.0000  0.0000  0.0000  0.0000  0.0000  0.0000  0.4118
   6.  C 1 (s)     -0.0162  0.8615 -1.4809  0.0000  0.0000  0.0000  0.0000  0.0000
   7.  C 1 (px)     0.0000  0.0000  0.0000  0.7067 -0.9891  0.0000  0.0000  0.0000
   8.  C 1 (py)     0.0000  0.0000  0.0000  0.0000  0.0000  0.7067 -0.9891  0.0000
   9.  C 1 (pz)     0.0000  0.0000  0.0000  0.0000  0.0000  0.0000  0.0000  0.7067
  10.  H 2 (s)      0.0000  0.0000  0.0000  0.0000  0.0000  0.0000  0.0000  0.0000
  11.  H 2 (s)      0.0000  0.0000  0.0000  0.0000  0.0000  0.0000  0.0000  0.0000
  12.  H 3 (s)      0.0000  0.0000  0.0000  0.0000  0.0000  0.0000  0.0000  0.0000
  13.  H 3 (s)      0.0000  0.0000  0.0000  0.0000  0.0000  0.0000  0.0000  0.0000
  14.  H 4 (s)      0.0000  0.0000  0.0000  0.0000  0.0000  0.0000  0.0000  0.0000
  15.  H 4 (s)      0.0000  0.0000  0.0000  0.0000  0.0000  0.0000  0.0000  0.0000
  16.  N 5 (s)      0.0000  0.0000  0.0000  0.0000  0.0000  0.0000  0.0000  0.0000
  17.  N 5 (s)      0.0000  0.0000  0.0000  0.0000  0.0000  0.0000  0.0000  0.0000
  18.  N 5 (px)     0.0000  0.0000  0.0000  0.0000  0.0000  0.0000  0.0000  0.0000
  19.  N 5 (py)     0.0000  0.0000  0.0000  0.0000  0.0000  0.0000  0.0000  0.0000
  20.  N 5 (pz)     0.0000  0.0000  0.0000  0.0000  0.0000  0.0000  0.0000  0.0000
  21.  N 5 (s)      0.0000  0.0000  0.0000  0.0000  0.0000  0.0000  0.0000  0.0000
[...]
        2 eigenvector(s) stashed in permanent list

 Search of NHO DM block for the following atom(s):   1   3
      Select eigenvectors with eigenvalue > 1.900
       1.998 0.015 0.000 0.000 0.000 0.000 0.000 0.000 0.000 0.000 0.000
      Eigenvector ( 1) has occupancy 1.99797
            0.0000 0.0000 0.7773 0.0000 0.0000 0.0000 0.0000 0.0000
            0.0000 0.6292 0.0000
      Occupancy is 1.998 after deleting minor hybrid components
            0.0000 0.0000 0.7773 0.0000 0.0000 0.0000 0.0000 0.0000
            0.0000 0.6292 0.0000
           NBO accepted:    6. Label:BD ( 1)   1   3
      Occupancy is 0.015 for antibonding component
            0.0000 0.0000-0.6292 0.0000 0.0000 0.0000 0.0000 0.0000
            0.0000 0.7773 0.0000
           NBO accepted:    7. Label:BD*( 1)   1   3
        2 eigenvector(s) stashed in permanent list

 Search of NHO DM block for the following atom(s):   1   4
      Select eigenvectors with eigenvalue > 1.900
       1.993 0.007 0.000 0.000 0.000 0.000 0.000 0.000 0.000 0.000 0.000
      Eigenvector ( 1) has occupancy 1.99282
            0.0000 0.0000 0.0000 0.0000 0.7851 0.0000 0.0000 0.0000
            0.0000 0.6193 0.0000
      Occupancy is 1.993 after deleting minor hybrid components
            0.0000 0.0000 0.0000 0.0000 0.7851 0.0000 0.0000 0.0000
            0.0000 0.6193 0.0000
           NBO accepted:    8. Label:BD ( 1)   1   4
      Occupancy is 0.007 for antibonding component
            0.0000 0.0000 0.0000 0.0000-0.6193 0.0000 0.0000 0.0000
            0.0000 0.7851 0.0000
           NBO accepted:    9. Label:BD*( 1)   1   4
        2 eigenvector(s) stashed in permanent list

 Search of NHO DM block for the following atom(s):   1   5
      Select eigenvectors with eigenvalue > 1.900
       1.998 0.000 0.000 0.000 0.000 0.000 0.000 0.000 0.000 0.000 0.000 0.000
       0.000 0.000 0.000 0.000 0.000 0.000
      Eigenvector ( 1) has occupancy 1.99794
            0.0000 0.6376 0.0000 0.0000 0.0000 0.0000 0.0000 0.0000
            0.0000 0.0000 0.0000 0.7703 0.0000 0.0000 0.0000 0.0000
            0.0000 0.0000
      Occupancy is 1.998 after deleting minor hybrid components
            0.0000 0.6376 0.0000 0.0000 0.0000 0.0000 0.0000 0.0000
            0.0000 0.0000 0.0000 0.7703 0.0000 0.0000 0.0000 0.0000
            0.0000 0.0000
           NBO accepted:   10. Label:BD ( 1)   1   5
      Occupancy is 0.000 for antibonding component
            0.0000 0.7703 0.0000 0.0000 0.0000 0.0000 0.0000 0.0000
            0.0000 0.0000 0.0000-0.6376 0.0000 0.0000 0.0000 0.0000
            0.0000 0.0000
           NBO accepted:   11. Label:BD*( 1)   1   5
        2 eigenvector(s) stashed in permanent list

 Search of NHO DM block for the following atom(s):   5   6
      Select eigenvectors with eigenvalue > 1.900
       1.993 0.005 0.000 0.000 0.000 0.000 0.000 0.000 0.000 0.000 0.000
      Eigenvector ( 1) has occupancy 1.99307
            0.0000 0.0000 0.0000 0.8305 0.0000 0.0000 0.0000 0.0000
            0.0000 0.5570 0.0000
      Occupancy is 1.993 after deleting minor hybrid components
            0.0000 0.0000 0.0000 0.8305 0.0000 0.0000 0.0000 0.0000
            0.0000 0.5570 0.0000
           NBO accepted:   12. Label:BD ( 1)   5   6
      Occupancy is 0.005 for antibonding component
            0.0000 0.0000 0.0000-0.5570 0.0000 0.0000 0.0000 0.0000
            0.0000 0.8305 0.0000
           NBO accepted:   13. Label:BD*( 1)   5   6
        2 eigenvector(s) stashed in permanent list

 Search of NHO DM block for the following atom(s):   5   7
      Select eigenvectors with eigenvalue > 1.900
       1.993 0.005 0.000 0.000 0.000 0.000 0.000 0.000 0.000 0.000 0.000
      Eigenvector ( 1) has occupancy 1.99307
            0.0000 0.0000 0.0000 0.0000 0.8305 0.0000 0.0000 0.0000
            0.0000 0.5570 0.0000
      Occupancy is 1.993 after deleting minor hybrid components
            0.0000 0.0000 0.0000 0.0000 0.8305 0.0000 0.0000 0.0000
            0.0000 0.5570 0.0000
           NBO accepted:   14. Label:BD ( 1)   5   7
      Occupancy is 0.005 for antibonding component
            0.0000 0.0000 0.0000 0.0000-0.5570 0.0000 0.0000 0.0000
            0.0000 0.8305 0.0000
           NBO accepted:   15. Label:BD*( 1)   5   7
        2 eigenvector(s) stashed in permanent list

  2-center NBOs projected from the NHO density matrix
       0.013 electrons remain in the fully projected matrix

                            Occupancies       Lewis Structure    Low   High
         Max    Occ     -------------------  -----------------   occ   occ
  Cycle  Ctr   Thresh    Lewis   non-Lewis     CR  BD  nC  LP    (L)   (NL)
 ============================================================================
    1     2     1.90    17.94733   0.05267      2   6   0   1     0      0
 ----------------------------------------------------------------------------

 Structure accepted: No low occupancy Lewis orbitals

 -------------------------------------------------------
   Core                      3.99988 ( 99.997% of   4)
   Valence Lewis            13.94746 ( 99.625% of  14)
  ==================      =============================
   Total Lewis              17.94733 ( 99.707% of  18)
  -----------------------------------------------------
   Valence non-Lewis         0.04009 (  0.223% of  18)
   Rydberg non-Lewis         0.01257 (  0.070% of  18)
  ==================      =============================
   Total non-Lewis           0.05267 (  0.293% of  18)
 -------------------------------------------------------


     (Occupancy)   Bond orbital / Coefficients / Hybrids
 ------------------ Lewis ------------------------------------------------------
   1. (1.99994) CR ( 1) C  1            s(100.00%)
                                         1.0000  0.0000  0.0000  0.0000  0.0000
                                         0.0000  0.0000  0.0000  0.0000
   2. (1.99994) CR ( 1) N  5            s(100.00%)
                                         1.0000  0.0000  0.0000  0.0000  0.0000
                                         0.0000  0.0000  0.0000  0.0000
   3. (1.97978) LP ( 1) N  5            s( 23.86%)p 3.19( 76.14%)
                                         0.0000  0.4885 -0.0001 -0.8009  0.0259
                                        -0.3453  0.0073  0.0000  0.0000
   4. (1.99282) BD ( 1) C  1- H  2
               ( 61.64%)   0.7851* C  1 s( 25.31%)p 2.95( 74.69%)
                                         0.0000  0.5031 -0.0054 -0.4186  0.0036
                                         0.2676  0.0028  0.7070 -0.0117
               ( 38.36%)   0.6193* H  2 s(100.00%)
                                         1.0000  0.0011
   5. (1.99797) BD ( 1) C  1- H  3
               ( 60.41%)   0.7773* C  1 s( 25.81%)p 2.87( 74.19%)
                                         0.0000  0.5080 -0.0092  0.8055 -0.0091
                                         0.3048  0.0105  0.0000  0.0000
               ( 39.59%)   0.6292* H  3 s(100.00%)
                                         1.0000  0.0031
   6. (1.99282) BD ( 1) C  1- H  4
               ( 61.64%)   0.7851* C  1 s( 25.31%)p 2.95( 74.69%)
                                         0.0000  0.5031 -0.0054 -0.4186  0.0036
                                         0.2676  0.0028 -0.7070  0.0117
               ( 38.36%)   0.6193* H  4 s(100.00%)
                                         1.0000  0.0011
   7. (1.99794) BD ( 1) C  1- N  5
               ( 40.66%)   0.6376* C  1 s( 23.66%)p 3.23( 76.34%)
                                         0.0000  0.4854  0.0310  0.0248 -0.0086
                                        -0.8726 -0.0370  0.0000  0.0000
               ( 59.34%)   0.7703* N  5 s( 29.33%)p 2.41( 70.67%)
                                         0.0000  0.5416  0.0008 -0.0321 -0.0120
                                         0.8399  0.0071  0.0000  0.0000
   8. (1.99307) BD ( 1) N  5- H  6
               ( 68.97%)   0.8305* N  5 s( 23.39%)p 3.28( 76.61%)
                                         0.0000  0.4836 -0.0001  0.4220 -0.0064
                                        -0.2956 -0.0240 -0.7070 -0.0128
               ( 31.03%)   0.5570* H  6 s(100.00%)
                                         1.0000 -0.0028
   9. (1.99307) BD ( 1) N  5- H  7
               ( 68.97%)   0.8305* N  5 s( 23.39%)p 3.28( 76.61%)
                                         0.0000  0.4836 -0.0001  0.4220 -0.0064
                                        -0.2956 -0.0240  0.7070  0.0128
               ( 31.03%)   0.5570* H  7 s(100.00%)
                                         1.0000 -0.0028
 ---------------- non-Lewis ----------------------------------------------------
  10. (0.00750) BD*( 1) C  1- H  2
               ( 38.36%)   0.6193* C  1 s( 25.31%)p 2.95( 74.69%)
                                         0.0000 -0.5031  0.0054  0.4186 -0.0036
                                        -0.2676 -0.0028 -0.7070  0.0117
               ( 61.64%)  -0.7851* H  2 s(100.00%)
                                        -1.0000 -0.0011
  11. (0.01533) BD*( 1) C  1- H  3
               ( 39.59%)   0.6292* C  1 s( 25.81%)p 2.87( 74.19%)
                                         0.0000 -0.5080  0.0092 -0.8055  0.0091
                                        -0.3048 -0.0105  0.0000  0.0000
               ( 60.41%)  -0.7773* H  3 s(100.00%)
                                        -1.0000 -0.0031
  12. (0.00750) BD*( 1) C  1- H  4
               ( 38.36%)   0.6193* C  1 s( 25.31%)p 2.95( 74.69%)
                                         0.0000 -0.5031  0.0054  0.4186 -0.0036
                                        -0.2676 -0.0028  0.7070 -0.0117
               ( 61.64%)  -0.7851* H  4 s(100.00%)
                                        -1.0000 -0.0011
  13. (0.00015) BD*( 1) C  1- N  5
               ( 59.34%)   0.7703* C  1 s( 23.66%)p 3.23( 76.34%)
                                         0.0000  0.4854  0.0310  0.0248 -0.0086
                                        -0.8726 -0.0370  0.0000  0.0000
               ( 40.66%)  -0.6376* N  5 s( 29.33%)p 2.41( 70.67%)
                                         0.0000  0.5416  0.0008 -0.0321 -0.0120
                                         0.8399  0.0071  0.0000  0.0000
  14. (0.00481) BD*( 1) N  5- H  6
               ( 31.03%)   0.5570* N  5 s( 23.39%)p 3.28( 76.61%)
                                         0.0000 -0.4836  0.0001 -0.4220  0.0064
                                         0.2956  0.0240  0.7070  0.0128
               ( 68.97%)  -0.8305* H  6 s(100.00%)
                                        -1.0000  0.0028
  15. (0.00481) BD*( 1) N  5- H  7
               ( 31.03%)   0.5570* N  5 s( 23.39%)p 3.28( 76.61%)
                                         0.0000 -0.4836  0.0001 -0.4220  0.0064
                                         0.2956  0.0240 -0.7070 -0.0128
               ( 68.97%)  -0.8305* H  7 s(100.00%)
                                        -1.0000  0.0028
  16. (0.00081) RY ( 1) C  1            s(  4.12%)p23.26( 95.88%)
                                         0.0000  0.0083  0.2029  0.0068  0.8446
                                        -0.0174  0.4951  0.0000  0.0000
  17. (0.00060) RY ( 2) C  1            s(  0.00%)p 1.00(100.00%)
                                         0.0000  0.0000  0.0000  0.0000  0.0000
                                         0.0000  0.0000  0.0165  0.9999
  18. (0.00033) RY ( 3) C  1            s( 31.44%)p 2.18( 68.56%)
                                         0.0000 -0.0087  0.5607  0.0085  0.3145
                                         0.0446 -0.7646  0.0000  0.0000
  19. (0.00001) RY ( 4) C  1            s( 64.34%)p 0.55( 35.66%)
  20. (0.00122) RY ( 1) H  2            s(100.00%)
                                        -0.0011  1.0000
  21. (0.00185) RY ( 1) H  3            s(100.00%)
                                        -0.0031  1.0000
  22. (0.00122) RY ( 1) H  4            s(100.00%)
                                        -0.0011  1.0000
  23. (0.00199) RY ( 1) N  5            s(  3.09%)p31.37( 96.91%)
                                         0.0000 -0.0012  0.1758 -0.0271 -0.9816
                                        -0.0139 -0.0682  0.0000  0.0000
  24. (0.00085) RY ( 2) N  5            s(  0.00%)p 1.00(100.00%)
                                         0.0000  0.0000  0.0000  0.0000  0.0000
                                         0.0000  0.0000 -0.0181  0.9998
  25. (0.00035) RY ( 3) N  5            s( 73.07%)p 0.37( 26.93%)
                                         0.0000  0.0078  0.8548  0.0164  0.1176
                                        -0.0078  0.5051  0.0000  0.0000
  26. (0.00000) RY ( 4) N  5            s( 23.87%)p 3.19( 76.13%)
  27. (0.00167) RY ( 1) H  6            s(100.00%)
                                         0.0028  1.0000
  28. (0.00167) RY ( 1) H  7            s(100.00%)
                                         0.0028  1.0000


 NHO DIRECTIONALITY AND BOND BENDING (deviation from line of nuclear centers at
                                      the position of maximum hybrid amplitude)

         [Thresholds for printing:  angular deviation  >  1.0 degree]
                                    p- or d-character  > 25.0%
                                    orbital occupancy  >  0.10e

                        Line of Centers        Hybrid 1             Hybrid 2
                        ---------------  -------------------  ------------------
           NBO            Theta   Phi    Theta   Phi    Dev   Theta   Phi    Dev
 ===============================================================================
   3. LP ( 1) N  5          --     --     90.0  202.6   --      --     --    --
   5. BD ( 1) C  1- H  3   90.0   23.7    90.0   21.7   2.0     --     --    --
   7. BD ( 1) C  1- N  5   90.0  270.0     --     --    --     90.0   91.9   1.9
   8. BD ( 1) N  5- H  6  142.2  330.9   143.6  325.1   3.8     --     --    --
   9. BD ( 1) N  5- H  7   37.8  330.9    36.4  325.1   3.8     --     --    --


 SECOND ORDER PERTURBATION THEORY ANALYSIS OF FOCK MATRIX IN NBO BASIS

     Threshold for printing:   0.50 kcal/mol
                                                          E(2) E(NL)-E(L) F(L,NL)
      Donor (L) NBO              Acceptor (NL) NBO      kcal/mol   a.u.    a.u.
 ===============================================================================

 within unit  1
    3. LP ( 1) N  5            10. BD*( 1) C  1- H  2      1.10    1.15   0.032
    3. LP ( 1) N  5            11. BD*( 1) C  1- H  3      8.36    1.13   0.087
    3. LP ( 1) N  5            12. BD*( 1) C  1- H  4      1.10    1.15   0.032
    4. BD ( 1) C  1- H  2      14. BD*( 1) N  5- H  6      3.05    1.35   0.057
    4. BD ( 1) C  1- H  2      23. RY ( 1) N  5            0.52    1.79   0.027
    4. BD ( 1) C  1- H  2      24. RY ( 2) N  5            0.61    1.84   0.030
    5. BD ( 1) C  1- H  3      23. RY ( 1) N  5            1.08    1.80   0.039
    6. BD ( 1) C  1- H  4      15. BD*( 1) N  5- H  7      3.05    1.35   0.057
    6. BD ( 1) C  1- H  4      23. RY ( 1) N  5            0.52    1.79   0.027
    6. BD ( 1) C  1- H  4      24. RY ( 2) N  5            0.61    1.84   0.030
    7. BD ( 1) C  1- N  5      27. RY ( 1) H  6            0.61    1.61   0.028
    7. BD ( 1) C  1- N  5      28. RY ( 1) H  7            0.61    1.61   0.028
    8. BD ( 1) N  5- H  6      10. BD*( 1) C  1- H  2      3.30    1.46   0.062
    8. BD ( 1) N  5- H  6      16. RY ( 1) C  1            0.55    1.70   0.027
    9. BD ( 1) N  5- H  7      12. BD*( 1) C  1- H  4      3.30    1.46   0.062
    9. BD ( 1) N  5- H  7      16. RY ( 1) C  1            0.55    1.70   0.027


 NATURAL BOND ORBITALS (Summary):

                                                     Principal Delocalizations
           NBO                 Occupancy    Energy   (geminal,vicinal,remote)
 ===============================================================================
 Molecular unit  1  (CH5N)
 ------ Lewis --------------------------------------
    1. CR ( 1) C  1             1.99994   -11.22452
    2. CR ( 1) N  5             1.99994   -15.51796
    3. LP ( 1) N  5             1.97978    -0.45022  11(v),10(v),12(v)
    4. BD ( 1) C  1- H  2       1.99282    -0.65347  14(v),24(v),23(v)
    5. BD ( 1) C  1- H  3       1.99797    -0.66099  23(v)
    6. BD ( 1) C  1- H  4       1.99282    -0.65347  15(v),24(v),23(v)
    7. BD ( 1) C  1- N  5       1.99794    -0.80781  27(v),28(v)
    8. BD ( 1) N  5- H  6       1.99307    -0.75523  10(v),16(v)
    9. BD ( 1) N  5- H  7       1.99307    -0.75523  12(v),16(v)
 ------ non-Lewis ----------------------------------
   10. BD*( 1) C  1- H  2       0.00750     0.70174
   11. BD*( 1) C  1- H  3       0.01533     0.68366
   12. BD*( 1) C  1- H  4       0.00750     0.70174
   13. BD*( 1) C  1- N  5       0.00015     0.56576
   14. BD*( 1) N  5- H  6       0.00481     0.69578
   15. BD*( 1) N  5- H  7       0.00481     0.69578
   16. RY ( 1) C  1             0.00081     0.94732
   17. RY ( 2) C  1             0.00060     0.91761
   18. RY ( 3) C  1             0.00033     1.00798
   19. RY ( 4) C  1             0.00001     1.33778
   20. RY ( 1) H  2             0.00122     0.79972
   21. RY ( 1) H  3             0.00185     0.79927
   22. RY ( 1) H  4             0.00122     0.79972
   23. RY ( 1) N  5             0.00199     1.13810
   24. RY ( 2) N  5             0.00085     1.18797
   25. RY ( 3) N  5             0.00035     1.69222
   26. RY ( 4) N  5             0.00000     1.25577
   27. RY ( 1) H  6             0.00167     0.80235
   28. RY ( 1) H  7             0.00167     0.80235
          -------------------------------
                 Total Lewis   17.94733  ( 99.7074%)
           Valence non-Lewis    0.04009  (  0.2227%)
           Rydberg non-Lewis    0.01257  (  0.0698%)
          -------------------------------
               Total unit  1   18.00000  (100.0000%)
              Charge unit  1    0.00000

 $CHOOSE
   LONE 5 1 END
   BOND S 1 2 S 1 3 S 1 4 S 1 5 S 5 6 S 5 7 END
 $END

 NBO analysis completed in 0.27 CPU seconds (1 wall second)
 Maximum scratch memory used by NBO was 268343 words (2.05 MB)
 Maximum scratch memory used by G16NBO was 9505 words (0.07 MB)

 Opening RunExU unformatted file "/cluster/work/users/beto93/CH3NH2/Gau-160483.EUF"
 Read unf file /cluster/work/users/beto93/CH3NH2/Gau-160483.EUF:
 Label Gaussian matrix elements                                         IVers= 2 NLab= 2 Version=ES64L-G16RevC.01
 Title NBO-a                                                           
 NAtoms=     7 NBasis=    28 NBsUse=    28 ICharg=     0 Multip=     1 NE=    18 Len12L=8 Len4L=8 IOpCl= 0 ICGU=111
 GAUSSIAN SCALARS                    NI= 1 NR= 1 NTot=       1 LenBuf=    2 NRI=1 N=    1000
 NPA CHARGES                         NI= 0 NR= 1 NTot=       7 LenBuf= 4000 NRI=1 N=       7
 Recovered energy= -95.0649841993     dipole=      0.742316212522      0.326015694867      0.000000000000
 Unable to Open any file for archive entry.
 1\1\GINC-C1-8\SP\RHF\4-31G\C1H5N1\BETO93\24-Jul-2024\0\\#RHF/4-31G Pop
 =NBO7Read\\NBO-a\\0,1\C,0,0.004002,-0.007547,-0.006036\H,0,0.004898,0.
 006802,1.08263\H,0,1.04102,0.029944,-0.349717\H,0,-0.504309,0.888779,-
 0.357633\N,0,-0.738855,-1.204882,-0.476612\H,0,-0.67648,-1.220095,-1.5
 07986\H,0,-0.205075,-2.036596,-0.174644\\Version=ES64L-G16RevC.01\Stat
 e=1-A'\HF=-95.0649842\RMSD=3.175e-09\Dipole=0.7691003,0.0275609,-0.255
 0388\Quadrupole=-2.0239669,0.9089458,1.115021,-1.1800495,0.3579424,0.3
 416267\PG=CS [SG(C1H1N1),X(H4)]\\@
 The archive entry for this job was punched.


 TERRY FORSTER, PORTLY ATLANTA BRAVES RELIEVER,
 ANNOUNCING THAT HE WAS GOING TO A FAT FARM:
 "A WAIST IS A TERRIBLE THING TO MIND."
 Job cpu time:       0 days  0 hours  0 minutes 11.0 seconds.
 Elapsed time:       0 days  0 hours  0 minutes  3.7 seconds.
 File lengths (MBytes):  RWF=     10 Int=      0 D2E=      0 Chk=      1 Scr=      1
 Normal termination of Gaussian 16 at Wed Jul 24 13:56:59 2024.
