 Entering Gaussian System, Link 0=g16
 Initial command:
 /cluster/software/Gaussian/g16_C.01/l1.exe "/cluster/work/users/beto93/mol112/Gau-2207987.inp" -scrdir="/cluster/work/users/beto93/mol112/"
 Entering Link 1 = /cluster/software/Gaussian/g16_C.01/l1.exe PID=   2207991.
  
 Copyright (c) 1988-2019, Gaussian, Inc.  All Rights Reserved.
  
 This is part of the Gaussian(R) 16 program.  It is based on
 the Gaussian(R) 09 system (copyright 2009, Gaussian, Inc.),
 the Gaussian(R) 03 system (copyright 2003, Gaussian, Inc.),
 the Gaussian(R) 98 system (copyright 1998, Gaussian, Inc.),
 the Gaussian(R) 94 system (copyright 1995, Gaussian, Inc.),
 the Gaussian 92(TM) system (copyright 1992, Gaussian, Inc.),
 the Gaussian 90(TM) system (copyright 1990, Gaussian, Inc.),
 the Gaussian 88(TM) system (copyright 1988, Gaussian, Inc.),
 the Gaussian 86(TM) system (copyright 1986, Carnegie Mellon
 University), and the Gaussian 82(TM) system (copyright 1983,
 Carnegie Mellon University). Gaussian is a federally registered
 trademark of Gaussian, Inc.
  
 This software contains proprietary and confidential information,
 including trade secrets, belonging to Gaussian, Inc.
  
 This software is provided under written license and may be
 used, copied, transmitted, or stored only in accord with that
 written license.
  
 The following legend is applicable only to US Government
 contracts under FAR:
  
                    RESTRICTED RIGHTS LEGEND
  
 Use, reproduction and disclosure by the US Government is
 subject to restrictions as set forth in subparagraphs (a)
 and (c) of the Commercial Computer Software - Restricted
 Rights clause in FAR 52.227-19.
  
 Gaussian, Inc.
 340 Quinnipiac St., Bldg. 40, Wallingford CT 06492
  
  
 ---------------------------------------------------------------
 Warning -- This program may not be used in any manner that
 competes with the business of Gaussian, Inc. or will provide
 assistance to any competitor of Gaussian, Inc.  The licensee
 of this program is prohibited from giving any competitor of
 Gaussian, Inc. access to this program.  By using this program,
 the user acknowledges that Gaussian, Inc. is engaged in the
 business of creating and licensing software in the field of
 computational chemistry and represents and warrants to the
 licensee that it is not a competitor of Gaussian, Inc. and that
 it will not use this program in any manner prohibited above.
 ---------------------------------------------------------------
  

 Cite this work as:
 Gaussian 16, Revision C.01,
 M. J. Frisch, G. W. Trucks, H. B. Schlegel, G. E. Scuseria, 
 M. A. Robb, J. R. Cheeseman, G. Scalmani, V. Barone, 
 G. A. Petersson, H. Nakatsuji, X. Li, M. Caricato, A. V. Marenich, 
 J. Bloino, B. G. Janesko, R. Gomperts, B. Mennucci, H. P. Hratchian, 
 J. V. Ortiz, A. F. Izmaylov, J. L. Sonnenberg, D. Williams-Young, 
 F. Ding, F. Lipparini, F. Egidi, J. Goings, B. Peng, A. Petrone, 
 T. Henderson, D. Ranasinghe, V. G. Zakrzewski, J. Gao, N. Rega, 
 G. Zheng, W. Liang, M. Hada, M. Ehara, K. Toyota, R. Fukuda, 
 J. Hasegawa, M. Ishida, T. Nakajima, Y. Honda, O. Kitao, H. Nakai, 
 T. Vreven, K. Throssell, J. A. Montgomery, Jr., J. E. Peralta, 
 F. Ogliaro, M. J. Bearpark, J. J. Heyd, E. N. Brothers, K. N. Kudin, 
 V. N. Staroverov, T. A. Keith, R. Kobayashi, J. Normand, 
 K. Raghavachari, A. P. Rendell, J. C. Burant, S. S. Iyengar, 
 J. Tomasi, M. Cossi, J. M. Millam, M. Klene, C. Adamo, R. Cammi, 
 J. W. Ochterski, R. L. Martin, K. Morokuma, O. Farkas, 
 J. B. Foresman, and D. J. Fox, Gaussian, Inc., Wallingford CT, 2019.
 
 ******************************************
 Gaussian 16:  ES64L-G16RevC.01  3-Jul-2019
                18-Nov-2024 
 ******************************************
 %LindaWorkers=c2-23-ib
 %NProcShared=4
 Will use up to    4 processors via shared memory.
 %mem=25GB
 %chk=mol112.chk
 SetLPE:    new flags="-opt 'Tsnet.Node.lindarsharg: ssh'  -nodelist 'c2-23-ib.saga' -env GAUSS_MDEF=3355443200 -env GAUSS_EXEDIR="/cluster/software/Gaussian/g16_C.01/bsd:/cluster/software/Gaussian/g16_C.01""
 Will use up to    1 processors via Linda.
 -----------------------------------------------------------------
 #RHF/6-31G* int=nobasistransform Symmetry=None 5D 7F Pop=NBO7Read
 -----------------------------------------------------------------
 1/38=1,163=2,172=1/1;
 2/12=2,15=3,17=6,18=5,40=1/2;
 3/5=1,6=6,7=1,8=11,11=1,25=1,30=1,60=-1,116=1/1,2,3;
 4//1;
 5/5=2,38=5/2;
 6/7=2,8=2,9=2,10=2,28=1,40=2,113=1,114=1,124=2103/1,12;
 99/5=1,9=1/99;
 ----------
 mol112-NBO
 ----------
 Symbolic Z-matrix:
 Charge =  0 Multiplicity = 1
 C                     0.        0.75643   0. 
 C                     0.       -0.75643   0. 
 O                     1.04609   1.38992   0. 
 H                    -0.99994   1.22819   0. 
 O                    -1.04609  -1.38992   0. 
 H                     0.99994  -1.22819   0. 
 
                          Input orientation:                          
 ---------------------------------------------------------------------
 Center     Atomic      Atomic             Coordinates (Angstroms)
 Number     Number       Type             X           Y           Z
 ---------------------------------------------------------------------
      1          6           0        0.000000    0.756430    0.000000
      2          6           0        0.000000   -0.756430    0.000000
      3          8           0        1.046090    1.389916    0.000000
      4          1           0       -0.999940    1.228191    0.000000
      5          8           0       -1.046090   -1.389916    0.000000
      6          1           0        0.999940   -1.228191    0.000000
 ---------------------------------------------------------------------
                    Distance matrix (angstroms):
                    1          2          3          4          5
     1  C    0.000000
     2  C    1.512860   0.000000
     3  O    1.222951   2.387699   0.000000
     4  H    1.105639   2.222296   2.052412   0.000000
     5  O    2.387699   1.222951   3.479179   2.618514   0.000000
     6  H    2.222296   1.105639   2.618514   3.167544   2.052412
                    6
     6  H    0.000000
 Symmetry turned off by external request.
 Stoichiometry    C2H2O2
 Rotational constants (GHZ):          55.5005767           4.7458220           4.3719768
 Standard basis: 6-31G(d) (5D, 7F)
    60 basis functions,   120 primitive gaussians,    64 cartesian basis functions
    15 alpha electrons       15 beta electrons
       nuclear repulsion energy       101.2691105608 Hartrees.
 NAtoms=    6 NActive=    6 NUniq=    6 SFac= 1.00D+00 NAtFMM=   60 NAOKFM=F Big=F
 Integral buffers will be    131072 words long.
 Raffenetti 1 integral format.
 Two-electron integral symmetry is turned off.
 One-electron integrals computed using PRISM.
 NBasis=    60 RedAO= T EigKep=  6.53D-03  NBF=    60
 NBsUse=    60 1.00D-06 EigRej= -1.00D+00 NBFU=    60
 ExpMin= 1.61D-01 ExpMax= 5.48D+03 ExpMxC= 8.25D+02 IAcc=3 IRadAn=         5 AccDes= 0.00D+00
 Harris functional with IExCor=  205 and IRadAn=       5 diagonalized for initial guess.
 HarFok:  IExCor=  205 AccDes= 0.00D+00 IRadAn=         5 IDoV= 1 UseB2=F ITyADJ=14
 ICtDFT=  3500011 ScaDFX=  1.000000  1.000000  1.000000  1.000000
 FoFCou: FMM=F IPFlag=           0 FMFlag=      100000 FMFlg1=           0
         NFxFlg=           0 DoJE=T BraDBF=F KetDBF=T FulRan=T
         wScrn=  0.000000 ICntrl=       500 IOpCl=  0 I1Cent=   200000004 NGrid=           0
         NMat0=    1 NMatS0=      1 NMatT0=    0 NMatD0=    1 NMtDS0=    0 NMtDT0=    0
 Symmetry not used in FoFCou.
 Keep R1 ints in memory in canonical form, NReq=2517751.
 Requested convergence on RMS density matrix=1.00D-08 within 128 cycles.
 Requested convergence on MAX density matrix=1.00D-06.
 Requested convergence on             energy=1.00D-06.
 No special actions if energy rises.
 SCF Done:  E(RHF) =  -226.585331997     A.U. after   11 cycles
            NFock= 11  Conv=0.50D-08     -V/T= 2.0024

 **********************************************************************

            Population analysis using the SCF Density.

 **********************************************************************

 Alpha  occ. eigenvalues --  -20.61414 -20.61414 -11.36786 -11.36725  -1.43317
 Alpha  occ. eigenvalues --   -1.41570  -0.96973  -0.82412  -0.70127  -0.70100
 Alpha  occ. eigenvalues --   -0.65093  -0.58692  -0.52081  -0.52053  -0.44041
 Alpha virt. eigenvalues --    0.04465   0.21374   0.24623   0.28717   0.34741
 Alpha virt. eigenvalues --    0.44546   0.49932   0.70813   0.76123   0.78051
 Alpha virt. eigenvalues --    0.81260   0.89524   0.93845   1.03054   1.03908
 Alpha virt. eigenvalues --    1.08482   1.10830   1.16712   1.23538   1.26634
 Alpha virt. eigenvalues --    1.30955   1.32091   1.36270   1.56633   1.72055
 Alpha virt. eigenvalues --    1.78512   1.80590   1.91595   1.98804   1.99718
 Alpha virt. eigenvalues --    2.04087   2.06214   2.16075   2.24091   2.33531
 Alpha virt. eigenvalues --    2.44535   2.45256   2.62662   2.67495   2.86536
 Alpha virt. eigenvalues --    2.87280   3.14770   3.16909   3.30328   3.34145
          Condensed to atoms (all electrons):
               1          2          3          4          5          6
     1  C    4.692772   0.306757   0.490782   0.374708  -0.049839  -0.071642
     2  C    0.306757   4.692772  -0.049839  -0.071642   0.490782   0.374708
     3  O    0.490782  -0.049839   8.051488  -0.037354   0.001993   0.010143
     4  H    0.374708  -0.071642  -0.037354   0.509949   0.010143   0.003447
     5  O   -0.049839   0.490782   0.001993   0.010143   8.051488  -0.037354
     6  H   -0.071642   0.374708   0.010143   0.003447  -0.037354   0.509949
 Mulliken charges:
               1
     1  C    0.256463
     2  C    0.256463
     3  O   -0.467212
     4  H    0.210750
     5  O   -0.467212
     6  H    0.210750
 Sum of Mulliken charges =  -0.00000
 Mulliken charges with hydrogens summed into heavy atoms:
               1
     1  C    0.467212
     2  C    0.467212
     3  O   -0.467212
     5  O   -0.467212
 Electronic spatial extent (au):  <R**2>=            270.1617
 Charge=              0.0000 electrons
 Dipole moment (field-independent basis, Debye):
    X=             -0.0000    Y=             -0.0000    Z=             -0.0000  Tot=              0.0000
 Quadrupole moment (field-independent basis, Debye-Ang):
   XX=            -25.5791   YY=            -26.9624   ZZ=            -21.1942
   XY=             -6.8232   XZ=             -0.0000   YZ=             -0.0000
 Traceless Quadrupole moment (field-independent basis, Debye-Ang):
   XX=             -1.0005   YY=             -2.3839   ZZ=              3.3844
   XY=             -6.8232   XZ=             -0.0000   YZ=             -0.0000
 Octapole moment (field-independent basis, Debye-Ang**2):
  XXX=             -0.0000  YYY=             -0.0000  ZZZ=             -0.0000  XYY=             -0.0000
  XXY=             -0.0000  XXZ=             -0.0000  XZZ=              0.0000  YZZ=              0.0000
  YYZ=             -0.0000  XYZ=             -0.0000
 Hexadecapole moment (field-independent basis, Debye-Ang**3):
 XXXX=           -102.7726 YYYY=           -207.8821 ZZZZ=            -17.1824 XXXY=            -49.9174
 XXXZ=             -0.0000 YYYX=            -56.3053 YYYZ=             -0.0000 ZZZX=             -0.0000
 ZZZY=             -0.0000 XXYY=            -54.0300 XXZZ=            -18.9830 YYZZ=            -34.1739
 XXYZ=             -0.0000 YYXZ=             -0.0000 ZZXY=            -13.4712
 N-N= 1.012691105608D+02 E-N=-7.362883281554D+02  KE= 2.260353931361D+02
 Running external command "gaunbo7 R"
         input file       "/cluster/work/users/beto93/mol112/Gau-2207991.EIn"
         output file      "/cluster/work/users/beto93/mol112/Gau-2207991.EOu"
         message file     "/cluster/work/users/beto93/mol112/Gau-2207991.EMs"
         fchk file        "/cluster/work/users/beto93/mol112/Gau-2207991.EFC"
         mat. el file     "/cluster/work/users/beto93/mol112/Gau-2207991.EUF"

 Writing WrtUnf unformatted file "/cluster/work/users/beto93/mol112/Gau-2207991.EUF"
 Gaussian matrix elements                                         Version   2 NLab=11 Len12L=8 Len4L=8
 Write SHELL TO ATOM MAP                   from file      0 offset           0 length                  20 to matrix element file.
 Write SHELL TYPES                         from file      0 offset           0 length                  20 to matrix element file.
 Write NUMBER OF PRIMITIVES PER SHELL      from file      0 offset           0 length                  20 to matrix element file.
 Write PRIMITIVE EXPONENTS                 from file      0 offset           0 length                  52 to matrix element file.
 Write CONTRACTION COEFFICIENTS            from file      0 offset           0 length                  52 to matrix element file.
 Write P(S=P) CONTRACTION COEFFICIENTS     from file      0 offset           0 length                  52 to matrix element file.
 Write COORDINATES OF EACH SHELL           from file      0 offset           0 length                  60 to matrix element file.
 Write BONDS PER ATOM                      from file      0 offset           0 length                   6 to matrix element file.
 Write BONDED ATOMS                        from file      0 offset           0 length                  10 to matrix element file.
 Write BOND TYPES                          from file      0 offset           0 length                  10 to matrix element file.
 Write ONIOM CHARGE/MULT                   from file      0 offset           0 length                  32 to matrix element file.
 Write ONIOM ATOM LAYERS                   from file      0 offset           0 length                   6 to matrix element file.
 Write ONIOM ATOM MODIFIERS                from file      0 offset           0 length                   6 to matrix element file.
 Write ONIOM ATOM TYPES                    from file      0 offset           0 length                   6 to matrix element file.
 Write ONIOM LINK ATOMS                    from file      0 offset           0 length                   6 to matrix element file.
 Write ONIOM LINK CHARGES                  from file      0 offset           0 length                   6 to matrix element file.
 Write ONIOM LINK DISTANCES                from file      0 offset           0 length                  24 to matrix element file.
 Write SYMINF INTS                         from file      0 offset           0 length                  26 to matrix element file.
 Write ROTTR TO SO                         from file      0 offset           0 length                  12 to matrix element file.
 Write GAUSSIAN SCALARS                    from file    501 offset           0 to matrix element file.
 Write OPTIMIZATION FLAGS                  from file      0 offset           0 length                   6 to matrix element file.
 Write INTEGER ISO                         from file      0 offset           0 length                   6 to matrix element file.
 Write INTEGER SPIN                        from file      0 offset           0 length                   6 to matrix element file.
 Write REAL ZEFFECTIVE                     from file      0 offset           0 length                   6 to matrix element file.
 Write REAL GFACTOR                        from file      0 offset           0 length                   6 to matrix element file.
 Write REAL ZNUCLEAR                       from file      0 offset           0 length                   6 to matrix element file.
 Write MULLIKEN CHARGES                    from file      0 offset           0 length                   6 to matrix element file.
 Write NUCLEAR GRADIENT                    from file  10584 offset           0 length                  18 to matrix element file.
 Array NUCLEAR FORCE CONSTANTS              on  file  10585 does not exist.
 Write ELECTRIC DIPOLE MOMENT              from file      0 offset           0 length                   3 to matrix element file.
 Write NON-ADIABATIC COUPLING              from file  10810 offset           0 length                  18 to matrix element file.
 Write FINITE EM FIELD                     from file  10521 offset           0 length                  35 to matrix element file.
 Write OVERLAP                             from file  10514 offset           0 length                1830 to matrix element file.
 Write CORE HAMILTONIAN ALPHA              from file  10515 offset           0 length                1830 to matrix element file.
 Write CORE HAMILTONIAN BETA               from file  10515 offset        1830 length                1830 to matrix element file.
 Write KINETIC ENERGY                      from file  10516 offset           0 length                1830 to matrix element file.
 Write ORTHOGONAL BASIS                    from file  10685 offset           0 length                3600 to matrix element file.
 Write DIPOLE INTEGRALS                    from file  10518 offset           0 length                5490 to matrix element file.
 Array DIP VEL INTEGRALS                    on  file  10572 does not exist.
 Array R X DEL INTEGRALS                    on  file  10572 does not exist.
 Write ALPHA ORBITAL ENERGIES              from file      0 offset           0 length                  60 to matrix element file.
 Write ALPHA MO COEFFICIENTS               from file  10524 offset           0 length                3600 to matrix element file.
 Write ALPHA DENSITY MATRIX                from file      0 offset           0 length                1830 to matrix element file.
 Write ALPHA FOCK MATRIX                   from file  10536 offset           0 length                1830 to matrix element file.
 Write ENERGY-WEIGHTED DENSITY             from file  10571 offset           0 length                1830 to matrix element file.
 Write ALPHA SCF DENSITY MATRIX            from file      0 offset           0 length                1830 to matrix element file.
 No 2e integrals to process.
 Perform NBO analysis...executing G16NBO...

 *********************************** NBO 7.0 ***********************************
             N A T U R A L   A T O M I C   O R B I T A L   A N D
          N A T U R A L   B O N D   O R B I T A L   A N A L Y S I S
 **************************** Espen Tangen (S101595) ***************************
  (c) Copyright 1996-2021 Board of Regents of the University of Wisconsin System
      on behalf of the Theoretical Chemistry Institute.  All rights reserved.

          Cite this program [NBO 7.0.10 (8-Feb-2021)] as:

          NBO 7.0.  E. D. Glendening, J. K. Badenhoop, A. E. Reed,
          J. E. Carpenter, J. A. Bohmann, C. M. Morales, P. Karafiloglou,
          C. R. Landis, and F. Weinhold, Theoretical Chemistry Institute,
          University of Wisconsin, Madison, WI (2018)

       /NPA    / : Natural Population Analysis
       /AOPNAO / : Print the AO to PNAO transformation
       /AONAO  / : Print the AO to NAO transformation
       /AOMO   / : Print the MOs in the AO basis
       /BOAO   / : Print the AO bond-order matrix
       /DMAO   / : Print the AO density matrix
       /DMPNAO / : Print the PNAO density matrix
       /DMNAO  / : Print the NAO density matrix
       /DMMO   / : Print the MO density matrix
       /SAO    / : Print the AO overlap matrix
       /SPNAO  / : Print the PNAO overlap matrix
       /DETAIL / : Write details of NBO search
       /ARCHIVE/ : Write the archive file to lfn47
       /AOINFO / : Write AO information to lfn31
       /FILE   / : Set to mol112.gen*

 Filename set to mol112.gen1

 Job title: mol112-NBO


 MOs in the AO basis:

           AO          1       2       3       4       5       6       7       8
      ------------ ------- ------- ------- ------- ------- ------- ------- -------
   1.  C 1 (s)      0.0001  0.0001  0.7044  0.7045 -0.0879 -0.0690 -0.1208 -0.0963
   2.  C 1 (s)      0.0001  0.0000  0.0168  0.0174  0.1698  0.1293  0.2597  0.2023
   3.  C 1 (px)     0.0000 -0.0002  0.0006  0.0008  0.0979  0.1138 -0.0923 -0.1666
   4.  C 1 (py)    -0.0001  0.0002  0.0004  0.0001  0.0362  0.0815 -0.1786  0.1223
   5.  C 1 (pz)     0.0000  0.0000  0.0000  0.0000  0.0000  0.0000  0.0000  0.0000
   6.  C 1 (s)      0.0052  0.0033 -0.0041 -0.0089  0.0508  0.0315  0.2086  0.2224
   7.  C 1 (px)     0.0023  0.0053  0.0033  0.0011 -0.0376 -0.0117 -0.0483 -0.0733
   8.  C 1 (py)     0.0004  0.0011  0.0004  0.0026 -0.0097 -0.0013 -0.0379  0.0120
   9.  C 1 (pz)     0.0000  0.0000  0.0000  0.0000  0.0000  0.0000  0.0000  0.0000
  10.  C 1 (d5)     0.0001  0.0001 -0.0005 -0.0008 -0.0137 -0.0094 -0.0119 -0.0089
  11.  C 1 (d2)     0.0000  0.0000  0.0000  0.0000  0.0000  0.0000  0.0000  0.0000
  12.  C 1 (d3)     0.0000  0.0000  0.0000  0.0000  0.0000  0.0000  0.0000  0.0000
  13.  C 1 (d4)    -0.0002 -0.0001  0.0005 -0.0001  0.0057  0.0136 -0.0124  0.0098
  14.  C 1 (d1)    -0.0002 -0.0005  0.0005  0.0005  0.0170  0.0160 -0.0134 -0.0050
  15.  C 2 (s)     -0.0001  0.0001  0.7044 -0.7045 -0.0879  0.0690 -0.1208  0.0963
  16.  C 2 (s)     -0.0001  0.0000  0.0168 -0.0174  0.1698 -0.1293  0.2597 -0.2023
  17.  C 2 (px)     0.0000  0.0002 -0.0006  0.0008 -0.0979  0.1138  0.0923 -0.1666
  18.  C 2 (py)    -0.0001 -0.0002 -0.0004  0.0001 -0.0362  0.0815  0.1786  0.1223
  19.  C 2 (pz)     0.0000  0.0000  0.0000  0.0000  0.0000  0.0000  0.0000  0.0000
  20.  C 2 (s)     -0.0052  0.0033 -0.0041  0.0089  0.0508 -0.0315  0.2086 -0.2224
  21.  C 2 (px)     0.0023 -0.0053 -0.0033  0.0011  0.0376 -0.0117  0.0483 -0.0733
  22.  C 2 (py)     0.0004 -0.0011 -0.0004  0.0026  0.0097 -0.0013  0.0379  0.0120
  23.  C 2 (pz)     0.0000  0.0000  0.0000  0.0000  0.0000  0.0000  0.0000  0.0000
  24.  C 2 (d5)    -0.0001  0.0001 -0.0005  0.0008 -0.0137  0.0094 -0.0119  0.0089
  25.  C 2 (d2)     0.0000  0.0000  0.0000  0.0000  0.0000  0.0000  0.0000  0.0000
  26.  C 2 (d3)     0.0000  0.0000  0.0000  0.0000  0.0000  0.0000  0.0000  0.0000
  27.  C 2 (d4)     0.0002 -0.0001  0.0005  0.0001  0.0057 -0.0136 -0.0124 -0.0098
  28.  C 2 (d1)     0.0002 -0.0005  0.0005 -0.0005  0.0170 -0.0160 -0.0134  0.0050
  29.  O 3 (s)      0.7042  0.7042 -0.0002 -0.0002 -0.1366 -0.1434  0.0730  0.0429
  30.  O 3 (s)      0.0161  0.0161  0.0003  0.0004  0.3001  0.3152 -0.1687 -0.1006
  31.  O 3 (px)    -0.0012 -0.0012  0.0000 -0.0001 -0.0796 -0.0813 -0.0427 -0.1576
  32.  O 3 (py)    -0.0008 -0.0007  0.0001 -0.0001 -0.0523 -0.0495 -0.0694  0.0324
  33.  O 3 (pz)     0.0000  0.0000  0.0000  0.0000  0.0000  0.0000  0.0000  0.0000
  34.  O 3 (s)     -0.0082 -0.0091 -0.0026 -0.0014  0.2927  0.3006 -0.1991 -0.1394
  35.  O 3 (px)     0.0022  0.0022  0.0014  0.0012 -0.0349 -0.0340 -0.0213 -0.0801
  36.  O 3 (py)     0.0018  0.0015  0.0008  0.0006 -0.0233 -0.0254 -0.0328  0.0177
  37.  O 3 (pz)     0.0000  0.0000  0.0000  0.0000  0.0000  0.0000  0.0000  0.0000
  38.  O 3 (d5)    -0.0001 -0.0002  0.0002  0.0004 -0.0045 -0.0055 -0.0008 -0.0020
  39.  O 3 (d2)     0.0000  0.0000  0.0000  0.0000  0.0000  0.0000  0.0000  0.0000
  40.  O 3 (d3)     0.0000  0.0000  0.0000  0.0000  0.0000  0.0000  0.0000  0.0000
  41.  O 3 (d4)     0.0000  0.0000 -0.0001 -0.0001  0.0034  0.0038 -0.0010  0.0112
  42.  O 3 (d1)    -0.0001 -0.0001 -0.0003 -0.0002  0.0081  0.0081  0.0055  0.0015
  43.  H 4 (s)     -0.0001  0.0001 -0.0001 -0.0001  0.0218  0.0146  0.0914  0.1776
  44.  H 4 (s)      0.0002  0.0016  0.0027  0.0016 -0.0146 -0.0059  0.0111  0.0782
  45.  O 5 (s)     -0.7042  0.7042 -0.0002  0.0002 -0.1366  0.1434  0.0730 -0.0429
  46.  O 5 (s)     -0.0161  0.0161  0.0003 -0.0004  0.3001 -0.3152 -0.1687  0.1006
  47.  O 5 (px)    -0.0012  0.0012  0.0000 -0.0001  0.0796 -0.0813  0.0427 -0.1576
  48.  O 5 (py)    -0.0008  0.0007 -0.0001 -0.0001  0.0523 -0.0495  0.0694  0.0324
  49.  O 5 (pz)     0.0000  0.0000  0.0000  0.0000  0.0000  0.0000  0.0000  0.0000
  50.  O 5 (s)      0.0082 -0.0091 -0.0026  0.0014  0.2927 -0.3006 -0.1991  0.1394
  51.  O 5 (px)     0.0022 -0.0022 -0.0014  0.0012  0.0349 -0.0340  0.0213 -0.0801
  52.  O 5 (py)     0.0018 -0.0015 -0.0008  0.0006  0.0233 -0.0254  0.0328  0.0177
  53.  O 5 (pz)     0.0000  0.0000  0.0000  0.0000  0.0000  0.0000  0.0000  0.0000
  54.  O 5 (d5)     0.0001 -0.0002  0.0002 -0.0004 -0.0045  0.0055 -0.0008  0.0020
  55.  O 5 (d2)     0.0000  0.0000  0.0000  0.0000  0.0000  0.0000  0.0000  0.0000
  56.  O 5 (d3)     0.0000  0.0000  0.0000  0.0000  0.0000  0.0000  0.0000  0.0000
  57.  O 5 (d4)     0.0000  0.0000 -0.0001  0.0001  0.0034 -0.0038 -0.0010 -0.0112
  58.  O 5 (d1)     0.0001 -0.0001 -0.0003  0.0002  0.0081 -0.0081  0.0055 -0.0015
  59.  H 6 (s)      0.0001  0.0001 -0.0001  0.0001  0.0218 -0.0146  0.0914 -0.1776
  60.  H 6 (s)     -0.0002  0.0016  0.0027 -0.0016 -0.0146  0.0059  0.0111 -0.0782

           AO          9      10      11      12      13      14      15      16
      ------------ ------- ------- ------- ------- ------- ------- ------- -------
   1.  C 1 (s)     -0.0175  0.0341 -0.0056  0.0000  0.0000  0.0332 -0.0201  0.0000
   2.  C 1 (s)      0.0389 -0.0805  0.0229  0.0000  0.0000 -0.0650  0.0550  0.0000
   3.  C 1 (px)    -0.0801 -0.2375  0.2735  0.0000  0.0000  0.0994  0.0677  0.0000
   4.  C 1 (py)     0.3004 -0.0331  0.0530  0.0000  0.0000  0.0593 -0.2298  0.0000
   5.  C 1 (pz)     0.0000  0.0000  0.0000  0.2541  0.2091  0.0000  0.0000 -0.2709
   6.  C 1 (s)      0.0319 -0.0148 -0.0602  0.0000  0.0000 -0.1802  0.1246  0.0000
   7.  C 1 (px)    -0.0782 -0.0551  0.0598  0.0000  0.0000  0.0198  0.1010  0.0000
   8.  C 1 (py)     0.1022  0.0207 -0.0082  0.0000  0.0000  0.0558 -0.0650  0.0000
   9.  C 1 (pz)     0.0000  0.0000  0.0000  0.1499  0.1450  0.0000  0.0000 -0.3625
  10.  C 1 (d5)    -0.0030  0.0022 -0.0011  0.0000  0.0000  0.0020  0.0009  0.0000
  11.  C 1 (d2)     0.0000  0.0000  0.0000  0.0197  0.0254  0.0000  0.0000  0.0185
  12.  C 1 (d3)     0.0000  0.0000  0.0000  0.0031  0.0183  0.0000  0.0000  0.0290
  13.  C 1 (d4)     0.0083 -0.0082  0.0049  0.0000  0.0000 -0.0285 -0.0425  0.0000
  14.  C 1 (d1)     0.0008 -0.0067  0.0238  0.0000  0.0000  0.0203  0.0194  0.0000
  15.  C 2 (s)     -0.0175 -0.0341 -0.0056  0.0000  0.0000 -0.0332 -0.0201  0.0000
  16.  C 2 (s)      0.0389  0.0805  0.0229  0.0000  0.0000  0.0650  0.0550  0.0000
  17.  C 2 (px)     0.0801 -0.2375 -0.2735  0.0000  0.0000  0.0994 -0.0677  0.0000
  18.  C 2 (py)    -0.3004 -0.0331 -0.0530  0.0000  0.0000  0.0593  0.2298  0.0000
  19.  C 2 (pz)     0.0000  0.0000  0.0000  0.2541 -0.2091  0.0000  0.0000 -0.2709
  20.  C 2 (s)      0.0319  0.0148 -0.0602  0.0000  0.0000  0.1802  0.1246  0.0000
  21.  C 2 (px)     0.0782 -0.0551 -0.0598  0.0000  0.0000  0.0198 -0.1010  0.0000
  22.  C 2 (py)    -0.1022  0.0207  0.0082  0.0000  0.0000  0.0558  0.0650  0.0000
  23.  C 2 (pz)     0.0000  0.0000  0.0000  0.1499 -0.1450  0.0000  0.0000 -0.3625
  24.  C 2 (d5)    -0.0030 -0.0022 -0.0011  0.0000  0.0000 -0.0020  0.0009  0.0000
  25.  C 2 (d2)     0.0000  0.0000  0.0000 -0.0197  0.0254  0.0000  0.0000 -0.0185
  26.  C 2 (d3)     0.0000  0.0000  0.0000 -0.0031  0.0183  0.0000  0.0000 -0.0290
  27.  C 2 (d4)     0.0083  0.0082  0.0049  0.0000  0.0000  0.0285 -0.0425  0.0000
  28.  C 2 (d1)     0.0008  0.0067  0.0238  0.0000  0.0000 -0.0203  0.0194  0.0000
  29.  O 3 (s)      0.0252 -0.0584  0.0383  0.0000  0.0000  0.0010  0.0004  0.0000
  30.  O 3 (s)     -0.0597  0.1401 -0.0916  0.0000  0.0000 -0.0037  0.0093  0.0000
  31.  O 3 (px)    -0.2516  0.2325 -0.2560  0.0000  0.0000 -0.2837 -0.1633  0.0000
  32.  O 3 (py)     0.1375  0.2687 -0.2418  0.0000  0.0000  0.3288  0.3466  0.0000
  33.  O 3 (pz)     0.0000  0.0000  0.0000  0.3190  0.3717  0.0000  0.0000  0.3095
  34.  O 3 (s)     -0.0898  0.2275 -0.1639  0.0000  0.0000 -0.0008 -0.0617  0.0000
  35.  O 3 (px)    -0.1426  0.1301 -0.1504  0.0000  0.0000 -0.2065 -0.1209  0.0000
  36.  O 3 (py)     0.0805  0.1548 -0.1405  0.0000  0.0000  0.2389  0.2902  0.0000
  37.  O 3 (pz)     0.0000  0.0000  0.0000  0.2212  0.2757  0.0000  0.0000  0.3679
  38.  O 3 (d5)    -0.0027  0.0090 -0.0081  0.0000  0.0000 -0.0019  0.0018  0.0000
  39.  O 3 (d2)     0.0000  0.0000  0.0000 -0.0241 -0.0258  0.0000  0.0000 -0.0052
  40.  O 3 (d3)     0.0000  0.0000  0.0000 -0.0157 -0.0164  0.0000  0.0000 -0.0008
  41.  O 3 (d4)     0.0188 -0.0010  0.0024  0.0000  0.0000  0.0190  0.0095  0.0000
  42.  O 3 (d1)    -0.0018 -0.0184  0.0173  0.0000  0.0000 -0.0050 -0.0066  0.0000
  43.  H 4 (s)      0.1207  0.0672 -0.1199  0.0000  0.0000 -0.1101 -0.1392  0.0000
  44.  H 4 (s)      0.0530  0.0383 -0.0935  0.0000  0.0000 -0.0892 -0.1762  0.0000
  45.  O 5 (s)      0.0252  0.0584  0.0383  0.0000  0.0000 -0.0010  0.0004  0.0000
  46.  O 5 (s)     -0.0597 -0.1401 -0.0916  0.0000  0.0000  0.0037  0.0093  0.0000
  47.  O 5 (px)     0.2516  0.2325  0.2560  0.0000  0.0000 -0.2837  0.1633  0.0000
  48.  O 5 (py)    -0.1375  0.2687  0.2418  0.0000  0.0000  0.3288 -0.3466  0.0000
  49.  O 5 (pz)     0.0000  0.0000  0.0000  0.3190 -0.3717  0.0000  0.0000  0.3095
  50.  O 5 (s)     -0.0898 -0.2275 -0.1639  0.0000  0.0000  0.0008 -0.0617  0.0000
  51.  O 5 (px)     0.1426  0.1301  0.1504  0.0000  0.0000 -0.2065  0.1209  0.0000
  52.  O 5 (py)    -0.0805  0.1548  0.1405  0.0000  0.0000  0.2389 -0.2902  0.0000
  53.  O 5 (pz)     0.0000  0.0000  0.0000  0.2212 -0.2757  0.0000  0.0000  0.3679
  54.  O 5 (d5)    -0.0027 -0.0090 -0.0081  0.0000  0.0000  0.0019  0.0018  0.0000
  55.  O 5 (d2)     0.0000  0.0000  0.0000  0.0241 -0.0258  0.0000  0.0000  0.0052
  56.  O 5 (d3)     0.0000  0.0000  0.0000  0.0157 -0.0164  0.0000  0.0000  0.0008
  57.  O 5 (d4)     0.0188  0.0010  0.0024  0.0000  0.0000 -0.0190  0.0095  0.0000
  58.  O 5 (d1)    -0.0018  0.0184  0.0173  0.0000  0.0000  0.0050 -0.0066  0.0000
  59.  H 6 (s)      0.1207 -0.0672 -0.1199  0.0000  0.0000  0.1101 -0.1392  0.0000
  60.  H 6 (s)      0.0530 -0.0383 -0.0935  0.0000  0.0000  0.0892 -0.1762  0.0000

           AO         17      18      19      20      21      22      23      24
      ------------ ------- ------- ------- ------- ------- ------- ------- -------
   1.  C 1 (s)      0.0000  0.0851  0.0614 -0.0203 -0.0273 -0.1153  0.0000  0.0090
   2.  C 1 (s)      0.0000 -0.1031 -0.0654  0.0317 -0.1534  0.1068  0.0000  0.5994
   3.  C 1 (px)     0.0000  0.1961  0.1885  0.0096  0.0987  0.1627  0.0000  0.1259
   4.  C 1 (py)     0.0000  0.0029 -0.1618  0.0964  0.0957 -0.3921  0.0000 -0.5314
   5.  C 1 (pz)     0.3594  0.0000  0.0000  0.0000  0.0000  0.0000  0.7496  0.0000
   6.  C 1 (s)      0.0000 -1.3324 -1.0012  0.2270  1.6754  2.2694  0.0000 -0.1891
   7.  C 1 (px)     0.0000  0.5965  1.2067  0.6260  2.0612  0.6190  0.0000 -0.2406
   8.  C 1 (py)     0.0000  0.0693 -0.3530  1.4391  0.8697 -1.6444  0.0000  0.8904
   9.  C 1 (pz)     0.7027  0.0000  0.0000  0.0000  0.0000  0.0000 -0.6676  0.0000
  10.  C 1 (d5)     0.0000 -0.0036 -0.0085  0.0019  0.0153  0.0317  0.0000 -0.0809
  11.  C 1 (d2)    -0.0232  0.0000  0.0000  0.0000  0.0000  0.0000  0.0141  0.0000
  12.  C 1 (d3)     0.0124  0.0000  0.0000  0.0000  0.0000  0.0000 -0.0295  0.0000
  13.  C 1 (d4)     0.0000 -0.0041  0.0026 -0.0051  0.0084  0.0224  0.0000 -0.0712
  14.  C 1 (d1)     0.0000 -0.0163  0.0190 -0.0185  0.0296 -0.0183  0.0000 -0.0210
  15.  C 2 (s)      0.0000 -0.0851  0.0614  0.0203 -0.0273  0.1153  0.0000  0.0090
  16.  C 2 (s)      0.0000  0.1031 -0.0654 -0.0317 -0.1534 -0.1068  0.0000  0.5994
  17.  C 2 (px)     0.0000  0.1961 -0.1885  0.0096 -0.0987  0.1627  0.0000 -0.1259
  18.  C 2 (py)     0.0000  0.0029  0.1618  0.0964 -0.0957 -0.3921  0.0000  0.5314
  19.  C 2 (pz)    -0.3594  0.0000  0.0000  0.0000  0.0000  0.0000  0.7496  0.0000
  20.  C 2 (s)      0.0000  1.3324 -1.0012 -0.2270  1.6754 -2.2694  0.0000 -0.1891
  21.  C 2 (px)     0.0000  0.5965 -1.2067  0.6260 -2.0612  0.6190  0.0000  0.2406
  22.  C 2 (py)     0.0000  0.0693  0.3530  1.4391 -0.8697 -1.6444  0.0000 -0.8904
  23.  C 2 (pz)    -0.7027  0.0000  0.0000  0.0000  0.0000  0.0000 -0.6676  0.0000
  24.  C 2 (d5)     0.0000  0.0036 -0.0085 -0.0019  0.0153 -0.0317  0.0000 -0.0809
  25.  C 2 (d2)    -0.0232  0.0000  0.0000  0.0000  0.0000  0.0000 -0.0141  0.0000
  26.  C 2 (d3)     0.0124  0.0000  0.0000  0.0000  0.0000  0.0000  0.0295  0.0000
  27.  C 2 (d4)     0.0000  0.0041  0.0026  0.0051  0.0084 -0.0224  0.0000 -0.0712
  28.  C 2 (d1)     0.0000  0.0163  0.0190  0.0185  0.0296  0.0183  0.0000 -0.0210
  29.  O 3 (s)      0.0000  0.0002  0.0037  0.0662  0.0747  0.0342  0.0000 -0.0079
  30.  O 3 (s)      0.0000  0.0094  0.0279 -0.1030 -0.0315 -0.0816  0.0000  0.0733
  31.  O 3 (px)     0.0000 -0.0145 -0.1035  0.1011  0.0994  0.0307  0.0000  0.1044
  32.  O 3 (py)     0.0000  0.0005  0.0469  0.0679 -0.0495  0.1902  0.0000 -0.1459
  33.  O 3 (pz)    -0.2365  0.0000  0.0000  0.0000  0.0000  0.0000  0.0433  0.0000
  34.  O 3 (s)      0.0000 -0.0806 -0.3433 -1.1371 -2.0455 -0.4284  0.0000 -0.0896
  35.  O 3 (px)     0.0000 -0.0516 -0.0774  0.5226  0.7421  0.0635  0.0000  0.0546
  36.  O 3 (py)     0.0000  0.0526  0.2089  0.1439  0.4041  0.5220  0.0000 -0.1187
  37.  O 3 (pz)    -0.3871  0.0000  0.0000  0.0000  0.0000  0.0000  0.0391  0.0000
  38.  O 3 (d5)     0.0000 -0.0038  0.0006  0.0124  0.0331  0.0137  0.0000 -0.0133
  39.  O 3 (d2)    -0.0070  0.0000  0.0000  0.0000  0.0000  0.0000 -0.0515  0.0000
  40.  O 3 (d3)     0.0030  0.0000  0.0000  0.0000  0.0000  0.0000 -0.0235  0.0000
  41.  O 3 (d4)     0.0000 -0.0022 -0.0047 -0.0194 -0.0080 -0.0127  0.0000 -0.0156
  42.  O 3 (d1)     0.0000  0.0012 -0.0101 -0.0243 -0.0367  0.0126  0.0000  0.0126
  43.  H 4 (s)      0.0000  0.0580 -0.0046  0.0190 -0.1399 -0.0441  0.0000  0.0946
  44.  H 4 (s)      0.0000  1.4341  1.7317 -0.3314  0.4415  0.5900  0.0000 -0.1893
  45.  O 5 (s)      0.0000 -0.0002  0.0037 -0.0662  0.0747 -0.0342  0.0000 -0.0079
  46.  O 5 (s)      0.0000 -0.0094  0.0279  0.1030 -0.0315  0.0816  0.0000  0.0733
  47.  O 5 (px)     0.0000 -0.0145  0.1035  0.1011 -0.0994  0.0307  0.0000 -0.1044
  48.  O 5 (py)     0.0000  0.0005 -0.0469  0.0679  0.0495  0.1902  0.0000  0.1459
  49.  O 5 (pz)     0.2365  0.0000  0.0000  0.0000  0.0000  0.0000  0.0433  0.0000
  50.  O 5 (s)      0.0000  0.0806 -0.3433  1.1371 -2.0455  0.4284  0.0000 -0.0896
  51.  O 5 (px)     0.0000 -0.0516  0.0774  0.5226 -0.7421  0.0635  0.0000 -0.0546
  52.  O 5 (py)     0.0000  0.0526 -0.2089  0.1439 -0.4041  0.5220  0.0000  0.1187
  53.  O 5 (pz)     0.3871  0.0000  0.0000  0.0000  0.0000  0.0000  0.0391  0.0000
  54.  O 5 (d5)     0.0000  0.0038  0.0006 -0.0124  0.0331 -0.0137  0.0000 -0.0133
  55.  O 5 (d2)    -0.0070  0.0000  0.0000  0.0000  0.0000  0.0000  0.0515  0.0000
  56.  O 5 (d3)     0.0030  0.0000  0.0000  0.0000  0.0000  0.0000  0.0235  0.0000
  57.  O 5 (d4)     0.0000  0.0022 -0.0047  0.0194 -0.0080  0.0127  0.0000 -0.0156
  58.  O 5 (d1)     0.0000 -0.0012 -0.0101  0.0243 -0.0367 -0.0126  0.0000  0.0126
  59.  H 6 (s)      0.0000 -0.0580 -0.0046 -0.0190 -0.1399  0.0441  0.0000  0.0946
  60.  H 6 (s)      0.0000 -1.4341  1.7317  0.3314  0.4415 -0.5900  0.0000 -0.1893

           AO         25      26      27      28      29      30      31      32
      ------------ ------- ------- ------- ------- ------- ------- ------- -------
   1.  C 1 (s)      0.0000 -0.0045 -0.0399 -0.0392  0.0026 -0.0236  0.0334  0.0422
   2.  C 1 (s)      0.0000 -0.1420  0.0918  0.6696  0.9210 -0.3523 -0.5355 -0.0413
   3.  C 1 (px)     0.0000  0.0641  0.5493  0.5449 -0.5974 -0.3706  0.3831  0.1384
   4.  C 1 (py)     0.0000 -0.5191  0.4110  0.3538  0.1952  0.4074 -0.0216 -0.0276
   5.  C 1 (pz)    -0.7532  0.0000  0.0000  0.0000  0.0000  0.0000  0.0000  0.0000
   6.  C 1 (s)      0.0000 -0.6569  0.7689 -0.5302 -1.4086  2.4697  2.4480  0.7710
   7.  C 1 (px)     0.0000 -0.5298 -0.5564 -0.3653  2.2631  1.0125 -0.1440  0.7694
   8.  C 1 (py)     0.0000  1.5859 -0.3012 -0.3452 -0.3758 -1.9797 -0.2398  0.1452
   9.  C 1 (pz)     1.1776  0.0000  0.0000  0.0000  0.0000  0.0000  0.0000  0.0000
  10.  C 1 (d5)     0.0000  0.0564  0.0543  0.0469 -0.0536  0.0121 -0.1054 -0.1153
  11.  C 1 (d2)    -0.0297  0.0000  0.0000  0.0000  0.0000  0.0000  0.0000  0.0000
  12.  C 1 (d3)    -0.0031  0.0000  0.0000  0.0000  0.0000  0.0000  0.0000  0.0000
  13.  C 1 (d4)     0.0000  0.0420 -0.0742 -0.0463 -0.0264 -0.0598  0.0683  0.1359
  14.  C 1 (d1)     0.0000  0.1033 -0.0626 -0.0502  0.0447  0.1968  0.0872  0.0427
  15.  C 2 (s)      0.0000  0.0045  0.0399 -0.0392  0.0026  0.0236 -0.0334  0.0422
  16.  C 2 (s)      0.0000  0.1420 -0.0918  0.6696  0.9210  0.3523  0.5355 -0.0413
  17.  C 2 (px)     0.0000  0.0641  0.5493 -0.5449  0.5974 -0.3706  0.3831 -0.1384
  18.  C 2 (py)     0.0000 -0.5191  0.4110 -0.3538 -0.1952  0.4074 -0.0216  0.0276
  19.  C 2 (pz)     0.7532  0.0000  0.0000  0.0000  0.0000  0.0000  0.0000  0.0000
  20.  C 2 (s)      0.0000  0.6569 -0.7689 -0.5302 -1.4086 -2.4697 -2.4480  0.7710
  21.  C 2 (px)     0.0000 -0.5298 -0.5564  0.3653 -2.2631  1.0125 -0.1440 -0.7694
  22.  C 2 (py)     0.0000  1.5859 -0.3012  0.3452  0.3758 -1.9797 -0.2398 -0.1452
  23.  C 2 (pz)    -1.1776  0.0000  0.0000  0.0000  0.0000  0.0000  0.0000  0.0000
  24.  C 2 (d5)     0.0000 -0.0564 -0.0543  0.0469 -0.0536 -0.0121  0.1054 -0.1153
  25.  C 2 (d2)    -0.0297  0.0000  0.0000  0.0000  0.0000  0.0000  0.0000  0.0000
  26.  C 2 (d3)    -0.0031  0.0000  0.0000  0.0000  0.0000  0.0000  0.0000  0.0000
  27.  C 2 (d4)     0.0000 -0.0420  0.0742 -0.0463 -0.0264  0.0598 -0.0683  0.1359
  28.  C 2 (d1)     0.0000 -0.1033  0.0626 -0.0502  0.0447 -0.1968 -0.0872  0.0427
  29.  O 3 (s)      0.0000 -0.0042  0.0303  0.0409  0.0169  0.0211  0.0326  0.0340
  30.  O 3 (s)      0.0000  0.0120 -0.1115 -0.1638 -0.0392 -0.0672 -0.1167 -0.1394
  31.  O 3 (px)     0.0000  0.0182  0.2383  0.1311 -0.1564 -0.1881 -0.4051 -0.4075
  32.  O 3 (py)     0.0000 -0.1990 -0.0251  0.1459 -0.0660 -0.0950 -0.2073 -0.2065
  33.  O 3 (pz)    -0.0321  0.0000  0.0000  0.0000  0.0000  0.0000  0.0000  0.0000
  34.  O 3 (s)      0.0000 -0.0593  0.0318  0.1677 -0.6449 -0.5236 -0.5541 -0.6563
  35.  O 3 (px)     0.0000  0.0419  0.2626  0.3238  0.1928  0.2946  0.8034  0.7175
  36.  O 3 (py)     0.0000 -0.1614  0.1670  0.1975  0.2572  0.4768  0.5147  0.5415
  37.  O 3 (pz)    -0.1362  0.0000  0.0000  0.0000  0.0000  0.0000  0.0000  0.0000
  38.  O 3 (d5)     0.0000  0.0284 -0.0436 -0.0665  0.0199  0.0803  0.0473  0.0412
  39.  O 3 (d2)     0.0457  0.0000  0.0000  0.0000  0.0000  0.0000  0.0000  0.0000
  40.  O 3 (d3)     0.0508  0.0000  0.0000  0.0000  0.0000  0.0000  0.0000  0.0000
  41.  O 3 (d4)     0.0000 -0.0359  0.0751  0.0494  0.0529  0.0454 -0.0392 -0.0599
  42.  O 3 (d1)     0.0000 -0.0180  0.0770  0.0976 -0.0521 -0.0722 -0.0282 -0.0152
  43.  H 4 (s)      0.0000 -0.4516 -0.2839  0.0248 -0.1406 -0.4979  0.3241  0.5497
  44.  H 4 (s)      0.0000 -0.3565 -0.1863  0.1419  1.6425  1.2328 -0.8045 -0.3224
  45.  O 5 (s)      0.0000  0.0042 -0.0303  0.0409  0.0169 -0.0211 -0.0326  0.0340
  46.  O 5 (s)      0.0000 -0.0120  0.1115 -0.1638 -0.0392  0.0672  0.1167 -0.1394
  47.  O 5 (px)     0.0000  0.0182  0.2383 -0.1311  0.1564 -0.1881 -0.4051  0.4075
  48.  O 5 (py)     0.0000 -0.1990 -0.0251 -0.1459  0.0660 -0.0950 -0.2073  0.2065
  49.  O 5 (pz)     0.0321  0.0000  0.0000  0.0000  0.0000  0.0000  0.0000  0.0000
  50.  O 5 (s)      0.0000  0.0593 -0.0318  0.1677 -0.6449  0.5236  0.5541 -0.6563
  51.  O 5 (px)     0.0000  0.0419  0.2626 -0.3238 -0.1928  0.2946  0.8034 -0.7175
  52.  O 5 (py)     0.0000 -0.1614  0.1670 -0.1975 -0.2572  0.4768  0.5147 -0.5415
  53.  O 5 (pz)     0.1362  0.0000  0.0000  0.0000  0.0000  0.0000  0.0000  0.0000
  54.  O 5 (d5)     0.0000 -0.0284  0.0436 -0.0665  0.0199 -0.0803 -0.0473  0.0412
  55.  O 5 (d2)     0.0457  0.0000  0.0000  0.0000  0.0000  0.0000  0.0000  0.0000
  56.  O 5 (d3)     0.0508  0.0000  0.0000  0.0000  0.0000  0.0000  0.0000  0.0000
  57.  O 5 (d4)     0.0000  0.0359 -0.0751  0.0494  0.0529 -0.0454  0.0392 -0.0599
  58.  O 5 (d1)     0.0000  0.0180 -0.0770  0.0976 -0.0521  0.0722  0.0282 -0.0152
  59.  H 6 (s)      0.0000  0.4516  0.2839  0.0248 -0.1406  0.4979 -0.3241  0.5497
  60.  H 6 (s)      0.0000  0.3565  0.1863  0.1419  1.6425 -1.2328  0.8045 -0.3224

           AO         33      34      35      36      37      38      39      40
      ------------ ------- ------- ------- ------- ------- ------- ------- -------
   1.  C 1 (s)     -0.0303  0.0000  0.0000 -0.0073  0.0071 -0.0077  0.0000  0.0000
   2.  C 1 (s)     -1.3890  0.0000  0.0000  0.0757  0.2255  0.1130  0.0000  0.0000
   3.  C 1 (px)     0.1154  0.0000  0.0000 -0.0680  0.1682 -0.1308  0.0000  0.0000
   4.  C 1 (py)     0.0539  0.0000  0.0000  0.1761 -0.1509  0.0518  0.0000  0.0000
   5.  C 1 (pz)     0.0000  0.0752  0.0929  0.0000  0.0000  0.0000  0.0108 -0.1706
   6.  C 1 (s)      3.5045  0.0000  0.0000 -0.6149 -1.3992 -0.6970  0.0000  0.0000
   7.  C 1 (px)    -0.3090  0.0000  0.0000  0.5256 -0.6447  2.1215  0.0000  0.0000
   8.  C 1 (py)    -1.3318  0.0000  0.0000 -0.7456  1.5759 -0.2898  0.0000  0.0000
   9.  C 1 (pz)     0.0000 -0.4637 -0.3069  0.0000  0.0000  0.0000  0.0793  0.2226
  10.  C 1 (d5)     0.0527  0.0000  0.0000  0.0534  0.0263  0.0030  0.0000  0.0000
  11.  C 1 (d2)     0.0000  0.0051 -0.0502  0.0000  0.0000  0.0000 -0.0430  0.5199
  12.  C 1 (d3)     0.0000 -0.0503 -0.0204  0.0000  0.0000  0.0000  0.5753  0.0028
  13.  C 1 (d4)    -0.0688  0.0000  0.0000  0.1212 -0.0655  0.0258  0.0000  0.0000
  14.  C 1 (d1)    -0.0681  0.0000  0.0000 -0.0268  0.0644 -0.1504  0.0000  0.0000
  15.  C 2 (s)      0.0303  0.0000  0.0000 -0.0073 -0.0071 -0.0077  0.0000  0.0000
  16.  C 2 (s)      1.3890  0.0000  0.0000  0.0757 -0.2255  0.1130  0.0000  0.0000
  17.  C 2 (px)     0.1154  0.0000  0.0000  0.0680  0.1682  0.1308  0.0000  0.0000
  18.  C 2 (py)     0.0539  0.0000  0.0000 -0.1761 -0.1509 -0.0518  0.0000  0.0000
  19.  C 2 (pz)     0.0000 -0.0752  0.0929  0.0000  0.0000  0.0000  0.0108  0.1706
  20.  C 2 (s)     -3.5045  0.0000  0.0000 -0.6149  1.3992 -0.6970  0.0000  0.0000
  21.  C 2 (px)    -0.3090  0.0000  0.0000 -0.5256 -0.6447 -2.1215  0.0000  0.0000
  22.  C 2 (py)    -1.3318  0.0000  0.0000  0.7456  1.5759  0.2898  0.0000  0.0000
  23.  C 2 (pz)     0.0000  0.4637 -0.3069  0.0000  0.0000  0.0000  0.0793 -0.2226
  24.  C 2 (d5)    -0.0527  0.0000  0.0000  0.0534 -0.0263  0.0030  0.0000  0.0000
  25.  C 2 (d2)     0.0000  0.0051  0.0502  0.0000  0.0000  0.0000  0.0430  0.5199
  26.  C 2 (d3)     0.0000 -0.0503  0.0204  0.0000  0.0000  0.0000 -0.5753  0.0028
  27.  C 2 (d4)     0.0688  0.0000  0.0000  0.1212  0.0655  0.0258  0.0000  0.0000
  28.  C 2 (d1)     0.0681  0.0000  0.0000 -0.0268 -0.0644 -0.1504  0.0000  0.0000
  29.  O 3 (s)     -0.0219  0.0000  0.0000 -0.0042 -0.0048  0.0133  0.0000  0.0000
  30.  O 3 (s)      0.1170  0.0000  0.0000  0.0733  0.0840 -0.1006  0.0000  0.0000
  31.  O 3 (px)     0.1689  0.0000  0.0000  0.3199 -0.3123  0.3060  0.0000  0.0000
  32.  O 3 (py)     0.1825  0.0000  0.0000 -0.5219  0.5261  0.2443  0.0000  0.0000
  33.  O 3 (pz)     0.0000 -0.6914 -0.6863  0.0000  0.0000  0.0000 -0.0554 -0.0626
  34.  O 3 (s)     -0.1420  0.0000  0.0000 -0.0227  0.0144 -0.5782  0.0000  0.0000
  35.  O 3 (px)    -0.3814  0.0000  0.0000 -0.5252  0.5807 -0.5003  0.0000  0.0000
  36.  O 3 (py)    -0.1859  0.0000  0.0000  0.8866 -0.9574 -0.0298  0.0000  0.0000
  37.  O 3 (pz)     0.0000  0.8799  0.8720  0.0000  0.0000  0.0000 -0.0874 -0.1552
  38.  O 3 (d5)     0.0753  0.0000  0.0000 -0.0043 -0.0371  0.0604  0.0000  0.0000
  39.  O 3 (d2)     0.0000  0.0351  0.0243  0.0000  0.0000  0.0000 -0.2225 -0.2035
  40.  O 3 (d3)     0.0000 -0.0084  0.0288  0.0000  0.0000  0.0000  0.0624 -0.2687
  41.  O 3 (d4)     0.0130  0.0000  0.0000 -0.0587  0.0737 -0.0469  0.0000  0.0000
  42.  O 3 (d1)    -0.0123  0.0000  0.0000  0.0548 -0.0163  0.0326  0.0000  0.0000
  43.  H 4 (s)      0.0621  0.0000  0.0000 -0.0399 -0.1101  0.6817  0.0000  0.0000
  44.  H 4 (s)     -0.5965  0.0000  0.0000  0.6118 -0.4176  0.7268  0.0000  0.0000
  45.  O 5 (s)      0.0219  0.0000  0.0000 -0.0042  0.0048  0.0133  0.0000  0.0000
  46.  O 5 (s)     -0.1170  0.0000  0.0000  0.0733 -0.0840 -0.1006  0.0000  0.0000
  47.  O 5 (px)     0.1689  0.0000  0.0000 -0.3199 -0.3123 -0.3060  0.0000  0.0000
  48.  O 5 (py)     0.1825  0.0000  0.0000  0.5219  0.5261 -0.2443  0.0000  0.0000
  49.  O 5 (pz)     0.0000  0.6914 -0.6863  0.0000  0.0000  0.0000 -0.0554  0.0626
  50.  O 5 (s)      0.1420  0.0000  0.0000 -0.0227 -0.0144 -0.5782  0.0000  0.0000
  51.  O 5 (px)    -0.3814  0.0000  0.0000  0.5252  0.5807  0.5003  0.0000  0.0000
  52.  O 5 (py)    -0.1859  0.0000  0.0000 -0.8866 -0.9574  0.0298  0.0000  0.0000
  53.  O 5 (pz)     0.0000 -0.8799  0.8720  0.0000  0.0000  0.0000 -0.0874  0.1552
  54.  O 5 (d5)    -0.0753  0.0000  0.0000 -0.0043  0.0371  0.0604  0.0000  0.0000
  55.  O 5 (d2)     0.0000  0.0351 -0.0243  0.0000  0.0000  0.0000  0.2225 -0.2035
  56.  O 5 (d3)     0.0000 -0.0084 -0.0288  0.0000  0.0000  0.0000 -0.0624 -0.2687
  57.  O 5 (d4)    -0.0130  0.0000  0.0000 -0.0587 -0.0737 -0.0469  0.0000  0.0000
  58.  O 5 (d1)     0.0123  0.0000  0.0000  0.0548  0.0163  0.0326  0.0000  0.0000
  59.  H 6 (s)     -0.0621  0.0000  0.0000 -0.0399  0.1101  0.6817  0.0000  0.0000
  60.  H 6 (s)      0.5965  0.0000  0.0000  0.6118  0.4176  0.7268  0.0000  0.0000

           AO         41      42      43      44      45      46      47      48
      ------------ ------- ------- ------- ------- ------- ------- ------- -------
   1.  C 1 (s)     -0.0123  0.0000 -0.0005  0.0000  0.0218  0.0055 -0.0247  0.0000
   2.  C 1 (s)     -0.2675  0.0000  0.0949  0.0000 -0.3030  0.0083 -0.3509  0.0000
   3.  C 1 (px)     0.0175  0.0000 -0.0353  0.0000  0.0849  0.0708 -0.0657  0.0000
   4.  C 1 (py)     0.0559  0.0000 -0.1274  0.0000  0.2335 -0.1798  0.1086  0.0000
   5.  C 1 (pz)     0.0000 -0.1283  0.0000  0.0317  0.0000  0.0000  0.0000 -0.0765
   6.  C 1 (s)     -0.7186  0.0000 -2.0185  0.0000  0.4145 -1.2275  1.5541  0.0000
   7.  C 1 (px)    -1.6358  0.0000 -1.0160  0.0000  1.4331 -2.0040 -0.1140  0.0000
   8.  C 1 (py)    -0.4800  0.0000 -0.2356  0.0000 -0.3505 -0.4916 -0.6215  0.0000
   9.  C 1 (pz)     0.0000  0.0332  0.0000  0.2237  0.0000  0.0000  0.0000  0.0133
  10.  C 1 (d5)    -0.2336  0.0000  0.0314  0.0000 -0.1343  0.3510 -0.1722  0.0000
  11.  C 1 (d2)     0.0000  0.4840  0.0000 -0.0002  0.0000  0.0000  0.0000  0.1819
  12.  C 1 (d3)     0.0000 -0.0526  0.0000 -0.3203  0.0000  0.0000  0.0000 -0.2420
  13.  C 1 (d4)    -0.1587  0.0000 -0.1273  0.0000 -0.3404 -0.1500  0.0437  0.0000
  14.  C 1 (d1)    -0.1571  0.0000 -0.2132  0.0000  0.1118  0.0539 -0.2366  0.0000
  15.  C 2 (s)     -0.0123  0.0000  0.0005  0.0000  0.0218  0.0055  0.0247  0.0000
  16.  C 2 (s)     -0.2675  0.0000 -0.0949  0.0000 -0.3030  0.0083  0.3509  0.0000
  17.  C 2 (px)    -0.0175  0.0000 -0.0353  0.0000 -0.0849 -0.0708 -0.0657  0.0000
  18.  C 2 (py)    -0.0559  0.0000 -0.1274  0.0000 -0.2335  0.1798  0.1086  0.0000
  19.  C 2 (pz)     0.0000 -0.1283  0.0000 -0.0317  0.0000  0.0000  0.0000 -0.0765
  20.  C 2 (s)     -0.7186  0.0000  2.0185  0.0000  0.4145 -1.2275 -1.5541  0.0000
  21.  C 2 (px)     1.6358  0.0000 -1.0160  0.0000 -1.4331  2.0040 -0.1140  0.0000
  22.  C 2 (py)     0.4800  0.0000 -0.2356  0.0000  0.3505  0.4916 -0.6215  0.0000
  23.  C 2 (pz)     0.0000  0.0332  0.0000 -0.2237  0.0000  0.0000  0.0000  0.0133
  24.  C 2 (d5)    -0.2336  0.0000 -0.0314  0.0000 -0.1343  0.3510  0.1722  0.0000
  25.  C 2 (d2)     0.0000 -0.4840  0.0000 -0.0002  0.0000  0.0000  0.0000 -0.1819
  26.  C 2 (d3)     0.0000  0.0526  0.0000 -0.3203  0.0000  0.0000  0.0000  0.2420
  27.  C 2 (d4)    -0.1587  0.0000  0.1273  0.0000 -0.3404 -0.1500 -0.0437  0.0000
  28.  C 2 (d1)    -0.1571  0.0000  0.2132  0.0000  0.1118  0.0539  0.2366  0.0000
  29.  O 3 (s)      0.0191  0.0000  0.0182  0.0000 -0.0062  0.0025 -0.0053  0.0000
  30.  O 3 (s)     -0.8794  0.0000 -1.1590  0.0000  0.4600 -0.8171  0.1072  0.0000
  31.  O 3 (px)     0.1019  0.0000  0.0150  0.0000  0.0829  0.0079 -0.1105  0.0000
  32.  O 3 (py)    -0.0663  0.0000  0.0498  0.0000 -0.1800 -0.1150  0.0131  0.0000
  33.  O 3 (pz)     0.0000 -0.1237  0.0000  0.0821  0.0000  0.0000  0.0000 -0.0108
  34.  O 3 (s)      2.2497  0.0000  2.7843  0.0000 -1.3436  2.6140 -0.1881  0.0000
  35.  O 3 (px)    -0.6267  0.0000 -0.7556  0.0000  0.1477 -0.6606  0.1291  0.0000
  36.  O 3 (py)    -0.2509  0.0000 -0.6415  0.0000  0.5116 -0.3309  0.0624  0.0000
  37.  O 3 (pz)     0.0000 -0.0039  0.0000 -0.1102  0.0000  0.0000  0.0000  0.0092
  38.  O 3 (d5)    -0.2588  0.0000  0.0355  0.0000 -0.0110  0.3732 -0.4882  0.0000
  39.  O 3 (d2)     0.0000 -0.1845  0.0000  0.4433  0.0000  0.0000  0.0000 -0.4293
  40.  O 3 (d3)     0.0000 -0.3553  0.0000 -0.4189  0.0000  0.0000  0.0000  0.5094
  41.  O 3 (d4)    -0.0920  0.0000  0.0459  0.0000  0.3449  0.1900 -0.2873  0.0000
  42.  O 3 (d1)    -0.2068  0.0000 -0.2026  0.0000 -0.1439 -0.0012 -0.1884  0.0000
  43.  H 4 (s)     -0.1903  0.0000  0.0185  0.0000  0.4668  0.0628 -0.3897  0.0000
  44.  H 4 (s)     -0.4664  0.0000 -0.1076  0.0000  0.3886 -0.5003 -0.0105  0.0000
  45.  O 5 (s)      0.0191  0.0000 -0.0182  0.0000 -0.0062  0.0025  0.0053  0.0000
  46.  O 5 (s)     -0.8794  0.0000  1.1590  0.0000  0.4600 -0.8171 -0.1072  0.0000
  47.  O 5 (px)    -0.1019  0.0000  0.0150  0.0000 -0.0829 -0.0079 -0.1105  0.0000
  48.  O 5 (py)     0.0663  0.0000  0.0498  0.0000  0.1800  0.1150  0.0131  0.0000
  49.  O 5 (pz)     0.0000 -0.1237  0.0000 -0.0821  0.0000  0.0000  0.0000 -0.0108
  50.  O 5 (s)      2.2497  0.0000 -2.7843  0.0000 -1.3436  2.6140  0.1881  0.0000
  51.  O 5 (px)     0.6267  0.0000 -0.7556  0.0000 -0.1477  0.6606  0.1291  0.0000
  52.  O 5 (py)     0.2509  0.0000 -0.6415  0.0000 -0.5116  0.3309  0.0624  0.0000
  53.  O 5 (pz)     0.0000 -0.0039  0.0000  0.1102  0.0000  0.0000  0.0000  0.0092
  54.  O 5 (d5)    -0.2588  0.0000 -0.0355  0.0000 -0.0110  0.3732  0.4882  0.0000
  55.  O 5 (d2)     0.0000  0.1845  0.0000  0.4433  0.0000  0.0000  0.0000  0.4293
  56.  O 5 (d3)     0.0000  0.3553  0.0000 -0.4189  0.0000  0.0000  0.0000 -0.5094
  57.  O 5 (d4)    -0.0920  0.0000 -0.0459  0.0000  0.3449  0.1900  0.2873  0.0000
  58.  O 5 (d1)    -0.2068  0.0000  0.2026  0.0000 -0.1439 -0.0012  0.1884  0.0000
  59.  H 6 (s)     -0.1903  0.0000 -0.0185  0.0000  0.4668  0.0628  0.3897  0.0000
  60.  H 6 (s)     -0.4664  0.0000  0.1076  0.0000  0.3886 -0.5003  0.0105  0.0000

           AO         49      50      51      52      53      54      55      56
      ------------ ------- ------- ------- ------- ------- ------- ------- -------
   1.  C 1 (s)     -0.0257  0.0196  0.0000 -0.0032 -0.0313 -0.0848  0.0000  0.0000
   2.  C 1 (s)     -0.1385  0.2467  0.0000 -0.0263  0.0162 -0.4270  0.0000  0.0000
   3.  C 1 (px)     0.1268 -0.0220  0.0000 -0.1461  0.0306 -0.0199  0.0000  0.0000
   4.  C 1 (py)    -0.1821 -0.1501  0.0000 -0.2774 -0.2000 -0.1825  0.0000  0.0000
   5.  C 1 (pz)     0.0000  0.0000 -0.1004  0.0000  0.0000  0.0000  0.1415  0.1945
   6.  C 1 (s)      1.5287 -0.3380  0.0000  1.0512 -0.0182  2.5347  0.0000  0.0000
   7.  C 1 (px)     0.6170  0.5404  0.0000  0.1858  0.4097  0.3929  0.0000  0.0000
   8.  C 1 (py)    -1.0081 -0.0140  0.0000 -0.6389  0.0859 -1.1866  0.0000  0.0000
   9.  C 1 (pz)     0.0000  0.0000 -0.2979  0.0000  0.0000  0.0000  0.1703  0.1647
  10.  C 1 (d5)     0.0642  0.5388  0.0000  0.0163 -0.1619 -0.8026  0.0000  0.0000
  11.  C 1 (d2)     0.0000  0.0000 -0.3622  0.0000  0.0000  0.0000  0.4709  0.6272
  12.  C 1 (d3)     0.0000  0.0000  0.5480  0.0000  0.0000  0.0000  0.5558  0.2792
  13.  C 1 (d4)    -0.2191 -0.0146  0.0000 -0.2284  0.5267 -0.0053  0.0000  0.0000
  14.  C 1 (d1)     0.3532  0.0301  0.0000 -0.5624  0.3793  0.0606  0.0000  0.0000
  15.  C 2 (s)      0.0257  0.0196  0.0000  0.0032 -0.0313  0.0848  0.0000  0.0000
  16.  C 2 (s)      0.1385  0.2467  0.0000  0.0263  0.0162  0.4270  0.0000  0.0000
  17.  C 2 (px)     0.1268  0.0220  0.0000 -0.1461 -0.0306 -0.0199  0.0000  0.0000
  18.  C 2 (py)    -0.1821  0.1501  0.0000 -0.2774  0.2000 -0.1825  0.0000  0.0000
  19.  C 2 (pz)     0.0000  0.0000  0.1004  0.0000  0.0000  0.0000 -0.1415  0.1945
  20.  C 2 (s)     -1.5287 -0.3380  0.0000 -1.0512 -0.0182 -2.5347  0.0000  0.0000
  21.  C 2 (px)     0.6170 -0.5404  0.0000  0.1858 -0.4097  0.3929  0.0000  0.0000
  22.  C 2 (py)    -1.0081  0.0140  0.0000 -0.6389 -0.0859 -1.1866  0.0000  0.0000
  23.  C 2 (pz)     0.0000  0.0000  0.2979  0.0000  0.0000  0.0000 -0.1703  0.1647
  24.  C 2 (d5)    -0.0642  0.5388  0.0000 -0.0163 -0.1619  0.8026  0.0000  0.0000
  25.  C 2 (d2)     0.0000  0.0000 -0.3622  0.0000  0.0000  0.0000  0.4709 -0.6272
  26.  C 2 (d3)     0.0000  0.0000  0.5480  0.0000  0.0000  0.0000  0.5558 -0.2792
  27.  C 2 (d4)     0.2191 -0.0146  0.0000  0.2284  0.5267  0.0053  0.0000  0.0000
  28.  C 2 (d1)    -0.3532  0.0301  0.0000  0.5624  0.3793 -0.0606  0.0000  0.0000
  29.  O 3 (s)      0.0074 -0.0082  0.0000 -0.0298  0.0225  0.0178  0.0000  0.0000
  30.  O 3 (s)      0.1108  0.1506  0.0000  0.5202 -0.3427 -0.1094  0.0000  0.0000
  31.  O 3 (px)     0.1752 -0.1201  0.0000 -0.3229  0.3012  0.2255  0.0000  0.0000
  32.  O 3 (py)    -0.1123 -0.0639  0.0000 -0.2767  0.1723  0.0929  0.0000  0.0000
  33.  O 3 (pz)     0.0000  0.0000 -0.0615  0.0000  0.0000  0.0000 -0.0066 -0.0024
  34.  O 3 (s)     -0.6081 -0.2226  0.0000 -0.4632 -0.0268 -0.4854  0.0000  0.0000
  35.  O 3 (px)    -0.0754  0.0432  0.0000  0.1496 -0.2442 -0.0883  0.0000  0.0000
  36.  O 3 (py)     0.4741  0.0695  0.0000  0.3967  0.0249  0.2817  0.0000  0.0000
  37.  O 3 (pz)     0.0000  0.0000  0.1927  0.0000  0.0000  0.0000 -0.2982 -0.3212
  38.  O 3 (d5)    -0.3430 -0.4048  0.0000  0.0679 -0.1375  0.0508  0.0000  0.0000
  39.  O 3 (d2)     0.0000  0.0000 -0.0658  0.0000  0.0000  0.0000  0.6276  0.5998
  40.  O 3 (d3)     0.0000  0.0000 -0.4745  0.0000  0.0000  0.0000  0.2752  0.4063
  41.  O 3 (d4)     0.2652 -0.0305  0.0000  0.3988  0.4168  0.2788  0.0000  0.0000
  42.  O 3 (d1)    -0.3222 -0.3160  0.0000 -0.1080 -0.1438  0.0557  0.0000  0.0000
  43.  H 4 (s)      0.4334  0.3390  0.0000 -0.1617  0.0532 -0.2726  0.0000  0.0000
  44.  H 4 (s)      0.1742  0.2006  0.0000  0.1521  0.1216  0.1965  0.0000  0.0000
  45.  O 5 (s)     -0.0074 -0.0082  0.0000  0.0298  0.0225 -0.0178  0.0000  0.0000
  46.  O 5 (s)     -0.1108  0.1506  0.0000 -0.5202 -0.3427  0.1094  0.0000  0.0000
  47.  O 5 (px)     0.1752  0.1201  0.0000 -0.3229 -0.3012  0.2255  0.0000  0.0000
  48.  O 5 (py)    -0.1123  0.0639  0.0000 -0.2767 -0.1723  0.0929  0.0000  0.0000
  49.  O 5 (pz)     0.0000  0.0000  0.0615  0.0000  0.0000  0.0000  0.0066 -0.0024
  50.  O 5 (s)      0.6081 -0.2226  0.0000  0.4632 -0.0268  0.4854  0.0000  0.0000
  51.  O 5 (px)    -0.0754 -0.0432  0.0000  0.1496  0.2442 -0.0883  0.0000  0.0000
  52.  O 5 (py)     0.4741 -0.0695  0.0000  0.3967 -0.0249  0.2817  0.0000  0.0000
  53.  O 5 (pz)     0.0000  0.0000 -0.1927  0.0000  0.0000  0.0000  0.2982 -0.3212
  54.  O 5 (d5)     0.3430 -0.4048  0.0000 -0.0679 -0.1375 -0.0508  0.0000  0.0000
  55.  O 5 (d2)     0.0000  0.0000 -0.0658  0.0000  0.0000  0.0000  0.6276 -0.5998
  56.  O 5 (d3)     0.0000  0.0000 -0.4745  0.0000  0.0000  0.0000  0.2752 -0.4063
  57.  O 5 (d4)    -0.2652 -0.0305  0.0000 -0.3988  0.4168 -0.2788  0.0000  0.0000
  58.  O 5 (d1)     0.3222 -0.3160  0.0000  0.1080 -0.1438 -0.0557  0.0000  0.0000
  59.  H 6 (s)     -0.4334  0.3390  0.0000  0.1617  0.0532  0.2726  0.0000  0.0000
  60.  H 6 (s)     -0.1742  0.2006  0.0000 -0.1521  0.1216 -0.1965  0.0000  0.0000

           AO         57      58      59      60
      ------------ ------- ------- ------- -------
   1.  C 1 (s)     -0.0176 -0.0331 -0.0176 -0.0135
   2.  C 1 (s)     -0.6341  0.2429 -0.8557 -0.6635
   3.  C 1 (px)    -0.5419  0.1451 -0.7814 -0.5667
   4.  C 1 (py)    -0.2328 -0.1389 -0.4883 -0.4461
   5.  C 1 (pz)     0.0000  0.0000  0.0000  0.0000
   6.  C 1 (s)     -0.4414  1.0317 -1.6484 -0.9394
   7.  C 1 (px)    -0.5395 -0.0146 -0.7367 -0.4870
   8.  C 1 (py)     0.0200 -0.3014  0.0415 -0.4388
   9.  C 1 (pz)     0.0000  0.0000  0.0000  0.0000
  10.  C 1 (d5)     0.1958 -0.2681  0.3023  0.2184
  11.  C 1 (d2)     0.0000  0.0000  0.0000  0.0000
  12.  C 1 (d3)     0.0000  0.0000  0.0000  0.0000
  13.  C 1 (d4)    -0.4119 -0.9196 -0.3653  0.0327
  14.  C 1 (d1)     0.3495  0.1672 -0.3104 -0.8390
  15.  C 2 (s)     -0.0176  0.0331  0.0176 -0.0135
  16.  C 2 (s)     -0.6341 -0.2429  0.8557 -0.6635
  17.  C 2 (px)     0.5419  0.1451 -0.7814  0.5667
  18.  C 2 (py)     0.2328 -0.1389 -0.4883  0.4461
  19.  C 2 (pz)     0.0000  0.0000  0.0000  0.0000
  20.  C 2 (s)     -0.4414 -1.0317  1.6484 -0.9394
  21.  C 2 (px)     0.5395 -0.0146 -0.7367  0.4870
  22.  C 2 (py)    -0.0200 -0.3014  0.0415  0.4388
  23.  C 2 (pz)     0.0000  0.0000  0.0000  0.0000
  24.  C 2 (d5)     0.1958  0.2681 -0.3023  0.2184
  25.  C 2 (d2)     0.0000  0.0000  0.0000  0.0000
  26.  C 2 (d3)     0.0000  0.0000  0.0000  0.0000
  27.  C 2 (d4)    -0.4119  0.9196  0.3653  0.0327
  28.  C 2 (d1)     0.3495 -0.1672  0.3104 -0.8390
  29.  O 3 (s)     -0.0180  0.0030 -0.0450 -0.0426
  30.  O 3 (s)     -0.4769  0.2171 -0.5981 -0.2030
  31.  O 3 (px)     0.0290 -0.0301 -0.1774 -0.2642
  32.  O 3 (py)    -0.0059 -0.0801 -0.0844 -0.1575
  33.  O 3 (pz)     0.0000  0.0000  0.0000  0.0000
  34.  O 3 (s)      1.3938 -0.4846  2.4433  1.6403
  35.  O 3 (px)    -0.6037  0.3662 -1.0709 -0.8868
  36.  O 3 (py)    -0.6344  0.0383 -0.8832 -0.2721
  37.  O 3 (pz)     0.0000  0.0000  0.0000  0.0000
  38.  O 3 (d5)    -0.3774  0.1584 -0.5112 -0.3319
  39.  O 3 (d2)     0.0000  0.0000  0.0000  0.0000
  40.  O 3 (d3)     0.0000  0.0000  0.0000  0.0000
  41.  O 3 (d4)    -0.1398 -0.5285  0.2378  0.6407
  42.  O 3 (d1)     0.6977  0.1010  0.8532  0.4581
  43.  H 4 (s)      0.2438  0.1480  0.0836 -0.1808
  44.  H 4 (s)     -0.2918 -0.1560 -0.1624  0.1379
  45.  O 5 (s)     -0.0180 -0.0030  0.0450 -0.0426
  46.  O 5 (s)     -0.4769 -0.2171  0.5981 -0.2030
  47.  O 5 (px)    -0.0290 -0.0301 -0.1774  0.2642
  48.  O 5 (py)     0.0059 -0.0801 -0.0844  0.1575
  49.  O 5 (pz)     0.0000  0.0000  0.0000  0.0000
  50.  O 5 (s)      1.3938  0.4846 -2.4433  1.6403
  51.  O 5 (px)     0.6037  0.3662 -1.0709  0.8868
  52.  O 5 (py)     0.6344  0.0383 -0.8832  0.2721
  53.  O 5 (pz)     0.0000  0.0000  0.0000  0.0000
  54.  O 5 (d5)    -0.3774 -0.1584  0.5112 -0.3319
  55.  O 5 (d2)     0.0000  0.0000  0.0000  0.0000
  56.  O 5 (d3)     0.0000  0.0000  0.0000  0.0000
  57.  O 5 (d4)    -0.1398  0.5285 -0.2378  0.6407
  58.  O 5 (d1)     0.6977 -0.1010 -0.8532  0.4581
  59.  H 6 (s)      0.2438 -0.1480 -0.0836 -0.1808
  60.  H 6 (s)     -0.2918  0.1560  0.1624  0.1379


 AO overlap matrix:

           AO          1       2       3       4       5       6       7       8
      ------------ ------- ------- ------- ------- ------- ------- ------- -------
   1.  C 1 (s)      1.0000  0.2191  0.0000  0.0000  0.0000  0.1843  0.0000  0.0000
   2.  C 1 (s)      0.2191  1.0000  0.0000  0.0000  0.0000  0.8123  0.0000  0.0000
   3.  C 1 (px)     0.0000  0.0000  1.0000  0.0000  0.0000  0.0000  0.5698  0.0000
   4.  C 1 (py)     0.0000  0.0000  0.0000  1.0000  0.0000  0.0000  0.0000  0.5698
   5.  C 1 (pz)     0.0000  0.0000  0.0000  0.0000  1.0000  0.0000  0.0000  0.0000
   6.  C 1 (s)      0.1843  0.8123  0.0000  0.0000  0.0000  1.0000  0.0000  0.0000
   7.  C 1 (px)     0.0000  0.0000  0.5698  0.0000  0.0000  0.0000  1.0000  0.0000
   8.  C 1 (py)     0.0000  0.0000  0.0000  0.5698  0.0000  0.0000  0.0000  1.0000
   9.  C 1 (pz)     0.0000  0.0000  0.0000  0.0000  0.5698  0.0000  0.0000  0.0000
  10.  C 1 (d5)     0.0000  0.0000  0.0000  0.0000  0.0000  0.0000  0.0000  0.0000
  11.  C 1 (d2)     0.0000  0.0000  0.0000  0.0000  0.0000  0.0000  0.0000  0.0000
  12.  C 1 (d3)     0.0000  0.0000  0.0000  0.0000  0.0000  0.0000  0.0000  0.0000
  13.  C 1 (d4)     0.0000  0.0000  0.0000  0.0000  0.0000  0.0000  0.0000  0.0000
  14.  C 1 (d1)     0.0000  0.0000  0.0000  0.0000  0.0000  0.0000  0.0000  0.0000
  15.  C 2 (s)      0.0000  0.0085  0.0000 -0.0209  0.0000  0.0487  0.0000 -0.1104
  16.  C 2 (s)      0.0085  0.1311  0.0000 -0.1985  0.0000  0.2895  0.0000 -0.5100
  17.  C 2 (px)     0.0000  0.0000  0.0697  0.0000  0.0000  0.0000  0.1938  0.0000
  18.  C 2 (py)     0.0209  0.1985  0.0000 -0.2654  0.0000  0.2276  0.0000 -0.2232
  19.  C 2 (pz)     0.0000  0.0000  0.0000  0.0000  0.0697  0.0000  0.0000  0.0000
  20.  C 2 (s)      0.0487  0.2895  0.0000 -0.2276  0.0000  0.5018  0.0000 -0.5893
  21.  C 2 (px)     0.0000  0.0000  0.1938  0.0000  0.0000  0.0000  0.5018  0.0000
  22.  C 2 (py)     0.1104  0.5100  0.0000 -0.2232  0.0000  0.5893  0.0000 -0.1902
  23.  C 2 (pz)     0.0000  0.0000  0.0000  0.0000  0.1938  0.0000  0.0000  0.0000
  24.  C 2 (d5)    -0.0103 -0.0913  0.0000  0.1189  0.0000 -0.0484  0.0000  0.0115
  25.  C 2 (d2)     0.0000  0.0000  0.0000  0.0000  0.0000  0.0000  0.0000  0.0000
  26.  C 2 (d3)     0.0000  0.0000  0.0000  0.0000  0.1137  0.0000  0.0000  0.0000
  27.  C 2 (d4)    -0.0178 -0.1582  0.0000  0.2060  0.0000 -0.0839  0.0000  0.0198
  28.  C 2 (d1)     0.0000  0.0000  0.1137  0.0000  0.0000  0.0000  0.1429  0.0000
  29.  O 3 (s)      0.0000  0.0201  0.0361  0.0219  0.0000  0.0495  0.0787  0.0477
  30.  O 3 (s)      0.0076  0.1669  0.2279  0.1380  0.0000  0.2846  0.3927  0.2378
  31.  O 3 (px)    -0.0156 -0.1702 -0.1765 -0.1593  0.0000 -0.1249 -0.0222 -0.1066
  32.  O 3 (py)    -0.0094 -0.1030 -0.1593 -0.0098  0.0000 -0.0756 -0.1066  0.0893
  33.  O 3 (pz)     0.0000  0.0000  0.0000  0.0000  0.0867  0.0000  0.0000  0.0000
  34.  O 3 (s)      0.0651  0.3675  0.2851  0.1727  0.0000  0.5512  0.5509  0.3336
  35.  O 3 (px)    -0.1262 -0.4904 -0.1287 -0.2460  0.0000 -0.4355  0.1011 -0.2636
  36.  O 3 (py)    -0.0764 -0.2970 -0.2460  0.1286  0.0000 -0.2637 -0.2636  0.3767
  37.  O 3 (pz)     0.0000  0.0000  0.0000  0.0000  0.2776  0.0000  0.0000  0.0000
  38.  O 3 (d5)    -0.0457 -0.1380 -0.1142 -0.0691  0.0000 -0.0470  0.0217  0.0131
  39.  O 3 (d2)     0.0000  0.0000  0.0000  0.0000 -0.2130  0.0000  0.0000  0.0000
  40.  O 3 (d3)     0.0000  0.0000  0.0000  0.0000 -0.1290  0.0000  0.0000  0.0000
  41.  O 3 (d4)     0.0367  0.1108 -0.0227  0.2442  0.0000  0.0377 -0.0961  0.1194
  42.  O 3 (d1)     0.0702  0.2118  0.2350  0.0074  0.0000  0.0721  0.0079 -0.0881
  43.  H 4 (s)      0.0305  0.2639 -0.3251  0.1534  0.0000  0.3708 -0.4646  0.2192
  44.  H 4 (s)      0.0905  0.4691 -0.2400  0.1132  0.0000  0.6974 -0.5291  0.2496
  45.  O 5 (s)      0.0000  0.0000  0.0000  0.0000  0.0000  0.0041 -0.0066 -0.0135
  46.  O 5 (s)      0.0000  0.0009 -0.0011 -0.0022  0.0000  0.0330 -0.0456 -0.0936
  47.  O 5 (px)     0.0000  0.0008 -0.0006 -0.0021  0.0000  0.0139 -0.0024 -0.0401
  48.  O 5 (py)     0.0000  0.0017 -0.0021 -0.0039  0.0000  0.0285 -0.0401 -0.0651
  49.  O 5 (pz)     0.0000  0.0000  0.0000  0.0000  0.0004  0.0000  0.0000  0.0000
  50.  O 5 (s)      0.0014  0.0257 -0.0177 -0.0362  0.0000  0.1159 -0.1158 -0.2377
  51.  O 5 (px)     0.0028  0.0349 -0.0075 -0.0506  0.0000  0.0916  0.0213 -0.1878
  52.  O 5 (py)     0.0056  0.0715 -0.0506 -0.0867  0.0000  0.1879 -0.1878 -0.2725
  53.  O 5 (pz)     0.0000  0.0000  0.0000  0.0000  0.0172  0.0000  0.0000  0.0000
  54.  O 5 (d5)     0.0000 -0.0047  0.0045  0.0093  0.0000 -0.0221  0.0192  0.0394
  55.  O 5 (d2)     0.0000  0.0000  0.0000  0.0000  0.0014  0.0000  0.0000  0.0000
  56.  O 5 (d3)     0.0000  0.0000  0.0000  0.0000  0.0029  0.0000  0.0000  0.0000
  57.  O 5 (d4)     0.0000 -0.0050  0.0071  0.0088  0.0000 -0.0236  0.0497  0.0278
  58.  O 5 (d1)     0.0000  0.0064 -0.0044 -0.0136  0.0000  0.0301 -0.0033 -0.0648
  59.  H 6 (s)      0.0000  0.0052  0.0052 -0.0104  0.0000  0.0612  0.0762 -0.1513
  60.  H 6 (s)      0.0115  0.0924  0.0446 -0.0884  0.0000  0.2335  0.1771 -0.3516

           AO          9      10      11      12      13      14      15      16
      ------------ ------- ------- ------- ------- ------- ------- ------- -------
   1.  C 1 (s)      0.0000  0.0000  0.0000  0.0000  0.0000  0.0000  0.0000  0.0085
   2.  C 1 (s)      0.0000  0.0000  0.0000  0.0000  0.0000  0.0000  0.0085  0.1311
   3.  C 1 (px)     0.0000  0.0000  0.0000  0.0000  0.0000  0.0000  0.0000  0.0000
   4.  C 1 (py)     0.0000  0.0000  0.0000  0.0000  0.0000  0.0000 -0.0209 -0.1985
   5.  C 1 (pz)     0.5698  0.0000  0.0000  0.0000  0.0000  0.0000  0.0000  0.0000
   6.  C 1 (s)      0.0000  0.0000  0.0000  0.0000  0.0000  0.0000  0.0487  0.2895
   7.  C 1 (px)     0.0000  0.0000  0.0000  0.0000  0.0000  0.0000  0.0000  0.0000
   8.  C 1 (py)     0.0000  0.0000  0.0000  0.0000  0.0000  0.0000 -0.1104 -0.5100
   9.  C 1 (pz)     1.0000  0.0000  0.0000  0.0000  0.0000  0.0000  0.0000  0.0000
  10.  C 1 (d5)     0.0000  1.0000  0.0000  0.0000  0.0000  0.0000 -0.0103 -0.0913
  11.  C 1 (d2)     0.0000  0.0000  1.0000  0.0000  0.0000  0.0000  0.0000  0.0000
  12.  C 1 (d3)     0.0000  0.0000  0.0000  1.0000  0.0000  0.0000  0.0000  0.0000
  13.  C 1 (d4)     0.0000  0.0000  0.0000  0.0000  1.0000  0.0000 -0.0178 -0.1582
  14.  C 1 (d1)     0.0000  0.0000  0.0000  0.0000  0.0000  1.0000  0.0000  0.0000
  15.  C 2 (s)      0.0000 -0.0103  0.0000  0.0000 -0.0178  0.0000  1.0000  0.2191
  16.  C 2 (s)      0.0000 -0.0913  0.0000  0.0000 -0.1582  0.0000  0.2191  1.0000
  17.  C 2 (px)     0.0000  0.0000  0.0000  0.0000  0.0000 -0.1137  0.0000  0.0000
  18.  C 2 (py)     0.0000 -0.1189  0.0000  0.0000 -0.2060  0.0000  0.0000  0.0000
  19.  C 2 (pz)     0.1938  0.0000  0.0000 -0.1137  0.0000  0.0000  0.0000  0.0000
  20.  C 2 (s)      0.0000 -0.0484  0.0000  0.0000 -0.0839  0.0000  0.1843  0.8123
  21.  C 2 (px)     0.0000  0.0000  0.0000  0.0000  0.0000 -0.1429  0.0000  0.0000
  22.  C 2 (py)     0.0000 -0.0115  0.0000  0.0000 -0.0198  0.0000  0.0000  0.0000
  23.  C 2 (pz)     0.5018  0.0000  0.0000 -0.1429  0.0000  0.0000  0.0000  0.0000
  24.  C 2 (d5)     0.0000  0.0906  0.0000  0.0000  0.0911  0.0000  0.0000  0.0000
  25.  C 2 (d2)     0.0000  0.0000  0.0380  0.0000  0.0000  0.0000  0.0000  0.0000
  26.  C 2 (d3)     0.1429  0.0000  0.0000 -0.2106  0.0000  0.0000  0.0000  0.0000
  27.  C 2 (d4)     0.0000  0.0911  0.0000  0.0000  0.1959  0.0000  0.0000  0.0000
  28.  C 2 (d1)     0.0000  0.0000  0.0000  0.0000  0.0000 -0.2106  0.0000  0.0000
  29.  O 3 (s)      0.0000 -0.0287  0.0000  0.0000  0.0230  0.0440  0.0000  0.0000
  30.  O 3 (s)      0.0000 -0.1459  0.0000  0.0000  0.1171  0.2239  0.0000  0.0009
  31.  O 3 (px)     0.0000  0.1272  0.0000  0.0000 -0.0239 -0.2362  0.0000 -0.0008
  32.  O 3 (py)     0.0000  0.0771  0.0000  0.0000 -0.1910 -0.0507  0.0000 -0.0017
  33.  O 3 (pz)     0.1538  0.0000  0.1457  0.0883  0.0000  0.0000  0.0000  0.0000
  34.  O 3 (s)      0.0000 -0.0865  0.0000  0.0000  0.0695  0.1328  0.0014  0.0257
  35.  O 3 (px)     0.0000  0.0096  0.0000  0.0000  0.1069 -0.0747 -0.0028 -0.0349
  36.  O 3 (py)     0.0000  0.0058  0.0000  0.0000 -0.1939  0.0900 -0.0056 -0.0715
  37.  O 3 (pz)     0.5363  0.0000  0.2135  0.1293  0.0000  0.0000  0.0000  0.0000
  38.  O 3 (d5)     0.0000  0.1296  0.0000  0.0000 -0.0092 -0.0176  0.0000 -0.0047
  39.  O 3 (d2)    -0.1466  0.0000 -0.2511 -0.2236  0.0000  0.0000  0.0000  0.0000
  40.  O 3 (d3)    -0.0888  0.0000 -0.2236 -0.0173  0.0000  0.0000  0.0000  0.0000
  41.  O 3 (d4)     0.0000 -0.0092  0.0000  0.0000 -0.2707  0.2213  0.0000 -0.0050
  42.  O 3 (d1)     0.0000 -0.0176  0.0000  0.0000  0.2213  0.0368  0.0000  0.0064
  43.  H 4 (s)      0.0000 -0.1657  0.0000  0.0000  0.1825 -0.2215  0.0000  0.0052
  44.  H 4 (s)      0.0000 -0.0408  0.0000  0.0000  0.0450 -0.0546  0.0115  0.0924
  45.  O 5 (s)      0.0000  0.0000  0.0000  0.0000  0.0000  0.0000  0.0000  0.0201
  46.  O 5 (s)      0.0000 -0.0007  0.0000  0.0000 -0.0008  0.0010  0.0076  0.1669
  47.  O 5 (px)     0.0000 -0.0007  0.0000  0.0000 -0.0010  0.0008  0.0156  0.1702
  48.  O 5 (py)     0.0000 -0.0015  0.0000  0.0000 -0.0015  0.0022  0.0094  0.1030
  49.  O 5 (pz)     0.0171  0.0000 -0.0002 -0.0003  0.0000  0.0000  0.0000  0.0000
  50.  O 5 (s)      0.0000 -0.0159  0.0000  0.0000 -0.0170  0.0217  0.0651  0.3675
  51.  O 5 (px)     0.0000 -0.0185  0.0000  0.0000 -0.0364  0.0122  0.1262  0.4904
  52.  O 5 (py)     0.0000 -0.0379  0.0000  0.0000 -0.0324  0.0581  0.0764  0.2970
  53.  O 5 (pz)     0.1128  0.0000 -0.0103 -0.0211  0.0000  0.0000  0.0000  0.0000
  54.  O 5 (d5)     0.0000  0.0051  0.0000  0.0000  0.0052 -0.0066 -0.0457 -0.1380
  55.  O 5 (d2)     0.0181  0.0000 -0.0006 -0.0019  0.0000  0.0000  0.0000  0.0000
  56.  O 5 (d3)     0.0371  0.0000 -0.0019 -0.0035  0.0000  0.0000  0.0000  0.0000
  57.  O 5 (d4)     0.0000  0.0052  0.0000  0.0000  0.0029 -0.0094  0.0367  0.1108
  58.  O 5 (d1)     0.0000 -0.0066  0.0000  0.0000 -0.0094  0.0075  0.0702  0.2118
  59.  H 6 (s)      0.0000 -0.0049  0.0000  0.0000 -0.0051 -0.0069  0.0305  0.2639
  60.  H 6 (s)      0.0000 -0.0278  0.0000  0.0000 -0.0286 -0.0387  0.0905  0.4691

           AO         17      18      19      20      21      22      23      24
      ------------ ------- ------- ------- ------- ------- ------- ------- -------
   1.  C 1 (s)      0.0000  0.0209  0.0000  0.0487  0.0000  0.1104  0.0000 -0.0103
   2.  C 1 (s)      0.0000  0.1985  0.0000  0.2895  0.0000  0.5100  0.0000 -0.0913
   3.  C 1 (px)     0.0697  0.0000  0.0000  0.0000  0.1938  0.0000  0.0000  0.0000
   4.  C 1 (py)     0.0000 -0.2654  0.0000 -0.2276  0.0000 -0.2232  0.0000  0.1189
   5.  C 1 (pz)     0.0000  0.0000  0.0697  0.0000  0.0000  0.0000  0.1938  0.0000
   6.  C 1 (s)      0.0000  0.2276  0.0000  0.5018  0.0000  0.5893  0.0000 -0.0484
   7.  C 1 (px)     0.1938  0.0000  0.0000  0.0000  0.5018  0.0000  0.0000  0.0000
   8.  C 1 (py)     0.0000 -0.2232  0.0000 -0.5893  0.0000 -0.1902  0.0000  0.0115
   9.  C 1 (pz)     0.0000  0.0000  0.1938  0.0000  0.0000  0.0000  0.5018  0.0000
  10.  C 1 (d5)     0.0000 -0.1189  0.0000 -0.0484  0.0000 -0.0115  0.0000  0.0906
  11.  C 1 (d2)     0.0000  0.0000  0.0000  0.0000  0.0000  0.0000  0.0000  0.0000
  12.  C 1 (d3)     0.0000  0.0000 -0.1137  0.0000  0.0000  0.0000 -0.1429  0.0000
  13.  C 1 (d4)     0.0000 -0.2060  0.0000 -0.0839  0.0000 -0.0198  0.0000  0.0911
  14.  C 1 (d1)    -0.1137  0.0000  0.0000  0.0000 -0.1429  0.0000  0.0000  0.0000
  15.  C 2 (s)      0.0000  0.0000  0.0000  0.1843  0.0000  0.0000  0.0000  0.0000
  16.  C 2 (s)      0.0000  0.0000  0.0000  0.8123  0.0000  0.0000  0.0000  0.0000
  17.  C 2 (px)     1.0000  0.0000  0.0000  0.0000  0.5698  0.0000  0.0000  0.0000
  18.  C 2 (py)     0.0000  1.0000  0.0000  0.0000  0.0000  0.5698  0.0000  0.0000
  19.  C 2 (pz)     0.0000  0.0000  1.0000  0.0000  0.0000  0.0000  0.5698  0.0000
  20.  C 2 (s)      0.0000  0.0000  0.0000  1.0000  0.0000  0.0000  0.0000  0.0000
  21.  C 2 (px)     0.5698  0.0000  0.0000  0.0000  1.0000  0.0000  0.0000  0.0000
  22.  C 2 (py)     0.0000  0.5698  0.0000  0.0000  0.0000  1.0000  0.0000  0.0000
  23.  C 2 (pz)     0.0000  0.0000  0.5698  0.0000  0.0000  0.0000  1.0000  0.0000
  24.  C 2 (d5)     0.0000  0.0000  0.0000  0.0000  0.0000  0.0000  0.0000  1.0000
  25.  C 2 (d2)     0.0000  0.0000  0.0000  0.0000  0.0000  0.0000  0.0000  0.0000
  26.  C 2 (d3)     0.0000  0.0000  0.0000  0.0000  0.0000  0.0000  0.0000  0.0000
  27.  C 2 (d4)     0.0000  0.0000  0.0000  0.0000  0.0000  0.0000  0.0000  0.0000
  28.  C 2 (d1)     0.0000  0.0000  0.0000  0.0000  0.0000  0.0000  0.0000  0.0000
  29.  O 3 (s)      0.0000  0.0000  0.0000  0.0041  0.0066  0.0135  0.0000  0.0000
  30.  O 3 (s)      0.0011  0.0022  0.0000  0.0330  0.0456  0.0936  0.0000 -0.0007
  31.  O 3 (px)    -0.0006 -0.0021  0.0000 -0.0139 -0.0024 -0.0401  0.0000  0.0007
  32.  O 3 (py)    -0.0021 -0.0039  0.0000 -0.0285 -0.0401 -0.0651  0.0000  0.0015
  33.  O 3 (pz)     0.0000  0.0000  0.0004  0.0000  0.0000  0.0000  0.0171  0.0000
  34.  O 3 (s)      0.0177  0.0362  0.0000  0.1159  0.1158  0.2377  0.0000 -0.0159
  35.  O 3 (px)    -0.0075 -0.0506  0.0000 -0.0916  0.0213 -0.1878  0.0000  0.0185
  36.  O 3 (py)    -0.0506 -0.0867  0.0000 -0.1879 -0.1878 -0.2725  0.0000  0.0379
  37.  O 3 (pz)     0.0000  0.0000  0.0172  0.0000  0.0000  0.0000  0.1128  0.0000
  38.  O 3 (d5)    -0.0045 -0.0093  0.0000 -0.0221 -0.0192 -0.0394  0.0000  0.0051
  39.  O 3 (d2)     0.0000  0.0000 -0.0014  0.0000  0.0000  0.0000 -0.0181  0.0000
  40.  O 3 (d3)     0.0000  0.0000 -0.0029  0.0000  0.0000  0.0000 -0.0371  0.0000
  41.  O 3 (d4)    -0.0071 -0.0088  0.0000 -0.0236 -0.0497 -0.0278  0.0000  0.0052
  42.  O 3 (d1)     0.0044  0.0136  0.0000  0.0301  0.0033  0.0648  0.0000 -0.0066
  43.  H 4 (s)     -0.0052  0.0104  0.0000  0.0612 -0.0762  0.1513  0.0000 -0.0049
  44.  H 4 (s)     -0.0446  0.0884  0.0000  0.2335 -0.1771  0.3516  0.0000 -0.0278
  45.  O 5 (s)     -0.0361 -0.0219  0.0000  0.0495 -0.0787 -0.0477  0.0000 -0.0287
  46.  O 5 (s)     -0.2279 -0.1380  0.0000  0.2846 -0.3927 -0.2378  0.0000 -0.1459
  47.  O 5 (px)    -0.1765 -0.1593  0.0000  0.1249 -0.0222 -0.1066  0.0000 -0.1272
  48.  O 5 (py)    -0.1593 -0.0098  0.0000  0.0756 -0.1066  0.0893  0.0000 -0.0771
  49.  O 5 (pz)     0.0000  0.0000  0.0867  0.0000  0.0000  0.0000  0.1538  0.0000
  50.  O 5 (s)     -0.2851 -0.1727  0.0000  0.5512 -0.5509 -0.3336  0.0000 -0.0865
  51.  O 5 (px)    -0.1287 -0.2460  0.0000  0.4355  0.1011 -0.2636  0.0000 -0.0096
  52.  O 5 (py)    -0.2460  0.1286  0.0000  0.2637 -0.2636  0.3767  0.0000 -0.0058
  53.  O 5 (pz)     0.0000  0.0000  0.2776  0.0000  0.0000  0.0000  0.5363  0.0000
  54.  O 5 (d5)     0.1142  0.0691  0.0000 -0.0470 -0.0217 -0.0131  0.0000  0.1296
  55.  O 5 (d2)     0.0000  0.0000  0.2130  0.0000  0.0000  0.0000  0.1466  0.0000
  56.  O 5 (d3)     0.0000  0.0000  0.1290  0.0000  0.0000  0.0000  0.0888  0.0000
  57.  O 5 (d4)     0.0227 -0.2442  0.0000  0.0377  0.0961 -0.1194  0.0000 -0.0092
  58.  O 5 (d1)    -0.2350 -0.0074  0.0000  0.0721 -0.0079  0.0881  0.0000 -0.0176
  59.  H 6 (s)      0.3251 -0.1534  0.0000  0.3708  0.4646 -0.2192  0.0000 -0.1657
  60.  H 6 (s)      0.2400 -0.1132  0.0000  0.6974  0.5291 -0.2496  0.0000 -0.0408

           AO         25      26      27      28      29      30      31      32
      ------------ ------- ------- ------- ------- ------- ------- ------- -------
   1.  C 1 (s)      0.0000  0.0000 -0.0178  0.0000  0.0000  0.0076 -0.0156 -0.0094
   2.  C 1 (s)      0.0000  0.0000 -0.1582  0.0000  0.0201  0.1669 -0.1702 -0.1030
   3.  C 1 (px)     0.0000  0.0000  0.0000  0.1137  0.0361  0.2279 -0.1765 -0.1593
   4.  C 1 (py)     0.0000  0.0000  0.2060  0.0000  0.0219  0.1380 -0.1593 -0.0098
   5.  C 1 (pz)     0.0000  0.1137  0.0000  0.0000  0.0000  0.0000  0.0000  0.0000
   6.  C 1 (s)      0.0000  0.0000 -0.0839  0.0000  0.0495  0.2846 -0.1249 -0.0756
   7.  C 1 (px)     0.0000  0.0000  0.0000  0.1429  0.0787  0.3927 -0.0222 -0.1066
   8.  C 1 (py)     0.0000  0.0000  0.0198  0.0000  0.0477  0.2378 -0.1066  0.0893
   9.  C 1 (pz)     0.0000  0.1429  0.0000  0.0000  0.0000  0.0000  0.0000  0.0000
  10.  C 1 (d5)     0.0000  0.0000  0.0911  0.0000 -0.0287 -0.1459  0.1272  0.0771
  11.  C 1 (d2)     0.0380  0.0000  0.0000  0.0000  0.0000  0.0000  0.0000  0.0000
  12.  C 1 (d3)     0.0000 -0.2106  0.0000  0.0000  0.0000  0.0000  0.0000  0.0000
  13.  C 1 (d4)     0.0000  0.0000  0.1959  0.0000  0.0230  0.1171 -0.0239 -0.1910
  14.  C 1 (d1)     0.0000  0.0000  0.0000 -0.2106  0.0440  0.2239 -0.2362 -0.0507
  15.  C 2 (s)      0.0000  0.0000  0.0000  0.0000  0.0000  0.0000  0.0000  0.0000
  16.  C 2 (s)      0.0000  0.0000  0.0000  0.0000  0.0000  0.0009 -0.0008 -0.0017
  17.  C 2 (px)     0.0000  0.0000  0.0000  0.0000  0.0000  0.0011 -0.0006 -0.0021
  18.  C 2 (py)     0.0000  0.0000  0.0000  0.0000  0.0000  0.0022 -0.0021 -0.0039
  19.  C 2 (pz)     0.0000  0.0000  0.0000  0.0000  0.0000  0.0000  0.0000  0.0000
  20.  C 2 (s)      0.0000  0.0000  0.0000  0.0000  0.0041  0.0330 -0.0139 -0.0285
  21.  C 2 (px)     0.0000  0.0000  0.0000  0.0000  0.0066  0.0456 -0.0024 -0.0401
  22.  C 2 (py)     0.0000  0.0000  0.0000  0.0000  0.0135  0.0936 -0.0401 -0.0651
  23.  C 2 (pz)     0.0000  0.0000  0.0000  0.0000  0.0000  0.0000  0.0000  0.0000
  24.  C 2 (d5)     0.0000  0.0000  0.0000  0.0000  0.0000 -0.0007  0.0007  0.0015
  25.  C 2 (d2)     1.0000  0.0000  0.0000  0.0000  0.0000  0.0000  0.0000  0.0000
  26.  C 2 (d3)     0.0000  1.0000  0.0000  0.0000  0.0000  0.0000  0.0000  0.0000
  27.  C 2 (d4)     0.0000  0.0000  1.0000  0.0000  0.0000 -0.0008  0.0010  0.0015
  28.  C 2 (d1)     0.0000  0.0000  0.0000  1.0000  0.0000  0.0010 -0.0008 -0.0022
  29.  O 3 (s)      0.0000  0.0000  0.0000  0.0000  1.0000  0.2337  0.0000  0.0000
  30.  O 3 (s)      0.0000  0.0000 -0.0008  0.0010  0.2337  1.0000  0.0000  0.0000
  31.  O 3 (px)     0.0000  0.0000  0.0010 -0.0008  0.0000  0.0000  1.0000  0.0000
  32.  O 3 (py)     0.0000  0.0000  0.0015 -0.0022  0.0000  0.0000  0.0000  1.0000
  33.  O 3 (pz)     0.0002  0.0003  0.0000  0.0000  0.0000  0.0000  0.0000  0.0000
  34.  O 3 (s)      0.0000  0.0000 -0.0170  0.0217  0.1673  0.7636  0.0000  0.0000
  35.  O 3 (px)     0.0000  0.0000  0.0364 -0.0122  0.0000  0.0000  0.5015  0.0000
  36.  O 3 (py)     0.0000  0.0000  0.0324 -0.0581  0.0000  0.0000  0.0000  0.5015
  37.  O 3 (pz)     0.0103  0.0211  0.0000  0.0000  0.0000  0.0000  0.0000  0.0000
  38.  O 3 (d5)     0.0000  0.0000  0.0052 -0.0066  0.0000  0.0000  0.0000  0.0000
  39.  O 3 (d2)    -0.0006 -0.0019  0.0000  0.0000  0.0000  0.0000  0.0000  0.0000
  40.  O 3 (d3)    -0.0019 -0.0035  0.0000  0.0000  0.0000  0.0000  0.0000  0.0000
  41.  O 3 (d4)     0.0000  0.0000  0.0029 -0.0094  0.0000  0.0000  0.0000  0.0000
  42.  O 3 (d1)     0.0000  0.0000 -0.0094  0.0075  0.0000  0.0000  0.0000  0.0000
  43.  H 4 (s)      0.0000  0.0000 -0.0051 -0.0069  0.0000  0.0024 -0.0048 -0.0004
  44.  H 4 (s)      0.0000  0.0000 -0.0286 -0.0387  0.0107  0.0750 -0.0603 -0.0048
  45.  O 5 (s)      0.0000  0.0000  0.0230  0.0440  0.0000  0.0000  0.0000  0.0000
  46.  O 5 (s)      0.0000  0.0000  0.1171  0.2239  0.0000  0.0000  0.0000  0.0000
  47.  O 5 (px)     0.0000  0.0000  0.0239  0.2362  0.0000  0.0000  0.0000  0.0000
  48.  O 5 (py)     0.0000  0.0000  0.1910  0.0507  0.0000  0.0000  0.0000  0.0000
  49.  O 5 (pz)    -0.1457 -0.0883  0.0000  0.0000  0.0000  0.0000  0.0000  0.0000
  50.  O 5 (s)      0.0000  0.0000  0.0695  0.1328  0.0000  0.0001 -0.0001 -0.0001
  51.  O 5 (px)     0.0000  0.0000 -0.1069  0.0747  0.0000  0.0003 -0.0003 -0.0004
  52.  O 5 (py)     0.0000  0.0000  0.1939 -0.0900  0.0000  0.0004 -0.0004 -0.0005
  53.  O 5 (pz)    -0.2135 -0.1293  0.0000  0.0000  0.0000  0.0000  0.0000  0.0000
  54.  O 5 (d5)     0.0000  0.0000 -0.0092 -0.0176  0.0000  0.0000  0.0000  0.0000
  55.  O 5 (d2)    -0.2511 -0.2236  0.0000  0.0000  0.0000  0.0000  0.0000  0.0000
  56.  O 5 (d3)    -0.2236 -0.0173  0.0000  0.0000  0.0000  0.0000  0.0000  0.0000
  57.  O 5 (d4)     0.0000  0.0000 -0.2707  0.2213  0.0000  0.0000  0.0000  0.0000
  58.  O 5 (d1)     0.0000  0.0000  0.2213  0.0368  0.0000  0.0000  0.0000  0.0000
  59.  H 6 (s)      0.0000  0.0000  0.1825 -0.2215  0.0000  0.0001  0.0000 -0.0001
  60.  H 6 (s)      0.0000  0.0000  0.0450 -0.0546  0.0024  0.0203 -0.0004 -0.0205

           AO         33      34      35      36      37      38      39      40
      ------------ ------- ------- ------- ------- ------- ------- ------- -------
   1.  C 1 (s)      0.0000  0.0651 -0.1262 -0.0764  0.0000 -0.0457  0.0000  0.0000
   2.  C 1 (s)      0.0000  0.3675 -0.4904 -0.2970  0.0000 -0.1380  0.0000  0.0000
   3.  C 1 (px)     0.0000  0.2851 -0.1287 -0.2460  0.0000 -0.1142  0.0000  0.0000
   4.  C 1 (py)     0.0000  0.1727 -0.2460  0.1286  0.0000 -0.0691  0.0000  0.0000
[...]
                                         0.0000  0.0000  0.0000  0.0000  0.0000
                                         0.0000  0.0000  0.9965 -0.0532  0.0000
                                         0.0595  0.0260  0.0000  0.0000
               ( 33.60%)  -0.5797* O  3 s(  0.00%)p 1.00( 99.59%)d 0.00(  0.41%)
                                         0.0000  0.0000  0.0000  0.0000  0.0000
                                         0.0000  0.0000  0.9979 -0.0059  0.0000
                                        -0.0540 -0.0348  0.0000  0.0000
  19. (0.04256) BD*( 1) C  1- H  4
               ( 40.32%)   0.6350* C  1 s( 34.11%)p 1.93( 65.69%)d 0.01(  0.19%)
                                         0.0000 -0.5832  0.0320  0.7102 -0.0282
                                        -0.3896 -0.0064  0.0000  0.0000  0.0290
                                         0.0000  0.0000 -0.0275  0.0186
               ( 59.68%)  -0.7725* H  4 s(100.00%)
                                        -1.0000 -0.0095
  20. (0.00307) BD*( 1) C  2- O  5
               ( 66.57%)   0.8159* C  2 s( 32.11%)p 2.10( 67.52%)d 0.01(  0.37%)
                                         0.0000  0.5623  0.0703 -0.6962 -0.0630
                                        -0.4280 -0.0589  0.0000  0.0000  0.0478
                                         0.0000  0.0000  0.0279 -0.0244
               ( 33.43%)  -0.5782* O  5 s( 41.51%)p 1.40( 58.08%)d 0.01(  0.41%)
                                         0.0000  0.6442  0.0135  0.6550  0.0098
                                         0.3894  0.0044  0.0000  0.0000  0.0500
                                         0.0000  0.0000  0.0255 -0.0311
  21. (0.02138) BD*( 2) C  2- O  5
               ( 66.40%)   0.8148* C  2 s(  0.00%)p 1.00( 99.58%)d 0.00(  0.42%)
                                         0.0000  0.0000  0.0000  0.0000  0.0000
                                         0.0000  0.0000  0.9965 -0.0532  0.0000
                                        -0.0595 -0.0260  0.0000  0.0000
               ( 33.60%)  -0.5797* O  5 s(  0.00%)p 1.00( 99.59%)d 0.00(  0.41%)
                                         0.0000  0.0000  0.0000  0.0000  0.0000
                                         0.0000  0.0000  0.9979 -0.0059  0.0000
                                         0.0540  0.0348  0.0000  0.0000
  22. (0.04256) BD*( 1) C  2- H  6
               ( 40.32%)   0.6350* C  2 s( 34.11%)p 1.93( 65.69%)d 0.01(  0.19%)
                                         0.0000 -0.5832  0.0320 -0.7102  0.0282
                                         0.3896  0.0064  0.0000  0.0000  0.0290
                                         0.0000  0.0000 -0.0275  0.0186
               ( 59.68%)  -0.7725* H  6 s(100.00%)
                                        -1.0000 -0.0095
  23. (0.01184) RY ( 1) C  1            s( 18.10%)p 4.45( 80.58%)d 0.07(  1.32%)
                                         0.0000 -0.0608  0.4211 -0.0646  0.7804
                                        -0.0658  0.4340  0.0000  0.0000 -0.0137
                                         0.0000  0.0000  0.1111 -0.0251
  24. (0.00513) RY ( 2) C  1            s( 12.61%)p 0.08(  0.96%)d 6.86( 86.43%)
                                         0.0000 -0.0031  0.3551 -0.0489 -0.0743
                                         0.0396  0.0112  0.0000  0.0000  0.4325
                                         0.0000  0.0000 -0.8229 -0.0093
  25. (0.00135) RY ( 3) C  1            s( 40.66%)p 1.00( 40.69%)d 0.46( 18.65%)
                                         0.0000 -0.0001  0.6376 -0.0503 -0.5669
                                        -0.0238  0.2870  0.0000  0.0000  0.1382
                                         0.0000  0.0000  0.4053 -0.0562
  26. (0.00058) RY ( 4) C  1            s(  0.00%)p 1.00( 28.88%)d 2.46( 71.12%)
                                         0.0000  0.0000  0.0000  0.0000  0.0000
                                         0.0000  0.0000 -0.0774 -0.5318  0.0000
                                         0.5358  0.6513  0.0000  0.0000
  27. (0.00024) RY ( 5) C  1            s( 15.97%)p 4.79( 76.51%)d 0.47(  7.52%)
                                         0.0000  0.0026  0.3996 -0.0116  0.2234
                                        -0.0009 -0.8456  0.0000  0.0000  0.1540
                                         0.0000  0.0000  0.2228 -0.0425
  28. (0.00002) RY ( 6) C  1            s( 11.23%)p 0.19(  2.09%)d 7.72( 86.68%)
  29. (0.00000) RY ( 7) C  1            s(  0.00%)p 1.00( 70.28%)d 0.42( 29.72%)
  30. (0.00000) RY ( 8) C  1            s(  0.00%)p 1.00(  1.26%)d78.18( 98.74%)
  31. (0.00000) RY ( 9) C  1            s(  1.34%)p 0.04(  0.06%)d73.60( 98.60%)
  32. (0.01184) RY ( 1) C  2            s( 18.10%)p 4.45( 80.58%)d 0.07(  1.32%)
                                         0.0000 -0.0608  0.4211  0.0646 -0.7804
                                         0.0658 -0.4340  0.0000  0.0000 -0.0137
                                         0.0000  0.0000  0.1111 -0.0251
  33. (0.00513) RY ( 2) C  2            s( 12.61%)p 0.08(  0.96%)d 6.86( 86.43%)
                                         0.0000 -0.0031  0.3551  0.0489  0.0743
                                        -0.0396 -0.0112  0.0000  0.0000  0.4325
                                         0.0000  0.0000 -0.8229 -0.0093
  34. (0.00135) RY ( 3) C  2            s( 40.66%)p 1.00( 40.69%)d 0.46( 18.65%)
                                         0.0000 -0.0001  0.6376  0.0503  0.5669
                                         0.0238 -0.2870  0.0000  0.0000  0.1382
                                         0.0000  0.0000  0.4053 -0.0562
  35. (0.00058) RY ( 4) C  2            s(  0.00%)p 1.00( 28.88%)d 2.46( 71.12%)
                                         0.0000  0.0000  0.0000  0.0000  0.0000
                                         0.0000  0.0000  0.0774  0.5318  0.0000
                                         0.5358  0.6513  0.0000  0.0000
  36. (0.00024) RY ( 5) C  2            s( 15.97%)p 4.79( 76.51%)d 0.47(  7.52%)
                                         0.0000  0.0026  0.3996  0.0116 -0.2234
                                         0.0009  0.8456  0.0000  0.0000  0.1540
                                         0.0000  0.0000  0.2228 -0.0425
  37. (0.00002) RY ( 6) C  2            s( 11.23%)p 0.19(  2.09%)d 7.72( 86.68%)
  38. (0.00000) RY ( 7) C  2            s(  0.00%)p 1.00( 59.82%)d 0.67( 40.18%)
  39. (0.00000) RY ( 8) C  2            s(  0.00%)p 1.00( 11.73%)d 7.53( 88.27%)
  40. (0.00000) RY ( 9) C  2            s(  1.34%)p 0.04(  0.06%)d73.60( 98.60%)
  41. (0.00420) RY ( 1) O  3            s(  3.08%)p31.42( 96.85%)d 0.02(  0.07%)
                                         0.0000  0.0006  0.1756  0.0072  0.4987
                                        -0.0063 -0.8484  0.0000  0.0000  0.0019
                                         0.0000  0.0000  0.0254  0.0010
  42. (0.00011) RY ( 2) O  3            s( 80.72%)p 0.23( 18.86%)d 0.01(  0.42%)
                                         0.0000 -0.0027  0.8984  0.0190 -0.4290
                                         0.0064 -0.0648  0.0000  0.0000  0.0095
                                         0.0000  0.0000  0.0416  0.0488
  43. (0.00008) RY ( 3) O  3            s(  0.00%)p 1.00( 96.58%)d 0.04(  3.42%)
  44. (0.00005) RY ( 4) O  3            s(  1.61%)p 5.97(  9.58%)d55.33( 88.82%)
  45. (0.00001) RY ( 5) O  3            s(  1.05%)p10.97( 11.50%)d83.43( 87.46%)
  46. (0.00000) RY ( 6) O  3            s(  0.00%)p 1.00(  2.43%)d40.22( 97.57%)
  47. (0.00000) RY ( 7) O  3            s(  0.35%)p 0.03(  0.01%)d99.99( 99.64%)
  48. (0.00000) RY ( 8) O  3            s( 13.22%)p 4.83( 63.86%)d 1.73( 22.92%)
  49. (0.00000) RY ( 9) O  3            s(  0.00%)p 1.00(  1.40%)d70.33( 98.60%)
  50. (0.00282) RY ( 1) H  4            s(100.00%)
                                        -0.0095  1.0000
  51. (0.00420) RY ( 1) O  5            s(  3.08%)p31.42( 96.85%)d 0.02(  0.07%)
                                         0.0000  0.0006  0.1756 -0.0072 -0.4987
                                         0.0063  0.8484  0.0000  0.0000  0.0019
                                         0.0000  0.0000  0.0254  0.0010
  52. (0.00011) RY ( 2) O  5            s( 80.72%)p 0.23( 18.86%)d 0.01(  0.42%)
                                         0.0000 -0.0027  0.8984 -0.0190  0.4290
                                        -0.0064  0.0648  0.0000  0.0000  0.0095
                                         0.0000  0.0000  0.0416  0.0488
  53. (0.00008) RY ( 3) O  5            s(  0.00%)p 1.00( 96.58%)d 0.04(  3.42%)
  54. (0.00005) RY ( 4) O  5            s(  1.61%)p 5.97(  9.58%)d55.33( 88.82%)
  55. (0.00001) RY ( 5) O  5            s(  1.05%)p10.97( 11.50%)d83.43( 87.46%)
  56. (0.00000) RY ( 6) O  5            s(  0.00%)p 1.00(  1.21%)d81.63( 98.79%)
  57. (0.00000) RY ( 7) O  5            s(  0.35%)p 0.03(  0.01%)d99.99( 99.64%)
  58. (0.00000) RY ( 8) O  5            s( 13.22%)p 4.83( 63.86%)d 1.73( 22.92%)
  59. (0.00000) RY ( 9) O  5            s(  0.00%)p 1.00(  2.62%)d37.20( 97.38%)
  60. (0.00282) RY ( 1) H  6            s(100.00%)
                                        -0.0095  1.0000


 NHO DIRECTIONALITY AND BOND BENDING (deviation from line of nuclear centers at
                                      the position of maximum hybrid amplitude)

         [Thresholds for printing:  angular deviation  >  1.0 degree]
                                    p- or d-character  > 25.0%
                                    orbital occupancy  >  0.10e

                        Line of Centers        Hybrid 1             Hybrid 2
                        ---------------  -------------------  ------------------
           NBO            Theta   Phi    Theta   Phi    Dev   Theta   Phi    Dev
 ===============================================================================
   5. LP ( 1) O  3          --     --     90.0   32.0   --      --     --    --
   6. LP ( 2) O  3          --     --     90.0  300.6   --      --     --    --
   7. LP ( 1) O  5          --     --     90.0  212.0   --      --     --    --
   8. LP ( 2) O  5          --     --     90.0  120.6   --      --     --    --
   9. BD ( 1) C  1- C  2   90.0  270.0    90.0  271.8   1.8    90.0   91.8   1.8
  11. BD ( 2) C  1- O  3   90.0   31.2     2.6   26.6  87.4     0.8  212.9  89.2
  12. BD ( 1) C  1- H  4   90.0  154.7    90.0  152.0   2.7     --     --    --
  14. BD ( 2) C  2- O  5   90.0  211.2     2.6  206.6  87.4     0.8   32.9  89.2
  15. BD ( 1) C  2- H  6   90.0  334.7    90.0  332.0   2.7     --     --    --


 SECOND ORDER PERTURBATION THEORY ANALYSIS OF FOCK MATRIX IN NBO BASIS

     Threshold for printing:   0.50 kcal/mol
                                                          E(2) E(NL)-E(L) F(L,NL)
      Donor (L) NBO              Acceptor (NL) NBO      kcal/mol   a.u.    a.u.
 ===============================================================================

 within unit  1
    5. LP ( 1) O  3            16. BD*( 1) C  1- C  2      0.89    1.49   0.032
    5. LP ( 1) O  3            19. BD*( 1) C  1- H  4      1.05    1.53   0.036
    5. LP ( 1) O  3            23. RY ( 1) C  1            9.02    1.71   0.111
    6. LP ( 2) O  3            16. BD*( 1) C  1- C  2     24.53    1.12   0.148
    6. LP ( 2) O  3            19. BD*( 1) C  1- H  4     23.99    1.16   0.149
    6. LP ( 2) O  3            20. BD*( 1) C  2- O  5      0.76    1.37   0.029
    6. LP ( 2) O  3            24. RY ( 2) C  1            5.50    2.91   0.113
    6. LP ( 2) O  3            27. RY ( 5) C  1            0.55    1.50   0.026
    6. LP ( 2) O  3            45. RY ( 5) O  3            0.58    2.77   0.036
    7. LP ( 1) O  5            16. BD*( 1) C  1- C  2      0.89    1.49   0.032
    7. LP ( 1) O  5            22. BD*( 1) C  2- H  6      1.05    1.53   0.036
    7. LP ( 1) O  5            32. RY ( 1) C  2            9.02    1.71   0.111
    8. LP ( 2) O  5            16. BD*( 1) C  1- C  2     24.53    1.12   0.148
    8. LP ( 2) O  5            17. BD*( 1) C  1- O  3      0.76    1.37   0.029
    8. LP ( 2) O  5            22. BD*( 1) C  2- H  6     23.99    1.16   0.149
    8. LP ( 2) O  5            33. RY ( 2) C  2            5.50    2.91   0.113
    8. LP ( 2) O  5            36. RY ( 5) C  2            0.55    1.50   0.026
    8. LP ( 2) O  5            55. RY ( 5) O  5            0.58    2.77   0.036
    9. BD ( 1) C  1- C  2      41. RY ( 1) O  3            2.55    2.24   0.067
    9. BD ( 1) C  1- C  2      51. RY ( 1) O  5            2.55    2.24   0.067
   10. BD ( 1) C  1- O  3      20. BD*( 1) C  2- O  5      0.58    2.12   0.031
   10. BD ( 1) C  1- O  3      34. RY ( 3) C  2            0.71    2.57   0.038
   11. BD ( 2) C  1- O  3      21. BD*( 2) C  2- O  5      9.44    0.72   0.074
   11. BD ( 2) C  1- O  3      35. RY ( 4) C  2            0.54    2.38   0.032
   12. BD ( 1) C  1- H  4      20. BD*( 1) C  2- O  5      0.61    1.62   0.028
   12. BD ( 1) C  1- H  4      22. BD*( 1) C  2- H  6      2.35    1.41   0.051
   12. BD ( 1) C  1- H  4      32. RY ( 1) C  2            1.57    1.59   0.045
   12. BD ( 1) C  1- H  4      41. RY ( 1) O  3            2.24    2.13   0.062
   13. BD ( 1) C  2- O  5      17. BD*( 1) C  1- O  3      0.58    2.12   0.031
   13. BD ( 1) C  2- O  5      25. RY ( 3) C  1            0.71    2.57   0.038
   14. BD ( 2) C  2- O  5      18. BD*( 2) C  1- O  3      9.44    0.72   0.074
   14. BD ( 2) C  2- O  5      26. RY ( 4) C  1            0.54    2.38   0.032
   15. BD ( 1) C  2- H  6      17. BD*( 1) C  1- O  3      0.61    1.62   0.028
   15. BD ( 1) C  2- H  6      19. BD*( 1) C  1- H  4      2.35    1.41   0.051
   15. BD ( 1) C  2- H  6      23. RY ( 1) C  1            1.57    1.59   0.045
   15. BD ( 1) C  2- H  6      51. RY ( 1) O  5            2.24    2.13   0.062


 NATURAL BOND ORBITALS (Summary):

                                                     Principal Delocalizations
           NBO                 Occupancy    Energy   (geminal,vicinal,remote)
 ===============================================================================
 Molecular unit  1  (C2H2O2)
 ------ Lewis --------------------------------------
    1. CR ( 1) C  1             1.99999   -11.36750
    2. CR ( 1) C  2             1.99999   -11.36750
    3. CR ( 1) O  3             1.99999   -20.61275
    4. CR ( 1) O  5             1.99999   -20.61275
    5. LP ( 1) O  3             1.98817    -0.86118  23(v),19(v),16(v)
    6. LP ( 2) O  3             1.92024    -0.49376  16(v),19(v),24(v),20(r)
                                                     45(g),27(v)
    7. LP ( 1) O  5             1.98817    -0.86118  32(v),22(v),16(v)
    8. LP ( 2) O  5             1.92024    -0.49376  16(v),22(v),33(v),17(r)
                                                     55(g),36(v)
    9. BD ( 1) C  1- C  2       1.99264    -0.84843  41(v),51(v)
   10. BD ( 1) C  1- O  3       1.99825    -1.23808  34(v),20(v)
   11. BD ( 2) C  1- O  3       1.97796    -0.54565  21(v),35(v)
   12. BD ( 1) C  1- H  4       1.99030    -0.74484  22(v),41(v),32(v),20(v)
   13. BD ( 1) C  2- O  5       1.99825    -1.23808  25(v),17(v)
   14. BD ( 2) C  2- O  5       1.97796    -0.54565  18(v),26(v)
   15. BD ( 1) C  2- H  6       1.99030    -0.74484  19(v),51(v),23(v),17(v)
 ------ non-Lewis ----------------------------------
   16. BD*( 1) C  1- C  2       0.07063     0.62402
   17. BD*( 1) C  1- O  3       0.00307     0.87994
   18. BD*( 2) C  1- O  3       0.02138     0.17919
   19. BD*( 1) C  1- H  4       0.04256     0.66557
   20. BD*( 1) C  2- O  5       0.00307     0.87994
   21. BD*( 2) C  2- O  5       0.02138     0.17919
   22. BD*( 1) C  2- H  6       0.04256     0.66557
   23. RY ( 1) C  1             0.01184     0.84637
   24. RY ( 2) C  1             0.00513     2.41245
   25. RY ( 3) C  1             0.00135     1.32783
   26. RY ( 4) C  1             0.00058     1.83497
   27. RY ( 5) C  1             0.00024     1.00672
   28. RY ( 6) C  1             0.00002     2.26411
   29. RY ( 7) C  1             0.00000     1.18642
   30. RY ( 8) C  1             0.00000     1.99965
   31. RY ( 9) C  1             0.00000     2.41332
   32. RY ( 1) C  2             0.01184     0.84637
   33. RY ( 2) C  2             0.00513     2.41245
   34. RY ( 3) C  2             0.00135     1.32783
   35. RY ( 4) C  2             0.00058     1.83497
   36. RY ( 5) C  2             0.00024     1.00672
   37. RY ( 6) C  2             0.00002     2.26411
   38. RY ( 7) C  2             0.00000     1.31809
   39. RY ( 8) C  2             0.00000     1.86797
   40. RY ( 9) C  2             0.00000     2.41332
   41. RY ( 1) O  3             0.00420     1.38847
   42. RY ( 2) O  3             0.00011     1.94254
   43. RY ( 3) O  3             0.00008     1.25388
   44. RY ( 4) O  3             0.00005     2.66398
   45. RY ( 5) O  3             0.00001     2.27621
   46. RY ( 6) O  3             0.00000     2.08346
   47. RY ( 7) O  3             0.00000     2.11907
   48. RY ( 8) O  3             0.00000     1.56250
   49. RY ( 9) O  3             0.00000     2.29114
   50. RY ( 1) H  4             0.00282     0.72576
   51. RY ( 1) O  5             0.00420     1.38847
   52. RY ( 2) O  5             0.00011     1.94254
   53. RY ( 3) O  5             0.00008     1.25388
   54. RY ( 4) O  5             0.00005     2.66398
   55. RY ( 5) O  5             0.00001     2.27621
   56. RY ( 6) O  5             0.00000     2.06590
   57. RY ( 7) O  5             0.00000     2.11907
   58. RY ( 8) O  5             0.00000     1.56250
   59. RY ( 9) O  5             0.00000     2.30869
   60. RY ( 1) H  6             0.00282     0.72576
          -------------------------------
                 Total Lewis   29.74244  ( 99.1415%)
           Valence non-Lewis    0.20466  (  0.6822%)
           Rydberg non-Lewis    0.05290  (  0.1763%)
          -------------------------------
               Total unit  1   30.00000  (100.0000%)
              Charge unit  1    0.00000

 $CHOOSE
   LONE 3 2 5 2 END
   BOND S 1 2 D 1 3 S 1 4 D 2 5 S 2 6 END
 $END

 NBO analysis completed in 0.85 CPU seconds (2 wall seconds)
 Maximum scratch memory used by NBO was 342971 words (2.62 MB)
 Maximum scratch memory used by G16NBO was 13956 words (0.11 MB)

 Opening RunExU unformatted file "/cluster/work/users/beto93/mol112/Gau-2207991.EUF"
 Read unf file /cluster/work/users/beto93/mol112/Gau-2207991.EUF:
 Label Gaussian matrix elements                                         IVers= 2 NLab= 2 Version=ES64L-G16RevC.01
 Title mol112-NBO                                                      
 NAtoms=     6 NBasis=    60 NBsUse=    60 ICharg=     0 Multip=     1 NE=    30 Len12L=8 Len4L=8 IOpCl= 0 ICGU=111
 GAUSSIAN SCALARS                    NI= 1 NR= 1 NTot=       1 LenBuf=    2 NRI=1 N=    1000
 NPA CHARGES                         NI= 0 NR= 1 NTot=       6 LenBuf= 4000 NRI=1 N=       6
 Recovered energy= -226.585331997     dipole=     -0.000000000000     -0.000000000000     -0.000000000000
 Unable to Open any file for archive entry.
 1\1\GINC-C2-23\SP\RHF\6-31G(d)\C2H2O2\BETO93\18-Nov-2024\0\\#RHF/6-31G
 * int=nobasistransform Symmetry=None 5D 7F Pop=NBO7Read\\mol112-NBO\\0
 ,1\C,0,0.,0.75643,0.\C,0,0.,-0.75643,0.\O,0,1.04609,1.389916,0.\H,0,-0
 .99994,1.228191,0.\O,0,-1.04609,-1.389916,0.\H,0,0.99994,-1.228191,0.\
 \Version=ES64L-G16RevC.01\HF=-226.585332\RMSD=4.985e-09\Dipole=0.,0.,0
 .\Quadrupole=-0.7438797,-1.7723359,2.5162156,-5.0728712,0.,0.\PG=Unkno
 wn\\@
 The archive entry for this job was punched.


 Mondays are the potholes in the road of life.
                                -- Tom Wilson
 Job cpu time:       0 days  0 hours  0 minutes 10.9 seconds.
 Elapsed time:       0 days  0 hours  0 minutes  3.6 seconds.
 File lengths (MBytes):  RWF=     10 Int=      0 D2E=      0 Chk=      1 Scr=      1
 Normal termination of Gaussian 16 at Mon Nov 18 16:41:12 2024.
