 Entering Gaussian System, Link 0=g16
 Initial command:
 /cluster/software/Gaussian/g16_C.01/l1.exe "/cluster/work/users/beto93/mol89/Gau-2110191.inp" -scrdir="/cluster/work/users/beto93/mol89/"
 Entering Link 1 = /cluster/software/Gaussian/g16_C.01/l1.exe PID=   2110192.
  
 Copyright (c) 1988-2019, Gaussian, Inc.  All Rights Reserved.
  
 This is part of the Gaussian(R) 16 program.  It is based on
 the Gaussian(R) 09 system (copyright 2009, Gaussian, Inc.),
 the Gaussian(R) 03 system (copyright 2003, Gaussian, Inc.),
 the Gaussian(R) 98 system (copyright 1998, Gaussian, Inc.),
 the Gaussian(R) 94 system (copyright 1995, Gaussian, Inc.),
 the Gaussian 92(TM) system (copyright 1992, Gaussian, Inc.),
 the Gaussian 90(TM) system (copyright 1990, Gaussian, Inc.),
 the Gaussian 88(TM) system (copyright 1988, Gaussian, Inc.),
 the Gaussian 86(TM) system (copyright 1986, Carnegie Mellon
 University), and the Gaussian 82(TM) system (copyright 1983,
 Carnegie Mellon University). Gaussian is a federally registered
 trademark of Gaussian, Inc.
  
 This software contains proprietary and confidential information,
 including trade secrets, belonging to Gaussian, Inc.
  
 This software is provided under written license and may be
 used, copied, transmitted, or stored only in accord with that
 written license.
  
 The following legend is applicable only to US Government
 contracts under FAR:
  
                    RESTRICTED RIGHTS LEGEND
  
 Use, reproduction and disclosure by the US Government is
 subject to restrictions as set forth in subparagraphs (a)
 and (c) of the Commercial Computer Software - Restricted
 Rights clause in FAR 52.227-19.
  
 Gaussian, Inc.
 340 Quinnipiac St., Bldg. 40, Wallingford CT 06492
  
  
 ---------------------------------------------------------------
 Warning -- This program may not be used in any manner that
 competes with the business of Gaussian, Inc. or will provide
 assistance to any competitor of Gaussian, Inc.  The licensee
 of this program is prohibited from giving any competitor of
 Gaussian, Inc. access to this program.  By using this program,
 the user acknowledges that Gaussian, Inc. is engaged in the
 business of creating and licensing software in the field of
 computational chemistry and represents and warrants to the
 licensee that it is not a competitor of Gaussian, Inc. and that
 it will not use this program in any manner prohibited above.
 ---------------------------------------------------------------
  

 Cite this work as:
 Gaussian 16, Revision C.01,
 M. J. Frisch, G. W. Trucks, H. B. Schlegel, G. E. Scuseria, 
 M. A. Robb, J. R. Cheeseman, G. Scalmani, V. Barone, 
 G. A. Petersson, H. Nakatsuji, X. Li, M. Caricato, A. V. Marenich, 
 J. Bloino, B. G. Janesko, R. Gomperts, B. Mennucci, H. P. Hratchian, 
 J. V. Ortiz, A. F. Izmaylov, J. L. Sonnenberg, D. Williams-Young, 
 F. Ding, F. Lipparini, F. Egidi, J. Goings, B. Peng, A. Petrone, 
 T. Henderson, D. Ranasinghe, V. G. Zakrzewski, J. Gao, N. Rega, 
 G. Zheng, W. Liang, M. Hada, M. Ehara, K. Toyota, R. Fukuda, 
 J. Hasegawa, M. Ishida, T. Nakajima, Y. Honda, O. Kitao, H. Nakai, 
 T. Vreven, K. Throssell, J. A. Montgomery, Jr., J. E. Peralta, 
 F. Ogliaro, M. J. Bearpark, J. J. Heyd, E. N. Brothers, K. N. Kudin, 
 V. N. Staroverov, T. A. Keith, R. Kobayashi, J. Normand, 
 K. Raghavachari, A. P. Rendell, J. C. Burant, S. S. Iyengar, 
 J. Tomasi, M. Cossi, J. M. Millam, M. Klene, C. Adamo, R. Cammi, 
 J. W. Ochterski, R. L. Martin, K. Morokuma, O. Farkas, 
 J. B. Foresman, and D. J. Fox, Gaussian, Inc., Wallingford CT, 2019.
 
 ******************************************
 Gaussian 16:  ES64L-G16RevC.01  3-Jul-2019
                18-Nov-2024 
 ******************************************
 %LindaWorkers=c1-49-ib
 %NProcShared=4
 Will use up to    4 processors via shared memory.
 %mem=25GB
 %chk=mol89.chk
 SetLPE:    new flags="-opt 'Tsnet.Node.lindarsharg: ssh'  -nodelist 'c1-49-ib.saga' -env GAUSS_MDEF=3355443200 -env GAUSS_EXEDIR="/cluster/software/Gaussian/g16_C.01/bsd:/cluster/software/Gaussian/g16_C.01""
 Will use up to    1 processors via Linda.
 -----------------------------------------------------------------
 #RHF/6-31G* int=nobasistransform Symmetry=None 5D 7F Pop=NBO7Read
 -----------------------------------------------------------------
 1/38=1,163=2,172=1/1;
 2/12=2,15=3,17=6,18=5,40=1/2;
 3/5=1,6=6,7=1,8=11,11=1,25=1,30=1,60=-1,116=1/1,2,3;
 4//1;
 5/5=2,38=5/2;
 6/7=2,8=2,9=2,10=2,28=1,40=2,113=1,114=1,124=2103/1,12;
 99/5=1,9=1/99;
 ---------
 mol89-NBO
 ---------
 Symbolic Z-matrix:
 Charge =  0 Multiplicity = 1
 C                     0.70258   1.82087   0. 
 C                     0.70258   0.29633   0. 
 C                    -0.70258  -0.29633   0. 
 C                    -0.70258  -1.82087   0. 
 H                     1.71981   2.22234   0. 
 H                    -1.71981  -2.22234   0. 
 H                     0.18815   2.21036   0.88361 
 H                     0.18815   2.21036  -0.88361 
 H                    -0.18815  -2.21036   0.88361 
 H                    -0.18815  -2.21036  -0.88361 
 H                     1.24771  -0.07266  -0.87757 
 H                     1.24771  -0.07266   0.87757 
 H                    -1.24771   0.07266  -0.87757 
 H                    -1.24771   0.07266   0.87757 
 
                          Input orientation:                          
 ---------------------------------------------------------------------
 Center     Atomic      Atomic             Coordinates (Angstroms)
 Number     Number       Type             X           Y           Z
 ---------------------------------------------------------------------
      1          6           0        0.702581    1.820873    0.000000
      2          6           0        0.702581    0.296325    0.000000
      3          6           0       -0.702581   -0.296325    0.000000
      4          6           0       -0.702581   -1.820873    0.000000
      5          1           0        1.719809    2.222340    0.000000
      6          1           0       -1.719809   -2.222340    0.000000
      7          1           0        0.188154    2.210362    0.883614
      8          1           0        0.188154    2.210362   -0.883614
      9          1           0       -0.188154   -2.210362    0.883614
     10          1           0       -0.188154   -2.210362   -0.883614
     11          1           0        1.247707   -0.072660   -0.877569
     12          1           0        1.247707   -0.072660    0.877569
     13          1           0       -1.247707    0.072660   -0.877569
     14          1           0       -1.247707    0.072660    0.877569
 ---------------------------------------------------------------------
                    Distance matrix (angstroms):
                    1          2          3          4          5
     1  C    0.000000
     2  C    1.524548   0.000000
     3  C    2.541064   1.525029   0.000000
     4  C    3.903434   2.541064   1.524548   0.000000
     5  H    1.093585   2.178138   3.494517   4.713337   0.000000
     6  H    4.713337   3.494517   2.178138   1.093585   5.620156
     7  H    1.094125   2.170011   2.803152   4.221971   1.768300
     8  H    1.094125   2.170011   2.803152   4.221971   1.768300
     9  H    4.221971   2.803152   2.170011   1.094125   4.906113
    10  H    4.221971   2.803152   2.170011   1.094125   4.906113
    11  H    2.157025   1.097014   2.150297   2.762245   2.502006
    12  H    2.157025   1.097014   2.150297   2.762245   2.502006
    13  H    2.762245   2.150297   1.097014   2.157025   3.767944
    14  H    2.762245   2.150297   1.097014   2.157025   3.767944
                    6          7          8          9         10
     6  H    0.000000
     7  H    4.906113   0.000000
     8  H    4.906113   1.767228   0.000000
     9  H    1.768300   4.436711   4.775720   0.000000
    10  H    1.768300   4.775720   4.436711   1.767228   0.000000
    11  H    3.767944   3.071906   2.516918   3.119813   2.575171
    12  H    3.767944   2.516918   3.071906   2.575171   3.119813
    13  H    2.502006   3.119813   2.575171   3.071906   2.516918
    14  H    2.502006   2.575171   3.119813   2.516918   3.071906
                   11         12         13         14
    11  H    0.000000
    12  H    1.755138   0.000000
    13  H    2.499642   3.054295   0.000000
    14  H    3.054295   2.499642   1.755138   0.000000
 Symmetry turned off by external request.
 Stoichiometry    C4H10
 Rotational constants (GHZ):          23.4865627           3.6512197           3.4279891
 Standard basis: 6-31G(d) (5D, 7F)
    76 basis functions,   152 primitive gaussians,    80 cartesian basis functions
    17 alpha electrons       17 beta electrons
       nuclear repulsion energy       130.8053167653 Hartrees.
 NAtoms=   14 NActive=   14 NUniq=   14 SFac= 1.00D+00 NAtFMM=   60 NAOKFM=F Big=F
 Integral buffers will be    131072 words long.
 Raffenetti 1 integral format.
 Two-electron integral symmetry is turned off.
 One-electron integrals computed using PRISM.
 NBasis=    76 RedAO= T EigKep=  5.05D-03  NBF=    76
 NBsUse=    76 1.00D-06 EigRej= -1.00D+00 NBFU=    76
 ExpMin= 1.61D-01 ExpMax= 3.05D+03 ExpMxC= 4.57D+02 IAcc=3 IRadAn=         5 AccDes= 0.00D+00
 Harris functional with IExCor=  205 and IRadAn=       5 diagonalized for initial guess.
 HarFok:  IExCor=  205 AccDes= 0.00D+00 IRadAn=         5 IDoV= 1 UseB2=F ITyADJ=14
 ICtDFT=  3500011 ScaDFX=  1.000000  1.000000  1.000000  1.000000
 FoFCou: FMM=F IPFlag=           0 FMFlag=      100000 FMFlg1=           0
         NFxFlg=           0 DoJE=T BraDBF=F KetDBF=T FulRan=T
         wScrn=  0.000000 ICntrl=       500 IOpCl=  0 I1Cent=   200000004 NGrid=           0
         NMat0=    1 NMatS0=      1 NMatT0=    0 NMatD0=    1 NMtDS0=    0 NMtDT0=    0
 Symmetry not used in FoFCou.
 Keep R1 ints in memory in canonical form, NReq=5155273.
 Requested convergence on RMS density matrix=1.00D-08 within 128 cycles.
 Requested convergence on MAX density matrix=1.00D-06.
 Requested convergence on             energy=1.00D-06.
 No special actions if energy rises.
 SCF Done:  E(RHF) =  -157.297068841     A.U. after   10 cycles
            NFock= 10  Conv=0.64D-08     -V/T= 1.9995

 **********************************************************************

            Population analysis using the SCF Density.

 **********************************************************************

 Alpha  occ. eigenvalues --  -11.21289 -11.21229 -11.20677 -11.20677  -1.07064
 Alpha  occ. eigenvalues --   -0.97990  -0.85961  -0.78629  -0.63799  -0.58384
 Alpha  occ. eigenvalues --   -0.57497  -0.56676  -0.51380  -0.49388  -0.46891
 Alpha  occ. eigenvalues --   -0.45997  -0.45598
 Alpha virt. eigenvalues --    0.23180   0.26111   0.28134   0.29177   0.32005
 Alpha virt. eigenvalues --    0.33581   0.33667   0.33924   0.35179   0.35198
 Alpha virt. eigenvalues --    0.42160   0.42452   0.44302   0.70061   0.70073
 Alpha virt. eigenvalues --    0.75582   0.75694   0.75872   0.85100   0.86969
 Alpha virt. eigenvalues --    0.93327   0.96841   1.02657   1.06087   1.11331
 Alpha virt. eigenvalues --    1.12871   1.16804   1.18263   1.18600   1.19781
 Alpha virt. eigenvalues --    1.20221   1.22956   1.24276   1.24657   1.27192
 Alpha virt. eigenvalues --    1.28089   1.62819   1.70384   1.70619   1.73831
 Alpha virt. eigenvalues --    1.91293   1.92703   2.14138   2.19099   2.22627
 Alpha virt. eigenvalues --    2.27136   2.28297   2.33897   2.38794   2.49608
 Alpha virt. eigenvalues --    2.59450   2.60160   2.63823   2.73253   2.74829
 Alpha virt. eigenvalues --    2.75034   2.90137   3.03635   3.10842
          Condensed to atoms (all electrons):
               1          2          3          4          5          6
     1  C    5.115173   0.338702  -0.058355   0.004223   0.393985  -0.000096
     2  C    0.338702   5.084872   0.347972  -0.058355  -0.036282   0.004399
     3  C   -0.058355   0.347972   5.084872   0.338702   0.004399  -0.036282
     4  C    0.004223  -0.058355   0.338702   5.115173  -0.000096   0.393985
     5  H    0.393985  -0.036282   0.004399  -0.000096   0.535803   0.000001
     6  H   -0.000096   0.004399  -0.036282   0.393985   0.000001   0.535803
     7  H    0.390725  -0.039081  -0.003813  -0.000064  -0.028271   0.000001
     8  H    0.390725  -0.039081  -0.003813  -0.000064  -0.028271   0.000001
     9  H   -0.000064  -0.003813  -0.039081   0.390725   0.000001  -0.028271
    10  H   -0.000064  -0.003813  -0.039081   0.390725   0.000001  -0.028271
    11  H   -0.040496   0.398678  -0.043949  -0.002846  -0.002628  -0.000067
    12  H   -0.040496   0.398678  -0.043949  -0.002846  -0.002628  -0.000067
    13  H   -0.002846  -0.043949   0.398678  -0.040496  -0.000067  -0.002628
    14  H   -0.002846  -0.043949   0.398678  -0.040496  -0.000067  -0.002628
               7          8          9         10         11         12
     1  C    0.390725   0.390725  -0.000064  -0.000064  -0.040496  -0.040496
     2  C   -0.039081  -0.039081  -0.003813  -0.003813   0.398678   0.398678
     3  C   -0.003813  -0.003813  -0.039081  -0.039081  -0.043949  -0.043949
     4  C   -0.000064  -0.000064   0.390725   0.390725  -0.002846  -0.002846
     5  H   -0.028271  -0.028271   0.000001   0.000001  -0.002628  -0.002628
     6  H    0.000001   0.000001  -0.028271  -0.028271  -0.000067  -0.000067
     7  H    0.547005  -0.029952   0.000010   0.000000   0.004259  -0.003015
     8  H   -0.029952   0.547005   0.000000   0.000010  -0.003015   0.004259
     9  H    0.000010   0.000000   0.547005  -0.029952   0.000126   0.002726
    10  H    0.000000   0.000010  -0.029952   0.547005   0.002726   0.000126
    11  H    0.004259  -0.003015   0.000126   0.002726   0.563721  -0.033120
    12  H   -0.003015   0.004259   0.002726   0.000126  -0.033120   0.563721
    13  H    0.000126   0.002726   0.004259  -0.003015  -0.003308   0.004700
    14  H    0.002726   0.000126  -0.003015   0.004259   0.004700  -0.003308
              13         14
     1  C   -0.002846  -0.002846
     2  C   -0.043949  -0.043949
     3  C    0.398678   0.398678
     4  C   -0.040496  -0.040496
     5  H   -0.000067  -0.000067
     6  H   -0.002628  -0.002628
     7  H    0.000126   0.002726
     8  H    0.002726   0.000126
     9  H    0.004259  -0.003015
    10  H   -0.003015   0.004259
    11  H   -0.003308   0.004700
    12  H    0.004700  -0.003308
    13  H    0.563721  -0.033120
    14  H   -0.033120   0.563721
 Mulliken charges:
               1
     1  C   -0.488270
     2  C   -0.304979
     3  C   -0.304979
     4  C   -0.488270
     5  H    0.164120
     6  H    0.164120
     7  H    0.159344
     8  H    0.159344
     9  H    0.159344
    10  H    0.159344
    11  H    0.155221
    12  H    0.155221
    13  H    0.155221
    14  H    0.155221
 Sum of Mulliken charges =  -0.00000
 Mulliken charges with hydrogens summed into heavy atoms:
               1
     1  C   -0.005462
     2  C    0.005462
     3  C    0.005462
     4  C   -0.005462
 Electronic spatial extent (au):  <R**2>=            423.5541
 Charge=             -0.0000 electrons
 Dipole moment (field-independent basis, Debye):
    X=              0.0000    Y=             -0.0000    Z=              0.0000  Tot=              0.0000
 Quadrupole moment (field-independent basis, Debye-Ang):
   XX=            -28.6681   YY=            -29.5820   ZZ=            -28.1614
   XY=             -0.0758   XZ=             -0.0000   YZ=              0.0000
 Traceless Quadrupole moment (field-independent basis, Debye-Ang):
   XX=              0.1357   YY=             -0.7781   ZZ=              0.6424
   XY=             -0.0758   XZ=             -0.0000   YZ=              0.0000
 Octapole moment (field-independent basis, Debye-Ang**2):
  XXX=              0.0000  YYY=              0.0000  ZZZ=              0.0000  XYY=              0.0000
  XXY=              0.0000  XXZ=             -0.0000  XZZ=              0.0000  YZZ=             -0.0000
  YYZ=              0.0000  XYZ=              0.0000
 Hexadecapole moment (field-independent basis, Debye-Ang**3):
 XXXX=           -146.4862 YYYY=           -396.8479 ZZZZ=            -56.6330 XXXY=            -63.7981
 XXXZ=             -0.0000 YYYX=            -69.4123 YYYZ=              0.0000 ZZZX=             -0.0000
 ZZZY=              0.0000 XXYY=            -87.1597 XXZZ=            -34.2626 YYZZ=            -72.1508
 XXYZ=              0.0000 YYXZ=             -0.0000 ZZXY=            -24.7276
 N-N= 1.308053167653D+02 E-N=-6.270005100947D+02  KE= 1.573782420108D+02
 Running external command "gaunbo7 R"
         input file       "/cluster/work/users/beto93/mol89/Gau-2110192.EIn"
         output file      "/cluster/work/users/beto93/mol89/Gau-2110192.EOu"
         message file     "/cluster/work/users/beto93/mol89/Gau-2110192.EMs"
         fchk file        "/cluster/work/users/beto93/mol89/Gau-2110192.EFC"
         mat. el file     "/cluster/work/users/beto93/mol89/Gau-2110192.EUF"

 Writing WrtUnf unformatted file "/cluster/work/users/beto93/mol89/Gau-2110192.EUF"
 Gaussian matrix elements                                         Version   2 NLab=11 Len12L=8 Len4L=8
 Write SHELL TO ATOM MAP                   from file      0 offset           0 length                  36 to matrix element file.
 Write SHELL TYPES                         from file      0 offset           0 length                  36 to matrix element file.
 Write NUMBER OF PRIMITIVES PER SHELL      from file      0 offset           0 length                  36 to matrix element file.
 Write PRIMITIVE EXPONENTS                 from file      0 offset           0 length                  84 to matrix element file.
 Write CONTRACTION COEFFICIENTS            from file      0 offset           0 length                  84 to matrix element file.
 Write P(S=P) CONTRACTION COEFFICIENTS     from file      0 offset           0 length                  84 to matrix element file.
 Write COORDINATES OF EACH SHELL           from file      0 offset           0 length                 108 to matrix element file.
 Write BONDS PER ATOM                      from file      0 offset           0 length                  14 to matrix element file.
 Write BONDED ATOMS                        from file      0 offset           0 length                  26 to matrix element file.
 Write BOND TYPES                          from file      0 offset           0 length                  26 to matrix element file.
 Write ONIOM CHARGE/MULT                   from file      0 offset           0 length                  32 to matrix element file.
 Write ONIOM ATOM LAYERS                   from file      0 offset           0 length                  14 to matrix element file.
 Write ONIOM ATOM MODIFIERS                from file      0 offset           0 length                  14 to matrix element file.
 Write ONIOM ATOM TYPES                    from file      0 offset           0 length                  14 to matrix element file.
 Write ONIOM LINK ATOMS                    from file      0 offset           0 length                  14 to matrix element file.
 Write ONIOM LINK CHARGES                  from file      0 offset           0 length                  14 to matrix element file.
 Write ONIOM LINK DISTANCES                from file      0 offset           0 length                  56 to matrix element file.
 Write SYMINF INTS                         from file      0 offset           0 length                  26 to matrix element file.
 Write ROTTR TO SO                         from file      0 offset           0 length                  12 to matrix element file.
 Write GAUSSIAN SCALARS                    from file    501 offset           0 to matrix element file.
 Write OPTIMIZATION FLAGS                  from file      0 offset           0 length                  14 to matrix element file.
 Write INTEGER ISO                         from file      0 offset           0 length                  14 to matrix element file.
 Write INTEGER SPIN                        from file      0 offset           0 length                  14 to matrix element file.
 Write REAL ZEFFECTIVE                     from file      0 offset           0 length                  14 to matrix element file.
 Write REAL GFACTOR                        from file      0 offset           0 length                  14 to matrix element file.
 Write REAL ZNUCLEAR                       from file      0 offset           0 length                  14 to matrix element file.
 Write MULLIKEN CHARGES                    from file      0 offset           0 length                  14 to matrix element file.
 Write NUCLEAR GRADIENT                    from file  10584 offset           0 length                  42 to matrix element file.
 Array NUCLEAR FORCE CONSTANTS              on  file  10585 does not exist.
 Write ELECTRIC DIPOLE MOMENT              from file      0 offset           0 length                   3 to matrix element file.
 Write NON-ADIABATIC COUPLING              from file  10810 offset           0 length                  42 to matrix element file.
 Write FINITE EM FIELD                     from file  10521 offset           0 length                  35 to matrix element file.
 Write OVERLAP                             from file  10514 offset           0 length                2926 to matrix element file.
 Write CORE HAMILTONIAN ALPHA              from file  10515 offset           0 length                2926 to matrix element file.
 Write CORE HAMILTONIAN BETA               from file  10515 offset        2926 length                2926 to matrix element file.
 Write KINETIC ENERGY                      from file  10516 offset           0 length                2926 to matrix element file.
 Write ORTHOGONAL BASIS                    from file  10685 offset           0 length                5776 to matrix element file.
 Write DIPOLE INTEGRALS                    from file  10518 offset           0 length                8778 to matrix element file.
 Array DIP VEL INTEGRALS                    on  file  10572 does not exist.
 Array R X DEL INTEGRALS                    on  file  10572 does not exist.
 Write ALPHA ORBITAL ENERGIES              from file      0 offset           0 length                  76 to matrix element file.
 Write ALPHA MO COEFFICIENTS               from file  10524 offset           0 length                5776 to matrix element file.
 Write ALPHA DENSITY MATRIX                from file      0 offset           0 length                2926 to matrix element file.
 Write ALPHA FOCK MATRIX                   from file  10536 offset           0 length                2926 to matrix element file.
 Write ENERGY-WEIGHTED DENSITY             from file  10571 offset           0 length                2926 to matrix element file.
 Write ALPHA SCF DENSITY MATRIX            from file      0 offset           0 length                2926 to matrix element file.
 No 2e integrals to process.
 Perform NBO analysis...executing G16NBO...

 *********************************** NBO 7.0 ***********************************
             N A T U R A L   A T O M I C   O R B I T A L   A N D
          N A T U R A L   B O N D   O R B I T A L   A N A L Y S I S
 **************************** Espen Tangen (S101595) ***************************
  (c) Copyright 1996-2021 Board of Regents of the University of Wisconsin System
      on behalf of the Theoretical Chemistry Institute.  All rights reserved.

          Cite this program [NBO 7.0.10 (8-Feb-2021)] as:

          NBO 7.0.  E. D. Glendening, J. K. Badenhoop, A. E. Reed,
          J. E. Carpenter, J. A. Bohmann, C. M. Morales, P. Karafiloglou,
          C. R. Landis, and F. Weinhold, Theoretical Chemistry Institute,
          University of Wisconsin, Madison, WI (2018)

       /NPA    / : Natural Population Analysis
       /AOPNAO / : Print the AO to PNAO transformation
       /AONAO  / : Print the AO to NAO transformation
       /AOMO   / : Print the MOs in the AO basis
       /BOAO   / : Print the AO bond-order matrix
       /DMAO   / : Print the AO density matrix
       /DMPNAO / : Print the PNAO density matrix
       /DMNAO  / : Print the NAO density matrix
       /DMMO   / : Print the MO density matrix
       /SAO    / : Print the AO overlap matrix
       /SPNAO  / : Print the PNAO overlap matrix
       /DETAIL / : Write details of NBO search
       /ARCHIVE/ : Write the archive file to lfn47
       /AOINFO / : Write AO information to lfn31
       /FILE   / : Set to mol89.gen*

 Filename set to mol89.gen1

 Job title: mol89-NBO


 MOs in the AO basis:

           AO          1       2       3       4       5       6       7       8
      ------------ ------- ------- ------- ------- ------- ------- ------- -------
   1.  C 1 (s)      0.0330  0.0387  0.7037  0.7034 -0.0815 -0.1268 -0.1122  0.0507
   2.  C 1 (s)      0.0004  0.0010  0.0181  0.0185  0.1550  0.2392  0.2111 -0.0970
   3.  C 1 (px)     0.0000 -0.0001  0.0000 -0.0001 -0.0063  0.0039  0.0113  0.0402
   4.  C 1 (py)     0.0001 -0.0001 -0.0001 -0.0001 -0.0500 -0.0267  0.0811 -0.1026
   5.  C 1 (pz)     0.0000  0.0000  0.0000  0.0000  0.0000  0.0000  0.0000  0.0000
   6.  C 1 (s)      0.0029  0.0019 -0.0121 -0.0138  0.1248  0.2313  0.2476 -0.1214
   7.  C 1 (px)    -0.0002  0.0003  0.0001  0.0004 -0.0003 -0.0003  0.0009  0.0139
   8.  C 1 (py)    -0.0015 -0.0014  0.0002  0.0011 -0.0050 -0.0027  0.0237 -0.0334
   9.  C 1 (pz)     0.0000  0.0000  0.0000  0.0000  0.0000  0.0000  0.0000  0.0000
  10.  C 1 (d5)     0.0001  0.0002  0.0000  0.0000 -0.0029 -0.0010  0.0049 -0.0072
  11.  C 1 (d2)     0.0000  0.0000  0.0000  0.0000  0.0000  0.0000  0.0000  0.0000
  12.  C 1 (d3)     0.0000  0.0000  0.0000  0.0000  0.0000  0.0000  0.0000  0.0000
  13.  C 1 (d4)     0.0003  0.0002  0.0000  0.0000 -0.0053 -0.0013  0.0093 -0.0095
  14.  C 1 (d1)     0.0000  0.0000  0.0000  0.0000  0.0006 -0.0001 -0.0004 -0.0012
  15.  C 2 (s)      0.7036  0.7035 -0.0331 -0.0388 -0.1265 -0.0704  0.0745 -0.1025
  16.  C 2 (s)      0.0183  0.0189 -0.0013 -0.0010  0.2388  0.1324 -0.1401  0.1948
  17.  C 2 (px)     0.0000 -0.0001  0.0000  0.0000 -0.0431  0.0393  0.0466  0.1339
  18.  C 2 (py)     0.0000  0.0001  0.0001 -0.0002  0.0041  0.0877  0.1010 -0.0553
  19.  C 2 (pz)     0.0000  0.0000  0.0000  0.0000  0.0000  0.0000  0.0000  0.0000
  20.  C 2 (s)     -0.0110 -0.0171  0.0033  0.0032  0.1964  0.1265 -0.1622  0.2470
  21.  C 2 (px)    -0.0008  0.0021  0.0002  0.0000 -0.0053  0.0090  0.0088  0.0471
  22.  C 2 (py)    -0.0009  0.0006  0.0007  0.0024  0.0004  0.0143  0.0277 -0.0256
  23.  C 2 (pz)     0.0000  0.0000  0.0000  0.0000  0.0000  0.0000  0.0000  0.0000
  24.  C 2 (d5)     0.0002 -0.0001  0.0002  0.0002 -0.0038 -0.0003 -0.0039  0.0134
  25.  C 2 (d2)     0.0000  0.0000  0.0000  0.0000  0.0000  0.0000  0.0000  0.0000
  26.  C 2 (d3)     0.0000  0.0000  0.0000  0.0000  0.0000  0.0000  0.0000  0.0000
  27.  C 2 (d4)    -0.0002  0.0002  0.0002  0.0002  0.0008 -0.0098 -0.0132 -0.0013
  28.  C 2 (d1)    -0.0001  0.0001  0.0000  0.0000  0.0032 -0.0048 -0.0015 -0.0076
  29.  C 3 (s)      0.7036 -0.7035 -0.0331  0.0388 -0.1265  0.0704  0.0745  0.1025
  30.  C 3 (s)      0.0183 -0.0189 -0.0013  0.0010  0.2388 -0.1324 -0.1401 -0.1948
  31.  C 3 (px)     0.0000 -0.0001  0.0000  0.0000  0.0431  0.0393 -0.0466  0.1339
  32.  C 3 (py)     0.0000  0.0001 -0.0001 -0.0002 -0.0041  0.0877 -0.1010 -0.0553
  33.  C 3 (pz)     0.0000  0.0000  0.0000  0.0000  0.0000  0.0000  0.0000  0.0000
  34.  C 3 (s)     -0.0110  0.0171  0.0033 -0.0032  0.1964 -0.1265 -0.1622 -0.2470
  35.  C 3 (px)     0.0008  0.0021 -0.0002  0.0000  0.0053  0.0090 -0.0088  0.0471
  36.  C 3 (py)     0.0009  0.0006 -0.0007  0.0024 -0.0004  0.0143 -0.0277 -0.0256
  37.  C 3 (pz)     0.0000  0.0000  0.0000  0.0000  0.0000  0.0000  0.0000  0.0000
  38.  C 3 (d5)     0.0002  0.0001  0.0002 -0.0002 -0.0038  0.0003 -0.0039 -0.0134
  39.  C 3 (d2)     0.0000  0.0000  0.0000  0.0000  0.0000  0.0000  0.0000  0.0000
  40.  C 3 (d3)     0.0000  0.0000  0.0000  0.0000  0.0000  0.0000  0.0000  0.0000
  41.  C 3 (d4)    -0.0002 -0.0002  0.0002 -0.0002  0.0008  0.0098 -0.0132  0.0013
  42.  C 3 (d1)    -0.0001 -0.0001  0.0000  0.0000  0.0032  0.0048 -0.0015  0.0076
  43.  C 4 (s)      0.0330 -0.0387  0.7037 -0.7034 -0.0815  0.1268 -0.1122 -0.0507
  44.  C 4 (s)      0.0004 -0.0010  0.0181 -0.0185  0.1550 -0.2392  0.2111  0.0970
  45.  C 4 (px)     0.0000 -0.0001  0.0000 -0.0001  0.0063  0.0039 -0.0113  0.0402
  46.  C 4 (py)    -0.0001 -0.0001  0.0001 -0.0001  0.0500 -0.0267 -0.0811 -0.1026
  47.  C 4 (pz)     0.0000  0.0000  0.0000  0.0000  0.0000  0.0000  0.0000  0.0000
  48.  C 4 (s)      0.0029 -0.0019 -0.0121  0.0138  0.1248 -0.2313  0.2476  0.1214
  49.  C 4 (px)     0.0002  0.0003 -0.0001  0.0004  0.0003 -0.0003 -0.0009  0.0139
  50.  C 4 (py)     0.0015 -0.0014 -0.0002  0.0011  0.0050 -0.0027 -0.0237 -0.0334
  51.  C 4 (pz)     0.0000  0.0000  0.0000  0.0000  0.0000  0.0000  0.0000  0.0000
  52.  C 4 (d5)     0.0001 -0.0002  0.0000  0.0000 -0.0029  0.0010  0.0049  0.0072
  53.  C 4 (d2)     0.0000  0.0000  0.0000  0.0000  0.0000  0.0000  0.0000  0.0000
  54.  C 4 (d3)     0.0000  0.0000  0.0000  0.0000  0.0000  0.0000  0.0000  0.0000
  55.  C 4 (d4)     0.0003 -0.0002  0.0000  0.0000 -0.0053  0.0013  0.0093  0.0095
  56.  C 4 (d1)     0.0000  0.0000  0.0000  0.0000  0.0006  0.0001 -0.0004  0.0012
  57.  H 5 (s)     -0.0002 -0.0001  0.0000  0.0000  0.0408  0.0806  0.1001 -0.0400
  58.  H 5 (s)      0.0003 -0.0002  0.0022  0.0020  0.0044  0.0177  0.0359 -0.0166
  59.  H 6 (s)     -0.0002  0.0001  0.0000  0.0000  0.0408 -0.0806  0.1001  0.0400
  60.  H 6 (s)      0.0003  0.0002  0.0022 -0.0020  0.0044 -0.0177  0.0359  0.0166
  61.  H 7 (s)     -0.0002 -0.0001  0.0000  0.0001  0.0444  0.0781  0.0920 -0.0687
  62.  H 7 (s)      0.0000  0.0004  0.0023  0.0023  0.0067  0.0157  0.0295 -0.0326
  63.  H 8 (s)     -0.0002 -0.0001  0.0000  0.0001  0.0444  0.0781  0.0920 -0.0687
  64.  H 8 (s)      0.0000  0.0004  0.0023  0.0023  0.0067  0.0157  0.0295 -0.0326
  65.  H 9 (s)     -0.0002  0.0001  0.0000 -0.0001  0.0444 -0.0781  0.0920  0.0687
  66.  H 9 (s)      0.0000 -0.0004  0.0023 -0.0023  0.0067 -0.0157  0.0295  0.0326
  67.  H10 (s)     -0.0002  0.0001  0.0000 -0.0001  0.0444 -0.0781  0.0920  0.0687
  68.  H10 (s)      0.0000 -0.0004  0.0023 -0.0023  0.0067 -0.0157  0.0295  0.0326
  69.  H11 (s)      0.0000  0.0003 -0.0002 -0.0001  0.0680  0.0412 -0.0579  0.1230
  70.  H11 (s)      0.0024  0.0022 -0.0002  0.0002  0.0090  0.0070 -0.0172  0.0540
  71.  H12 (s)      0.0000  0.0003 -0.0002 -0.0001  0.0680  0.0412 -0.0579  0.1230
  72.  H12 (s)      0.0024  0.0022 -0.0002  0.0002  0.0090  0.0070 -0.0172  0.0540
  73.  H13 (s)      0.0000 -0.0003 -0.0002  0.0001  0.0680 -0.0412 -0.0579 -0.1230
  74.  H13 (s)      0.0024 -0.0022 -0.0002 -0.0002  0.0090 -0.0070 -0.0172 -0.0540
  75.  H14 (s)      0.0000 -0.0003 -0.0002  0.0001  0.0680 -0.0412 -0.0579 -0.1230
  76.  H14 (s)      0.0024 -0.0022 -0.0002 -0.0002  0.0090 -0.0070 -0.0172 -0.0540

           AO          9      10      11      12      13      14      15      16
      ------------ ------- ------- ------- ------- ------- ------- ------- -------
   1.  C 1 (s)      0.0000  0.0028 -0.0062  0.0000 -0.0033  0.0000  0.0224  0.0000
   2.  C 1 (s)      0.0000 -0.0043  0.0088  0.0000  0.0113  0.0000 -0.0442  0.0000
   3.  C 1 (px)     0.0000  0.2485  0.1888  0.0000  0.2393  0.0000 -0.0442  0.0000
   4.  C 1 (py)     0.0000 -0.0435  0.2158  0.0000 -0.1614  0.0000  0.2631  0.0000
   5.  C 1 (pz)     0.1661  0.0000  0.0000  0.2738  0.0000  0.2599  0.0000 -0.1349
   6.  C 1 (s)      0.0000 -0.0116  0.0300  0.0000 -0.0037  0.0000 -0.0732  0.0000
   7.  C 1 (px)     0.0000  0.1279  0.0975  0.0000  0.1372  0.0000 -0.0284  0.0000
   8.  C 1 (py)     0.0000 -0.0216  0.1004  0.0000 -0.0784  0.0000  0.1402  0.0000
   9.  C 1 (pz)     0.0742  0.0000  0.0000  0.1434  0.0000  0.1522  0.0000 -0.0867
  10.  C 1 (d5)     0.0000 -0.0150 -0.0028  0.0000 -0.0197  0.0000  0.0105  0.0000
  11.  C 1 (d2)    -0.0101  0.0000  0.0000 -0.0173  0.0000 -0.0188  0.0000  0.0130
  12.  C 1 (d3)     0.0019  0.0000  0.0000  0.0100  0.0000  0.0186  0.0000 -0.0143
  13.  C 1 (d4)     0.0000  0.0046  0.0187  0.0000  0.0000  0.0000  0.0124  0.0000
  14.  C 1 (d1)     0.0000  0.0074  0.0074  0.0000  0.0149  0.0000 -0.0054  0.0000
  15.  C 2 (s)      0.0000 -0.0023  0.0287  0.0000  0.0057  0.0000  0.0116  0.0000
  16.  C 2 (s)      0.0000  0.0008 -0.0549  0.0000 -0.0041  0.0000 -0.0284  0.0000
  17.  C 2 (px)     0.0000  0.2189  0.0646  0.0000 -0.0563  0.0000  0.1430  0.0000
  18.  C 2 (py)     0.0000  0.0501 -0.1976  0.0000  0.1806  0.0000 -0.2479  0.0000
  19.  C 2 (pz)     0.2551  0.0000  0.0000  0.1499  0.0000 -0.1751  0.0000  0.2651
  20.  C 2 (s)      0.0000  0.0174 -0.0835  0.0000 -0.0432  0.0000 -0.0254  0.0000
  21.  C 2 (px)     0.0000  0.1026  0.0354  0.0000 -0.0279  0.0000  0.0843  0.0000
  22.  C 2 (py)     0.0000  0.0145 -0.0891  0.0000  0.1018  0.0000 -0.1394  0.0000
  23.  C 2 (pz)     0.1206  0.0000  0.0000  0.0787  0.0000 -0.1058  0.0000  0.1706
  24.  C 2 (d5)     0.0000  0.0090  0.0059  0.0000 -0.0103  0.0000  0.0175  0.0000
  25.  C 2 (d2)     0.0106  0.0000  0.0000  0.0129  0.0000 -0.0095  0.0000  0.0289
  26.  C 2 (d3)    -0.0094  0.0000  0.0000  0.0012  0.0000  0.0158  0.0000 -0.0171
  27.  C 2 (d4)     0.0000 -0.0037  0.0051  0.0000 -0.0046  0.0000  0.0169  0.0000
  28.  C 2 (d1)     0.0000 -0.0039  0.0065  0.0000  0.0068  0.0000 -0.0129  0.0000
  29.  C 3 (s)      0.0000 -0.0023 -0.0287  0.0000 -0.0057  0.0000  0.0116  0.0000
  30.  C 3 (s)      0.0000  0.0008  0.0549  0.0000  0.0041  0.0000 -0.0284  0.0000
  31.  C 3 (px)     0.0000 -0.2189  0.0646  0.0000 -0.0563  0.0000 -0.1430  0.0000
  32.  C 3 (py)     0.0000 -0.0501 -0.1976  0.0000  0.1806  0.0000  0.2479  0.0000
  33.  C 3 (pz)     0.2551  0.0000  0.0000 -0.1499  0.0000 -0.1751  0.0000 -0.2651
  34.  C 3 (s)      0.0000  0.0174  0.0835  0.0000  0.0432  0.0000 -0.0254  0.0000
  35.  C 3 (px)     0.0000 -0.1026  0.0354  0.0000 -0.0279  0.0000 -0.0843  0.0000
  36.  C 3 (py)     0.0000 -0.0145 -0.0891  0.0000  0.1018  0.0000  0.1394  0.0000
  37.  C 3 (pz)     0.1206  0.0000  0.0000 -0.0787  0.0000 -0.1058  0.0000 -0.1706
  38.  C 3 (d5)     0.0000  0.0090 -0.0059  0.0000  0.0103  0.0000  0.0175  0.0000
  39.  C 3 (d2)    -0.0106  0.0000  0.0000  0.0129  0.0000  0.0095  0.0000  0.0289
  40.  C 3 (d3)     0.0094  0.0000  0.0000  0.0012  0.0000 -0.0158  0.0000 -0.0171
  41.  C 3 (d4)     0.0000 -0.0037 -0.0051  0.0000  0.0046  0.0000  0.0169  0.0000
  42.  C 3 (d1)     0.0000 -0.0039 -0.0065  0.0000 -0.0068  0.0000 -0.0129  0.0000
  43.  C 4 (s)      0.0000  0.0028  0.0062  0.0000  0.0033  0.0000  0.0224  0.0000
  44.  C 4 (s)      0.0000 -0.0043 -0.0088  0.0000 -0.0113  0.0000 -0.0442  0.0000
  45.  C 4 (px)     0.0000 -0.2485  0.1888  0.0000  0.2393  0.0000  0.0442  0.0000
  46.  C 4 (py)     0.0000  0.0435  0.2158  0.0000 -0.1614  0.0000 -0.2631  0.0000
  47.  C 4 (pz)     0.1661  0.0000  0.0000 -0.2738  0.0000  0.2599  0.0000  0.1349
  48.  C 4 (s)      0.0000 -0.0116 -0.0300  0.0000  0.0037  0.0000 -0.0732  0.0000
  49.  C 4 (px)     0.0000 -0.1279  0.0975  0.0000  0.1372  0.0000  0.0284  0.0000
  50.  C 4 (py)     0.0000  0.0216  0.1004  0.0000 -0.0784  0.0000 -0.1402  0.0000
  51.  C 4 (pz)     0.0742  0.0000  0.0000 -0.1434  0.0000  0.1522  0.0000  0.0867
  52.  C 4 (d5)     0.0000 -0.0150  0.0028  0.0000  0.0197  0.0000  0.0105  0.0000
  53.  C 4 (d2)     0.0101  0.0000  0.0000 -0.0173  0.0000  0.0188  0.0000  0.0130
  54.  C 4 (d3)    -0.0019  0.0000  0.0000  0.0100  0.0000 -0.0186  0.0000 -0.0143
  55.  C 4 (d4)     0.0000  0.0046 -0.0187  0.0000  0.0000  0.0000  0.0124  0.0000
  56.  C 4 (d1)     0.0000  0.0074 -0.0074  0.0000 -0.0149  0.0000 -0.0054  0.0000
  57.  H 5 (s)      0.0000  0.1345  0.1689  0.0000  0.1208  0.0000  0.0146  0.0000
  58.  H 5 (s)      0.0000  0.1021  0.1309  0.0000  0.1040  0.0000  0.0185  0.0000
  59.  H 6 (s)      0.0000  0.1345 -0.1689  0.0000 -0.1208  0.0000  0.0146  0.0000
  60.  H 6 (s)      0.0000  0.1021 -0.1309  0.0000 -0.1040  0.0000  0.0185  0.0000
  61.  H 7 (s)      0.0815 -0.0855 -0.0037  0.1428 -0.1126  0.1501  0.0632 -0.0888
  62.  H 7 (s)      0.0583 -0.0621 -0.0046  0.1107 -0.0980  0.1365  0.0735 -0.0957
  63.  H 8 (s)     -0.0815 -0.0855 -0.0037 -0.1428 -0.1126 -0.1501  0.0632  0.0888
  64.  H 8 (s)     -0.0583 -0.0621 -0.0046 -0.1107 -0.0980 -0.1365  0.0735  0.0957
  65.  H 9 (s)      0.0815 -0.0855  0.0037 -0.1428  0.1126  0.1501  0.0632  0.0888
  66.  H 9 (s)      0.0583 -0.0621  0.0046 -0.1107  0.0980  0.1365  0.0735  0.0957
  67.  H10 (s)     -0.0815 -0.0855  0.0037  0.1428  0.1126 -0.1501  0.0632 -0.0888
  68.  H10 (s)     -0.0583 -0.0621  0.0046  0.1107  0.0980 -0.1365  0.0735 -0.0957
  69.  H11 (s)     -0.1232  0.0577  0.0354 -0.0755 -0.0631  0.0980  0.1031 -0.1656
  70.  H11 (s)     -0.0841  0.0406  0.0311 -0.0559 -0.0488  0.0852  0.1068 -0.1715
  71.  H12 (s)      0.1232  0.0577  0.0354  0.0755 -0.0631 -0.0980  0.1031  0.1656
  72.  H12 (s)      0.0841  0.0406  0.0311  0.0559 -0.0488 -0.0852  0.1068  0.1715
  73.  H13 (s)     -0.1232  0.0577 -0.0354  0.0755  0.0631  0.0980  0.1031  0.1656
  74.  H13 (s)     -0.0841  0.0406 -0.0311  0.0559  0.0488  0.0852  0.1068  0.1715
  75.  H14 (s)      0.1232  0.0577 -0.0354 -0.0755  0.0631 -0.0980  0.1031 -0.1656
  76.  H14 (s)      0.0841  0.0406 -0.0311 -0.0559  0.0488 -0.0852  0.1068 -0.1715

           AO         17      18      19      20      21      22      23      24
      ------------ ------- ------- ------- ------- ------- ------- ------- -------
   1.  C 1 (s)     -0.0089 -0.0524 -0.1061  0.0000  0.0075 -0.0159 -0.0897  0.0151
   2.  C 1 (s)      0.0192  0.0291  0.0673  0.0000  0.0178  0.0003  0.0317 -0.0020
   3.  C 1 (px)    -0.1722 -0.0164  0.0096  0.0000  0.1534 -0.1926  0.0372 -0.1522
   4.  C 1 (py)    -0.1387  0.0960  0.0508  0.0000 -0.0393 -0.0621  0.0899  0.0216
   5.  C 1 (pz)     0.0000  0.0000  0.0000  0.1594  0.0000  0.0000  0.0000  0.0000
   6.  C 1 (s)      0.0183  0.9802  1.8878  0.0000 -0.2575  0.4221  1.8074 -0.2677
   7.  C 1 (px)    -0.1129 -0.1442  0.0612  0.0000  0.5254 -1.0299  0.1805 -0.8779
   8.  C 1 (py)    -0.0780  0.4275  0.2418  0.0000 -0.0478 -0.4084 -0.0175  0.2189
   9.  C 1 (pz)     0.0000  0.0000  0.0000  0.5250  0.0000  0.0000  0.0000  0.0000
  10.  C 1 (d5)     0.0084 -0.0032 -0.0001  0.0000  0.0016 -0.0084  0.0014 -0.0113
  11.  C 1 (d2)     0.0000  0.0000  0.0000  0.0013  0.0000  0.0000  0.0000  0.0000
  12.  C 1 (d3)     0.0000  0.0000  0.0000 -0.0069  0.0000  0.0000  0.0000  0.0000
  13.  C 1 (d4)    -0.0132 -0.0039 -0.0036  0.0000 -0.0003  0.0074  0.0057 -0.0010
  14.  C 1 (d1)    -0.0177 -0.0042 -0.0009  0.0000 -0.0075  0.0061  0.0088  0.0076
  15.  C 2 (s)      0.0147 -0.0630 -0.0080  0.0000 -0.0618  0.0290  0.0650 -0.0840
  16.  C 2 (s)     -0.0300  0.0419  0.0019  0.0000 -0.0021 -0.0253 -0.0309  0.0626
  17.  C 2 (px)     0.2914  0.0995 -0.0178  0.0000  0.1228 -0.0106 -0.0720 -0.0031
  18.  C 2 (py)     0.1591 -0.0520 -0.0347  0.0000 -0.0817 -0.0204 -0.0263 -0.0511
  19.  C 2 (pz)     0.0000  0.0000  0.0000  0.1855  0.0000  0.0000  0.0000  0.0000
  20.  C 2 (s)     -0.0448  1.1447  0.2500  0.0000  1.3862 -0.3734 -1.3783  1.4780
  21.  C 2 (px)     0.1626  0.5000 -0.2800  0.0000  0.1810  0.2750 -0.4549  0.1641
  22.  C 2 (py)     0.0890 -0.2810 -0.3834  0.0000 -0.3213 -0.4901 -0.1307 -0.1894
  23.  C 2 (pz)     0.0000  0.0000  0.0000  0.5651  0.0000  0.0000  0.0000  0.0000
  24.  C 2 (d5)     0.0092 -0.0037 -0.0051  0.0000 -0.0025 -0.0101  0.0066  0.0050
  25.  C 2 (d2)     0.0000  0.0000  0.0000 -0.0076  0.0000  0.0000  0.0000  0.0000
  26.  C 2 (d3)     0.0000  0.0000  0.0000  0.0061  0.0000  0.0000  0.0000  0.0000
  27.  C 2 (d4)    -0.0155  0.0036 -0.0082  0.0000 -0.0087 -0.0049 -0.0003 -0.0001
  28.  C 2 (d1)    -0.0163 -0.0024  0.0033  0.0000  0.0150 -0.0112 -0.0027 -0.0147
  29.  C 3 (s)      0.0147 -0.0630  0.0080  0.0000  0.0618  0.0290  0.0650  0.0840
  30.  C 3 (s)     -0.0300  0.0419 -0.0019  0.0000  0.0021 -0.0253 -0.0309 -0.0626
  31.  C 3 (px)    -0.2914 -0.0995 -0.0178  0.0000  0.1228  0.0106  0.0720 -0.0031
  32.  C 3 (py)    -0.1591  0.0520 -0.0347  0.0000 -0.0817  0.0204  0.0263 -0.0511
  33.  C 3 (pz)     0.0000  0.0000  0.0000  0.1855  0.0000  0.0000  0.0000  0.0000
  34.  C 3 (s)     -0.0448  1.1447 -0.2500  0.0000 -1.3862 -0.3734 -1.3783 -1.4780
  35.  C 3 (px)    -0.1626 -0.5000 -0.2800  0.0000  0.1810 -0.2750  0.4549  0.1641
  36.  C 3 (py)    -0.0890  0.2810 -0.3834  0.0000 -0.3213  0.4901  0.1307 -0.1894
  37.  C 3 (pz)     0.0000  0.0000  0.0000  0.5651  0.0000  0.0000  0.0000  0.0000
  38.  C 3 (d5)     0.0092 -0.0037  0.0051  0.0000  0.0025 -0.0101  0.0066 -0.0050
  39.  C 3 (d2)     0.0000  0.0000  0.0000  0.0076  0.0000  0.0000  0.0000  0.0000
  40.  C 3 (d3)     0.0000  0.0000  0.0000 -0.0061  0.0000  0.0000  0.0000  0.0000
  41.  C 3 (d4)    -0.0155  0.0036  0.0082  0.0000  0.0087 -0.0049 -0.0003  0.0001
  42.  C 3 (d1)    -0.0163 -0.0024 -0.0033  0.0000 -0.0150 -0.0112 -0.0027  0.0147
  43.  C 4 (s)     -0.0089 -0.0524  0.1061  0.0000 -0.0075 -0.0159 -0.0897 -0.0151
  44.  C 4 (s)      0.0192  0.0291 -0.0673  0.0000 -0.0178  0.0003  0.0317  0.0020
  45.  C 4 (px)     0.1722  0.0164  0.0096  0.0000  0.1534  0.1926 -0.0372 -0.1522
  46.  C 4 (py)     0.1387 -0.0960  0.0508  0.0000 -0.0393  0.0621 -0.0899  0.0216
  47.  C 4 (pz)     0.0000  0.0000  0.0000  0.1594  0.0000  0.0000  0.0000  0.0000
  48.  C 4 (s)      0.0183  0.9802 -1.8878  0.0000  0.2575  0.4221  1.8074  0.2677
  49.  C 4 (px)     0.1129  0.1442  0.0612  0.0000  0.5254  1.0299 -0.1805 -0.8779
  50.  C 4 (py)     0.0780 -0.4275  0.2418  0.0000 -0.0478  0.4084  0.0175  0.2189
  51.  C 4 (pz)     0.0000  0.0000  0.0000  0.5250  0.0000  0.0000  0.0000  0.0000
  52.  C 4 (d5)     0.0084 -0.0032  0.0001  0.0000 -0.0016 -0.0084  0.0014  0.0113
  53.  C 4 (d2)     0.0000  0.0000  0.0000 -0.0013  0.0000  0.0000  0.0000  0.0000
  54.  C 4 (d3)     0.0000  0.0000  0.0000  0.0069  0.0000  0.0000  0.0000  0.0000
  55.  C 4 (d4)    -0.0132 -0.0039  0.0036  0.0000  0.0003  0.0074  0.0057  0.0010
  56.  C 4 (d1)    -0.0177 -0.0042  0.0009  0.0000  0.0075  0.0061  0.0088 -0.0076
  57.  H 5 (s)     -0.1512 -0.0101  0.0002  0.0000 -0.0097  0.0529  0.0321  0.0580
  58.  H 5 (s)     -0.1482 -0.4463 -0.8425  0.0000 -0.6008  1.2668 -0.8441  1.0930
  59.  H 6 (s)     -0.1512 -0.0101 -0.0002  0.0000  0.0097  0.0529  0.0321 -0.0580
  60.  H 6 (s)     -0.1482 -0.4463  0.8425  0.0000  0.6008  1.2668 -0.8441 -1.0930
  61.  H 7 (s)      0.0378  0.0061  0.0013 -0.0153  0.0083 -0.0231 -0.0113 -0.0324
  62.  H 7 (s)      0.0387 -0.5471 -0.7773 -0.6755  0.4858 -0.5925 -0.6441 -0.5016
  63.  H 8 (s)      0.0378  0.0061  0.0013  0.0153  0.0083 -0.0231 -0.0113 -0.0324
  64.  H 8 (s)      0.0387 -0.5471 -0.7773  0.6755  0.4858 -0.5925 -0.6441 -0.5016
  65.  H 9 (s)      0.0378  0.0061 -0.0013 -0.0153 -0.0083 -0.0231 -0.0113  0.0324
  66.  H 9 (s)      0.0387 -0.5471  0.7773 -0.6755 -0.4858 -0.5925 -0.6441  0.5016
  67.  H10 (s)      0.0378  0.0061 -0.0013  0.0153 -0.0083 -0.0231 -0.0113  0.0324
  68.  H10 (s)      0.0387 -0.5471  0.7773  0.6755 -0.4858 -0.5925 -0.6441  0.5016
  69.  H11 (s)      0.0547  0.0120 -0.0090  0.0340 -0.0240 -0.0123  0.0233  0.0141
  70.  H11 (s)      0.0626 -0.7221 -0.0851  0.8183 -0.8733 -0.0428  0.7036 -0.6798
  71.  H12 (s)      0.0547  0.0120 -0.0090 -0.0340 -0.0240 -0.0123  0.0233  0.0141
  72.  H12 (s)      0.0626 -0.7221 -0.0851 -0.8183 -0.8733 -0.0428  0.7036 -0.6798
  73.  H13 (s)      0.0547  0.0120  0.0090  0.0340  0.0240 -0.0123  0.0233 -0.0141
  74.  H13 (s)      0.0626 -0.7221  0.0851  0.8183  0.8733 -0.0428  0.7036  0.6798
  75.  H14 (s)      0.0547  0.0120  0.0090 -0.0340  0.0240 -0.0123  0.0233 -0.0141
  76.  H14 (s)      0.0626 -0.7221  0.0851 -0.8183  0.8733 -0.0428  0.7036  0.6798

           AO         25      26      27      28      29      30      31      32
      ------------ ------- ------- ------- ------- ------- ------- ------- -------
   1.  C 1 (s)      0.0000  0.0000  0.0000  0.0478  0.0319  0.0235  0.0014 -0.0075
   2.  C 1 (s)      0.0000  0.0000  0.0000 -0.0157  0.0326 -0.0440  0.1597  0.0090
   3.  C 1 (px)     0.0000  0.0000  0.0000  0.0616 -0.1616  0.0659 -0.2009 -0.3074
   4.  C 1 (py)     0.0000  0.0000  0.0000  0.0608  0.1087  0.1892 -0.4414  0.2368
   5.  C 1 (pz)     0.2163  0.0869  0.1494  0.0000  0.0000  0.0000  0.0000  0.0000
   6.  C 1 (s)      0.0000  0.0000  0.0000 -0.9021 -1.1697 -0.3257 -0.3062 -0.3567
   7.  C 1 (px)     0.0000  0.0000  0.0000  0.6500 -0.3789 -0.2393  0.2753  0.4930
   8.  C 1 (py)     0.0000  0.0000  0.0000  0.9554  1.3146  1.1141  0.7488 -0.5641
   9.  C 1 (pz)     1.1712  0.0842  1.0279  0.0000  0.0000  0.0000  0.0000  0.0000
  10.  C 1 (d5)     0.0000  0.0000  0.0000 -0.0055  0.0042 -0.0184  0.0086  0.0694
  11.  C 1 (d2)     0.0067  0.0015  0.0119  0.0000  0.0000  0.0000  0.0000  0.0000
  12.  C 1 (d3)     0.0029 -0.0219  0.0028  0.0000  0.0000  0.0000  0.0000  0.0000
  13.  C 1 (d4)     0.0000  0.0000  0.0000 -0.0180 -0.0157 -0.0067 -0.0487  0.0311
  14.  C 1 (d1)     0.0000  0.0000  0.0000  0.0209 -0.0115 -0.0081 -0.0434 -0.0350
  15.  C 2 (s)      0.0000  0.0000  0.0000 -0.0909 -0.0321  0.0038  0.0126 -0.0015
  16.  C 2 (s)      0.0000  0.0000  0.0000  0.0131 -0.0028  0.0168 -0.0883  0.0020
  17.  C 2 (px)     0.0000  0.0000  0.0000 -0.1833 -0.0244  0.1630  0.0748 -0.0485
  18.  C 2 (py)     0.0000  0.0000  0.0000  0.1249  0.1745  0.2136  0.2650 -0.3961
  19.  C 2 (pz)    -0.0937  0.2225 -0.1436  0.0000  0.0000  0.0000  0.0000  0.0000
  20.  C 2 (s)      0.0000  0.0000  0.0000  2.2991  0.8528 -0.2121  0.7016 -0.1840
  21.  C 2 (px)     0.0000  0.0000  0.0000 -1.6027 -0.3381  1.3344 -0.0657 -0.1175
  22.  C 2 (py)     0.0000  0.0000  0.0000  0.2686  1.6947  1.1901 -0.1634  0.5827
  23.  C 2 (pz)    -0.7759  1.2988 -0.7738  0.0000  0.0000  0.0000  0.0000  0.0000
  24.  C 2 (d5)     0.0000  0.0000  0.0000  0.0073  0.0104 -0.0025 -0.0650  0.0168
  25.  C 2 (d2)    -0.0076  0.0051  0.0188  0.0000  0.0000  0.0000  0.0000  0.0000
  26.  C 2 (d3)     0.0119  0.0162  0.0132  0.0000  0.0000  0.0000  0.0000  0.0000
  27.  C 2 (d4)     0.0000  0.0000  0.0000 -0.0042 -0.0032  0.0226 -0.0568  0.0480
  28.  C 2 (d1)     0.0000  0.0000  0.0000 -0.0062  0.0060 -0.0023  0.0410  0.0186
  29.  C 3 (s)      0.0000  0.0000  0.0000  0.0909 -0.0321 -0.0038 -0.0126 -0.0015
  30.  C 3 (s)      0.0000  0.0000  0.0000 -0.0131 -0.0028 -0.0168  0.0883  0.0020
  31.  C 3 (px)     0.0000  0.0000  0.0000 -0.1833  0.0244  0.1630  0.0748  0.0485
  32.  C 3 (py)     0.0000  0.0000  0.0000  0.1249 -0.1745  0.2136  0.2650  0.3961
  33.  C 3 (pz)     0.0937 -0.2225 -0.1436  0.0000  0.0000  0.0000  0.0000  0.0000
  34.  C 3 (s)      0.0000  0.0000  0.0000 -2.2991  0.8528  0.2121 -0.7016 -0.1840
  35.  C 3 (px)     0.0000  0.0000  0.0000 -1.6027  0.3381  1.3344 -0.0657  0.1175
  36.  C 3 (py)     0.0000  0.0000  0.0000  0.2686 -1.6947  1.1901 -0.1634 -0.5827
  37.  C 3 (pz)     0.7759 -1.2988 -0.7738  0.0000  0.0000  0.0000  0.0000  0.0000
  38.  C 3 (d5)     0.0000  0.0000  0.0000 -0.0073  0.0104  0.0025  0.0650  0.0168
  39.  C 3 (d2)    -0.0076  0.0051 -0.0188  0.0000  0.0000  0.0000  0.0000  0.0000
  40.  C 3 (d3)     0.0119  0.0162 -0.0132  0.0000  0.0000  0.0000  0.0000  0.0000
  41.  C 3 (d4)     0.0000  0.0000  0.0000  0.0042 -0.0032 -0.0226  0.0568  0.0480
  42.  C 3 (d1)     0.0000  0.0000  0.0000  0.0062  0.0060  0.0023 -0.0410  0.0186
  43.  C 4 (s)      0.0000  0.0000  0.0000 -0.0478  0.0319 -0.0235 -0.0014 -0.0075
  44.  C 4 (s)      0.0000  0.0000  0.0000  0.0157  0.0326  0.0440 -0.1597  0.0090
  45.  C 4 (px)     0.0000  0.0000  0.0000  0.0616  0.1616  0.0659 -0.2009  0.3074
  46.  C 4 (py)     0.0000  0.0000  0.0000  0.0608 -0.1087  0.1892 -0.4414 -0.2368
  47.  C 4 (pz)    -0.2163 -0.0869  0.1494  0.0000  0.0000  0.0000  0.0000  0.0000
  48.  C 4 (s)      0.0000  0.0000  0.0000  0.9021 -1.1697  0.3257  0.3062 -0.3567
  49.  C 4 (px)     0.0000  0.0000  0.0000  0.6500  0.3789 -0.2393  0.2753 -0.4930
  50.  C 4 (py)     0.0000  0.0000  0.0000  0.9554 -1.3146  1.1141  0.7488  0.5641
  51.  C 4 (pz)    -1.1712 -0.0842  1.0279  0.0000  0.0000  0.0000  0.0000  0.0000
  52.  C 4 (d5)     0.0000  0.0000  0.0000  0.0055  0.0042  0.0184 -0.0086  0.0694
  53.  C 4 (d2)     0.0067  0.0015 -0.0119  0.0000  0.0000  0.0000  0.0000  0.0000
  54.  C 4 (d3)     0.0029 -0.0219 -0.0028  0.0000  0.0000  0.0000  0.0000  0.0000
  55.  C 4 (d4)     0.0000  0.0000  0.0000  0.0180 -0.0157  0.0067  0.0487  0.0311
  56.  C 4 (d1)     0.0000  0.0000  0.0000 -0.0209 -0.0115  0.0081  0.0434 -0.0350
  57.  H 5 (s)      0.0000  0.0000  0.0000  0.0037 -0.0748 -0.0224 -0.2708 -0.1549
  58.  H 5 (s)      0.0000  0.0000  0.0000 -0.4699  0.3993 -0.3774  0.1460  0.1372
  59.  H 6 (s)      0.0000  0.0000  0.0000 -0.0037 -0.0748  0.0224  0.2708 -0.1549
  60.  H 6 (s)      0.0000  0.0000  0.0000  0.4699  0.3993  0.3774 -0.1460  0.1372
  61.  H 7 (s)     -0.0256 -0.0466 -0.0380 -0.0490 -0.0084 -0.0423  0.0255  0.2169
  62.  H 7 (s)     -1.1313 -0.3611 -0.9591  0.2310 -0.4549 -0.3482 -0.0176  0.0553
  63.  H 8 (s)      0.0256  0.0466  0.0380 -0.0490 -0.0084 -0.0423  0.0255  0.2169
  64.  H 8 (s)      1.1313  0.3611  0.9591  0.2310 -0.4549 -0.3482 -0.0176  0.0553
  65.  H 9 (s)      0.0256  0.0466 -0.0380  0.0490 -0.0084  0.0423 -0.0255  0.2169
  66.  H 9 (s)      1.1313  0.3611 -0.9591 -0.2310 -0.4549  0.3482  0.0176  0.0553
  67.  H10 (s)     -0.0256 -0.0466  0.0380  0.0490 -0.0084  0.0423 -0.0255  0.2169
  68.  H10 (s)     -1.1313 -0.3611  0.9591 -0.2310 -0.4549  0.3482  0.0176  0.0553
  69.  H11 (s)      0.0388  0.0267 -0.0331  0.0426  0.0320 -0.0038 -0.1597  0.0290
  70.  H11 (s)     -0.4665  1.1820 -0.7869  0.2962  0.4742 -0.1815  0.0114  0.0300
  71.  H12 (s)     -0.0388 -0.0267  0.0331  0.0426  0.0320 -0.0038 -0.1597  0.0290
  72.  H12 (s)      0.4665 -1.1820  0.7869  0.2962  0.4742 -0.1815  0.0114  0.0300
  73.  H13 (s)     -0.0388 -0.0267 -0.0331 -0.0426  0.0320  0.0038  0.1597  0.0290
  74.  H13 (s)      0.4665 -1.1820 -0.7869 -0.2962  0.4742  0.1815 -0.0114  0.0300
  75.  H14 (s)      0.0388  0.0267  0.0331 -0.0426  0.0320  0.0038  0.1597  0.0290
  76.  H14 (s)     -0.4665  1.1820  0.7869 -0.2962  0.4742  0.1815 -0.0114  0.0300

           AO         33      34      35      36      37      38      39      40
      ------------ ------- ------- ------- ------- ------- ------- ------- -------
   1.  C 1 (s)      0.0000 -0.0018  0.0000  0.0154  0.0000 -0.0411  0.0092 -0.0335
   2.  C 1 (s)      0.0000 -0.0512  0.0000 -0.1711  0.0000  0.2214 -0.0195 -0.0338
   3.  C 1 (px)     0.0000  0.0944  0.0000 -0.4184  0.0000 -0.0987  0.0443 -0.2636
   4.  C 1 (py)     0.0000  0.0135  0.0000  0.4455  0.0000 -0.6831  0.1608 -0.2043
   5.  C 1 (pz)    -0.4662  0.0000 -0.2733  0.0000 -0.4939  0.0000  0.0000  0.0000
   6.  C 1 (s)      0.0000  0.2912  0.0000  0.0779  0.0000 -0.0722  0.1542 -0.2510
   7.  C 1 (px)     0.0000 -0.3398  0.0000  1.0684  0.0000  0.3011 -0.2758  0.6925
   8.  C 1 (py)     0.0000  0.0588  0.0000 -0.5057  0.0000  0.9573 -0.2558  1.0707
   9.  C 1 (pz)     0.8844  0.0000  0.5004  0.0000  1.1450  0.0000  0.0000  0.0000
  10.  C 1 (d5)     0.0000 -0.0133  0.0000  0.0614  0.0000  0.0470 -0.0197  0.0406
  11.  C 1 (d2)     0.0661  0.0000  0.0408  0.0000  0.0736  0.0000  0.0000  0.0000
  12.  C 1 (d3)    -0.0418  0.0000 -0.0488  0.0000  0.0027  0.0000  0.0000  0.0000
  13.  C 1 (d4)     0.0000 -0.0118  0.0000 -0.0426  0.0000  0.0137 -0.0326  0.0436
  14.  C 1 (d1)     0.0000 -0.0216  0.0000 -0.0296  0.0000 -0.0051  0.0086  0.0226
  15.  C 2 (s)      0.0000  0.0062  0.0000 -0.0369  0.0000  0.0357 -0.0451 -0.0054
  16.  C 2 (s)      0.0000  0.1079  0.0000 -0.0121  0.0000 -0.1670  0.3945 -0.0994
  17.  C 2 (px)     0.0000 -0.5960  0.0000  0.1317  0.0000 -0.0618 -0.7624 -0.1071
  18.  C 2 (py)     0.0000  0.0711  0.0000  0.0917  0.0000 -0.3818  0.0305 -0.6973
  19.  C 2 (pz)    -0.1352  0.0000 -0.2340  0.0000  0.3862  0.0000  0.0000  0.0000
  20.  C 2 (s)      0.0000  0.3004  0.0000  0.6302  0.0000  0.4063 -1.2567  0.3948
  21.  C 2 (px)     0.0000  1.1002  0.0000 -0.8412  0.0000 -0.0958  1.7639  0.1681
  22.  C 2 (py)     0.0000 -0.2832  0.0000 -0.2064  0.0000  0.3755 -0.0064  1.3873
  23.  C 2 (pz)     0.0558  0.0000  0.3898  0.0000 -0.8088  0.0000  0.0000  0.0000
  24.  C 2 (d5)     0.0000 -0.0773  0.0000  0.0311  0.0000 -0.0495  0.0261  0.0125
  25.  C 2 (d2)    -0.0152  0.0000 -0.0729  0.0000  0.0698  0.0000  0.0000  0.0000
  26.  C 2 (d3)     0.0455  0.0000  0.0376  0.0000 -0.0158  0.0000  0.0000  0.0000
  27.  C 2 (d4)     0.0000  0.0443  0.0000  0.0551  0.0000 -0.0621 -0.0434 -0.0717
  28.  C 2 (d1)     0.0000  0.0530  0.0000  0.0228  0.0000 -0.0270 -0.0670  0.0079
  29.  C 3 (s)      0.0000  0.0062  0.0000  0.0369  0.0000  0.0357  0.0451  0.0054
  30.  C 3 (s)      0.0000  0.1079  0.0000  0.0121  0.0000 -0.1670 -0.3945  0.0994
  31.  C 3 (px)     0.0000  0.5960  0.0000  0.1317  0.0000  0.0618 -0.7624 -0.1071
  32.  C 3 (py)     0.0000 -0.0711  0.0000  0.0917  0.0000  0.3818  0.0305 -0.6973
  33.  C 3 (pz)     0.1352  0.0000 -0.2340  0.0000  0.3862  0.0000  0.0000  0.0000
  34.  C 3 (s)      0.0000  0.3004  0.0000 -0.6302  0.0000  0.4063  1.2567 -0.3948
  35.  C 3 (px)     0.0000 -1.1002  0.0000 -0.8412  0.0000  0.0958  1.7639  0.1681
  36.  C 3 (py)     0.0000  0.2832  0.0000 -0.2064  0.0000 -0.3755 -0.0064  1.3873
  37.  C 3 (pz)    -0.0558  0.0000  0.3898  0.0000 -0.8088  0.0000  0.0000  0.0000
  38.  C 3 (d5)     0.0000 -0.0773  0.0000 -0.0311  0.0000 -0.0495 -0.0261 -0.0125
  39.  C 3 (d2)    -0.0152  0.0000  0.0729  0.0000 -0.0698  0.0000  0.0000  0.0000
  40.  C 3 (d3)     0.0455  0.0000 -0.0376  0.0000  0.0158  0.0000  0.0000  0.0000
  41.  C 3 (d4)     0.0000  0.0443  0.0000 -0.0551  0.0000 -0.0621  0.0434  0.0717
  42.  C 3 (d1)     0.0000  0.0530  0.0000 -0.0228  0.0000 -0.0270  0.0670 -0.0079
  43.  C 4 (s)      0.0000 -0.0018  0.0000 -0.0154  0.0000 -0.0411 -0.0092  0.0335
  44.  C 4 (s)      0.0000 -0.0512  0.0000  0.1711  0.0000  0.2214  0.0195  0.0338
  45.  C 4 (px)     0.0000 -0.0944  0.0000 -0.4184  0.0000  0.0987  0.0443 -0.2636
  46.  C 4 (py)     0.0000 -0.0135  0.0000  0.4455  0.0000  0.6831  0.1608 -0.2043
  47.  C 4 (pz)     0.4662  0.0000 -0.2733  0.0000 -0.4939  0.0000  0.0000  0.0000
  48.  C 4 (s)      0.0000  0.2912  0.0000 -0.0779  0.0000 -0.0722 -0.1542  0.2510
  49.  C 4 (px)     0.0000  0.3398  0.0000  1.0684  0.0000 -0.3011 -0.2758  0.6925
  50.  C 4 (py)     0.0000 -0.0588  0.0000 -0.5057  0.0000 -0.9573 -0.2558  1.0707
  51.  C 4 (pz)    -0.8844  0.0000  0.5004  0.0000  1.1450  0.0000  0.0000  0.0000
  52.  C 4 (d5)     0.0000 -0.0133  0.0000 -0.0614  0.0000  0.0470  0.0197 -0.0406
  53.  C 4 (d2)     0.0661  0.0000 -0.0408  0.0000 -0.0736  0.0000  0.0000  0.0000
  54.  C 4 (d3)    -0.0418  0.0000  0.0488  0.0000 -0.0027  0.0000  0.0000  0.0000
  55.  C 4 (d4)     0.0000 -0.0118  0.0000  0.0426  0.0000  0.0137  0.0326 -0.0436
  56.  C 4 (d1)     0.0000 -0.0216  0.0000  0.0296  0.0000 -0.0051 -0.0086 -0.0226
  57.  H 5 (s)      0.0000 -0.1110  0.0000 -0.2650  0.0000 -0.2160 -0.0529 -0.2341
  58.  H 5 (s)      0.0000  0.0270  0.0000 -0.1161  0.0000 -0.1996  0.0607 -0.6120
  59.  H 6 (s)      0.0000 -0.1110  0.0000  0.2650  0.0000 -0.2160  0.0529  0.2341
  60.  H 6 (s)      0.0000  0.0270  0.0000  0.1161  0.0000 -0.1996 -0.0607  0.6120
  61.  H 7 (s)     -0.3165  0.0039 -0.2547  0.1889 -0.1772 -0.0389  0.0280 -0.1735
  62.  H 7 (s)     -0.0296 -0.1041 -0.0200  0.1206 -0.1735 -0.1225  0.0194 -0.0926
  63.  H 8 (s)      0.3165  0.0039  0.2547  0.1889  0.1772 -0.0389  0.0280 -0.1735
  64.  H 8 (s)      0.0296 -0.1041  0.0200  0.1206  0.1735 -0.1225  0.0194 -0.0926
  65.  H 9 (s)      0.3165  0.0039 -0.2547 -0.1889 -0.1772 -0.0389 -0.0280  0.1735
  66.  H 9 (s)      0.0296 -0.1041 -0.0200 -0.1206 -0.1735 -0.1225 -0.0194  0.0926
  67.  H10 (s)     -0.3165  0.0039  0.2547 -0.1889  0.1772 -0.0389 -0.0280  0.1735
  68.  H10 (s)     -0.0296 -0.1041  0.0200 -0.1206  0.1735 -0.1225 -0.0194  0.0926
  69.  H11 (s)      0.1407 -0.1954  0.3277 -0.0270 -0.2001  0.0611 -0.1776 -0.0272
  70.  H11 (s)     -0.1135 -0.0466 -0.0166 -0.0497 -0.0305  0.1157 -0.3223  0.1220
  71.  H12 (s)     -0.1407 -0.1954 -0.3277 -0.0270  0.2001  0.0611 -0.1776 -0.0272
  72.  H12 (s)      0.1135 -0.0466  0.0166 -0.0497  0.0305  0.1157 -0.3223  0.1220
  73.  H13 (s)     -0.1407 -0.1954  0.3277  0.0270 -0.2001  0.0611  0.1776  0.0272
  74.  H13 (s)      0.1135 -0.0466 -0.0166  0.0497 -0.0305  0.1157  0.3223 -0.1220
  75.  H14 (s)      0.1407 -0.1954 -0.3277  0.0270  0.2001  0.0611  0.1776  0.0272
  76.  H14 (s)     -0.1135 -0.0466  0.0166  0.0497  0.0305  0.1157  0.3223 -0.1220

           AO         41      42      43      44      45      46      47      48
      ------------ ------- ------- ------- ------- ------- ------- ------- -------
   1.  C 1 (s)      0.0000  0.0029  0.0000  0.0291 -0.0022  0.0000  0.0000  0.0306
   2.  C 1 (s)      0.0000  0.1267  0.0000 -0.0438 -0.1416  0.0000  0.0000 -0.0330
   3.  C 1 (px)     0.0000  0.6326  0.0000 -0.1999  0.6364  0.0000  0.0000  0.3859
   4.  C 1 (py)     0.0000  0.0223  0.0000 -0.1343 -0.0366  0.0000  0.0000 -0.1193
   5.  C 1 (pz)     0.4009  0.0000 -0.4445  0.0000  0.0000  0.5337  0.4330  0.0000
   6.  C 1 (s)      0.0000 -1.5366  0.0000 -0.5861  0.2779  0.0000  0.0000  0.2216
   7.  C 1 (px)     0.0000 -1.7177  0.0000 -0.0578 -0.8133  0.0000  0.0000 -0.3071
   8.  C 1 (py)     0.0000  0.5806  0.0000  0.2244  0.0826  0.0000  0.0000 -0.1603
   9.  C 1 (pz)    -1.2992  0.0000  0.5550  0.0000  0.0000 -0.8102 -0.6102  0.0000
  10.  C 1 (d5)     0.0000 -0.0003  0.0000 -0.0525  0.1077  0.0000  0.0000  0.1065
  11.  C 1 (d2)    -0.0111  0.0000 -0.0554  0.0000  0.0000  0.0820  0.1180  0.0000
  12.  C 1 (d3)    -0.0597  0.0000  0.0787  0.0000  0.0000 -0.1001 -0.0642  0.0000
  13.  C 1 (d4)     0.0000  0.0969  0.0000  0.1133 -0.0498  0.0000  0.0000 -0.0570
  14.  C 1 (d1)     0.0000 -0.0748  0.0000  0.0637 -0.0865  0.0000  0.0000 -0.0393
  15.  C 2 (s)      0.0000 -0.0090  0.0000  0.0173 -0.0133  0.0000  0.0000  0.0234
  16.  C 2 (s)      0.0000 -0.1290  0.0000 -0.2490  0.1735  0.0000  0.0000  0.0211
  17.  C 2 (px)     0.0000  0.0586  0.0000 -0.3607  0.0680  0.0000  0.0000 -0.1442
  18.  C 2 (py)     0.0000 -0.4927  0.0000 -0.0159 -0.1668  0.0000  0.0000  0.3130
  19.  C 2 (pz)    -0.7632  0.0000 -0.6155  0.0000  0.0000  0.4264 -0.3698  0.0000
  20.  C 2 (s)      0.0000  0.9270  0.0000  0.9102 -0.2043  0.0000  0.0000 -0.2882
  21.  C 2 (px)     0.0000  0.0647  0.0000  0.4317 -0.3319  0.0000  0.0000 -0.0187
  22.  C 2 (py)     0.0000  2.0379  0.0000  0.5619  0.1262  0.0000  0.0000 -0.5579
  23.  C 2 (pz)     2.2976  0.0000  0.9171  0.0000  0.0000 -0.7940  0.5847  0.0000
  24.  C 2 (d5)     0.0000  0.0098  0.0000  0.0511  0.0305  0.0000  0.0000  0.0674
  25.  C 2 (d2)    -0.0148  0.0000  0.0843  0.0000  0.0000 -0.0506  0.1391  0.0000
  26.  C 2 (d3)     0.0481  0.0000 -0.0708  0.0000  0.0000  0.1018  0.0226  0.0000
  27.  C 2 (d4)     0.0000  0.0194  0.0000  0.0334 -0.0152  0.0000  0.0000 -0.0245
  28.  C 2 (d1)     0.0000  0.0729  0.0000 -0.0259  0.0651  0.0000  0.0000  0.0099
  29.  C 3 (s)      0.0000 -0.0090  0.0000  0.0173  0.0133  0.0000  0.0000  0.0234
  30.  C 3 (s)      0.0000 -0.1290  0.0000 -0.2490 -0.1735  0.0000  0.0000  0.0211
  31.  C 3 (px)     0.0000 -0.0586  0.0000  0.3607  0.0680  0.0000  0.0000  0.1442
  32.  C 3 (py)     0.0000  0.4927  0.0000  0.0159 -0.1668  0.0000  0.0000 -0.3130
  33.  C 3 (pz)     0.7632  0.0000 -0.6155  0.0000  0.0000 -0.4264 -0.3698  0.0000
  34.  C 3 (s)      0.0000  0.9270  0.0000  0.9102  0.2043  0.0000  0.0000 -0.2882
  35.  C 3 (px)     0.0000 -0.0647  0.0000 -0.4317 -0.3319  0.0000  0.0000  0.0187
  36.  C 3 (py)     0.0000 -2.0379  0.0000 -0.5619  0.1262  0.0000  0.0000  0.5579
  37.  C 3 (pz)    -2.2976  0.0000  0.9171  0.0000  0.0000  0.7940  0.5847  0.0000
  38.  C 3 (d5)     0.0000  0.0098  0.0000  0.0511 -0.0305  0.0000  0.0000  0.0674
  39.  C 3 (d2)    -0.0148  0.0000 -0.0843  0.0000  0.0000 -0.0506 -0.1391  0.0000
  40.  C 3 (d3)     0.0481  0.0000  0.0708  0.0000  0.0000  0.1018 -0.0226  0.0000
  41.  C 3 (d4)     0.0000  0.0194  0.0000  0.0334  0.0152  0.0000  0.0000 -0.0245
  42.  C 3 (d1)     0.0000  0.0729  0.0000 -0.0259 -0.0651  0.0000  0.0000  0.0099
  43.  C 4 (s)      0.0000  0.0029  0.0000  0.0291  0.0022  0.0000  0.0000  0.0306
  44.  C 4 (s)      0.0000  0.1267  0.0000 -0.0438  0.1416  0.0000  0.0000 -0.0330
  45.  C 4 (px)     0.0000 -0.6326  0.0000  0.1999  0.6364  0.0000  0.0000 -0.3859
  46.  C 4 (py)     0.0000 -0.0223  0.0000  0.1343 -0.0366  0.0000  0.0000  0.1193
  47.  C 4 (pz)    -0.4009  0.0000 -0.4445  0.0000  0.0000 -0.5337  0.4330  0.0000
  48.  C 4 (s)      0.0000 -1.5366  0.0000 -0.5861 -0.2779  0.0000  0.0000  0.2216
  49.  C 4 (px)     0.0000  1.7177  0.0000  0.0578 -0.8133  0.0000  0.0000  0.3071
  50.  C 4 (py)     0.0000 -0.5806  0.0000 -0.2244  0.0826  0.0000  0.0000  0.1603
  51.  C 4 (pz)     1.2992  0.0000  0.5550  0.0000  0.0000  0.8102 -0.6102  0.0000
  52.  C 4 (d5)     0.0000 -0.0003  0.0000 -0.0525 -0.1077  0.0000  0.0000  0.1065
  53.  C 4 (d2)    -0.0111  0.0000  0.0554  0.0000  0.0000  0.0820 -0.1180  0.0000
  54.  C 4 (d3)    -0.0597  0.0000 -0.0787  0.0000  0.0000 -0.1001  0.0642  0.0000
  55.  C 4 (d4)     0.0000  0.0969  0.0000  0.1133  0.0498  0.0000  0.0000 -0.0570
  56.  C 4 (d1)     0.0000 -0.0748  0.0000  0.0637  0.0865  0.0000  0.0000 -0.0393
  57.  H 5 (s)      0.0000  0.0978  0.0000  0.6432 -0.5356  0.0000  0.0000 -0.2346
  58.  H 5 (s)      0.0000  0.9519  0.0000 -0.5111  0.9419  0.0000  0.0000  0.5797
  59.  H 6 (s)      0.0000  0.0978  0.0000  0.6432  0.5356  0.0000  0.0000 -0.2346
  60.  H 6 (s)      0.0000  0.9519  0.0000 -0.5111 -0.9419  0.0000  0.0000  0.5797
  61.  H 7 (s)     -0.0828  0.0241  0.2420  0.0304  0.2609 -0.3481 -0.4207  0.4449
  62.  H 7 (s)      0.5939 -0.4290 -0.5558  0.1695 -0.6017  0.8695  0.7424 -0.3819
  63.  H 8 (s)      0.0828  0.0241 -0.2420  0.0304  0.2609  0.3481  0.4207  0.4449
  64.  H 8 (s)     -0.5939 -0.4290  0.5558  0.1695 -0.6017 -0.8695 -0.7424 -0.3819
  65.  H 9 (s)      0.0828  0.0241  0.2420  0.0304 -0.2609  0.3481 -0.4207  0.4449
  66.  H 9 (s)     -0.5939 -0.4290 -0.5558  0.1695  0.6017 -0.8695  0.7424 -0.3819
  67.  H10 (s)     -0.0828  0.0241 -0.2420  0.0304 -0.2609 -0.3481  0.4207  0.4449
  68.  H10 (s)      0.5939 -0.4290  0.5558  0.1695  0.6017  0.8695 -0.7424 -0.3819
  69.  H11 (s)      0.0300 -0.0432 -0.2757  0.3312 -0.0279  0.2779 -0.3021  0.3029
  70.  H11 (s)      0.7549  0.2512  0.8430 -0.3459  0.2477 -0.7485  0.6616 -0.1753
  71.  H12 (s)     -0.0300 -0.0432  0.2757  0.3312 -0.0279 -0.2779  0.3021  0.3029
  72.  H12 (s)     -0.7549  0.2512 -0.8430 -0.3459  0.2477  0.7485 -0.6616 -0.1753
  73.  H13 (s)     -0.0300 -0.0432 -0.2757  0.3312  0.0279 -0.2779 -0.3021  0.3029
  74.  H13 (s)     -0.7549  0.2512  0.8430 -0.3459 -0.2477  0.7485  0.6616 -0.1753
  75.  H14 (s)      0.0300 -0.0432  0.2757  0.3312  0.0279  0.2779  0.3021  0.3029
  76.  H14 (s)      0.7549  0.2512 -0.8430 -0.3459 -0.2477 -0.7485 -0.6616 -0.1753

           AO         49      50      51      52      53      54      55      56
      ------------ ------- ------- ------- ------- ------- ------- ------- -------
   1.  C 1 (s)     -0.0198  0.0334 -0.0217  0.0308  0.0000 -0.0775  0.0000 -0.0810
   2.  C 1 (s)      0.2802 -1.0298 -1.0013 -0.9393  0.0000 -1.3487  0.0000 -1.0885
   3.  C 1 (px)     0.0396 -0.0881  0.0288 -0.0788  0.0000  0.1349  0.0000  0.0609
   4.  C 1 (py)    -0.0091 -0.3806  0.0411 -0.3227  0.0000  0.2198  0.0000  0.0397
   5.  C 1 (pz)     0.0000  0.0000  0.0000  0.0000 -0.2007  0.0000 -0.0949  0.0000
   6.  C 1 (s)     -0.6606  1.8919  1.7889  2.1151  0.0000  3.5817  0.0000  3.5161
   7.  C 1 (px)    -0.0050  0.1797  0.0582  0.1563  0.0000 -0.5385  0.0000 -0.1688
   8.  C 1 (py)     0.1821  0.6013  0.3576  0.3807  0.0000 -0.7914  0.0000 -0.8235
   9.  C 1 (pz)     0.0000  0.0000  0.0000  0.0000 -0.4195  0.0000 -0.1451  0.0000
  10.  C 1 (d5)     0.0629  0.0474  0.0400  0.0115  0.0000 -0.0316  0.0000 -0.0153
  11.  C 1 (d2)     0.0000  0.0000  0.0000  0.0000 -0.1640  0.0000 -0.1972  0.0000
  12.  C 1 (d3)     0.0000  0.0000  0.0000  0.0000 -0.0741  0.0000 -0.3551  0.0000
  13.  C 1 (d4)     0.0009  0.0690  0.0366  0.0249  0.0000  0.0059  0.0000 -0.0220
  14.  C 1 (d1)    -0.0024  0.0075  0.0104 -0.0145  0.0000 -0.0372  0.0000 -0.0104
  15.  C 2 (s)      0.0307  0.0005 -0.0146 -0.0134  0.0000 -0.0314  0.0000  0.0749
  16.  C 2 (s)     -0.9619 -0.1482 -1.1707  0.4772  0.0000 -0.6783  0.0000  1.2123
  17.  C 2 (px)    -0.3633 -0.1404 -0.0353  0.2097  0.0000  0.0400  0.0000 -0.1263
  18.  C 2 (py)     0.1666 -0.0373  0.0124 -0.0612  0.0000  0.1533  0.0000 -0.1540
  19.  C 2 (pz)     0.0000  0.0000  0.0000  0.0000  0.0648  0.0000  0.0141  0.0000
  20.  C 2 (s)      2.2592  0.1978  1.8106 -1.1279  0.0000  1.2440  0.0000 -3.3399
  21.  C 2 (px)     0.3800  0.3587  0.3058 -0.3302  0.0000 -0.6412  0.0000 -0.2713
  22.  C 2 (py)    -0.1610  0.1508 -0.1242 -0.0899  0.0000 -1.6867  0.0000 -0.6049
  23.  C 2 (pz)     0.0000  0.0000  0.0000  0.0000  0.9138  0.0000  0.0862  0.0000
  24.  C 2 (d5)     0.0511  0.0319  0.0793 -0.0575  0.0000 -0.0039  0.0000  0.0286
  25.  C 2 (d2)     0.0000  0.0000  0.0000  0.0000 -0.1105  0.0000  0.2858  0.0000
  26.  C 2 (d3)     0.0000  0.0000  0.0000  0.0000  0.1505  0.0000  0.4073  0.0000
  27.  C 2 (d4)     0.0420  0.0439 -0.0011  0.0265  0.0000  0.0444  0.0000  0.0517
  28.  C 2 (d1)    -0.0392 -0.0278 -0.0189  0.0270  0.0000  0.0120  0.0000  0.0411
  29.  C 3 (s)     -0.0307 -0.0005 -0.0146 -0.0134  0.0000  0.0314  0.0000  0.0749
  30.  C 3 (s)      0.9619  0.1482 -1.1707  0.4772  0.0000  0.6783  0.0000  1.2123
  31.  C 3 (px)    -0.3633 -0.1404  0.0353 -0.2097  0.0000  0.0400  0.0000  0.1263
  32.  C 3 (py)     0.1666 -0.0373 -0.0124  0.0612  0.0000  0.1533  0.0000  0.1540
  33.  C 3 (pz)     0.0000  0.0000  0.0000  0.0000 -0.0648  0.0000  0.0141  0.0000
  34.  C 3 (s)     -2.2592 -0.1978  1.8106 -1.1279  0.0000 -1.2440  0.0000 -3.3399
  35.  C 3 (px)     0.3800  0.3587 -0.3058  0.3302  0.0000 -0.6412  0.0000  0.2713
  36.  C 3 (py)    -0.1610  0.1508  0.1242  0.0899  0.0000 -1.6867  0.0000  0.6049
  37.  C 3 (pz)     0.0000  0.0000  0.0000  0.0000 -0.9138  0.0000  0.0862  0.0000
  38.  C 3 (d5)    -0.0511 -0.0319  0.0793 -0.0575  0.0000  0.0039  0.0000  0.0286
  39.  C 3 (d2)     0.0000  0.0000  0.0000  0.0000 -0.1105  0.0000 -0.2858  0.0000
  40.  C 3 (d3)     0.0000  0.0000  0.0000  0.0000  0.1505  0.0000 -0.4073  0.0000
  41.  C 3 (d4)    -0.0420 -0.0439 -0.0011  0.0265  0.0000 -0.0444  0.0000  0.0517
  42.  C 3 (d1)     0.0392  0.0278 -0.0189  0.0270  0.0000 -0.0120  0.0000  0.0411
  43.  C 4 (s)      0.0198 -0.0334 -0.0217  0.0308  0.0000  0.0775  0.0000 -0.0810
  44.  C 4 (s)     -0.2802  1.0298 -1.0013 -0.9393  0.0000  1.3487  0.0000 -1.0885
  45.  C 4 (px)     0.0396 -0.0881 -0.0288  0.0788  0.0000  0.1349  0.0000 -0.0609
  46.  C 4 (py)    -0.0091 -0.3806 -0.0411  0.3227  0.0000  0.2198  0.0000 -0.0397
  47.  C 4 (pz)     0.0000  0.0000  0.0000  0.0000  0.2007  0.0000 -0.0949  0.0000
  48.  C 4 (s)      0.6606 -1.8919  1.7889  2.1151  0.0000 -3.5817  0.0000  3.5161
  49.  C 4 (px)    -0.0050  0.1797 -0.0582 -0.1563  0.0000 -0.5385  0.0000  0.1688
  50.  C 4 (py)     0.1821  0.6013 -0.3576 -0.3807  0.0000 -0.7914  0.0000  0.8235
  51.  C 4 (pz)     0.0000  0.0000  0.0000  0.0000  0.4195  0.0000 -0.1451  0.0000
  52.  C 4 (d5)    -0.0629 -0.0474  0.0400  0.0115  0.0000  0.0316  0.0000 -0.0153
  53.  C 4 (d2)     0.0000  0.0000  0.0000  0.0000 -0.1640  0.0000  0.1972  0.0000
  54.  C 4 (d3)     0.0000  0.0000  0.0000  0.0000 -0.0741  0.0000  0.3551  0.0000
  55.  C 4 (d4)    -0.0009 -0.0690  0.0366  0.0249  0.0000 -0.0059  0.0000 -0.0220
  56.  C 4 (d1)     0.0024 -0.0075  0.0104 -0.0145  0.0000  0.0372  0.0000 -0.0104
  57.  H 5 (s)     -0.2507  0.3260 -0.2084  0.3244  0.0000 -0.2569  0.0000 -0.3098
  58.  H 5 (s)      0.2910 -0.8581 -0.4514 -0.7647  0.0000 -0.0179  0.0000 -0.1802
  59.  H 6 (s)      0.2507 -0.3260 -0.2084  0.3244  0.0000  0.2569  0.0000 -0.3098
  60.  H 6 (s)     -0.2910  0.8581 -0.4514 -0.7647  0.0000  0.0179  0.0000 -0.1802
  61.  H 7 (s)     -0.0096  0.3526 -0.0967  0.2981  0.3493 -0.4038  0.1286 -0.3329
  62.  H 7 (s)      0.0246 -0.6982 -0.4433 -0.6873 -0.1285 -0.4335  0.0032 -0.3672
  63.  H 8 (s)     -0.0096  0.3526 -0.0967  0.2981 -0.3493 -0.4038 -0.1286 -0.3329
  64.  H 8 (s)      0.0246 -0.6982 -0.4433 -0.6873  0.1285 -0.4335 -0.0032 -0.3672
  65.  H 9 (s)      0.0096 -0.3526 -0.0967  0.2981 -0.3493  0.4038  0.1286 -0.3329
  66.  H 9 (s)     -0.0246  0.6982 -0.4433 -0.6873  0.1285  0.4335  0.0032 -0.3672
  67.  H10 (s)      0.0096 -0.3526 -0.0967  0.2981  0.3493  0.4038 -0.1286 -0.3329
  68.  H10 (s)     -0.0246  0.6982 -0.4433 -0.6873 -0.1285  0.4335 -0.0032 -0.3672
  69.  H11 (s)      0.4225  0.0881 -0.0175 -0.2682  0.4839 -0.1999  0.0360  0.3674
  70.  H11 (s)     -0.9317 -0.2529 -0.6102  0.5583 -0.1516 -0.3090  0.0131  0.3751
  71.  H12 (s)      0.4225  0.0881 -0.0175 -0.2682 -0.4839 -0.1999 -0.0360  0.3674
  72.  H12 (s)     -0.9317 -0.2529 -0.6102  0.5583  0.1516 -0.3090 -0.0131  0.3751
  73.  H13 (s)     -0.4225 -0.0881 -0.0175 -0.2682 -0.4839  0.1999  0.0360  0.3674
  74.  H13 (s)      0.9317  0.2529 -0.6102  0.5583  0.1516  0.3090  0.0131  0.3751
  75.  H14 (s)     -0.4225 -0.0881 -0.0175 -0.2682  0.4839  0.1999 -0.0360  0.3674
  76.  H14 (s)      0.9317  0.2529 -0.6102  0.5583 -0.1516  0.3090 -0.0131  0.3751

           AO         57      58      59      60      61      62      63      64
      ------------ ------- ------- ------- ------- ------- ------- ------- -------
   1.  C 1 (s)      0.0046  0.0084  0.0758  0.0000 -0.0014  0.0176  0.0000 -0.0047
   2.  C 1 (s)      0.1693 -0.0381  0.6878  0.0000  0.3300 -0.2443  0.0000  0.0724
   3.  C 1 (px)     0.0922  0.1730  0.0768  0.0000 -0.0019  0.0272  0.0000 -0.0440
   4.  C 1 (py)    -0.0272  0.0919  0.1308  0.0000 -0.1024  0.1887  0.0000 -0.0725
   5.  C 1 (pz)     0.0000  0.0000  0.0000  0.0841  0.0000  0.0000  0.0146  0.0000
   6.  C 1 (s)     -0.5852 -0.5565 -3.4902  0.0000 -0.7823 -0.1330  0.0000  0.1742
   7.  C 1 (px)     0.0431 -0.4412 -0.2159  0.0000  0.3228 -0.0347  0.0000 -0.2138
   8.  C 1 (py)     0.2063  0.1806  1.1609  0.0000  0.3455 -0.1902  0.0000 -0.0149
   9.  C 1 (pz)     0.0000  0.0000  0.0000 -0.6709  0.0000  0.0000 -0.5262  0.0000
  10.  C 1 (d5)     0.1706  0.2200  0.0694  0.0000 -0.1529 -0.3340  0.0000  0.1999
  11.  C 1 (d2)     0.0000  0.0000  0.0000  0.2900  0.0000  0.0000  0.4133  0.0000
  12.  C 1 (d3)     0.0000  0.0000  0.0000  0.5318  0.0000  0.0000  0.3920  0.0000
  13.  C 1 (d4)    -0.0459 -0.1375  0.0215  0.0000  0.4068 -0.2624  0.0000 -0.0359
  14.  C 1 (d1)     0.2996  0.4981 -0.0394  0.0000 -0.4117 -0.1564  0.0000 -0.0278
  15.  C 2 (s)     -0.0320 -0.0141 -0.1399  0.0000 -0.0517  0.0022  0.0000 -0.0205
  16.  C 2 (s)     -0.3472  0.0791 -1.6268  0.0000 -0.1409 -0.0571  0.0000  0.3457
  17.  C 2 (px)     0.0998 -0.0768 -0.0290  0.0000 -0.0364 -0.1513  0.0000 -0.1962
  18.  C 2 (py)    -0.0629 -0.1744 -0.1592  0.0000 -0.0158 -0.2745  0.0000 -0.0723
  19.  C 2 (pz)     0.0000  0.0000  0.0000 -0.0771  0.0000  0.0000  0.0386  0.0000
  20.  C 2 (s)      1.4308  0.3730  6.5747  0.0000  1.7496  0.0514  0.0000 -0.0079
  21.  C 2 (px)    -0.2231  0.1977 -1.1080  0.0000 -0.9081  0.0452  0.0000  0.5403
  22.  C 2 (py)    -0.0152  0.8196  0.7382  0.0000 -0.0974  0.4746  0.0000 -0.3338
  23.  C 2 (pz)     0.0000  0.0000  0.0000  1.6451  0.0000  0.0000  0.5322  0.0000
  24.  C 2 (d5)    -0.2239 -0.1046  0.0417  0.0000 -0.0045 -0.1000  0.0000  0.6305
  25.  C 2 (d2)     0.0000  0.0000  0.0000 -0.1250  0.0000  0.0000  0.4205  0.0000
  26.  C 2 (d3)     0.0000  0.0000  0.0000 -0.2965  0.0000  0.0000  0.2137  0.0000
  27.  C 2 (d4)     0.2138  0.0012 -0.0884  0.0000  0.3684 -0.4432  0.0000 -0.2311
  28.  C 2 (d1)    -0.4081 -0.3443  0.2161  0.0000 -0.1332 -0.1905  0.0000 -0.0145
  29.  C 3 (s)      0.0320 -0.0141  0.1399  0.0000  0.0517  0.0022  0.0000 -0.0205
  30.  C 3 (s)      0.3472  0.0791  1.6268  0.0000  0.1409 -0.0571  0.0000  0.3457
  31.  C 3 (px)     0.0998  0.0768 -0.0290  0.0000 -0.0364  0.1513  0.0000  0.1962
  32.  C 3 (py)    -0.0629  0.1744 -0.1592  0.0000 -0.0158  0.2745  0.0000  0.0723
  33.  C 3 (pz)     0.0000  0.0000  0.0000  0.0771  0.0000  0.0000  0.0386  0.0000
  34.  C 3 (s)     -1.4308  0.3730 -6.5747  0.0000 -1.7496  0.0514  0.0000 -0.0079
  35.  C 3 (px)    -0.2231 -0.1977 -1.1080  0.0000 -0.9081 -0.0452  0.0000 -0.5403
  36.  C 3 (py)    -0.0152 -0.8196  0.7382  0.0000 -0.0974 -0.4746  0.0000  0.3338
  37.  C 3 (pz)     0.0000  0.0000  0.0000 -1.6451  0.0000  0.0000  0.5322  0.0000
  38.  C 3 (d5)     0.2239 -0.1046 -0.0417  0.0000  0.0045 -0.1000  0.0000  0.6305
  39.  C 3 (d2)     0.0000  0.0000  0.0000 -0.1250  0.0000  0.0000 -0.4205  0.0000
  40.  C 3 (d3)     0.0000  0.0000  0.0000 -0.2965  0.0000  0.0000 -0.2137  0.0000
  41.  C 3 (d4)    -0.2138  0.0012  0.0884  0.0000 -0.3684 -0.4432  0.0000 -0.2311
  42.  C 3 (d1)     0.4081 -0.3443 -0.2161  0.0000  0.1332 -0.1905  0.0000 -0.0145
  43.  C 4 (s)     -0.0046  0.0084 -0.0758  0.0000  0.0014  0.0176  0.0000 -0.0047
  44.  C 4 (s)     -0.1693 -0.0381 -0.6878  0.0000 -0.3300 -0.2443  0.0000  0.0724
  45.  C 4 (px)     0.0922 -0.1730  0.0768  0.0000 -0.0019 -0.0272  0.0000  0.0440
  46.  C 4 (py)    -0.0272 -0.0919  0.1308  0.0000 -0.1024 -0.1887  0.0000  0.0725
  47.  C 4 (pz)     0.0000  0.0000  0.0000 -0.0841  0.0000  0.0000  0.0146  0.0000
  48.  C 4 (s)      0.5852 -0.5565  3.4902  0.0000  0.7823 -0.1330  0.0000  0.1742
  49.  C 4 (px)     0.0431  0.4412 -0.2159  0.0000  0.3228  0.0347  0.0000  0.2138
  50.  C 4 (py)     0.2063 -0.1806  1.1609  0.0000  0.3455  0.1902  0.0000  0.0149
  51.  C 4 (pz)     0.0000  0.0000  0.0000  0.6709  0.0000  0.0000 -0.5262  0.0000
  52.  C 4 (d5)    -0.1706  0.2200 -0.0694  0.0000  0.1529 -0.3340  0.0000  0.1999
  53.  C 4 (d2)     0.0000  0.0000  0.0000  0.2900  0.0000  0.0000 -0.4133  0.0000
  54.  C 4 (d3)     0.0000  0.0000  0.0000  0.5318  0.0000  0.0000 -0.3920  0.0000
  55.  C 4 (d4)     0.0459 -0.1375 -0.0215  0.0000 -0.4068 -0.2624  0.0000 -0.0359
  56.  C 4 (d1)    -0.2996  0.4981  0.0394  0.0000  0.4117 -0.1564  0.0000 -0.0278
  57.  H 5 (s)     -0.0878 -0.0148  0.3402  0.0000 -0.1193  0.0997  0.0000  0.1437
  58.  H 5 (s)      0.0817  0.2286  0.3672  0.0000  0.0077 -0.0019  0.0000 -0.0118
  59.  H 6 (s)      0.0878 -0.0148 -0.3402  0.0000  0.1193  0.0997  0.0000  0.1437
  60.  H 6 (s)     -0.0817  0.2286 -0.3672  0.0000 -0.0077 -0.0019  0.0000 -0.0118
  61.  H 7 (s)      0.0711  0.0443  0.2278  0.0317 -0.0100  0.1320  0.1651 -0.1018
  62.  H 7 (s)      0.0290 -0.0929  0.0637  0.2073  0.1416 -0.0032  0.1166 -0.0078
  63.  H 8 (s)      0.0711  0.0443  0.2278 -0.0317 -0.0100  0.1320 -0.1651 -0.1018
  64.  H 8 (s)      0.0290 -0.0929  0.0637 -0.2073  0.1416 -0.0032 -0.1166 -0.0078
  65.  H 9 (s)     -0.0711  0.0443 -0.2278 -0.0317  0.0100  0.1320  0.1651 -0.1018
  66.  H 9 (s)     -0.0290 -0.0929 -0.0637 -0.2073 -0.1416 -0.0032  0.1166 -0.0078
  67.  H10 (s)     -0.0711  0.0443 -0.2278  0.0317  0.0100  0.1320 -0.1651 -0.1018
  68.  H10 (s)     -0.0290 -0.0929 -0.0637  0.2073 -0.1416 -0.0032 -0.1166 -0.0078
  69.  H11 (s)     -0.2183 -0.0665 -0.4763  0.3654 -0.1692  0.0604  0.2827 -0.2935
  70.  H11 (s)     -0.0790  0.0818 -0.2772  0.4214  0.0834  0.0140  0.1058 -0.0337
  71.  H12 (s)     -0.2183 -0.0665 -0.4763 -0.3654 -0.1692  0.0604 -0.2827 -0.2935
  72.  H12 (s)     -0.0790  0.0818 -0.2772 -0.4214  0.0834  0.0140 -0.1058 -0.0337
  73.  H13 (s)      0.2183 -0.0665  0.4763 -0.3654  0.1692  0.0604  0.2827 -0.2935
  74.  H13 (s)      0.0790  0.0818  0.2772 -0.4214 -0.0834  0.0140  0.1058 -0.0337
  75.  H14 (s)      0.2183 -0.0665  0.4763  0.3654  0.1692  0.0604 -0.2827 -0.2935
  76.  H14 (s)      0.0790  0.0818  0.2772  0.4214 -0.0834  0.0140 -0.1058 -0.0337

           AO         65      66      67      68      69      70      71      72
      ------------ ------- ------- ------- ------- ------- ------- ------- -------
   1.  C 1 (s)      0.0213  0.0000  0.0001  0.0000  0.0000 -0.0064  0.0000  0.0000
   2.  C 1 (s)     -0.0958  0.0000  0.0604  0.0000  0.0000 -0.0447  0.0000  0.0000
   3.  C 1 (px)     0.0221  0.0000  0.0800  0.0000  0.0000 -0.0908  0.0000  0.0000
   4.  C 1 (py)     0.1240  0.0000 -0.0217  0.0000  0.0000 -0.0267  0.0000  0.0000
   5.  C 1 (pz)     0.0000 -0.0607  0.0000 -0.0337 -0.1013  0.0000  0.0874  0.0116
   6.  C 1 (s)     -0.4374  0.0000  0.0291  0.0000  0.0000  0.2576  0.0000  0.0000
   7.  C 1 (px)     0.3935  0.0000  0.4369  0.0000  0.0000 -0.3038  0.0000  0.0000
   8.  C 1 (py)    -0.0396  0.0000  0.1785  0.0000  0.0000 -0.1715  0.0000  0.0000
   9.  C 1 (pz)     0.0000 -0.4008  0.0000 -0.2996 -0.2561  0.0000 -0.0082  0.1113
  10.  C 1 (d5)    -0.4777  0.0000 -0.3585  0.0000  0.0000  0.4519  0.0000  0.0000
  11.  C 1 (d2)     0.0000  0.5013  0.0000  0.2865  0.5830  0.0000 -0.4054 -0.2156
  12.  C 1 (d3)     0.0000  0.0861  0.0000 -0.4293 -0.3274  0.0000  0.3322  0.4378
  13.  C 1 (d4)    -0.2105  0.0000  0.5323  0.0000  0.0000 -0.4059  0.0000  0.0000
  14.  C 1 (d1)    -0.2051  0.0000  0.0333  0.0000  0.0000 -0.5122  0.0000  0.0000
  15.  C 2 (s)     -0.0042  0.0000 -0.0206  0.0000  0.0000  0.0102  0.0000  0.0000
  16.  C 2 (s)     -0.4232  0.0000  0.2231  0.0000  0.0000  0.0886  0.0000  0.0000
  17.  C 2 (px)    -0.0039  0.0000 -0.0310  0.0000  0.0000 -0.0454  0.0000  0.0000
  18.  C 2 (py)    -0.2496  0.0000  0.1254  0.0000  0.0000 -0.0750  0.0000  0.0000
  19.  C 2 (pz)     0.0000 -0.0356  0.0000 -0.0021 -0.1056  0.0000  0.0387 -0.0655
  20.  C 2 (s)      1.1553  0.0000 -0.1325  0.0000  0.0000 -0.5290  0.0000  0.0000
  21.  C 2 (px)    -0.7229  0.0000 -0.1419  0.0000  0.0000  0.0858  0.0000  0.0000
  22.  C 2 (py)     0.2201  0.0000 -0.0656  0.0000  0.0000 -0.0849  0.0000  0.0000
  23.  C 2 (pz)     0.0000  0.0815  0.0000  0.5639 -0.0631  0.0000  0.1898 -0.1011
  24.  C 2 (d5)    -0.3846  0.0000  0.0873  0.0000  0.0000 -0.0892  0.0000  0.0000
  25.  C 2 (d2)     0.0000  0.2837  0.0000  0.4142 -0.3690  0.0000  0.6506 -0.3821
  26.  C 2 (d3)     0.0000  0.5154  0.0000 -0.4673  0.2176  0.0000  0.0463  0.5706
  27.  C 2 (d4)    -0.1140  0.0000  0.0374  0.0000  0.0000  0.0810  0.0000  0.0000
  28.  C 2 (d1)    -0.1584  0.0000 -0.4014  0.0000  0.0000 -0.1041  0.0000  0.0000
  29.  C 3 (s)      0.0042  0.0000 -0.0206  0.0000  0.0000 -0.0102  0.0000  0.0000
  30.  C 3 (s)      0.4232  0.0000  0.2231  0.0000  0.0000 -0.0886  0.0000  0.0000
  31.  C 3 (px)    -0.0039  0.0000  0.0310  0.0000  0.0000 -0.0454  0.0000  0.0000
  32.  C 3 (py)    -0.2496  0.0000 -0.1254  0.0000  0.0000 -0.0750  0.0000  0.0000
  33.  C 3 (pz)     0.0000  0.0356  0.0000  0.0021 -0.1056  0.0000 -0.0387 -0.0655
  34.  C 3 (s)     -1.1553  0.0000 -0.1325  0.0000  0.0000  0.5290  0.0000  0.0000
  35.  C 3 (px)    -0.7229  0.0000  0.1419  0.0000  0.0000  0.0858  0.0000  0.0000
  36.  C 3 (py)     0.2201  0.0000  0.0656  0.0000  0.0000 -0.0849  0.0000  0.0000
  37.  C 3 (pz)     0.0000 -0.0815  0.0000 -0.5639 -0.0631  0.0000 -0.1898 -0.1011
  38.  C 3 (d5)     0.3846  0.0000  0.0873  0.0000  0.0000  0.0892  0.0000  0.0000
  39.  C 3 (d2)     0.0000  0.2837  0.0000  0.4142  0.3690  0.0000  0.6506  0.3821
  40.  C 3 (d3)     0.0000  0.5154  0.0000 -0.4673 -0.2176  0.0000  0.0463 -0.5706
  41.  C 3 (d4)     0.1140  0.0000  0.0374  0.0000  0.0000 -0.0810  0.0000  0.0000
[...]
  40. (0.00345) RY ( 1) C  2            s(  0.00%)p 1.00( 89.36%)d 0.12( 10.64%)
                                         0.0000  0.0000  0.0000  0.0000  0.0000
                                         0.0000  0.0000  0.0379  0.9445  0.0000
                                        -0.2672  0.1870  0.0000  0.0000
  41. (0.00271) RY ( 2) C  2            s( 10.63%)p 7.90( 83.99%)d 0.51(  5.39%)
                                         0.0000  0.0031  0.3260  0.0118  0.0242
                                        -0.0061 -0.9160  0.0000  0.0000  0.1005
                                         0.0000  0.0000 -0.1945 -0.0771
  42. (0.00094) RY ( 3) C  2            s(  9.32%)p 7.39( 68.94%)d 2.33( 21.74%)
                                         0.0000 -0.0110  0.3051  0.0137  0.8119
                                        -0.0143  0.1728  0.0000  0.0000  0.4261
                                         0.0000  0.0000  0.0870 -0.1682
  43. (0.00019) RY ( 4) C  2            s( 52.82%)p 0.02(  1.29%)d 0.87( 45.89%)
                                         0.0000 -0.0017  0.7268 -0.0095  0.0060
                                         0.0062  0.1129  0.0000  0.0000 -0.4898
                                         0.0000  0.0000  0.2866  0.3700
  44. (0.00012) RY ( 5) C  2            s(  0.00%)p 1.00(  0.02%)d99.99( 99.98%)
                                         0.0000  0.0000  0.0000  0.0000  0.0000
                                         0.0000  0.0000  0.0011 -0.0131  0.0000
                                         0.5420  0.8403  0.0000  0.0000
  45. (0.00004) RY ( 6) C  2            s(  0.24%)p55.10( 13.04%)d99.99( 86.73%)
  46. (0.00001) RY ( 7) C  2            s( 25.30%)p 1.29( 32.52%)d 1.67( 42.18%)
  47. (0.00000) RY ( 8) C  2            s(  0.00%)p 1.00( 10.85%)d 8.22( 89.15%)
  48. (0.00000) RY ( 9) C  2            s(  1.65%)p 0.41(  0.69%)d59.03( 97.66%)
  49. (0.00345) RY ( 1) C  3            s(  0.00%)p 1.00( 89.36%)d 0.12( 10.64%)
                                         0.0000  0.0000  0.0000  0.0000  0.0000
                                         0.0000  0.0000  0.0379  0.9445  0.0000
                                         0.2672 -0.1870  0.0000  0.0000
  50. (0.00271) RY ( 2) C  3            s( 10.63%)p 7.90( 83.99%)d 0.51(  5.39%)
                                         0.0000  0.0031  0.3260 -0.0118 -0.0242
                                         0.0061  0.9160  0.0000  0.0000  0.1005
                                         0.0000  0.0000 -0.1945 -0.0771
  51. (0.00094) RY ( 3) C  3            s(  9.32%)p 7.39( 68.94%)d 2.33( 21.74%)
                                         0.0000 -0.0110  0.3051 -0.0137 -0.8119
                                         0.0143 -0.1728  0.0000  0.0000  0.4261
                                         0.0000  0.0000  0.0870 -0.1682
  52. (0.00019) RY ( 4) C  3            s( 52.82%)p 0.02(  1.29%)d 0.87( 45.89%)
                                         0.0000 -0.0017  0.7268  0.0095 -0.0060
                                        -0.0062 -0.1129  0.0000  0.0000 -0.4898
                                         0.0000  0.0000  0.2866  0.3700
  53. (0.00012) RY ( 5) C  3            s(  0.00%)p 1.00(  0.02%)d99.99( 99.98%)
                                         0.0000  0.0000  0.0000  0.0000  0.0000
                                         0.0000  0.0000 -0.0011  0.0131  0.0000
                                         0.5420  0.8403  0.0000  0.0000
  54. (0.00004) RY ( 6) C  3            s(  0.24%)p55.10( 13.04%)d99.99( 86.73%)
  55. (0.00001) RY ( 7) C  3            s( 25.30%)p 1.29( 32.52%)d 1.67( 42.18%)
  56. (0.00000) RY ( 8) C  3            s(  0.00%)p 1.00( 10.85%)d 8.22( 89.15%)
  57. (0.00000) RY ( 9) C  3            s(  1.65%)p 0.41(  0.69%)d59.03( 97.66%)
  58. (0.00265) RY ( 1) C  4            s(  2.31%)p39.38( 91.05%)d 2.87(  6.64%)
                                         0.0000  0.0095  0.1518  0.0264  0.9353
                                         0.0023  0.1873  0.0000  0.0000  0.2344
                                         0.0000  0.0000  0.0493 -0.0949
  59. (0.00166) RY ( 2) C  4            s(  0.00%)p 1.00( 86.87%)d 0.15( 13.13%)
                                         0.0000  0.0000  0.0000  0.0000  0.0000
                                         0.0000  0.0000  0.0239  0.9317  0.0000
                                        -0.1884  0.3096  0.0000  0.0000
  60. (0.00021) RY ( 3) C  4            s( 83.09%)p 0.03(  2.42%)d 0.17( 14.49%)
                                         0.0000  0.0001  0.9115 -0.0099 -0.0892
                                        -0.0071  0.1270  0.0000  0.0000 -0.3008
                                         0.0000  0.0000  0.1621  0.1678
  61. (0.00006) RY ( 4) C  4            s(  1.87%)p52.16( 97.41%)d 0.39(  0.72%)
  62. (0.00001) RY ( 5) C  4            s(  0.00%)p 1.00(  4.53%)d21.08( 95.47%)
  63. (0.00001) RY ( 6) C  4            s( 11.94%)p 0.64(  7.63%)d 6.74( 80.43%)
  64. (0.00000) RY ( 7) C  4            s(  0.00%)p 1.00(  0.68%)d99.99( 99.32%)
  65. (0.00000) RY ( 8) C  4            s(  0.00%)p 1.00(  8.83%)d10.33( 91.17%)
  66. (0.00000) RY ( 9) C  4            s(  0.80%)p 1.53(  1.22%)d99.99( 97.98%)
  67. (0.00086) RY ( 1) H  5            s(100.00%)
                                        -0.0001  1.0000
  68. (0.00086) RY ( 1) H  6            s(100.00%)
                                        -0.0001  1.0000
  69. (0.00117) RY ( 1) H  7            s(100.00%)
                                        -0.0008  1.0000
  70. (0.00117) RY ( 1) H  8            s(100.00%)
                                        -0.0008  1.0000
  71. (0.00117) RY ( 1) H  9            s(100.00%)
                                        -0.0008  1.0000
  72. (0.00117) RY ( 1) H 10            s(100.00%)
                                        -0.0008  1.0000
  73. (0.00178) RY ( 1) H 11            s(100.00%)
                                        -0.0022  1.0000
  74. (0.00178) RY ( 1) H 12            s(100.00%)
                                        -0.0022  1.0000
  75. (0.00178) RY ( 1) H 13            s(100.00%)
                                        -0.0022  1.0000
  76. (0.00178) RY ( 1) H 14            s(100.00%)
                                        -0.0022  1.0000


 NHO DIRECTIONALITY AND BOND BENDING (deviation from line of nuclear centers at
                                      the position of maximum hybrid amplitude)

         [Thresholds for printing:  angular deviation  >  1.0 degree]
                                    p- or d-character  > 25.0%
                                    orbital occupancy  >  0.10e

                        Line of Centers        Hybrid 1             Hybrid 2
                        ---------------  -------------------  ------------------
           NBO            Theta   Phi    Theta   Phi    Dev   Theta   Phi    Dev
 ===============================================================================
    None exceeding thresholds


 SECOND ORDER PERTURBATION THEORY ANALYSIS OF FOCK MATRIX IN NBO BASIS

     Threshold for printing:   0.50 kcal/mol
                                                          E(2) E(NL)-E(L) F(L,NL)
      Donor (L) NBO              Acceptor (NL) NBO      kcal/mol   a.u.    a.u.
 ===============================================================================

 within unit  1
    5. BD ( 1) C  1- C  2      19. BD*( 1) C  1- H  5      0.60    1.43   0.026
    5. BD ( 1) C  1- C  2      20. BD*( 1) C  1- H  7      0.52    1.42   0.024
    5. BD ( 1) C  1- C  2      21. BD*( 1) C  1- H  8      0.52    1.42   0.024
    5. BD ( 1) C  1- C  2      22. BD*( 1) C  2- C  3      0.69    1.37   0.027
    5. BD ( 1) C  1- C  2      23. BD*( 1) C  2- H 11      0.56    1.42   0.025
    5. BD ( 1) C  1- C  2      24. BD*( 1) C  2- H 12      0.56    1.42   0.025
    5. BD ( 1) C  1- C  2      25. BD*( 1) C  3- C  4      2.45    1.37   0.052
    5. BD ( 1) C  1- C  2      50. RY ( 2) C  3            2.05    1.82   0.054
    5. BD ( 1) C  1- C  2      73. RY ( 1) H 11            0.61    1.55   0.028
    5. BD ( 1) C  1- C  2      74. RY ( 1) H 12            0.61    1.55   0.028
    6. BD ( 1) C  1- H  5      22. BD*( 1) C  2- C  3      3.64    1.30   0.061
    6. BD ( 1) C  1- H  5      42. RY ( 3) C  2            0.92    1.92   0.037
    7. BD ( 1) C  1- H  7      23. BD*( 1) C  2- H 11      3.41    1.36   0.061
    7. BD ( 1) C  1- H  7      40. RY ( 1) C  2            0.93    1.90   0.038
    8. BD ( 1) C  1- H  8      24. BD*( 1) C  2- H 12      3.41    1.36   0.061
    8. BD ( 1) C  1- H  8      40. RY ( 1) C  2            0.93    1.90   0.038
    9. BD ( 1) C  2- C  3      18. BD*( 1) C  1- C  2      0.62    1.37   0.026
    9. BD ( 1) C  2- C  3      19. BD*( 1) C  1- H  5      1.83    1.43   0.046
    9. BD ( 1) C  2- C  3      23. BD*( 1) C  2- H 11      0.55    1.42   0.025
    9. BD ( 1) C  2- C  3      24. BD*( 1) C  2- H 12      0.55    1.42   0.025
    9. BD ( 1) C  2- C  3      25. BD*( 1) C  3- C  4      0.62    1.37   0.026
    9. BD ( 1) C  2- C  3      26. BD*( 1) C  3- H 13      0.55    1.42   0.025
    9. BD ( 1) C  2- C  3      27. BD*( 1) C  3- H 14      0.55    1.42   0.025
    9. BD ( 1) C  2- C  3      28. BD*( 1) C  4- H  6      1.83    1.43   0.046
    9. BD ( 1) C  2- C  3      31. RY ( 1) C  1            1.94    1.79   0.053
    9. BD ( 1) C  2- C  3      58. RY ( 1) C  4            1.94    1.79   0.053
    9. BD ( 1) C  2- C  3      73. RY ( 1) H 11            0.55    1.55   0.026
    9. BD ( 1) C  2- C  3      74. RY ( 1) H 12            0.55    1.55   0.026
    9. BD ( 1) C  2- C  3      75. RY ( 1) H 13            0.55    1.55   0.026
    9. BD ( 1) C  2- C  3      76. RY ( 1) H 14            0.55    1.55   0.026
   10. BD ( 1) C  2- H 11      20. BD*( 1) C  1- H  7      3.55    1.35   0.062
   10. BD ( 1) C  2- H 11      27. BD*( 1) C  3- H 14      3.63    1.35   0.062
   10. BD ( 1) C  2- H 11      32. RY ( 2) C  1            0.93    1.74   0.036
   10. BD ( 1) C  2- H 11      49. RY ( 1) C  3            0.97    1.89   0.038
   11. BD ( 1) C  2- H 12      21. BD*( 1) C  1- H  8      3.55    1.35   0.062
   11. BD ( 1) C  2- H 12      26. BD*( 1) C  3- H 13      3.63    1.35   0.062
   11. BD ( 1) C  2- H 12      32. RY ( 2) C  1            0.93    1.74   0.036
   11. BD ( 1) C  2- H 12      49. RY ( 1) C  3            0.97    1.89   0.038
   12. BD ( 1) C  3- C  4      18. BD*( 1) C  1- C  2      2.45    1.37   0.052
   12. BD ( 1) C  3- C  4      22. BD*( 1) C  2- C  3      0.69    1.37   0.027
   12. BD ( 1) C  3- C  4      26. BD*( 1) C  3- H 13      0.56    1.42   0.025
   12. BD ( 1) C  3- C  4      27. BD*( 1) C  3- H 14      0.56    1.42   0.025
   12. BD ( 1) C  3- C  4      28. BD*( 1) C  4- H  6      0.60    1.43   0.026
   12. BD ( 1) C  3- C  4      29. BD*( 1) C  4- H  9      0.52    1.42   0.024
   12. BD ( 1) C  3- C  4      30. BD*( 1) C  4- H 10      0.52    1.42   0.024
   12. BD ( 1) C  3- C  4      41. RY ( 2) C  2            2.05    1.82   0.054
   12. BD ( 1) C  3- C  4      75. RY ( 1) H 13            0.61    1.55   0.028
   12. BD ( 1) C  3- C  4      76. RY ( 1) H 14            0.61    1.55   0.028
   13. BD ( 1) C  3- H 13      24. BD*( 1) C  2- H 12      3.63    1.35   0.062
   13. BD ( 1) C  3- H 13      29. BD*( 1) C  4- H  9      3.55    1.35   0.062
   13. BD ( 1) C  3- H 13      40. RY ( 1) C  2            0.97    1.89   0.038
   13. BD ( 1) C  3- H 13      59. RY ( 2) C  4            0.93    1.74   0.036
   14. BD ( 1) C  3- H 14      23. BD*( 1) C  2- H 11      3.63    1.35   0.062
   14. BD ( 1) C  3- H 14      30. BD*( 1) C  4- H 10      3.55    1.35   0.062
   14. BD ( 1) C  3- H 14      40. RY ( 1) C  2            0.97    1.89   0.038
   14. BD ( 1) C  3- H 14      59. RY ( 2) C  4            0.93    1.74   0.036
   15. BD ( 1) C  4- H  6      22. BD*( 1) C  2- C  3      3.64    1.30   0.061
   15. BD ( 1) C  4- H  6      51. RY ( 3) C  3            0.92    1.92   0.037
   16. BD ( 1) C  4- H  9      26. BD*( 1) C  3- H 13      3.41    1.36   0.061
   16. BD ( 1) C  4- H  9      49. RY ( 1) C  3            0.93    1.90   0.038
   17. BD ( 1) C  4- H 10      27. BD*( 1) C  3- H 14      3.41    1.36   0.061
   17. BD ( 1) C  4- H 10      49. RY ( 1) C  3            0.93    1.90   0.038


 NATURAL BOND ORBITALS (Summary):

                                                     Principal Delocalizations
           NBO                 Occupancy    Energy   (geminal,vicinal,remote)
 ===============================================================================
 Molecular unit  1  (C4H10)
 ------ Lewis --------------------------------------
    1. CR ( 1) C  1             1.99999   -11.20672
    2. CR ( 1) C  2             1.99999   -11.21251
    3. CR ( 1) C  3             1.99999   -11.21251
    4. CR ( 1) C  4             1.99999   -11.20672
    5. BD ( 1) C  1- C  2       1.99092    -0.69747  25(v),50(v),22(g),73(v)
                                                     74(v),19(g),23(g),24(g)
                                                     20(g),21(g)
    6. BD ( 1) C  1- H  5       1.99182    -0.63086  22(v),42(v)
    7. BD ( 1) C  1- H  7       1.99193    -0.63028  23(v),40(v)
    8. BD ( 1) C  1- H  8       1.99193    -0.63028  24(v),40(v)
    9. BD ( 1) C  2- C  3       1.98651    -0.69393  31(v),58(v),19(v),28(v)
                                                     18(g),25(g),23(g),24(g)
                                                     26(g),27(g),73(v),74(v)
                                                     75(v),76(v)
   10. BD ( 1) C  2- H 11       1.98383    -0.62116  27(v),20(v),49(v),32(v)
   11. BD ( 1) C  2- H 12       1.98383    -0.62116  26(v),21(v),49(v),32(v)
   12. BD ( 1) C  3- C  4       1.99092    -0.69747  18(v),41(v),22(g),75(v)
                                                     76(v),28(g),26(g),27(g)
                                                     29(g),30(g)
   13. BD ( 1) C  3- H 13       1.98383    -0.62116  24(v),29(v),40(v),59(v)
   14. BD ( 1) C  3- H 14       1.98383    -0.62116  23(v),30(v),40(v),59(v)
   15. BD ( 1) C  4- H  6       1.99182    -0.63086  22(v),51(v)
   16. BD ( 1) C  4- H  9       1.99193    -0.63028  26(v),49(v)
   17. BD ( 1) C  4- H 10       1.99193    -0.63028  27(v),49(v)
 ------ non-Lewis ----------------------------------
   18. BD*( 1) C  1- C  2       0.00524     0.67273
   19. BD*( 1) C  1- H  5       0.00396     0.73466
   20. BD*( 1) C  1- H  7       0.00657     0.72597
   21. BD*( 1) C  1- H  8       0.00657     0.72597
   22. BD*( 1) C  2- C  3       0.01239     0.67070
   23. BD*( 1) C  2- H 11       0.01258     0.72741
   24. BD*( 1) C  2- H 12       0.01258     0.72741
   25. BD*( 1) C  3- C  4       0.00524     0.67273
   26. BD*( 1) C  3- H 13       0.01258     0.72741
   27. BD*( 1) C  3- H 14       0.01258     0.72741
   28. BD*( 1) C  4- H  6       0.00396     0.73466
   29. BD*( 1) C  4- H  9       0.00657     0.72597
   30. BD*( 1) C  4- H 10       0.00657     0.72597
   31. RY ( 1) C  1             0.00265     1.09358
   32. RY ( 2) C  1             0.00166     1.12213
   33. RY ( 3) C  1             0.00021     1.64122
   34. RY ( 4) C  1             0.00006     0.77081
   35. RY ( 5) C  1             0.00001     2.10716
   36. RY ( 6) C  1             0.00001     2.13582
   37. RY ( 7) C  1             0.00000     2.21779
   38. RY ( 8) C  1             0.00000     2.25930
   39. RY ( 9) C  1             0.00000     2.49075
   40. RY ( 1) C  2             0.00345     1.27339
   41. RY ( 2) C  2             0.00271     1.11964
   42. RY ( 3) C  2             0.00094     1.28948
   43. RY ( 4) C  2             0.00019     2.06518
   44. RY ( 5) C  2             0.00012     2.17014
   45. RY ( 6) C  2             0.00004     2.32212
   46. RY ( 7) C  2             0.00001     1.65479
   47. RY ( 8) C  2             0.00000     2.27537
   48. RY ( 9) C  2             0.00000     2.20659
   49. RY ( 1) C  3             0.00345     1.27339
   50. RY ( 2) C  3             0.00271     1.11964
   51. RY ( 3) C  3             0.00094     1.28948
   52. RY ( 4) C  3             0.00019     2.06518
   53. RY ( 5) C  3             0.00012     2.17014
   54. RY ( 6) C  3             0.00004     2.32212
   55. RY ( 7) C  3             0.00001     1.65479
   56. RY ( 8) C  3             0.00000     2.27537
   57. RY ( 9) C  3             0.00000     2.20659
   58. RY ( 1) C  4             0.00265     1.09358
   59. RY ( 2) C  4             0.00166     1.12213
   60. RY ( 3) C  4             0.00021     1.64122
   61. RY ( 4) C  4             0.00006     0.77081
   62. RY ( 5) C  4             0.00001     2.10716
   63. RY ( 6) C  4             0.00001     2.13582
   64. RY ( 7) C  4             0.00000     2.21779
   65. RY ( 8) C  4             0.00000     2.25930
   66. RY ( 9) C  4             0.00000     2.49075
   67. RY ( 1) H  5             0.00086     0.83126
   68. RY ( 1) H  6             0.00086     0.83126
   69. RY ( 1) H  7             0.00117     0.84808
   70. RY ( 1) H  8             0.00117     0.84808
   71. RY ( 1) H  9             0.00117     0.84808
   72. RY ( 1) H 10             0.00117     0.84808
   73. RY ( 1) H 11             0.00178     0.85175
   74. RY ( 1) H 12             0.00178     0.85175
   75. RY ( 1) H 13             0.00178     0.85175
   76. RY ( 1) H 14             0.00178     0.85175
          -------------------------------
                 Total Lewis   33.85499  ( 99.5735%)
           Valence non-Lewis    0.10737  (  0.3158%)
           Rydberg non-Lewis    0.03764  (  0.1107%)
          -------------------------------
               Total unit  1   34.00000  (100.0000%)
              Charge unit  1    0.00000

 $CHOOSE
   BOND S 1 2 S 1 5 S 1 7 S 1 8 S 2 3 S 2 11 S 2 12 S 3 4 S 3 13 S 3 14 S 4 6
        S 4 9 S 4 10 END
 $END

 NBO analysis completed in 1.25 CPU seconds (2 wall seconds)
 Maximum scratch memory used by NBO was 361971 words (2.76 MB)
 Maximum scratch memory used by G16NBO was 17476 words (0.13 MB)

 Opening RunExU unformatted file "/cluster/work/users/beto93/mol89/Gau-2110192.EUF"
 Read unf file /cluster/work/users/beto93/mol89/Gau-2110192.EUF:
 Label Gaussian matrix elements                                         IVers= 2 NLab= 2 Version=ES64L-G16RevC.01
 Title mol89-NBO                                                       
 NAtoms=    14 NBasis=    76 NBsUse=    76 ICharg=     0 Multip=     1 NE=    34 Len12L=8 Len4L=8 IOpCl= 0 ICGU=111
 GAUSSIAN SCALARS                    NI= 1 NR= 1 NTot=       1 LenBuf=    2 NRI=1 N=    1000
 NPA CHARGES                         NI= 0 NR= 1 NTot=      14 LenBuf= 4000 NRI=1 N=      14
 Recovered energy= -157.297068841     dipole=      0.000000000000     -0.000000000000      0.000000000000
 Unable to Open any file for archive entry.
 1\1\GINC-C1-49\SP\RHF\6-31G(d)\C4H10\BETO93\18-Nov-2024\0\\#RHF/6-31G*
  int=nobasistransform Symmetry=None 5D 7F Pop=NBO7Read\\mol89-NBO\\0,1
 \C,0,0.702581,1.820873,0.\C,0,0.702581,0.296325,0.\C,0,-0.702581,-0.29
 6325,0.\C,0,-0.702581,-1.820873,0.\H,0,1.719809,2.22234,0.\H,0,-1.7198
 09,-2.22234,0.\H,0,0.188154,2.210362,0.883614\H,0,0.188154,2.210362,-0
 .883614\H,0,-0.188154,-2.210362,0.883614\H,0,-0.188154,-2.210362,-0.88
 3614\H,0,1.247707,-0.07266,-0.877569\H,0,1.247707,-0.07266,0.877569\H,
 0,-1.247707,0.07266,-0.877569\H,0,-1.247707,0.07266,0.877569\\Version=
 ES64L-G16RevC.01\HF=-157.2970688\RMSD=6.376e-09\Dipole=0.,0.,0.\Quadru
 pole=0.1008975,-0.5785224,0.4776249,-0.056376,0.,0.\PG=Unknown\\@
 The archive entry for this job was punched.


 HE WHO LAUGHS LAST PROBABLY DIDN'T GET THE JOKE.
 Job cpu time:       0 days  0 hours  0 minutes 12.2 seconds.
 Elapsed time:       0 days  0 hours  0 minutes  3.9 seconds.
 File lengths (MBytes):  RWF=     15 Int=      0 D2E=      0 Chk=      2 Scr=      1
 Normal termination of Gaussian 16 at Mon Nov 18 16:40:43 2024.
