 Entering Gaussian System, Link 0=g16
 Initial command:
 /cluster/software/Gaussian/g16_C.01/l1.exe "/cluster/work/users/beto93/mol128/Gau-323222.inp" -scrdir="/cluster/work/users/beto93/mol128/"
 Entering Link 1 = /cluster/software/Gaussian/g16_C.01/l1.exe PID=    323232.
  
 Copyright (c) 1988-2019, Gaussian, Inc.  All Rights Reserved.
  
 This is part of the Gaussian(R) 16 program.  It is based on
 the Gaussian(R) 09 system (copyright 2009, Gaussian, Inc.),
 the Gaussian(R) 03 system (copyright 2003, Gaussian, Inc.),
 the Gaussian(R) 98 system (copyright 1998, Gaussian, Inc.),
 the Gaussian(R) 94 system (copyright 1995, Gaussian, Inc.),
 the Gaussian 92(TM) system (copyright 1992, Gaussian, Inc.),
 the Gaussian 90(TM) system (copyright 1990, Gaussian, Inc.),
 the Gaussian 88(TM) system (copyright 1988, Gaussian, Inc.),
 the Gaussian 86(TM) system (copyright 1986, Carnegie Mellon
 University), and the Gaussian 82(TM) system (copyright 1983,
 Carnegie Mellon University). Gaussian is a federally registered
 trademark of Gaussian, Inc.
  
 This software contains proprietary and confidential information,
 including trade secrets, belonging to Gaussian, Inc.
  
 This software is provided under written license and may be
 used, copied, transmitted, or stored only in accord with that
 written license.
  
 The following legend is applicable only to US Government
 contracts under FAR:
  
                    RESTRICTED RIGHTS LEGEND
  
 Use, reproduction and disclosure by the US Government is
 subject to restrictions as set forth in subparagraphs (a)
 and (c) of the Commercial Computer Software - Restricted
 Rights clause in FAR 52.227-19.
  
 Gaussian, Inc.
 340 Quinnipiac St., Bldg. 40, Wallingford CT 06492
  
  
 ---------------------------------------------------------------
 Warning -- This program may not be used in any manner that
 competes with the business of Gaussian, Inc. or will provide
 assistance to any competitor of Gaussian, Inc.  The licensee
 of this program is prohibited from giving any competitor of
 Gaussian, Inc. access to this program.  By using this program,
 the user acknowledges that Gaussian, Inc. is engaged in the
 business of creating and licensing software in the field of
 computational chemistry and represents and warrants to the
 licensee that it is not a competitor of Gaussian, Inc. and that
 it will not use this program in any manner prohibited above.
 ---------------------------------------------------------------
  

 Cite this work as:
 Gaussian 16, Revision C.01,
 M. J. Frisch, G. W. Trucks, H. B. Schlegel, G. E. Scuseria, 
 M. A. Robb, J. R. Cheeseman, G. Scalmani, V. Barone, 
 G. A. Petersson, H. Nakatsuji, X. Li, M. Caricato, A. V. Marenich, 
 J. Bloino, B. G. Janesko, R. Gomperts, B. Mennucci, H. P. Hratchian, 
 J. V. Ortiz, A. F. Izmaylov, J. L. Sonnenberg, D. Williams-Young, 
 F. Ding, F. Lipparini, F. Egidi, J. Goings, B. Peng, A. Petrone, 
 T. Henderson, D. Ranasinghe, V. G. Zakrzewski, J. Gao, N. Rega, 
 G. Zheng, W. Liang, M. Hada, M. Ehara, K. Toyota, R. Fukuda, 
 J. Hasegawa, M. Ishida, T. Nakajima, Y. Honda, O. Kitao, H. Nakai, 
 T. Vreven, K. Throssell, J. A. Montgomery, Jr., J. E. Peralta, 
 F. Ogliaro, M. J. Bearpark, J. J. Heyd, E. N. Brothers, K. N. Kudin, 
 V. N. Staroverov, T. A. Keith, R. Kobayashi, J. Normand, 
 K. Raghavachari, A. P. Rendell, J. C. Burant, S. S. Iyengar, 
 J. Tomasi, M. Cossi, J. M. Millam, M. Klene, C. Adamo, R. Cammi, 
 J. W. Ochterski, R. L. Martin, K. Morokuma, O. Farkas, 
 J. B. Foresman, and D. J. Fox, Gaussian, Inc., Wallingford CT, 2019.
 
 ******************************************
 Gaussian 16:  ES64L-G16RevC.01  3-Jul-2019
                18-Nov-2024 
 ******************************************
 %LindaWorkers=c3-22-ib
 %NProcShared=4
 Will use up to    4 processors via shared memory.
 %mem=25GB
 %chk=mol128.chk
 SetLPE:    new flags="-opt 'Tsnet.Node.lindarsharg: ssh'  -nodelist 'c3-22-ib.saga' -env GAUSS_MDEF=3355443200 -env GAUSS_EXEDIR="/cluster/software/Gaussian/g16_C.01/bsd:/cluster/software/Gaussian/g16_C.01""
 Will use up to    1 processors via Linda.
 -----------------------------------------------------------------
 #RHF/STO-3G int=nobasistransform Symmetry=None 5D 7F Pop=NBO7Read
 -----------------------------------------------------------------
 1/38=1,163=2,172=1/1;
 2/12=2,15=3,17=6,18=5,40=1/2;
 3/6=3,8=11,11=1,25=1,30=1,60=-1,116=1/1,2,3;
 4//1;
 5/5=2,38=5/2;
 6/7=2,8=2,9=2,10=2,28=1,40=2,113=1,114=1,124=2103/1,12;
 99/5=1,9=1/99;
 ----------
 mol128-NBO
 ----------
 Symbolic Z-matrix:
 Charge =  0 Multiplicity = 1
 O                     0.02719   1.36369  -0.16752 
 C                    -0.00093   0.03646   0.37013 
 H                     0.85947   1.77565   0.12131 
 H                     0.00737   0.08215   1.47051 
 C                    -1.31328  -0.56351  -0.08898 
 C                     1.20072  -0.76448  -0.10492 
 H                    -1.33401  -0.60725  -1.18101 
 H                     1.20284  -0.80782  -1.19719 
 H                    -2.14781   0.05499   0.24768 
 H                     2.13646  -0.29932   0.22316 
 H                    -1.43871  -1.57428   0.30834 
 H                     1.17774  -1.78444   0.28997 
 
                          Input orientation:                          
 ---------------------------------------------------------------------
 Center     Atomic      Atomic             Coordinates (Angstroms)
 Number     Number       Type             X           Y           Z
 ---------------------------------------------------------------------
      1          8           0        0.027191    1.363691   -0.167516
      2          6           0       -0.000926    0.036459    0.370128
      3          1           0        0.859465    1.775647    0.121307
      4          1           0        0.007371    0.082145    1.470506
      5          6           0       -1.313275   -0.563514   -0.088979
      6          6           0        1.200721   -0.764480   -0.104920
      7          1           0       -1.334005   -0.607253   -1.181009
      8          1           0        1.202843   -0.807817   -1.197189
      9          1           0       -2.147812    0.054993    0.247676
     10          1           0        2.136462   -0.299324    0.223164
     11          1           0       -1.438709   -1.574275    0.308340
     12          1           0        1.177736   -1.784436    0.289967
 ---------------------------------------------------------------------
                    Distance matrix (angstroms):
                    1          2          3          4          5
     1  O    0.000000
     2  C    1.432270   0.000000
     3  H    0.972526   1.956262   0.000000
     4  H    2.079872   1.101357   2.326876   0.000000
     5  C    2.348859   1.514268   3.199483   2.143123   0.000000
     6  C    2.431091   1.520240   2.572913   2.150076   2.522066
     7  H    2.600893   2.144176   3.490781   3.050425   1.093102
     8  H    2.675412   2.149033   2.920724   3.055779   2.760193
     9  H    2.572103   2.150455   3.467035   2.478077   1.091943
    10  H    2.714272   2.168589   2.438565   2.496880   3.473890
    11  H    3.317672   2.159977   4.066763   2.487067   1.093268
    12  H    3.382861   2.170559   3.578258   2.499510   2.799890
                    6          7          8          9         10
     6  C    0.000000
     7  H    2.758174   0.000000
     8  H    1.093130   2.544815   0.000000
     9  H    3.465333   1.772567   3.749529   0.000000
    10  H    1.095272   3.756416   1.774151   4.298970   0.000000
    11  H    2.791620   1.778835   3.135582   1.777926   3.796657
    12  H    1.093972   3.139805   1.779339   3.800600   1.768948
                   11         12
    11  H    0.000000
    12  H    2.624936   0.000000
 Symmetry turned off by external request.
 Stoichiometry    C3H8O
 Rotational constants (GHZ):           8.7184134           8.0868855           4.8043717
 Standard basis: STO-3G (5D, 7F)
    28 basis functions,    84 primitive gaussians,    28 cartesian basis functions
    17 alpha electrons       17 beta electrons
       nuclear repulsion energy       134.9642292841 Hartrees.
 NAtoms=   12 NActive=   12 NUniq=   12 SFac= 1.00D+00 NAtFMM=   60 NAOKFM=F Big=F
 Integral buffers will be    131072 words long.
 Raffenetti 1 integral format.
 Two-electron integral symmetry is turned off.
 One-electron integrals computed using PRISM.
 NBasis=    28 RedAO= T EigKep=  2.05D-01  NBF=    28
 NBsUse=    28 1.00D-06 EigRej= -1.00D+00 NBFU=    28
 ExpMin= 1.69D-01 ExpMax= 1.31D+02 ExpMxC= 1.31D+02 IAcc=3 IRadAn=         5 AccDes= 0.00D+00
 Harris functional with IExCor=  205 and IRadAn=       5 diagonalized for initial guess.
 HarFok:  IExCor=  205 AccDes= 0.00D+00 IRadAn=         5 IDoV= 1 UseB2=F ITyADJ=14
 ICtDFT=  3500011 ScaDFX=  1.000000  1.000000  1.000000  1.000000
 FoFCou: FMM=F IPFlag=           0 FMFlag=      100000 FMFlg1=           0
         NFxFlg=           0 DoJE=T BraDBF=F KetDBF=T FulRan=T
         wScrn=  0.000000 ICntrl=       500 IOpCl=  0 I1Cent=   200000004 NGrid=           0
         NMat0=    1 NMatS0=      1 NMatT0=    0 NMatD0=    1 NMtDS0=    0 NMtDT0=    0
 Symmetry not used in FoFCou.
 Keep R1 ints in memory in canonical form, NReq=901998.
 Requested convergence on RMS density matrix=1.00D-08 within 128 cycles.
 Requested convergence on MAX density matrix=1.00D-06.
 Requested convergence on             energy=1.00D-06.
 No special actions if energy rises.
 SCF Done:  E(RHF) =  -190.713686970     A.U. after   11 cycles
            NFock= 11  Conv=0.25D-08     -V/T= 2.0083

 **********************************************************************

            Population analysis using the SCF Density.

 **********************************************************************

 Alpha  occ. eigenvalues --  -20.24167 -11.09334 -11.04002 -11.03569  -1.27861
 Alpha  occ. eigenvalues --   -0.99890  -0.90128  -0.75203  -0.63043  -0.58010
 Alpha  occ. eigenvalues --   -0.55744  -0.51248  -0.49134  -0.47039  -0.45325
 Alpha  occ. eigenvalues --   -0.39416  -0.34500
 Alpha virt. eigenvalues --    0.54745   0.60801   0.64211   0.69763   0.70116
 Alpha virt. eigenvalues --    0.71787   0.75130   0.75771   0.76654   0.78731
 Alpha virt. eigenvalues --    0.80909
          Condensed to atoms (all electrons):
               1          2          3          4          5          6
     1  O    7.844722   0.266284   0.255627  -0.017057  -0.021698  -0.018454
     2  C    0.266284   4.709549  -0.040653   0.375061   0.363903   0.361421
     3  H    0.255627  -0.040653   0.612880  -0.002850   0.002857  -0.002818
     4  H   -0.017057   0.375061  -0.002850   0.660790  -0.025284  -0.028104
     5  C   -0.021698   0.363903   0.002857  -0.025284   4.737109  -0.025096
     6  C   -0.018454   0.361421  -0.002818  -0.028104  -0.025096   4.757967
     7  H   -0.000719  -0.022163   0.000032   0.001962   0.382764  -0.002637
     8  H   -0.000587  -0.022042  -0.000030   0.001951  -0.002579   0.382479
     9  H   -0.000884  -0.020825   0.000055  -0.002470   0.383845   0.001324
    10  H   -0.001020  -0.020798   0.000567  -0.002231   0.001283   0.381568
    11  H    0.000652  -0.019613  -0.000089  -0.001866   0.382332  -0.001716
    12  H    0.000573  -0.018324  -0.000005  -0.001609  -0.001686   0.381210
               7          8          9         10         11         12
     1  O   -0.000719  -0.000587  -0.000884  -0.001020   0.000652   0.000573
     2  C   -0.022163  -0.022042  -0.020825  -0.020798  -0.019613  -0.018324
     3  H    0.000032  -0.000030   0.000055   0.000567  -0.000089  -0.000005
     4  H    0.001962   0.001951  -0.002470  -0.002231  -0.001866  -0.001609
     5  C    0.382764  -0.002579   0.383845   0.001283   0.382332  -0.001686
     6  C   -0.002637   0.382479   0.001324   0.381568  -0.001716   0.381210
     7  H    0.617581   0.000349  -0.020924   0.000011  -0.020537   0.000041
     8  H    0.000349   0.618099   0.000010  -0.021442   0.000042  -0.020179
     9  H   -0.020924   0.000010   0.613452  -0.000039  -0.020508   0.000019
    10  H    0.000011  -0.021442  -0.000039   0.630059   0.000020  -0.021101
    11  H   -0.020537   0.000042  -0.020508   0.000020   0.623000  -0.000056
    12  H    0.000041  -0.020179   0.000019  -0.021101  -0.000056   0.619692
 Mulliken charges:
               1
     1  O   -0.307440
     2  C    0.088200
     3  H    0.174427
     4  H    0.041707
     5  C   -0.177750
     6  C   -0.187144
     7  H    0.064239
     8  H    0.063929
     9  H    0.066945
    10  H    0.053123
    11  H    0.058340
    12  H    0.061425
 Sum of Mulliken charges =  -0.00000
 Mulliken charges with hydrogens summed into heavy atoms:
               1
     1  O   -0.133013
     2  C    0.129907
     5  C    0.011773
     6  C   -0.008667
 Electronic spatial extent (au):  <R**2>=            313.1774
 Charge=             -0.0000 electrons
 Dipole moment (field-independent basis, Debye):
    X=              1.0069    Y=             -0.6705    Z=              0.7644  Tot=              1.4309
 Quadrupole moment (field-independent basis, Debye-Ang):
   XX=            -23.9828   YY=            -25.2721   ZZ=            -24.7423
   XY=              2.0287   XZ=              0.1687   YZ=              0.9763
 Traceless Quadrupole moment (field-independent basis, Debye-Ang):
   XX=              0.6829   YY=             -0.6064   ZZ=             -0.0765
   XY=              2.0287   XZ=              0.1687   YZ=              0.9763
 Octapole moment (field-independent basis, Debye-Ang**2):
  XXX=              1.0209  YYY=              7.3201  ZZZ=             -1.5734  XYY=              3.6106
  XXY=              5.2345  XXZ=              0.3909  XZZ=              0.1109  YZZ=              2.1815
  YYZ=              1.7895  XYZ=              0.2667
 Hexadecapole moment (field-independent basis, Debye-Ang**3):
 XXXX=           -184.6945 YYYY=           -132.8045 ZZZZ=            -45.6539 XXXY=              1.8783
 XXXZ=              0.0931 YYYX=              7.5389 YYYZ=             -1.1239 ZZZX=              0.1507
 ZZZY=             -0.0260 XXYY=            -52.0554 XXZZ=            -39.2876 YYZZ=            -31.6751
 XXYZ=             -0.1247 YYXZ=              0.3421 ZZXY=              0.3263
 N-N= 1.349642292841D+02 E-N=-7.169546198904D+02  KE= 1.891509833514D+02
 Running external command "gaunbo7 R"
         input file       "/cluster/work/users/beto93/mol128/Gau-323232.EIn"
         output file      "/cluster/work/users/beto93/mol128/Gau-323232.EOu"
         message file     "/cluster/work/users/beto93/mol128/Gau-323232.EMs"
         fchk file        "/cluster/work/users/beto93/mol128/Gau-323232.EFC"
         mat. el file     "/cluster/work/users/beto93/mol128/Gau-323232.EUF"

 Writing WrtUnf unformatted file "/cluster/work/users/beto93/mol128/Gau-323232.EUF"
 Gaussian matrix elements                                         Version   2 NLab=11 Len12L=8 Len4L=8
 Write SHELL TO ATOM MAP                   from file      0 offset           0 length                  16 to matrix element file.
 Write SHELL TYPES                         from file      0 offset           0 length                  16 to matrix element file.
 Write NUMBER OF PRIMITIVES PER SHELL      from file      0 offset           0 length                  16 to matrix element file.
 Write PRIMITIVE EXPONENTS                 from file      0 offset           0 length                  48 to matrix element file.
 Write CONTRACTION COEFFICIENTS            from file      0 offset           0 length                  48 to matrix element file.
 Write P(S=P) CONTRACTION COEFFICIENTS     from file      0 offset           0 length                  48 to matrix element file.
 Write COORDINATES OF EACH SHELL           from file      0 offset           0 length                  48 to matrix element file.
 Write BONDS PER ATOM                      from file      0 offset           0 length                  12 to matrix element file.
 Write BONDED ATOMS                        from file      0 offset           0 length                  22 to matrix element file.
 Write BOND TYPES                          from file      0 offset           0 length                  22 to matrix element file.
 Write ONIOM CHARGE/MULT                   from file      0 offset           0 length                  32 to matrix element file.
 Write ONIOM ATOM LAYERS                   from file      0 offset           0 length                  12 to matrix element file.
 Write ONIOM ATOM MODIFIERS                from file      0 offset           0 length                  12 to matrix element file.
 Write ONIOM ATOM TYPES                    from file      0 offset           0 length                  12 to matrix element file.
 Write ONIOM LINK ATOMS                    from file      0 offset           0 length                  12 to matrix element file.
 Write ONIOM LINK CHARGES                  from file      0 offset           0 length                  12 to matrix element file.
 Write ONIOM LINK DISTANCES                from file      0 offset           0 length                  48 to matrix element file.
 Write SYMINF INTS                         from file      0 offset           0 length                  26 to matrix element file.
 Write ROTTR TO SO                         from file      0 offset           0 length                  12 to matrix element file.
 Write GAUSSIAN SCALARS                    from file    501 offset           0 to matrix element file.
 Write OPTIMIZATION FLAGS                  from file      0 offset           0 length                  12 to matrix element file.
 Write INTEGER ISO                         from file      0 offset           0 length                  12 to matrix element file.
 Write INTEGER SPIN                        from file      0 offset           0 length                  12 to matrix element file.
 Write REAL ZEFFECTIVE                     from file      0 offset           0 length                  12 to matrix element file.
 Write REAL GFACTOR                        from file      0 offset           0 length                  12 to matrix element file.
 Write REAL ZNUCLEAR                       from file      0 offset           0 length                  12 to matrix element file.
 Write MULLIKEN CHARGES                    from file      0 offset           0 length                  12 to matrix element file.
 Write NUCLEAR GRADIENT                    from file  10584 offset           0 length                  36 to matrix element file.
 Array NUCLEAR FORCE CONSTANTS              on  file  10585 does not exist.
 Write ELECTRIC DIPOLE MOMENT              from file      0 offset           0 length                   3 to matrix element file.
 Write NON-ADIABATIC COUPLING              from file  10810 offset           0 length                  36 to matrix element file.
 Write FINITE EM FIELD                     from file  10521 offset           0 length                  35 to matrix element file.
 Write OVERLAP                             from file  10514 offset           0 length                 406 to matrix element file.
 Write CORE HAMILTONIAN ALPHA              from file  10515 offset           0 length                 406 to matrix element file.
 Write CORE HAMILTONIAN BETA               from file  10515 offset         406 length                 406 to matrix element file.
 Write KINETIC ENERGY                      from file  10516 offset           0 length                 406 to matrix element file.
 Write ORTHOGONAL BASIS                    from file  10685 offset           0 length                 784 to matrix element file.
 Write DIPOLE INTEGRALS                    from file  10518 offset           0 length                1218 to matrix element file.
 Array DIP VEL INTEGRALS                    on  file  10572 does not exist.
 Array R X DEL INTEGRALS                    on  file  10572 does not exist.
 Write ALPHA ORBITAL ENERGIES              from file      0 offset           0 length                  28 to matrix element file.
 Write ALPHA MO COEFFICIENTS               from file  10524 offset           0 length                 784 to matrix element file.
 Write ALPHA DENSITY MATRIX                from file      0 offset           0 length                 406 to matrix element file.
 Write ALPHA FOCK MATRIX                   from file  10536 offset           0 length                 406 to matrix element file.
 Write ENERGY-WEIGHTED DENSITY             from file  10571 offset           0 length                 406 to matrix element file.
 Write ALPHA SCF DENSITY MATRIX            from file      0 offset           0 length                 406 to matrix element file.
 No 2e integrals to process.
 Perform NBO analysis...executing G16NBO...

 *********************************** NBO 7.0 ***********************************
             N A T U R A L   A T O M I C   O R B I T A L   A N D
          N A T U R A L   B O N D   O R B I T A L   A N A L Y S I S
 **************************** Espen Tangen (S101595) ***************************
  (c) Copyright 1996-2021 Board of Regents of the University of Wisconsin System
      on behalf of the Theoretical Chemistry Institute.  All rights reserved.

          Cite this program [NBO 7.0.10 (8-Feb-2021)] as:

          NBO 7.0.  E. D. Glendening, J. K. Badenhoop, A. E. Reed,
          J. E. Carpenter, J. A. Bohmann, C. M. Morales, P. Karafiloglou,
          C. R. Landis, and F. Weinhold, Theoretical Chemistry Institute,
          University of Wisconsin, Madison, WI (2018)

       /NPA    / : Natural Population Analysis
       /AOPNAO / : Print the AO to PNAO transformation
       /AONAO  / : Print the AO to NAO transformation
       /AOMO   / : Print the MOs in the AO basis
       /BOAO   / : Print the AO bond-order matrix
       /DMAO   / : Print the AO density matrix
       /DMPNAO / : Print the PNAO density matrix
       /DMNAO  / : Print the NAO density matrix
       /DMMO   / : Print the MO density matrix
       /SAO    / : Print the AO overlap matrix
       /SPNAO  / : Print the PNAO overlap matrix
       /DETAIL / : Write details of NBO search
       /ARCHIVE/ : Write the archive file to lfn47
       /AOINFO / : Write AO information to lfn31
       /FILE   / : Set to mol128.gen*

 Filename set to mol128.gen1

 Job title: mol128-NBO


 MOs in the AO basis:

           AO          1       2       3       4       5       6       7       8
      ------------ ------- ------- ------- ------- ------- ------- ------- -------
   1.  O 1 (s)      0.9942  0.0004  0.0000  0.0000 -0.2200  0.0738  0.0037  0.0404
   2.  O 1 (s)      0.0260 -0.0045  0.0002  0.0002  0.7874 -0.2914 -0.0159 -0.1758
   3.  O 1 (px)     0.0029  0.0003  0.0000  0.0002  0.0779 -0.0464  0.0516 -0.0761
   4.  O 1 (py)    -0.0015  0.0028 -0.0001  0.0000 -0.0543 -0.0783  0.0078 -0.1769
   5.  O 1 (pz)     0.0022 -0.0010  0.0001  0.0001  0.0642 -0.0043 -0.0030  0.0901
   6.  C 2 (s)      0.0005  0.9921  0.0030  0.0027 -0.0885 -0.1322  0.0061 -0.1497
   7.  C 2 (s)     -0.0043  0.0359 -0.0057 -0.0059  0.2249  0.3660 -0.0183  0.4893
   8.  C 2 (px)     0.0000 -0.0002 -0.0034  0.0037  0.0078 -0.0066  0.1833  0.0072
   9.  C 2 (py)    -0.0037 -0.0005  0.0022  0.0017  0.0881 -0.1140 -0.0158  0.0504
  10.  C 2 (pz)     0.0016  0.0002  0.0013  0.0013 -0.0364 -0.0101  0.0008  0.1429
  11.  H 3 (s)     -0.0060 -0.0010 -0.0001 -0.0001  0.1446 -0.1019  0.0262 -0.1375
  12.  H 4 (s)      0.0004 -0.0069  0.0000  0.0000  0.0288  0.0882 -0.0045  0.2510
  13.  C 5 (s)      0.0000 -0.0017 -0.0084  0.9919 -0.0220 -0.1260  0.1565  0.0849
  14.  C 5 (s)      0.0004 -0.0060 -0.0002  0.0379  0.0519  0.3442 -0.4486 -0.2642
  15.  C 5 (px)     0.0001 -0.0038 -0.0001  0.0000  0.0197  0.0559  0.0152  0.1346
  16.  C 5 (py)     0.0002 -0.0018  0.0001  0.0000  0.0151  0.0091 -0.0081  0.0805
  17.  C 5 (pz)     0.0000 -0.0013  0.0001  0.0000  0.0039  0.0179 -0.0054  0.0867
  18.  C 6 (s)      0.0000 -0.0021  0.9919  0.0085 -0.0225 -0.1309 -0.1584  0.0715
  19.  C 6 (s)      0.0003 -0.0059  0.0378  0.0004  0.0533  0.3592  0.4565 -0.2234
  20.  C 6 (px)    -0.0001  0.0034  0.0002  0.0001 -0.0167 -0.0511  0.0269 -0.1179
  21.  C 6 (py)     0.0003 -0.0023  0.0000  0.0001  0.0179  0.0194  0.0038  0.0900
  22.  C 6 (pz)    -0.0001 -0.0013 -0.0001  0.0001  0.0046  0.0182  0.0030  0.0892
  23.  H 7 (s)     -0.0001  0.0000  0.0001 -0.0069  0.0090  0.0799 -0.1242 -0.1493
  24.  H 8 (s)     -0.0001  0.0000 -0.0070  0.0000  0.0090  0.0845  0.1284 -0.1371
  25.  H 9 (s)     -0.0001  0.0000 -0.0001 -0.0069  0.0091  0.0735 -0.1377 -0.1084
  26.  H10 (s)      0.0002  0.0001 -0.0069 -0.0002  0.0082  0.0808  0.1472 -0.1010
  27.  H11 (s)     -0.0001  0.0000  0.0001 -0.0070  0.0062  0.0864 -0.1272 -0.1285
  28.  H12 (s)      0.0000  0.0000 -0.0069  0.0000  0.0062  0.0902  0.1303 -0.1092

           AO          9      10      11      12      13      14      15      16
      ------------ ------- ------- ------- ------- ------- ------- ------- -------
   1.  O 1 (s)      0.0151 -0.0122  0.0444 -0.0138 -0.0408  0.0033 -0.0092  0.0725
   2.  O 1 (s)     -0.0797  0.0629 -0.2157  0.0695  0.2055 -0.0175  0.0464 -0.3826
   3.  O 1 (px)     0.2057 -0.2500  0.2337 -0.0783 -0.2193 -0.1630 -0.0401  0.4381
   4.  O 1 (py)     0.2958 -0.0988 -0.1437 -0.0398 -0.1696  0.0324  0.3368 -0.2924
   5.  O 1 (pz)     0.1445  0.1140  0.0324 -0.0512 -0.1468  0.3335 -0.1460  0.3938
   6.  C 2 (s)      0.0152  0.0246 -0.0110  0.0032  0.0093  0.0087 -0.0052 -0.0161
   7.  C 2 (s)     -0.0730 -0.0767  0.0401 -0.0062 -0.0158 -0.0307 -0.0037  0.0734
   8.  C 2 (px)     0.0705 -0.1408  0.2765  0.0856 -0.0185 -0.1005 -0.3387 -0.2195
   9.  C 2 (py)    -0.1077  0.2661  0.0959  0.0056  0.0708  0.2065 -0.2944  0.1842
  10.  C 2 (pz)     0.3506  0.1363 -0.0331 -0.0367 -0.1172  0.2443 -0.0003 -0.2165
  11.  H 3 (s)      0.2792 -0.1787  0.0745 -0.0734 -0.2386 -0.0395  0.1292  0.2440
  12.  H 4 (s)      0.2368  0.0799 -0.0054 -0.0371 -0.1219  0.2217  0.0004 -0.2312
  13.  C 5 (s)     -0.0161 -0.0041 -0.0131 -0.0016  0.0008  0.0049 -0.0209 -0.0223
  14.  C 5 (s)      0.0514  0.0122  0.0446  0.0053 -0.0021 -0.0205  0.0808  0.0889
  15.  C 5 (px)    -0.1212 -0.2223 -0.1597  0.0330  0.0860  0.1236  0.3734  0.2156
  16.  C 5 (py)    -0.1478  0.2475 -0.0408  0.0323 -0.3705 -0.2453  0.1763  0.0413
  17.  C 5 (pz)     0.1550  0.0991 -0.1509 -0.3431  0.2219 -0.2905  0.0163  0.1068
  18.  C 6 (s)      0.0027 -0.0174  0.0064  0.0018  0.0018  0.0137  0.0066  0.0171
  19.  C 6 (s)     -0.0108  0.0564 -0.0207 -0.0055 -0.0065 -0.0551 -0.0246 -0.0667
  20.  C 6 (px)     0.0646  0.3337  0.0980  0.0279  0.1609  0.1758  0.2432  0.1635
  21.  C 6 (py)    -0.0513 -0.0435  0.4467 -0.1142  0.0961 -0.0846  0.1855 -0.1525
  22.  C 6 (pz)     0.1921  0.0254  0.0198  0.4488  0.1420 -0.2241  0.0164  0.0407
  23.  H 7 (s)     -0.0939 -0.0815  0.1476  0.2997 -0.2024  0.2870  0.0080 -0.0954
  24.  H 8 (s)     -0.1509  0.0014 -0.0393 -0.4005 -0.1474  0.2101 -0.0333 -0.0919
  25.  H 9 (s)      0.0630  0.2819  0.0568 -0.1006 -0.1971 -0.3214 -0.1422 -0.0858
  26.  H10 (s)      0.0729  0.2487  0.2389  0.0999  0.2075  0.0233  0.3041  0.0784
  27.  H11 (s)      0.1780 -0.1304  0.0072 -0.1367  0.4039  0.0975 -0.1763  0.0131
  28.  H12 (s)      0.0881  0.0527 -0.3628  0.2436 -0.0318 -0.0328 -0.2006  0.1478

           AO         17      18      19      20      21      22      23      24
      ------------ ------- ------- ------- ------- ------- ------- ------- -------
   1.  O 1 (s)     -0.0019 -0.1029  0.0072 -0.0291  0.0573  0.0267 -0.0177 -0.0181
   2.  O 1 (s)      0.0109  0.6438 -0.0583  0.2019 -0.3835 -0.1660  0.1217  0.1053
   3.  O 1 (px)    -0.4156  0.3359 -0.1445  0.2450 -0.4832  0.0072  0.2139 -0.0905
   4.  O 1 (py)     0.3218 -0.3587 -0.1784  0.3292 -0.1977  0.2370  0.1022 -0.3179
   5.  O 1 (pz)     0.7153  0.3143  0.0774  0.0993 -0.1704 -0.1156  0.0531  0.1062
   6.  C 2 (s)     -0.0035  0.0246 -0.0021 -0.0207 -0.0726 -0.1563  0.0134  0.1085
   7.  C 2 (s)      0.0187 -0.0685  0.0044  0.1063  0.4393  0.9379 -0.0824 -0.6387
   8.  C 2 (px)     0.0986  0.0002 -0.1872  0.6584  0.3940 -0.1125 -0.0860 -0.2946
   9.  C 2 (py)    -0.0897 -0.6280 -0.3912 -0.0071 -0.1043 -0.0245  0.0355 -0.2186
  10.  C 2 (pz)    -0.1674  0.3504 -0.5316 -0.2521  0.1021  0.0661 -0.0415 -0.1632
  11.  H 3 (s)     -0.0014 -0.5202  0.2449 -0.5257  0.6748  0.0163 -0.2506  0.1751
  12.  H 4 (s)     -0.2782 -0.2469  0.5813  0.2184 -0.3332 -0.4595  0.0956  0.4536
  13.  C 5 (s)     -0.0022 -0.0034  0.0539 -0.0491 -0.0019 -0.0553 -0.0126 -0.1176
  14.  C 5 (s)      0.0109  0.0182 -0.3119  0.2835  0.0170  0.3695  0.0767  0.7473
  15.  C 5 (px)    -0.0105 -0.0074 -0.1792  0.4945  0.2480 -0.6850 -0.0837 -0.2111
  16.  C 5 (py)     0.0175 -0.2866 -0.3232 -0.0700 -0.2347 -0.2277  0.5619 -0.2458
  17.  C 5 (pz)     0.0424  0.1464 -0.4329 -0.2088 -0.1416 -0.0703 -0.6258 -0.2406
  18.  C 6 (s)     -0.0300 -0.0006  0.0332  0.0385  0.0672 -0.0716 -0.0574 -0.0460
  19.  C 6 (s)      0.1258  0.0039 -0.1969 -0.2174 -0.3994  0.4667  0.3587  0.2799
  20.  C 6 (px)    -0.1929  0.0447 -0.1889  0.6144  0.4053  0.3936 -0.0188  0.2216
  21.  C 6 (py)     0.1599 -0.2997 -0.3577  0.0031 -0.3835 -0.2766 -0.3910  0.5880
  22.  C 6 (pz)     0.0987  0.1400 -0.4129 -0.3048  0.4056 -0.3352  0.4518  0.3291
  23.  H 7 (s)     -0.0708  0.1779 -0.3350 -0.3565 -0.1687 -0.2046 -0.6136 -0.5439
  24.  H 8 (s)     -0.0797  0.1785 -0.3728 -0.1909  0.5685 -0.5026  0.2793  0.2130
  25.  H 9 (s)      0.0630  0.1578  0.3725  0.3812  0.3629 -0.5021 -0.2134 -0.2620
  26.  H10 (s)     -0.0081  0.1212  0.5692 -0.3094 -0.1530 -0.2852 -0.0900 -0.6126
  27.  H11 (s)      0.0020 -0.4088 -0.0226 -0.0745 -0.1327 -0.3691  0.6849 -0.4697
  28.  H12 (s)     -0.0837 -0.4095 -0.1173  0.2578 -0.2789 -0.2792 -0.6662  0.2712

           AO         25      26      27      28
      ------------ ------- ------- ------- -------
   1.  O 1 (s)      0.0031  0.0126  0.0059 -0.0221
   2.  O 1 (s)     -0.0314 -0.0813 -0.0317  0.1371
   3.  O 1 (px)    -0.1675  0.0033  0.1648 -0.1843
   4.  O 1 (py)    -0.2493  0.1045  0.1301 -0.4353
   5.  O 1 (pz)     0.0134 -0.1322 -0.0775  0.0156
   6.  C 2 (s)      0.0934  0.0823 -0.0606  0.0318
   7.  C 2 (s)     -0.5574 -0.5105  0.3702 -0.1399
   8.  C 2 (px)     0.0444  0.1194 -0.6784  0.2333
   9.  C 2 (py)    -0.0121  0.6651  0.1851 -0.3150
  10.  C 2 (pz)    -0.0651  0.2645  0.3242  0.7660
  11.  H 3 (s)      0.2730 -0.0290 -0.1077  0.2379
  12.  H 4 (s)      0.3024 -0.0230 -0.4196 -0.5040
  13.  C 5 (s)      0.0492 -0.1449  0.1238 -0.0497
  14.  C 5 (s)     -0.3256  0.9202 -0.7875  0.3185
  15.  C 5 (px)     0.3319  0.4202  0.2050  0.1896
  16.  C 5 (py)     0.1193 -0.3667 -0.4861  0.4323
  17.  C 5 (pz)     0.2877 -0.0284 -0.5150 -0.3968
  18.  C 6 (s)     -0.1911 -0.0677 -0.0671  0.0014
  19.  C 6 (s)      1.2212  0.4255  0.4300 -0.0088
  20.  C 6 (px)     0.2790 -0.5931 -0.0312 -0.0951
  21.  C 6 (py)    -0.1631 -0.2625  0.3822  0.2245
  22.  C 6 (pz)    -0.1262 -0.0059  0.0956 -0.5769
  23.  H 7 (s)      0.4217 -0.4121 -0.1272 -0.4130
  24.  H 8 (s)     -0.6396 -0.1798 -0.0755 -0.4405
  25.  H 9 (s)      0.2060  0.0765  0.8289 -0.0993
  26.  H10 (s)     -0.6249  0.3444 -0.2989  0.1238
  27.  H11 (s)      0.1779 -0.6120  0.1223  0.3265
  28.  H12 (s)     -0.5971 -0.3805  0.0962  0.3353


 AO overlap matrix:

           AO          1       2       3       4       5       6       7       8
      ------------ ------- ------- ------- ------- ------- ------- ------- -------
   1.  O 1 (s)      1.0000  0.2367  0.0000  0.0000  0.0000  0.0000  0.0218  0.0007
   2.  O 1 (s)      0.2367  1.0000  0.0000  0.0000  0.0000  0.0169  0.2540  0.0066
   3.  O 1 (px)     0.0000  0.0000  1.0000  0.0000  0.0000 -0.0006 -0.0049  0.1316
   4.  O 1 (py)     0.0000  0.0000  0.0000  1.0000  0.0000 -0.0283 -0.2316 -0.0076
   5.  O 1 (pz)     0.0000  0.0000  0.0000  0.0000  1.0000  0.0115  0.0938  0.0031
   6.  C 2 (s)      0.0000  0.0169 -0.0006 -0.0283  0.0115  1.0000  0.2484  0.0000
   7.  C 2 (s)      0.0218  0.2540 -0.0049 -0.2316  0.0938  0.2484  1.0000  0.0000
   8.  C 2 (px)     0.0007  0.0066  0.1316 -0.0076  0.0031  0.0000  0.0000  1.0000
   9.  C 2 (py)     0.0336  0.3117 -0.0076 -0.2255  0.1447  0.0000  0.0000  0.0000
  10.  C 2 (pz)    -0.0136 -0.1263  0.0031  0.1447  0.0732  0.0000  0.0000  0.0000
  11.  H 3 (s)      0.0520  0.4648  0.3321  0.1644  0.1153  0.0088  0.1385  0.0749
  12.  H 4 (s)      0.0041  0.0643 -0.0007 -0.0447  0.0571  0.0606  0.4842  0.0035
  13.  C 5 (s)      0.0000  0.0002 -0.0003 -0.0005  0.0000  0.0000  0.0284 -0.0411
  14.  C 5 (s)      0.0014  0.0356 -0.0274 -0.0394  0.0016  0.0284  0.3101 -0.2998
  15.  C 5 (px)     0.0018  0.0344 -0.0152 -0.0414  0.0017  0.0411  0.2998 -0.1958
  16.  C 5 (py)     0.0027  0.0494 -0.0414 -0.0459  0.0024  0.0188  0.1371 -0.1684
  17.  C 5 (pz)    -0.0001 -0.0020  0.0017  0.0024  0.0134  0.0144  0.1049 -0.1288
  18.  C 6 (s)      0.0000  0.0001  0.0002 -0.0003  0.0000  0.0000  0.0279  0.0369
  19.  C 6 (s)      0.0010  0.0288  0.0192 -0.0348  0.0010  0.0279  0.3074  0.2717
  20.  C 6 (px)    -0.0012 -0.0240 -0.0065  0.0313 -0.0009 -0.0369 -0.2717 -0.1340
  21.  C 6 (py)     0.0022  0.0435  0.0313 -0.0460  0.0017  0.0246  0.1811  0.2030
  22.  C 6 (pz)    -0.0001 -0.0013 -0.0009  0.0017  0.0107  0.0146  0.1074  0.1204
  23.  H 7 (s)      0.0010  0.0201 -0.0133 -0.0193 -0.0099  0.0056  0.0994 -0.0795
  24.  H 8 (s)      0.0008  0.0168  0.0095 -0.0176 -0.0083  0.0055  0.0985  0.0711
  25.  H 9 (s)      0.0011  0.0215 -0.0229 -0.0138  0.0044  0.0055  0.0982 -0.1264
  26.  H10 (s)      0.0007  0.0153  0.0154 -0.0122  0.0029  0.0052  0.0950  0.1212
  27.  H11 (s)      0.0001  0.0031 -0.0020 -0.0041  0.0007  0.0054  0.0965 -0.0830
  28.  H12 (s)      0.0001  0.0026  0.0013 -0.0036  0.0005  0.0052  0.0947  0.0666

           AO          9      10      11      12      13      14      15      16
      ------------ ------- ------- ------- ------- ------- ------- ------- -------
   1.  O 1 (s)      0.0336 -0.0136  0.0520  0.0041  0.0000  0.0014  0.0018  0.0027
   2.  O 1 (s)      0.3117 -0.1263  0.4648  0.0643  0.0002  0.0356  0.0344  0.0494
   3.  O 1 (px)    -0.0076  0.0031  0.3321 -0.0007 -0.0003 -0.0274 -0.0152 -0.0414
   4.  O 1 (py)    -0.2255  0.1447  0.1644 -0.0447 -0.0005 -0.0394 -0.0414 -0.0459
   5.  O 1 (pz)     0.1447  0.0732  0.1153  0.0571  0.0000  0.0016  0.0017  0.0024
   6.  C 2 (s)      0.0000  0.0000  0.0088  0.0606  0.0000  0.0284  0.0411  0.0188
   7.  C 2 (s)      0.0000  0.0000  0.1385  0.4842  0.0284  0.3101  0.2998  0.1371
   8.  C 2 (px)     0.0000  0.0000  0.0749  0.0035 -0.0411 -0.2998 -0.1958 -0.1684
   9.  C 2 (py)     1.0000  0.0000  0.1514  0.0192 -0.0188 -0.1371 -0.1684  0.0955
  10.  C 2 (pz)     0.0000  1.0000 -0.0217  0.4629 -0.0144 -0.1049 -0.1288 -0.0589
  11.  H 3 (s)      0.1514 -0.0217  1.0000  0.0680  0.0002  0.0108  0.0118  0.0127
  12.  H 4 (s)      0.0192  0.4629  0.0680  1.0000  0.0056  0.0996  0.0789  0.0386
  13.  C 5 (s)     -0.0188 -0.0144  0.0002  0.0056  1.0000  0.2484  0.0000  0.0000
  14.  C 5 (s)     -0.1371 -0.1049  0.0108  0.0996  0.2484  1.0000  0.0000  0.0000
  15.  C 5 (px)    -0.1684 -0.1288  0.0118  0.0789  0.0000  0.0000  1.0000  0.0000
  16.  C 5 (py)     0.0955 -0.0589  0.0127  0.0386  0.0000  0.0000  0.0000  1.0000
  17.  C 5 (pz)    -0.0589  0.1274  0.0011  0.0932  0.0000  0.0000  0.0000  0.0000
  18.  C 6 (s)     -0.0246 -0.0146  0.0017  0.0055  0.0000  0.0012  0.0030 -0.0002
  19.  C 6 (s)     -0.1811 -0.1074  0.0434  0.0983  0.0012  0.0487  0.0734 -0.0059
  20.  C 6 (px)     0.2030  0.1204 -0.0081 -0.0703 -0.0030 -0.0734 -0.1011  0.0097
  21.  C 6 (py)     0.0353 -0.0803  0.0607  0.0499  0.0002  0.0059  0.0097  0.0191
  22.  C 6 (pz)    -0.0803  0.1230  0.0054  0.0928  0.0000  0.0005  0.0008 -0.0001
  23.  H 7 (s)     -0.0384 -0.0925  0.0061  0.0164  0.0618  0.4890 -0.0088 -0.0187
  24.  H 8 (s)     -0.0498 -0.0925  0.0216  0.0162  0.0010  0.0293  0.0393 -0.0038
  25.  H 9 (s)      0.0011 -0.0072  0.0065  0.0516  0.0620  0.4896 -0.3566  0.2643
  26.  H10 (s)     -0.0190 -0.0083  0.0555  0.0498  0.0001  0.0055  0.0092  0.0007
  27.  H11 (s)     -0.0930 -0.0036  0.0015  0.0507  0.0618  0.4889 -0.0535 -0.4310
  28.  H12 (s)     -0.1028 -0.0045  0.0050  0.0496  0.0008  0.0269  0.0355 -0.0174

           AO         17      18      19      20      21      22      23      24
      ------------ ------- ------- ------- ------- ------- ------- ------- -------
   1.  O 1 (s)     -0.0001  0.0000  0.0010 -0.0012  0.0022 -0.0001  0.0010  0.0008
   2.  O 1 (s)     -0.0020  0.0001  0.0288 -0.0240  0.0435 -0.0013  0.0201  0.0168
   3.  O 1 (px)     0.0017  0.0002  0.0192 -0.0065  0.0313 -0.0009 -0.0133  0.0095
   4.  O 1 (py)     0.0024 -0.0003 -0.0348  0.0313 -0.0460  0.0017 -0.0193 -0.0176
   5.  O 1 (pz)     0.0134  0.0000  0.0010 -0.0009  0.0017  0.0107 -0.0099 -0.0083
   6.  C 2 (s)      0.0144  0.0000  0.0279 -0.0369  0.0246  0.0146  0.0056  0.0055
   7.  C 2 (s)      0.1049  0.0279  0.3074 -0.2717  0.1811  0.1074  0.0994  0.0985
   8.  C 2 (px)    -0.1288  0.0369  0.2717 -0.1340  0.2030  0.1204 -0.0795  0.0711
   9.  C 2 (py)    -0.0589 -0.0246 -0.1811  0.2030  0.0353 -0.0803 -0.0384 -0.0498
  10.  C 2 (pz)     0.1274 -0.0146 -0.1074  0.1204 -0.0803  0.1230 -0.0925 -0.0925
  11.  H 3 (s)      0.0011  0.0017  0.0434 -0.0081  0.0607  0.0054  0.0061  0.0216
  12.  H 4 (s)      0.0932  0.0055  0.0983 -0.0703  0.0499  0.0928  0.0164  0.0162
  13.  C 5 (s)      0.0000  0.0000  0.0012 -0.0030  0.0002  0.0000  0.0618  0.0010
  14.  C 5 (s)      0.0000  0.0012  0.0487 -0.0734  0.0059  0.0005  0.4890  0.0293
  15.  C 5 (px)     0.0000  0.0030  0.0734 -0.1011  0.0097  0.0008 -0.0088  0.0393
  16.  C 5 (py)     0.0000 -0.0002 -0.0059  0.0097  0.0191 -0.0001 -0.0187 -0.0038
  17.  C 5 (pz)     1.0000  0.0000 -0.0005  0.0008 -0.0001  0.0199 -0.4658 -0.0173
  18.  C 6 (s)      0.0000  1.0000  0.2484  0.0000  0.0000  0.0000  0.0010  0.0618
  19.  C 6 (s)     -0.0005  0.2484  1.0000  0.0000  0.0000  0.0000  0.0294  0.4890
  20.  C 6 (px)     0.0008  0.0000  0.0000  1.0000  0.0000  0.0000 -0.0398  0.0009
  21.  C 6 (py)    -0.0001  0.0000  0.0000  0.0000  1.0000  0.0000  0.0025 -0.0185
  22.  C 6 (pz)     0.0199  0.0000  0.0000  0.0000  0.0000  1.0000 -0.0169 -0.4658
  23.  H 7 (s)     -0.4658  0.0010  0.0294 -0.0398  0.0025 -0.0169  1.0000  0.0455
  24.  H 8 (s)     -0.0173  0.0618  0.4890  0.0009 -0.0185 -0.4658  0.0455  1.0000
  25.  H 9 (s)      0.1439  0.0001  0.0057 -0.0091  0.0022  0.0010  0.1712  0.0033
  26.  H10 (s)      0.0008  0.0615  0.4877  0.3977  0.1977  0.1394  0.0033  0.1708
  27.  H11 (s)      0.1694  0.0009  0.0274 -0.0383 -0.0118  0.0060  0.1696  0.0137
  28.  H12 (s)      0.0054  0.0617  0.4885 -0.0098 -0.4344  0.1682  0.0135  0.1694

           AO         25      26      27      28
      ------------ ------- ------- ------- -------
   1.  O 1 (s)      0.0011  0.0007  0.0001  0.0001
   2.  O 1 (s)      0.0215  0.0153  0.0031  0.0026
   3.  O 1 (px)    -0.0229  0.0154 -0.0020  0.0013
   4.  O 1 (py)    -0.0138 -0.0122 -0.0041 -0.0036
   5.  O 1 (pz)     0.0044  0.0029  0.0007  0.0005
   6.  C 2 (s)      0.0055  0.0052  0.0054  0.0052
   7.  C 2 (s)      0.0982  0.0950  0.0965  0.0947
   8.  C 2 (px)    -0.1264  0.1212 -0.0830  0.0666
   9.  C 2 (py)     0.0011 -0.0190 -0.0930 -0.1028
  10.  C 2 (pz)    -0.0072 -0.0083 -0.0036 -0.0045
  11.  H 3 (s)      0.0065  0.0555  0.0015  0.0050
  12.  H 4 (s)      0.0516  0.0498  0.0507  0.0496
  13.  C 5 (s)      0.0620  0.0001  0.0618  0.0008
  14.  C 5 (s)      0.4896  0.0055  0.4889  0.0269
  15.  C 5 (px)    -0.3566  0.0092 -0.0535  0.0355
  16.  C 5 (py)     0.2643  0.0007 -0.4310 -0.0174
  17.  C 5 (pz)     0.1439  0.0008  0.1694  0.0054
  18.  C 6 (s)      0.0001  0.0615  0.0009  0.0617
  19.  C 6 (s)      0.0057  0.4877  0.0274  0.4885
  20.  C 6 (px)    -0.0091  0.3977 -0.0383 -0.0098
  21.  C 6 (py)     0.0022  0.1977 -0.0118 -0.4344
  22.  C 6 (pz)     0.0010  0.1394  0.0060  0.1682
  23.  H 7 (s)      0.1712  0.0033  0.1696  0.0135
  24.  H 8 (s)      0.0033  0.1708  0.0137  0.1694
  25.  H 9 (s)      1.0000  0.0008  0.1698  0.0029
  26.  H10 (s)      0.0008  1.0000  0.0029  0.1722
  27.  H11 (s)      0.1698  0.0029  1.0000  0.0390
  28.  H12 (s)      0.0029  0.1722  0.0390  1.0000


 AO bond-order matrix:

           AO          1       2       3       4       5       6       7       8
      ------------ ------- ------- ------- ------- ------- ------- ------- -------
   1.  O 1 (s)      2.1069 -0.4505  0.0768 -0.0410  0.0600  0.0052  0.0011  0.0002
   2.  O 1 (s)     -0.4505  1.9792 -0.4335  0.2101 -0.3290  0.0025 -0.1088  0.0059
   3.  O 1 (px)     0.0768 -0.4335  1.2463 -0.3502 -0.2601 -0.0069  0.0188  0.0287
   4.  O 1 (py)    -0.0410  0.2101 -0.3502  0.9843  0.2227  0.0970 -0.3239 -0.0529
   5.  O 1 (pz)     0.0600 -0.3290 -0.2601  0.2227  1.7413 -0.0432  0.1484  0.0042
   6.  C 2 (s)      0.0052  0.0025 -0.0069  0.0970 -0.0432  2.0669 -0.2223 -0.0024
   7.  C 2 (s)      0.0011 -0.1088  0.0188 -0.3239  0.1484 -0.2223  0.8910  0.0122
   8.  C 2 (px)     0.0002  0.0059  0.0287 -0.0529  0.0042 -0.0024  0.0122  0.6508
   9.  C 2 (py)    -0.0323  0.0495  0.0428 -0.5284  0.2763  0.0087 -0.0005  0.0185
  10.  C 2 (pz)     0.0149 -0.0260 -0.0388  0.2221 -0.0573 -0.0052 -0.0077  0.0058
  11.  H 3 (s)     -0.0278 -0.0465  0.6282  0.2560  0.2429  0.0241 -0.1067 -0.0487
  12.  H 4 (s)      0.0059 -0.0116  0.0281  0.0351 -0.2582 -0.0954  0.2218  0.0091
  13.  C 5 (s)     -0.0053  0.0271 -0.0167 -0.0128 -0.0049  0.0163 -0.0381  0.0812
  14.  C 5 (s)      0.0206 -0.0972  0.0751  0.0505  0.0277 -0.0412  0.0406 -0.2296
  15.  C 5 (px)     0.0158 -0.0841  0.0501  0.0547  0.0298 -0.0838  0.2375 -0.4078
  16.  C 5 (py)     0.0178 -0.0914  0.0297  0.0569 -0.0246 -0.0385  0.1045 -0.1803
  17.  C 5 (pz)     0.0012 -0.0073  0.0370 -0.0094 -0.0101 -0.0281  0.0821 -0.1485
  18.  C 6 (s)     -0.0014  0.0032  0.0282 -0.0265 -0.0135  0.0162 -0.0385 -0.0740
  19.  C 6 (s)      0.0025  0.0064 -0.1256  0.1150  0.0696 -0.0402  0.0407  0.2122
  20.  C 6 (px)     0.0000 -0.0094  0.0802 -0.1053 -0.0731  0.0749 -0.2151 -0.3332
  21.  C 6 (py)     0.0108 -0.0410 -0.0809  0.1012  0.0041 -0.0519  0.1458  0.2215
  22.  C 6 (pz)    -0.0055  0.0303 -0.0457  0.0205  0.0105 -0.0287  0.0853  0.1403
  23.  H 7 (s)      0.0034 -0.0143 -0.0020  0.0345 -0.0204  0.0169 -0.0726  0.0662
  24.  H 8 (s)      0.0022 -0.0079 -0.0063  0.0335 -0.0231  0.0171 -0.0737 -0.0574
  25.  H 9 (s)      0.0036 -0.0150 -0.0008  0.0379 -0.0141  0.0182 -0.0729  0.1091
  26.  H10 (s)      0.0052 -0.0203 -0.0215  0.0267 -0.0197  0.0178 -0.0713 -0.1133
  27.  H11 (s)     -0.0157  0.0780 -0.0224 -0.0866  0.0250  0.0217 -0.0742  0.0724
  28.  H12 (s)     -0.0071  0.0289  0.0646 -0.1144  0.0113  0.0209 -0.0727 -0.0539

           AO          9      10      11      12      13      14      15      16
      ------------ ------- ------- ------- ------- ------- ------- ------- -------
   1.  O 1 (s)     -0.0323  0.0149 -0.0278  0.0059 -0.0053  0.0206  0.0158  0.0178
   2.  O 1 (s)      0.0495 -0.0260 -0.0465 -0.0116  0.0271 -0.0972 -0.0841 -0.0914
   3.  O 1 (px)     0.0428 -0.0388  0.6282  0.0281 -0.0167  0.0751  0.0501  0.0297
   4.  O 1 (py)    -0.5284  0.2221  0.2560  0.0351 -0.0128  0.0505  0.0547  0.0569
   5.  O 1 (pz)     0.2763 -0.0573  0.2429 -0.2582 -0.0049  0.0277  0.0298 -0.0246
   6.  C 2 (s)      0.0087 -0.0052  0.0241 -0.0954  0.0163 -0.0412 -0.0838 -0.0385
   7.  C 2 (s)     -0.0005 -0.0077 -0.1067  0.2218 -0.0381  0.0406  0.2375  0.1045
   8.  C 2 (px)     0.0185  0.0058 -0.0487  0.0091  0.0812 -0.2296 -0.4078 -0.1803
   9.  C 2 (py)     0.5830  0.0353 -0.1437  0.0393  0.0372 -0.1032 -0.1940 -0.0805
  10.  C 2 (pz)     0.0353  0.6283  0.0312  0.5889  0.0325 -0.1025 -0.1513 -0.0710
  11.  H 3 (s)     -0.1437  0.0312  0.6129 -0.0419 -0.0224  0.0911  0.0922  0.0600
  12.  H 4 (s)      0.0393  0.5889 -0.0419  0.6608  0.0233 -0.0951 -0.0750 -0.0366
  13.  C 5 (s)      0.0372  0.0325 -0.0224  0.0233  2.0668 -0.2096 -0.0014 -0.0004
  14.  C 5 (s)     -0.1032 -0.1025  0.0911 -0.0951 -0.2096  0.8269  0.0171  0.0079
  15.  C 5 (px)    -0.1940 -0.1513  0.0922 -0.0750 -0.0014  0.0171  0.6425 -0.0112
  16.  C 5 (py)    -0.0805 -0.0710  0.0600 -0.0366 -0.0004  0.0079 -0.0112  0.6464
  17.  C 5 (pz)    -0.0743 -0.0594  0.0257 -0.0925 -0.0006  0.0065 -0.0071  0.0019
  18.  C 6 (s)      0.0476  0.0326  0.0086  0.0258 -0.0042  0.0154  0.0205 -0.0039
  19.  C 6 (s)     -0.1373 -0.1032 -0.0326 -0.1073  0.0156 -0.0510 -0.0846  0.0193
  20.  C 6 (px)     0.2258  0.1382  0.0193  0.0819 -0.0198  0.0813  0.0965  0.0061
  21.  C 6 (py)    -0.1356 -0.0965 -0.0192 -0.0572 -0.0006  0.0061 -0.0262 -0.0061
  22.  C 6 (pz)    -0.0983 -0.0613 -0.0178 -0.0980 -0.0018  0.0108 -0.0115  0.0153
  23.  H 7 (s)      0.0435  0.0877  0.0053  0.1196 -0.0929  0.2224 -0.0006 -0.0238
  24.  H 8 (s)      0.0516  0.0889 -0.0014  0.1202  0.0101 -0.0384 -0.0374 -0.0157
  25.  H 9 (s)      0.0047 -0.0034  0.0085 -0.0479 -0.0937  0.2262 -0.4480  0.3449
  26.  H10 (s)      0.0221 -0.0037  0.0102 -0.0448 -0.0186  0.0748  0.0912  0.0198
  27.  H11 (s)      0.0703  0.0064 -0.0596 -0.0368 -0.0935  0.2241 -0.0575 -0.5516
  28.  H12 (s)      0.0772  0.0046 -0.0009 -0.0325  0.0065 -0.0224 -0.0258  0.0057

           AO         17      18      19      20      21      22      23      24
      ------------ ------- ------- ------- ------- ------- ------- ------- -------
   1.  O 1 (s)      0.0012 -0.0014  0.0025  0.0000  0.0108 -0.0055  0.0034  0.0022
   2.  O 1 (s)     -0.0073  0.0032  0.0064 -0.0094 -0.0410  0.0303 -0.0143 -0.0079
   3.  O 1 (px)     0.0370  0.0282 -0.1256  0.0802 -0.0809 -0.0457 -0.0020 -0.0063
   4.  O 1 (py)    -0.0094 -0.0265  0.1150 -0.1053  0.1012  0.0205  0.0345  0.0335
   5.  O 1 (pz)    -0.0101 -0.0135  0.0696 -0.0731  0.0041  0.0105 -0.0204 -0.0231
   6.  C 2 (s)     -0.0281  0.0162 -0.0402  0.0749 -0.0519 -0.0287  0.0169  0.0171
   7.  C 2 (s)      0.0821 -0.0385  0.0407 -0.2151  0.1458  0.0853 -0.0726 -0.0737
   8.  C 2 (px)    -0.1485 -0.0740  0.2122 -0.3332  0.2215  0.1403  0.0662 -0.0574
   9.  C 2 (py)    -0.0743  0.0476 -0.1373  0.2258 -0.1356 -0.0983  0.0435  0.0516
  10.  C 2 (pz)    -0.0594  0.0326 -0.1032  0.1382 -0.0965 -0.0613  0.0877  0.0889
  11.  H 3 (s)      0.0257  0.0086 -0.0326  0.0193 -0.0192 -0.0178  0.0053 -0.0014
  12.  H 4 (s)     -0.0925  0.0258 -0.1073  0.0819 -0.0572 -0.0980  0.1196  0.1202
  13.  C 5 (s)     -0.0006 -0.0042  0.0156 -0.0198 -0.0006 -0.0018 -0.0929  0.0101
  14.  C 5 (s)      0.0065  0.0154 -0.0510  0.0813  0.0061  0.0108  0.2224 -0.0384
  15.  C 5 (px)    -0.0071  0.0205 -0.0846  0.0965 -0.0262 -0.0115 -0.0006 -0.0374
  16.  C 5 (py)     0.0019 -0.0039  0.0193  0.0061 -0.0061  0.0153 -0.0238 -0.0157
  17.  C 5 (pz)     0.6586 -0.0022  0.0122  0.0106  0.0143 -0.0225 -0.5997  0.0032
  18.  C 6 (s)     -0.0022  2.0671 -0.2119  0.0049 -0.0021 -0.0013  0.0102 -0.0929
  19.  C 6 (s)      0.0122 -0.2119  0.8387 -0.0332  0.0177  0.0109 -0.0393  0.2217
  20.  C 6 (px)     0.0106  0.0049 -0.0332  0.6467  0.0017 -0.0021  0.0350 -0.0074
  21.  C 6 (py)     0.0143 -0.0021  0.0177  0.0017  0.6512  0.0007 -0.0223 -0.0220
  22.  C 6 (pz)    -0.0225 -0.0013  0.0109 -0.0021  0.0007  0.6595  0.0027 -0.5998
  23.  H 7 (s)     -0.5997  0.0102 -0.0393  0.0350 -0.0223  0.0027  0.6176  0.0077
  24.  H 8 (s)      0.0032 -0.0929  0.2217 -0.0074 -0.0220 -0.5998  0.0077  0.6181
  25.  H 9 (s)      0.1943 -0.0190  0.0779 -0.0858  0.0355  0.0221 -0.1222  0.0031
  26.  H10 (s)      0.0196 -0.0927  0.2207  0.5027  0.2701  0.1889  0.0033 -0.1255
  27.  H11 (s)      0.2230  0.0063 -0.0219  0.0262  0.0026 -0.0144 -0.1211  0.0030
  28.  H12 (s)     -0.0141 -0.0933  0.2222 -0.0263 -0.5552  0.2201  0.0030 -0.1191

           AO         25      26      27      28
      ------------ ------- ------- ------- -------
   1.  O 1 (s)      0.0036  0.0052 -0.0157 -0.0071
   2.  O 1 (s)     -0.0150 -0.0203  0.0780  0.0289
   3.  O 1 (px)    -0.0008 -0.0215 -0.0224  0.0646
   4.  O 1 (py)     0.0379  0.0267 -0.0866 -0.1144
   5.  O 1 (pz)    -0.0141 -0.0197  0.0250  0.0113
   6.  C 2 (s)      0.0182  0.0178  0.0217  0.0209
   7.  C 2 (s)     -0.0729 -0.0713 -0.0742 -0.0727
   8.  C 2 (px)     0.1091 -0.1133  0.0724 -0.0539
   9.  C 2 (py)     0.0047  0.0221  0.0703  0.0772
  10.  C 2 (pz)    -0.0034 -0.0037  0.0064  0.0046
  11.  H 3 (s)      0.0085  0.0102 -0.0596 -0.0009
  12.  H 4 (s)     -0.0479 -0.0448 -0.0368 -0.0325
  13.  C 5 (s)     -0.0937 -0.0186 -0.0935  0.0065
  14.  C 5 (s)      0.2262  0.0748  0.2241 -0.0224
  15.  C 5 (px)    -0.4480  0.0912 -0.0575 -0.0258
  16.  C 5 (py)     0.3449  0.0198 -0.5516  0.0057
  17.  C 5 (pz)     0.1943  0.0196  0.2230 -0.0141
  18.  C 6 (s)     -0.0190 -0.0927  0.0063 -0.0933
  19.  C 6 (s)      0.0779  0.2207 -0.0219  0.2222
  20.  C 6 (px)    -0.0858  0.5027  0.0262 -0.0263
  21.  C 6 (py)     0.0355  0.2701  0.0026 -0.5552
  22.  C 6 (pz)     0.0221  0.1889 -0.0144  0.2201
  23.  H 7 (s)     -0.1222  0.0033 -0.1211  0.0030
  24.  H 8 (s)      0.0031 -0.1255  0.0030 -0.1191
  25.  H 9 (s)      0.6135 -0.0479 -0.1208  0.0065
  26.  H10 (s)     -0.0479  0.6301  0.0068 -0.1226
  27.  H11 (s)     -0.1208  0.0068  0.6230 -0.0014
  28.  H12 (s)      0.0065 -0.1226 -0.0014  0.6197


 AO density matrix:

           AO          1       2       3       4       5       6       7       8
      ------------ ------- ------- ------- ------- ------- ------- ------- -------
   1.  O 1 (s)      1.9998  0.4752  0.0045 -0.0027  0.0036  0.0001  0.0411  0.0012
   2.  O 1 (s)      0.4752  1.9782 -0.0504  0.0365 -0.0433  0.0326  0.5381  0.0118
   3.  O 1 (px)     0.0045 -0.0504  1.7329 -0.1257 -0.0888 -0.0011  0.0031  0.3177
   4.  O 1 (py)    -0.0027  0.0365 -0.1257  1.6040  0.0907 -0.0499 -0.6066 -0.0529
   5.  O 1 (pz)     0.0036 -0.0433 -0.0888  0.0907  1.9012  0.0202  0.2525  0.0132
   6.  C 2 (s)      0.0001  0.0326 -0.0011 -0.0499  0.0202  1.9995  0.5056  0.0001
   7.  C 2 (s)      0.0411  0.5381  0.0031 -0.6066  0.2525  0.5056  1.8330 -0.0050
   8.  C 2 (px)     0.0012  0.0118  0.3177 -0.0529  0.0132  0.0001 -0.0050  1.5703
   9.  C 2 (py)     0.0612  0.6998  0.0161 -0.7941  0.4815  0.0013 -0.0597 -0.0072
  10.  C 2 (pz)    -0.0248 -0.2858 -0.0174  0.4440  0.1362 -0.0010  0.0424  0.0097
  11.  H 3 (s)      0.0970  1.0102  1.0351  0.4734  0.3754  0.0183  0.2414  0.1523
  12.  H 4 (s)      0.0082  0.1314  0.0160 -0.0846  0.0674  0.1146  1.0762  0.0125
  13.  C 5 (s)      0.0000  0.0008 -0.0009 -0.0012  0.0000  0.0002  0.0542 -0.0767
  14.  C 5 (s)      0.0031  0.0667 -0.0506 -0.0825  0.0077  0.0544  0.6603 -0.6985
  15.  C 5 (px)     0.0042  0.0603 -0.0232 -0.0819  0.0107  0.0764  0.7031 -0.6205
  16.  C 5 (py)     0.0055  0.0977 -0.0858 -0.1093  0.0079  0.0350  0.3179 -0.4457
  17.  C 5 (pz)     0.0000 -0.0084  0.0114  0.0113  0.0238  0.0267  0.2487 -0.3459
  18.  C 6 (s)      0.0000  0.0003  0.0013 -0.0016 -0.0003  0.0002  0.0533  0.0688
  19.  C 6 (s)      0.0021  0.0582  0.0248 -0.0582  0.0112  0.0535  0.6562  0.6356
  20.  C 6 (px)    -0.0024 -0.0502 -0.0002  0.0244 -0.0212 -0.0686 -0.6389 -0.4560
  21.  C 6 (py)     0.0044  0.0881  0.0565 -0.0913  0.0129  0.0458  0.4237  0.5416
  22.  C 6 (pz)    -0.0001 -0.0017 -0.0169  0.0252  0.0222  0.0270  0.2566  0.3264
  23.  H 7 (s)      0.0021  0.0371 -0.0297 -0.0197 -0.0282  0.0114  0.2008 -0.1439
  24.  H 8 (s)      0.0016  0.0315  0.0186 -0.0149 -0.0241  0.0112  0.1986  0.1296
  25.  H 9 (s)      0.0023  0.0398 -0.0468 -0.0082 -0.0018  0.0112  0.1961 -0.2577
  26.  H10 (s)      0.0016  0.0278  0.0315 -0.0032 -0.0030  0.0108  0.1885  0.2471
  27.  H11 (s)     -0.0006  0.0176 -0.0013 -0.0445  0.0172  0.0111  0.1829 -0.1538
  28.  H12 (s)     -0.0004  0.0122  0.0215 -0.0538  0.0147  0.0109  0.1786  0.1171

           AO          9      10      11      12      13      14      15      16
      ------------ ------- ------- ------- ------- ------- ------- ------- -------
   1.  O 1 (s)      0.0612 -0.0248  0.0970  0.0082  0.0000  0.0031  0.0042  0.0055
   2.  O 1 (s)      0.6998 -0.2858  1.0102  0.1314  0.0008  0.0667  0.0603  0.0977
   3.  O 1 (px)     0.0161 -0.0174  1.0351  0.0160 -0.0009 -0.0506 -0.0232 -0.0858
   4.  O 1 (py)    -0.7941  0.4440  0.4734 -0.0846 -0.0012 -0.0825 -0.0819 -0.1093
   5.  O 1 (pz)     0.4815  0.1362  0.3754  0.0674  0.0000  0.0077  0.0107  0.0079
   6.  C 2 (s)      0.0013 -0.0010  0.0183  0.1146  0.0002  0.0544  0.0764  0.0350
   7.  C 2 (s)     -0.0597  0.0424  0.2414  1.0762  0.0542  0.6603  0.7031  0.3179
   8.  C 2 (px)    -0.0072  0.0097  0.1523  0.0125 -0.0767 -0.6985 -0.6205 -0.4457
   9.  C 2 (py)     1.4056  0.0618  0.2075  0.0491 -0.0351 -0.3244 -0.4626  0.1459
  10.  C 2 (pz)     0.0618  1.5754  0.0017  1.2437 -0.0265 -0.2465 -0.3450 -0.1537
  11.  H 3 (s)      0.2075  0.0017  1.4632  0.1155 -0.0005  0.0372  0.0551  0.0352
  12.  H 4 (s)      0.0491  1.2437  0.1155  1.6364  0.0114  0.1980  0.1438  0.0725
  13.  C 5 (s)     -0.0351 -0.0265 -0.0005  0.0114  1.9995  0.5048  0.0005  0.0001
  14.  C 5 (s)     -0.3244 -0.2465  0.0372  0.1980  0.5048  1.8685 -0.0176 -0.0068
  15.  C 5 (px)    -0.4626 -0.3450  0.0551  0.1438  0.0005 -0.0176  1.5699 -0.0218
  16.  C 5 (py)     0.1459 -0.1537  0.0352  0.0725  0.0001 -0.0068 -0.0218  1.6009
  17.  C 5 (pz)    -0.1602  0.2397  0.0161  0.2008  0.0002 -0.0069 -0.0174 -0.0056
  18.  C 6 (s)     -0.0460 -0.0269  0.0033  0.0114  0.0000  0.0027  0.0061 -0.0003
  19.  C 6 (s)     -0.4249 -0.2538  0.0847  0.1919  0.0027  0.0954  0.1464 -0.0143
  20.  C 6 (px)     0.5468  0.3237  0.0042 -0.1190 -0.0060 -0.1482 -0.2088  0.0302
  21.  C 6 (py)    -0.0103 -0.2126  0.1142  0.0880  0.0007  0.0094  0.0053  0.0239
  22.  C 6 (pz)    -0.2147  0.2273  0.0079  0.1968  0.0002 -0.0011 -0.0095 -0.0072
  23.  H 7 (s)     -0.0641 -0.2017  0.0190  0.0719  0.1167  1.0873 -0.0243 -0.0525
  24.  H 8 (s)     -0.0852 -0.2006  0.0440  0.0715  0.0022  0.0535  0.0617 -0.0171
  25.  H 9 (s)      0.0297 -0.0031  0.0191  0.0818  0.1170  1.0896 -0.9568  0.7095
  26.  H10 (s)     -0.0114 -0.0052  0.1112  0.0786 -0.0008  0.0266  0.0477  0.0190
  27.  H11 (s)     -0.2181  0.0156 -0.0240  0.0813  0.1166  1.0873 -0.1445 -1.1599
  28.  H12 (s)     -0.2373  0.0139 -0.0045  0.0808  0.0019  0.0498  0.0562 -0.0437

           AO         17      18      19      20      21      22      23      24
      ------------ ------- ------- ------- ------- ------- ------- ------- -------
   1.  O 1 (s)      0.0000  0.0000  0.0021 -0.0024  0.0044 -0.0001  0.0021  0.0016
   2.  O 1 (s)     -0.0084  0.0003  0.0582 -0.0502  0.0881 -0.0017  0.0371  0.0315
   3.  O 1 (px)     0.0114  0.0013  0.0248 -0.0002  0.0565 -0.0169 -0.0297  0.0186
   4.  O 1 (py)     0.0113 -0.0016 -0.0582  0.0244 -0.0913  0.0252 -0.0197 -0.0149
   5.  O 1 (pz)     0.0238 -0.0003  0.0112 -0.0212  0.0129  0.0222 -0.0282 -0.0241
   6.  C 2 (s)      0.0267  0.0002  0.0535 -0.0686  0.0458  0.0270  0.0114  0.0112
   7.  C 2 (s)      0.2487  0.0533  0.6562 -0.6389  0.4237  0.2566  0.2008  0.1986
   8.  C 2 (px)    -0.3459  0.0688  0.6356 -0.4560  0.5416  0.3264 -0.1439  0.1296
   9.  C 2 (py)    -0.1602 -0.0460 -0.4249  0.5468 -0.0103 -0.2147 -0.0641 -0.0852
  10.  C 2 (pz)     0.2397 -0.0269 -0.2538  0.3237 -0.2126  0.2273 -0.2017 -0.2006
  11.  H 3 (s)      0.0161  0.0033  0.0847  0.0042  0.1142  0.0079  0.0190  0.0440
  12.  H 4 (s)      0.2008  0.0114  0.1919 -0.1190  0.0880  0.1968  0.0719  0.0715
  13.  C 5 (s)      0.0002  0.0000  0.0027 -0.0060  0.0007  0.0002  0.1167  0.0022
  14.  C 5 (s)     -0.0069  0.0027  0.0954 -0.1482  0.0094 -0.0011  1.0873  0.0535
  15.  C 5 (px)    -0.0174  0.0061  0.1464 -0.2088  0.0053 -0.0095 -0.0243  0.0617
  16.  C 5 (py)    -0.0056 -0.0003 -0.0143  0.0302  0.0239 -0.0072 -0.0525 -0.0171
  17.  C 5 (pz)     1.6075  0.0001 -0.0029  0.0102 -0.0084  0.0267 -1.2526 -0.0431
  18.  C 6 (s)      0.0001  1.9995  0.5048 -0.0002  0.0002  0.0002  0.0022  0.1167
  19.  C 6 (s)     -0.0029  0.5048  1.8686  0.0134 -0.0092 -0.0073  0.0534  1.0872
  20.  C 6 (px)     0.0102 -0.0002  0.0134  1.5752  0.0179  0.0130 -0.0641  0.0028
  21.  C 6 (py)    -0.0084  0.0002 -0.0092  0.0179  1.5955 -0.0105 -0.0075 -0.0515
  22.  C 6 (pz)     0.0267  0.0002 -0.0073  0.0130 -0.0105  1.6065 -0.0427 -1.2530
  23.  H 7 (s)     -1.2526  0.0022  0.0534 -0.0641 -0.0075 -0.0427  1.6331  0.0906
  24.  H 8 (s)     -0.0431  0.1167  1.0872  0.0028 -0.0515 -1.2530  0.0906  1.6332
  25.  H 9 (s)      0.3886 -0.0007  0.0266 -0.0424  0.0260  0.0151  0.3342  0.0074
  26.  H10 (s)      0.0145  0.1161  1.0853  1.0681  0.5376  0.3771  0.0074  0.3318
  27.  H11 (s)      0.4555  0.0019  0.0509 -0.0633 -0.0344  0.0060  0.3291  0.0266
  28.  H12 (s)      0.0047  0.1164  1.0868 -0.0295 -1.1694  0.4521  0.0266  0.3298

           AO         25      26      27      28
      ------------ ------- ------- ------- -------
   1.  O 1 (s)      0.0023  0.0016 -0.0006 -0.0004
   2.  O 1 (s)      0.0398  0.0278  0.0176  0.0122
   3.  O 1 (px)    -0.0468  0.0315 -0.0013  0.0215
   4.  O 1 (py)    -0.0082 -0.0032 -0.0445 -0.0538
   5.  O 1 (pz)    -0.0018 -0.0030  0.0172  0.0147
   6.  C 2 (s)      0.0112  0.0108  0.0111  0.0109
   7.  C 2 (s)      0.1961  0.1885  0.1829  0.1786
   8.  C 2 (px)    -0.2577  0.2471 -0.1538  0.1171
   9.  C 2 (py)     0.0297 -0.0114 -0.2181 -0.2373
  10.  C 2 (pz)    -0.0031 -0.0052  0.0156  0.0139
  11.  H 3 (s)      0.0191  0.1112 -0.0240 -0.0045
  12.  H 4 (s)      0.0818  0.0786  0.0813  0.0808
  13.  C 5 (s)      0.1170 -0.0008  0.1166  0.0019
  14.  C 5 (s)      1.0896  0.0266  1.0873  0.0498
  15.  C 5 (px)    -0.9568  0.0477 -0.1445  0.0562
  16.  C 5 (py)     0.7095  0.0190 -1.1599 -0.0437
  17.  C 5 (pz)     0.3886  0.0145  0.4555  0.0047
  18.  C 6 (s)     -0.0007  0.1161  0.0019  0.1164
  19.  C 6 (s)      0.0266  1.0853  0.0509  1.0868
  20.  C 6 (px)    -0.0424  1.0681 -0.0633 -0.0295
  21.  C 6 (py)     0.0260  0.5376 -0.0344 -1.1694
  22.  C 6 (pz)     0.0151  0.3771  0.0060  0.4521
  23.  H 7 (s)      0.3342  0.0074  0.3291  0.0266
  24.  H 8 (s)      0.0074  0.3318  0.0266  0.3298
  25.  H 9 (s)      1.6320 -0.0167  0.3296  0.0077
  26.  H10 (s)     -0.0167  1.6376  0.0072  0.3365
  27.  H11 (s)      0.3296  0.0072  1.6357  0.0744
  28.  H12 (s)      0.0077  0.3365  0.0744  1.6334


 MO density matrix:

      MO     1       2       3       4       5       6       7       8       9
     ---- ------  ------  ------  ------  ------  ------  ------  ------  ------
   1.     2.0000  0.0000  0.0000  0.0000  0.0000  0.0000  0.0000  0.0000  0.0000
   2.     0.0000  2.0000  0.0000  0.0000  0.0000  0.0000  0.0000  0.0000  0.0000
   3.     0.0000  0.0000  2.0000  0.0000  0.0000  0.0000  0.0000  0.0000  0.0000
   4.     0.0000  0.0000  0.0000  2.0000  0.0000  0.0000  0.0000  0.0000  0.0000
   5.     0.0000  0.0000  0.0000  0.0000  2.0000  0.0000  0.0000  0.0000  0.0000
   6.     0.0000  0.0000  0.0000  0.0000  0.0000  2.0000  0.0000  0.0000  0.0000
   7.     0.0000  0.0000  0.0000  0.0000  0.0000  0.0000  2.0000  0.0000  0.0000
   8.     0.0000  0.0000  0.0000  0.0000  0.0000  0.0000  0.0000  2.0000  0.0000
   9.     0.0000  0.0000  0.0000  0.0000  0.0000  0.0000  0.0000  0.0000  2.0000
  10.     0.0000  0.0000  0.0000  0.0000  0.0000  0.0000  0.0000  0.0000  0.0000
  11.     0.0000  0.0000  0.0000  0.0000  0.0000  0.0000  0.0000  0.0000  0.0000
  12.     0.0000  0.0000  0.0000  0.0000  0.0000  0.0000  0.0000  0.0000  0.0000
  13.     0.0000  0.0000  0.0000  0.0000  0.0000  0.0000  0.0000  0.0000  0.0000
  14.     0.0000  0.0000  0.0000  0.0000  0.0000  0.0000  0.0000  0.0000  0.0000
  15.     0.0000  0.0000  0.0000  0.0000  0.0000  0.0000  0.0000  0.0000  0.0000
  16.     0.0000  0.0000  0.0000  0.0000  0.0000  0.0000  0.0000  0.0000  0.0000
  17.     0.0000  0.0000  0.0000  0.0000  0.0000  0.0000  0.0000  0.0000  0.0000
  18.     0.0000  0.0000  0.0000  0.0000  0.0000  0.0000  0.0000  0.0000  0.0000
  19.     0.0000  0.0000  0.0000  0.0000  0.0000  0.0000  0.0000  0.0000  0.0000
  20.     0.0000  0.0000  0.0000  0.0000  0.0000  0.0000  0.0000  0.0000  0.0000
  21.     0.0000  0.0000  0.0000  0.0000  0.0000  0.0000  0.0000  0.0000  0.0000
  22.     0.0000  0.0000  0.0000  0.0000  0.0000  0.0000  0.0000  0.0000  0.0000
  23.     0.0000  0.0000  0.0000  0.0000  0.0000  0.0000  0.0000  0.0000  0.0000
  24.     0.0000  0.0000  0.0000  0.0000  0.0000  0.0000  0.0000  0.0000  0.0000
  25.     0.0000  0.0000  0.0000  0.0000  0.0000  0.0000  0.0000  0.0000  0.0000
  26.     0.0000  0.0000  0.0000  0.0000  0.0000  0.0000  0.0000  0.0000  0.0000
  27.     0.0000  0.0000  0.0000  0.0000  0.0000  0.0000  0.0000  0.0000  0.0000
  28.     0.0000  0.0000  0.0000  0.0000  0.0000  0.0000  0.0000  0.0000  0.0000

      MO    10      11      12      13      14      15      16      17      18
     ---- ------  ------  ------  ------  ------  ------  ------  ------  ------
   1.     0.0000  0.0000  0.0000  0.0000  0.0000  0.0000  0.0000  0.0000  0.0000
   2.     0.0000  0.0000  0.0000  0.0000  0.0000  0.0000  0.0000  0.0000  0.0000
   3.     0.0000  0.0000  0.0000  0.0000  0.0000  0.0000  0.0000  0.0000  0.0000
   4.     0.0000  0.0000  0.0000  0.0000  0.0000  0.0000  0.0000  0.0000  0.0000
   5.     0.0000  0.0000  0.0000  0.0000  0.0000  0.0000  0.0000  0.0000  0.0000
   6.     0.0000  0.0000  0.0000  0.0000  0.0000  0.0000  0.0000  0.0000  0.0000
   7.     0.0000  0.0000  0.0000  0.0000  0.0000  0.0000  0.0000  0.0000  0.0000
   8.     0.0000  0.0000  0.0000  0.0000  0.0000  0.0000  0.0000  0.0000  0.0000
   9.     0.0000  0.0000  0.0000  0.0000  0.0000  0.0000  0.0000  0.0000  0.0000
  10.     2.0000  0.0000  0.0000  0.0000  0.0000  0.0000  0.0000  0.0000  0.0000
  11.     0.0000  2.0000  0.0000  0.0000  0.0000  0.0000  0.0000  0.0000  0.0000
  12.     0.0000  0.0000  2.0000  0.0000  0.0000  0.0000  0.0000  0.0000  0.0000
  13.     0.0000  0.0000  0.0000  2.0000  0.0000  0.0000  0.0000  0.0000  0.0000
  14.     0.0000  0.0000  0.0000  0.0000  2.0000  0.0000  0.0000  0.0000  0.0000
  15.     0.0000  0.0000  0.0000  0.0000  0.0000  2.0000  0.0000  0.0000  0.0000
  16.     0.0000  0.0000  0.0000  0.0000  0.0000  0.0000  2.0000  0.0000  0.0000
  17.     0.0000  0.0000  0.0000  0.0000  0.0000  0.0000  0.0000  2.0000  0.0000
  18.     0.0000  0.0000  0.0000  0.0000  0.0000  0.0000  0.0000  0.0000  0.0000
  19.     0.0000  0.0000  0.0000  0.0000  0.0000  0.0000  0.0000  0.0000  0.0000
  20.     0.0000  0.0000  0.0000  0.0000  0.0000  0.0000  0.0000  0.0000  0.0000
  21.     0.0000  0.0000  0.0000  0.0000  0.0000  0.0000  0.0000  0.0000  0.0000
  22.     0.0000  0.0000  0.0000  0.0000  0.0000  0.0000  0.0000  0.0000  0.0000
  23.     0.0000  0.0000  0.0000  0.0000  0.0000  0.0000  0.0000  0.0000  0.0000
  24.     0.0000  0.0000  0.0000  0.0000  0.0000  0.0000  0.0000  0.0000  0.0000
  25.     0.0000  0.0000  0.0000  0.0000  0.0000  0.0000  0.0000  0.0000  0.0000
  26.     0.0000  0.0000  0.0000  0.0000  0.0000  0.0000  0.0000  0.0000  0.0000
  27.     0.0000  0.0000  0.0000  0.0000  0.0000  0.0000  0.0000  0.0000  0.0000
  28.     0.0000  0.0000  0.0000  0.0000  0.0000  0.0000  0.0000  0.0000  0.0000

      MO    19      20      21      22      23      24      25      26      27
     ---- ------  ------  ------  ------  ------  ------  ------  ------  ------
   1.     0.0000  0.0000  0.0000  0.0000  0.0000  0.0000  0.0000  0.0000  0.0000
   2.     0.0000  0.0000  0.0000  0.0000  0.0000  0.0000  0.0000  0.0000  0.0000
   3.     0.0000  0.0000  0.0000  0.0000  0.0000  0.0000  0.0000  0.0000  0.0000
   4.     0.0000  0.0000  0.0000  0.0000  0.0000  0.0000  0.0000  0.0000  0.0000
   5.     0.0000  0.0000  0.0000  0.0000  0.0000  0.0000  0.0000  0.0000  0.0000
   6.     0.0000  0.0000  0.0000  0.0000  0.0000  0.0000  0.0000  0.0000  0.0000
   7.     0.0000  0.0000  0.0000  0.0000  0.0000  0.0000  0.0000  0.0000  0.0000
   8.     0.0000  0.0000  0.0000  0.0000  0.0000  0.0000  0.0000  0.0000  0.0000
   9.     0.0000  0.0000  0.0000  0.0000  0.0000  0.0000  0.0000  0.0000  0.0000
  10.     0.0000  0.0000  0.0000  0.0000  0.0000  0.0000  0.0000  0.0000  0.0000
  11.     0.0000  0.0000  0.0000  0.0000  0.0000  0.0000  0.0000  0.0000  0.0000
  12.     0.0000  0.0000  0.0000  0.0000  0.0000  0.0000  0.0000  0.0000  0.0000
  13.     0.0000  0.0000  0.0000  0.0000  0.0000  0.0000  0.0000  0.0000  0.0000
  14.     0.0000  0.0000  0.0000  0.0000  0.0000  0.0000  0.0000  0.0000  0.0000
  15.     0.0000  0.0000  0.0000  0.0000  0.0000  0.0000  0.0000  0.0000  0.0000
  16.     0.0000  0.0000  0.0000  0.0000  0.0000  0.0000  0.0000  0.0000  0.0000
  17.     0.0000  0.0000  0.0000  0.0000  0.0000  0.0000  0.0000  0.0000  0.0000
  18.     0.0000  0.0000  0.0000  0.0000  0.0000  0.0000  0.0000  0.0000  0.0000
  19.     0.0000  0.0000  0.0000  0.0000  0.0000  0.0000  0.0000  0.0000  0.0000
  20.     0.0000  0.0000  0.0000  0.0000  0.0000  0.0000  0.0000  0.0000  0.0000
  21.     0.0000  0.0000  0.0000  0.0000  0.0000  0.0000  0.0000  0.0000  0.0000
  22.     0.0000  0.0000  0.0000  0.0000  0.0000  0.0000  0.0000  0.0000  0.0000
  23.     0.0000  0.0000  0.0000  0.0000  0.0000  0.0000  0.0000  0.0000  0.0000
  24.     0.0000  0.0000  0.0000  0.0000  0.0000  0.0000  0.0000  0.0000  0.0000
  25.     0.0000  0.0000  0.0000  0.0000  0.0000  0.0000  0.0000  0.0000  0.0000
  26.     0.0000  0.0000  0.0000  0.0000  0.0000  0.0000  0.0000  0.0000  0.0000
  27.     0.0000  0.0000  0.0000  0.0000  0.0000  0.0000  0.0000  0.0000  0.0000
  28.     0.0000  0.0000  0.0000  0.0000  0.0000  0.0000  0.0000  0.0000  0.0000

      MO    28
     ---- ------
   1.     0.0000
   2.     0.0000
   3.     0.0000
   4.     0.0000
   5.     0.0000
   6.     0.0000
   7.     0.0000
   8.     0.0000
   9.     0.0000
  10.     0.0000
  11.     0.0000
  12.     0.0000
  13.     0.0000
  14.     0.0000
  15.     0.0000
  16.     0.0000
  17.     0.0000
  18.     0.0000
  19.     0.0000
  20.     0.0000
  21.     0.0000
  22.     0.0000
  23.     0.0000
  24.     0.0000
  25.     0.0000
  26.     0.0000
  27.     0.0000
  28.     0.0000


 NATURAL POPULATIONS:  Natural atomic orbital occupancies

  NAO Atom No lang   Type(AO)    Occupancy      Energy
 -------------------------------------------------------
   1    O  1  s      Cor( 1s)     2.00000     -20.17335
   2    O  1  s      Val( 2s)     1.75789      -0.98542
   3    O  1  px     Val( 2p)     1.48614      -0.18293
   4    O  1  py     Val( 2p)     1.27143      -0.07991
   5    O  1  pz     Val( 2p)     1.81489      -0.31130

   6    C  2  s      Cor( 1s)     1.99999     -11.08473
   7    C  2  s      Val( 2s)     1.07583      -0.18544
   8    C  2  px     Val( 2p)     0.96058       0.09539
   9    C  2  py     Val( 2p)     0.83347       0.12032
  10    C  2  pz     Val( 2p)     0.96367       0.09520

  11    H  3  s      Val( 1s)     0.81174       0.07823

  12    H  4  s      Val( 1s)     0.99116       0.05335

  13    C  5  s      Cor( 1s)     2.00000     -11.02204
  14    C  5  s      Val( 2s)     1.08589      -0.15932
  15    C  5  px     Val( 2p)     1.00485       0.08260
  16    C  5  py     Val( 2p)     1.02509       0.08311
  17    C  5  pz     Val( 2p)     1.03543       0.07707

  18    C  6  s      Cor( 1s)     2.00000     -11.02644
  19    C  6  s      Val( 2s)     1.09023      -0.16986
  20    C  6  px     Val( 2p)     1.00879       0.07672
  21    C  6  py     Val( 2p)     1.02550       0.07217
  22    C  6  pz     Val( 2p)     1.03560       0.07012

  23    H  7  s      Val( 1s)     0.95134       0.08861

  24    H  8  s      Val( 1s)     0.95175       0.08173

  25    H  9  s      Val( 1s)     0.94883       0.09046

  26    H 10  s      Val( 1s)     0.96101       0.07018

  27    H 11  s      Val( 1s)     0.95599       0.07954

  28    H 12  s      Val( 1s)     0.95293       0.07606


 Summary of Natural Population Analysis:

                                     Natural Population
             Natural    ---------------------------------------------
  Atom No    Charge        Core      Valence    Rydberg      Total
 --------------------------------------------------------------------
    O  1   -0.33034      2.00000     6.33035    0.00000     8.33034
    C  2    0.16647      1.99999     3.83354    0.00000     5.83353
    H  3    0.18826      0.00000     0.81174    0.00000     0.81174
    H  4    0.00884      0.00000     0.99116    0.00000     0.99116
    C  5   -0.15125      2.00000     4.15126    0.00000     6.15125
    C  6   -0.16012      2.00000     4.16012    0.00000     6.16012
    H  7    0.04866      0.00000     0.95134    0.00000     0.95134
    H  8    0.04825      0.00000     0.95175    0.00000     0.95175
    H  9    0.05117      0.00000     0.94883    0.00000     0.94883
    H 10    0.03899      0.00000     0.96101    0.00000     0.96101
    H 11    0.04401      0.00000     0.95599    0.00000     0.95599
    H 12    0.04707      0.00000     0.95293    0.00000     0.95293
 ====================================================================
 * Total *  0.00000      7.99998    26.00002    0.00000    34.00000

                                 Natural Population
 ---------------------------------------------------------
   Core                       7.99998 ( 99.9998% of    8)
   Valence                   26.00002 (100.0001% of   26)
   Natural Minimal Basis     34.00000 (100.0000% of   34)
   Natural Rydberg Basis      0.00000 (  0.0000% of   34)
 ---------------------------------------------------------

    Atom No         Natural Electron Configuration
 ----------------------------------------------------------------------------
      O  1      [core]2s( 1.76)2p( 4.57)
      C  2      [core]2s( 1.08)2p( 2.76)
      H  3            1s( 0.81)
      H  4            1s( 0.99)
      C  5      [core]2s( 1.09)2p( 3.07)
      C  6      [core]2s( 1.09)2p( 3.07)
      H  7            1s( 0.95)
      H  8            1s( 0.95)
      H  9            1s( 0.95)
      H 10            1s( 0.96)
      H 11            1s( 0.96)
      H 12            1s( 0.95)


 PNAOs in the AO basis:

           AO          1       2       3       4       5       6       7       8
      ------------ ------- ------- ------- ------- ------- ------- ------- -------
   1.  O 1 (s)      0.9774 -0.3224  0.0000  0.0000  0.0000  0.0000  0.0000  0.0000
   2.  O 1 (s)      0.0819  1.0260  0.0000  0.0000  0.0000  0.0000  0.0000  0.0000
   3.  O 1 (px)     0.0000  0.0000  1.0000  0.0000  0.0000  0.0000  0.0000  0.0000
   4.  O 1 (py)     0.0000  0.0000  0.0000  1.0000  0.0000  0.0000  0.0000  0.0000
   5.  O 1 (pz)     0.0000  0.0000  0.0000  0.0000  1.0000  0.0000  0.0000  0.0000
   6.  C 2 (s)      0.0000  0.0000  0.0000  0.0000  0.0000  0.9858 -0.3066  0.0000
   7.  C 2 (s)      0.0000  0.0000  0.0000  0.0000  0.0000  0.0522  1.0310  0.0000
   8.  C 2 (px)     0.0000  0.0000  0.0000  0.0000  0.0000  0.0000  0.0000  1.0000
   9.  C 2 (py)     0.0000  0.0000  0.0000  0.0000  0.0000  0.0000  0.0000  0.0000
  10.  C 2 (pz)     0.0000  0.0000  0.0000  0.0000  0.0000  0.0000  0.0000  0.0000
  11.  H 3 (s)      0.0000  0.0000  0.0000  0.0000  0.0000  0.0000  0.0000  0.0000
  12.  H 4 (s)      0.0000  0.0000  0.0000  0.0000  0.0000  0.0000  0.0000  0.0000
  13.  C 5 (s)      0.0000  0.0000  0.0000  0.0000  0.0000  0.0000  0.0000  0.0000
  14.  C 5 (s)      0.0000  0.0000  0.0000  0.0000  0.0000  0.0000  0.0000  0.0000
  15.  C 5 (px)     0.0000  0.0000  0.0000  0.0000  0.0000  0.0000  0.0000  0.0000
  16.  C 5 (py)     0.0000  0.0000  0.0000  0.0000  0.0000  0.0000  0.0000  0.0000
  17.  C 5 (pz)     0.0000  0.0000  0.0000  0.0000  0.0000  0.0000  0.0000  0.0000
  18.  C 6 (s)      0.0000  0.0000  0.0000  0.0000  0.0000  0.0000  0.0000  0.0000
  19.  C 6 (s)      0.0000  0.0000  0.0000  0.0000  0.0000  0.0000  0.0000  0.0000
  20.  C 6 (px)     0.0000  0.0000  0.0000  0.0000  0.0000  0.0000  0.0000  0.0000
  21.  C 6 (py)     0.0000  0.0000  0.0000  0.0000  0.0000  0.0000  0.0000  0.0000
  22.  C 6 (pz)     0.0000  0.0000  0.0000  0.0000  0.0000  0.0000  0.0000  0.0000
  23.  H 7 (s)      0.0000  0.0000  0.0000  0.0000  0.0000  0.0000  0.0000  0.0000
  24.  H 8 (s)      0.0000  0.0000  0.0000  0.0000  0.0000  0.0000  0.0000  0.0000
  25.  H 9 (s)      0.0000  0.0000  0.0000  0.0000  0.0000  0.0000  0.0000  0.0000
  26.  H10 (s)      0.0000  0.0000  0.0000  0.0000  0.0000  0.0000  0.0000  0.0000
  27.  H11 (s)      0.0000  0.0000  0.0000  0.0000  0.0000  0.0000  0.0000  0.0000
  28.  H12 (s)      0.0000  0.0000  0.0000  0.0000  0.0000  0.0000  0.0000  0.0000

           AO          9      10      11      12      13      14      15      16
      ------------ ------- ------- ------- ------- ------- ------- ------- -------
   1.  O 1 (s)      0.0000  0.0000  0.0000  0.0000  0.0000  0.0000  0.0000  0.0000
   2.  O 1 (s)      0.0000  0.0000  0.0000  0.0000  0.0000  0.0000  0.0000  0.0000
   3.  O 1 (px)     0.0000  0.0000  0.0000  0.0000  0.0000  0.0000  0.0000  0.0000
   4.  O 1 (py)     0.0000  0.0000  0.0000  0.0000  0.0000  0.0000  0.0000  0.0000
   5.  O 1 (pz)     0.0000  0.0000  0.0000  0.0000  0.0000  0.0000  0.0000  0.0000
   6.  C 2 (s)      0.0000  0.0000  0.0000  0.0000  0.0000  0.0000  0.0000  0.0000
   7.  C 2 (s)      0.0000  0.0000  0.0000  0.0000  0.0000  0.0000  0.0000  0.0000
   8.  C 2 (px)     0.0000  0.0000  0.0000  0.0000  0.0000  0.0000  0.0000  0.0000
   9.  C 2 (py)     1.0000  0.0000  0.0000  0.0000  0.0000  0.0000  0.0000  0.0000
  10.  C 2 (pz)     0.0000  1.0000  0.0000  0.0000  0.0000  0.0000  0.0000  0.0000
  11.  H 3 (s)      0.0000  0.0000  1.0000  0.0000  0.0000  0.0000  0.0000  0.0000
  12.  H 4 (s)      0.0000  0.0000  0.0000  1.0000  0.0000  0.0000  0.0000  0.0000
  13.  C 5 (s)      0.0000  0.0000  0.0000  0.0000  0.9833 -0.3145  0.0000  0.0000
  14.  C 5 (s)      0.0000  0.0000  0.0000  0.0000  0.0605  1.0306  0.0000  0.0000
  15.  C 5 (px)     0.0000  0.0000  0.0000  0.0000  0.0000  0.0000  1.0000  0.0000
  16.  C 5 (py)     0.0000  0.0000  0.0000  0.0000  0.0000  0.0000  0.0000  1.0000
  17.  C 5 (pz)     0.0000  0.0000  0.0000  0.0000  0.0000  0.0000  0.0000  0.0000
  18.  C 6 (s)      0.0000  0.0000  0.0000  0.0000  0.0000  0.0000  0.0000  0.0000
  19.  C 6 (s)      0.0000  0.0000  0.0000  0.0000  0.0000  0.0000  0.0000  0.0000
  20.  C 6 (px)     0.0000  0.0000  0.0000  0.0000  0.0000  0.0000  0.0000  0.0000
  21.  C 6 (py)     0.0000  0.0000  0.0000  0.0000  0.0000  0.0000  0.0000  0.0000
  22.  C 6 (pz)     0.0000  0.0000  0.0000  0.0000  0.0000  0.0000  0.0000  0.0000
  23.  H 7 (s)      0.0000  0.0000  0.0000  0.0000  0.0000  0.0000  0.0000  0.0000
  24.  H 8 (s)      0.0000  0.0000  0.0000  0.0000  0.0000  0.0000  0.0000  0.0000
  25.  H 9 (s)      0.0000  0.0000  0.0000  0.0000  0.0000  0.0000  0.0000  0.0000
  26.  H10 (s)      0.0000  0.0000  0.0000  0.0000  0.0000  0.0000  0.0000  0.0000
  27.  H11 (s)      0.0000  0.0000  0.0000  0.0000  0.0000  0.0000  0.0000  0.0000
  28.  H12 (s)      0.0000  0.0000  0.0000  0.0000  0.0000  0.0000  0.0000  0.0000

           AO         17      18      19      20      21      22      23      24
      ------------ ------- ------- ------- ------- ------- ------- ------- -------
   1.  O 1 (s)      0.0000  0.0000  0.0000  0.0000  0.0000  0.0000  0.0000  0.0000
   2.  O 1 (s)      0.0000  0.0000  0.0000  0.0000  0.0000  0.0000  0.0000  0.0000
   3.  O 1 (px)     0.0000  0.0000  0.0000  0.0000  0.0000  0.0000  0.0000  0.0000
   4.  O 1 (py)     0.0000  0.0000  0.0000  0.0000  0.0000  0.0000  0.0000  0.0000
   5.  O 1 (pz)     0.0000  0.0000  0.0000  0.0000  0.0000  0.0000  0.0000  0.0000
   6.  C 2 (s)      0.0000  0.0000  0.0000  0.0000  0.0000  0.0000  0.0000  0.0000
   7.  C 2 (s)      0.0000  0.0000  0.0000  0.0000  0.0000  0.0000  0.0000  0.0000
   8.  C 2 (px)     0.0000  0.0000  0.0000  0.0000  0.0000  0.0000  0.0000  0.0000
   9.  C 2 (py)     0.0000  0.0000  0.0000  0.0000  0.0000  0.0000  0.0000  0.0000
  10.  C 2 (pz)     0.0000  0.0000  0.0000  0.0000  0.0000  0.0000  0.0000  0.0000
  11.  H 3 (s)      0.0000  0.0000  0.0000  0.0000  0.0000  0.0000  0.0000  0.0000
  12.  H 4 (s)      0.0000  0.0000  0.0000  0.0000  0.0000  0.0000  0.0000  0.0000
  13.  C 5 (s)      0.0000  0.0000  0.0000  0.0000  0.0000  0.0000  0.0000  0.0000
  14.  C 5 (s)      0.0000  0.0000  0.0000  0.0000  0.0000  0.0000  0.0000  0.0000
  15.  C 5 (px)     0.0000  0.0000  0.0000  0.0000  0.0000  0.0000  0.0000  0.0000
  16.  C 5 (py)     0.0000  0.0000  0.0000  0.0000  0.0000  0.0000  0.0000  0.0000
  17.  C 5 (pz)     1.0000  0.0000  0.0000  0.0000  0.0000  0.0000  0.0000  0.0000
  18.  C 6 (s)      0.0000  0.9833 -0.3145  0.0000  0.0000  0.0000  0.0000  0.0000
  19.  C 6 (s)      0.0000  0.0604  1.0306  0.0000  0.0000  0.0000  0.0000  0.0000
  20.  C 6 (px)     0.0000  0.0000  0.0000  1.0000  0.0000  0.0000  0.0000  0.0000
  21.  C 6 (py)     0.0000  0.0000  0.0000  0.0000  1.0000  0.0000  0.0000  0.0000
  22.  C 6 (pz)     0.0000  0.0000  0.0000  0.0000  0.0000  1.0000  0.0000  0.0000
  23.  H 7 (s)      0.0000  0.0000  0.0000  0.0000  0.0000  0.0000  1.0000  0.0000
  24.  H 8 (s)      0.0000  0.0000  0.0000  0.0000  0.0000  0.0000  0.0000  1.0000
  25.  H 9 (s)      0.0000  0.0000  0.0000  0.0000  0.0000  0.0000  0.0000  0.0000
  26.  H10 (s)      0.0000  0.0000  0.0000  0.0000  0.0000  0.0000  0.0000  0.0000
  27.  H11 (s)      0.0000  0.0000  0.0000  0.0000  0.0000  0.0000  0.0000  0.0000
  28.  H12 (s)      0.0000  0.0000  0.0000  0.0000  0.0000  0.0000  0.0000  0.0000

           AO         25      26      27      28
      ------------ ------- ------- ------- -------
   1.  O 1 (s)      0.0000  0.0000  0.0000  0.0000
   2.  O 1 (s)      0.0000  0.0000  0.0000  0.0000
   3.  O 1 (px)     0.0000  0.0000  0.0000  0.0000
   4.  O 1 (py)     0.0000  0.0000  0.0000  0.0000
   5.  O 1 (pz)     0.0000  0.0000  0.0000  0.0000
   6.  C 2 (s)      0.0000  0.0000  0.0000  0.0000
   7.  C 2 (s)      0.0000  0.0000  0.0000  0.0000
   8.  C 2 (px)     0.0000  0.0000  0.0000  0.0000
   9.  C 2 (py)     0.0000  0.0000  0.0000  0.0000
  10.  C 2 (pz)     0.0000  0.0000  0.0000  0.0000
  11.  H 3 (s)      0.0000  0.0000  0.0000  0.0000
  12.  H 4 (s)      0.0000  0.0000  0.0000  0.0000
  13.  C 5 (s)      0.0000  0.0000  0.0000  0.0000
  14.  C 5 (s)      0.0000  0.0000  0.0000  0.0000
  15.  C 5 (px)     0.0000  0.0000  0.0000  0.0000
  16.  C 5 (py)     0.0000  0.0000  0.0000  0.0000
  17.  C 5 (pz)     0.0000  0.0000  0.0000  0.0000
  18.  C 6 (s)      0.0000  0.0000  0.0000  0.0000
  19.  C 6 (s)      0.0000  0.0000  0.0000  0.0000
  20.  C 6 (px)     0.0000  0.0000  0.0000  0.0000
  21.  C 6 (py)     0.0000  0.0000  0.0000  0.0000
  22.  C 6 (pz)     0.0000  0.0000  0.0000  0.0000
  23.  H 7 (s)      0.0000  0.0000  0.0000  0.0000
  24.  H 8 (s)      0.0000  0.0000  0.0000  0.0000
  25.  H 9 (s)      1.0000  0.0000  0.0000  0.0000
  26.  H10 (s)      0.0000  1.0000  0.0000  0.0000
  27.  H11 (s)      0.0000  0.0000  1.0000  0.0000
  28.  H12 (s)      0.0000  0.0000  0.0000  1.0000


 PNAO overlap matrix:

           NAO         1       2       3       4       5       6       7       8
      ------------ ------- ------- ------- ------- ------- ------- ------- -------
   1.  O 1( 1s )    1.0000  0.0000  0.0000  0.0000  0.0000  0.0036  0.0430  0.0012
   2.  O 1( 2s )    0.0000  1.0000  0.0000  0.0000  0.0000  0.0303  0.2561  0.0065
   3.  O 1( 2px)    0.0000  0.0000  1.0000  0.0000  0.0000 -0.0008 -0.0049  0.1316
   4.  O 1( 2py)    0.0000  0.0000  0.0000  1.0000  0.0000 -0.0400 -0.2301 -0.0076
   5.  O 1( 2pz)    0.0000  0.0000  0.0000  0.0000  1.0000  0.0162  0.0932  0.0031
   6.  C 2( 1s )    0.0036  0.0303 -0.0008 -0.0400  0.0162  1.0000  0.0000  0.0000
[...]
      Occupancy is 0.004 for antibonding component
            0.0000 0.0000 0.0000-0.6918 0.0000 0.7221
           NBO accepted:   22. Label:BD*( 1)   5  11
        2 eigenvector(s) stashed in permanent list

 Search of NHO DM block for the following atom(s):   6   8
      Select eigenvectors with eigenvalue > 1.900
       1.995 0.005 0.000 0.000 0.000 0.000
      Eigenvector ( 1) has occupancy 1.99466
            0.0000 0.7240 0.0000 0.0000 0.0000 0.6898
      Occupancy is 1.995 after deleting minor hybrid components
            0.0000 0.7240 0.0000 0.0000 0.0000 0.6898
           NBO accepted:   23. Label:BD ( 1)   6   8
      Occupancy is 0.005 for antibonding component
            0.0000-0.6898 0.0000 0.0000 0.0000 0.7240
           NBO accepted:   24. Label:BD*( 1)   6   8
        2 eigenvector(s) stashed in permanent list

 Search of NHO DM block for the following atom(s):   6  10
      Select eigenvectors with eigenvalue > 1.900
       1.994 0.005 0.000 0.000 0.000 0.000
      Eigenvector ( 1) has occupancy 1.99361
            0.0000 0.0000 0.0000 0.7206 0.0000 0.6933
      Occupancy is 1.994 after deleting minor hybrid components
            0.0000 0.0000 0.0000 0.7206 0.0000 0.6933
           NBO accepted:   25. Label:BD ( 1)   6  10
      Occupancy is 0.005 for antibonding component
            0.0000 0.0000 0.0000-0.6933 0.0000 0.7206
           NBO accepted:   26. Label:BD*( 1)   6  10
        2 eigenvector(s) stashed in permanent list

 Search of NHO DM block for the following atom(s):   6  12
      Select eigenvectors with eigenvalue > 1.900
       1.993 0.005 0.000 0.000 0.000 0.000
      Eigenvector ( 1) has occupancy 1.99319
            0.0000 0.0000 0.7233 0.0000 0.0000 0.6906
      Occupancy is 1.993 after deleting minor hybrid components
            0.0000 0.0000 0.7233 0.0000 0.0000 0.6906
           NBO accepted:   27. Label:BD ( 1)   6  12
      Occupancy is 0.005 for antibonding component
            0.0000 0.0000-0.6906 0.0000 0.0000 0.7233
           NBO accepted:   28. Label:BD*( 1)   6  12
        2 eigenvector(s) stashed in permanent list

  2-center NBOs projected from the NHO density matrix
       0.000 electrons remain in the fully projected matrix

                            Occupancies       Lewis Structure    Low   High
         Max    Occ     -------------------  -----------------   occ   occ
  Cycle  Ctr   Thresh    Lewis   non-Lewis     CR  BD  nC  LP    (L)   (NL)
 ============================================================================
    1     2     1.90    33.88278   0.11722      4  11   0   2     0      0
 ----------------------------------------------------------------------------

 Structure accepted: No low occupancy Lewis orbitals

 -------------------------------------------------------
   Core                      7.99998 (100.000% of   8)
   Valence Lewis            25.88280 ( 99.549% of  26)
  ==================      =============================
   Total Lewis              33.88278 ( 99.655% of  34)
  -----------------------------------------------------
   Valence non-Lewis         0.11722 (  0.345% of  34)
   Rydberg non-Lewis         0.00000 (  0.000% of  34)
  ==================      =============================
   Total non-Lewis           0.11722 (  0.345% of  34)
 -------------------------------------------------------


     (Occupancy)   Bond orbital / Coefficients / Hybrids
 ------------------ Lewis ------------------------------------------------------
   1. (2.00000) CR ( 1) O  1            s(100.00%)
                                         1.0000  0.0000  0.0000  0.0000  0.0000
   2. (1.99999) CR ( 1) C  2            s(100.00%)
                                         1.0000  0.0000  0.0000  0.0000  0.0000
   3. (2.00000) CR ( 1) C  5            s(100.00%)
                                         1.0000  0.0000  0.0000  0.0000  0.0000
   4. (2.00000) CR ( 1) C  6            s(100.00%)
                                         1.0000  0.0000  0.0000  0.0000  0.0000
   5. (1.99354) LP ( 1) O  1            s( 68.24%)p 0.47( 31.76%)
                                         0.0000  0.8261 -0.3988  0.2229 -0.3299
   6. (1.97526) LP ( 2) O  1            s(  0.01%)p99.99( 99.99%)
                                         0.0000  0.0107 -0.4604  0.3463  0.8173
   7. (1.98765) BD ( 1) O  1- C  2
               ( 58.72%)   0.7663* O  1 s( 15.64%)p 5.39( 84.36%)
                                         0.0000  0.3955  0.0419 -0.8380  0.3735
               ( 41.28%)   0.6425* C  2 s( 21.59%)p 3.63( 78.41%)
                                         0.0000  0.4647  0.0585  0.8231 -0.3212
   8. (1.99036) BD ( 1) O  1- H  3
               ( 59.43%)   0.7709* O  1 s( 16.10%)p 5.21( 83.90%)
                                         0.0000  0.4013  0.7920  0.3579  0.2892
               ( 40.57%)   0.6370* H  3 s(100.00%)
                                         1.0000
   9. (1.98912) BD ( 1) C  2- H  4
               ( 50.77%)   0.7126* C  2 s( 25.70%)p 2.89( 74.30%)
                                         0.0000  0.5069  0.0093  0.0489  0.8605
               ( 49.23%)   0.7016* H  4 s(100.00%)
                                         1.0000
  10. (1.99103) BD ( 1) C  2- C  5
               ( 49.54%)   0.7038* C  2 s( 26.39%)p 2.79( 73.61%)
                                         0.0000  0.5137 -0.7358 -0.3451 -0.2751
               ( 50.46%)   0.7104* C  5 s( 25.15%)p 2.98( 74.85%)
                                         0.0000  0.5015  0.7511  0.3360  0.2675
  11. (1.99256) BD ( 1) C  2- C  6
               ( 48.87%)   0.6991* C  2 s( 26.32%)p 2.80( 73.68%)
                                         0.0000  0.5130  0.6746 -0.4484 -0.2840
               ( 51.13%)   0.7150* C  6 s( 25.43%)p 2.93( 74.57%)
                                         0.0000  0.5043 -0.6807  0.4529  0.2780
  12. (1.99446) BD ( 1) C  5- H  7
               ( 52.44%)   0.7241* C  5 s( 24.80%)p 3.03( 75.20%)
                                         0.0000  0.4979 -0.0085 -0.0342 -0.8665
               ( 47.56%)   0.6897* H  7 s(100.00%)
                                         1.0000
  13. (1.99400) BD ( 1) C  5- H  9
               ( 52.53%)   0.7248* C  5 s( 25.08%)p 2.99( 74.92%)
                                         0.0000  0.5008 -0.6540  0.4960  0.2746
               ( 47.47%)   0.6890* H  9 s(100.00%)
                                         1.0000
  14. (1.99336) BD ( 1) C  5- H 11
               ( 52.14%)   0.7221* C  5 s( 24.98%)p 3.00( 75.02%)
                                         0.0000  0.4998 -0.0898 -0.8000  0.3197
               ( 47.86%)   0.6918* H 11 s(100.00%)
                                         1.0000
  15. (1.99466) BD ( 1) C  6- H  8
               ( 52.42%)   0.7240* C  6 s( 24.82%)p 3.03( 75.18%)
                                         0.0000  0.4982 -0.0060 -0.0319 -0.8664
               ( 47.58%)   0.6898* H  8 s(100.00%)
                                         1.0000
  16. (1.99361) BD ( 1) C  6- H 10
               ( 51.93%)   0.7206* C  6 s( 24.69%)p 3.05( 75.31%)
                                         0.0000  0.4969  0.7317  0.3829  0.2666
               ( 48.07%)   0.6933* H 10 s(100.00%)
                                         1.0000
  17. (1.99319) BD ( 1) C  6- H 12
               ( 52.31%)   0.7233* C  6 s( 25.06%)p 2.99( 74.94%)
                                         0.0000  0.5006 -0.0347 -0.8045  0.3177
               ( 47.69%)   0.6906* H 12 s(100.00%)
                                         1.0000
 ---------------- non-Lewis ----------------------------------------------------
  18. (0.02139) BD*( 1) O  1- C  2
               ( 41.28%)   0.6425* O  1 s( 15.64%)p 5.39( 84.36%)
                                         0.0000 -0.3955 -0.0419  0.8380 -0.3735
               ( 58.72%)  -0.7663* C  2 s( 21.59%)p 3.63( 78.41%)
                                         0.0000 -0.4647 -0.0585 -0.8231  0.3212
  19. (0.00703) BD*( 1) O  1- H  3
               ( 40.57%)   0.6370* O  1 s( 16.10%)p 5.21( 83.90%)
                                         0.0000 -0.4013 -0.7920 -0.3579 -0.2892
               ( 59.43%)  -0.7709* H  3 s(100.00%)
                                        -1.0000
  20. (0.02365) BD*( 1) C  2- H  4
               ( 49.23%)   0.7016* C  2 s( 25.70%)p 2.89( 74.30%)
                                         0.0000 -0.5069 -0.0093 -0.0489 -0.8605
               ( 50.77%)  -0.7126* H  4 s(100.00%)
                                        -1.0000
  21. (0.01472) BD*( 1) C  2- C  5
               ( 50.46%)   0.7104* C  2 s( 26.39%)p 2.79( 73.61%)
                                         0.0000  0.5137 -0.7358 -0.3451 -0.2751
               ( 49.54%)  -0.7038* C  5 s( 25.15%)p 2.98( 74.85%)
                                         0.0000  0.5015  0.7511  0.3360  0.2675
  22. (0.02190) BD*( 1) C  2- C  6
               ( 51.13%)   0.7150* C  2 s( 26.32%)p 2.80( 73.68%)
                                         0.0000  0.5130  0.6746 -0.4484 -0.2840
               ( 48.87%)  -0.6991* C  6 s( 25.43%)p 2.93( 74.57%)
                                         0.0000  0.5043 -0.6807  0.4529  0.2780
  23. (0.00523) BD*( 1) C  5- H  7
               ( 47.56%)   0.6897* C  5 s( 24.80%)p 3.03( 75.20%)
                                         0.0000 -0.4979  0.0085  0.0342  0.8665
               ( 52.44%)  -0.7241* H  7 s(100.00%)
                                        -1.0000
  24. (0.00446) BD*( 1) C  5- H  9
               ( 47.47%)   0.6890* C  5 s( 25.08%)p 2.99( 74.92%)
                                         0.0000 -0.5008  0.6540 -0.4960 -0.2746
               ( 52.53%)  -0.7248* H  9 s(100.00%)
                                        -1.0000
  25. (0.00391) BD*( 1) C  5- H 11
               ( 47.86%)   0.6918* C  5 s( 24.98%)p 3.00( 75.02%)
                                         0.0000 -0.4998  0.0898  0.8000 -0.3197
               ( 52.14%)  -0.7221* H 11 s(100.00%)
                                        -1.0000
  26. (0.00526) BD*( 1) C  6- H  8
               ( 47.58%)   0.6898* C  6 s( 24.82%)p 3.03( 75.18%)
                                         0.0000 -0.4982  0.0060  0.0319  0.8664
               ( 52.42%)  -0.7240* H  8 s(100.00%)
                                        -1.0000
  27. (0.00513) BD*( 1) C  6- H 10
               ( 48.07%)   0.6933* C  6 s( 24.69%)p 3.05( 75.31%)
                                         0.0000 -0.4969 -0.7317 -0.3829 -0.2666
               ( 51.93%)  -0.7206* H 10 s(100.00%)
                                        -1.0000
  28. (0.00454) BD*( 1) C  6- H 12
               ( 47.69%)   0.6906* C  6 s( 25.06%)p 2.99( 74.94%)
                                         0.0000 -0.5006  0.0347  0.8045 -0.3177
               ( 52.31%)  -0.7233* H 12 s(100.00%)
                                        -1.0000


 NHO DIRECTIONALITY AND BOND BENDING (deviation from line of nuclear centers at
                                      the position of maximum hybrid amplitude)

         [Thresholds for printing:  angular deviation  >  1.0 degree]
                                    p- or d-character  > 25.0%
                                    orbital occupancy  >  0.10e

                        Line of Centers        Hybrid 1             Hybrid 2
                        ---------------  -------------------  ------------------
           NBO            Theta   Phi    Theta   Phi    Dev   Theta   Phi    Dev
 ===============================================================================
   5. LP ( 1) O  1          --     --    125.9  150.7   --      --     --    --
   6. LP ( 2) O  1          --     --     35.2  143.0   --      --     --    --
   7. BD ( 1) O  1- C  2   68.0  268.8    65.9  273.1   4.5   111.3   86.0   2.7
   8. BD ( 1) O  1- H  3   72.7   26.3    71.5   24.1   2.4     --     --    --
  10. BD ( 1) C  2- C  5  107.6  204.6   108.6  205.1   1.1     --     --    --
  16. BD ( 1) C  6- H 10   72.6   26.4    72.2   27.5   1.1     --     --    --
  17. BD ( 1) C  6- H 12   68.8  268.7    68.5  267.7   1.0     --     --    --


 SECOND ORDER PERTURBATION THEORY ANALYSIS OF FOCK MATRIX IN NBO BASIS

     Threshold for printing:   0.50 kcal/mol
                                                          E(2) E(NL)-E(L) F(L,NL)
      Donor (L) NBO              Acceptor (NL) NBO      kcal/mol   a.u.    a.u.
 ===============================================================================

 within unit  1
    5. LP ( 1) O  1            21. BD*( 1) C  2- C  5      2.29    1.52   0.053
    6. LP ( 2) O  1            20. BD*( 1) C  2- H  4      8.18    1.07   0.084
    6. LP ( 2) O  1            22. BD*( 1) C  2- C  6      8.12    1.06   0.083
    7. BD ( 1) O  1- C  2      19. BD*( 1) O  1- H  3      1.62    1.41   0.043
    7. BD ( 1) O  1- C  2      20. BD*( 1) C  2- H  4      1.25    1.45   0.038
    7. BD ( 1) O  1- C  2      21. BD*( 1) C  2- C  5      0.98    1.46   0.034
    7. BD ( 1) O  1- C  2      22. BD*( 1) C  2- C  6      1.46    1.45   0.041
    7. BD ( 1) O  1- C  2      25. BD*( 1) C  5- H 11      1.87    1.47   0.047
    7. BD ( 1) O  1- C  2      28. BD*( 1) C  6- H 12      1.87    1.47   0.047
    8. BD ( 1) O  1- H  3      18. BD*( 1) O  1- C  2      2.11    1.43   0.049
    8. BD ( 1) O  1- H  3      21. BD*( 1) C  2- C  5      3.05    1.48   0.060
    8. BD ( 1) O  1- H  3      22. BD*( 1) C  2- C  6      0.61    1.47   0.027
    9. BD ( 1) C  2- H  4      18. BD*( 1) O  1- C  2      1.62    1.28   0.041
    9. BD ( 1) C  2- H  4      22. BD*( 1) C  2- C  6      0.60    1.32   0.025
    9. BD ( 1) C  2- H  4      23. BD*( 1) C  5- H  7      2.63    1.36   0.053
    9. BD ( 1) C  2- H  4      26. BD*( 1) C  6- H  8      2.60    1.35   0.053
   10. BD ( 1) C  2- C  5      18. BD*( 1) O  1- C  2      0.64    1.31   0.026
   10. BD ( 1) C  2- C  5      19. BD*( 1) O  1- H  3      2.00    1.32   0.046
   10. BD ( 1) C  2- C  5      22. BD*( 1) C  2- C  6      0.54    1.35   0.024
   10. BD ( 1) C  2- C  5      27. BD*( 1) C  6- H 10      2.33    1.37   0.050
   11. BD ( 1) C  2- C  6      18. BD*( 1) O  1- C  2      1.82    1.31   0.044
   11. BD ( 1) C  2- C  6      20. BD*( 1) C  2- H  4      0.53    1.36   0.024
   11. BD ( 1) C  2- C  6      21. BD*( 1) C  2- C  5      0.51    1.37   0.024
   11. BD ( 1) C  2- C  6      24. BD*( 1) C  5- H  9      2.18    1.39   0.049
   12. BD ( 1) C  5- H  7      18. BD*( 1) O  1- C  2      0.90    1.26   0.030
   12. BD ( 1) C  5- H  7      20. BD*( 1) C  2- H  4      2.25    1.31   0.049
   13. BD ( 1) C  5- H  9      18. BD*( 1) O  1- C  2      0.96    1.26   0.031
   13. BD ( 1) C  5- H  9      22. BD*( 1) C  2- C  6      2.43    1.31   0.050
   14. BD ( 1) C  5- H 11      18. BD*( 1) O  1- C  2      3.08    1.27   0.056
   15. BD ( 1) C  6- H  8      18. BD*( 1) O  1- C  2      0.91    1.27   0.030
   15. BD ( 1) C  6- H  8      20. BD*( 1) C  2- H  4      2.22    1.32   0.048
   16. BD ( 1) C  6- H 10      18. BD*( 1) O  1- C  2      0.89    1.27   0.030
   16. BD ( 1) C  6- H 10      19. BD*( 1) O  1- H  3      0.51    1.29   0.023
   16. BD ( 1) C  6- H 10      21. BD*( 1) C  2- C  5      2.25    1.33   0.049
   17. BD ( 1) C  6- H 12      18. BD*( 1) O  1- C  2      3.36    1.27   0.058


 NATURAL BOND ORBITALS (Summary):

                                                     Principal Delocalizations
           NBO                 Occupancy    Energy   (geminal,vicinal,remote)
 ===============================================================================
 Molecular unit  1  (C3H8O)
 ------ Lewis --------------------------------------
    1. CR ( 1) O  1             2.00000   -20.17335
    2. CR ( 1) C  2             1.99999   -11.08473
    3. CR ( 1) C  5             2.00000   -11.02204
    4. CR ( 1) C  6             2.00000   -11.02644
    5. LP ( 1) O  1             1.99354    -0.81908  21(v)
    6. LP ( 2) O  1             1.97526    -0.37301  20(v),22(v)
    7. BD ( 1) O  1- C  2       1.98765    -0.75362  25(v),28(v),19(g),22(g)
                                                     20(g),21(g)
    8. BD ( 1) O  1- H  3       1.99036    -0.77877  21(v),18(g),22(v)
    9. BD ( 1) C  2- H  4       1.98912    -0.63251  23(v),26(v),18(g),22(g)
   10. BD ( 1) C  2- C  5       1.99103    -0.65768  27(v),19(v),18(g),22(g)
   11. BD ( 1) C  2- C  6       1.99256    -0.66255  24(v),18(g),20(g),21(g)
   12. BD ( 1) C  5- H  7       1.99446    -0.61445  20(v),18(v)
   13. BD ( 1) C  5- H  9       1.99400    -0.61469  22(v),18(v)
   14. BD ( 1) C  5- H 11       1.99336    -0.61987  18(v)
   15. BD ( 1) C  6- H  8       1.99466    -0.62160  20(v),18(v)
   16. BD ( 1) C  6- H 10       1.99361    -0.62538  21(v),18(v),19(r)
   17. BD ( 1) C  6- H 12       1.99319    -0.62452  18(v)
 ------ non-Lewis ----------------------------------
   18. BD*( 1) O  1- C  2       0.02139     0.64795
   19. BD*( 1) O  1- H  3       0.00703     0.66019
   20. BD*( 1) C  2- H  4       0.02365     0.69788
   21. BD*( 1) C  2- C  5       0.01472     0.70493
   22. BD*( 1) C  2- C  6       0.02190     0.69158
   23. BD*( 1) C  5- H  7       0.00523     0.72361
   24. BD*( 1) C  5- H  9       0.00446     0.72601
   25. BD*( 1) C  5- H 11       0.00391     0.72021
   26. BD*( 1) C  6- H  8       0.00526     0.71707
   27. BD*( 1) C  6- H 10       0.00513     0.71098
   28. BD*( 1) C  6- H 12       0.00454     0.71396
          -------------------------------
                 Total Lewis   33.88278  ( 99.6552%)
           Valence non-Lewis    0.11722  (  0.3448%)
           Rydberg non-Lewis    0.00000  (  0.0000%)
          -------------------------------
               Total unit  1   34.00000  (100.0000%)
              Charge unit  1    0.00000

 $CHOOSE
   LONE 1 2 END
   BOND S 1 2 S 1 3 S 2 4 S 2 5 S 2 6 S 5 7 S 5 9 S 5 11 S 6 8 S 6 10 S 6 12
        END
 $END

 NBO analysis completed in 0.33 CPU seconds (1 wall second)
 Maximum scratch memory used by NBO was 228502 words (1.74 MB)
 Maximum scratch memory used by G16NBO was 9566 words (0.07 MB)

 Opening RunExU unformatted file "/cluster/work/users/beto93/mol128/Gau-323232.EUF"
 Read unf file /cluster/work/users/beto93/mol128/Gau-323232.EUF:
 Label Gaussian matrix elements                                         IVers= 2 NLab= 2 Version=ES64L-G16RevC.01
 Title mol128-NBO                                                      
 NAtoms=    12 NBasis=    28 NBsUse=    28 ICharg=     0 Multip=     1 NE=    34 Len12L=8 Len4L=8 IOpCl= 0 ICGU=111
 GAUSSIAN SCALARS                    NI= 1 NR= 1 NTot=       1 LenBuf=    2 NRI=1 N=    1000
 NPA CHARGES                         NI= 0 NR= 1 NTot=      12 LenBuf= 4000 NRI=1 N=      12
 Recovered energy= -190.713686970     dipole=      0.396126766130     -0.263777405825      0.300739005495
 Unable to Open any file for archive entry.
 1\1\GINC-C3-22\SP\RHF\STO-3G\C3H8O1\BETO93\18-Nov-2024\0\\#RHF/STO-3G 
 int=nobasistransform Symmetry=None 5D 7F Pop=NBO7Read\\mol128-NBO\\0,1
 \O,0,0.027191,1.363691,-0.167516\C,0,-0.000926,0.036459,0.370128\H,0,0
 .859465,1.775647,0.121307\H,0,0.007371,0.082145,1.470506\C,0,-1.313275
 ,-0.563514,-0.088979\C,0,1.200721,-0.76448,-0.10492\H,0,-1.334005,-0.6
 07253,-1.181009\H,0,1.202843,-0.807817,-1.197189\H,0,-2.147812,0.05499
 3,0.247676\H,0,2.136462,-0.299324,0.223164\H,0,-1.438709,-1.574275,0.3
 0834\H,0,1.177736,-1.784436,0.289967\\Version=ES64L-G16RevC.01\HF=-190
 .713687\RMSD=2.477e-09\Dipole=0.3961268,-0.2637774,0.300739\Quadrupole
 =0.5077294,-0.4508334,-0.0568959,1.5082634,0.1254313,0.725884\PG=Unkno
 wn\\@
 The archive entry for this job was punched.


 ONLY THE DAY DAWNS TO WHICH YOU ARE AWAKE.

                                 -- THOREAU
 Job cpu time:       0 days  0 hours  0 minutes  9.8 seconds.
 Elapsed time:       0 days  0 hours  0 minutes  3.2 seconds.
 File lengths (MBytes):  RWF=     10 Int=      0 D2E=      0 Chk=      1 Scr=      1
 Normal termination of Gaussian 16 at Mon Nov 18 15:41:48 2024.
