 Entering Gaussian System, Link 0=g16
 Initial command:
 /cluster/software/Gaussian/g16_C.01/l1.exe "/cluster/work/users/beto93/mol75/Gau-1309232.inp" -scrdir="/cluster/work/users/beto93/mol75/"
 Entering Link 1 = /cluster/software/Gaussian/g16_C.01/l1.exe PID=   1309233.
  
 Copyright (c) 1988-2019, Gaussian, Inc.  All Rights Reserved.
  
 This is part of the Gaussian(R) 16 program.  It is based on
 the Gaussian(R) 09 system (copyright 2009, Gaussian, Inc.),
 the Gaussian(R) 03 system (copyright 2003, Gaussian, Inc.),
 the Gaussian(R) 98 system (copyright 1998, Gaussian, Inc.),
 the Gaussian(R) 94 system (copyright 1995, Gaussian, Inc.),
 the Gaussian 92(TM) system (copyright 1992, Gaussian, Inc.),
 the Gaussian 90(TM) system (copyright 1990, Gaussian, Inc.),
 the Gaussian 88(TM) system (copyright 1988, Gaussian, Inc.),
 the Gaussian 86(TM) system (copyright 1986, Carnegie Mellon
 University), and the Gaussian 82(TM) system (copyright 1983,
 Carnegie Mellon University). Gaussian is a federally registered
 trademark of Gaussian, Inc.
  
 This software contains proprietary and confidential information,
 including trade secrets, belonging to Gaussian, Inc.
  
 This software is provided under written license and may be
 used, copied, transmitted, or stored only in accord with that
 written license.
  
 The following legend is applicable only to US Government
 contracts under FAR:
  
                    RESTRICTED RIGHTS LEGEND
  
 Use, reproduction and disclosure by the US Government is
 subject to restrictions as set forth in subparagraphs (a)
 and (c) of the Commercial Computer Software - Restricted
 Rights clause in FAR 52.227-19.
  
 Gaussian, Inc.
 340 Quinnipiac St., Bldg. 40, Wallingford CT 06492
  
  
 ---------------------------------------------------------------
 Warning -- This program may not be used in any manner that
 competes with the business of Gaussian, Inc. or will provide
 assistance to any competitor of Gaussian, Inc.  The licensee
 of this program is prohibited from giving any competitor of
 Gaussian, Inc. access to this program.  By using this program,
 the user acknowledges that Gaussian, Inc. is engaged in the
 business of creating and licensing software in the field of
 computational chemistry and represents and warrants to the
 licensee that it is not a competitor of Gaussian, Inc. and that
 it will not use this program in any manner prohibited above.
 ---------------------------------------------------------------
  

 Cite this work as:
 Gaussian 16, Revision C.01,
 M. J. Frisch, G. W. Trucks, H. B. Schlegel, G. E. Scuseria, 
 M. A. Robb, J. R. Cheeseman, G. Scalmani, V. Barone, 
 G. A. Petersson, H. Nakatsuji, X. Li, M. Caricato, A. V. Marenich, 
 J. Bloino, B. G. Janesko, R. Gomperts, B. Mennucci, H. P. Hratchian, 
 J. V. Ortiz, A. F. Izmaylov, J. L. Sonnenberg, D. Williams-Young, 
 F. Ding, F. Lipparini, F. Egidi, J. Goings, B. Peng, A. Petrone, 
 T. Henderson, D. Ranasinghe, V. G. Zakrzewski, J. Gao, N. Rega, 
 G. Zheng, W. Liang, M. Hada, M. Ehara, K. Toyota, R. Fukuda, 
 J. Hasegawa, M. Ishida, T. Nakajima, Y. Honda, O. Kitao, H. Nakai, 
 T. Vreven, K. Throssell, J. A. Montgomery, Jr., J. E. Peralta, 
 F. Ogliaro, M. J. Bearpark, J. J. Heyd, E. N. Brothers, K. N. Kudin, 
 V. N. Staroverov, T. A. Keith, R. Kobayashi, J. Normand, 
 K. Raghavachari, A. P. Rendell, J. C. Burant, S. S. Iyengar, 
 J. Tomasi, M. Cossi, J. M. Millam, M. Klene, C. Adamo, R. Cammi, 
 J. W. Ochterski, R. L. Martin, K. Morokuma, O. Farkas, 
 J. B. Foresman, and D. J. Fox, Gaussian, Inc., Wallingford CT, 2019.
 
 ******************************************
 Gaussian 16:  ES64L-G16RevC.01  3-Jul-2019
                18-Nov-2024 
 ******************************************
 %LindaWorkers=c3-24-ib
 %NProcShared=4
 Will use up to    4 processors via shared memory.
 %mem=25GB
 %chk=mol75.chk
 SetLPE:    new flags="-opt 'Tsnet.Node.lindarsharg: ssh'  -nodelist 'c3-24-ib.saga' -env GAUSS_MDEF=3355443200 -env GAUSS_EXEDIR="/cluster/software/Gaussian/g16_C.01/bsd:/cluster/software/Gaussian/g16_C.01""
 Will use up to    1 processors via Linda.
 -----------------------------------------------------------------
 #RHF/6-31G* int=nobasistransform Symmetry=None 5D 7F Pop=NBO7Read
 -----------------------------------------------------------------
 1/38=1,163=2,172=1/1;
 2/12=2,15=3,17=6,18=5,40=1/2;
 3/5=1,6=6,7=1,8=11,11=1,25=1,30=1,60=-1,116=1/1,2,3;
 4//1;
 5/5=2,38=5/2;
 6/7=2,8=2,9=2,10=2,28=1,40=2,113=1,114=1,124=2103/1,12;
 99/5=1,9=1/99;
 ---------
 mol75-NBO
 ---------
 Symbolic Z-matrix:
 Charge =  0 Multiplicity = 1
 C                     0.        0.       -0.32635 
 C                     0.        0.        1.15083 
 F                     0.        1.25758  -0.78723 
 F                     1.0891   -0.62879  -0.78723 
 F                    -1.0891   -0.62879  -0.78723 
 N                     0.        0.        2.32974 
 
                          Input orientation:                          
 ---------------------------------------------------------------------
 Center     Atomic      Atomic             Coordinates (Angstroms)
 Number     Number       Type             X           Y           Z
 ---------------------------------------------------------------------
      1          6           0        0.000000    0.000000   -0.326350
      2          6           0        0.000000    0.000000    1.150830
      3          9           0        0.000000    1.257579   -0.787225
      4          9           0        1.089096   -0.628790   -0.787225
      5          9           0       -1.089096   -0.628790   -0.787225
      6          7           0        0.000000    0.000000    2.329741
 ---------------------------------------------------------------------
                    Distance matrix (angstroms):
                    1          2          3          4          5
     1  C    0.000000
     2  C    1.477180   0.000000
     3  F    1.339370   2.310316   0.000000
     4  F    1.339370   2.310317   2.178191   0.000000
     5  F    1.339370   2.310317   2.178191   2.178192   0.000000
     6  N    2.656091   1.178911   3.361098   3.361099   3.361099
                    6
     6  N    0.000000
 Symmetry turned off by external request.
 Stoichiometry    C2F3N
 Rotational constants (GHZ):           5.6067078           2.9127203           2.9127198
 Standard basis: 6-31G(d) (5D, 7F)
    84 basis functions,   168 primitive gaussians,    90 cartesian basis functions
    23 alpha electrons       23 beta electrons
       nuclear repulsion energy       230.0197119879 Hartrees.
 NAtoms=    6 NActive=    6 NUniq=    6 SFac= 1.00D+00 NAtFMM=   60 NAOKFM=F Big=F
 Integral buffers will be    131072 words long.
 Raffenetti 1 integral format.
 Two-electron integral symmetry is turned off.
 One-electron integrals computed using PRISM.
 NBasis=    84 RedAO= T EigKep=  1.68D-03  NBF=    84
 NBsUse=    84 1.00D-06 EigRej= -1.00D+00 NBFU=    84
 ExpMin= 1.69D-01 ExpMax= 7.00D+03 ExpMxC= 1.05D+03 IAcc=3 IRadAn=         5 AccDes= 0.00D+00
 Harris functional with IExCor=  205 and IRadAn=       5 diagonalized for initial guess.
 HarFok:  IExCor=  205 AccDes= 0.00D+00 IRadAn=         5 IDoV= 1 UseB2=F ITyADJ=14
 ICtDFT=  3500011 ScaDFX=  1.000000  1.000000  1.000000  1.000000
 FoFCou: FMM=F IPFlag=           0 FMFlag=      100000 FMFlg1=           0
         NFxFlg=           0 DoJE=T BraDBF=F KetDBF=T FulRan=T
         wScrn=  0.000000 ICntrl=       500 IOpCl=  0 I1Cent=   200000004 NGrid=           0
         NMat0=    1 NMatS0=      1 NMatT0=    0 NMatD0=    1 NMtDS0=    0 NMtDT0=    0
 Symmetry not used in FoFCou.
 Keep R1 ints in memory in canonical form, NReq=7224569.
 Requested convergence on RMS density matrix=1.00D-08 within 128 cycles.
 Requested convergence on MAX density matrix=1.00D-06.
 Requested convergence on             energy=1.00D-06.
 No special actions if energy rises.
 SCF Done:  E(RHF) =  -428.468728540     A.U. after   12 cycles
            NFock= 12  Conv=0.23D-08     -V/T= 2.0018

 **********************************************************************

            Population analysis using the SCF Density.

 **********************************************************************

 Alpha  occ. eigenvalues --  -26.38370 -26.38370 -26.38370 -15.65593 -11.59088
 Alpha  occ. eigenvalues --  -11.33803  -1.77227  -1.67643  -1.67643  -1.26231
 Alpha  occ. eigenvalues --   -1.06235  -0.91151  -0.86483  -0.86483  -0.74620
 Alpha  occ. eigenvalues --   -0.74620  -0.70128  -0.70128  -0.68901  -0.68528
 Alpha  occ. eigenvalues --   -0.60559  -0.51744  -0.51744
 Alpha virt. eigenvalues --    0.13116   0.13116   0.29246   0.39480   0.43123
 Alpha virt. eigenvalues --    0.43123   0.51634   0.65485   0.69028   0.69028
 Alpha virt. eigenvalues --    0.80900   0.80900   0.81427   0.87429   1.04337
 Alpha virt. eigenvalues --    1.04337   1.15126   1.27524   1.34973   1.34973
 Alpha virt. eigenvalues --    1.41980   1.41980   1.47453   1.58254   1.58254
 Alpha virt. eigenvalues --    1.59694   1.62963   1.62963   1.68029   1.72873
 Alpha virt. eigenvalues --    1.72873   1.74285   1.93162   1.93162   1.93811
 Alpha virt. eigenvalues --    1.93811   2.07228   2.09972   2.09972   2.17742
 Alpha virt. eigenvalues --    2.21163   2.21163   2.26584   2.26584   2.32467
 Alpha virt. eigenvalues --    2.35078   2.35078   2.35909   2.55639   2.55639
 Alpha virt. eigenvalues --    2.65779   2.79159   2.91851   2.91851   3.10702
 Alpha virt. eigenvalues --    3.20469   3.20469   3.38148   3.38148   3.39307
 Alpha virt. eigenvalues --    3.55800
          Condensed to atoms (all electrons):
               1          2          3          4          5          6
     1  C    3.538389   0.313387   0.251625   0.251625   0.251625  -0.036969
     2  C    0.313387   4.776731  -0.029952  -0.029952  -0.029952   0.905630
     3  F    0.251625  -0.029952   9.230515  -0.028749  -0.028749  -0.000807
     4  F    0.251625  -0.029952  -0.028749   9.230515  -0.028749  -0.000807
     5  F    0.251625  -0.029952  -0.028749  -0.028749   9.230515  -0.000807
     6  N   -0.036969   0.905630  -0.000807  -0.000807  -0.000807   6.476533
 Mulliken charges:
               1
     1  C    1.430319
     2  C    0.094107
     3  F   -0.393883
     4  F   -0.393884
     5  F   -0.393884
     6  N   -0.342775
 Sum of Mulliken charges =  -0.00000
 Mulliken charges with hydrogens summed into heavy atoms:
               1
     1  C    1.430319
     2  C    0.094107
     3  F   -0.393883
     4  F   -0.393884
     5  F   -0.393884
     6  N   -0.342775
 Electronic spatial extent (au):  <R**2>=            452.8830
 Charge=             -0.0000 electrons
 Dipole moment (field-independent basis, Debye):
    X=              0.0000    Y=              0.0000    Z=             -1.2969  Tot=              1.2969
 Quadrupole moment (field-independent basis, Debye-Ang):
   XX=            -31.2237   YY=            -31.2237   ZZ=            -37.4958
   XY=             -0.0000   XZ=             -0.0000   YZ=             -0.0000
 Traceless Quadrupole moment (field-independent basis, Debye-Ang):
   XX=              2.0907   YY=              2.0907   ZZ=             -4.1814
   XY=             -0.0000   XZ=             -0.0000   YZ=             -0.0000
 Octapole moment (field-independent basis, Debye-Ang**2):
  XXX=              0.0000  YYY=             -1.0957  ZZZ=            -38.5844  XYY=              0.0000
  XXY=              1.0958  XXZ=             -5.3054  XZZ=              0.0000  YZZ=              0.0000
  YYZ=             -5.3055  XYZ=              0.0000
 Hexadecapole moment (field-independent basis, Debye-Ang**3):
 XXXX=            -88.3995 YYYY=            -88.3995 ZZZZ=           -356.9381 XXXY=             -0.0000
 XXXZ=             -0.0000 YYYX=             -0.0000 YYYZ=              0.3531 ZZZX=             -0.0000
 ZZZY=             -0.0000 XXYY=            -29.4665 XXZZ=            -66.1611 YYZZ=            -66.1611
 XXYZ=             -0.3531 YYXZ=             -0.0000 ZZXY=             -0.0000
 N-N= 2.300197119879D+02 E-N=-1.477216101280D+03  KE= 4.277124553976D+02
 Running external command "gaunbo7 R"
         input file       "/cluster/work/users/beto93/mol75/Gau-1309233.EIn"
         output file      "/cluster/work/users/beto93/mol75/Gau-1309233.EOu"
         message file     "/cluster/work/users/beto93/mol75/Gau-1309233.EMs"
         fchk file        "/cluster/work/users/beto93/mol75/Gau-1309233.EFC"
         mat. el file     "/cluster/work/users/beto93/mol75/Gau-1309233.EUF"

 Writing WrtUnf unformatted file "/cluster/work/users/beto93/mol75/Gau-1309233.EUF"
 Gaussian matrix elements                                         Version   2 NLab=11 Len12L=8 Len4L=8
 Write SHELL TO ATOM MAP                   from file      0 offset           0 length                  24 to matrix element file.
 Write SHELL TYPES                         from file      0 offset           0 length                  24 to matrix element file.
 Write NUMBER OF PRIMITIVES PER SHELL      from file      0 offset           0 length                  24 to matrix element file.
 Write PRIMITIVE EXPONENTS                 from file      0 offset           0 length                  66 to matrix element file.
 Write CONTRACTION COEFFICIENTS            from file      0 offset           0 length                  66 to matrix element file.
 Write P(S=P) CONTRACTION COEFFICIENTS     from file      0 offset           0 length                  66 to matrix element file.
 Write COORDINATES OF EACH SHELL           from file      0 offset           0 length                  72 to matrix element file.
 Write BONDS PER ATOM                      from file      0 offset           0 length                   6 to matrix element file.
 Write BONDED ATOMS                        from file      0 offset           0 length                  10 to matrix element file.
 Write BOND TYPES                          from file      0 offset           0 length                  10 to matrix element file.
 Write ONIOM CHARGE/MULT                   from file      0 offset           0 length                  32 to matrix element file.
 Write ONIOM ATOM LAYERS                   from file      0 offset           0 length                   6 to matrix element file.
 Write ONIOM ATOM MODIFIERS                from file      0 offset           0 length                   6 to matrix element file.
 Write ONIOM ATOM TYPES                    from file      0 offset           0 length                   6 to matrix element file.
 Write ONIOM LINK ATOMS                    from file      0 offset           0 length                   6 to matrix element file.
 Write ONIOM LINK CHARGES                  from file      0 offset           0 length                   6 to matrix element file.
 Write ONIOM LINK DISTANCES                from file      0 offset           0 length                  24 to matrix element file.
 Write SYMINF INTS                         from file      0 offset           0 length                  26 to matrix element file.
 Write ROTTR TO SO                         from file      0 offset           0 length                  12 to matrix element file.
 Write GAUSSIAN SCALARS                    from file    501 offset           0 to matrix element file.
 Write OPTIMIZATION FLAGS                  from file      0 offset           0 length                   6 to matrix element file.
 Write INTEGER ISO                         from file      0 offset           0 length                   6 to matrix element file.
 Write INTEGER SPIN                        from file      0 offset           0 length                   6 to matrix element file.
 Write REAL ZEFFECTIVE                     from file      0 offset           0 length                   6 to matrix element file.
 Write REAL QUADRUPOLEMOMENT               from file      0 offset           0 length                   6 to matrix element file.
 Write REAL GFACTOR                        from file      0 offset           0 length                   6 to matrix element file.
 Write REAL ZNUCLEAR                       from file      0 offset           0 length                   6 to matrix element file.
 Write MULLIKEN CHARGES                    from file      0 offset           0 length                   6 to matrix element file.
 Write NUCLEAR GRADIENT                    from file  10584 offset           0 length                  18 to matrix element file.
 Array NUCLEAR FORCE CONSTANTS              on  file  10585 does not exist.
 Write ELECTRIC DIPOLE MOMENT              from file      0 offset           0 length                   3 to matrix element file.
 Write NON-ADIABATIC COUPLING              from file  10810 offset           0 length                  18 to matrix element file.
 Write FINITE EM FIELD                     from file  10521 offset           0 length                  35 to matrix element file.
 Write OVERLAP                             from file  10514 offset           0 length                3570 to matrix element file.
 Write CORE HAMILTONIAN ALPHA              from file  10515 offset           0 length                3570 to matrix element file.
 Write CORE HAMILTONIAN BETA               from file  10515 offset        3570 length                3570 to matrix element file.
 Write KINETIC ENERGY                      from file  10516 offset           0 length                3570 to matrix element file.
 Write ORTHOGONAL BASIS                    from file  10685 offset           0 length                7056 to matrix element file.
 Write DIPOLE INTEGRALS                    from file  10518 offset           0 length               10710 to matrix element file.
 Array DIP VEL INTEGRALS                    on  file  10572 does not exist.
 Array R X DEL INTEGRALS                    on  file  10572 does not exist.
 Write ALPHA ORBITAL ENERGIES              from file      0 offset           0 length                  84 to matrix element file.
 Write ALPHA MO COEFFICIENTS               from file  10524 offset           0 length                7056 to matrix element file.
 Write ALPHA DENSITY MATRIX                from file      0 offset           0 length                3570 to matrix element file.
 Write ALPHA FOCK MATRIX                   from file  10536 offset           0 length                3570 to matrix element file.
 Write ENERGY-WEIGHTED DENSITY             from file  10571 offset           0 length                3570 to matrix element file.
 Write ALPHA SCF DENSITY MATRIX            from file      0 offset           0 length                3570 to matrix element file.
 No 2e integrals to process.
 Perform NBO analysis...executing G16NBO...

 *********************************** NBO 7.0 ***********************************
             N A T U R A L   A T O M I C   O R B I T A L   A N D
          N A T U R A L   B O N D   O R B I T A L   A N A L Y S I S
 **************************** Espen Tangen (S101595) ***************************
  (c) Copyright 1996-2021 Board of Regents of the University of Wisconsin System
      on behalf of the Theoretical Chemistry Institute.  All rights reserved.

          Cite this program [NBO 7.0.10 (8-Feb-2021)] as:

          NBO 7.0.  E. D. Glendening, J. K. Badenhoop, A. E. Reed,
          J. E. Carpenter, J. A. Bohmann, C. M. Morales, P. Karafiloglou,
          C. R. Landis, and F. Weinhold, Theoretical Chemistry Institute,
          University of Wisconsin, Madison, WI (2018)

       /NPA    / : Natural Population Analysis
       /AOPNAO / : Print the AO to PNAO transformation
       /AONAO  / : Print the AO to NAO transformation
       /AOMO   / : Print the MOs in the AO basis
       /BOAO   / : Print the AO bond-order matrix
       /DMAO   / : Print the AO density matrix
       /DMPNAO / : Print the PNAO density matrix
       /DMNAO  / : Print the NAO density matrix
       /DMMO   / : Print the MO density matrix
       /SAO    / : Print the AO overlap matrix
       /SPNAO  / : Print the PNAO overlap matrix
       /DETAIL / : Write details of NBO search
       /ARCHIVE/ : Write the archive file to lfn47
       /AOINFO / : Write AO information to lfn31
       /FILE   / : Set to mol75.gen*

 Filename set to mol75.gen1

 Job title: mol75-NBO


 MOs in the AO basis:

           AO          1       2       3       4       5       6       7       8
      ------------ ------- ------- ------- ------- ------- ------- ------- -------
   1.  C 1 (s)      0.0000  0.0000 -0.0003 -0.0001  0.9964 -0.0015 -0.0926  0.0000
   2.  C 1 (s)     -0.0001  0.0000 -0.0009 -0.0006  0.0241 -0.0015  0.2000  0.0000
   3.  C 1 (px)     0.0000  0.0010  0.0000  0.0000  0.0000  0.0000  0.0000  0.0000
   4.  C 1 (py)     0.0010  0.0000 -0.0001  0.0000  0.0000  0.0000  0.0000  0.1348
   5.  C 1 (pz)    -0.0001  0.0000 -0.0009  0.0005 -0.0009 -0.0006 -0.0492  0.0000
   6.  C 1 (s)      0.0011  0.0000  0.0182  0.0119 -0.0120  0.0127 -0.1449  0.0000
   7.  C 1 (px)     0.0000  0.0048  0.0000  0.0000  0.0000  0.0000  0.0000  0.0000
   8.  C 1 (py)     0.0048  0.0000 -0.0003  0.0000  0.0000  0.0000  0.0000 -0.0316
   9.  C 1 (pz)     0.0001  0.0000  0.0009  0.0044 -0.0047  0.0036 -0.0168  0.0000
  10.  C 1 (d5)     0.0000  0.0000 -0.0002  0.0003 -0.0004 -0.0009 -0.0110  0.0000
  11.  C 1 (d2)     0.0000 -0.0003  0.0000  0.0000  0.0000  0.0000  0.0000  0.0000
  12.  C 1 (d3)    -0.0003  0.0000  0.0000  0.0000  0.0000  0.0000  0.0000 -0.0171
  13.  C 1 (d4)    -0.0003  0.0000  0.0000  0.0000  0.0000  0.0000  0.0000 -0.0238
  14.  C 1 (d1)     0.0000 -0.0003  0.0000  0.0000  0.0000  0.0000  0.0000  0.0000
  15.  C 2 (s)      0.0000  0.0000  0.0001  0.0003  0.0012  0.9960 -0.0124  0.0000
  16.  C 2 (s)      0.0000  0.0000  0.0004  0.0001 -0.0007  0.0248  0.0198  0.0000
  17.  C 2 (px)     0.0000 -0.0001  0.0000  0.0000  0.0000  0.0000  0.0000  0.0000
  18.  C 2 (py)    -0.0001  0.0000  0.0000  0.0000  0.0000  0.0000  0.0000  0.0058
  19.  C 2 (pz)     0.0000  0.0000  0.0002 -0.0015  0.0001 -0.0005 -0.0226  0.0000
  20.  C 2 (s)     -0.0002  0.0000 -0.0041  0.0069  0.0062 -0.0056  0.0532  0.0000
  21.  C 2 (px)     0.0000 -0.0014  0.0000  0.0000  0.0000  0.0000  0.0000  0.0000
  22.  C 2 (py)    -0.0014  0.0000  0.0001  0.0000  0.0000  0.0000  0.0000  0.0142
  23.  C 2 (pz)     0.0004  0.0000  0.0067  0.0174 -0.0048  0.0138 -0.0832  0.0000
  24.  C 2 (d5)     0.0000  0.0000 -0.0003 -0.0013 -0.0001  0.0020  0.0096  0.0000
  25.  C 2 (d2)     0.0000  0.0002  0.0000  0.0000  0.0000  0.0000  0.0000  0.0000
  26.  C 2 (d3)     0.0002  0.0000  0.0000  0.0000  0.0000  0.0000  0.0000 -0.0024
  27.  C 2 (d4)    -0.0001  0.0000  0.0000  0.0000  0.0000  0.0000  0.0000  0.0000
  28.  C 2 (d1)     0.0000 -0.0001  0.0000  0.0000  0.0000  0.0000  0.0000  0.0000
  29.  F 3 (s)      0.8464  0.0000  0.5242  0.0000 -0.0001  0.0000 -0.1230 -0.1905
  30.  F 3 (s)      0.0192  0.0000  0.0125  0.0002  0.0004  0.0001  0.2555  0.4102
  31.  F 3 (px)     0.0000  0.0001  0.0000  0.0000  0.0000  0.0000  0.0000  0.0000
  32.  F 3 (py)    -0.0011  0.0000 -0.0007  0.0000 -0.0003  0.0000 -0.0541 -0.0449
  33.  F 3 (pz)     0.0004  0.0000  0.0002  0.0000  0.0001 -0.0001  0.0160  0.0219
  34.  F 3 (s)     -0.0084  0.0000 -0.0076 -0.0009 -0.0003 -0.0010  0.3102  0.4492
  35.  F 3 (px)     0.0000 -0.0010  0.0000  0.0000  0.0000  0.0000  0.0000  0.0000
  36.  F 3 (py)     0.0024  0.0000  0.0027  0.0003  0.0012  0.0005 -0.0531 -0.0375
  37.  F 3 (pz)    -0.0011  0.0000 -0.0007 -0.0002  0.0001  0.0003  0.0164  0.0190
  38.  F 3 (d5)     0.0002  0.0000  0.0002  0.0001  0.0002  0.0003 -0.0043 -0.0024
  39.  F 3 (d2)     0.0000 -0.0002  0.0000  0.0000  0.0000  0.0000  0.0000  0.0000
  40.  F 3 (d3)     0.0004  0.0000  0.0002  0.0000  0.0002  0.0000 -0.0067 -0.0057
  41.  F 3 (d4)     0.0004  0.0000  0.0004  0.0000  0.0006  0.0000 -0.0095 -0.0064
  42.  F 3 (d1)     0.0000  0.0001  0.0000  0.0000  0.0000  0.0000  0.0000  0.0000
  43.  F 4 (s)     -0.3706  0.7040  0.5986  0.0000 -0.0001  0.0000 -0.1230  0.0952
  44.  F 4 (s)     -0.0084  0.0160  0.0142  0.0002  0.0004  0.0001  0.2555 -0.2051
  45.  F 4 (px)     0.0005 -0.0008 -0.0007  0.0000 -0.0003  0.0000 -0.0468  0.0248
  46.  F 4 (py)    -0.0002  0.0005  0.0004  0.0000  0.0002  0.0000  0.0270 -0.0019
  47.  F 4 (pz)    -0.0002  0.0004  0.0003  0.0000  0.0001 -0.0001  0.0160 -0.0110
  48.  F 4 (s)      0.0034 -0.0068 -0.0083 -0.0009 -0.0003 -0.0010  0.3102 -0.2246
  49.  F 4 (px)    -0.0012  0.0014  0.0025  0.0003  0.0011  0.0005 -0.0460  0.0216
  50.  F 4 (py)    -0.0003 -0.0014 -0.0014 -0.0002 -0.0006 -0.0003  0.0266 -0.0001
  51.  F 4 (pz)     0.0005 -0.0009 -0.0008 -0.0002  0.0001  0.0003  0.0164 -0.0095
  52.  F 4 (d5)    -0.0001  0.0002  0.0002  0.0001  0.0002  0.0003 -0.0043  0.0012
  53.  F 4 (d2)    -0.0002  0.0002  0.0002  0.0000  0.0002  0.0000 -0.0058  0.0031
  54.  F 4 (d3)    -0.0001 -0.0002 -0.0001  0.0000 -0.0001  0.0000  0.0033 -0.0004
  55.  F 4 (d4)     0.0002 -0.0001 -0.0002  0.0000 -0.0003  0.0000  0.0047 -0.0029
  56.  F 4 (d1)    -0.0001  0.0003  0.0003  0.0000  0.0005  0.0000 -0.0082  0.0020
  57.  F 5 (s)     -0.3706 -0.7040  0.5986  0.0000 -0.0001  0.0000 -0.1230  0.0952
  58.  F 5 (s)     -0.0084 -0.0160  0.0142  0.0002  0.0004  0.0001  0.2555 -0.2051
  59.  F 5 (px)    -0.0005 -0.0008  0.0007  0.0000  0.0003  0.0000  0.0468 -0.0248
  60.  F 5 (py)    -0.0002 -0.0005  0.0004  0.0000  0.0002  0.0000  0.0270 -0.0019
  61.  F 5 (pz)    -0.0002 -0.0004  0.0003  0.0000  0.0001 -0.0001  0.0160 -0.0110
  62.  F 5 (s)      0.0034  0.0068 -0.0083 -0.0009 -0.0003 -0.0010  0.3102 -0.2246
  63.  F 5 (px)     0.0012  0.0014 -0.0025 -0.0003 -0.0011 -0.0005  0.0460 -0.0216
  64.  F 5 (py)    -0.0003  0.0014 -0.0014 -0.0002 -0.0006 -0.0003  0.0266 -0.0001
  65.  F 5 (pz)     0.0005  0.0009 -0.0008 -0.0002  0.0001  0.0003  0.0164 -0.0095
  66.  F 5 (d5)    -0.0001 -0.0002  0.0002  0.0001  0.0002  0.0003 -0.0043  0.0012
  67.  F 5 (d2)     0.0002  0.0002 -0.0002  0.0000 -0.0002  0.0000  0.0058 -0.0031
  68.  F 5 (d3)    -0.0001  0.0002 -0.0001  0.0000 -0.0001  0.0000  0.0033 -0.0004
  69.  F 5 (d4)     0.0002  0.0001 -0.0002  0.0000 -0.0003  0.0000  0.0047 -0.0029
  70.  F 5 (d1)     0.0001  0.0003 -0.0003  0.0000 -0.0005  0.0000  0.0082 -0.0020
  71.  N 6 (s)      0.0000  0.0000  0.0000  0.9963  0.0000 -0.0007 -0.0014  0.0000
  72.  N 6 (s)      0.0000  0.0000  0.0004  0.0242  0.0001  0.0006 -0.0023  0.0000
  73.  N 6 (px)     0.0000 -0.0001  0.0000  0.0000  0.0000  0.0000  0.0000  0.0000
  74.  N 6 (py)    -0.0001  0.0000  0.0000  0.0000  0.0000  0.0000  0.0000  0.0014
  75.  N 6 (pz)     0.0000  0.0000  0.0000 -0.0030  0.0000  0.0005  0.0000  0.0000
  76.  N 6 (s)     -0.0002  0.0000 -0.0039 -0.0241  0.0013 -0.0115  0.0491  0.0000
  77.  N 6 (px)     0.0000  0.0005  0.0000  0.0000  0.0000  0.0000  0.0000  0.0000
  78.  N 6 (py)     0.0005  0.0000  0.0000  0.0000  0.0000  0.0000  0.0000 -0.0047
  79.  N 6 (pz)     0.0001  0.0000  0.0008  0.0078  0.0000  0.0043 -0.0108  0.0000
  80.  N 6 (d5)     0.0000  0.0000  0.0001  0.0009 -0.0001 -0.0002 -0.0020  0.0000
  81.  N 6 (d2)     0.0000 -0.0001  0.0000  0.0000  0.0000  0.0000  0.0000  0.0000
  82.  N 6 (d3)    -0.0001  0.0000  0.0000  0.0000  0.0000  0.0000  0.0000  0.0002
  83.  N 6 (d4)     0.0000  0.0000  0.0000  0.0000  0.0000  0.0000  0.0000  0.0000
  84.  N 6 (d1)     0.0000  0.0000  0.0000  0.0000  0.0000  0.0000  0.0000  0.0000

           AO          9      10      11      12      13      14      15      16
      ------------ ------- ------- ------- ------- ------- ------- ------- -------
   1.  C 1 (s)      0.0000 -0.0219 -0.1457  0.0341  0.0000  0.0000  0.0000  0.0000
   2.  C 1 (s)      0.0000  0.0557  0.3490 -0.0929  0.0000  0.0000  0.0000  0.0000
   3.  C 1 (px)     0.1348  0.0000  0.0000  0.0000  0.0000  0.3198  0.0000  0.0817
   4.  C 1 (py)     0.0000  0.0000  0.0000  0.0000  0.3198  0.0000  0.0817  0.0000
   5.  C 1 (pz)     0.0000  0.0564  0.1423  0.3268  0.0000  0.0000  0.0000  0.0000
   6.  C 1 (s)      0.0000 -0.0475  0.1126  0.0536  0.0000  0.0000  0.0000  0.0000
   7.  C 1 (px)    -0.0316  0.0000  0.0000  0.0000  0.0000  0.0525  0.0000 -0.0369
   8.  C 1 (py)     0.0000  0.0000  0.0000  0.0000  0.0525  0.0000 -0.0369  0.0000
   9.  C 1 (pz)     0.0000 -0.0142  0.0493  0.0708  0.0000  0.0000  0.0000  0.0000
  10.  C 1 (d5)     0.0000  0.0067  0.0107  0.0119  0.0000  0.0000  0.0000  0.0000
  11.  C 1 (d2)    -0.0171  0.0000  0.0000  0.0000  0.0000 -0.0186  0.0000  0.0184
  12.  C 1 (d3)     0.0000  0.0000  0.0000  0.0000 -0.0186  0.0000  0.0184  0.0000
  13.  C 1 (d4)     0.0000  0.0000  0.0000  0.0000 -0.0126  0.0000 -0.0364  0.0000
  14.  C 1 (d1)    -0.0238  0.0000  0.0000  0.0000  0.0000 -0.0126  0.0000 -0.0364
  15.  C 2 (s)      0.0000 -0.1525 -0.0522 -0.0558  0.0000  0.0000  0.0000  0.0000
  16.  C 2 (s)      0.0000  0.2874  0.1222  0.1151  0.0000  0.0000  0.0000  0.0000
  17.  C 2 (px)     0.0058  0.0000  0.0000  0.0000  0.0000  0.0445  0.0000  0.0392
  18.  C 2 (py)     0.0000  0.0000  0.0000  0.0000  0.0445  0.0000  0.0392  0.0000
  19.  C 2 (pz)     0.0000  0.1795 -0.2369 -0.1629  0.0000  0.0000  0.0000  0.0000
  20.  C 2 (s)      0.0000  0.1016  0.0780  0.1133  0.0000  0.0000  0.0000  0.0000
  21.  C 2 (px)     0.0142  0.0000  0.0000  0.0000  0.0000  0.0209  0.0000  0.0473
  22.  C 2 (py)     0.0000  0.0000  0.0000  0.0000  0.0209  0.0000  0.0473  0.0000
  23.  C 2 (pz)     0.0000 -0.1029 -0.0559 -0.0050  0.0000  0.0000  0.0000  0.0000
  24.  C 2 (d5)     0.0000  0.0275  0.0162  0.0071  0.0000  0.0000  0.0000  0.0000
  25.  C 2 (d2)    -0.0024  0.0000  0.0000  0.0000  0.0000 -0.0054  0.0000 -0.0034
  26.  C 2 (d3)     0.0000  0.0000  0.0000  0.0000 -0.0054  0.0000 -0.0034  0.0000
  27.  C 2 (d4)     0.0000  0.0000  0.0000  0.0000  0.0009  0.0000 -0.0037  0.0000
  28.  C 2 (d1)     0.0000  0.0000  0.0000  0.0000  0.0000  0.0009  0.0000 -0.0037
  29.  F 3 (s)      0.0000  0.0105  0.0535 -0.0272  0.0453  0.0000  0.0070  0.0000
  30.  F 3 (s)      0.0000 -0.0236 -0.1263  0.0668 -0.1067  0.0000 -0.0220  0.0000
  31.  F 3 (px)     0.0124  0.0000  0.0000  0.0000  0.0000  0.2644  0.0000 -0.3307
  32.  F 3 (py)     0.0000 -0.0076 -0.1481  0.2420 -0.3173  0.0000 -0.0066  0.0000
  33.  F 3 (pz)     0.0000  0.0157  0.1034  0.1252  0.1736  0.0000  0.4154  0.0000
  34.  F 3 (s)      0.0000 -0.0269 -0.1508  0.0748 -0.1623  0.0000 -0.0059  0.0000
  35.  F 3 (px)     0.0123  0.0000  0.0000  0.0000  0.0000  0.1762  0.0000 -0.2339
  36.  F 3 (py)     0.0000 -0.0058 -0.0963  0.1603 -0.1997  0.0000 -0.0067  0.0000
  37.  F 3 (pz)     0.0000  0.0062  0.0602  0.0802  0.1095  0.0000  0.2988  0.0000
  38.  F 3 (d5)     0.0000 -0.0005 -0.0018  0.0115 -0.0042  0.0000  0.0095  0.0000
  39.  F 3 (d2)     0.0014  0.0000  0.0000  0.0000  0.0000  0.0069  0.0000 -0.0032
  40.  F 3 (d3)     0.0000 -0.0011 -0.0108 -0.0034 -0.0139  0.0000 -0.0179  0.0000
  41.  F 3 (d4)     0.0000 -0.0007 -0.0102  0.0136 -0.0121  0.0000 -0.0015  0.0000
  42.  F 3 (d1)    -0.0017  0.0000  0.0000  0.0000  0.0000 -0.0144  0.0000  0.0132
  43.  F 4 (s)     -0.1650  0.0105  0.0535 -0.0272 -0.0227  0.0392 -0.0035  0.0061
  44.  F 4 (s)      0.3553 -0.0236 -0.1263  0.0668  0.0533 -0.0924  0.0110 -0.0190
  45.  F 4 (px)    -0.0306 -0.0066 -0.1282  0.2095  0.2519 -0.1719 -0.1403 -0.0876
  46.  F 4 (py)     0.0248  0.0038  0.0740 -0.1210  0.1190  0.2519 -0.2497 -0.1403
  47.  F 4 (pz)     0.0190  0.0157  0.1034  0.1252 -0.0868  0.1503 -0.2077  0.3597
  48.  F 4 (s)      0.3890 -0.0269 -0.1508  0.0748  0.0812 -0.1406  0.0029 -0.0051
  49.  F 4 (px)    -0.0251 -0.0050 -0.0834  0.1388  0.1628 -0.1057 -0.0984 -0.0635
  50.  F 4 (py)     0.0216  0.0029  0.0481 -0.0802  0.0822  0.1628 -0.1771 -0.0984
  51.  F 4 (pz)     0.0164  0.0062  0.0602  0.0802 -0.0547  0.0948 -0.1494  0.2588
  52.  F 4 (d5)    -0.0021 -0.0005 -0.0018  0.0115  0.0021 -0.0036 -0.0047  0.0082
  53.  F 4 (d2)    -0.0040 -0.0009 -0.0093 -0.0030  0.0090 -0.0087  0.0064 -0.0142
  54.  F 4 (d3)     0.0031  0.0005  0.0054  0.0017  0.0017  0.0090 -0.0069  0.0064
  55.  F 4 (d4)     0.0020  0.0003  0.0051 -0.0068 -0.0139 -0.0010  0.0095  0.0064
  56.  F 4 (d1)    -0.0052 -0.0006 -0.0088  0.0117 -0.0010 -0.0127  0.0064  0.0022
  57.  F 5 (s)      0.1650  0.0105  0.0535 -0.0272 -0.0227 -0.0392 -0.0035 -0.0061
  58.  F 5 (s)     -0.3553 -0.0236 -0.1263  0.0668  0.0533  0.0924  0.0110  0.0190
  59.  F 5 (px)    -0.0306  0.0066  0.1282 -0.2095 -0.2519 -0.1719  0.1403 -0.0876
  60.  F 5 (py)    -0.0248  0.0038  0.0740 -0.1210  0.1190 -0.2519 -0.2497  0.1403
  61.  F 5 (pz)    -0.0190  0.0157  0.1034  0.1252 -0.0868 -0.1503 -0.2077 -0.3597
  62.  F 5 (s)     -0.3890 -0.0269 -0.1508  0.0748  0.0812  0.1406  0.0029  0.0051
  63.  F 5 (px)    -0.0251  0.0050  0.0834 -0.1388 -0.1628 -0.1057  0.0984 -0.0635
  64.  F 5 (py)    -0.0216  0.0029  0.0481 -0.0802  0.0822 -0.1628 -0.1771  0.0984
  65.  F 5 (pz)    -0.0164  0.0062  0.0602  0.0802 -0.0547 -0.0948 -0.1494 -0.2588
  66.  F 5 (d5)     0.0021 -0.0005 -0.0018  0.0115  0.0021  0.0036 -0.0047 -0.0082
  67.  F 5 (d2)    -0.0040  0.0009  0.0093  0.0030 -0.0090 -0.0087 -0.0064 -0.0142
  68.  F 5 (d3)    -0.0031  0.0005  0.0054  0.0017  0.0017 -0.0090 -0.0069 -0.0064
  69.  F 5 (d4)    -0.0020  0.0003  0.0051 -0.0068 -0.0139  0.0010  0.0095 -0.0064
  70.  F 5 (d1)    -0.0052  0.0006  0.0088 -0.0117  0.0010 -0.0127 -0.0064  0.0022
  71.  N 6 (s)      0.0000 -0.1755  0.0560  0.0372  0.0000  0.0000  0.0000  0.0000
  72.  N 6 (s)      0.0000  0.3565 -0.1236 -0.0777  0.0000  0.0000  0.0000  0.0000
  73.  N 6 (px)     0.0014  0.0000  0.0000  0.0000  0.0000  0.0191  0.0000  0.0228
  74.  N 6 (py)     0.0000  0.0000  0.0000  0.0000  0.0191  0.0000  0.0228  0.0000
  75.  N 6 (pz)     0.0000 -0.1784  0.0396  0.0046  0.0000  0.0000  0.0000  0.0000
  76.  N 6 (s)      0.0000  0.3929 -0.0867 -0.1130  0.0000  0.0000  0.0000  0.0000
  77.  N 6 (px)    -0.0047  0.0000  0.0000  0.0000  0.0000  0.0061  0.0000 -0.0001
  78.  N 6 (py)     0.0000  0.0000  0.0000  0.0000  0.0061  0.0000 -0.0001  0.0000
  79.  N 6 (pz)     0.0000 -0.0796  0.0007  0.0081  0.0000  0.0000  0.0000  0.0000
  80.  N 6 (d5)     0.0000  0.0211 -0.0080 -0.0032  0.0000  0.0000  0.0000  0.0000
  81.  N 6 (d2)     0.0002  0.0000  0.0000  0.0000  0.0000 -0.0029  0.0000 -0.0019
  82.  N 6 (d3)     0.0000  0.0000  0.0000  0.0000 -0.0029  0.0000 -0.0019  0.0000
  83.  N 6 (d4)     0.0000  0.0000  0.0000  0.0000  0.0000  0.0000  0.0001  0.0000
  84.  N 6 (d1)     0.0000  0.0000  0.0000  0.0000  0.0000  0.0000  0.0000  0.0001

           AO         17      18      19      20      21      22      23      24
      ------------ ------- ------- ------- ------- ------- ------- ------- -------
   1.  C 1 (s)      0.0000  0.0000  0.0006  0.0000 -0.0178  0.0000  0.0000  0.0000
   2.  C 1 (s)      0.0000  0.0000 -0.0110  0.0000  0.0413  0.0000  0.0000  0.0000
   3.  C 1 (px)     0.0000 -0.1041  0.0000  0.0000  0.0000  0.0000  0.0012 -0.1877
   4.  C 1 (py)    -0.1041  0.0000  0.0000  0.0000  0.0000  0.0012  0.0000  0.0000
   5.  C 1 (pz)     0.0000  0.0000 -0.1650  0.0000  0.1471  0.0000  0.0000  0.0000
   6.  C 1 (s)      0.0000  0.0000  0.0264  0.0000  0.1096  0.0000  0.0000  0.0000
   7.  C 1 (px)     0.0000  0.0604  0.0000  0.0000  0.0000  0.0000 -0.0075 -0.3698
   8.  C 1 (py)     0.0604  0.0000  0.0000  0.0000  0.0000 -0.0075  0.0000  0.0000
   9.  C 1 (pz)     0.0000  0.0000  0.0815  0.0000  0.0206  0.0000  0.0000  0.0000
  10.  C 1 (d5)     0.0000  0.0000 -0.0455  0.0000  0.0207  0.0000  0.0000  0.0000
  11.  C 1 (d2)     0.0000  0.0263  0.0000  0.0000  0.0000  0.0000  0.0155 -0.0429
  12.  C 1 (d3)     0.0263  0.0000  0.0000  0.0000  0.0000  0.0155  0.0000  0.0000
  13.  C 1 (d4)     0.0310  0.0000  0.0000  0.0000  0.0000  0.0059  0.0000  0.0000
  14.  C 1 (d1)     0.0000  0.0310  0.0000  0.0000  0.0000  0.0000  0.0059 -0.0139
  15.  C 2 (s)      0.0000  0.0000  0.0997  0.0000  0.0440  0.0000  0.0000  0.0000
  16.  C 2 (s)      0.0000  0.0000 -0.2222  0.0000 -0.0876  0.0000  0.0000  0.0000
  17.  C 2 (px)     0.0000  0.0221  0.0000  0.0000  0.0000  0.0000  0.3990 -0.3545
  18.  C 2 (py)     0.0221  0.0000  0.0000  0.0000  0.0000  0.3990  0.0000  0.0000
  19.  C 2 (pz)     0.0000  0.0000  0.1397  0.0000 -0.2945  0.0000  0.0000  0.0000
  20.  C 2 (s)      0.0000  0.0000 -0.2215  0.0000 -0.0119  0.0000  0.0000  0.0000
  21.  C 2 (px)     0.0000  0.0193  0.0000  0.0000  0.0000  0.0000  0.2447 -0.5093
  22.  C 2 (py)     0.0193  0.0000  0.0000  0.0000  0.0000  0.2447  0.0000  0.0000
  23.  C 2 (pz)     0.0000  0.0000  0.1648  0.0000 -0.0123  0.0000  0.0000  0.0000
  24.  C 2 (d5)     0.0000  0.0000 -0.0110  0.0000  0.0041  0.0000  0.0000  0.0000
  25.  C 2 (d2)     0.0000  0.0018  0.0000  0.0000  0.0000  0.0000  0.0285  0.0491
  26.  C 2 (d3)     0.0018  0.0000  0.0000  0.0000  0.0000  0.0285  0.0000  0.0000
  27.  C 2 (d4)    -0.0002  0.0000  0.0000  0.0000  0.0000  0.0009  0.0000  0.0000
  28.  C 2 (d1)     0.0000 -0.0002  0.0000  0.0000  0.0000  0.0000  0.0009 -0.0035
  29.  F 3 (s)     -0.0038  0.0000  0.0004  0.0000  0.0014  0.0037  0.0000  0.0000
  30.  F 3 (s)      0.0145  0.0000 -0.0065  0.0000  0.0000 -0.0093  0.0000  0.0000
  31.  F 3 (px)     0.0000  0.3103  0.0000  0.4006  0.0000  0.0000 -0.0273  0.0786
  32.  F 3 (py)     0.3700  0.0000 -0.0134  0.0000  0.0204  0.0212  0.0000  0.0000
  33.  F 3 (pz)     0.2630  0.0000  0.3176  0.0000 -0.1153 -0.0923  0.0000  0.0000
  34.  F 3 (s)     -0.0101  0.0000  0.0211  0.0000 -0.0212 -0.0139  0.0000  0.0000
  35.  F 3 (px)     0.0000  0.2133  0.0000  0.2839  0.0000  0.0000 -0.0197  0.1090
  36.  F 3 (py)     0.2667  0.0000 -0.0186  0.0000  0.0211  0.0154  0.0000  0.0000
  37.  F 3 (pz)     0.1818  0.0000  0.2271  0.0000 -0.0868 -0.0717  0.0000  0.0000
  38.  F 3 (d5)     0.0124  0.0000  0.0020  0.0000  0.0012 -0.0002  0.0000  0.0000
  39.  F 3 (d2)     0.0000  0.0057  0.0000  0.0080  0.0000  0.0000  0.0002 -0.0073
  40.  F 3 (d3)    -0.0037  0.0000 -0.0116  0.0000  0.0029  0.0031  0.0000  0.0000
  41.  F 3 (d4)     0.0158  0.0000 -0.0021  0.0000  0.0015 -0.0001  0.0000  0.0000
  42.  F 3 (d1)     0.0000 -0.0097  0.0000 -0.0150  0.0000  0.0000  0.0007 -0.0024
  43.  F 4 (s)      0.0019 -0.0033  0.0004  0.0000  0.0014 -0.0019  0.0032 -0.0242
  44.  F 4 (s)     -0.0072  0.0125 -0.0065  0.0000  0.0000  0.0047 -0.0081  0.0459
  45.  F 4 (px)    -0.0259  0.3551 -0.0116 -0.2003  0.0177 -0.0210  0.0091 -0.0442
  46.  F 4 (py)     0.3252 -0.0259  0.0067 -0.3469 -0.0102 -0.0152 -0.0210  0.0709
  47.  F 4 (pz)    -0.1315  0.2278  0.3176  0.0000 -0.1153  0.0461 -0.0799  0.1083
  48.  F 4 (s)      0.0051 -0.0088  0.0211  0.0000 -0.0212  0.0069 -0.0120  0.2291
  49.  F 4 (px)    -0.0231  0.2533 -0.0161 -0.1420  0.0183 -0.0152  0.0066 -0.0740
  50.  F 4 (py)     0.2266 -0.0231  0.0093 -0.2459 -0.0106 -0.0109 -0.0152  0.1057
  51.  F 4 (pz)    -0.0909  0.1574  0.2271  0.0000 -0.0868  0.0359 -0.0621  0.1129
  52.  F 4 (d5)    -0.0062  0.0108  0.0020  0.0000  0.0012  0.0001 -0.0001 -0.0057
  53.  F 4 (d2)     0.0041 -0.0014 -0.0100 -0.0040  0.0025 -0.0012  0.0024 -0.0010
  54.  F 4 (d3)     0.0033  0.0041  0.0058 -0.0069 -0.0014  0.0010 -0.0012 -0.0037
  55.  F 4 (d4)    -0.0033 -0.0111  0.0010  0.0129 -0.0007  0.0005  0.0003 -0.0007
  56.  F 4 (d1)    -0.0111  0.0094 -0.0018  0.0075  0.0013  0.0003  0.0001 -0.0011
  57.  F 5 (s)      0.0019  0.0033  0.0004  0.0000  0.0014 -0.0019 -0.0032  0.0242
  58.  F 5 (s)     -0.0072 -0.0125 -0.0065  0.0000  0.0000  0.0047  0.0081 -0.0459
  59.  F 5 (px)     0.0259  0.3551  0.0116 -0.2003 -0.0177  0.0210  0.0091 -0.0442
  60.  F 5 (py)     0.3252  0.0259  0.0067  0.3469 -0.0102 -0.0152  0.0210 -0.0709
  61.  F 5 (pz)    -0.1315 -0.2278  0.3176  0.0000 -0.1153  0.0461  0.0799 -0.1083
  62.  F 5 (s)      0.0051  0.0088  0.0211  0.0000 -0.0212  0.0069  0.0120 -0.2291
  63.  F 5 (px)     0.0231  0.2533  0.0161 -0.1420 -0.0183  0.0152  0.0066 -0.0740
  64.  F 5 (py)     0.2266  0.0231  0.0093  0.2459 -0.0106 -0.0109  0.0152 -0.1057
  65.  F 5 (pz)    -0.0909 -0.1574  0.2271  0.0000 -0.0868  0.0359  0.0621 -0.1129
  66.  F 5 (d5)    -0.0062 -0.0108  0.0020  0.0000  0.0012  0.0001  0.0001  0.0057
  67.  F 5 (d2)    -0.0041 -0.0014  0.0100 -0.0040 -0.0025  0.0012  0.0024 -0.0010
  68.  F 5 (d3)     0.0033 -0.0041  0.0058  0.0069 -0.0014  0.0010  0.0012  0.0037
  69.  F 5 (d4)    -0.0033  0.0111  0.0010 -0.0129 -0.0007  0.0005 -0.0003  0.0007
  70.  F 5 (d1)     0.0111  0.0094  0.0018  0.0075 -0.0013 -0.0003  0.0001 -0.0011
  71.  N 6 (s)      0.0000  0.0000 -0.0643  0.0000 -0.0964  0.0000  0.0000  0.0000
  72.  N 6 (s)      0.0000  0.0000  0.1567  0.0000  0.2231  0.0000  0.0000  0.0000
  73.  N 6 (px)     0.0000  0.0174  0.0000  0.0000  0.0000  0.0000  0.4346  0.3916
  74.  N 6 (py)     0.0174  0.0000  0.0000  0.0000  0.0000  0.4346  0.0000  0.0000
  75.  N 6 (pz)     0.0000  0.0000  0.1402  0.0000  0.4864  0.0000  0.0000  0.0000
  76.  N 6 (s)      0.0000  0.0000  0.1143  0.0000  0.3734  0.0000  0.0000  0.0000
  77.  N 6 (px)     0.0000  0.0067  0.0000  0.0000  0.0000  0.0000  0.2748  0.5572
  78.  N 6 (py)     0.0067  0.0000  0.0000  0.0000  0.0000  0.2748  0.0000  0.0000
  79.  N 6 (pz)     0.0000  0.0000  0.1043  0.0000  0.2642  0.0000  0.0000  0.0000
  80.  N 6 (d5)     0.0000  0.0000 -0.0055  0.0000 -0.0284  0.0000  0.0000  0.0000
  81.  N 6 (d2)     0.0000 -0.0014  0.0000  0.0000  0.0000  0.0000 -0.0431  0.0053
  82.  N 6 (d3)    -0.0014  0.0000  0.0000  0.0000  0.0000 -0.0431  0.0000  0.0000
  83.  N 6 (d4)     0.0000  0.0000  0.0000  0.0000  0.0000  0.0000  0.0000  0.0000
  84.  N 6 (d1)     0.0000  0.0000  0.0000  0.0000  0.0000  0.0000  0.0000 -0.0001

           AO         25      26      27      28      29      30      31      32
      ------------ ------- ------- ------- ------- ------- ------- ------- -------
   1.  C 1 (s)      0.0000  0.0699  0.1388  0.0000  0.0000 -0.1594 -0.0072  0.0000
   2.  C 1 (s)      0.0000 -0.4102 -0.3515  0.0000  0.0000  0.1162 -0.7521  0.0000
   3.  C 1 (px)     0.0000  0.0000  0.0000  0.6792  0.0000  0.0000  0.0000 -0.6303
   4.  C 1 (py)    -0.1877  0.0000  0.0000  0.0000  0.6792  0.0000  0.0000  0.0000
   5.  C 1 (pz)     0.0000 -0.4756  0.3524  0.0000  0.0000 -0.0016  0.6909  0.0000
   6.  C 1 (s)      0.0000  0.6243 -0.6387  0.0000  0.0000  5.1586  1.7564  0.0000
   7.  C 1 (px)     0.0000  0.0000  0.0000  1.1999  0.0000  0.0000  0.0000  1.4035
   8.  C 1 (py)    -0.3698  0.0000  0.0000  0.0000  1.1999  0.0000  0.0000  0.0000
   9.  C 1 (pz)     0.0000 -0.1000  1.3837  0.0000  0.0000  2.9838 -1.2424  0.0000
  10.  C 1 (d5)     0.0000  0.0106 -0.0188  0.0000  0.0000 -0.0098 -0.1306  0.0000
  11.  C 1 (d2)     0.0000  0.0000  0.0000  0.0224  0.0000  0.0000  0.0000 -0.0856
  12.  C 1 (d3)    -0.0429  0.0000  0.0000  0.0000  0.0224  0.0000  0.0000  0.0000
  13.  C 1 (d4)    -0.0139  0.0000  0.0000  0.0000  0.0438  0.0000  0.0000  0.0000
  14.  C 1 (d1)     0.0000  0.0000  0.0000  0.0438  0.0000  0.0000  0.0000 -0.0792
  15.  C 2 (s)      0.0000 -0.1015 -0.0091  0.0000  0.0000  0.1054  0.0556  0.0000
  16.  C 2 (s)      0.0000 -0.0337  0.0562  0.0000  0.0000 -0.2150 -0.5073  0.0000
  17.  C 2 (px)     0.0000  0.0000  0.0000 -0.2846  0.0000  0.0000  0.0000 -0.6735
  18.  C 2 (py)    -0.3545  0.0000  0.0000  0.0000 -0.2846  0.0000  0.0000  0.0000
  19.  C 2 (pz)     0.0000 -0.1311 -0.0318  0.0000  0.0000  0.1991  0.2768  0.0000
  20.  C 2 (s)      0.0000  2.7234 -0.1233  0.0000  0.0000  0.0753  1.7146  0.0000
  21.  C 2 (px)     0.0000  0.0000  0.0000 -0.6975  0.0000  0.0000  0.0000  0.2987
  22.  C 2 (py)    -0.5093  0.0000  0.0000  0.0000 -0.6975  0.0000  0.0000  0.0000
  23.  C 2 (pz)     0.0000  1.8272  1.0764  0.0000  0.0000  6.1927  0.7224  0.0000
  24.  C 2 (d5)     0.0000 -0.0412 -0.0080  0.0000  0.0000  0.0392  0.0736  0.0000
  25.  C 2 (d2)     0.0000  0.0000  0.0000 -0.0233  0.0000  0.0000  0.0000  0.0201
  26.  C 2 (d3)     0.0491  0.0000  0.0000  0.0000 -0.0233  0.0000  0.0000  0.0000
  27.  C 2 (d4)    -0.0035  0.0000  0.0000  0.0000  0.0107  0.0000  0.0000  0.0000
  28.  C 2 (d1)     0.0000  0.0000  0.0000  0.0107  0.0000  0.0000  0.0000  0.0071
  29.  F 3 (s)     -0.0279  0.0018 -0.0626  0.0000  0.0589  0.0170  0.0237  0.0000
  30.  F 3 (s)      0.0531  0.0021  0.1317  0.0000 -0.1122 -0.0327 -0.0146  0.0000
  31.  F 3 (px)     0.0000  0.0000  0.0000 -0.1720  0.0000  0.0000  0.0000 -0.1006
  32.  F 3 (py)    -0.0851 -0.0233 -0.2476  0.0000  0.2075  0.0820 -0.1351  0.0000
  33.  F 3 (pz)     0.1250  0.0547 -0.0349  0.0000 -0.1002 -0.1198  0.0446  0.0000
  34.  F 3 (s)      0.2645 -0.0822  0.5863  0.0000 -0.6769 -0.2135 -0.5563  0.0000
  35.  F 3 (px)     0.0000  0.0000  0.0000 -0.2370  0.0000  0.0000  0.0000 -0.1635
  36.  F 3 (py)    -0.1350  0.0427 -0.4548  0.0000  0.3675  0.1493  0.2534  0.0000
  37.  F 3 (pz)     0.1303  0.0802 -0.0411  0.0000 -0.1933 -0.2500  0.0719  0.0000
  38.  F 3 (d5)    -0.0065  0.0052 -0.0017  0.0000 -0.0076 -0.0133  0.0632  0.0000
  39.  F 3 (d2)     0.0000  0.0000  0.0000  0.0160  0.0000  0.0000  0.0000 -0.0031
  40.  F 3 (d3)     0.0011  0.0188 -0.0084  0.0000 -0.0180 -0.0014  0.0042  0.0000
  41.  F 3 (d4)    -0.0007  0.0008  0.0036  0.0000 -0.0068 -0.0073  0.0812  0.0000
  42.  F 3 (d1)     0.0000  0.0000  0.0000 -0.0220  0.0000  0.0000  0.0000  0.0442
  43.  F 4 (s)      0.0140  0.0018 -0.0626  0.0510 -0.0295  0.0170  0.0237  0.0182
  44.  F 4 (s)     -0.0265  0.0021  0.1317 -0.0971  0.0561 -0.0327 -0.0146  0.0123
  45.  F 4 (px)     0.0709 -0.0202 -0.2144  0.1126 -0.1643  0.0710 -0.1170 -0.1634
  46.  F 4 (py)     0.0377  0.0117  0.1238 -0.1643 -0.0771 -0.0410  0.0675  0.0362
  47.  F 4 (pz)    -0.0625  0.0547 -0.0349 -0.0868  0.0501 -0.1198  0.0446  0.0100
  48.  F 4 (s)     -0.1323 -0.0822  0.5863 -0.5862  0.3385 -0.2135 -0.5563 -0.5528
  49.  F 4 (px)     0.1057  0.0370 -0.3938  0.2164 -0.2618  0.1293  0.2195  0.0684
  50.  F 4 (py)     0.0480 -0.0214  0.2274 -0.2618 -0.0859 -0.0747 -0.1267 -0.1339
  51.  F 4 (pz)    -0.0652  0.0802 -0.0411 -0.1674  0.0966 -0.2500  0.0719 -0.1049
  52.  F 4 (d5)     0.0033  0.0052 -0.0017 -0.0066  0.0038 -0.0133  0.0632  0.0199
  53.  F 4 (d2)    -0.0037  0.0163 -0.0072 -0.0095  0.0147 -0.0012  0.0036  0.0468
  54.  F 4 (d3)    -0.0052 -0.0094  0.0042  0.0147  0.0075  0.0007 -0.0021 -0.0288
  55.  F 4 (d4)    -0.0020 -0.0004 -0.0018 -0.0066 -0.0182  0.0036 -0.0406 -0.0103
  56.  F 4 (d1)    -0.0007  0.0007  0.0032 -0.0106 -0.0066 -0.0063  0.0703  0.0620
  57.  F 5 (s)      0.0140  0.0018 -0.0626 -0.0510 -0.0295  0.0170  0.0237 -0.0182
  58.  F 5 (s)     -0.0265  0.0021  0.1317  0.0971  0.0561 -0.0327 -0.0146 -0.0123
  59.  F 5 (px)    -0.0709  0.0202  0.2144  0.1126  0.1643 -0.0710  0.1170 -0.1634
  60.  F 5 (py)     0.0377  0.0117  0.1238  0.1643 -0.0771 -0.0410  0.0675 -0.0362
  61.  F 5 (pz)    -0.0625  0.0547 -0.0349  0.0868  0.0501 -0.1198  0.0446 -0.0100
  62.  F 5 (s)     -0.1323 -0.0822  0.5863  0.5862  0.3385 -0.2135 -0.5563  0.5528
  63.  F 5 (px)    -0.1057 -0.0370  0.3938  0.2164  0.2618 -0.1293 -0.2195  0.0684
  64.  F 5 (py)     0.0480 -0.0214  0.2274  0.2618 -0.0859 -0.0747 -0.1267  0.1339
  65.  F 5 (pz)    -0.0652  0.0802 -0.0411  0.1674  0.0966 -0.2500  0.0719  0.1049
  66.  F 5 (d5)     0.0033  0.0052 -0.0017  0.0066  0.0038 -0.0133  0.0632 -0.0199
  67.  F 5 (d2)     0.0037 -0.0163  0.0072 -0.0095 -0.0147  0.0012 -0.0036  0.0468
  68.  F 5 (d3)    -0.0052 -0.0094  0.0042 -0.0147  0.0075  0.0007 -0.0021  0.0288
  69.  F 5 (d4)    -0.0020 -0.0004 -0.0018  0.0066 -0.0182  0.0036 -0.0406  0.0103
  70.  F 5 (d1)     0.0007 -0.0007 -0.0032 -0.0106  0.0066  0.0063 -0.0703  0.0620
  71.  N 6 (s)      0.0000  0.0948  0.0196  0.0000  0.0000  0.0791  0.0238  0.0000
  72.  N 6 (s)      0.0000 -0.1140 -0.0140  0.0000  0.0000  0.0358 -0.0065  0.0000
  73.  N 6 (px)     0.0000  0.0000  0.0000  0.1694  0.0000  0.0000  0.0000 -0.1075
  74.  N 6 (py)     0.3916  0.0000  0.0000  0.0000  0.1694  0.0000  0.0000  0.0000
  75.  N 6 (pz)     0.0000  0.2061  0.0183  0.0000  0.0000 -0.1701 -0.1420  0.0000
  76.  N 6 (s)      0.0000 -2.5602 -0.8283  0.0000  0.0000 -4.9615 -1.2584  0.0000
  77.  N 6 (px)     0.0000  0.0000  0.0000  0.4112  0.0000  0.0000  0.0000  0.1724
  78.  N 6 (py)     0.5572  0.0000  0.0000  0.0000  0.4112  0.0000  0.0000  0.0000
  79.  N 6 (pz)     0.0000  1.1882  0.3005  0.0000  0.0000  1.8410  0.7188  0.0000
  80.  N 6 (d5)     0.0000 -0.0396 -0.0073  0.0000  0.0000 -0.0688 -0.0461  0.0000
  81.  N 6 (d2)     0.0000  0.0000  0.0000  0.0217  0.0000  0.0000  0.0000  0.0655
  82.  N 6 (d3)     0.0053  0.0000  0.0000  0.0000  0.0217  0.0000  0.0000  0.0000
  83.  N 6 (d4)    -0.0001  0.0000  0.0000  0.0000  0.0005  0.0000  0.0000  0.0000
  84.  N 6 (d1)     0.0000  0.0000  0.0000  0.0005  0.0000  0.0000  0.0000  0.0006

           AO         33      34      35      36      37      38      39      40
      ------------ ------- ------- ------- ------- ------- ------- ------- -------
   1.  C 1 (s)      0.0000  0.0000  0.0000  0.0293  0.0234  0.0000  0.0000 -0.0457
   2.  C 1 (s)      0.0000  0.0000  0.0000  0.4122  0.3238  0.0000  0.0000 -1.3708
   3.  C 1 (px)     0.0000 -0.5039  0.0000  0.0000  0.0000 -0.1086  0.0000  0.0000
   4.  C 1 (py)    -0.6303  0.0000 -0.5039  0.0000  0.0000  0.0000 -0.1086  0.0000
   5.  C 1 (pz)     0.0000  0.0000  0.0000  0.2067  0.3864  0.0000  0.0000 -0.5507
   6.  C 1 (s)      0.0000  0.0000  0.0000 -0.7355  0.7304  0.0000  0.0000  5.0357
   7.  C 1 (px)     0.0000  1.8955  0.0000  0.0000  0.0000  0.7553  0.0000  0.0000
   8.  C 1 (py)     1.4035  0.0000  1.8955  0.0000  0.0000  0.0000  0.7553  0.0000
   9.  C 1 (pz)     0.0000  0.0000  0.0000 -0.5445 -0.3059  0.0000  0.0000  2.2825
  10.  C 1 (d5)     0.0000  0.0000  0.0000  0.0449  0.0976  0.0000  0.0000  0.0611
  11.  C 1 (d2)     0.0000 -0.0344  0.0000  0.0000  0.0000 -0.0079  0.0000  0.0000
  12.  C 1 (d3)    -0.0856  0.0000 -0.0344  0.0000  0.0000  0.0000 -0.0079  0.0000
  13.  C 1 (d4)    -0.0792  0.0000 -0.0729  0.0000  0.0000  0.0000 -0.0151  0.0000
  14.  C 1 (d1)     0.0000 -0.0729  0.0000  0.0000  0.0000 -0.0151  0.0000  0.0000
  15.  C 2 (s)      0.0000  0.0000  0.0000 -0.0151  0.0205  0.0000  0.0000  0.0621
  16.  C 2 (s)      0.0000  0.0000  0.0000  1.0307  0.0826  0.0000  0.0000  0.5218
  17.  C 2 (px)     0.0000  0.6577  0.0000  0.0000  0.0000  0.4559  0.0000  0.0000
  18.  C 2 (py)    -0.6735  0.0000  0.6577  0.0000  0.0000  0.0000  0.4559  0.0000
  19.  C 2 (pz)     0.0000  0.0000  0.0000  0.1834 -0.7827  0.0000  0.0000 -0.5889
  20.  C 2 (s)      0.0000  0.0000  0.0000  1.4242  0.1547  0.0000  0.0000 -3.3157
  21.  C 2 (px)     0.0000 -1.4065  0.0000  0.0000  0.0000 -1.2122  0.0000  0.0000
  22.  C 2 (py)     0.2987  0.0000 -1.4065  0.0000  0.0000  0.0000 -1.2122  0.0000
  23.  C 2 (pz)     0.0000  0.0000  0.0000  0.7873  2.2921  0.0000  0.0000  2.5250
  24.  C 2 (d5)     0.0000  0.0000  0.0000  0.1003  0.1053  0.0000  0.0000  0.0568
  25.  C 2 (d2)     0.0000  0.0510  0.0000  0.0000  0.0000 -0.1068  0.0000  0.0000
  26.  C 2 (d3)     0.0201  0.0000  0.0510  0.0000  0.0000  0.0000 -0.1068  0.0000
  27.  C 2 (d4)     0.0071  0.0000  0.0115  0.0000  0.0000  0.0000  0.0113  0.0000
  28.  C 2 (d1)     0.0000  0.0115  0.0000  0.0000  0.0000  0.0113  0.0000  0.0000
  29.  F 3 (s)      0.0210  0.0000  0.0201 -0.0111 -0.0137  0.0000  0.0050  0.0197
  30.  F 3 (s)      0.0142  0.0000  0.0311  0.0438  0.0833  0.0000  0.0159 -0.0757
  31.  F 3 (px)     0.0000 -0.1238  0.0000  0.0000  0.0000 -0.0784  0.0000  0.0000
  32.  F 3 (py)    -0.1843  0.0000 -0.1179  0.0249  0.0163  0.0000  0.0029 -0.1057
  33.  F 3 (pz)     0.0116  0.0000  0.1138  0.0765  0.1576  0.0000  0.1260 -0.0391
  34.  F 3 (s)     -0.6384  0.0000 -0.7787  0.0807 -0.0667  0.0000 -0.2774 -0.3643
  35.  F 3 (px)     0.0000 -0.1941  0.0000  0.0000  0.0000 -0.0350  0.0000  0.0000
  36.  F 3 (py)     0.1457  0.0000  0.1851 -0.0552 -0.0046  0.0000  0.0530  0.2385
  37.  F 3 (pz)    -0.1211  0.0000 -0.1410  0.0778  0.0719  0.0000 -0.0977 -0.1626
  38.  F 3 (d5)     0.0230  0.0000 -0.0009 -0.0009 -0.0010  0.0000 -0.0229 -0.0498
  39.  F 3 (d2)     0.0000 -0.0217  0.0000  0.0000  0.0000 -0.0249  0.0000  0.0000
  40.  F 3 (d3)     0.0634  0.0000  0.0502 -0.0031  0.0076  0.0000  0.0109  0.0570
  41.  F 3 (d4)     0.0679  0.0000  0.0636 -0.0182 -0.0162  0.0000  0.0205  0.0694
  42.  F 3 (d1)     0.0000  0.0318  0.0000  0.0000  0.0000 -0.0092  0.0000  0.0000
  43.  F 4 (s)     -0.0105  0.0174 -0.0101 -0.0111 -0.0137  0.0044 -0.0025  0.0197
  44.  F 4 (s)     -0.0071  0.0270 -0.0156  0.0438  0.0833  0.0138 -0.0079 -0.0757
  45.  F 4 (px)     0.0362 -0.1194 -0.0026  0.0216  0.0142 -0.0174 -0.0352 -0.0916
  46.  F 4 (py)    -0.1215 -0.0026 -0.1223 -0.0125 -0.0082 -0.0352 -0.0580  0.0529
  47.  F 4 (pz)    -0.0058  0.0986 -0.0569  0.0765  0.1576  0.1091 -0.0630 -0.0391
  48.  F 4 (s)      0.3192 -0.6744  0.3894  0.0807 -0.0667 -0.2402  0.1387 -0.3643
  49.  F 4 (px)    -0.1339  0.0903 -0.1642 -0.0478 -0.0040  0.0310 -0.0381  0.2065
  50.  F 4 (py)    -0.0862 -0.1642 -0.0993  0.0276  0.0023 -0.0381 -0.0130 -0.1193
  51.  F 4 (pz)     0.0606 -0.1221  0.0705  0.0778  0.0719 -0.0846  0.0489 -0.1626
  52.  F 4 (d5)    -0.0115 -0.0008  0.0005 -0.0009 -0.0010 -0.0198  0.0115 -0.0498
  53.  F 4 (d2)    -0.0288  0.0322 -0.0311 -0.0027  0.0066  0.0020 -0.0155  0.0493
  54.  F 4 (d3)     0.0136 -0.0311 -0.0037  0.0016 -0.0038 -0.0155 -0.0159 -0.0285
  55.  F 4 (d4)     0.0501 -0.0138  0.0397  0.0091  0.0081 -0.0128 -0.0018 -0.0347
  56.  F 4 (d1)    -0.0103  0.0557 -0.0138 -0.0158 -0.0140  0.0131 -0.0128  0.0601
  57.  F 5 (s)     -0.0105 -0.0174 -0.0101 -0.0111 -0.0137 -0.0044 -0.0025  0.0197
  58.  F 5 (s)     -0.0071 -0.0270 -0.0156  0.0438  0.0833 -0.0138 -0.0079 -0.0757
  59.  F 5 (px)    -0.0362 -0.1194  0.0026 -0.0216 -0.0142 -0.0174  0.0352  0.0916
  60.  F 5 (py)    -0.1215  0.0026 -0.1223 -0.0125 -0.0082  0.0352 -0.0580  0.0529
  61.  F 5 (pz)    -0.0058 -0.0986 -0.0569  0.0765  0.1576 -0.1091 -0.0630 -0.0391
  62.  F 5 (s)      0.3192  0.6744  0.3894  0.0807 -0.0667  0.2402  0.1387 -0.3643
  63.  F 5 (px)     0.1339  0.0903  0.1642  0.0478  0.0040  0.0310  0.0381 -0.2065
  64.  F 5 (py)    -0.0862  0.1642 -0.0993  0.0276  0.0023  0.0381 -0.0130 -0.1193
  65.  F 5 (pz)     0.0606  0.1221  0.0705  0.0778  0.0719  0.0846  0.0489 -0.1626
  66.  F 5 (d5)    -0.0115  0.0008  0.0005 -0.0009 -0.0010  0.0198  0.0115 -0.0498
  67.  F 5 (d2)     0.0288  0.0322  0.0311  0.0027 -0.0066  0.0020  0.0155 -0.0493
  68.  F 5 (d3)     0.0136  0.0311 -0.0037  0.0016 -0.0038  0.0155 -0.0159 -0.0285
  69.  F 5 (d4)     0.0501  0.0138  0.0397  0.0091  0.0081  0.0128 -0.0018 -0.0347
  70.  F 5 (d1)     0.0103  0.0557  0.0138  0.0158  0.0140  0.0131  0.0128 -0.0601
  71.  N 6 (s)      0.0000  0.0000  0.0000  0.0808 -0.0032  0.0000  0.0000 -0.0277
  72.  N 6 (s)      0.0000  0.0000  0.0000 -0.1879 -0.1760  0.0000  0.0000  0.0896
  73.  N 6 (px)     0.0000  0.3680  0.0000  0.0000  0.0000 -0.8998  0.0000  0.0000
  74.  N 6 (py)    -0.1075  0.0000  0.3680  0.0000  0.0000  0.0000 -0.8998  0.0000
  75.  N 6 (pz)     0.0000  0.0000  0.0000 -0.4156 -0.0372  0.0000  0.0000 -0.5501
  76.  N 6 (s)      0.0000  0.0000  0.0000 -1.5359 -1.1291  0.0000  0.0000 -0.5149
  77.  N 6 (px)     0.0000 -0.0049  0.0000  0.0000  0.0000  1.4055  0.0000  0.0000
  78.  N 6 (py)     0.1724  0.0000 -0.0049  0.0000  0.0000  0.0000  1.4055  0.0000
  79.  N 6 (pz)     0.0000  0.0000  0.0000  1.8274 -0.1296  0.0000  0.0000  0.2262
  80.  N 6 (d5)     0.0000  0.0000  0.0000  0.0066 -0.1307  0.0000  0.0000 -0.1027
  81.  N 6 (d2)     0.0000 -0.0488  0.0000  0.0000  0.0000  0.0198  0.0000  0.0000
  82.  N 6 (d3)     0.0655  0.0000 -0.0488  0.0000  0.0000  0.0000  0.0198  0.0000
  83.  N 6 (d4)     0.0006  0.0000  0.0011  0.0000  0.0000  0.0000  0.0015  0.0000
  84.  N 6 (d1)     0.0000  0.0011  0.0000  0.0000  0.0000  0.0015  0.0000  0.0000

           AO         41      42      43      44      45      46      47      48
      ------------ ------- ------- ------- ------- ------- ------- ------- -------
   1.  C 1 (s)     -0.0994  0.0000  0.0000  0.0000  0.0000 -0.0708  0.0000  0.0000
   2.  C 1 (s)     -0.6562  0.0000  0.0000  0.0000  0.0000 -0.9004  0.0000  0.0000
   3.  C 1 (px)     0.0000  0.0000  0.0075  0.0000  0.3836  0.0000  0.0000 -0.0785
   4.  C 1 (py)     0.0000  0.0075  0.0000  0.3836  0.0000  0.0000 -0.0785  0.0000
   5.  C 1 (pz)     0.0983  0.0000  0.0000  0.0000  0.0000  0.1727  0.0000  0.0000
   6.  C 1 (s)      6.1241  0.0000  0.0000  0.0000  0.0000  1.9659  0.0000  0.0000
   7.  C 1 (px)     0.0000  0.0000  0.7107  0.0000  0.1380  0.0000  0.0000  0.1989
   8.  C 1 (py)     0.0000  0.7107  0.0000  0.1380  0.0000  0.0000  0.1989  0.0000
   9.  C 1 (pz)     2.3107  0.0000  0.0000  0.0000  0.0000  1.2746  0.0000  0.0000
  10.  C 1 (d5)    -0.1157  0.0000  0.0000  0.0000  0.0000  0.1083  0.0000  0.0000
  11.  C 1 (d2)     0.0000  0.0000  0.2517  0.0000 -0.3109  0.0000  0.0000 -0.3067
  12.  C 1 (d3)     0.0000  0.2517  0.0000 -0.3109  0.0000  0.0000 -0.3067  0.0000
  13.  C 1 (d4)     0.0000 -0.2263  0.0000 -0.1854  0.0000  0.0000  0.2637  0.0000
  14.  C 1 (d1)     0.0000  0.0000 -0.2263  0.0000 -0.1854  0.0000  0.0000  0.2637
  15.  C 2 (s)     -0.0160  0.0000  0.0000  0.0000  0.0000  0.0122  0.0000  0.0000
  16.  C 2 (s)      1.2914  0.0000  0.0000  0.0000  0.0000  0.3037  0.0000  0.0000
  17.  C 2 (px)     0.0000  0.0000  0.1349  0.0000 -0.0334  0.0000  0.0000  0.1425
  18.  C 2 (py)     0.0000  0.1349  0.0000 -0.0334  0.0000  0.0000  0.1425  0.0000
  19.  C 2 (pz)     0.1187  0.0000  0.0000  0.0000  0.0000  0.0901  0.0000  0.0000
  20.  C 2 (s)     -3.8773  0.0000  0.0000  0.0000  0.0000 -1.7186  0.0000  0.0000
  21.  C 2 (px)     0.0000  0.0000 -0.6429  0.0000  0.1599  0.0000  0.0000 -0.3235
  22.  C 2 (py)     0.0000 -0.6429  0.0000  0.1599  0.0000  0.0000 -0.3235  0.0000
  23.  C 2 (pz)     4.1490  0.0000  0.0000  0.0000  0.0000  1.4059  0.0000  0.0000
  24.  C 2 (d5)    -0.2088  0.0000  0.0000  0.0000  0.0000 -0.0815  0.0000  0.0000
  25.  C 2 (d2)     0.0000  0.0000 -0.2380  0.0000  0.2032  0.0000  0.0000  0.1235
  26.  C 2 (d3)     0.0000 -0.2380  0.0000  0.2032  0.0000  0.0000  0.1235  0.0000
  27.  C 2 (d4)     0.0000 -0.0940  0.0000  0.0298  0.0000  0.0000 -0.0555  0.0000
  28.  C 2 (d1)     0.0000  0.0000 -0.0940  0.0000  0.0298  0.0000  0.0000 -0.0555
  29.  F 3 (s)      0.0288  0.0212  0.0000  0.0570  0.0000 -0.0137  0.0027  0.0000
  30.  F 3 (s)     -0.0941 -0.1165  0.0000 -0.3734  0.0000  0.0806 -0.0435  0.0000
  31.  F 3 (px)     0.0000  0.0000  0.4197  0.0000  0.1054  0.0000  0.0000  0.1234
  32.  F 3 (py)    -0.1364 -0.2731  0.0000 -0.4320  0.0000  0.4614 -0.1520  0.0000
  33.  F 3 (pz)     0.1056 -0.2790  0.0000  0.3121  0.0000 -0.0644 -0.4852  0.0000
  34.  F 3 (s)     -0.4872 -0.2021  0.0000  0.0530  0.0000 -0.0595  0.0000  0.0000
  35.  F 3 (px)     0.0000  0.0000 -0.4772  0.0000 -0.1256  0.0000  0.0000 -0.2420
  36.  F 3 (py)     0.4128  0.3745  0.0000  0.8369  0.0000 -0.6301  0.1872  0.0000
  37.  F 3 (pz)    -0.3301  0.1990  0.0000 -0.4579  0.0000  0.0217  0.6755  0.0000
  38.  F 3 (d5)    -0.0789  0.1240  0.0000 -0.0580  0.0000 -0.0601 -0.1873  0.0000
  39.  F 3 (d2)     0.0000  0.0000  0.0125  0.0000 -0.0303  0.0000  0.0000  0.0506
  40.  F 3 (d3)    -0.0268 -0.0712  0.0000  0.0144  0.0000  0.0520  0.2003  0.0000
  41.  F 3 (d4)     0.1002  0.0182  0.0000 -0.0597  0.0000  0.1130 -0.0268  0.0000
  42.  F 3 (d1)     0.0000  0.0000  0.1831  0.0000  0.0076  0.0000  0.0000 -0.1981
  43.  F 4 (s)      0.0288 -0.0106  0.0184 -0.0285  0.0494 -0.0137 -0.0014  0.0024
  44.  F 4 (s)     -0.0941  0.0582 -0.1009  0.1867 -0.3234  0.0806  0.0217 -0.0376
  45.  F 4 (px)    -0.1181  0.3000 -0.0999  0.2327 -0.2976  0.3996  0.1192 -0.0831
  46.  F 4 (py)     0.0682  0.2465  0.3000 -0.0289  0.2327 -0.2307  0.0545  0.1192
  47.  F 4 (pz)     0.1056  0.1395 -0.2416 -0.1560  0.2703 -0.0644  0.2426 -0.4202
  48.  F 4 (s)     -0.4872  0.1011 -0.1750 -0.0265  0.0459 -0.0595  0.0000  0.0000
  49.  F 4 (px)     0.3575 -0.3688  0.1616 -0.4168  0.5963 -0.5456 -0.1858  0.0799
  50.  F 4 (py)    -0.2064 -0.2643 -0.3688  0.1150 -0.4168  0.3150 -0.1347 -0.1858
  51.  F 4 (pz)    -0.3301 -0.0995  0.1723  0.2289 -0.3965  0.0217 -0.3377  0.5850
  52.  F 4 (d5)    -0.0789 -0.0620  0.1074  0.0290 -0.0502 -0.0601  0.0937 -0.1622
  53.  F 4 (d2)    -0.0232  0.0362 -0.0503 -0.0194  0.0032  0.0450 -0.0648  0.1629
  54.  F 4 (d3)     0.0134 -0.0084  0.0362 -0.0191 -0.0194 -0.0260  0.0880 -0.0648
  55.  F 4 (d4)    -0.0501  0.1419  0.0714 -0.0092  0.0292 -0.0565 -0.1553 -0.0742
  56.  F 4 (d1)     0.0867  0.0714  0.0595  0.0292 -0.0429  0.0978 -0.0742 -0.0696
  57.  F 5 (s)      0.0288 -0.0106 -0.0184 -0.0285 -0.0494 -0.0137 -0.0014 -0.0024
  58.  F 5 (s)     -0.0941  0.0582  0.1009  0.1867  0.3234  0.0806  0.0217  0.0376
  59.  F 5 (px)     0.1181 -0.3000 -0.0999 -0.2327 -0.2976 -0.3996 -0.1192 -0.0831
  60.  F 5 (py)     0.0682  0.2465 -0.3000 -0.0289 -0.2327 -0.2307  0.0545 -0.1192
  61.  F 5 (pz)     0.1056  0.1395  0.2416 -0.1560 -0.2703 -0.0644  0.2426  0.4202
  62.  F 5 (s)     -0.4872  0.1011  0.1750 -0.0265 -0.0459 -0.0595  0.0000  0.0000
  63.  F 5 (px)    -0.3575  0.3688  0.1616  0.4168  0.5963  0.5456  0.1858  0.0799
  64.  F 5 (py)    -0.2064 -0.2643  0.3688  0.1150  0.4168  0.3150 -0.1347  0.1858
  65.  F 5 (pz)    -0.3301 -0.0995 -0.1723  0.2289  0.3965  0.0217 -0.3378 -0.5850
  66.  F 5 (d5)    -0.0789 -0.0620 -0.1074  0.0290  0.0502 -0.0601  0.0937  0.1622
  67.  F 5 (d2)     0.0232 -0.0362 -0.0503  0.0194  0.0032 -0.0450  0.0648  0.1629
  68.  F 5 (d3)     0.0134 -0.0084 -0.0362 -0.0191  0.0194 -0.0260  0.0880  0.0648
  69.  F 5 (d4)    -0.0501  0.1419 -0.0714 -0.0092 -0.0292 -0.0565 -0.1553  0.0742
  70.  F 5 (d1)    -0.0867 -0.0714  0.0595 -0.0292 -0.0429 -0.0978  0.0742 -0.0696
  71.  N 6 (s)      0.0421  0.0000  0.0000  0.0000  0.0000  0.0101  0.0000  0.0000
  72.  N 6 (s)     -0.2324  0.0000  0.0000  0.0000  0.0000 -0.1467  0.0000  0.0000
  73.  N 6 (px)     0.0000  0.0000  0.0093  0.0000 -0.0628  0.0000  0.0000 -0.1139
  74.  N 6 (py)     0.0000  0.0093  0.0000 -0.0628  0.0000  0.0000 -0.1139  0.0000
  75.  N 6 (pz)     0.5566  0.0000  0.0000  0.0000  0.0000  0.1253  0.0000  0.0000
  76.  N 6 (s)     -1.6304  0.0000  0.0000  0.0000  0.0000 -0.3014  0.0000  0.0000
  77.  N 6 (px)     0.0000  0.0000  0.3557  0.0000 -0.1019  0.0000  0.0000  0.1774
  78.  N 6 (py)     0.0000  0.3557  0.0000 -0.1019  0.0000  0.0000  0.1774  0.0000
  79.  N 6 (pz)    -0.0918  0.0000  0.0000  0.0000  0.0000 -0.1021  0.0000  0.0000
  80.  N 6 (d5)     0.1497  0.0000  0.0000  0.0000  0.0000  0.0476  0.0000  0.0000
  81.  N 6 (d2)     0.0000  0.0000  0.1137  0.0000 -0.0889  0.0000  0.0000 -0.0418
  82.  N 6 (d3)     0.0000  0.1137  0.0000 -0.0889  0.0000  0.0000 -0.0418  0.0000
  83.  N 6 (d4)     0.0000 -0.0225  0.0000  0.0093  0.0000  0.0000 -0.0270  0.0000
  84.  N 6 (d1)     0.0000  0.0000 -0.0225  0.0000  0.0093  0.0000  0.0000 -0.0270

           AO         49      50      51      52      53      54      55      56
      ------------ ------- ------- ------- ------- ------- ------- ------- -------
   1.  C 1 (s)      0.0000  0.0000  0.0000  0.0070  0.0000  0.0000  0.0144  0.0000
   2.  C 1 (s)      0.0000  0.0000  0.0000 -0.0490  0.0000  0.0000  0.2463  0.0000
   3.  C 1 (px)     0.0000  0.1825  0.0000  0.0000  0.0287  0.0000  0.0000 -0.0082
   4.  C 1 (py)     0.0000  0.0000  0.1825  0.0000  0.0000  0.0287  0.0000  0.0000
   5.  C 1 (pz)     0.0000  0.0000  0.0000 -0.3592  0.0000  0.0000  0.0217  0.0000
   6.  C 1 (s)      0.0000  0.0000  0.0000 -1.5631  0.0000  0.0000 -3.5132  0.0000
   7.  C 1 (px)     0.0000 -0.5883  0.0000  0.0000 -0.0055  0.0000  0.0000 -0.3382
   8.  C 1 (py)     0.0000  0.0000 -0.5883  0.0000  0.0000 -0.0055  0.0000  0.0000
   9.  C 1 (pz)     0.0000  0.0000  0.0000  0.1318  0.0000  0.0000 -1.9132  0.0000
  10.  C 1 (d5)     0.0000  0.0000  0.0000 -0.2916  0.0000  0.0000 -0.0090  0.0000
  11.  C 1 (d2)     0.0000  0.0055  0.0000  0.0000  0.0434  0.0000  0.0000 -0.1524
  12.  C 1 (d3)     0.0000  0.0000  0.0055  0.0000  0.0000  0.0434  0.0000  0.0000
  13.  C 1 (d4)     0.0000  0.0000 -0.2593  0.0000  0.0000  0.0535  0.0000  0.0000
  14.  C 1 (d1)     0.0000 -0.2593  0.0000  0.0000  0.0535  0.0000  0.0000  0.0774
  15.  C 2 (s)      0.0000  0.0000  0.0000 -0.0207  0.0000  0.0000 -0.0376  0.0000
  16.  C 2 (s)      0.0000  0.0000  0.0000 -0.3735  0.0000  0.0000 -0.1457  0.0000
  17.  C 2 (px)     0.0000  0.0289  0.0000  0.0000  0.0284  0.0000  0.0000  0.1158
  18.  C 2 (py)     0.0000  0.0000  0.0289  0.0000  0.0000  0.0284  0.0000  0.0000
  19.  C 2 (pz)     0.0000  0.0000  0.0000 -0.0894  0.0000  0.0000  0.0750  0.0000
  20.  C 2 (s)      0.0000  0.0000  0.0000 -1.5467  0.0000  0.0000 -2.7247  0.0000
  21.  C 2 (px)     0.0000  0.0786  0.0000  0.0000 -0.0278  0.0000  0.0000  0.3985
  22.  C 2 (py)     0.0000  0.0000  0.0786  0.0000  0.0000 -0.0278  0.0000  0.0000
  23.  C 2 (pz)     0.0000  0.0000  0.0000 -3.1411  0.0000  0.0000 -5.8363  0.0000
  24.  C 2 (d5)     0.0000  0.0000  0.0000 -0.1575  0.0000  0.0000 -0.2608  0.0000
  25.  C 2 (d2)     0.0000  0.0286  0.0000  0.0000 -0.0760  0.0000  0.0000 -0.4830
  26.  C 2 (d3)     0.0000  0.0000  0.0286  0.0000  0.0000 -0.0760  0.0000  0.0000
  27.  C 2 (d4)     0.0000  0.0000 -0.1197  0.0000  0.0000  0.7036  0.0000  0.0000
  28.  C 2 (d1)     0.0000 -0.1197  0.0000  0.0000  0.7036  0.0000  0.0000 -0.0447
  29.  F 3 (s)      0.0000  0.0000 -0.0027  0.0006  0.0000 -0.0157  0.0009  0.0000
  30.  F 3 (s)      0.0000  0.0000  0.0790  0.0170  0.0000  0.1980 -0.0043  0.0000
  31.  F 3 (px)    -0.5176 -0.5181  0.0000  0.0000 -0.0314  0.0000  0.0000 -0.0620
  32.  F 3 (py)     0.0000  0.0000 -0.1546  0.1254  0.0000 -0.1371 -0.0466  0.0000
  33.  F 3 (pz)     0.0000  0.0000 -0.3093  0.3250  0.0000 -0.0600 -0.2437  0.0000
  34.  F 3 (s)      0.0000  0.0000  0.0613  0.0814  0.0000 -0.1904  0.0632  0.0000
  35.  F 3 (px)     0.6565  0.7894  0.0000  0.0000  0.0446  0.0000  0.0000  0.1170
  36.  F 3 (py)     0.0000  0.0000  0.3156 -0.1755  0.0000  0.1617  0.0452  0.0000
  37.  F 3 (pz)     0.0000  0.0000  0.3655 -0.5746  0.0000  0.0828  0.3975  0.0000
  38.  F 3 (d5)     0.0000  0.0000 -0.0778  0.1125  0.0000 -0.0805  0.0869  0.0000
  39.  F 3 (d2)     0.0113 -0.0769  0.0000  0.0000  0.0997  0.0000  0.0000 -0.0544
  40.  F 3 (d3)     0.0000  0.0000 -0.0254 -0.1965  0.0000 -0.0033  0.0505  0.0000
  41.  F 3 (d4)     0.0000  0.0000 -0.0874  0.0388  0.0000 -0.0309 -0.0735  0.0000
  42.  F 3 (d1)     0.1540  0.2552  0.0000  0.0000  0.0811  0.0000  0.0000 -0.0808
  43.  F 4 (s)      0.0000 -0.0023  0.0013  0.0006 -0.0136  0.0078  0.0009 -0.0148
  44.  F 4 (s)      0.0000  0.0684 -0.0395  0.0170  0.1715 -0.0990 -0.0043  0.1735
  45.  F 4 (px)     0.2588 -0.2455 -0.1574  0.1086 -0.1107  0.0458 -0.0404 -0.0909
  46.  F 4 (py)     0.4483 -0.1574 -0.4273 -0.0627  0.0458 -0.0579  0.0233  0.0167
  47.  F 4 (pz)     0.0000 -0.2679  0.1547  0.3250 -0.0520  0.0300 -0.2437  0.1413
  48.  F 4 (s)      0.0000  0.0531 -0.0306  0.0814 -0.1649  0.0952  0.0632 -0.0752
  49.  F 4 (px)    -0.3283  0.4340  0.2052 -0.1519  0.1324 -0.0507  0.0392  0.1281
  50.  F 4 (py)    -0.5686  0.2052  0.6709  0.0877 -0.0507  0.0739 -0.0226 -0.0064
  51.  F 4 (pz)     0.0000  0.3165 -0.1828 -0.5746  0.0717 -0.0414  0.3975 -0.1441
  52.  F 4 (d5)     0.0000 -0.0674  0.0389  0.1125 -0.0697  0.0402  0.0869 -0.1376
  53.  F 4 (d2)    -0.0056 -0.0383 -0.0223 -0.1702  0.0224  0.0446  0.0438  0.1060
  54.  F 4 (d3)    -0.0098 -0.0223 -0.0640  0.0983  0.0446  0.0739 -0.0253 -0.0926
  55.  F 4 (d4)    -0.1334  0.1483  0.1695 -0.0194  0.0485  0.0531  0.0368  0.0703
  56.  F 4 (d1)    -0.0770 -0.0018  0.1483  0.0336 -0.0029  0.0485 -0.0637 -0.2026
  57.  F 5 (s)      0.0000  0.0023  0.0013  0.0006  0.0136  0.0078  0.0009  0.0148
  58.  F 5 (s)      0.0000 -0.0684 -0.0395  0.0170 -0.1715 -0.0990 -0.0043 -0.1735
  59.  F 5 (px)     0.2588 -0.2455  0.1574 -0.1086 -0.1107 -0.0458  0.0404 -0.0909
  60.  F 5 (py)    -0.4483  0.1574 -0.4273 -0.0627 -0.0458 -0.0579  0.0233 -0.0167
  61.  F 5 (pz)     0.0000  0.2679  0.1547  0.3250  0.0520  0.0300 -0.2437 -0.1413
  62.  F 5 (s)      0.0000 -0.0531 -0.0306  0.0814  0.1649  0.0952  0.0632  0.0752
  63.  F 5 (px)    -0.3283  0.4340 -0.2052  0.1519  0.1324  0.0507 -0.0392  0.1281
  64.  F 5 (py)     0.5686 -0.2052  0.6709  0.0877  0.0507  0.0739 -0.0226  0.0064
  65.  F 5 (pz)     0.0000 -0.3165 -0.1828 -0.5746 -0.0717 -0.0414  0.3975  0.1441
  66.  F 5 (d5)     0.0000  0.0674  0.0389  0.1125  0.0697  0.0402  0.0869  0.1376
  67.  F 5 (d2)    -0.0056 -0.0383  0.0223  0.1702  0.0224 -0.0446 -0.0438  0.1060
  68.  F 5 (d3)     0.0098  0.0223 -0.0640  0.0983 -0.0446  0.0739 -0.0253  0.0926
  69.  F 5 (d4)     0.1334 -0.1483  0.1695 -0.0194 -0.0485  0.0531  0.0368 -0.0703
  70.  F 5 (d1)    -0.0770 -0.0018 -0.1483 -0.0336 -0.0029 -0.0485  0.0637 -0.2026
  71.  N 6 (s)      0.0000  0.0000  0.0000 -0.0275  0.0000  0.0000 -0.0253  0.0000
  72.  N 6 (s)      0.0000  0.0000  0.0000 -0.6372  0.0000  0.0000 -1.7905  0.0000
  73.  N 6 (px)     0.0000 -0.0319  0.0000  0.0000  0.0270  0.0000  0.0000  0.2572
  74.  N 6 (py)     0.0000  0.0000 -0.0319  0.0000  0.0000  0.0270  0.0000  0.0000
  75.  N 6 (pz)     0.0000  0.0000  0.0000 -0.2753  0.0000  0.0000 -0.0185  0.0000
  76.  N 6 (s)      0.0000  0.0000  0.0000  3.8739  0.0000  0.0000  7.7186  0.0000
  77.  N 6 (px)     0.0000 -0.0036  0.0000  0.0000  0.0096  0.0000  0.0000 -0.2931
  78.  N 6 (py)     0.0000  0.0000 -0.0036  0.0000  0.0000  0.0096  0.0000  0.0000
  79.  N 6 (pz)     0.0000  0.0000  0.0000 -1.1464  0.0000  0.0000 -2.6033  0.0000
  80.  N 6 (d5)     0.0000  0.0000  0.0000 -0.0760  0.0000  0.0000 -0.0723  0.0000
  81.  N 6 (d2)     0.0000 -0.0385  0.0000  0.0000  0.0596  0.0000  0.0000  0.5237
  82.  N 6 (d3)     0.0000  0.0000 -0.0385  0.0000  0.0000  0.0596  0.0000  0.0000
  83.  N 6 (d4)     0.0000  0.0000 -0.0618  0.0000  0.0000  0.5314  0.0000  0.0000
  84.  N 6 (d1)     0.0000 -0.0618  0.0000  0.0000  0.5314  0.0000  0.0000 -0.1669

           AO         57      58      59      60      61      62      63      64
      ------------ ------- ------- ------- ------- ------- ------- ------- -------
   1.  C 1 (s)      0.0000  0.0000  0.0000  0.0000  0.0000  0.0000 -0.0575  0.0000
   2.  C 1 (s)      0.0000  0.0000  0.0000  0.0000  0.0000  0.0000 -0.5976  0.0000
   3.  C 1 (px)     0.0000 -0.0273  0.0000  0.0000  0.0000  0.0243  0.0000  0.0000
   4.  C 1 (py)    -0.0082  0.0000  0.0273  0.0000  0.0243  0.0000  0.0000 -0.0503
   5.  C 1 (pz)     0.0000  0.0000  0.0000  0.0000  0.0000  0.0000 -0.1268  0.0000
   6.  C 1 (s)      0.0000  0.0000  0.0000  0.0000  0.0000  0.0000  3.5146  0.0000
   7.  C 1 (px)     0.0000  0.1660  0.0000  0.0000  0.0000 -0.0057  0.0000  0.0000
   8.  C 1 (py)    -0.3382  0.0000 -0.1660  0.0000 -0.0057  0.0000  0.0000 -0.0557
   9.  C 1 (pz)     0.0000  0.0000  0.0000  0.0000  0.0000  0.0000  3.0974  0.0000
  10.  C 1 (d5)     0.0000  0.0000  0.0000  0.0000  0.0000  0.0000  0.6121  0.0000
  11.  C 1 (d2)     0.0000  0.1179  0.0000  0.0000  0.0000  0.0131  0.0000  0.0000
  12.  C 1 (d3)    -0.1524  0.0000 -0.1179  0.0000  0.0131  0.0000  0.0000 -0.0874
  13.  C 1 (d4)     0.0774  0.0000 -0.2159  0.0000  0.0401  0.0000  0.0000 -0.0349
  14.  C 1 (d1)     0.0000  0.2159  0.0000  0.0000  0.0000  0.0401  0.0000  0.0000
  15.  C 2 (s)      0.0000  0.0000  0.0000  0.0000  0.0000  0.0000  0.0274  0.0000
  16.  C 2 (s)      0.0000  0.0000  0.0000  0.0000  0.0000  0.0000  0.0551  0.0000
  17.  C 2 (px)     0.0000 -0.0053  0.0000  0.0000  0.0000  0.0544  0.0000  0.0000
  18.  C 2 (py)     0.1158  0.0000  0.0053  0.0000  0.0544  0.0000  0.0000  0.0369
  19.  C 2 (pz)     0.0000  0.0000  0.0000  0.0000  0.0000  0.0000  0.3834  0.0000
  20.  C 2 (s)      0.0000  0.0000  0.0000  0.0000  0.0000  0.0000 -2.9665  0.0000
  21.  C 2 (px)     0.0000 -0.0677  0.0000  0.0000  0.0000 -0.1907  0.0000  0.0000
  22.  C 2 (py)     0.3985  0.0000  0.0677  0.0000 -0.1907  0.0000  0.0000  0.0822
  23.  C 2 (pz)     0.0000  0.0000  0.0000  0.0000  0.0000  0.0000  2.5412  0.0000
  24.  C 2 (d5)     0.0000  0.0000  0.0000  0.0000  0.0000  0.0000  0.0944  0.0000
  25.  C 2 (d2)     0.0000  0.0456  0.0000  0.0000  0.0000  0.0564  0.0000  0.0000
  26.  C 2 (d3)    -0.4830  0.0000 -0.0456  0.0000  0.0564  0.0000  0.0000 -0.0262
  27.  C 2 (d4)    -0.0447  0.0000  0.0636  0.0000 -0.0168  0.0000  0.0000 -0.6728
  28.  C 2 (d1)     0.0000 -0.0636  0.0000  0.0000  0.0000 -0.0168  0.0000  0.0000
  29.  F 3 (s)     -0.0170  0.0000  0.0331  0.0000  0.0063  0.0000  0.0027  0.0001
  30.  F 3 (s)      0.2003  0.0000 -0.4123  0.0000 -0.1150  0.0000 -0.1635  0.0058
  31.  F 3 (px)     0.0000 -0.0329  0.0000 -0.0230  0.0000 -0.0551  0.0000  0.0000
  32.  F 3 (py)    -0.1005  0.0000  0.2242  0.0000  0.0308  0.0000 -0.0168  0.0231
  33.  F 3 (pz)     0.1632  0.0000 -0.1110  0.0000  0.0154  0.0000  0.2313  0.0418
  34.  F 3 (s)     -0.0869  0.0000  0.4348  0.0000  0.1442  0.0000  0.2627  0.0029
  35.  F 3 (px)     0.0000 -0.0070  0.0000  0.0220  0.0000  0.0640  0.0000  0.0000
  36.  F 3 (py)     0.1319  0.0000 -0.2137  0.0000 -0.0589  0.0000 -0.1283 -0.0127
  37.  F 3 (pz)    -0.1664  0.0000  0.1233  0.0000  0.0050  0.0000 -0.5332 -0.0521
  38.  F 3 (d5)    -0.1589  0.0000  0.1495  0.0000  0.4913  0.0000  0.2729 -0.0611
  39.  F 3 (d2)     0.0000  0.6072  0.0000  0.5740  0.0000  0.2919  0.0000  0.0000
  40.  F 3 (d3)     0.1594  0.0000  0.1856  0.0000  0.3956  0.0000  0.2067 -0.0729
  41.  F 3 (d4)    -0.2432  0.0000 -0.0671  0.0000 -0.4041  0.0000 -0.1312  0.0098
  42.  F 3 (d1)     0.0000  0.1054  0.0000 -0.0844  0.0000  0.1106  0.0000  0.0000
  43.  F 4 (s)      0.0085 -0.0286 -0.0165  0.0000 -0.0032  0.0055  0.0027 -0.0001
  44.  F 4 (s)     -0.1002  0.3571  0.2062  0.0000  0.0575 -0.0996 -0.1635 -0.0029
  45.  F 4 (px)     0.0167 -0.1763 -0.0828  0.0115 -0.0372  0.0094 -0.0146 -0.0212
  46.  F 4 (py)    -0.0717  0.0828  0.0807  0.0199 -0.0336 -0.0372  0.0084 -0.0136
  47.  F 4 (pz)    -0.0816  0.0961  0.0555  0.0000 -0.0077  0.0133  0.2313 -0.0209
  48.  F 4 (s)      0.0434 -0.3766 -0.2174  0.0000 -0.0721  0.1249  0.2627 -0.0014
  49.  F 4 (px)    -0.0064  0.1585  0.0956 -0.0110  0.0532 -0.0282 -0.1111  0.0246
  50.  F 4 (py)     0.1207 -0.0956 -0.0482 -0.0190  0.0333  0.0532  0.0642  0.0299
  51.  F 4 (pz)     0.0832 -0.1068 -0.0617  0.0000 -0.0025  0.0043 -0.5332  0.0261
  52.  F 4 (d5)     0.0794 -0.1295 -0.0748  0.0000 -0.2456  0.4254  0.2729  0.0306
  53.  F 4 (d2)    -0.0926  0.0126 -0.3433 -0.2870 -0.0449  0.3697  0.1790  0.1017
  54.  F 4 (d3)    -0.0009  0.3433 -0.4090 -0.4971  0.3178 -0.0449 -0.1033  0.1033
  55.  F 4 (d4)    -0.1214  0.0166 -0.0958  0.0731 -0.0180  0.2229  0.0656 -0.0227
  56.  F 4 (d1)     0.0703  0.0766 -0.0166  0.0422  0.2229 -0.2754 -0.1136 -0.0188
  57.  F 5 (s)      0.0085  0.0286 -0.0165  0.0000 -0.0032 -0.0055  0.0027 -0.0001
  58.  F 5 (s)     -0.1002 -0.3571  0.2062  0.0000  0.0575  0.0996 -0.1635 -0.0029
  59.  F 5 (px)    -0.0167 -0.1763  0.0828  0.0115  0.0372  0.0094  0.0146  0.0212
  60.  F 5 (py)    -0.0717 -0.0828  0.0807 -0.0199 -0.0336  0.0372  0.0084 -0.0136
  61.  F 5 (pz)    -0.0816 -0.0961  0.0555  0.0000 -0.0077 -0.0133  0.2313 -0.0209
  62.  F 5 (s)      0.0434  0.3766 -0.2174  0.0000 -0.0721 -0.1249  0.2627 -0.0014
  63.  F 5 (px)     0.0064  0.1585 -0.0956 -0.0110 -0.0532 -0.0282  0.1111 -0.0246
  64.  F 5 (py)     0.1207  0.0956 -0.0482  0.0190  0.0333 -0.0532  0.0642  0.0299
  65.  F 5 (pz)     0.0832  0.1068 -0.0617  0.0000 -0.0025 -0.0043 -0.5332  0.0261
  66.  F 5 (d5)     0.0794  0.1295 -0.0748  0.0000 -0.2456 -0.4254  0.2729  0.0306
  67.  F 5 (d2)     0.0926  0.0126  0.3433 -0.2870  0.0449  0.3697 -0.1790 -0.1017
  68.  F 5 (d3)    -0.0009 -0.3433 -0.4090  0.4971  0.3178  0.0449 -0.1033  0.1033
  69.  F 5 (d4)    -0.1214 -0.0166 -0.0958 -0.0731 -0.0180 -0.2229  0.0656 -0.0227
  70.  F 5 (d1)    -0.0703  0.0766  0.0166  0.0422 -0.2229 -0.2754  0.1136  0.0188
  71.  N 6 (s)      0.0000  0.0000  0.0000  0.0000  0.0000  0.0000  0.0093  0.0000
  72.  N 6 (s)      0.0000  0.0000  0.0000  0.0000  0.0000  0.0000 -0.2888  0.0000
  73.  N 6 (px)     0.0000 -0.0266  0.0000  0.0000  0.0000 -0.0575  0.0000  0.0000
  74.  N 6 (py)     0.2572  0.0000  0.0266  0.0000 -0.0575  0.0000  0.0000  0.0255
  75.  N 6 (pz)     0.0000  0.0000  0.0000  0.0000  0.0000  0.0000  0.2728  0.0000
  76.  N 6 (s)      0.0000  0.0000  0.0000  0.0000  0.0000  0.0000 -0.6722  0.0000
  77.  N 6 (px)     0.0000  0.0401  0.0000  0.0000  0.0000  0.1206  0.0000  0.0000
  78.  N 6 (py)    -0.2931  0.0000 -0.0401  0.0000  0.1206  0.0000  0.0000 -0.0640
  79.  N 6 (pz)     0.0000  0.0000  0.0000  0.0000  0.0000  0.0000 -0.1457  0.0000
  80.  N 6 (d5)     0.0000  0.0000  0.0000  0.0000  0.0000  0.0000  0.1356  0.0000
  81.  N 6 (d2)     0.0000 -0.0342  0.0000  0.0000  0.0000 -0.0589  0.0000  0.0000
  82.  N 6 (d3)     0.5237  0.0000  0.0342  0.0000 -0.0589  0.0000  0.0000  0.1112
  83.  N 6 (d4)    -0.1669  0.0000  0.2712  0.0000  0.0375  0.0000  0.0000  0.7857
  84.  N 6 (d1)     0.0000 -0.2712  0.0000  0.0000  0.0000  0.0375  0.0000  0.0000

           AO         65      66      67      68      69      70      71      72
      ------------ ------- ------- ------- ------- ------- ------- ------- -------
   1.  C 1 (s)      0.0000  0.0000  0.0000  0.0000  0.0000  0.0000  0.0117  0.0000
   2.  C 1 (s)      0.0000  0.0000  0.0000  0.0000  0.0000  0.0000 -0.0704  0.0000
   3.  C 1 (px)    -0.0503  0.3210  0.0000  0.0000 -0.1594  0.0000  0.0000 -0.0283
   4.  C 1 (py)     0.0000  0.0000  0.3210  0.0000  0.0000 -0.1594  0.0000  0.0000
   5.  C 1 (pz)     0.0000  0.0000  0.0000  0.0000  0.0000  0.0000  0.0965  0.0000
   6.  C 1 (s)      0.0000  0.0000  0.0000  0.0000  0.0000  0.0000 -2.1329  0.0000
   7.  C 1 (px)    -0.0557 -0.6493  0.0000  0.0000  2.1263  0.0000  0.0000  1.0392
   8.  C 1 (py)     0.0000  0.0000 -0.6493  0.0000  0.0000  2.1263  0.0000  0.0000
   9.  C 1 (pz)     0.0000  0.0000  0.0000  0.0000  0.0000  0.0000 -0.2402  0.0000
  10.  C 1 (d5)     0.0000  0.0000  0.0000  0.0000  0.0000  0.0000  0.3732  0.0000
  11.  C 1 (d2)    -0.0874 -0.0506  0.0000  0.0000 -0.4412  0.0000  0.0000  0.4871
  12.  C 1 (d3)     0.0000  0.0000 -0.0506  0.0000  0.0000 -0.4412  0.0000  0.0000
  13.  C 1 (d4)     0.0000  0.0000 -0.0045  0.0000  0.0000 -0.5677  0.0000  0.0000
  14.  C 1 (d1)    -0.0349 -0.0045  0.0000  0.0000 -0.5677  0.0000  0.0000  0.0275
  15.  C 2 (s)      0.0000  0.0000  0.0000  0.0000  0.0000  0.0000 -0.0090  0.0000
  16.  C 2 (s)      0.0000  0.0000  0.0000  0.0000  0.0000  0.0000 -0.8344  0.0000
  17.  C 2 (px)     0.0369 -0.0038  0.0000  0.0000  0.0614  0.0000  0.0000 -0.3037
  18.  C 2 (py)     0.0000  0.0000 -0.0038  0.0000  0.0000  0.0614  0.0000  0.0000
  19.  C 2 (pz)     0.0000  0.0000  0.0000  0.0000  0.0000  0.0000  0.5573  0.0000
  20.  C 2 (s)      0.0000  0.0000  0.0000  0.0000  0.0000  0.0000 -1.0477  0.0000
  21.  C 2 (px)     0.0822  0.2818  0.0000  0.0000 -0.6868  0.0000  0.0000 -0.4313
  22.  C 2 (py)     0.0000  0.0000  0.2818  0.0000  0.0000 -0.6868  0.0000  0.0000
  23.  C 2 (pz)     0.0000  0.0000  0.0000  0.0000  0.0000  0.0000 -4.0189  0.0000
  24.  C 2 (d5)     0.0000  0.0000  0.0000  0.0000  0.0000  0.0000 -0.1060  0.0000
  25.  C 2 (d2)    -0.0262 -0.0763  0.0000  0.0000  0.2348  0.0000  0.0000 -0.2879
  26.  C 2 (d3)     0.0000  0.0000 -0.0763  0.0000  0.0000  0.2348  0.0000  0.0000
  27.  C 2 (d4)     0.0000  0.0000  0.0173  0.0000  0.0000  0.0784  0.0000  0.0000
  28.  C 2 (d1)    -0.6728  0.0173  0.0000  0.0000  0.0784  0.0000  0.0000 -0.1391
  29.  F 3 (s)      0.0000  0.0000  0.0351  0.0000  0.0000  0.0152 -0.0177  0.0000
[...]
  54. (0.00002) RY ( 6) F  3            s(  0.36%)p19.99(  7.21%)d99.99( 92.43%)
  55. (0.00001) RY ( 7) F  3            s(  0.00%)p 1.00(  1.68%)d58.62( 98.32%)
  56. (0.00001) RY ( 8) F  3            s(  0.69%)p16.13( 11.10%)d99.99( 88.22%)
  57. (0.00000) RY ( 9) F  3            s( 39.59%)p 1.35( 53.36%)d 0.18(  7.05%)
  58. (0.00067) RY ( 1) F  4            s( 28.44%)p 2.48( 70.61%)d 0.03(  0.95%)
                                         0.0000  0.0039  0.5333 -0.0037  0.0052
                                         0.0021 -0.0030 -0.0001 -0.8403 -0.0189
                                        -0.0181  0.0105  0.0109  0.0925
  59. (0.00018) RY ( 2) F  4            s(  0.00%)p 1.00( 92.40%)d 0.08(  7.60%)
                                         0.0000  0.0000  0.0000 -0.0025  0.4806
                                        -0.0044  0.8325  0.0000  0.0000 -0.1227
                                        -0.0628 -0.1088 -0.2124  0.0000
  60. (0.00016) RY ( 3) F  4            s( 28.60%)p 1.62( 46.40%)d 0.87( 25.00%)
                                         0.0000  0.0084  0.5347 -0.0123  0.5292
                                         0.0071 -0.3056  0.0175  0.3000  0.2272
                                         0.2913 -0.1682 -0.1312 -0.2608
  61. (0.00004) RY ( 4) F  4            s(  0.00%)p 1.00(  6.05%)d15.54( 93.95%)
  62. (0.00003) RY ( 5) F  4            s(  2.35%)p 5.00( 11.72%)d36.62( 85.93%)
  63. (0.00002) RY ( 6) F  4            s(  0.36%)p19.99(  7.21%)d99.99( 92.43%)
  64. (0.00001) RY ( 7) F  4            s(  0.00%)p 1.00(  1.68%)d58.62( 98.32%)
  65. (0.00001) RY ( 8) F  4            s(  0.69%)p16.13( 11.10%)d99.99( 88.22%)
  66. (0.00000) RY ( 9) F  4            s( 39.59%)p 1.35( 53.36%)d 0.18(  7.05%)
  67. (0.00067) RY ( 1) F  5            s( 28.44%)p 2.48( 70.61%)d 0.03(  0.95%)
                                         0.0000  0.0039  0.5333  0.0037 -0.0052
                                         0.0021 -0.0030 -0.0001 -0.8403  0.0189
                                         0.0181  0.0105  0.0109  0.0925
  68. (0.00018) RY ( 2) F  5            s(  0.00%)p 1.00( 92.40%)d 0.08(  7.60%)
                                         0.0000  0.0000  0.0000  0.0025 -0.4806
                                        -0.0044  0.8325  0.0000  0.0000  0.1227
                                         0.0628 -0.1088 -0.2124  0.0000
  69. (0.00016) RY ( 3) F  5            s( 28.60%)p 1.62( 46.40%)d 0.87( 25.00%)
                                         0.0000  0.0084  0.5347  0.0123 -0.5292
                                         0.0071 -0.3056  0.0175  0.3000 -0.2272
                                        -0.2913 -0.1682 -0.1312 -0.2608
  70. (0.00004) RY ( 4) F  5            s(  0.00%)p 1.00(  6.05%)d15.54( 93.95%)
  71. (0.00003) RY ( 5) F  5            s(  2.35%)p 5.00( 11.72%)d36.62( 85.93%)
  72. (0.00002) RY ( 6) F  5            s(  0.36%)p19.99(  7.21%)d99.99( 92.43%)
  73. (0.00001) RY ( 7) F  5            s(  0.00%)p 1.00(  1.68%)d58.62( 98.32%)
  74. (0.00001) RY ( 8) F  5            s(  0.69%)p16.13( 11.10%)d99.99( 88.22%)
  75. (0.00000) RY ( 9) F  5            s( 39.59%)p 1.35( 53.36%)d 0.18(  7.05%)
  76. (0.00250) RY ( 1) N  6            s( 85.56%)p 0.13( 11.03%)d 0.04(  3.41%)
                                         0.0000 -0.0231  0.9247  0.0000  0.0000
                                         0.0000  0.0000  0.0567 -0.3272  0.0000
                                         0.0000  0.0000  0.0000  0.1847
  77. (0.00007) RY ( 2) N  6            s(  0.00%)p 1.00( 93.90%)d 0.07(  6.10%)
  78. (0.00007) RY ( 3) N  6            s(  0.00%)p 1.00( 93.90%)d 0.07(  6.10%)
  79. (0.00001) RY ( 4) N  6            s( 13.96%)p 5.40( 75.41%)d 0.76( 10.63%)
  80. (0.00000) RY ( 5) N  6            s(  0.34%)p41.04( 14.13%)d99.99( 85.52%)
  81. (0.00000) RY ( 6) N  6            s(  0.00%)p 1.00(  0.39%)d99.99( 99.61%)
  82. (0.00000) RY ( 7) N  6            s(  0.00%)p 1.00(  0.39%)d99.99( 99.61%)
  83. (0.00000) RY ( 8) N  6            s(  0.00%)p 1.00(  6.24%)d15.04( 93.76%)
  84. (0.00000) RY ( 9) N  6            s(  0.00%)p 1.00(  6.24%)d15.04( 93.76%)


 NHO DIRECTIONALITY AND BOND BENDING (deviation from line of nuclear centers at
                                      the position of maximum hybrid amplitude)

         [Thresholds for printing:  angular deviation  >  1.0 degree]
                                    p- or d-character  > 25.0%
                                    orbital occupancy  >  0.10e

                        Line of Centers        Hybrid 1             Hybrid 2
                        ---------------  -------------------  ------------------
           NBO            Theta   Phi    Theta   Phi    Dev   Theta   Phi    Dev
 ===============================================================================
   7. LP ( 1) F  3          --     --    105.6   90.0   --      --     --    --
   8. LP ( 2) F  3          --     --    160.3  270.0   --      --     --    --
   9. LP ( 3) F  3          --     --     89.9  180.2   --      --     --    --
  10. LP ( 1) F  4          --     --    105.6  330.0   --      --     --    --
  11. LP ( 2) F  4          --     --    160.3  150.0   --      --     --    --
  12. LP ( 3) F  4          --     --     89.9   60.2   --      --     --    --
  13. LP ( 1) F  5          --     --    105.6  210.0   --      --     --    --
  14. LP ( 2) F  5          --     --    160.3   30.0   --      --     --    --
  15. LP ( 3) F  5          --     --     89.9  119.8   --      --     --    --
  16. LP ( 1) N  6          --     --      0.0    0.0   --      --     --    --
  22. BD ( 2) C  2- N  6    0.0    0.0    88.3  180.0  88.3    91.4  180.0  88.6
  23. BD ( 3) C  2- N  6    0.0    0.0    88.3  270.0  88.3    91.4  270.0  88.6


 SECOND ORDER PERTURBATION THEORY ANALYSIS OF FOCK MATRIX IN NBO BASIS

     Threshold for printing:   0.50 kcal/mol
                                                          E(2) E(NL)-E(L) F(L,NL)
      Donor (L) NBO              Acceptor (NL) NBO      kcal/mol   a.u.    a.u.
 ===============================================================================

 within unit  1
    7. LP ( 1) F  3            32. RY ( 2) C  1            5.87    2.42   0.106
    7. LP ( 1) F  3            33. RY ( 3) C  1            1.71    2.38   0.057
    7. LP ( 1) F  3            34. RY ( 4) C  1            0.71    2.76   0.039
    8. LP ( 2) F  3            24. BD*( 1) C  1- C  2      9.39    1.34   0.100
    8. LP ( 2) F  3            26. BD*( 1) C  1- F  4      5.68    1.17   0.073
    8. LP ( 2) F  3            27. BD*( 1) C  1- F  5      5.68    1.17   0.073
    8. LP ( 2) F  3            30. BD*( 3) C  2- N  6      1.93    0.97   0.039
    8. LP ( 2) F  3            33. RY ( 3) C  1            1.24    1.82   0.042
    8. LP ( 2) F  3            35. RY ( 5) C  1            0.60    2.88   0.037
    8. LP ( 2) F  3            38. RY ( 8) C  1            1.02    2.99   0.049
    9. LP ( 3) F  3            26. BD*( 1) C  1- F  4     14.85    1.16   0.117
    9. LP ( 3) F  3            27. BD*( 1) C  1- F  5     14.85    1.16   0.117
    9. LP ( 3) F  3            31. RY ( 1) C  1            2.01    1.86   0.055
    9. LP ( 3) F  3            36. RY ( 6) C  1            1.76    2.88   0.063
   10. LP ( 1) F  4            31. RY ( 1) C  1            4.40    2.42   0.092
   10. LP ( 1) F  4            32. RY ( 2) C  1            1.47    2.42   0.053
   10. LP ( 1) F  4            33. RY ( 3) C  1            1.71    2.38   0.057
   10. LP ( 1) F  4            34. RY ( 4) C  1            0.71    2.76   0.039
   11. LP ( 2) F  4            24. BD*( 1) C  1- C  2      9.39    1.34   0.100
   11. LP ( 2) F  4            25. BD*( 1) C  1- F  3      5.68    1.17   0.073
   11. LP ( 2) F  4            27. BD*( 1) C  1- F  5      5.68    1.17   0.073
   11. LP ( 2) F  4            29. BD*( 2) C  2- N  6      1.45    0.97   0.033
   11. LP ( 2) F  4            33. RY ( 3) C  1            1.24    1.82   0.042
   11. LP ( 2) F  4            37. RY ( 7) C  1            0.76    2.99   0.043
   12. LP ( 3) F  4            25. BD*( 1) C  1- F  3     14.85    1.16   0.117
   12. LP ( 3) F  4            27. BD*( 1) C  1- F  5     14.85    1.16   0.117
   12. LP ( 3) F  4            31. RY ( 1) C  1            0.50    1.86   0.027
   12. LP ( 3) F  4            32. RY ( 2) C  1            1.51    1.86   0.047
   12. LP ( 3) F  4            35. RY ( 5) C  1            1.32    2.88   0.055
   13. LP ( 1) F  5            31. RY ( 1) C  1            4.40    2.42   0.092
   13. LP ( 1) F  5            32. RY ( 2) C  1            1.47    2.42   0.053
   13. LP ( 1) F  5            33. RY ( 3) C  1            1.71    2.38   0.057
   13. LP ( 1) F  5            34. RY ( 4) C  1            0.71    2.76   0.039
   14. LP ( 2) F  5            24. BD*( 1) C  1- C  2      9.39    1.34   0.100
   14. LP ( 2) F  5            25. BD*( 1) C  1- F  3      5.68    1.17   0.073
   14. LP ( 2) F  5            26. BD*( 1) C  1- F  4      5.68    1.17   0.073
   14. LP ( 2) F  5            29. BD*( 2) C  2- N  6      1.45    0.97   0.033
   14. LP ( 2) F  5            33. RY ( 3) C  1            1.24    1.82   0.042
   14. LP ( 2) F  5            37. RY ( 7) C  1            0.76    2.99   0.043
   15. LP ( 3) F  5            25. BD*( 1) C  1- F  3     14.85    1.16   0.117
   15. LP ( 3) F  5            26. BD*( 1) C  1- F  4     14.85    1.16   0.117
   15. LP ( 3) F  5            31. RY ( 1) C  1            0.50    1.86   0.027
   15. LP ( 3) F  5            32. RY ( 2) C  1            1.51    1.86   0.047
   15. LP ( 3) F  5            35. RY ( 5) C  1            1.32    2.88   0.055
   16. LP ( 1) N  6            24. BD*( 1) C  1- C  2      9.12    1.30   0.097
   16. LP ( 1) N  6            40. RY ( 1) C  2            9.67    1.30   0.100
   17. BD ( 1) C  1- C  2      28. BD*( 1) C  2- N  6      4.65    2.10   0.088
   17. BD ( 1) C  1- C  2      49. RY ( 1) F  3            0.85    3.00   0.045
   17. BD ( 1) C  1- C  2      58. RY ( 1) F  4            0.85    3.00   0.045
   17. BD ( 1) C  1- C  2      67. RY ( 1) F  5            0.85    3.00   0.045
   17. BD ( 1) C  1- C  2      76. RY ( 1) N  6            2.58    2.70   0.074
   18. BD ( 1) C  1- F  3      26. BD*( 1) C  1- F  4      1.33    1.74   0.043
   18. BD ( 1) C  1- F  3      27. BD*( 1) C  1- F  5      1.33    1.74   0.043
   18. BD ( 1) C  1- F  3      28. BD*( 1) C  2- N  6      1.09    2.42   0.046
   18. BD ( 1) C  1- F  3      30. BD*( 3) C  2- N  6      1.53    1.54   0.043
   18. BD ( 1) C  1- F  3      43. RY ( 4) C  2            0.60    2.09   0.032
   19. BD ( 1) C  1- F  4      25. BD*( 1) C  1- F  3      1.33    1.74   0.043
   19. BD ( 1) C  1- F  4      27. BD*( 1) C  1- F  5      1.33    1.74   0.043
   19. BD ( 1) C  1- F  4      28. BD*( 1) C  2- N  6      1.09    2.42   0.046
   19. BD ( 1) C  1- F  4      29. BD*( 2) C  2- N  6      1.15    1.54   0.038
   20. BD ( 1) C  1- F  5      25. BD*( 1) C  1- F  3      1.33    1.74   0.043
   20. BD ( 1) C  1- F  5      26. BD*( 1) C  1- F  4      1.33    1.74   0.043
   20. BD ( 1) C  1- F  5      28. BD*( 1) C  2- N  6      1.09    2.42   0.046
   20. BD ( 1) C  1- F  5      29. BD*( 2) C  2- N  6      1.15    1.54   0.038
   21. BD ( 1) C  2- N  6      24. BD*( 1) C  1- C  2      5.71    1.81   0.091
   21. BD ( 1) C  2- N  6      39. RY ( 9) C  1            0.78    2.89   0.042
   22. BD ( 2) C  2- N  6      26. BD*( 1) C  1- F  4      4.92    0.97   0.062
   22. BD ( 2) C  2- N  6      27. BD*( 1) C  1- F  5      4.92    0.97   0.062
   23. BD ( 3) C  2- N  6      25. BD*( 1) C  1- F  3      6.56    0.97   0.071
   23. BD ( 3) C  2- N  6      26. BD*( 1) C  1- F  4      1.64    0.97   0.036
   23. BD ( 3) C  2- N  6      27. BD*( 1) C  1- F  5      1.64    0.97   0.036


 NATURAL BOND ORBITALS (Summary):

                                                     Principal Delocalizations
           NBO                 Occupancy    Energy   (geminal,vicinal,remote)
 ===============================================================================
 Molecular unit  1  (C2F3N)
 ------ Lewis --------------------------------------
    1. CR ( 1) C  1             1.99999   -11.59083
    2. CR ( 1) C  2             1.99999   -11.33796
    3. CR ( 1) F  3             1.99999   -26.38228
    4. CR ( 1) F  4             1.99999   -26.38228
    5. CR ( 1) F  5             1.99999   -26.38228
    6. CR ( 1) N  6             1.99999   -15.65515
    7. LP ( 1) F  3             1.99090    -1.26966  32(v),33(v),34(v)
    8. LP ( 2) F  3             1.95942    -0.71262  24(v),26(v),27(v),30(r)
                                                     33(v),38(v),35(v)
    9. LP ( 3) F  3             1.95083    -0.70833  26(v),27(v),31(v),36(v)
   10. LP ( 1) F  4             1.99090    -1.26966  31(v),33(v),32(v),34(v)
   11. LP ( 2) F  4             1.95942    -0.71262  24(v),25(v),27(v),29(r)
                                                     33(v),37(v)
   12. LP ( 3) F  4             1.95083    -0.70833  25(v),27(v),32(v),35(v)
                                                     31(v)
   13. LP ( 1) F  5             1.99090    -1.26966  31(v),33(v),32(v),34(v)
   14. LP ( 2) F  5             1.95942    -0.71262  24(v),25(v),26(v),29(r)
                                                     33(v),37(v)
   15. LP ( 3) F  5             1.95083    -0.70833  25(v),26(v),32(v),35(v)
                                                     31(v)
   16. LP ( 1) N  6             1.98064    -0.66674  40(v),24(v)
   17. BD ( 1) C  1- C  2       1.99153    -0.96269  28(g),76(v),49(v),58(v)
                                                     67(v)
   18. BD ( 1) C  1- F  3       1.99362    -1.28245  30(v),26(g),27(g),28(v)
                                                     43(v)
   19. BD ( 1) C  1- F  4       1.99362    -1.28245  25(g),27(g),29(v),28(v)
   20. BD ( 1) C  1- F  5       1.99362    -1.28245  25(g),26(g),29(v),28(v)
   21. BD ( 1) C  2- N  6       1.99516    -1.18143  24(g),39(v)
   22. BD ( 2) C  2- N  6       1.98297    -0.51486  26(v),27(v)
   23. BD ( 3) C  2- N  6       1.98297    -0.51486  25(v),26(v),27(v)
 ------ non-Lewis ----------------------------------
   24. BD*( 1) C  1- C  2       0.05449     0.63184
   25. BD*( 1) C  1- F  3       0.07552     0.45286
   26. BD*( 1) C  1- F  4       0.07552     0.45286
   27. BD*( 1) C  1- F  5       0.07552     0.45286
   28. BD*( 1) C  2- N  6       0.00690     1.13501
   29. BD*( 2) C  2- N  6       0.01075     0.25669
   30. BD*( 3) C  2- N  6       0.01075     0.25669
   31. RY ( 1) C  1             0.01316     1.15357
   32. RY ( 2) C  1             0.01316     1.15357
   33. RY ( 3) C  1             0.00989     1.10948
   34. RY ( 4) C  1             0.00362     1.49182
   35. RY ( 5) C  1             0.00280     2.17049
   36. RY ( 6) C  1             0.00280     2.17049
   37. RY ( 7) C  1             0.00219     2.27254
   38. RY ( 8) C  1             0.00219     2.27254
   39. RY ( 9) C  1             0.00066     1.71262
   40. RY ( 1) C  2             0.01151     0.63122
   41. RY ( 2) C  2             0.00159     1.04378
   42. RY ( 3) C  2             0.00141     0.80325
   43. RY ( 4) C  2             0.00141     0.80325
   44. RY ( 5) C  2             0.00028     2.45180
   45. RY ( 6) C  2             0.00028     2.45180
   46. RY ( 7) C  2             0.00003     1.96544
   47. RY ( 8) C  2             0.00003     1.96544
   48. RY ( 9) C  2             0.00002     3.14713
   49. RY ( 1) F  3             0.00067     2.03762
   50. RY ( 2) F  3             0.00018     1.78425
   51. RY ( 3) F  3             0.00016     2.38206
   52. RY ( 4) F  3             0.00004     2.15324
   53. RY ( 5) F  3             0.00003     2.15688
   54. RY ( 6) F  3             0.00002     2.29278
   55. RY ( 7) F  3             0.00001     2.10448
   56. RY ( 8) F  3             0.00001     2.37983
   57. RY ( 9) F  3             0.00000     1.81529
   58. RY ( 1) F  4             0.00067     2.03762
   59. RY ( 2) F  4             0.00018     1.78425
   60. RY ( 3) F  4             0.00016     2.38206
   61. RY ( 4) F  4             0.00004     2.15324
   62. RY ( 5) F  4             0.00003     2.15688
   63. RY ( 6) F  4             0.00002     2.29278
   64. RY ( 7) F  4             0.00001     2.10448
   65. RY ( 8) F  4             0.00001     2.37983
   66. RY ( 9) F  4             0.00000     1.81529
   67. RY ( 1) F  5             0.00067     2.03762
   68. RY ( 2) F  5             0.00018     1.78425
   69. RY ( 3) F  5             0.00016     2.38206
   70. RY ( 4) F  5             0.00004     2.15324
   71. RY ( 5) F  5             0.00003     2.15688
   72. RY ( 6) F  5             0.00002     2.29278
   73. RY ( 7) F  5             0.00001     2.10448
   74. RY ( 8) F  5             0.00001     2.37983
   75. RY ( 9) F  5             0.00000     1.81529
   76. RY ( 1) N  6             0.00250     1.73420
   77. RY ( 2) N  6             0.00007     1.13701
   78. RY ( 3) N  6             0.00007     1.13701
   79. RY ( 4) N  6             0.00001     1.23811
   80. RY ( 5) N  6             0.00000     2.72134
   81. RY ( 6) N  6             0.00000     2.00731
   82. RY ( 7) N  6             0.00000     2.00731
   83. RY ( 8) N  6             0.00000     2.15044
   84. RY ( 9) N  6             0.00000     2.15045
          -------------------------------
                 Total Lewis   45.61753  ( 99.1685%)
           Valence non-Lewis    0.30944  (  0.6727%)
           Rydberg non-Lewis    0.07303  (  0.1588%)
          -------------------------------
               Total unit  1   46.00000  (100.0000%)
              Charge unit  1    0.00000

 $CHOOSE
   LONE 3 3 4 3 5 3 6 1 END
   BOND S 1 2 S 1 3 S 1 4 S 1 5 T 2 6 END
 $END

 NBO analysis completed in 1.72 CPU seconds (2 wall seconds)
 Maximum scratch memory used by NBO was 371915 words (2.84 MB)
 Maximum scratch memory used by G16NBO was 19322 words (0.15 MB)

 Opening RunExU unformatted file "/cluster/work/users/beto93/mol75/Gau-1309233.EUF"
 Read unf file /cluster/work/users/beto93/mol75/Gau-1309233.EUF:
 Label Gaussian matrix elements                                         IVers= 2 NLab= 2 Version=ES64L-G16RevC.01
 Title mol75-NBO                                                       
 NAtoms=     6 NBasis=    84 NBsUse=    84 ICharg=     0 Multip=     1 NE=    46 Len12L=8 Len4L=8 IOpCl= 0 ICGU=111
 GAUSSIAN SCALARS                    NI= 1 NR= 1 NTot=       1 LenBuf=    2 NRI=1 N=    1000
 NPA CHARGES                         NI= 0 NR= 1 NTot=       6 LenBuf= 4000 NRI=1 N=       6
 Recovered energy= -428.468728540     dipole=      0.000000000000      0.000001326017     -0.510239668897
 Unable to Open any file for archive entry.
 1\1\GINC-C3-24\SP\RHF\6-31G(d)\C2F3N1\BETO93\18-Nov-2024\0\\#RHF/6-31G
 * int=nobasistransform Symmetry=None 5D 7F Pop=NBO7Read\\mol75-NBO\\0,
 1\C,0,0.,0.,-0.32635\C,0,0.,0.,1.15083\F,0,0.,1.257579,-0.787225\F,0,1
 .089096,-0.62879,-0.787225\F,0,-1.089096,-0.62879,-0.787225\N,0,0.,0.,
 2.329741\\Version=ES64L-G16RevC.01\HF=-428.4687285\RMSD=2.323e-09\Dipo
 le=0.,0.0000013,-0.5102397\Quadrupole=1.5543752,1.5543784,-3.1087536,0
 .,0.,-0.0000021\PG=Unknown\\@
 The archive entry for this job was punched.


 WE HAVE LEARNED THAT NOTHING IS SIMPLE AND
 RATIONAL EXCEPT WHAT WE OURSELVES HAVE INVENTED;
 THAT GOD THINKS IN TERMS NEITHER OF EUCLID OR RIEMANN; THAT SCIENCE HAS "EXPLAINED" NOTHING;
 THAT THE MORE WE KNOW THE MORE FANTASTIC THE WORLD BECOMES
 AND THE PROFOUNDER THE SURROUNDING DARKNESS.
   --  ALDOUS HUXLEY
 Job cpu time:       0 days  0 hours  0 minutes 13.9 seconds.
 Elapsed time:       0 days  0 hours  0 minutes  4.7 seconds.
 File lengths (MBytes):  RWF=     15 Int=      0 D2E=      0 Chk=      2 Scr=      1
 Normal termination of Gaussian 16 at Mon Nov 18 16:40:44 2024.
