 Entering Gaussian System, Link 0=g16
 Initial command:
 /cluster/software/Gaussian/g16_C.01/l1.exe "/cluster/work/users/beto93/mol58/Gau-1898619.inp" -scrdir="/cluster/work/users/beto93/mol58/"
 Entering Link 1 = /cluster/software/Gaussian/g16_C.01/l1.exe PID=   1898620.
  
 Copyright (c) 1988-2019, Gaussian, Inc.  All Rights Reserved.
  
 This is part of the Gaussian(R) 16 program.  It is based on
 the Gaussian(R) 09 system (copyright 2009, Gaussian, Inc.),
 the Gaussian(R) 03 system (copyright 2003, Gaussian, Inc.),
 the Gaussian(R) 98 system (copyright 1998, Gaussian, Inc.),
 the Gaussian(R) 94 system (copyright 1995, Gaussian, Inc.),
 the Gaussian 92(TM) system (copyright 1992, Gaussian, Inc.),
 the Gaussian 90(TM) system (copyright 1990, Gaussian, Inc.),
 the Gaussian 88(TM) system (copyright 1988, Gaussian, Inc.),
 the Gaussian 86(TM) system (copyright 1986, Carnegie Mellon
 University), and the Gaussian 82(TM) system (copyright 1983,
 Carnegie Mellon University). Gaussian is a federally registered
 trademark of Gaussian, Inc.
  
 This software contains proprietary and confidential information,
 including trade secrets, belonging to Gaussian, Inc.
  
 This software is provided under written license and may be
 used, copied, transmitted, or stored only in accord with that
 written license.
  
 The following legend is applicable only to US Government
 contracts under FAR:
  
                    RESTRICTED RIGHTS LEGEND
  
 Use, reproduction and disclosure by the US Government is
 subject to restrictions as set forth in subparagraphs (a)
 and (c) of the Commercial Computer Software - Restricted
 Rights clause in FAR 52.227-19.
  
 Gaussian, Inc.
 340 Quinnipiac St., Bldg. 40, Wallingford CT 06492
  
  
 ---------------------------------------------------------------
 Warning -- This program may not be used in any manner that
 competes with the business of Gaussian, Inc. or will provide
 assistance to any competitor of Gaussian, Inc.  The licensee
 of this program is prohibited from giving any competitor of
 Gaussian, Inc. access to this program.  By using this program,
 the user acknowledges that Gaussian, Inc. is engaged in the
 business of creating and licensing software in the field of
 computational chemistry and represents and warrants to the
 licensee that it is not a competitor of Gaussian, Inc. and that
 it will not use this program in any manner prohibited above.
 ---------------------------------------------------------------
  

 Cite this work as:
 Gaussian 16, Revision C.01,
 M. J. Frisch, G. W. Trucks, H. B. Schlegel, G. E. Scuseria, 
 M. A. Robb, J. R. Cheeseman, G. Scalmani, V. Barone, 
 G. A. Petersson, H. Nakatsuji, X. Li, M. Caricato, A. V. Marenich, 
 J. Bloino, B. G. Janesko, R. Gomperts, B. Mennucci, H. P. Hratchian, 
 J. V. Ortiz, A. F. Izmaylov, J. L. Sonnenberg, D. Williams-Young, 
 F. Ding, F. Lipparini, F. Egidi, J. Goings, B. Peng, A. Petrone, 
 T. Henderson, D. Ranasinghe, V. G. Zakrzewski, J. Gao, N. Rega, 
 G. Zheng, W. Liang, M. Hada, M. Ehara, K. Toyota, R. Fukuda, 
 J. Hasegawa, M. Ishida, T. Nakajima, Y. Honda, O. Kitao, H. Nakai, 
 T. Vreven, K. Throssell, J. A. Montgomery, Jr., J. E. Peralta, 
 F. Ogliaro, M. J. Bearpark, J. J. Heyd, E. N. Brothers, K. N. Kudin, 
 V. N. Staroverov, T. A. Keith, R. Kobayashi, J. Normand, 
 K. Raghavachari, A. P. Rendell, J. C. Burant, S. S. Iyengar, 
 J. Tomasi, M. Cossi, J. M. Millam, M. Klene, C. Adamo, R. Cammi, 
 J. W. Ochterski, R. L. Martin, K. Morokuma, O. Farkas, 
 J. B. Foresman, and D. J. Fox, Gaussian, Inc., Wallingford CT, 2019.
 
 ******************************************
 Gaussian 16:  ES64L-G16RevC.01  3-Jul-2019
                18-Nov-2024 
 ******************************************
 %LindaWorkers=c1-6-ib
 %NProcShared=4
 Will use up to    4 processors via shared memory.
 %mem=25GB
 %chk=mol58.chk
 SetLPE:    new flags="-opt 'Tsnet.Node.lindarsharg: ssh'  -nodelist 'c1-6-ib.saga' -env GAUSS_MDEF=3355443200 -env GAUSS_EXEDIR="/cluster/software/Gaussian/g16_C.01/bsd:/cluster/software/Gaussian/g16_C.01""
 Will use up to    1 processors via Linda.
 -----------------------------------------------------------------
 #RHF/6-31G* int=nobasistransform Symmetry=None 5D 7F Pop=NBO7Read
 -----------------------------------------------------------------
 1/38=1,163=2,172=1/1;
 2/12=2,15=3,17=6,18=5,40=1/2;
 3/5=1,6=6,7=1,8=11,11=1,25=1,30=1,60=-1,116=1/1,2,3;
 4//1;
 5/5=2,38=5/2;
 6/7=2,8=2,9=2,10=2,28=1,40=2,113=1,114=1,124=2103/1,12;
 99/5=1,9=1/99;
 ---------
 mol58-NBO
 ---------
 Symbolic Z-matrix:
 Charge =  0 Multiplicity = 1
 Al                    0.        0.        0. 
 Cl                    0.        2.06904   0. 
 Cl                    1.79184  -1.03452   0. 
 Cl                   -1.79184  -1.03452   0. 
 
                          Input orientation:                          
 ---------------------------------------------------------------------
 Center     Atomic      Atomic             Coordinates (Angstroms)
 Number     Number       Type             X           Y           Z
 ---------------------------------------------------------------------
      1         13           0        0.000000    0.000000    0.000000
      2         17           0        0.000000    2.069041    0.000000
      3         17           0        1.791842   -1.034520    0.000000
      4         17           0       -1.791842   -1.034520    0.000000
 ---------------------------------------------------------------------
                    Distance matrix (angstroms):
                    1          2          3          4
     1  Al   0.000000
     2  Cl   2.069041   0.000000
     3  Cl   2.069041   3.583684   0.000000
     4  Cl   2.069041   3.583684   3.583684   0.000000
 Symmetry turned off by external request.
 Stoichiometry    AlCl3
 Rotational constants (GHZ):           2.2506424           2.2506419           1.1253211
 Standard basis: 6-31G(d) (5D, 7F)
    72 basis functions,   208 primitive gaussians,    76 cartesian basis functions
    32 alpha electrons       32 beta electrons
       nuclear repulsion energy       297.5924192497 Hartrees.
 NAtoms=    4 NActive=    4 NUniq=    4 SFac= 1.00D+00 NAtFMM=   60 NAOKFM=F Big=F
 Integral buffers will be    131072 words long.
 Raffenetti 1 integral format.
 Two-electron integral symmetry is turned off.
 One-electron integrals computed using PRISM.
 NBasis=    72 RedAO= T EigKep=  3.08D-02  NBF=    72
 NBsUse=    72 1.00D-06 EigRej= -1.00D+00 NBFU=    72
 ExpMin= 5.57D-02 ExpMax= 2.52D+04 ExpMxC= 3.78D+03 IAcc=3 IRadAn=         5 AccDes= 0.00D+00
 Harris functional with IExCor=  205 and IRadAn=       5 diagonalized for initial guess.
 HarFok:  IExCor=  205 AccDes= 0.00D+00 IRadAn=         5 IDoV= 1 UseB2=F ITyADJ=14
 ICtDFT=  3500011 ScaDFX=  1.000000  1.000000  1.000000  1.000000
 FoFCou: FMM=F IPFlag=           0 FMFlag=      100000 FMFlg1=           0
         NFxFlg=           0 DoJE=T BraDBF=F KetDBF=T FulRan=T
         wScrn=  0.000000 ICntrl=       500 IOpCl=  0 I1Cent=   200000004 NGrid=           0
         NMat0=    1 NMatS0=      1 NMatT0=    0 NMatD0=    1 NMtDS0=    0 NMtDT0=    0
 Symmetry not used in FoFCou.
 Keep R1 ints in memory in canonical form, NReq=4304856.
 Requested convergence on RMS density matrix=1.00D-08 within 128 cycles.
 Requested convergence on MAX density matrix=1.00D-06.
 Requested convergence on             energy=1.00D-06.
 No special actions if energy rises.
 SCF Done:  E(RHF) =  -1620.57093724     A.U. after   10 cycles
            NFock= 10  Conv=0.25D-08     -V/T= 1.9997

 **********************************************************************

            Population analysis using the SCF Density.

 **********************************************************************

 Alpha  occ. eigenvalues -- -104.82853-104.82853-104.82852 -58.58195 -10.56979
 Alpha  occ. eigenvalues --  -10.56979 -10.56977  -8.03762  -8.03762  -8.03761
 Alpha  occ. eigenvalues --   -8.03567  -8.03566  -8.03566  -8.03543  -8.03543
 Alpha  occ. eigenvalues --   -8.03543  -5.00126  -3.31688  -3.31514  -3.31514
 Alpha  occ. eigenvalues --   -1.12105  -1.10066  -1.10066  -0.62268  -0.55042
 Alpha  occ. eigenvalues --   -0.55042  -0.51313  -0.49516  -0.49516  -0.48694
 Alpha  occ. eigenvalues --   -0.48694  -0.46782
 Alpha virt. eigenvalues --    0.05959   0.05980   0.15777   0.15777   0.22444
 Alpha virt. eigenvalues --    0.25283   0.33482   0.33482   0.49992   0.49992
 Alpha virt. eigenvalues --    0.51736   0.54834   0.54834   0.63104   0.63104
 Alpha virt. eigenvalues --    0.64091   0.64091   0.71057   0.72501   0.74404
 Alpha virt. eigenvalues --    0.76966   0.81401   0.81401   0.86739   0.86739
 Alpha virt. eigenvalues --    1.11425   1.12815   1.12815   1.12894   1.13106
 Alpha virt. eigenvalues --    1.13106   1.14195   1.18112   1.24951   1.24951
 Alpha virt. eigenvalues --    1.30956   1.30956   1.46920   1.59763   1.59763
          Condensed to atoms (all electrons):
               1          2          3          4
     1  Al  11.006973   0.384880   0.384880   0.384880
     2  Cl   0.384880  16.930733  -0.018075  -0.018075
     3  Cl   0.384880  -0.018075  16.930733  -0.018075
     4  Cl   0.384880  -0.018075  -0.018075  16.930733
 Mulliken charges:
               1
     1  Al   0.838387
     2  Cl  -0.279462
     3  Cl  -0.279462
     4  Cl  -0.279462
 Sum of Mulliken charges =  -0.00000
 Mulliken charges with hydrogens summed into heavy atoms:
               1
     1  Al   0.838387
     2  Cl  -0.279462
     3  Cl  -0.279462
     4  Cl  -0.279462
 Electronic spatial extent (au):  <R**2>=            897.1997
 Charge=             -0.0000 electrons
 Dipole moment (field-independent basis, Debye):
    X=             -0.0000    Y=             -0.0000    Z=             -0.0000  Tot=              0.0000
 Quadrupole moment (field-independent basis, Debye-Ang):
   XX=            -55.7475   YY=            -55.7475   ZZ=            -46.5981
   XY=              0.0000   XZ=             -0.0000   YZ=             -0.0000
 Traceless Quadrupole moment (field-independent basis, Debye-Ang):
   XX=             -3.0498   YY=             -3.0498   ZZ=              6.0996
   XY=              0.0000   XZ=             -0.0000   YZ=             -0.0000
 Octapole moment (field-independent basis, Debye-Ang**2):
  XXX=             -0.0000  YYY=             -3.5273  ZZZ=             -0.0000  XYY=             -0.0000
  XXY=              3.5273  XXZ=             -0.0000  XZZ=             -0.0000  YZZ=             -0.0000
  YYZ=             -0.0000  XYZ=             -0.0000
 Hexadecapole moment (field-independent basis, Debye-Ang**3):
 XXXX=           -563.3270 YYYY=           -563.3269 ZZZZ=            -53.8398 XXXY=              0.0000
 XXXZ=             -0.0000 YYYX=              0.0000 YYYZ=              0.0000 ZZZX=             -0.0000
 ZZZY=              0.0000 XXYY=           -187.7756 XXZZ=           -104.2966 YYZZ=           -104.2966
 XXYZ=              0.0000 YYXZ=              0.0000 ZZXY=              0.0000
 N-N= 2.975924192497D+02 E-N=-4.457264036767D+03  KE= 1.621022273555D+03
 Running external command "gaunbo7 R"
         input file       "/cluster/work/users/beto93/mol58/Gau-1898620.EIn"
         output file      "/cluster/work/users/beto93/mol58/Gau-1898620.EOu"
         message file     "/cluster/work/users/beto93/mol58/Gau-1898620.EMs"
         fchk file        "/cluster/work/users/beto93/mol58/Gau-1898620.EFC"
         mat. el file     "/cluster/work/users/beto93/mol58/Gau-1898620.EUF"

 Writing WrtUnf unformatted file "/cluster/work/users/beto93/mol58/Gau-1898620.EUF"
 Gaussian matrix elements                                         Version   2 NLab=11 Len12L=8 Len4L=8
 Write SHELL TO ATOM MAP                   from file      0 offset           0 length                  20 to matrix element file.
 Write SHELL TYPES                         from file      0 offset           0 length                  20 to matrix element file.
 Write NUMBER OF PRIMITIVES PER SHELL      from file      0 offset           0 length                  20 to matrix element file.
 Write PRIMITIVE EXPONENTS                 from file      0 offset           0 length                  68 to matrix element file.
 Write CONTRACTION COEFFICIENTS            from file      0 offset           0 length                  68 to matrix element file.
 Write P(S=P) CONTRACTION COEFFICIENTS     from file      0 offset           0 length                  68 to matrix element file.
 Write COORDINATES OF EACH SHELL           from file      0 offset           0 length                  60 to matrix element file.
 Write BONDS PER ATOM                      from file      0 offset           0 length                   4 to matrix element file.
 Write BONDED ATOMS                        from file      0 offset           0 length                   6 to matrix element file.
 Write BOND TYPES                          from file      0 offset           0 length                   6 to matrix element file.
 Write ONIOM CHARGE/MULT                   from file      0 offset           0 length                  32 to matrix element file.
 Write ONIOM ATOM LAYERS                   from file      0 offset           0 length                   4 to matrix element file.
 Write ONIOM ATOM MODIFIERS                from file      0 offset           0 length                   4 to matrix element file.
 Write ONIOM ATOM TYPES                    from file      0 offset           0 length                   4 to matrix element file.
 Write ONIOM LINK ATOMS                    from file      0 offset           0 length                   4 to matrix element file.
 Write ONIOM LINK CHARGES                  from file      0 offset           0 length                   4 to matrix element file.
 Write ONIOM LINK DISTANCES                from file      0 offset           0 length                  16 to matrix element file.
 Write SYMINF INTS                         from file      0 offset           0 length                  26 to matrix element file.
 Write ROTTR TO SO                         from file      0 offset           0 length                  12 to matrix element file.
 Write GAUSSIAN SCALARS                    from file    501 offset           0 to matrix element file.
 Write OPTIMIZATION FLAGS                  from file      0 offset           0 length                   4 to matrix element file.
 Write INTEGER ISO                         from file      0 offset           0 length                   4 to matrix element file.
 Write INTEGER SPIN                        from file      0 offset           0 length                   4 to matrix element file.
 Write REAL ZEFFECTIVE                     from file      0 offset           0 length                   4 to matrix element file.
 Write REAL QUADRUPOLEMOMENT               from file      0 offset           0 length                   4 to matrix element file.
 Write REAL GFACTOR                        from file      0 offset           0 length                   4 to matrix element file.
 Write REAL ZNUCLEAR                       from file      0 offset           0 length                   4 to matrix element file.
 Write MULLIKEN CHARGES                    from file      0 offset           0 length                   4 to matrix element file.
 Write NUCLEAR GRADIENT                    from file  10584 offset           0 length                  12 to matrix element file.
 Array NUCLEAR FORCE CONSTANTS              on  file  10585 does not exist.
 Write ELECTRIC DIPOLE MOMENT              from file      0 offset           0 length                   3 to matrix element file.
 Write NON-ADIABATIC COUPLING              from file  10810 offset           0 length                  12 to matrix element file.
 Write FINITE EM FIELD                     from file  10521 offset           0 length                  35 to matrix element file.
 Write OVERLAP                             from file  10514 offset           0 length                2628 to matrix element file.
 Write CORE HAMILTONIAN ALPHA              from file  10515 offset           0 length                2628 to matrix element file.
 Write CORE HAMILTONIAN BETA               from file  10515 offset        2628 length                2628 to matrix element file.
 Write KINETIC ENERGY                      from file  10516 offset           0 length                2628 to matrix element file.
 Write ORTHOGONAL BASIS                    from file  10685 offset           0 length                5184 to matrix element file.
 Write DIPOLE INTEGRALS                    from file  10518 offset           0 length                7884 to matrix element file.
 Array DIP VEL INTEGRALS                    on  file  10572 does not exist.
 Array R X DEL INTEGRALS                    on  file  10572 does not exist.
 Write ALPHA ORBITAL ENERGIES              from file      0 offset           0 length                  72 to matrix element file.
 Write ALPHA MO COEFFICIENTS               from file  10524 offset           0 length                5184 to matrix element file.
 Write ALPHA DENSITY MATRIX                from file      0 offset           0 length                2628 to matrix element file.
 Write ALPHA FOCK MATRIX                   from file  10536 offset           0 length                2628 to matrix element file.
 Write ENERGY-WEIGHTED DENSITY             from file  10571 offset           0 length                2628 to matrix element file.
 Write ALPHA SCF DENSITY MATRIX            from file      0 offset           0 length                2628 to matrix element file.
 No 2e integrals to process.
 Perform NBO analysis...executing G16NBO...

 *********************************** NBO 7.0 ***********************************
             N A T U R A L   A T O M I C   O R B I T A L   A N D
          N A T U R A L   B O N D   O R B I T A L   A N A L Y S I S
 **************************** Espen Tangen (S101595) ***************************
  (c) Copyright 1996-2021 Board of Regents of the University of Wisconsin System
      on behalf of the Theoretical Chemistry Institute.  All rights reserved.

          Cite this program [NBO 7.0.10 (8-Feb-2021)] as:

          NBO 7.0.  E. D. Glendening, J. K. Badenhoop, A. E. Reed,
          J. E. Carpenter, J. A. Bohmann, C. M. Morales, P. Karafiloglou,
          C. R. Landis, and F. Weinhold, Theoretical Chemistry Institute,
          University of Wisconsin, Madison, WI (2018)

       /NPA    / : Natural Population Analysis
       /AOPNAO / : Print the AO to PNAO transformation
       /AONAO  / : Print the AO to NAO transformation
       /AOMO   / : Print the MOs in the AO basis
       /BOAO   / : Print the AO bond-order matrix
       /DMAO   / : Print the AO density matrix
       /DMPNAO / : Print the PNAO density matrix
       /DMNAO  / : Print the NAO density matrix
       /DMMO   / : Print the MO density matrix
       /SAO    / : Print the AO overlap matrix
       /SPNAO  / : Print the PNAO overlap matrix
       /DETAIL / : Write details of NBO search
       /ARCHIVE/ : Write the archive file to lfn47
       /AOINFO / : Write AO information to lfn31
       /FILE   / : Set to mol58.gen*

 Filename set to mol58.gen1

 Job title: mol58-NBO


 MOs in the AO basis:

           AO          1       2       3       4       5       6       7       8
      ------------ ------- ------- ------- ------- ------- ------- ------- -------
   1. Al 1 (s)      0.0000  0.0000  0.0000  0.9973  0.0000  0.0000  0.0000  0.0000
   2. Al 1 (s)      0.0000  0.0000 -0.0001  0.0105  0.0000  0.0000  0.0001  0.0000
   3. Al 1 (px)     0.0000  0.0000  0.0000  0.0000  0.0000  0.0000  0.0000 -0.0002
   4. Al 1 (py)     0.0000  0.0000  0.0000  0.0000  0.0000  0.0000  0.0000  0.0000
   5. Al 1 (pz)     0.0000  0.0000  0.0000  0.0000  0.0000  0.0000  0.0000  0.0000
   6. Al 1 (s)      0.0000  0.0000 -0.0004 -0.0037  0.0000  0.0000  0.0008  0.0000
   7. Al 1 (px)    -0.0004  0.0000  0.0000  0.0000  0.0008  0.0000  0.0000  0.0011
   8. Al 1 (py)     0.0000 -0.0004  0.0000  0.0000  0.0000  0.0008  0.0000  0.0000
   9. Al 1 (pz)     0.0000  0.0000  0.0000  0.0000  0.0000  0.0000  0.0000  0.0000
  10. Al 1 (s)      0.0000  0.0000 -0.0018  0.0003  0.0000  0.0000  0.0049  0.0000
  11. Al 1 (px)    -0.0013  0.0000  0.0000  0.0000  0.0034  0.0000  0.0000 -0.0002
  12. Al 1 (py)     0.0000 -0.0013  0.0000  0.0000  0.0000  0.0034  0.0000  0.0000
  13. Al 1 (pz)     0.0000  0.0000  0.0000  0.0000  0.0000  0.0000  0.0000  0.0000
  14. Al 1 (d5)     0.0000  0.0000  0.0001  0.0005  0.0000  0.0000 -0.0002  0.0000
  15. Al 1 (d2)     0.0000  0.0000  0.0000  0.0000  0.0000  0.0000  0.0000  0.0000
  16. Al 1 (d3)     0.0000  0.0000  0.0000  0.0000  0.0000  0.0000  0.0000  0.0000
  17. Al 1 (d4)     0.0000 -0.0001  0.0000  0.0000  0.0000  0.0003  0.0000  0.0000
  18. Al 1 (d1)    -0.0001  0.0000  0.0000  0.0000  0.0003  0.0000  0.0000 -0.0016
  19. Cl 2 (s)      0.0000  0.8117  0.5781  0.0000  0.0000 -0.2338 -0.1661  0.0000
  20. Cl 2 (s)      0.0000  0.0102  0.0073 -0.0001  0.0000  0.8407  0.5971  0.0000
  21. Cl 2 (px)     0.0000  0.0000  0.0000  0.0000  0.0000  0.0000  0.0000  0.0020
  22. Cl 2 (py)     0.0000 -0.0001  0.0000  0.0000  0.0000 -0.0023 -0.0017  0.0000
  23. Cl 2 (pz)     0.0000  0.0000  0.0000  0.0000  0.0000  0.0000  0.0000  0.0000
  24. Cl 2 (s)      0.0000 -0.0037 -0.0026 -0.0002  0.0000  0.0198  0.0139  0.0000
  25. Cl 2 (px)    -0.0001  0.0000  0.0000  0.0000  0.0002  0.0000  0.0000  0.0002
  26. Cl 2 (py)     0.0000  0.0002  0.0001 -0.0001  0.0000 -0.0010 -0.0006  0.0000
  27. Cl 2 (pz)     0.0000  0.0000  0.0000  0.0000  0.0000  0.0000  0.0000  0.0000
  28. Cl 2 (s)      0.0000  0.0030  0.0021  0.0009  0.0000 -0.0087 -0.0062  0.0000
  29. Cl 2 (px)     0.0004  0.0000  0.0000  0.0000 -0.0011  0.0000  0.0000 -0.0002
  30. Cl 2 (py)     0.0000 -0.0006 -0.0005 -0.0007  0.0000  0.0016  0.0014  0.0000
  31. Cl 2 (pz)     0.0000  0.0000  0.0000  0.0000  0.0000  0.0000  0.0000  0.0000
  32. Cl 2 (d5)     0.0000  0.0000  0.0000 -0.0001  0.0000  0.0000  0.0000  0.0000
  33. Cl 2 (d2)     0.0000  0.0000  0.0000  0.0000  0.0000  0.0000  0.0000  0.0000
  34. Cl 2 (d3)     0.0000  0.0000  0.0000  0.0000  0.0000  0.0000  0.0000  0.0000
  35. Cl 2 (d4)     0.0000  0.0000  0.0000 -0.0002  0.0000 -0.0001  0.0000  0.0000
  36. Cl 2 (d1)    -0.0001  0.0000  0.0000  0.0000  0.0001  0.0000  0.0000 -0.0001
  37. Cl 3 (s)      0.7046 -0.4088  0.5739  0.0000 -0.2028  0.1174 -0.1653 -0.0007
  38. Cl 3 (s)      0.0089 -0.0052  0.0072 -0.0001  0.7291 -0.4222  0.5945  0.0026
  39. Cl 3 (px)     0.0000  0.0000  0.0000  0.0000 -0.0018  0.0010 -0.0015  0.6086
  40. Cl 3 (py)     0.0000  0.0000  0.0000  0.0000  0.0010 -0.0006  0.0008 -0.3502
  41. Cl 3 (pz)     0.0000  0.0000  0.0000  0.0000  0.0000  0.0000  0.0000  0.0000
  42. Cl 3 (s)     -0.0032  0.0018 -0.0025 -0.0002  0.0172 -0.0099  0.0139 -0.0010
  43. Cl 3 (px)     0.0001 -0.0001  0.0001 -0.0001 -0.0007  0.0005 -0.0005  0.0138
  44. Cl 3 (py)    -0.0001  0.0000  0.0000  0.0001  0.0005 -0.0001  0.0003 -0.0079
  45. Cl 3 (pz)     0.0000  0.0000  0.0000  0.0000  0.0000  0.0000  0.0000  0.0000
  46. Cl 3 (s)      0.0026 -0.0015  0.0021  0.0009 -0.0075  0.0044 -0.0061  0.0001
  47. Cl 3 (px)    -0.0003  0.0004 -0.0004 -0.0006  0.0009 -0.0012  0.0012 -0.0032
  48. Cl 3 (py)     0.0004  0.0002  0.0003  0.0003 -0.0012 -0.0004 -0.0007  0.0017
  49. Cl 3 (pz)     0.0000  0.0000  0.0000  0.0000  0.0000  0.0000  0.0000  0.0000
  50. Cl 3 (d5)     0.0000  0.0000  0.0000 -0.0001  0.0000  0.0000  0.0000  0.0003
  51. Cl 3 (d2)     0.0000  0.0000  0.0000  0.0000  0.0000  0.0000  0.0000  0.0000
  52. Cl 3 (d3)     0.0000  0.0000  0.0000  0.0000  0.0000  0.0000  0.0000  0.0000
  53. Cl 3 (d4)     0.0000  0.0000  0.0000  0.0001  0.0001  0.0001  0.0000 -0.0003
  54. Cl 3 (d1)     0.0000  0.0000  0.0000 -0.0002 -0.0001  0.0001  0.0000  0.0004
  55. Cl 4 (s)     -0.7046 -0.4088  0.5739  0.0000  0.2028  0.1174 -0.1653  0.0007
  56. Cl 4 (s)     -0.0089 -0.0052  0.0072 -0.0001 -0.7291 -0.4222  0.5945 -0.0026
  57. Cl 4 (px)     0.0000  0.0000  0.0000  0.0000 -0.0018 -0.0010  0.0015  0.6086
  58. Cl 4 (py)     0.0000  0.0000  0.0000  0.0000 -0.0010 -0.0006  0.0008  0.3502
  59. Cl 4 (pz)     0.0000  0.0000  0.0000  0.0000  0.0000  0.0000  0.0000  0.0000
  60. Cl 4 (s)      0.0032  0.0018 -0.0025 -0.0002 -0.0172 -0.0099  0.0139  0.0010
  61. Cl 4 (px)     0.0001  0.0001 -0.0001  0.0001 -0.0007 -0.0005  0.0005  0.0138
  62. Cl 4 (py)     0.0001  0.0000  0.0000  0.0001 -0.0005 -0.0001  0.0003  0.0079
  63. Cl 4 (pz)     0.0000  0.0000  0.0000  0.0000  0.0000  0.0000  0.0000  0.0000
  64. Cl 4 (s)     -0.0026 -0.0015  0.0021  0.0009  0.0075  0.0044 -0.0061 -0.0001
  65. Cl 4 (px)    -0.0003 -0.0004  0.0004  0.0006  0.0009  0.0012 -0.0012 -0.0032
  66. Cl 4 (py)    -0.0004  0.0002  0.0003  0.0003  0.0012 -0.0004 -0.0007 -0.0017
  67. Cl 4 (pz)     0.0000  0.0000  0.0000  0.0000  0.0000  0.0000  0.0000  0.0000
  68. Cl 4 (d5)     0.0000  0.0000  0.0000 -0.0001  0.0000  0.0000  0.0000 -0.0003
  69. Cl 4 (d2)     0.0000  0.0000  0.0000  0.0000  0.0000  0.0000  0.0000  0.0000
  70. Cl 4 (d3)     0.0000  0.0000  0.0000  0.0000  0.0000  0.0000  0.0000  0.0000
  71. Cl 4 (d4)     0.0000  0.0000  0.0000  0.0001 -0.0001  0.0001  0.0000  0.0003
  72. Cl 4 (d1)     0.0000  0.0000  0.0000  0.0002 -0.0001 -0.0001  0.0000  0.0004

           AO          9      10      11      12      13      14      15      16
      ------------ ------- ------- ------- ------- ------- ------- ------- -------
   1. Al 1 (s)      0.0000  0.0000  0.0000  0.0000  0.0000  0.0000  0.0000  0.0000
   2. Al 1 (s)      0.0000 -0.0006  0.0000  0.0000  0.0000  0.0000  0.0000  0.0000
   3. Al 1 (px)     0.0000  0.0000  0.0000  0.0000  0.0000  0.0000  0.0000  0.0000
   4. Al 1 (py)    -0.0002  0.0000  0.0000  0.0000  0.0000  0.0000  0.0000  0.0000
   5. Al 1 (pz)     0.0000  0.0000  0.0001  0.0000  0.0000  0.0000  0.0000  0.0000
   6. Al 1 (s)      0.0000 -0.0004  0.0000  0.0000  0.0000  0.0000  0.0000  0.0000
   7. Al 1 (px)     0.0000  0.0000  0.0000  0.0000  0.0000  0.0000  0.0003  0.0000
   8. Al 1 (py)     0.0011  0.0000  0.0000  0.0000  0.0000  0.0003  0.0000  0.0000
   9. Al 1 (pz)     0.0000  0.0000 -0.0001  0.0000  0.0000  0.0000  0.0000  0.0000
  10. Al 1 (s)      0.0000 -0.0014  0.0000  0.0000  0.0000  0.0000  0.0000  0.0000
  11. Al 1 (px)     0.0000  0.0000  0.0000  0.0000  0.0000  0.0000  0.0029  0.0003
  12. Al 1 (py)    -0.0002  0.0000  0.0000  0.0000  0.0000  0.0030  0.0000  0.0000
  13. Al 1 (pz)     0.0000  0.0000  0.0022  0.0000  0.0000  0.0000  0.0000  0.0000
  14. Al 1 (d5)     0.0000 -0.0010  0.0000  0.0000  0.0000  0.0000  0.0000  0.0000
  15. Al 1 (d2)     0.0000  0.0000  0.0000 -0.0001  0.0000  0.0000  0.0000  0.0000
  16. Al 1 (d3)     0.0000  0.0000  0.0000  0.0000 -0.0001  0.0000  0.0000  0.0000
  17. Al 1 (d4)    -0.0016  0.0000  0.0000  0.0000  0.0000 -0.0003  0.0000  0.0000
  18. Al 1 (d1)     0.0000  0.0000  0.0000  0.0000  0.0000  0.0000 -0.0003  0.0000
  19. Cl 2 (s)     -0.0008 -0.0006  0.0000  0.0000  0.0000  0.0000  0.0000  0.0000
  20. Cl 2 (s)      0.0030  0.0021  0.0000  0.0000  0.0000  0.0000  0.0000  0.0000
  21. Cl 2 (px)     0.0000  0.0000  0.0000  0.0000  0.0000  0.0000  0.7396  0.6632
  22. Cl 2 (py)     0.8097  0.5748  0.0000  0.0000  0.0000 -0.0021  0.0000  0.0000
  23. Cl 2 (pz)     0.0000  0.0000  0.5708  0.0000  0.8130  0.0000  0.0000  0.0000
  24. Cl 2 (s)     -0.0012 -0.0008  0.0000  0.0000  0.0000  0.0006  0.0000  0.0000
  25. Cl 2 (px)     0.0000  0.0000  0.0000  0.0000  0.0000  0.0000  0.0156  0.0140
  26. Cl 2 (py)     0.0184  0.0127  0.0000  0.0000  0.0000  0.0001  0.0000  0.0000
  27. Cl 2 (pz)     0.0000  0.0000  0.0122  0.0000  0.0171  0.0000  0.0000  0.0000
  28. Cl 2 (s)      0.0001  0.0006  0.0000  0.0000  0.0000 -0.0023  0.0000  0.0000
  29. Cl 2 (px)     0.0000  0.0000  0.0000  0.0000  0.0000  0.0000 -0.0043 -0.0036
  30. Cl 2 (py)    -0.0041 -0.0030  0.0000  0.0000  0.0000  0.0002  0.0000  0.0000
  31. Cl 2 (pz)     0.0000  0.0000 -0.0035  0.0000 -0.0039  0.0000  0.0000  0.0000
  32. Cl 2 (d5)     0.0003  0.0002  0.0000  0.0000  0.0000  0.0000  0.0000  0.0000
  33. Cl 2 (d2)     0.0000  0.0000  0.0000  0.0000  0.0000  0.0000  0.0000  0.0000
  34. Cl 2 (d3)     0.0000  0.0000 -0.0001  0.0000 -0.0002  0.0000  0.0000  0.0000
  35. Cl 2 (d4)     0.0006  0.0003  0.0000  0.0000  0.0000  0.0000  0.0000  0.0000
  36. Cl 2 (d1)     0.0000  0.0000  0.0000  0.0000  0.0000  0.0000 -0.0002 -0.0001
  37. Cl 3 (s)      0.0004 -0.0006  0.0000  0.0000  0.0000  0.0000  0.0000  0.0000
  38. Cl 3 (s)     -0.0015  0.0021  0.0000  0.0000  0.0000  0.0000  0.0000  0.0000
  39. Cl 3 (px)    -0.3511  0.4959  0.0000  0.0000  0.0000  0.3521  0.2329 -0.2617
  40. Cl 3 (py)     0.2047 -0.2863  0.0000  0.0000  0.0000  0.6078  0.4070 -0.4528
  41. Cl 3 (pz)     0.0000  0.0000  0.5749  0.7024 -0.4036  0.0000  0.0000  0.0000
  42. Cl 3 (s)      0.0006 -0.0008  0.0000  0.0000  0.0000 -0.0003  0.0005  0.0001
  43. Cl 3 (px)    -0.0079  0.0110  0.0000  0.0000  0.0000  0.0074  0.0050 -0.0055
  44. Cl 3 (py)     0.0048 -0.0063  0.0000  0.0000  0.0000  0.0129  0.0085 -0.0096
  45. Cl 3 (pz)     0.0000  0.0000  0.0123  0.0147 -0.0085  0.0000  0.0000  0.0000
  46. Cl 3 (s)      0.0000  0.0006  0.0000  0.0000  0.0000  0.0012 -0.0020 -0.0002
  47. Cl 3 (px)     0.0017 -0.0026  0.0000  0.0000  0.0000 -0.0021 -0.0012  0.0014
  48. Cl 3 (py)    -0.0012  0.0015  0.0000  0.0000  0.0000 -0.0035 -0.0024  0.0024
  49. Cl 3 (pz)     0.0000  0.0000 -0.0035 -0.0034  0.0019  0.0000  0.0000  0.0000
  50. Cl 3 (d5)    -0.0002  0.0002  0.0000  0.0000  0.0000  0.0000  0.0000  0.0000
  51. Cl 3 (d2)     0.0000  0.0000 -0.0001 -0.0002  0.0001  0.0000  0.0000  0.0000
  52. Cl 3 (d3)     0.0000  0.0000  0.0001  0.0001  0.0000  0.0000  0.0000  0.0000
  53. Cl 3 (d4)     0.0001 -0.0001  0.0000  0.0000  0.0000 -0.0001 -0.0001  0.0001
  54. Cl 3 (d1)    -0.0003  0.0002  0.0000  0.0000  0.0000 -0.0001  0.0000  0.0001
  55. Cl 4 (s)      0.0004 -0.0006  0.0000  0.0000  0.0000  0.0000  0.0000  0.0000
  56. Cl 4 (s)     -0.0015  0.0021  0.0000  0.0000  0.0000  0.0000  0.0000  0.0000
  57. Cl 4 (px)     0.3511 -0.4959  0.0000  0.0000  0.0000 -0.3521  0.2329 -0.2617
  58. Cl 4 (py)     0.2047 -0.2863  0.0000  0.0000  0.0000  0.6078 -0.4070  0.4528
  59. Cl 4 (pz)     0.0000  0.0000  0.5749 -0.7024 -0.4036  0.0000  0.0000  0.0000
  60. Cl 4 (s)      0.0006 -0.0008  0.0000  0.0000  0.0000 -0.0003 -0.0005 -0.0001
  61. Cl 4 (px)     0.0079 -0.0110  0.0000  0.0000  0.0000 -0.0074  0.0050 -0.0055
  62. Cl 4 (py)     0.0048 -0.0063  0.0000  0.0000  0.0000  0.0129 -0.0085  0.0096
  63. Cl 4 (pz)     0.0000  0.0000  0.0123 -0.0147 -0.0085  0.0000  0.0000  0.0000
  64. Cl 4 (s)      0.0000  0.0006  0.0000  0.0000  0.0000  0.0012  0.0020  0.0002
  65. Cl 4 (px)    -0.0017  0.0026  0.0000  0.0000  0.0000  0.0021 -0.0012  0.0014
  66. Cl 4 (py)    -0.0012  0.0015  0.0000  0.0000  0.0000 -0.0035  0.0024 -0.0024
  67. Cl 4 (pz)     0.0000  0.0000 -0.0035  0.0034  0.0019  0.0000  0.0000  0.0000
  68. Cl 4 (d5)    -0.0002  0.0002  0.0000  0.0000  0.0000  0.0000  0.0000  0.0000
  69. Cl 4 (d2)     0.0000  0.0000  0.0001 -0.0002 -0.0001  0.0000  0.0000  0.0000
  70. Cl 4 (d3)     0.0000  0.0000  0.0001 -0.0001  0.0000  0.0000  0.0000  0.0000
  71. Cl 4 (d4)     0.0001 -0.0001  0.0000  0.0000  0.0000 -0.0001  0.0001 -0.0001
  72. Cl 4 (d1)     0.0003 -0.0002  0.0000  0.0000  0.0000  0.0001  0.0000  0.0001

           AO         17      18      19      20      21      22      23      24
      ------------ ------- ------- ------- ------- ------- ------- ------- -------
   1. Al 1 (s)     -0.2630  0.0000  0.0000  0.0000  0.0186  0.0000  0.0000  0.0382
   2. Al 1 (s)      1.0296  0.0000  0.0000  0.0000 -0.0905  0.0000  0.0000 -0.1823
   3. Al 1 (px)     0.0000  0.0000  0.9947  0.0000  0.0000 -0.0620  0.0000  0.0000
   4. Al 1 (py)     0.0000  0.0000  0.0000  0.9947  0.0000  0.0000 -0.0620  0.0000
   5. Al 1 (pz)     0.0000  0.9952  0.0000  0.0000  0.0000  0.0000  0.0000  0.0000
   6. Al 1 (s)      0.0091  0.0000  0.0000  0.0000  0.1657  0.0000  0.0000  0.4414
   7. Al 1 (px)     0.0000  0.0000  0.0221  0.0000  0.0000  0.1122  0.0000  0.0000
   8. Al 1 (py)     0.0000  0.0000  0.0000  0.0221  0.0000  0.0000  0.1122  0.0000
   9. Al 1 (pz)     0.0000  0.0195  0.0000  0.0000  0.0000  0.0000  0.0000  0.0000
  10. Al 1 (s)     -0.0022  0.0000  0.0000  0.0000 -0.0295  0.0000  0.0000  0.0027
  11. Al 1 (px)     0.0000  0.0000 -0.0034  0.0000  0.0000 -0.0226  0.0000  0.0000
  12. Al 1 (py)     0.0000  0.0000  0.0000 -0.0034  0.0000  0.0000 -0.0226  0.0000
  13. Al 1 (pz)     0.0000 -0.0052  0.0000  0.0000  0.0000  0.0000  0.0000  0.0000
  14. Al 1 (d5)     0.0001  0.0000  0.0000  0.0000 -0.0279  0.0000  0.0000 -0.0461
  15. Al 1 (d2)     0.0000  0.0000  0.0000  0.0000  0.0000  0.0000  0.0000  0.0000
  16. Al 1 (d3)     0.0000  0.0000  0.0000  0.0000  0.0000  0.0000  0.0000  0.0000
  17. Al 1 (d4)     0.0000  0.0000  0.0000 -0.0015  0.0000  0.0000 -0.0414  0.0000
  18. Al 1 (d1)     0.0000  0.0000 -0.0015  0.0000  0.0000 -0.0414  0.0000  0.0000
  19. Cl 2 (s)      0.0001  0.0000  0.0000  0.0004  0.0450  0.0000  0.0658 -0.0135
  20. Cl 2 (s)     -0.0004  0.0000  0.0000 -0.0018 -0.2064  0.0000 -0.3020  0.0620
  21. Cl 2 (px)     0.0000  0.0000 -0.0002  0.0000  0.0000 -0.0019  0.0000  0.0000
  22. Cl 2 (py)     0.0005  0.0000  0.0000  0.0017  0.0185  0.0000  0.0188  0.1317
  23. Cl 2 (pz)     0.0000 -0.0002  0.0000  0.0000  0.0000  0.0000  0.0000  0.0000
  24. Cl 2 (s)      0.0004  0.0000  0.0000  0.0027  0.4025  0.0000  0.5901 -0.1307
  25. Cl 2 (px)     0.0000  0.0000  0.0005  0.0000  0.0000  0.0043  0.0000  0.0000
  26. Cl 2 (py)    -0.0008  0.0000  0.0000 -0.0033 -0.0425  0.0000 -0.0403 -0.3336
  27. Cl 2 (pz)     0.0000  0.0003  0.0000  0.0000  0.0000  0.0000  0.0000  0.0000
  28. Cl 2 (s)      0.0001  0.0000  0.0000 -0.0024  0.1845  0.0000  0.2657 -0.1072
  29. Cl 2 (px)     0.0000  0.0000 -0.0006  0.0000  0.0000  0.0010  0.0000  0.0000
  30. Cl 2 (py)     0.0003  0.0000  0.0000  0.0029 -0.0084  0.0000 -0.0022 -0.1223
  31. Cl 2 (pz)     0.0000 -0.0001  0.0000  0.0000  0.0000  0.0000  0.0000  0.0000
  32. Cl 2 (d5)    -0.0002  0.0000  0.0000 -0.0008 -0.0048  0.0000 -0.0044 -0.0121
  33. Cl 2 (d2)     0.0000  0.0000  0.0000  0.0000  0.0000  0.0000  0.0000  0.0000
  34. Cl 2 (d3)     0.0000 -0.0001  0.0000  0.0000  0.0000  0.0000  0.0000  0.0000
  35. Cl 2 (d4)    -0.0004  0.0000  0.0000 -0.0014 -0.0088  0.0000 -0.0087 -0.0210
  36. Cl 2 (d1)     0.0000  0.0000 -0.0001  0.0000  0.0000 -0.0011  0.0000  0.0000
  37. Cl 3 (s)      0.0001  0.0000  0.0003 -0.0002  0.0450  0.0570 -0.0329 -0.0135
  38. Cl 3 (s)     -0.0004  0.0000 -0.0015  0.0009 -0.2064 -0.2615  0.1510  0.0620
  39. Cl 3 (px)     0.0004  0.0000  0.0012 -0.0009  0.0160  0.0136 -0.0089  0.1141
  40. Cl 3 (py)    -0.0002  0.0000 -0.0009  0.0003 -0.0093 -0.0089  0.0033 -0.0659
  41. Cl 3 (pz)     0.0000 -0.0002  0.0000  0.0000  0.0000  0.0000  0.0000  0.0000
  42. Cl 3 (s)      0.0004  0.0000  0.0023 -0.0013  0.4025  0.5111 -0.2951 -0.1307
  43. Cl 3 (px)    -0.0007  0.0000 -0.0024  0.0016 -0.0368 -0.0292  0.0193 -0.2889
  44. Cl 3 (py)     0.0004  0.0000  0.0016 -0.0005  0.0212  0.0193 -0.0069  0.1668
  45. Cl 3 (pz)     0.0000  0.0003  0.0000  0.0000  0.0000  0.0000  0.0000  0.0000
  46. Cl 3 (s)      0.0001  0.0000 -0.0021  0.0012  0.1845  0.2301 -0.1329 -0.1072
  47. Cl 3 (px)     0.0002  0.0000  0.0020 -0.0015 -0.0073 -0.0014  0.0014 -0.1059
  48. Cl 3 (py)    -0.0001  0.0000 -0.0015  0.0002  0.0042  0.0014  0.0002  0.0611
  49. Cl 3 (pz)     0.0000 -0.0001  0.0000  0.0000  0.0000  0.0000  0.0000  0.0000
  50. Cl 3 (d5)    -0.0002  0.0000 -0.0007  0.0004 -0.0048 -0.0038  0.0022 -0.0121
  51. Cl 3 (d2)     0.0000 -0.0001  0.0000  0.0000  0.0000  0.0000  0.0000  0.0000
  52. Cl 3 (d3)     0.0000  0.0001  0.0000  0.0000  0.0000  0.0000  0.0000  0.0000
  53. Cl 3 (d4)     0.0002  0.0000  0.0005 -0.0004  0.0044  0.0033 -0.0030  0.0105
  54. Cl 3 (d1)    -0.0003  0.0000 -0.0011  0.0005 -0.0076 -0.0068  0.0033 -0.0181
  55. Cl 4 (s)      0.0001  0.0000 -0.0003 -0.0002  0.0450 -0.0570 -0.0329 -0.0135
  56. Cl 4 (s)     -0.0004  0.0000  0.0015  0.0009 -0.2064  0.2615  0.1510  0.0620
  57. Cl 4 (px)    -0.0004  0.0000  0.0012  0.0009 -0.0160  0.0136  0.0089 -0.1141
  58. Cl 4 (py)    -0.0002  0.0000  0.0009  0.0003 -0.0093  0.0089  0.0033 -0.0659
  59. Cl 4 (pz)     0.0000 -0.0002  0.0000  0.0000  0.0000  0.0000  0.0000  0.0000
  60. Cl 4 (s)      0.0004  0.0000 -0.0023 -0.0013  0.4025 -0.5111 -0.2951 -0.1307
  61. Cl 4 (px)     0.0007  0.0000 -0.0024 -0.0016  0.0368 -0.0292 -0.0193  0.2889
  62. Cl 4 (py)     0.0004  0.0000 -0.0016 -0.0005  0.0212 -0.0193 -0.0069  0.1668
  63. Cl 4 (pz)     0.0000  0.0003  0.0000  0.0000  0.0000  0.0000  0.0000  0.0000
  64. Cl 4 (s)      0.0001  0.0000  0.0021  0.0012  0.1845 -0.2301 -0.1329 -0.1072
  65. Cl 4 (px)    -0.0002  0.0000  0.0020  0.0015  0.0073 -0.0014 -0.0014  0.1059
  66. Cl 4 (py)    -0.0001  0.0000  0.0015  0.0002  0.0042 -0.0014  0.0002  0.0611
  67. Cl 4 (pz)     0.0000 -0.0001  0.0000  0.0000  0.0000  0.0000  0.0000  0.0000
  68. Cl 4 (d5)    -0.0002  0.0000  0.0007  0.0004 -0.0048  0.0038  0.0022 -0.0121
  69. Cl 4 (d2)     0.0000  0.0001  0.0000  0.0000  0.0000  0.0000  0.0000  0.0000
  70. Cl 4 (d3)     0.0000  0.0001  0.0000  0.0000  0.0000  0.0000  0.0000  0.0000
  71. Cl 4 (d4)     0.0002  0.0000 -0.0005 -0.0004  0.0044 -0.0033 -0.0030  0.0105
  72. Cl 4 (d1)     0.0003  0.0000 -0.0011 -0.0005  0.0076 -0.0068 -0.0033  0.0181

           AO         25      26      27      28      29      30      31      32
      ------------ ------- ------- ------- ------- ------- ------- ------- -------
   1. Al 1 (s)      0.0000  0.0000  0.0000  0.0000  0.0000  0.0000  0.0000  0.0000
   2. Al 1 (s)      0.0000  0.0000  0.0000  0.0000  0.0000  0.0000  0.0000  0.0000
   3. Al 1 (px)    -0.1271  0.0000  0.0000  0.0000  0.0218  0.0000  0.0000  0.0000
   4. Al 1 (py)     0.0000  0.1271  0.0000  0.0218  0.0000  0.0000  0.0000  0.0000
   5. Al 1 (pz)     0.0000  0.0000 -0.0708  0.0000  0.0000  0.0000  0.0000  0.0000
   6. Al 1 (s)      0.0000  0.0000  0.0000  0.0000  0.0000  0.0000  0.0000  0.0000
   7. Al 1 (px)     0.3242  0.0000  0.0000  0.0000 -0.0581  0.0000  0.0000  0.0000
   8. Al 1 (py)     0.0000 -0.3242  0.0000 -0.0581  0.0000  0.0000  0.0000  0.0000
   9. Al 1 (pz)     0.0000  0.0000  0.1694  0.0000  0.0000  0.0000  0.0000  0.0000
  10. Al 1 (s)      0.0000  0.0000  0.0000  0.0000  0.0000  0.0000  0.0000  0.0000
  11. Al 1 (px)    -0.0118  0.0000  0.0000  0.0000  0.0587  0.0000  0.0000  0.0000
  12. Al 1 (py)     0.0000  0.0118  0.0000  0.0587  0.0000  0.0000  0.0000  0.0000
  13. Al 1 (pz)     0.0000  0.0000  0.0389  0.0000  0.0000  0.0000  0.0000  0.0000
  14. Al 1 (d5)     0.0000  0.0000  0.0000  0.0000  0.0000  0.0000  0.0000  0.0000
  15. Al 1 (d2)     0.0000  0.0000  0.0000  0.0000  0.0000  0.0680  0.0000  0.0000
  16. Al 1 (d3)     0.0000  0.0000  0.0000  0.0000  0.0000  0.0000  0.0680  0.0000
  17. Al 1 (d4)     0.0000  0.0539  0.0000  0.1005  0.0000  0.0000  0.0000  0.0000
  18. Al 1 (d1)    -0.0539  0.0000  0.0000  0.0000  0.1005  0.0000  0.0000  0.0000
  19. Cl 2 (s)      0.0000  0.0102  0.0000  0.0019  0.0000  0.0000  0.0000  0.0000
  20. Cl 2 (s)      0.0000 -0.0478  0.0000 -0.0078  0.0000  0.0000  0.0000  0.0000
  21. Cl 2 (px)    -0.0886  0.0000  0.0000  0.0000 -0.2008  0.0000  0.0000 -0.1643
  22. Cl 2 (py)     0.0000 -0.1913  0.0000 -0.1004  0.0000  0.0000  0.0000  0.0000
  23. Cl 2 (pz)     0.0000  0.0000 -0.1504  0.0000  0.0000  0.0000 -0.2243  0.0000
  24. Cl 2 (s)      0.0000  0.0987  0.0000  0.0246  0.0000  0.0000  0.0000  0.0000
  25. Cl 2 (px)     0.2274  0.0000  0.0000  0.0000  0.5189  0.0000  0.0000  0.4253
  26. Cl 2 (py)     0.0000  0.4858  0.0000  0.2552  0.0000  0.0000  0.0000  0.0000
  27. Cl 2 (pz)     0.0000  0.0000  0.3873  0.0000  0.0000  0.0000  0.5770  0.0000
  28. Cl 2 (s)      0.0000  0.1306  0.0000 -0.0003  0.0000  0.0000  0.0000  0.0000
  29. Cl 2 (px)     0.1123  0.0000  0.0000  0.0000  0.2851  0.0000  0.0000  0.2468
  30. Cl 2 (py)     0.0000  0.1807  0.0000  0.1180  0.0000  0.0000  0.0000  0.0000
  31. Cl 2 (pz)     0.0000  0.0000  0.2070  0.0000  0.0000  0.0000  0.3395  0.0000
  32. Cl 2 (d5)     0.0000  0.0134  0.0000  0.0043  0.0000  0.0000  0.0000  0.0000
  33. Cl 2 (d2)     0.0000  0.0000  0.0000  0.0000  0.0000  0.0013  0.0000  0.0000
  34. Cl 2 (d3)     0.0000  0.0000 -0.0176  0.0000  0.0000  0.0000 -0.0207  0.0000
  35. Cl 2 (d4)     0.0000  0.0241  0.0000  0.0109  0.0000  0.0000  0.0000  0.0000
  36. Cl 2 (d1)    -0.0126  0.0000  0.0000  0.0000 -0.0178  0.0000  0.0000 -0.0115
  37. Cl 3 (s)     -0.0089 -0.0051  0.0000 -0.0010  0.0017  0.0000  0.0000  0.0000
  38. Cl 3 (s)      0.0414  0.0239  0.0000  0.0039 -0.0068  0.0000  0.0000  0.0000
  39. Cl 3 (px)     0.1214  0.1212  0.0000 -0.0435 -0.1255  0.0000  0.0000  0.0822
  40. Cl 3 (py)    -0.1212  0.0186  0.0000 -0.1757 -0.0435  0.0000  0.0000  0.1423
  41. Cl 3 (pz)     0.0000  0.0000 -0.1504  0.0000  0.0000 -0.1943  0.1122  0.0000
  42. Cl 3 (s)     -0.0854 -0.0493  0.0000 -0.0123  0.0213  0.0000  0.0000  0.0000
  43. Cl 3 (px)    -0.3075 -0.3089  0.0000  0.1142  0.3211  0.0000  0.0000 -0.2126
  44. Cl 3 (py)     0.3089 -0.0491  0.0000  0.4530  0.1142  0.0000  0.0000 -0.3683
  45. Cl 3 (pz)     0.0000  0.0000  0.3873  0.0000  0.0000  0.4997 -0.2885  0.0000
  46. Cl 3 (s)     -0.1131 -0.0653  0.0000  0.0002 -0.0003  0.0000  0.0000  0.0000
  47. Cl 3 (px)    -0.1074 -0.1269  0.0000  0.0724  0.1597  0.0000  0.0000 -0.1234
  48. Cl 3 (py)     0.1269 -0.0390  0.0000  0.2433  0.0724  0.0000  0.0000 -0.2137
  49. Cl 3 (pz)     0.0000  0.0000  0.2070  0.0000  0.0000  0.2940 -0.1698  0.0000
  50. Cl 3 (d5)    -0.0116 -0.0067  0.0000 -0.0021  0.0037  0.0000  0.0000  0.0000
  51. Cl 3 (d2)     0.0000  0.0000 -0.0153  0.0000  0.0000 -0.0152  0.0096  0.0000
  52. Cl 3 (d3)     0.0000  0.0000  0.0088  0.0000  0.0000  0.0096 -0.0042  0.0000
  53. Cl 3 (d4)     0.0050  0.0155  0.0000 -0.0106 -0.0124  0.0000  0.0000  0.0100
  54. Cl 3 (d1)    -0.0212 -0.0050  0.0000 -0.0124  0.0037  0.0000  0.0000  0.0058
  55. Cl 4 (s)      0.0089 -0.0051  0.0000 -0.0010 -0.0017  0.0000  0.0000  0.0000
  56. Cl 4 (s)     -0.0414  0.0239  0.0000  0.0039  0.0068  0.0000  0.0000  0.0000
  57. Cl 4 (px)     0.1214 -0.1212  0.0000  0.0435 -0.1255  0.0000  0.0000  0.0822
  58. Cl 4 (py)     0.1212  0.0186  0.0000 -0.1757  0.0435  0.0000  0.0000 -0.1423
  59. Cl 4 (pz)     0.0000  0.0000 -0.1504  0.0000  0.0000  0.1943  0.1122  0.0000
  60. Cl 4 (s)      0.0854 -0.0493  0.0000 -0.0123 -0.0213  0.0000  0.0000  0.0000
  61. Cl 4 (px)    -0.3075  0.3089  0.0000 -0.1142  0.3211  0.0000  0.0000 -0.2126
  62. Cl 4 (py)    -0.3089 -0.0491  0.0000  0.4530 -0.1142  0.0000  0.0000  0.3683
  63. Cl 4 (pz)     0.0000  0.0000  0.3873  0.0000  0.0000 -0.4997 -0.2885  0.0000
  64. Cl 4 (s)      0.1131 -0.0653  0.0000  0.0002  0.0003  0.0000  0.0000  0.0000
  65. Cl 4 (px)    -0.1074  0.1269  0.0000 -0.0724  0.1597  0.0000  0.0000 -0.1234
  66. Cl 4 (py)    -0.1269 -0.0390  0.0000  0.2433 -0.0724  0.0000  0.0000  0.2137
  67. Cl 4 (pz)     0.0000  0.0000  0.2070  0.0000  0.0000 -0.2940 -0.1698  0.0000
  68. Cl 4 (d5)     0.0116 -0.0067  0.0000 -0.0021 -0.0037  0.0000  0.0000  0.0000
  69. Cl 4 (d2)     0.0000  0.0000  0.0153  0.0000  0.0000 -0.0152 -0.0096  0.0000
  70. Cl 4 (d3)     0.0000  0.0000  0.0088  0.0000  0.0000 -0.0096 -0.0042  0.0000
  71. Cl 4 (d4)    -0.0050  0.0155  0.0000 -0.0106  0.0124  0.0000  0.0000 -0.0100
  72. Cl 4 (d1)    -0.0212  0.0050  0.0000  0.0124  0.0037  0.0000  0.0000  0.0058

           AO         33      34      35      36      37      38      39      40
      ------------ ------- ------- ------- ------- ------- ------- ------- -------
   1. Al 1 (s)      0.0000  0.0272  0.0000  0.0000  0.0654  0.0000  0.0000  0.0000
   2. Al 1 (s)      0.0000 -0.1842  0.0000  0.0000 -0.0963  0.0000  0.0000  0.0000
   3. Al 1 (px)     0.0000  0.0000  0.0000 -0.0520  0.0000  0.0000  0.0000 -0.2859
   4. Al 1 (py)     0.0000  0.0000 -0.0520  0.0000  0.0000  0.0000 -0.2859  0.0000
   5. Al 1 (pz)    -0.1581  0.0000  0.0000  0.0000  0.0000 -0.2611  0.0000  0.0000
   6. Al 1 (s)      0.0000  0.1418  0.0000  0.0000  1.9880  0.0000  0.0000  0.0000
   7. Al 1 (px)     0.0000  0.0000  0.0000  0.1219  0.0000  0.0000  0.0000  1.5716
   8. Al 1 (py)     0.0000  0.0000  0.1219  0.0000  0.0000  0.0000  1.5716  0.0000
   9. Al 1 (pz)     0.4508  0.0000  0.0000  0.0000  0.0000  1.2772  0.0000  0.0000
  10. Al 1 (s)      0.0000  1.7703  0.0000  0.0000 -1.6950  0.0000  0.0000  0.0000
  11. Al 1 (px)     0.0000  0.0000  0.0000  1.8267  0.0000  0.0000  0.0000 -0.8205
  12. Al 1 (py)     0.0000  0.0000  1.8267  0.0000  0.0000  0.0000 -0.8205  0.0000
  13. Al 1 (pz)     0.8653  0.0000  0.0000  0.0000  0.0000 -1.2465  0.0000  0.0000
  14. Al 1 (d5)     0.0000  0.0881  0.0000  0.0000  0.0562  0.0000  0.0000  0.0000
  15. Al 1 (d2)     0.0000  0.0000  0.0000  0.0000  0.0000  0.0000  0.0000  0.0000
  16. Al 1 (d3)     0.0000  0.0000  0.0000  0.0000  0.0000  0.0000  0.0000  0.0000
  17. Al 1 (d4)     0.0000  0.0000  0.0533  0.0000  0.0000  0.0000  0.1814  0.0000
  18. Al 1 (d1)     0.0000  0.0000  0.0000  0.0533  0.0000  0.0000  0.0000  0.1814
  19. Cl 2 (s)      0.0000 -0.0145 -0.0156  0.0000 -0.0045  0.0000 -0.0102  0.0000
  20. Cl 2 (s)      0.0000  0.0755  0.0878  0.0000  0.0154  0.0000  0.0443  0.0000
  21. Cl 2 (px)     0.0000  0.0000  0.0000  0.0707  0.0000  0.0000  0.0000  0.0259
  22. Cl 2 (py)     0.0000 -0.0687 -0.0164  0.0000 -0.0700  0.0000 -0.0660  0.0000
  23. Cl 2 (pz)     0.0695  0.0000  0.0000  0.0000  0.0000  0.0009  0.0000  0.0000
  24. Cl 2 (s)      0.0000 -0.1172 -0.1062  0.0000 -0.0656  0.0000 -0.1172  0.0000
  25. Cl 2 (px)     0.0000  0.0000  0.0000 -0.1803  0.0000  0.0000  0.0000 -0.0690
  26. Cl 2 (py)     0.0000  0.1748  0.0345  0.0000  0.1928  0.0000  0.1645  0.0000
  27. Cl 2 (pz)    -0.1789  0.0000  0.0000  0.0000  0.0000 -0.0022  0.0000  0.0000
  28. Cl 2 (s)      0.0000 -0.5157 -0.9440  0.0000  0.1883  0.0000 -0.0619  0.0000
  29. Cl 2 (px)     0.0000  0.0000  0.0000 -0.3916  0.0000  0.0000  0.0000 -0.0719
  30. Cl 2 (py)     0.0000  0.3422  0.2609  0.0000  0.1938  0.0000  0.5572  0.0000
  31. Cl 2 (pz)    -0.2761  0.0000  0.0000  0.0000  0.0000  0.0581  0.0000  0.0000
  32. Cl 2 (d5)     0.0000  0.0033  0.0075  0.0000 -0.0361  0.0000 -0.0624  0.0000
  33. Cl 2 (d2)     0.0000  0.0000  0.0000  0.0000  0.0000  0.0000  0.0000  0.0000
  34. Cl 2 (d3)    -0.0361  0.0000  0.0000  0.0000  0.0000 -0.0485  0.0000  0.0000
  35. Cl 2 (d4)     0.0000 -0.0047  0.0131  0.0000 -0.0660  0.0000 -0.0971  0.0000
  36. Cl 2 (d1)     0.0000  0.0000  0.0000 -0.0416  0.0000  0.0000  0.0000 -0.1038
  37. Cl 3 (s)      0.0000 -0.0145  0.0078 -0.0135 -0.0045  0.0000  0.0051 -0.0088
  38. Cl 3 (s)      0.0000  0.0755 -0.0439  0.0760  0.0154  0.0000 -0.0222  0.0384
  39. Cl 3 (px)     0.0000 -0.0595  0.0377  0.0054 -0.0606  0.0000  0.0398 -0.0430
  40. Cl 3 (py)     0.0000  0.0344  0.0490  0.0377  0.0350  0.0000  0.0029  0.0398
  41. Cl 3 (pz)     0.0695  0.0000  0.0000  0.0000  0.0000  0.0009  0.0000  0.0000
  42. Cl 3 (s)      0.0000 -0.1172  0.0531 -0.0920 -0.0656  0.0000  0.0586 -0.1015
  43. Cl 3 (px)     0.0000  0.1514 -0.0930 -0.0192  0.1670  0.0000 -0.1011  0.1062
  44. Cl 3 (py)     0.0000 -0.0874 -0.1266 -0.0930 -0.0964  0.0000 -0.0106 -0.1011
  45. Cl 3 (pz)    -0.1789  0.0000  0.0000  0.0000  0.0000 -0.0022  0.0000  0.0000
  46. Cl 3 (s)      0.0000 -0.5157  0.4720 -0.8175  0.1883  0.0000  0.0309 -0.0536
  47. Cl 3 (px)     0.0000  0.2963 -0.2825  0.0978  0.1678  0.0000 -0.2724  0.4000
  48. Cl 3 (py)     0.0000 -0.1711 -0.2285 -0.2825 -0.0969  0.0000  0.0854 -0.2724
  49. Cl 3 (pz)    -0.2761  0.0000  0.0000  0.0000  0.0000  0.0581  0.0000  0.0000
  50. Cl 3 (d5)     0.0000  0.0033 -0.0038  0.0065 -0.0361  0.0000  0.0312 -0.0540
  51. Cl 3 (d2)    -0.0313  0.0000  0.0000  0.0000  0.0000 -0.0420  0.0000  0.0000
  52. Cl 3 (d3)     0.0180  0.0000  0.0000  0.0000  0.0000  0.0243  0.0000  0.0000
  53. Cl 3 (d4)     0.0000  0.0023 -0.0279 -0.0237  0.0330  0.0000 -0.1021 -0.0029
  54. Cl 3 (d1)     0.0000 -0.0041 -0.0237 -0.0005 -0.0572  0.0000 -0.0029 -0.0988
  55. Cl 4 (s)      0.0000 -0.0145  0.0078  0.0135 -0.0045  0.0000  0.0051  0.0088
  56. Cl 4 (s)      0.0000  0.0755 -0.0439 -0.0760  0.0154  0.0000 -0.0222 -0.0384
  57. Cl 4 (px)     0.0000  0.0595 -0.0377  0.0054  0.0606  0.0000 -0.0398 -0.0430
  58. Cl 4 (py)     0.0000  0.0344  0.0490 -0.0377  0.0350  0.0000  0.0029 -0.0398
  59. Cl 4 (pz)     0.0695  0.0000  0.0000  0.0000  0.0000  0.0009  0.0000  0.0000
  60. Cl 4 (s)      0.0000 -0.1172  0.0531  0.0920 -0.0656  0.0000  0.0586  0.1015
  61. Cl 4 (px)     0.0000 -0.1514  0.0930 -0.0192 -0.1670  0.0000  0.1011  0.1062
  62. Cl 4 (py)     0.0000 -0.0874 -0.1266  0.0930 -0.0964  0.0000 -0.0106  0.1011
  63. Cl 4 (pz)    -0.1789  0.0000  0.0000  0.0000  0.0000 -0.0022  0.0000  0.0000
  64. Cl 4 (s)      0.0000 -0.5157  0.4720  0.8175  0.1883  0.0000  0.0309  0.0536
  65. Cl 4 (px)     0.0000 -0.2963  0.2825  0.0978 -0.1678  0.0000  0.2724  0.4000
  66. Cl 4 (py)     0.0000 -0.1711 -0.2285  0.2825 -0.0969  0.0000  0.0854  0.2724
  67. Cl 4 (pz)    -0.2761  0.0000  0.0000  0.0000  0.0000  0.0581  0.0000  0.0000
  68. Cl 4 (d5)     0.0000  0.0033 -0.0038 -0.0065 -0.0361  0.0000  0.0312  0.0540
  69. Cl 4 (d2)     0.0313  0.0000  0.0000  0.0000  0.0000  0.0420  0.0000  0.0000
  70. Cl 4 (d3)     0.0180  0.0000  0.0000  0.0000  0.0000  0.0243  0.0000  0.0000
  71. Cl 4 (d4)     0.0000  0.0023 -0.0279  0.0237  0.0330  0.0000 -0.1021  0.0029
  72. Cl 4 (d1)     0.0000  0.0041  0.0237 -0.0005  0.0572  0.0000  0.0029 -0.0988

           AO         41      42      43      44      45      46      47      48
      ------------ ------- ------- ------- ------- ------- ------- ------- -------
   1. Al 1 (s)      0.0000  0.0000  0.0038  0.0000  0.0000  0.0000  0.0000  0.0000
   2. Al 1 (s)      0.0000  0.0000  0.0914  0.0000  0.0000  0.0000  0.0000  0.0000
   3. Al 1 (px)    -0.0306  0.0000  0.0000  0.0000  0.0000  0.0362  0.0000  0.0000
   4. Al 1 (py)     0.0000 -0.0306  0.0000  0.0000  0.0000  0.0000  0.0362  0.0000
   5. Al 1 (pz)     0.0000  0.0000  0.0000  0.0000  0.0000  0.0000  0.0000  0.0000
   6. Al 1 (s)      0.0000  0.0000  0.6207  0.0000  0.0000  0.0000  0.0000  0.0000
   7. Al 1 (px)     0.5893  0.0000  0.0000  0.0000  0.0000 -0.3261  0.0000  0.0000
   8. Al 1 (py)     0.0000  0.5893  0.0000  0.0000  0.0000  0.0000 -0.3261  0.0000
   9. Al 1 (pz)     0.0000  0.0000  0.0000  0.0000  0.0000  0.0000  0.0000  0.0000
  10. Al 1 (s)      0.0000  0.0000  0.6295  0.0000  0.0000  0.0000  0.0000  0.0000
  11. Al 1 (px)     0.2422  0.0000  0.0000  0.0000  0.0000  0.0255  0.0000  0.0000
  12. Al 1 (py)     0.0000  0.2422  0.0000  0.0000  0.0000  0.0000  0.0255  0.0000
  13. Al 1 (pz)     0.0000  0.0000  0.0000  0.0000  0.0000  0.0000  0.0000  0.0000
  14. Al 1 (d5)     0.0000  0.0000 -0.5988  0.0000  0.0000  0.0000  0.0000  0.0000
  15. Al 1 (d2)     0.0000  0.0000  0.0000  0.8942  0.0000  0.0000  0.0000 -0.3163
  16. Al 1 (d3)     0.0000  0.0000  0.0000  0.0000  0.8942  0.0000  0.0000  0.0000
  17. Al 1 (d4)     0.0000 -0.6543  0.0000  0.0000  0.0000  0.0000  0.4161  0.0000
  18. Al 1 (d1)    -0.6543  0.0000  0.0000  0.0000  0.0000  0.4161  0.0000  0.0000
  19. Cl 2 (s)      0.0000 -0.0168 -0.0139  0.0000  0.0000  0.0000 -0.0290  0.0000
  20. Cl 2 (s)      0.0000  0.0770  0.0540  0.0000  0.0000  0.0000  0.0231  0.0000
  21. Cl 2 (px)    -0.0521  0.0000  0.0000  0.0000  0.0000 -0.1867  0.0000  0.0000
  22. Cl 2 (py)     0.0000  0.1176  0.1062  0.0000  0.0000  0.0000  0.0504  0.0000
  23. Cl 2 (pz)     0.0000  0.0000  0.0000  0.0000  0.0998  0.0000  0.0000  0.0000
  24. Cl 2 (s)      0.0000 -0.1937 -0.1918  0.0000  0.0000  0.0000 -0.7008  0.0000
  25. Cl 2 (px)     0.1738  0.0000  0.0000  0.0000  0.0000  0.7387  0.0000  0.0000
  26. Cl 2 (py)     0.0000 -0.4973 -0.4316  0.0000  0.0000  0.0000 -0.1635  0.0000
  27. Cl 2 (pz)     0.0000  0.0000  0.0000  0.0000 -0.3365  0.0000  0.0000  0.0000
  28. Cl 2 (s)      0.0000 -0.3887 -0.1927  0.0000  0.0000  0.0000  1.0188  0.0000
  29. Cl 2 (px)    -0.0853  0.0000  0.0000  0.0000  0.0000 -0.8468  0.0000  0.0000
  30. Cl 2 (py)     0.0000  1.1729  0.8275  0.0000  0.0000  0.0000 -0.2334  0.0000
  31. Cl 2 (pz)     0.0000  0.0000  0.0000  0.0000  0.0848  0.0000  0.0000  0.0000
  32. Cl 2 (d5)     0.0000 -0.0630 -0.0550  0.0000  0.0000  0.0000  0.0753  0.0000
  33. Cl 2 (d2)     0.0000  0.0000  0.0000  0.0531  0.0000  0.0000  0.0000 -0.0092
  34. Cl 2 (d3)     0.0000  0.0000  0.0000  0.0000 -0.2042  0.0000  0.0000  0.0000
  35. Cl 2 (d4)     0.0000 -0.1278 -0.0627  0.0000  0.0000  0.0000  0.1106  0.0000
  36. Cl 2 (d1)     0.1016  0.0000  0.0000  0.0000  0.0000 -0.0872  0.0000  0.0000
  37. Cl 3 (s)     -0.0146  0.0084 -0.0139  0.0000  0.0000 -0.0251  0.0145  0.0000
  38. Cl 3 (s)      0.0667 -0.0385  0.0540  0.0000  0.0000  0.0200 -0.0116  0.0000
  39. Cl 3 (px)     0.0752 -0.0735  0.0920  0.0000  0.0000 -0.0089 -0.1027  0.0000
  40. Cl 3 (py)    -0.0735 -0.0096 -0.0531  0.0000  0.0000 -0.1027 -0.1275  0.0000
  41. Cl 3 (pz)     0.0000  0.0000  0.0000  0.0864 -0.0499  0.0000  0.0000  0.1987
  42. Cl 3 (s)     -0.1677  0.0968 -0.1918  0.0000  0.0000 -0.6069  0.3504  0.0000
  43. Cl 3 (px)    -0.3295  0.2906 -0.3737  0.0000  0.0000  0.0621  0.3907  0.0000
  44. Cl 3 (py)     0.2906  0.0060  0.2158  0.0000  0.0000  0.3907  0.5132  0.0000
  45. Cl 3 (pz)     0.0000  0.0000  0.0000 -0.2914  0.1682  0.0000  0.0000 -0.7883
  46. Cl 3 (s)     -0.3367  0.1944 -0.1927  0.0000  0.0000  0.8823 -0.5094  0.0000
  47. Cl 3 (px)     0.8584 -0.5448  0.7166  0.0000  0.0000 -0.3868 -0.2656  0.0000
  48. Cl 3 (py)    -0.5448  0.2293 -0.4138  0.0000  0.0000 -0.2656 -0.6935  0.0000
  49. Cl 3 (pz)     0.0000  0.0000  0.0000  0.0734 -0.0424  0.0000  0.0000  0.9206
  50. Cl 3 (d5)    -0.0546  0.0315 -0.0550  0.0000  0.0000  0.0653 -0.0377  0.0000
  51. Cl 3 (d2)     0.0000  0.0000  0.0000 -0.1399  0.1114  0.0000  0.0000  0.0859
  52. Cl 3 (d3)     0.0000  0.0000  0.0000  0.1114 -0.0113  0.0000  0.0000 -0.0549
  53. Cl 3 (d4)     0.0993  0.0442  0.0313  0.0000  0.0000 -0.0856 -0.0378  0.0000
  54. Cl 3 (d1)    -0.0704  0.0993 -0.0543  0.0000  0.0000  0.0611 -0.0856  0.0000
  55. Cl 4 (s)      0.0146  0.0084 -0.0139  0.0000  0.0000  0.0251  0.0145  0.0000
  56. Cl 4 (s)     -0.0667 -0.0385  0.0540  0.0000  0.0000 -0.0200 -0.0116  0.0000
  57. Cl 4 (px)     0.0752  0.0735 -0.0920  0.0000  0.0000 -0.0089  0.1027  0.0000
  58. Cl 4 (py)     0.0735 -0.0096 -0.0531  0.0000  0.0000  0.1027 -0.1275  0.0000
  59. Cl 4 (pz)     0.0000  0.0000  0.0000 -0.0864 -0.0499  0.0000  0.0000 -0.1987
  60. Cl 4 (s)      0.1677  0.0968 -0.1918  0.0000  0.0000  0.6069  0.3504  0.0000
  61. Cl 4 (px)    -0.3295 -0.2906  0.3737  0.0000  0.0000  0.0621 -0.3907  0.0000
  62. Cl 4 (py)    -0.2906  0.0060  0.2158  0.0000  0.0000 -0.3907  0.5132  0.0000
  63. Cl 4 (pz)     0.0000  0.0000  0.0000  0.2914  0.1682  0.0000  0.0000  0.7883
  64. Cl 4 (s)      0.3367  0.1944 -0.1927  0.0000  0.0000 -0.8823 -0.5094  0.0000
  65. Cl 4 (px)     0.8584  0.5448 -0.7166  0.0000  0.0000 -0.3868  0.2656  0.0000
  66. Cl 4 (py)     0.5448  0.2293 -0.4138  0.0000  0.0000  0.2656 -0.6935  0.0000
  67. Cl 4 (pz)     0.0000  0.0000  0.0000 -0.0734 -0.0424  0.0000  0.0000 -0.9206
  68. Cl 4 (d5)     0.0546  0.0315 -0.0550  0.0000  0.0000 -0.0653 -0.0377  0.0000
  69. Cl 4 (d2)     0.0000  0.0000  0.0000 -0.1399 -0.1114  0.0000  0.0000  0.0859
  70. Cl 4 (d3)     0.0000  0.0000  0.0000 -0.1114 -0.0113  0.0000  0.0000  0.0549
  71. Cl 4 (d4)    -0.0993  0.0442  0.0313  0.0000  0.0000  0.0856 -0.0378  0.0000
  72. Cl 4 (d1)    -0.0704 -0.0993  0.0543  0.0000  0.0000  0.0611  0.0856  0.0000

           AO         49      50      51      52      53      54      55      56
      ------------ ------- ------- ------- ------- ------- ------- ------- -------
   1. Al 1 (s)      0.0000  0.0000  0.0000 -0.0004  0.0066  0.0000  0.0000  0.0000
   2. Al 1 (s)      0.0000  0.0000  0.0000 -0.0927 -0.0813  0.0000  0.0000  0.0000
   3. Al 1 (px)     0.0000  0.0000  0.0000  0.0000  0.0000  0.0000 -0.0349 -0.0795
   4. Al 1 (py)     0.0000  0.0000  0.0000  0.0000  0.0000  0.0349  0.0000  0.0000
   5. Al 1 (pz)     0.0000  0.0000 -0.0178  0.0000  0.0000  0.0000  0.0000  0.0000
   6. Al 1 (s)      0.0000  0.0000  0.0000 -0.5496 -0.0701  0.0000  0.0000  0.0000
   7. Al 1 (px)     0.0000  0.0000  0.0000  0.0000  0.0000  0.0000  0.4332 -0.0826
   8. Al 1 (py)     0.0000  0.0000  0.0000  0.0000  0.0000 -0.4332  0.0000  0.0000
   9. Al 1 (pz)     0.0000  0.0000  0.0083  0.0000  0.0000  0.0000  0.0000  0.0000
  10. Al 1 (s)      0.0000  0.0000  0.0000 -1.5334  1.4879  0.0000  0.0000  0.0000
  11. Al 1 (px)     0.0000  0.0000  0.0000  0.0000  0.0000  0.0000  1.6619 -0.4317
  12. Al 1 (py)     0.0000  0.0000  0.0000  0.0000  0.0000 -1.6619  0.0000  0.0000
  13. Al 1 (pz)     0.0000  0.0000 -0.7798  0.0000  0.0000  0.0000  0.0000  0.0000
  14. Al 1 (d5)     0.0000  0.0000  0.0000 -0.2832 -0.8201  0.0000  0.0000  0.0000
  15. Al 1 (d2)     0.0000  0.0000  0.0000  0.0000  0.0000  0.0000  0.0000  0.0000
  16. Al 1 (d3)    -0.3163  0.0000  0.0000  0.0000  0.0000  0.0000  0.0000  0.0000
  17. Al 1 (d4)     0.0000  0.0000  0.0000  0.0000  0.0000  0.3321  0.0000  0.0000
  18. Al 1 (d1)     0.0000  0.0000  0.0000  0.0000  0.0000  0.0000 -0.3321 -0.4585
  19. Cl 2 (s)      0.0000  0.0000  0.0000 -0.0413  0.0225 -0.0467  0.0000  0.0000
  20. Cl 2 (s)      0.0000  0.0000  0.0000  0.0365  0.0031  0.0129  0.0000  0.0000
  21. Cl 2 (px)     0.0000  0.1739  0.0000  0.0000  0.0000  0.0000 -0.1520 -0.0262
  22. Cl 2 (py)     0.0000  0.0000  0.0000 -0.0955 -0.1005  0.0800  0.0000  0.0000
  23. Cl 2 (pz)     0.2295  0.0000  0.1743  0.0000  0.0000  0.0000  0.0000  0.0000
  24. Cl 2 (s)      0.0000  0.0000  0.0000 -0.9943  0.6162 -1.2164  0.0000  0.0000
  25. Cl 2 (px)     0.0000 -0.6942  0.0000  0.0000  0.0000  0.0000  0.6325  0.0838
  26. Cl 2 (py)     0.0000  0.0000  0.0000  0.4045  0.3697 -0.2899  0.0000  0.0000
  27. Cl 2 (pz)    -0.9103  0.0000 -0.7055  0.0000  0.0000  0.0000  0.0000  0.0000
  28. Cl 2 (s)      0.0000  0.0000  0.0000  1.5790 -1.2428  2.4426  0.0000  0.0000
  29. Cl 2 (px)     0.0000  0.8062  0.0000  0.0000  0.0000  0.0000 -1.0297  0.0747
  30. Cl 2 (py)     0.0000  0.0000  0.0000 -0.7499  0.0343 -0.2088  0.0000  0.0000
  31. Cl 2 (pz)     1.0631  0.0000  0.9474  0.0000  0.0000  0.0000  0.0000  0.0000
  32. Cl 2 (d5)     0.0000  0.0000  0.0000 -0.0112 -0.1210  0.0576  0.0000  0.0000
  33. Cl 2 (d2)     0.0000  0.0000  0.0000  0.0000  0.0000  0.0000  0.0000  0.0000
  34. Cl 2 (d3)     0.1176  0.0000  0.0743  0.0000  0.0000  0.0000  0.0000  0.0000
  35. Cl 2 (d4)     0.0000  0.0000  0.0000  0.1039 -0.0916  0.1682  0.0000  0.0000
  36. Cl 2 (d1)     0.0000  0.0656  0.0000  0.0000  0.0000  0.0000 -0.0701  0.2546
  37. Cl 3 (s)      0.0000  0.0000  0.0000 -0.0413  0.0225  0.0233  0.0404 -0.0351
  38. Cl 3 (s)      0.0000  0.0000  0.0000  0.0365  0.0031 -0.0065 -0.0112  0.0497
  39. Cl 3 (px)     0.0000 -0.0870  0.0000 -0.0827 -0.0870  0.0312 -0.0980 -0.1621
  40. Cl 3 (py)     0.0000 -0.1506  0.0000  0.0477  0.0503  0.1340 -0.0312  0.0784
  41. Cl 3 (pz)    -0.1147  0.0000  0.1743  0.0000  0.0000  0.0000  0.0000  0.0000
  42. Cl 3 (s)      0.0000  0.0000  0.0000 -0.9943  0.6162  0.6082  1.0534 -0.7840
  43. Cl 3 (px)     0.0000  0.3471  0.0000  0.3503  0.3201 -0.1484  0.3756  0.6495
  44. Cl 3 (py)     0.0000  0.6012  0.0000 -0.2023 -0.1848 -0.5469  0.1484 -0.3266
  45. Cl 3 (pz)     0.4551  0.0000 -0.7055  0.0000  0.0000  0.0000  0.0000  0.0000
  46. Cl 3 (s)      0.0000  0.0000  0.0000  1.5790 -1.2428 -1.2213 -2.1154  0.9970
  47. Cl 3 (px)     0.0000 -0.4031  0.0000 -0.6494  0.0297  0.5363 -0.1008 -0.6652
  48. Cl 3 (py)     0.0000 -0.6982  0.0000  0.3749 -0.0172  0.7201 -0.5363  0.4272
  49. Cl 3 (pz)    -0.5315  0.0000  0.9474  0.0000  0.0000  0.0000  0.0000  0.0000
  50. Cl 3 (d5)     0.0000  0.0000  0.0000 -0.0112 -0.1210 -0.0288 -0.0499  0.0186
  51. Cl 3 (d2)    -0.0549  0.0000  0.0643  0.0000  0.0000  0.0000  0.0000  0.0000
  52. Cl 3 (d3)     0.0225  0.0000 -0.0371  0.0000  0.0000  0.0000  0.0000  0.0000
  53. Cl 3 (d4)     0.0000 -0.0568  0.0000 -0.0520  0.0458  0.0947  0.0425  0.1468
  54. Cl 3 (d1)     0.0000 -0.0328  0.0000  0.0900 -0.0793 -0.0425 -0.1437  0.0004
  55. Cl 4 (s)      0.0000  0.0000  0.0000 -0.0413  0.0225  0.0233 -0.0404  0.0351
  56. Cl 4 (s)      0.0000  0.0000  0.0000  0.0365  0.0031 -0.0065  0.0112 -0.0497
  57. Cl 4 (px)     0.0000 -0.0870  0.0000  0.0827  0.0870 -0.0312 -0.0980 -0.1621
  58. Cl 4 (py)     0.0000  0.1506  0.0000  0.0477  0.0503  0.1340  0.0312 -0.0784
  59. Cl 4 (pz)    -0.1147  0.0000  0.1743  0.0000  0.0000  0.0000  0.0000  0.0000
  60. Cl 4 (s)      0.0000  0.0000  0.0000 -0.9943  0.6162  0.6082 -1.0534  0.7840
  61. Cl 4 (px)     0.0000  0.3471  0.0000 -0.3503 -0.3201  0.1484  0.3756  0.6495
  62. Cl 4 (py)     0.0000 -0.6012  0.0000 -0.2023 -0.1848 -0.5469 -0.1484  0.3266
  63. Cl 4 (pz)     0.4551  0.0000 -0.7055  0.0000  0.0000  0.0000  0.0000  0.0000
  64. Cl 4 (s)      0.0000  0.0000  0.0000  1.5790 -1.2428 -1.2213  2.1154 -0.9970
  65. Cl 4 (px)     0.0000 -0.4031  0.0000  0.6494 -0.0297 -0.5363 -0.1008 -0.6652
  66. Cl 4 (py)     0.0000  0.6982  0.0000  0.3749 -0.0172  0.7201  0.5363 -0.4272
  67. Cl 4 (pz)    -0.5315  0.0000  0.9474  0.0000  0.0000  0.0000  0.0000  0.0000
  68. Cl 4 (d5)     0.0000  0.0000  0.0000 -0.0112 -0.1210 -0.0288  0.0499 -0.0186
  69. Cl 4 (d2)     0.0549  0.0000 -0.0643  0.0000  0.0000  0.0000  0.0000  0.0000
  70. Cl 4 (d3)     0.0225  0.0000 -0.0371  0.0000  0.0000  0.0000  0.0000  0.0000
  71. Cl 4 (d4)     0.0000  0.0568  0.0000 -0.0520  0.0458  0.0947 -0.0425 -0.1468
  72. Cl 4 (d1)     0.0000 -0.0328  0.0000 -0.0900  0.0793  0.0425 -0.1437  0.0004

           AO         57      58      59      60      61      62      63      64
      ------------ ------- ------- ------- ------- ------- ------- ------- -------
   1. Al 1 (s)      0.0000  0.0000  0.0000  0.0000  0.0000  0.0000  0.0000 -0.0019
   2. Al 1 (s)      0.0000  0.0000  0.0000  0.0000  0.0000  0.0000  0.0000 -0.0127
   3. Al 1 (px)     0.0000  0.0000  0.0000  0.0000  0.0000  0.0045  0.0000  0.0000
   4. Al 1 (py)    -0.0795  0.0000  0.0000  0.0000  0.0000  0.0000  0.0045  0.0000
   5. Al 1 (pz)     0.0000  0.0000  0.0000  0.0000  0.0000  0.0000  0.0000  0.0000
   6. Al 1 (s)      0.0000  0.0000  0.0000  0.0000  0.0000  0.0000  0.0000 -0.1405
   7. Al 1 (px)     0.0000  0.0000  0.0000  0.0000  0.0000  0.0038  0.0000  0.0000
   8. Al 1 (py)    -0.0826  0.0000  0.0000  0.0000  0.0000  0.0000  0.0038  0.0000
   9. Al 1 (pz)     0.0000  0.0000  0.0000  0.0000  0.0000  0.0000  0.0000  0.0000
  10. Al 1 (s)      0.0000  0.0000  0.0000  0.0000  0.0000  0.0000  0.0000 -0.0526
  11. Al 1 (px)     0.0000  0.0000  0.0000  0.0000  0.0000 -0.0786  0.0000  0.0000
  12. Al 1 (py)    -0.4317  0.0000  0.0000  0.0000  0.0000  0.0000 -0.0786  0.0000
  13. Al 1 (pz)     0.0000  0.0000  0.0000  0.0000  0.0000  0.0000  0.0000  0.0000
  14. Al 1 (d5)     0.0000  0.0000  0.0000  0.0000  0.0000  0.0000  0.0000 -0.1355
  15. Al 1 (d2)     0.0000  0.0000  0.0000  0.0202  0.0000  0.0000  0.0000  0.0000
  16. Al 1 (d3)     0.0000  0.0000  0.0202  0.0000  0.0000  0.0000  0.0000  0.0000
  17. Al 1 (d4)    -0.4585  0.0000  0.0000  0.0000  0.0000  0.0000  0.0171  0.0000
  18. Al 1 (d1)     0.0000  0.0000  0.0000  0.0000  0.0000  0.0171  0.0000  0.0000
  19. Cl 2 (s)     -0.0405  0.0000  0.0000  0.0000  0.0000  0.0000  0.0008 -0.0036
  20. Cl 2 (s)      0.0574  0.0000  0.0000  0.0000  0.0000  0.0000 -0.0029  0.0045
  21. Cl 2 (px)     0.0000 -0.0260  0.0000  0.0000  0.0000  0.0137  0.0000  0.0000
  22. Cl 2 (py)    -0.2074  0.0000  0.0000  0.0000  0.0000  0.0000  0.0135 -0.0189
  23. Cl 2 (pz)     0.0000  0.0000 -0.0075  0.0000  0.0000  0.0000  0.0000  0.0000
  24. Cl 2 (s)     -0.9053  0.0000  0.0000  0.0000  0.0000  0.0000  0.0113 -0.0832
  25. Cl 2 (px)     0.0000  0.1014  0.0000  0.0000  0.0000 -0.0565  0.0000  0.0000
  26. Cl 2 (py)     0.8381  0.0000  0.0000  0.0000  0.0000  0.0000 -0.0551  0.0794
  27. Cl 2 (pz)     0.0000  0.0000  0.0294  0.0000  0.0000  0.0000  0.0000  0.0000
  28. Cl 2 (s)      1.1512  0.0000  0.0000  0.0000  0.0000  0.0000  0.0280  0.1098
  29. Cl 2 (px)     0.0000 -0.1083  0.0000  0.0000  0.0000  0.0797  0.0000  0.0000
  30. Cl 2 (py)    -0.9119  0.0000  0.0000  0.0000  0.0000  0.0000  0.0569 -0.1026
  31. Cl 2 (pz)     0.0000  0.0000 -0.0335  0.0000  0.0000  0.0000  0.0000  0.0000
  32. Cl 2 (d5)     0.0215  0.0000  0.0000  0.0000  0.0000  0.0000  0.7183  0.4720
  33. Cl 2 (d2)     0.0000  0.0000  0.0000  0.7928  0.5774  0.0000  0.0000  0.0000
  34. Cl 2 (d3)     0.0000  0.0000  0.1944  0.0000  0.0000  0.0000  0.0000  0.0000
  35. Cl 2 (d4)    -0.0844  0.0000  0.0000  0.0000  0.0000  0.0000 -0.3784 -0.3223
  36. Cl 2 (d1)     0.0000  0.5737  0.0000  0.0000  0.0000 -0.0675  0.0000  0.0000
  37. Cl 3 (s)      0.0203  0.0000  0.0000  0.0000  0.0000  0.0007 -0.0004 -0.0036
  38. Cl 3 (s)     -0.0287  0.0000  0.0000  0.0000  0.0000 -0.0025  0.0015  0.0045
  39. Cl 3 (px)     0.0784  0.0130  0.0000  0.0000  0.0000  0.0135  0.0001 -0.0164
  40. Cl 3 (py)    -0.0715  0.0225  0.0000  0.0000  0.0000  0.0001  0.0136  0.0095
  41. Cl 3 (pz)     0.0000  0.0000  0.0038 -0.0065  0.0000  0.0000  0.0000  0.0000
  42. Cl 3 (s)      0.4527  0.0000  0.0000  0.0000  0.0000  0.0098 -0.0056 -0.0832
  43. Cl 3 (px)    -0.3266 -0.0507  0.0000  0.0000  0.0000 -0.0555 -0.0006  0.0688
  44. Cl 3 (py)     0.2724 -0.0879  0.0000  0.0000  0.0000 -0.0006 -0.0562 -0.0397
  45. Cl 3 (pz)     0.0000  0.0000 -0.0147  0.0255  0.0000  0.0000  0.0000  0.0000
  46. Cl 3 (s)     -0.5756  0.0000  0.0000  0.0000  0.0000  0.0242 -0.0140  0.1098
  47. Cl 3 (px)     0.4272  0.0542  0.0000  0.0000  0.0000  0.0626  0.0099 -0.0889
  48. Cl 3 (py)    -0.1720  0.0938  0.0000  0.0000  0.0000  0.0099  0.0740  0.0513
  49. Cl 3 (pz)     0.0000  0.0000  0.0167 -0.0290  0.0000  0.0000  0.0000  0.0000
  50. Cl 3 (d5)    -0.0107  0.0000  0.0000  0.0000  0.0000  0.6221 -0.3592  0.4720
  51. Cl 3 (d2)     0.0000  0.0000  0.2591  0.3441 -0.2887  0.0000  0.0000  0.0000
  52. Cl 3 (d3)     0.0000  0.0000  0.6433  0.2592 -0.5000  0.0000  0.0000  0.0000
  53. Cl 3 (d4)     0.1699 -0.4968  0.0000  0.0000  0.0000  0.1346 -0.1453  0.1612
  54. Cl 3 (d1)     0.1468 -0.2868  0.0000  0.0000  0.0000 -0.3007  0.1346 -0.2791
  55. Cl 4 (s)      0.0203  0.0000  0.0000  0.0000  0.0000 -0.0007 -0.0004 -0.0036
  56. Cl 4 (s)     -0.0287  0.0000  0.0000  0.0000  0.0000  0.0025  0.0015  0.0045
  57. Cl 4 (px)    -0.0784  0.0130  0.0000  0.0000  0.0000  0.0135 -0.0001  0.0164
  58. Cl 4 (py)    -0.0715 -0.0225  0.0000  0.0000  0.0000 -0.0001  0.0136  0.0095
  59. Cl 4 (pz)     0.0000  0.0000  0.0038  0.0065  0.0000  0.0000  0.0000  0.0000
  60. Cl 4 (s)      0.4527  0.0000  0.0000  0.0000  0.0000 -0.0098 -0.0056 -0.0832
  61. Cl 4 (px)     0.3266 -0.0507  0.0000  0.0000  0.0000 -0.0555  0.0006 -0.0688
  62. Cl 4 (py)     0.2724  0.0879  0.0000  0.0000  0.0000  0.0006 -0.0562 -0.0397
  63. Cl 4 (pz)     0.0000  0.0000 -0.0147 -0.0255  0.0000  0.0000  0.0000  0.0000
  64. Cl 4 (s)     -0.5756  0.0000  0.0000  0.0000  0.0000 -0.0242 -0.0140  0.1098
  65. Cl 4 (px)    -0.4272  0.0542  0.0000  0.0000  0.0000  0.0626 -0.0099  0.0889
  66. Cl 4 (py)    -0.1720 -0.0938  0.0000  0.0000  0.0000 -0.0099  0.0740  0.0513
  67. Cl 4 (pz)     0.0000  0.0000  0.0167  0.0290  0.0000  0.0000  0.0000  0.0000
  68. Cl 4 (d5)    -0.0107  0.0000  0.0000  0.0000  0.0000 -0.6221 -0.3592  0.4720
  69. Cl 4 (d2)     0.0000  0.0000 -0.2591  0.3441 -0.2887  0.0000  0.0000  0.0000
  70. Cl 4 (d3)     0.0000  0.0000  0.6433 -0.2592  0.5000  0.0000  0.0000  0.0000
  71. Cl 4 (d4)     0.1699  0.4968  0.0000  0.0000  0.0000 -0.1346 -0.1453  0.1612
  72. Cl 4 (d1)    -0.1468 -0.2868  0.0000  0.0000  0.0000 -0.3007 -0.1346  0.2791

           AO         65      66      67      68      69      70      71      72
      ------------ ------- ------- ------- ------- ------- ------- ------- -------
   1. Al 1 (s)      0.0000  0.0000  0.0000  0.0000  0.0000  0.0363  0.0000  0.0000
   2. Al 1 (s)      0.0000  0.0000  0.0000  0.0000  0.0000 -0.0506  0.0000  0.0000
   3. Al 1 (px)     0.0000  0.0000  0.0000  0.0000  0.0730  0.0000  0.0000 -0.1685
   4. Al 1 (py)     0.0000  0.0000  0.0000  0.0730  0.0000  0.0000  0.1685  0.0000
   5. Al 1 (pz)    -0.0690  0.0000  0.0000  0.0000  0.0000  0.0000  0.0000  0.0000
   6. Al 1 (s)      0.0000  0.0000  0.0000  0.0000  0.0000  1.2488  0.0000  0.0000
   7. Al 1 (px)     0.0000  0.0000  0.0000  0.0000 -0.5895  0.0000  0.0000  1.2832
   8. Al 1 (py)     0.0000  0.0000  0.0000 -0.5895  0.0000  0.0000 -1.2832  0.0000
   9. Al 1 (pz)     0.3107  0.0000  0.0000  0.0000  0.0000  0.0000  0.0000  0.0000
  10. Al 1 (s)      0.0000  0.0000  0.0000  0.0000  0.0000  0.7973  0.0000  0.0000
  11. Al 1 (px)     0.0000  0.0000  0.0000  0.0000 -0.4678  0.0000  0.0000  0.2142
  12. Al 1 (py)     0.0000  0.0000  0.0000 -0.4678  0.0000  0.0000 -0.2142  0.0000
  13. Al 1 (pz)     0.0860  0.0000  0.0000  0.0000  0.0000  0.0000  0.0000  0.0000
  14. Al 1 (d5)     0.0000  0.0000  0.0000  0.0000  0.0000 -0.5914  0.0000  0.0000
  15. Al 1 (d2)     0.0000  0.0000  0.4868  0.0000  0.0000  0.0000  0.0000  0.0000
  16. Al 1 (d3)     0.0000  0.4868  0.0000  0.0000  0.0000  0.0000  0.0000  0.0000
  17. Al 1 (d4)     0.0000  0.0000  0.0000 -0.3555  0.0000  0.0000  0.8210  0.0000
  18. Al 1 (d1)     0.0000  0.0000  0.0000  0.0000 -0.3555  0.0000  0.0000 -0.8210
  19. Cl 2 (s)      0.0000  0.0000  0.0000 -0.0199  0.0000  0.0134 -0.0086  0.0000
  20. Cl 2 (s)      0.0000  0.0000  0.0000  0.0081  0.0000  0.0237 -0.0506  0.0000
  21. Cl 2 (px)     0.0000  0.0000  0.0000  0.0000  0.0239  0.0000  0.0000 -0.0094
  22. Cl 2 (py)     0.0000  0.0000  0.0000 -0.0438  0.0000 -0.0027  0.0480  0.0000
  23. Cl 2 (pz)    -0.0270 -0.0142  0.0000  0.0000  0.0000  0.0000  0.0000  0.0000
  24. Cl 2 (s)      0.0000  0.0000  0.0000 -0.5166  0.0000  0.4435 -0.3974  0.0000
  25. Cl 2 (px)     0.0000  0.0000  0.0000  0.0000 -0.1253  0.0000  0.0000  0.0328
  26. Cl 2 (py)     0.0000  0.0000  0.0000  0.2037  0.0000 -0.0286 -0.1523  0.0000
  27. Cl 2 (pz)     0.1157  0.0721  0.0000  0.0000  0.0000  0.0000  0.0000  0.0000
  28. Cl 2 (s)      0.0000  0.0000  0.0000  0.9631  0.0000 -1.0536  1.2904  0.0000
  29. Cl 2 (px)     0.0000  0.0000  0.0000  0.0000  0.3867  0.0000  0.0000 -0.0633
  30. Cl 2 (py)     0.0000  0.0000  0.0000 -0.4549  0.0000  0.6073 -0.7728  0.0000
  31. Cl 2 (pz)    -0.1972 -0.1858  0.0000  0.0000  0.0000  0.0000  0.0000  0.0000
  32. Cl 2 (d5)     0.0000  0.0000  0.0000 -0.1235  0.0000  0.3273 -0.3930  0.0000
  33. Cl 2 (d2)     0.0000  0.0000 -0.1890  0.0000  0.0000  0.0000  0.0000  0.0000
  34. Cl 2 (d3)     0.5759  0.7712  0.0000  0.0000  0.0000  0.0000  0.0000  0.0000
  35. Cl 2 (d4)     0.0000  0.0000  0.0000 -0.1133  0.0000  0.4899 -0.7454  0.0000
  36. Cl 2 (d1)     0.0000  0.0000  0.0000  0.0000 -0.7605  0.0000  0.0000 -0.1326
  37. Cl 3 (s)      0.0000  0.0000  0.0000  0.0099 -0.0172  0.0134  0.0043  0.0075
  38. Cl 3 (s)      0.0000  0.0000  0.0000 -0.0040  0.0070  0.0237  0.0253  0.0439
  39. Cl 3 (px)     0.0000  0.0000  0.0000  0.0293 -0.0268 -0.0024 -0.0167 -0.0384
  40. Cl 3 (py)     0.0000  0.0000  0.0000  0.0070  0.0293  0.0014  0.0191  0.0167
  41. Cl 3 (pz)    -0.0270  0.0071 -0.0123  0.0000  0.0000  0.0000  0.0000  0.0000
  42. Cl 3 (s)      0.0000  0.0000  0.0000  0.2583 -0.4474  0.4435  0.1987  0.3441
  43. Cl 3 (px)     0.0000  0.0000  0.0000 -0.1425  0.1215 -0.0248  0.0518  0.1224
  44. Cl 3 (py)     0.0000  0.0000  0.0000 -0.0431 -0.1425  0.0143 -0.0626 -0.0518
  45. Cl 3 (pz)     0.1157 -0.0361  0.0625  0.0000  0.0000  0.0000  0.0000  0.0000
  46. Cl 3 (s)      0.0000  0.0000  0.0000 -0.4816  0.8341 -1.0536 -0.6452 -1.1175
  47. Cl 3 (px)     0.0000  0.0000  0.0000  0.3644 -0.2445  0.5260  0.3621  0.5638
  48. Cl 3 (py)     0.0000  0.0000  0.0000  0.1763  0.3644 -0.3037 -0.1457 -0.3621
  49. Cl 3 (pz)    -0.1972  0.0929 -0.1609  0.0000  0.0000  0.0000  0.0000  0.0000
  50. Cl 3 (d5)     0.0000  0.0000  0.0000  0.0618 -0.1070  0.3273  0.1965  0.3403
  51. Cl 3 (d2)     0.4987 -0.4158  0.5312  0.0000  0.0000  0.0000  0.0000  0.0000
  52. Cl 3 (d3)    -0.2879  0.0511 -0.4158  0.0000  0.0000  0.0000  0.0000  0.0000
  53. Cl 3 (d4)     0.0000  0.0000  0.0000 -0.5987 -0.2802 -0.2449 -0.0869 -0.3802
  54. Cl 3 (d1)     0.0000  0.0000  0.0000 -0.2802 -0.2751  0.4242  0.3802  0.5259
  55. Cl 4 (s)      0.0000  0.0000  0.0000  0.0099  0.0172  0.0134  0.0043 -0.0075
  56. Cl 4 (s)      0.0000  0.0000  0.0000 -0.0040 -0.0070  0.0237  0.0253 -0.0439
  57. Cl 4 (px)     0.0000  0.0000  0.0000 -0.0293 -0.0268  0.0024  0.0167 -0.0384
  58. Cl 4 (py)     0.0000  0.0000  0.0000  0.0070 -0.0293  0.0014  0.0191 -0.0167
  59. Cl 4 (pz)    -0.0270  0.0071  0.0123  0.0000  0.0000  0.0000  0.0000  0.0000
  60. Cl 4 (s)      0.0000  0.0000  0.0000  0.2583  0.4474  0.4435  0.1987 -0.3441
  61. Cl 4 (px)     0.0000  0.0000  0.0000  0.1425  0.1215  0.0248 -0.0518  0.1224
  62. Cl 4 (py)     0.0000  0.0000  0.0000 -0.0431  0.1425  0.0143 -0.0626  0.0518
  63. Cl 4 (pz)     0.1157 -0.0361 -0.0625  0.0000  0.0000  0.0000  0.0000  0.0000
  64. Cl 4 (s)      0.0000  0.0000  0.0000 -0.4816 -0.8341 -1.0536 -0.6452  1.1175
  65. Cl 4 (px)     0.0000  0.0000  0.0000 -0.3644 -0.2445 -0.5260 -0.3621  0.5638
  66. Cl 4 (py)     0.0000  0.0000  0.0000  0.1763 -0.3644 -0.3037 -0.1457  0.3621
  67. Cl 4 (pz)    -0.1972  0.0929  0.1609  0.0000  0.0000  0.0000  0.0000  0.0000
  68. Cl 4 (d5)     0.0000  0.0000  0.0000  0.0618  0.1070  0.3273  0.1965 -0.3403
  69. Cl 4 (d2)    -0.4987  0.4158  0.5312  0.0000  0.0000  0.0000  0.0000  0.0000
  70. Cl 4 (d3)    -0.2879  0.0511  0.4158  0.0000  0.0000  0.0000  0.0000  0.0000
  71. Cl 4 (d4)     0.0000  0.0000  0.0000 -0.5987  0.2802 -0.2449 -0.0869  0.3802
  72. Cl 4 (d1)     0.0000  0.0000  0.0000  0.2802 -0.2751 -0.4242 -0.3802  0.5259


 AO overlap matrix:

           AO          1       2       3       4       5       6       7       8
      ------------ ------- ------- ------- ------- ------- ------- ------- -------
   1. Al 1 (s)      1.0000  0.2460  0.0000  0.0000  0.0000  0.0052  0.0000  0.0000
   2. Al 1 (s)      0.2460  1.0000  0.0000  0.0000  0.0000  0.2624  0.0000  0.0000
   3. Al 1 (px)     0.0000  0.0000  1.0000  0.0000  0.0000  0.0000  0.2548  0.0000
   4. Al 1 (py)     0.0000  0.0000  0.0000  1.0000  0.0000  0.0000  0.0000  0.2548
   5. Al 1 (pz)     0.0000  0.0000  0.0000  0.0000  1.0000  0.0000  0.0000  0.0000
   6. Al 1 (s)      0.0052  0.2624  0.0000  0.0000  0.0000  1.0000  0.0000  0.0000
   7. Al 1 (px)     0.0000  0.0000  0.2548  0.0000  0.0000  0.0000  1.0000  0.0000
   8. Al 1 (py)     0.0000  0.0000  0.0000  0.2548  0.0000  0.0000  0.0000  1.0000
   9. Al 1 (pz)     0.0000  0.0000  0.0000  0.0000  0.2548  0.0000  0.0000  0.0000
  10. Al 1 (s)      0.0257  0.2233  0.0000  0.0000  0.0000  0.8377  0.0000  0.0000
  11. Al 1 (px)     0.0000  0.0000  0.0638  0.0000  0.0000  0.0000  0.6601  0.0000
  12. Al 1 (py)     0.0000  0.0000  0.0000  0.0638  0.0000  0.0000  0.0000  0.6601
  13. Al 1 (pz)     0.0000  0.0000  0.0000  0.0000  0.0638  0.0000  0.0000  0.0000
  14. Al 1 (d5)     0.0000  0.0000  0.0000  0.0000  0.0000  0.0000  0.0000  0.0000
  15. Al 1 (d2)     0.0000  0.0000  0.0000  0.0000  0.0000  0.0000  0.0000  0.0000
  16. Al 1 (d3)     0.0000  0.0000  0.0000  0.0000  0.0000  0.0000  0.0000  0.0000
  17. Al 1 (d4)     0.0000  0.0000  0.0000  0.0000  0.0000  0.0000  0.0000  0.0000
  18. Al 1 (d1)     0.0000  0.0000  0.0000  0.0000  0.0000  0.0000  0.0000  0.0000
  19. Cl 2 (s)      0.0000  0.0000  0.0000  0.0000  0.0000  0.0035  0.0000  0.0083
  20. Cl 2 (s)      0.0000  0.0000  0.0000  0.0000  0.0000  0.0297  0.0000  0.0673
  21. Cl 2 (px)     0.0000  0.0000  0.0000  0.0000  0.0000  0.0000  0.0066  0.0000
  22. Cl 2 (py)     0.0000  0.0000  0.0000  0.0000  0.0000 -0.0136  0.0000 -0.0256
  23. Cl 2 (pz)     0.0000  0.0000  0.0000  0.0000  0.0000  0.0000  0.0000  0.0000
  24. Cl 2 (s)      0.0002  0.0060  0.0000  0.0093  0.0000  0.1616  0.0000  0.2982
  25. Cl 2 (px)     0.0000  0.0000  0.0026  0.0000  0.0000  0.0000  0.0958  0.0000
  26. Cl 2 (py)    -0.0008 -0.0158  0.0000 -0.0222  0.0000 -0.1814  0.0000 -0.2762
  27. Cl 2 (pz)     0.0000  0.0000  0.0000  0.0000  0.0026  0.0000  0.0000  0.0000
  28. Cl 2 (s)      0.0059  0.0576  0.0000  0.0366  0.0000  0.3294  0.0000  0.4255
  29. Cl 2 (px)     0.0000  0.0000  0.0248  0.0000  0.0000  0.0000  0.2882  0.0000
  30. Cl 2 (py)    -0.0174 -0.1534  0.0000 -0.0728  0.0000 -0.4982  0.0000 -0.4078
  31. Cl 2 (pz)     0.0000  0.0000  0.0000  0.0000  0.0248  0.0000  0.0000  0.0000
  32. Cl 2 (d5)     0.0000 -0.0033  0.0000 -0.0063  0.0000 -0.0388  0.0000 -0.0541
  33. Cl 2 (d2)     0.0000  0.0000  0.0000  0.0000  0.0000  0.0000  0.0000  0.0000
  34. Cl 2 (d3)     0.0000  0.0000  0.0000  0.0000 -0.0019  0.0000  0.0000  0.0000
  35. Cl 2 (d4)    -0.0001 -0.0056  0.0000 -0.0109  0.0000 -0.0672  0.0000 -0.0937
  36. Cl 2 (d1)     0.0000  0.0000 -0.0019  0.0000  0.0000  0.0000 -0.0741  0.0000
  37. Cl 3 (s)      0.0000  0.0000  0.0000  0.0000  0.0000  0.0035  0.0072 -0.0042
  38. Cl 3 (s)      0.0000  0.0000  0.0000  0.0000  0.0000  0.0297  0.0583 -0.0337
  39. Cl 3 (px)     0.0000  0.0000  0.0000  0.0000  0.0000 -0.0117 -0.0176  0.0140
  40. Cl 3 (py)     0.0000  0.0000  0.0000  0.0000  0.0000  0.0068  0.0140 -0.0014
  41. Cl 3 (pz)     0.0000  0.0000  0.0000  0.0000  0.0000  0.0000  0.0000  0.0000
  42. Cl 3 (s)      0.0002  0.0060  0.0080 -0.0046  0.0000  0.1616  0.2583 -0.1491
  43. Cl 3 (px)    -0.0007 -0.0137 -0.0160  0.0107  0.0000 -0.1571 -0.1832  0.1611
  44. Cl 3 (py)     0.0004  0.0079  0.0107 -0.0036  0.0000  0.0907  0.1611  0.0028
  45. Cl 3 (pz)     0.0000  0.0000  0.0000  0.0000  0.0026  0.0000  0.0000  0.0000
  46. Cl 3 (s)      0.0059  0.0576  0.0317 -0.0183  0.0000  0.3294  0.3685 -0.2128
  47. Cl 3 (px)    -0.0151 -0.1329 -0.0484  0.0422  0.0000 -0.4315 -0.2338  0.3013
  48. Cl 3 (py)     0.0087  0.0767  0.0422  0.0004  0.0000  0.2491  0.3013  0.1142
  49. Cl 3 (pz)     0.0000  0.0000  0.0000  0.0000  0.0248  0.0000  0.0000  0.0000
  50. Cl 3 (d5)     0.0000 -0.0033 -0.0054  0.0031  0.0000 -0.0388 -0.0469  0.0271
  51. Cl 3 (d2)     0.0000  0.0000  0.0000  0.0000 -0.0016  0.0000  0.0000  0.0000
  52. Cl 3 (d3)     0.0000  0.0000  0.0000  0.0000  0.0010  0.0000  0.0000  0.0000
  53. Cl 3 (d4)     0.0000  0.0028  0.0039 -0.0041  0.0000  0.0336  0.0085 -0.0790
  54. Cl 3 (d1)     0.0000 -0.0049 -0.0086  0.0039  0.0000 -0.0582 -0.0888  0.0085
  55. Cl 4 (s)      0.0000  0.0000  0.0000  0.0000  0.0000  0.0035 -0.0072 -0.0042
  56. Cl 4 (s)      0.0000  0.0000  0.0000  0.0000  0.0000  0.0297 -0.0583 -0.0337
  57. Cl 4 (px)     0.0000  0.0000  0.0000  0.0000  0.0000  0.0117 -0.0176 -0.0140
  58. Cl 4 (py)     0.0000  0.0000  0.0000  0.0000  0.0000  0.0068 -0.0140 -0.0014
  59. Cl 4 (pz)     0.0000  0.0000  0.0000  0.0000  0.0000  0.0000  0.0000  0.0000
  60. Cl 4 (s)      0.0002  0.0060 -0.0080 -0.0046  0.0000  0.1616 -0.2583 -0.1491
  61. Cl 4 (px)     0.0007  0.0137 -0.0160 -0.0107  0.0000  0.1571 -0.1832 -0.1611
  62. Cl 4 (py)     0.0004  0.0079 -0.0107 -0.0036  0.0000  0.0907 -0.1611  0.0028
  63. Cl 4 (pz)     0.0000  0.0000  0.0000  0.0000  0.0026  0.0000  0.0000  0.0000
[...]
                                         0.0000  0.0000  0.5161 -0.0125  0.0000
                                        -0.7399  0.0186  0.0000  0.4272 -0.0107
                                         0.0000  0.0000  0.0000 -0.0430  0.0000
                                         0.0000  0.0248 -0.0272
  36. (0.04536) BD*( 1)Al  1-Cl  4
               ( 83.63%)   0.9145*Al  1 s( 32.97%)p 1.92( 63.42%)d 0.11(  3.60%)
                                         0.0000  0.0000  0.5742  0.0002  0.0000
                                        -0.6885  0.0408  0.0000 -0.3975  0.0235
                                         0.0000  0.0000  0.0000  0.1560  0.0000
                                         0.0000  0.0900 -0.0600
               ( 16.37%)  -0.4045*Cl  4 s( 26.65%)p 2.74( 73.03%)d 0.01(  0.32%)
                                         0.0000  0.0000  0.5161 -0.0125  0.0000
                                         0.7399 -0.0186  0.0000  0.4272 -0.0107
                                         0.0000  0.0000  0.0000  0.0430  0.0000
                                         0.0000  0.0248 -0.0272
  37. (0.02221) RY ( 1)Al  1            s(  0.00%)p 1.00( 16.70%)d 4.99( 83.30%)
                                         0.0000  0.0000  0.0000  0.0000  0.0000
                                         0.0000  0.0000  0.0000  0.2269  0.3399
                                         0.0000  0.0000  0.0000  0.0000  0.0000
                                         0.0000  0.9127  0.0000
  38. (0.02221) RY ( 2)Al  1            s(  0.00%)p 1.00( 16.70%)d 4.99( 83.30%)
                                         0.0000  0.0000  0.0000  0.0000  0.0000
                                         0.2269  0.3399  0.0000  0.0000  0.0000
                                         0.0000  0.0000  0.0000  0.9127  0.0000
                                         0.0000  0.0000  0.0000
  39. (0.00825) RY ( 3)Al  1            s(  0.00%)p 0.00(  0.00%)d 1.00(100.00%)
                                         0.0000  0.0000  0.0000  0.0000  0.0000
                                         0.0000  0.0000  0.0000  0.0000  0.0000
                                         0.0000  0.0000  0.0000  0.0000  1.0000
                                         0.0000  0.0000  0.0000
  40. (0.00825) RY ( 4)Al  1            s(  0.00%)p 0.00(  0.00%)d 1.00(100.00%)
                                         0.0000  0.0000  0.0000  0.0000  0.0000
                                         0.0000  0.0000  0.0000  0.0000  0.0000
                                         0.0000  0.0000  0.0000  0.0000  0.0000
                                         1.0000  0.0000  0.0000
  41. (0.00149) RY ( 5)Al  1            s(  0.00%)p 1.00( 88.16%)d 0.13( 11.84%)
                                         0.0000  0.0000  0.0000  0.0000  0.0000
                                        -0.0224  0.9387  0.0000  0.0000  0.0000
                                         0.0000  0.0000  0.0000 -0.3441  0.0000
                                         0.0000  0.0000  0.0000
  42. (0.00149) RY ( 6)Al  1            s(  0.00%)p 1.00( 88.16%)d 0.13( 11.84%)
                                         0.0000  0.0000  0.0000  0.0000  0.0000
                                         0.0000  0.0000  0.0000 -0.0224  0.9387
                                         0.0000  0.0000  0.0000  0.0000  0.0000
                                         0.0000 -0.3441  0.0000
  43. (0.00007) RY ( 7)Al  1            s(  9.11%)p 0.00(  0.00%)d 9.97( 90.89%)
  44. (0.00000) RY ( 8)Al  1            s(  0.00%)p 1.00(100.00%)
  45. (0.00000) RY ( 9)Al  1            s( 91.97%)p 0.00(  0.00%)d 0.09(  8.03%)
  46. (0.00032) RY ( 1)Cl  2            s(  0.00%)p 1.00( 85.49%)d 0.17( 14.51%)
                                         0.0000  0.0000  0.0000  0.0000  0.0000
                                         0.0014  0.9246  0.0000  0.0000  0.0000
                                         0.0000  0.0000  0.0000  0.3810  0.0000
                                         0.0000  0.0000  0.0000
  47. (0.00021) RY ( 2)Cl  2            s( 73.14%)p 0.28( 20.71%)d 0.08(  6.15%)
                                         0.0000  0.0000  0.0035  0.8552  0.0000
                                         0.0000  0.0000  0.0000 -0.0348 -0.4537
                                         0.0000  0.0000  0.0000  0.0000  0.0000
                                         0.0000  0.0995  0.2271
  48. (0.00015) RY ( 3)Cl  2            s(  0.00%)p 1.00( 92.47%)d 0.08(  7.53%)
                                         0.0000  0.0000  0.0000  0.0000  0.0000
                                         0.0000  0.0000  0.0000  0.0000  0.0000
                                         0.0000 -0.0043  0.9616  0.0000  0.0000
                                         0.2745  0.0000  0.0000
  49. (0.00005) RY ( 4)Cl  2            s( 25.06%)p 2.21( 55.35%)d 0.78( 19.59%)
  50. (0.00003) RY ( 5)Cl  2            s(  0.00%)p 1.00( 14.59%)d 5.86( 85.41%)
  51. (0.00001) RY ( 6)Cl  2            s(  0.00%)p 0.00(  0.00%)d 1.00(100.00%)
  52. (0.00000) RY ( 7)Cl  2            s(  0.90%)p20.29( 18.18%)d90.34( 80.93%)
  53. (0.00000) RY ( 8)Cl  2            s(  0.90%)p 6.80(  6.11%)d99.99( 92.99%)
  54. (0.00000) RY ( 9)Cl  2            s(  0.00%)p 1.00(  7.62%)d12.12( 92.38%)
  55. (0.00032) RY ( 1)Cl  3            s(  0.00%)p 1.00( 85.49%)d 0.17( 14.51%)
                                         0.0000  0.0000  0.0000  0.0000  0.0000
                                         0.0007  0.4623  0.0000  0.0012  0.8007
                                         0.0000  0.0000  0.0000  0.1905  0.0000
                                         0.0000  0.3299  0.0000
  56. (0.00021) RY ( 2)Cl  3            s( 73.14%)p 0.28( 20.71%)d 0.08(  6.15%)
                                         0.0000  0.0000  0.0035  0.8552  0.0000
                                        -0.0301 -0.3929  0.0000  0.0174  0.2269
                                         0.0000  0.0000  0.0000  0.0862  0.0000
                                         0.0000 -0.0498  0.2271
  57. (0.00015) RY ( 3)Cl  3            s(  0.00%)p 1.00( 92.47%)d 0.08(  7.53%)
                                         0.0000  0.0000  0.0000  0.0000  0.0000
                                         0.0000  0.0000  0.0000  0.0000  0.0000
                                         0.0000 -0.0043  0.9616  0.0000  0.2377
                                        -0.1372  0.0000  0.0000
  58. (0.00005) RY ( 4)Cl  3            s( 25.06%)p 2.21( 55.35%)d 0.78( 19.59%)
  59. (0.00003) RY ( 5)Cl  3            s(  0.00%)p 1.00( 14.59%)d 5.86( 85.41%)
  60. (0.00001) RY ( 6)Cl  3            s(  0.00%)p 0.00(  0.00%)d 1.00(100.00%)
  61. (0.00000) RY ( 7)Cl  3            s(  0.90%)p20.29( 18.18%)d90.34( 80.93%)
  62. (0.00000) RY ( 8)Cl  3            s(  0.90%)p 6.80(  6.11%)d99.99( 92.99%)
  63. (0.00000) RY ( 9)Cl  3            s(  0.00%)p 1.00(  7.62%)d12.12( 92.38%)
  64. (0.00032) RY ( 1)Cl  4            s(  0.00%)p 1.00( 85.49%)d 0.17( 14.51%)
                                         0.0000  0.0000  0.0000  0.0000  0.0000
                                        -0.0007 -0.4623  0.0000  0.0012  0.8007
                                         0.0000  0.0000  0.0000 -0.1905  0.0000
                                         0.0000  0.3299  0.0000
  65. (0.00021) RY ( 2)Cl  4            s( 73.14%)p 0.28( 20.71%)d 0.08(  6.15%)
                                         0.0000  0.0000  0.0035  0.8552  0.0000
                                         0.0301  0.3929  0.0000  0.0174  0.2269
                                         0.0000  0.0000  0.0000 -0.0862  0.0000
                                         0.0000 -0.0498  0.2271
  66. (0.00015) RY ( 3)Cl  4            s(  0.00%)p 1.00( 92.47%)d 0.08(  7.53%)
                                         0.0000  0.0000  0.0000  0.0000  0.0000
                                         0.0000  0.0000  0.0000  0.0000  0.0000
                                         0.0000 -0.0043  0.9616  0.0000 -0.2377
                                        -0.1372  0.0000  0.0000
  67. (0.00005) RY ( 4)Cl  4            s( 25.06%)p 2.21( 55.35%)d 0.78( 19.59%)
  68. (0.00003) RY ( 5)Cl  4            s(  0.00%)p 1.00( 14.59%)d 5.86( 85.41%)
  69. (0.00001) RY ( 6)Cl  4            s(  0.00%)p 0.00(  0.00%)d 1.00(100.00%)
  70. (0.00000) RY ( 7)Cl  4            s(  0.90%)p20.29( 18.18%)d90.34( 80.93%)
  71. (0.00000) RY ( 8)Cl  4            s(  0.90%)p 6.80(  6.11%)d99.99( 92.99%)
  72. (0.00000) RY ( 9)Cl  4            s(  0.00%)p 1.00(  7.62%)d12.12( 92.38%)


 NHO DIRECTIONALITY AND BOND BENDING (deviation from line of nuclear centers at
                                      the position of maximum hybrid amplitude)

         [Thresholds for printing:  angular deviation  >  1.0 degree]
                                    p- or d-character  > 25.0%
                                    orbital occupancy  >  0.10e

                        Line of Centers        Hybrid 1             Hybrid 2
                        ---------------  -------------------  ------------------
           NBO            Theta   Phi    Theta   Phi    Dev   Theta   Phi    Dev
 ===============================================================================
  21. LP ( 1)Cl  2          --     --     90.0   90.0   --      --     --    --
  22. LP ( 2)Cl  2          --     --     90.0  356.2   --      --     --    --
  23. LP ( 3)Cl  2          --     --    175.7  270.0   --      --     --    --
  24. LP ( 1)Cl  3          --     --     90.0  330.0   --      --     --    --
  25. LP ( 2)Cl  3          --     --     90.0   63.8   --      --     --    --
  26. LP ( 3)Cl  3          --     --      4.3  150.0   --      --     --    --
  27. LP ( 1)Cl  4          --     --     90.0  210.0   --      --     --    --
  28. LP ( 2)Cl  4          --     --     90.0  116.2   --      --     --    --
  29. LP ( 3)Cl  4          --     --    175.7   30.0   --      --     --    --


 SECOND ORDER PERTURBATION THEORY ANALYSIS OF FOCK MATRIX IN NBO BASIS

     Threshold for printing:   0.50 kcal/mol
                                                          E(2) E(NL)-E(L) F(L,NL)
      Donor (L) NBO              Acceptor (NL) NBO      kcal/mol   a.u.    a.u.
 ===============================================================================

 within unit  1
   21. LP ( 1)Cl  2            35. BD*( 1)Al  1-Cl  3      0.61    1.22   0.024
   21. LP ( 1)Cl  2            36. BD*( 1)Al  1-Cl  4      0.61    1.22   0.024
   21. LP ( 1)Cl  2            37. RY ( 1)Al  1            1.39    1.58   0.042
   22. LP ( 2)Cl  2            35. BD*( 1)Al  1-Cl  3      6.53    0.81   0.065
   22. LP ( 2)Cl  2            36. BD*( 1)Al  1-Cl  4      6.53    0.81   0.065
   22. LP ( 2)Cl  2            38. RY ( 2)Al  1            4.47    1.17   0.064
   22. LP ( 2)Cl  2            41. RY ( 5)Al  1            0.84    0.78   0.023
   23. LP ( 3)Cl  2            33. LV ( 1)Al  1           24.81    0.52   0.102
   23. LP ( 3)Cl  2            40. RY ( 4)Al  1            3.88    1.09   0.058
   24. LP ( 1)Cl  3            34. BD*( 1)Al  1-Cl  2      0.61    1.22   0.024
   24. LP ( 1)Cl  3            36. BD*( 1)Al  1-Cl  4      0.61    1.22   0.024
   24. LP ( 1)Cl  3            38. RY ( 2)Al  1            1.04    1.58   0.036
   25. LP ( 2)Cl  3            34. BD*( 1)Al  1-Cl  2      6.53    0.81   0.065
   25. LP ( 2)Cl  3            36. BD*( 1)Al  1-Cl  4      6.53    0.81   0.065
   25. LP ( 2)Cl  3            37. RY ( 1)Al  1            3.35    1.17   0.056
   25. LP ( 2)Cl  3            38. RY ( 2)Al  1            1.12    1.17   0.032
   25. LP ( 2)Cl  3            42. RY ( 6)Al  1            0.63    0.78   0.020
   26. LP ( 3)Cl  3            33. LV ( 1)Al  1           24.81    0.52   0.102
   26. LP ( 3)Cl  3            39. RY ( 3)Al  1            2.91    1.09   0.050
   26. LP ( 3)Cl  3            40. RY ( 4)Al  1            0.97    1.09   0.029
   27. LP ( 1)Cl  4            34. BD*( 1)Al  1-Cl  2      0.61    1.22   0.024
   27. LP ( 1)Cl  4            35. BD*( 1)Al  1-Cl  3      0.61    1.22   0.024
   27. LP ( 1)Cl  4            38. RY ( 2)Al  1            1.04    1.58   0.036
   28. LP ( 2)Cl  4            34. BD*( 1)Al  1-Cl  2      6.53    0.81   0.065
   28. LP ( 2)Cl  4            35. BD*( 1)Al  1-Cl  3      6.53    0.81   0.065
   28. LP ( 2)Cl  4            37. RY ( 1)Al  1            3.35    1.17   0.056
   28. LP ( 2)Cl  4            38. RY ( 2)Al  1            1.12    1.17   0.032
   28. LP ( 2)Cl  4            42. RY ( 6)Al  1            0.63    0.78   0.020
   29. LP ( 3)Cl  4            33. LV ( 1)Al  1           24.81    0.52   0.102
   29. LP ( 3)Cl  4            39. RY ( 3)Al  1            2.91    1.09   0.050
   29. LP ( 3)Cl  4            40. RY ( 4)Al  1            0.97    1.09   0.029
   30. BD ( 1)Al  1-Cl  2      35. BD*( 1)Al  1-Cl  3      2.26    1.12   0.045
   30. BD ( 1)Al  1-Cl  2      36. BD*( 1)Al  1-Cl  4      2.26    1.12   0.045
   31. BD ( 1)Al  1-Cl  3      34. BD*( 1)Al  1-Cl  2      2.26    1.12   0.045
   31. BD ( 1)Al  1-Cl  3      36. BD*( 1)Al  1-Cl  4      2.26    1.12   0.045
   32. BD ( 1)Al  1-Cl  4      34. BD*( 1)Al  1-Cl  2      2.26    1.12   0.045
   32. BD ( 1)Al  1-Cl  4      35. BD*( 1)Al  1-Cl  3      2.26    1.12   0.045


 NATURAL BOND ORBITALS (Summary):

                                                     Principal Delocalizations
           NBO                 Occupancy    Energy   (geminal,vicinal,remote)
 ===============================================================================
 Molecular unit  1  (AlCl3)
 ------ Lewis --------------------------------------
    1. CR ( 1)Al  1             2.00000   -56.58626
    2. CR ( 2)Al  1             2.00000    -6.99688
    3. CR ( 3)Al  1             1.99998    -3.31504
    4. CR ( 4)Al  1             1.99998    -3.31504
    5. CR ( 5)Al  1             2.00000    -3.31688
    6. CR ( 1)Cl  2             2.00000   -94.02689
    7. CR ( 2)Cl  2             1.99999   -21.37103
    8. CR ( 3)Cl  2             2.00000    -8.03542
    9. CR ( 4)Cl  2             1.99999    -8.03761
   10. CR ( 5)Cl  2             2.00000    -8.03566
   11. CR ( 1)Cl  3             2.00000   -94.02689
   12. CR ( 2)Cl  3             1.99999   -21.37103
   13. CR ( 3)Cl  3             2.00000    -8.03706
   14. CR ( 4)Cl  3             2.00000    -8.03596
   15. CR ( 5)Cl  3             2.00000    -8.03566
   16. CR ( 1)Cl  4             2.00000   -94.02689
   17. CR ( 2)Cl  4             1.99999   -21.37103
   18. CR ( 3)Cl  4             2.00000    -8.03706
   19. CR ( 4)Cl  4             2.00000    -8.03596
   20. CR ( 5)Cl  4             2.00000    -8.03566
   21. LP ( 1)Cl  2             1.99165    -0.88647  37(v),35(v),36(v)
   22. LP ( 2)Cl  2             1.95717    -0.47530  35(v),36(v),38(v),41(v)
   23. LP ( 3)Cl  2             1.93408    -0.47412  33(v),40(v)
   24. LP ( 1)Cl  3             1.99165    -0.88647  38(v),34(v),36(v)
   25. LP ( 2)Cl  3             1.95717    -0.47530  34(v),36(v),37(v),38(v)
                                                     42(v)
   26. LP ( 3)Cl  3             1.93408    -0.47412  33(v),39(v),40(v)
   27. LP ( 1)Cl  4             1.99165    -0.88647  38(v),34(v),35(v)
   28. LP ( 2)Cl  4             1.95717    -0.47530  34(v),35(v),37(v),38(v)
                                                     42(v)
   29. LP ( 3)Cl  4             1.93408    -0.47412  33(v),39(v),40(v)
   30. BD ( 1)Al  1-Cl  2       1.98940    -0.78132  35(g),36(g)
   31. BD ( 1)Al  1-Cl  3       1.98940    -0.78132  34(g),36(g)
   32. BD ( 1)Al  1-Cl  4       1.98940    -0.78132  34(g),35(g)
 ------ non-Lewis ----------------------------------
   33. LV ( 1)Al  1             0.18080     0.04907
   34. BD*( 1)Al  1-Cl  2       0.04536     0.33839
   35. BD*( 1)Al  1-Cl  3       0.04536     0.33840
   36. BD*( 1)Al  1-Cl  4       0.04536     0.33840
   37. RY ( 1)Al  1             0.02221     0.69069
   38. RY ( 2)Al  1             0.02221     0.69069
   39. RY ( 3)Al  1             0.00825     0.61949
   40. RY ( 4)Al  1             0.00825     0.61949
   41. RY ( 5)Al  1             0.00149     0.30788
   42. RY ( 6)Al  1             0.00149     0.30788
   43. RY ( 7)Al  1             0.00007     0.60635
   44. RY ( 8)Al  1             0.00000     0.22793
   45. RY ( 9)Al  1             0.00000     0.25678
   46. RY ( 1)Cl  2             0.00032     0.71840
   47. RY ( 2)Cl  2             0.00021     0.77233
   48. RY ( 3)Cl  2             0.00015     0.67648
   49. RY ( 4)Cl  2             0.00005     0.81568
   50. RY ( 5)Cl  2             0.00003     1.14940
   51. RY ( 6)Cl  2             0.00001     1.13059
   52. RY ( 7)Cl  2             0.00000     1.22438
   53. RY ( 8)Cl  2             0.00000     1.14847
   54. RY ( 9)Cl  2             0.00000     1.15982
   55. RY ( 1)Cl  3             0.00032     0.71840
   56. RY ( 2)Cl  3             0.00021     0.77233
   57. RY ( 3)Cl  3             0.00015     0.67648
   58. RY ( 4)Cl  3             0.00005     0.81568
   59. RY ( 5)Cl  3             0.00003     1.14940
   60. RY ( 6)Cl  3             0.00001     1.13059
   61. RY ( 7)Cl  3             0.00000     1.22438
   62. RY ( 8)Cl  3             0.00000     1.14847
   63. RY ( 9)Cl  3             0.00000     1.15982
   64. RY ( 1)Cl  4             0.00032     0.71840
   65. RY ( 2)Cl  4             0.00021     0.77233
   66. RY ( 3)Cl  4             0.00015     0.67648
   67. RY ( 4)Cl  4             0.00005     0.81568
   68. RY ( 5)Cl  4             0.00003     1.14940
   69. RY ( 6)Cl  4             0.00001     1.13059
   70. RY ( 7)Cl  4             0.00000     1.22438
   71. RY ( 8)Cl  4             0.00000     1.14847
   72. RY ( 9)Cl  4             0.00000     1.15982
          -------------------------------
                 Total Lewis   63.61686  ( 99.4013%)
           Valence non-Lewis    0.31688  (  0.4951%)
           Rydberg non-Lewis    0.06626  (  0.1035%)
          -------------------------------
               Total unit  1   64.00000  (100.0000%)
              Charge unit  1    0.00000

 $CHOOSE
   LONE 2 3 3 3 4 3 END
   BOND S 1 2 S 1 3 S 1 4 END
 $END

 NBO analysis completed in 1.23 CPU seconds (1 wall second)
 Maximum scratch memory used by NBO was 396785 words (3.03 MB)
 Maximum scratch memory used by G16NBO was 16436 words (0.13 MB)

 Opening RunExU unformatted file "/cluster/work/users/beto93/mol58/Gau-1898620.EUF"
 Read unf file /cluster/work/users/beto93/mol58/Gau-1898620.EUF:
 Label Gaussian matrix elements                                         IVers= 2 NLab= 2 Version=ES64L-G16RevC.01
 Title mol58-NBO                                                       
 NAtoms=     4 NBasis=    72 NBsUse=    72 ICharg=     0 Multip=     1 NE=    64 Len12L=8 Len4L=8 IOpCl= 0 ICGU=111
 GAUSSIAN SCALARS                    NI= 1 NR= 1 NTot=       1 LenBuf=    2 NRI=1 N=    1000
 NPA CHARGES                         NI= 0 NR= 1 NTot=       4 LenBuf= 4000 NRI=1 N=       4
 Recovered energy= -1620.57093724     dipole=     -0.000000000000     -0.000001222300     -0.000000000000
 Unable to Open any file for archive entry.
 1\1\GINC-C1-6\SP\RHF\6-31G(d)\Al1Cl3\BETO93\18-Nov-2024\0\\#RHF/6-31G*
  int=nobasistransform Symmetry=None 5D 7F Pop=NBO7Read\\mol58-NBO\\0,1
 \Al,0,0.,0.,0.\Cl,0,0.,2.069041,0.\Cl,0,1.791842,-1.03452,0.\Cl,0,-1.7
 91842,-1.03452,0.\\Version=ES64L-G16RevC.01\HF=-1620.5709372\RMSD=2.48
 7e-09\Dipole=0.,-0.0000012,0.\Quadrupole=-2.267445,-2.2674471,4.534892
 1,0.,0.,0.\PG=Unknown\\@
 The archive entry for this job was punched.


 HE WHO LAUGHS LAST PROBABLY DIDN'T GET THE JOKE.
 Job cpu time:       0 days  0 hours  0 minutes 11.1 seconds.
 Elapsed time:       0 days  0 hours  0 minutes  3.6 seconds.
 File lengths (MBytes):  RWF=     15 Int=      0 D2E=      0 Chk=      2 Scr=      1
 Normal termination of Gaussian 16 at Mon Nov 18 16:40:43 2024.
