 Entering Gaussian System, Link 0=g16
 Initial command:
 /cluster/software/Gaussian/g16_C.01/l1.exe "/cluster/work/users/beto93/mol61/Gau-508772.inp" -scrdir="/cluster/work/users/beto93/mol61/"
 Entering Link 1 = /cluster/software/Gaussian/g16_C.01/l1.exe PID=    508774.
  
 Copyright (c) 1988-2019, Gaussian, Inc.  All Rights Reserved.
  
 This is part of the Gaussian(R) 16 program.  It is based on
 the Gaussian(R) 09 system (copyright 2009, Gaussian, Inc.),
 the Gaussian(R) 03 system (copyright 2003, Gaussian, Inc.),
 the Gaussian(R) 98 system (copyright 1998, Gaussian, Inc.),
 the Gaussian(R) 94 system (copyright 1995, Gaussian, Inc.),
 the Gaussian 92(TM) system (copyright 1992, Gaussian, Inc.),
 the Gaussian 90(TM) system (copyright 1990, Gaussian, Inc.),
 the Gaussian 88(TM) system (copyright 1988, Gaussian, Inc.),
 the Gaussian 86(TM) system (copyright 1986, Carnegie Mellon
 University), and the Gaussian 82(TM) system (copyright 1983,
 Carnegie Mellon University). Gaussian is a federally registered
 trademark of Gaussian, Inc.
  
 This software contains proprietary and confidential information,
 including trade secrets, belonging to Gaussian, Inc.
  
 This software is provided under written license and may be
 used, copied, transmitted, or stored only in accord with that
 written license.
  
 The following legend is applicable only to US Government
 contracts under FAR:
  
                    RESTRICTED RIGHTS LEGEND
  
 Use, reproduction and disclosure by the US Government is
 subject to restrictions as set forth in subparagraphs (a)
 and (c) of the Commercial Computer Software - Restricted
 Rights clause in FAR 52.227-19.
  
 Gaussian, Inc.
 340 Quinnipiac St., Bldg. 40, Wallingford CT 06492
  
  
 ---------------------------------------------------------------
 Warning -- This program may not be used in any manner that
 competes with the business of Gaussian, Inc. or will provide
 assistance to any competitor of Gaussian, Inc.  The licensee
 of this program is prohibited from giving any competitor of
 Gaussian, Inc. access to this program.  By using this program,
 the user acknowledges that Gaussian, Inc. is engaged in the
 business of creating and licensing software in the field of
 computational chemistry and represents and warrants to the
 licensee that it is not a competitor of Gaussian, Inc. and that
 it will not use this program in any manner prohibited above.
 ---------------------------------------------------------------
  

 Cite this work as:
 Gaussian 16, Revision C.01,
 M. J. Frisch, G. W. Trucks, H. B. Schlegel, G. E. Scuseria, 
 M. A. Robb, J. R. Cheeseman, G. Scalmani, V. Barone, 
 G. A. Petersson, H. Nakatsuji, X. Li, M. Caricato, A. V. Marenich, 
 J. Bloino, B. G. Janesko, R. Gomperts, B. Mennucci, H. P. Hratchian, 
 J. V. Ortiz, A. F. Izmaylov, J. L. Sonnenberg, D. Williams-Young, 
 F. Ding, F. Lipparini, F. Egidi, J. Goings, B. Peng, A. Petrone, 
 T. Henderson, D. Ranasinghe, V. G. Zakrzewski, J. Gao, N. Rega, 
 G. Zheng, W. Liang, M. Hada, M. Ehara, K. Toyota, R. Fukuda, 
 J. Hasegawa, M. Ishida, T. Nakajima, Y. Honda, O. Kitao, H. Nakai, 
 T. Vreven, K. Throssell, J. A. Montgomery, Jr., J. E. Peralta, 
 F. Ogliaro, M. J. Bearpark, J. J. Heyd, E. N. Brothers, K. N. Kudin, 
 V. N. Staroverov, T. A. Keith, R. Kobayashi, J. Normand, 
 K. Raghavachari, A. P. Rendell, J. C. Burant, S. S. Iyengar, 
 J. Tomasi, M. Cossi, J. M. Millam, M. Klene, C. Adamo, R. Cammi, 
 J. W. Ochterski, R. L. Martin, K. Morokuma, O. Farkas, 
 J. B. Foresman, and D. J. Fox, Gaussian, Inc., Wallingford CT, 2019.
 
 ******************************************
 Gaussian 16:  ES64L-G16RevC.01  3-Jul-2019
                18-Nov-2024 
 ******************************************
 %LindaWorkers=c1-41-ib
 %NProcShared=4
 Will use up to    4 processors via shared memory.
 %mem=25GB
 %chk=mol61.chk
 SetLPE:    new flags="-opt 'Tsnet.Node.lindarsharg: ssh'  -nodelist 'c1-41-ib.saga' -env GAUSS_MDEF=3355443200 -env GAUSS_EXEDIR="/cluster/software/Gaussian/g16_C.01/bsd:/cluster/software/Gaussian/g16_C.01""
 Will use up to    1 processors via Linda.
 -----------------------------------------------------------------
 #RHF/STO-3G int=nobasistransform Symmetry=None 5D 7F Pop=NBO7Read
 -----------------------------------------------------------------
 1/38=1,163=2,172=1/1;
 2/12=2,15=3,17=6,18=5,40=1/2;
 3/6=3,8=11,11=1,25=1,30=1,60=-1,116=1/1,2,3;
 4//1;
 5/5=2,38=5/2;
 6/7=2,8=2,9=2,10=2,28=1,40=2,113=1,114=1,124=2103/1,12;
 99/5=1,9=1/99;
 ---------
 mol61-NBO
 ---------
 Symbolic Z-matrix:
 Charge =  0 Multiplicity = 1
 O                     0.        0.       -1.69924 
 C                     0.        0.       -0.52049 
 S                     0.        0.        1.04481 
 
                          Input orientation:                          
 ---------------------------------------------------------------------
 Center     Atomic      Atomic             Coordinates (Angstroms)
 Number     Number       Type             X           Y           Z
 ---------------------------------------------------------------------
      1          8           0        0.000000    0.000000   -1.699243
      2          6           0        0.000000    0.000000   -0.520492
      3         16           0        0.000000    0.000000    1.044806
 ---------------------------------------------------------------------
                    Distance matrix (angstroms):
                    1          2          3
     1  O    0.000000
     2  C    1.178751   0.000000
     3  S    2.744049   1.565298   0.000000
 Symmetry turned off by external request.
 Stoichiometry    COS
 Rotational constants (GHZ):           0.0000000           5.9924171           5.9924171
 Standard basis: STO-3G (5D, 7F)
    19 basis functions,    57 primitive gaussians,    19 cartesian basis functions
    15 alpha electrons       15 beta electrons
       nuclear repulsion energy        78.6874026680 Hartrees.
 NAtoms=    3 NActive=    3 NUniq=    3 SFac= 1.00D+00 NAtFMM=   60 NAOKFM=F Big=F
 Integral buffers will be    131072 words long.
 Raffenetti 1 integral format.
 Two-electron integral symmetry is turned off.
 One-electron integrals computed using PRISM.
 NBasis=    19 RedAO= T EigKep=  2.17D-01  NBF=    19
 NBsUse=    19 1.00D-06 EigRej= -1.00D+00 NBFU=    19
 ExpMin= 2.22D-01 ExpMax= 5.33D+02 ExpMxC= 5.33D+02 IAcc=3 IRadAn=         5 AccDes= 0.00D+00
 Harris functional with IExCor=  205 and IRadAn=       5 diagonalized for initial guess.
 HarFok:  IExCor=  205 AccDes= 0.00D+00 IRadAn=         5 IDoV= 1 UseB2=F ITyADJ=14
 ICtDFT=  3500011 ScaDFX=  1.000000  1.000000  1.000000  1.000000
 FoFCou: FMM=F IPFlag=           0 FMFlag=      100000 FMFlg1=           0
         NFxFlg=           0 DoJE=T BraDBF=F KetDBF=T FulRan=T
         wScrn=  0.000000 ICntrl=       500 IOpCl=  0 I1Cent=   200000004 NGrid=           0
         NMat0=    1 NMatS0=      1 NMatT0=    0 NMatD0=    1 NMtDS0=    0 NMtDT0=    0
 Symmetry not used in FoFCou.
 Keep R1 ints in memory in canonical form, NReq=822901.
 Requested convergence on RMS density matrix=1.00D-08 within 128 cycles.
 Requested convergence on MAX density matrix=1.00D-06.
 Requested convergence on             energy=1.00D-06.
 No special actions if energy rises.
 SCF Done:  E(RHF) =  -504.403571841     A.U. after   10 cycles
            NFock= 10  Conv=0.59D-08     -V/T= 2.0112

 **********************************************************************

            Population analysis using the SCF Density.

 **********************************************************************

 Alpha  occ. eigenvalues --  -90.72890 -20.37631 -11.17525  -8.63887  -6.27130
 Alpha  occ. eigenvalues --   -6.26654  -6.26654  -1.40444  -0.98310  -0.64551
 Alpha  occ. eigenvalues --   -0.55640  -0.55640  -0.49622  -0.27748  -0.27748
 Alpha virt. eigenvalues --    0.27531   0.27531   0.49077   1.07841
          Condensed to atoms (all electrons):
               1          2          3
     1  O    7.712142   0.489666  -0.008284
     2  C    0.489666   5.038987   0.357056
     3  S   -0.008284   0.357056  15.571996
 Mulliken charges:
               1
     1  O   -0.193524
     2  C    0.114291
     3  S    0.079233
 Sum of Mulliken charges =   0.00000
 Mulliken charges with hydrogens summed into heavy atoms:
               1
     1  O   -0.193524
     2  C    0.114291
     3  S    0.079233
 Electronic spatial extent (au):  <R**2>=            197.8072
 Charge=              0.0000 electrons
 Dipole moment (field-independent basis, Debye):
    X=              0.0000    Y=             -0.0000    Z=              0.1903  Tot=              0.1903
 Quadrupole moment (field-independent basis, Debye-Ang):
   XX=            -19.7855   YY=            -19.7855   ZZ=            -23.8355
   XY=              0.0000   XZ=              0.0000   YZ=              0.0000
 Traceless Quadrupole moment (field-independent basis, Debye-Ang):
   XX=              1.3500   YY=              1.3500   ZZ=             -2.7000
   XY=              0.0000   XZ=              0.0000   YZ=              0.0000
 Octapole moment (field-independent basis, Debye-Ang**2):
  XXX=              0.0000  YYY=              0.0000  ZZZ=              3.7773  XYY=              0.0000
  XXY=              0.0000  XXZ=             -1.7897  XZZ=              0.0000  YZZ=             -0.0000
  YYZ=             -1.7897  XYZ=             -0.0000
 Hexadecapole moment (field-independent basis, Debye-Ang**3):
 XXXX=            -15.1301 YYYY=            -15.1301 ZZZZ=           -181.0155 XXXY=              0.0000
 XXXZ=              0.0000 YYYX=              0.0000 YYYZ=              0.0000 ZZZX=              0.0000
 ZZZY=             -0.0000 XXYY=             -5.0434 XXZZ=            -30.8695 YYZZ=            -30.8695
 XXYZ=              0.0000 YYXZ=              0.0000 ZZXY=              0.0000
 N-N= 7.868740266799D+01 E-N=-1.355171227890D+03  KE= 4.988307627671D+02
 Running external command "gaunbo7 R"
         input file       "/cluster/work/users/beto93/mol61/Gau-508774.EIn"
         output file      "/cluster/work/users/beto93/mol61/Gau-508774.EOu"
         message file     "/cluster/work/users/beto93/mol61/Gau-508774.EMs"
         fchk file        "/cluster/work/users/beto93/mol61/Gau-508774.EFC"
         mat. el file     "/cluster/work/users/beto93/mol61/Gau-508774.EUF"

 Writing WrtUnf unformatted file "/cluster/work/users/beto93/mol61/Gau-508774.EUF"
 Gaussian matrix elements                                         Version   2 NLab=11 Len12L=8 Len4L=8
 Write SHELL TO ATOM MAP                   from file      0 offset           0 length                   7 to matrix element file.
 Write SHELL TYPES                         from file      0 offset           0 length                   7 to matrix element file.
 Write NUMBER OF PRIMITIVES PER SHELL      from file      0 offset           0 length                   7 to matrix element file.
 Write PRIMITIVE EXPONENTS                 from file      0 offset           0 length                  21 to matrix element file.
 Write CONTRACTION COEFFICIENTS            from file      0 offset           0 length                  21 to matrix element file.
 Write P(S=P) CONTRACTION COEFFICIENTS     from file      0 offset           0 length                  21 to matrix element file.
 Write COORDINATES OF EACH SHELL           from file      0 offset           0 length                  21 to matrix element file.
 Write BONDS PER ATOM                      from file      0 offset           0 length                   3 to matrix element file.
 Write BONDED ATOMS                        from file      0 offset           0 length                   4 to matrix element file.
 Write BOND TYPES                          from file      0 offset           0 length                   4 to matrix element file.
 Write ONIOM CHARGE/MULT                   from file      0 offset           0 length                  32 to matrix element file.
 Write ONIOM ATOM LAYERS                   from file      0 offset           0 length                   3 to matrix element file.
 Write ONIOM ATOM MODIFIERS                from file      0 offset           0 length                   3 to matrix element file.
 Write ONIOM ATOM TYPES                    from file      0 offset           0 length                   3 to matrix element file.
 Write ONIOM LINK ATOMS                    from file      0 offset           0 length                   3 to matrix element file.
 Write ONIOM LINK CHARGES                  from file      0 offset           0 length                   3 to matrix element file.
 Write ONIOM LINK DISTANCES                from file      0 offset           0 length                  12 to matrix element file.
 Write SYMINF INTS                         from file      0 offset           0 length                  26 to matrix element file.
 Write ROTTR TO SO                         from file      0 offset           0 length                  12 to matrix element file.
 Write GAUSSIAN SCALARS                    from file    501 offset           0 to matrix element file.
 Write OPTIMIZATION FLAGS                  from file      0 offset           0 length                   3 to matrix element file.
 Write INTEGER ISO                         from file      0 offset           0 length                   3 to matrix element file.
 Write REAL ZEFFECTIVE                     from file      0 offset           0 length                   3 to matrix element file.
 Write REAL ZNUCLEAR                       from file      0 offset           0 length                   3 to matrix element file.
 Write MULLIKEN CHARGES                    from file      0 offset           0 length                   3 to matrix element file.
 Write NUCLEAR GRADIENT                    from file  10584 offset           0 length                   9 to matrix element file.
 Array NUCLEAR FORCE CONSTANTS              on  file  10585 does not exist.
 Write ELECTRIC DIPOLE MOMENT              from file      0 offset           0 length                   3 to matrix element file.
 Write NON-ADIABATIC COUPLING              from file  10810 offset           0 length                   9 to matrix element file.
 Write FINITE EM FIELD                     from file  10521 offset           0 length                  35 to matrix element file.
 Write OVERLAP                             from file  10514 offset           0 length                 190 to matrix element file.
 Write CORE HAMILTONIAN ALPHA              from file  10515 offset           0 length                 190 to matrix element file.
 Write CORE HAMILTONIAN BETA               from file  10515 offset         190 length                 190 to matrix element file.
 Write KINETIC ENERGY                      from file  10516 offset           0 length                 190 to matrix element file.
 Write ORTHOGONAL BASIS                    from file  10685 offset           0 length                 361 to matrix element file.
 Write DIPOLE INTEGRALS                    from file  10518 offset           0 length                 570 to matrix element file.
 Array DIP VEL INTEGRALS                    on  file  10572 does not exist.
 Array R X DEL INTEGRALS                    on  file  10572 does not exist.
 Write ALPHA ORBITAL ENERGIES              from file      0 offset           0 length                  19 to matrix element file.
 Write ALPHA MO COEFFICIENTS               from file  10524 offset           0 length                 361 to matrix element file.
 Write ALPHA DENSITY MATRIX                from file      0 offset           0 length                 190 to matrix element file.
 Write ALPHA FOCK MATRIX                   from file  10536 offset           0 length                 190 to matrix element file.
 Write ENERGY-WEIGHTED DENSITY             from file  10571 offset           0 length                 190 to matrix element file.
 Write ALPHA SCF DENSITY MATRIX            from file      0 offset           0 length                 190 to matrix element file.
 No 2e integrals to process.
 Perform NBO analysis...executing G16NBO...

 *********************************** NBO 7.0 ***********************************
             N A T U R A L   A T O M I C   O R B I T A L   A N D
          N A T U R A L   B O N D   O R B I T A L   A N A L Y S I S
 **************************** Espen Tangen (S101595) ***************************
  (c) Copyright 1996-2021 Board of Regents of the University of Wisconsin System
      on behalf of the Theoretical Chemistry Institute.  All rights reserved.

          Cite this program [NBO 7.0.10 (8-Feb-2021)] as:

          NBO 7.0.  E. D. Glendening, J. K. Badenhoop, A. E. Reed,
          J. E. Carpenter, J. A. Bohmann, C. M. Morales, P. Karafiloglou,
          C. R. Landis, and F. Weinhold, Theoretical Chemistry Institute,
          University of Wisconsin, Madison, WI (2018)

       /NPA    / : Natural Population Analysis
       /AOPNAO / : Print the AO to PNAO transformation
       /AONAO  / : Print the AO to NAO transformation
       /AOMO   / : Print the MOs in the AO basis
       /BOAO   / : Print the AO bond-order matrix
       /DMAO   / : Print the AO density matrix
       /DMPNAO / : Print the PNAO density matrix
       /DMNAO  / : Print the NAO density matrix
       /DMMO   / : Print the MO density matrix
       /SAO    / : Print the AO overlap matrix
       /SPNAO  / : Print the PNAO overlap matrix
       /DETAIL / : Write details of NBO search
       /ARCHIVE/ : Write the archive file to lfn47
       /AOINFO / : Write AO information to lfn31
       /FILE   / : Set to mol61.gen*

 Filename set to mol61.gen1

 Job title: mol61-NBO


 MOs in the AO basis:

           AO          1       2       3       4       5       6       7       8
      ------------ ------- ------- ------- ------- ------- ------- ------- -------
   1.  O 1 (s)      0.0000  0.9942 -0.0001  0.0000  0.0001  0.0000  0.0000 -0.2193
   2.  O 1 (s)      0.0001  0.0268 -0.0049 -0.0003  0.0005  0.0000  0.0000  0.7589
   3.  O 1 (px)     0.0000  0.0000  0.0000  0.0000  0.0000  0.0009 -0.0001  0.0000
   4.  O 1 (py)     0.0000  0.0000  0.0000  0.0000  0.0000  0.0001  0.0009  0.0000
   5.  O 1 (pz)     0.0000  0.0063 -0.0006 -0.0002  0.0003  0.0000  0.0000  0.1869
   6.  C 2 (s)     -0.0001  0.0004  0.9931  0.0008 -0.0007  0.0000  0.0000 -0.1252
   7.  C 2 (s)      0.0007 -0.0073  0.0293 -0.0121  0.0186  0.0000  0.0000  0.2666
   8.  C 2 (px)     0.0000  0.0000  0.0000  0.0000  0.0000 -0.0054  0.0004  0.0000
   9.  C 2 (py)     0.0000  0.0000  0.0000  0.0000  0.0000 -0.0004 -0.0054  0.0000
  10.  C 2 (pz)     0.0006  0.0074  0.0001 -0.0086  0.0125  0.0000  0.0000 -0.1742
  11.  S 3 (s)      0.9942  0.0000 -0.0001 -0.3674 -0.0068  0.0000  0.0000  0.0043
  12.  S 3 (s)      0.0171  0.0000  0.0000  1.0471  0.0195  0.0000  0.0000 -0.0139
  13.  S 3 (px)     0.0000  0.0000  0.0000  0.0000  0.0000  0.9829 -0.0714  0.0000
  14.  S 3 (py)     0.0000  0.0000  0.0000  0.0000  0.0000  0.0714  0.9829  0.0000
  15.  S 3 (pz)    -0.0002 -0.0001 -0.0005 -0.0147  0.9824  0.0000  0.0000  0.0098
  16.  S 3 (s)     -0.0025 -0.0007 -0.0052  0.0531 -0.0121  0.0000  0.0000  0.0473
  17.  S 3 (px)     0.0000  0.0000  0.0000  0.0000  0.0000  0.0516 -0.0037  0.0000
  18.  S 3 (py)     0.0000  0.0000  0.0000  0.0000  0.0000  0.0037  0.0516  0.0000
  19.  S 3 (pz)     0.0005  0.0006  0.0045 -0.0100  0.0655  0.0000  0.0000 -0.0309

           AO          9      10      11      12      13      14      15      16
      ------------ ------- ------- ------- ------- ------- ------- ------- -------
   1.  O 1 (s)      0.0524 -0.1230  0.0000  0.0000  0.0232  0.0000  0.0000  0.0000
   2.  O 1 (s)     -0.1930  0.6192  0.0000  0.0000 -0.1572  0.0000  0.0000  0.0000
   3.  O 1 (px)     0.0000  0.0000  0.6584  0.1646  0.0000 -0.4464 -0.1787 -0.5451
   4.  O 1 (py)     0.0000  0.0000 -0.1646  0.6584  0.0000  0.1787 -0.4464 -0.2574
   5.  O 1 (pz)     0.0413 -0.6105  0.0000  0.0000  0.3082  0.0000  0.0000  0.0000
   6.  C 2 (s)     -0.1375  0.1264  0.0000  0.0000  0.0803  0.0000  0.0000  0.0000
   7.  C 2 (s)      0.4162 -0.4326  0.0000  0.0000 -0.3577  0.0000  0.0000  0.0000
   8.  C 2 (px)     0.0000  0.0000  0.5220  0.1305  0.0000  0.1529  0.0612  0.7973
   9.  C 2 (py)     0.0000  0.0000 -0.1305  0.5220  0.0000 -0.0612  0.1529  0.3765
  10.  C 2 (pz)     0.2956  0.2086  0.0000  0.0000 -0.4389  0.0000  0.0000  0.0000
  11.  S 3 (s)      0.0696  0.0347  0.0000  0.0000  0.0553  0.0000  0.0000  0.0000
  12.  S 3 (s)     -0.2423 -0.1155  0.0000  0.0000 -0.1745  0.0000  0.0000  0.0000
  13.  S 3 (px)     0.0000  0.0000 -0.0700 -0.0175  0.0000 -0.2518 -0.1008  0.1362
  14.  S 3 (py)     0.0000  0.0000  0.0175 -0.0700  0.0000  0.1008 -0.2518  0.0643
  15.  S 3 (pz)     0.0747 -0.0304  0.0000  0.0000 -0.1696  0.0000  0.0000  0.0000
  16.  S 3 (s)      0.6132  0.3836  0.0000  0.0000  0.7447  0.0000  0.0000  0.0000
  17.  S 3 (px)     0.0000  0.0000  0.2060  0.0515  0.0000  0.8192  0.3280 -0.4831
  18.  S 3 (py)     0.0000  0.0000 -0.0515  0.2060  0.0000 -0.3280  0.8192 -0.2281
  19.  S 3 (pz)    -0.1468  0.0890  0.0000  0.0000  0.4477  0.0000  0.0000  0.0000

           AO         17      18      19
      ------------ ------- ------- -------
   1.  O 1 (s)      0.0000  0.0557 -0.1117
   2.  O 1 (s)      0.0000 -0.3529  0.9121
   3.  O 1 (px)     0.2574  0.0000  0.0000
   4.  O 1 (py)    -0.5451  0.0000  0.0000
   5.  O 1 (pz)     0.0000 -0.4784  0.8748
   6.  C 2 (s)      0.0000 -0.1878  0.0487
   7.  C 2 (s)      0.0000  1.1889 -0.3765
   8.  C 2 (px)    -0.3765  0.0000  0.0000
   9.  C 2 (py)     0.7973  0.0000  0.0000
  10.  C 2 (pz)     0.0000  0.2138  1.4231
  11.  S 3 (s)      0.0000 -0.0296 -0.0180
  12.  S 3 (s)      0.0000  0.0834  0.0395
  13.  S 3 (px)    -0.0643  0.0000  0.0000
  14.  S 3 (py)     0.1362  0.0000  0.0000
  15.  S 3 (pz)     0.0000 -0.2698 -0.1333
  16.  S 3 (s)      0.0000 -0.5292 -0.4673
  17.  S 3 (px)     0.2281  0.0000  0.0000
  18.  S 3 (py)    -0.4831  0.0000  0.0000
  19.  S 3 (pz)     0.0000  1.0340  0.6236


 AO overlap matrix:

           AO          1       2       3       4       5       6       7       8
      ------------ ------- ------- ------- ------- ------- ------- ------- -------
   1.  O 1 (s)      1.0000  0.2367  0.0000  0.0000  0.0000  0.0000  0.0398  0.0000
   2.  O 1 (s)      0.2367  1.0000  0.0000  0.0000  0.0000  0.0405  0.3824  0.0000
   3.  O 1 (px)     0.0000  0.0000  1.0000  0.0000  0.0000  0.0000  0.0000  0.2255
   4.  O 1 (py)     0.0000  0.0000  0.0000  1.0000  0.0000  0.0000  0.0000  0.0000
   5.  O 1 (pz)     0.0000  0.0000  0.0000  0.0000  1.0000  0.0675  0.3321  0.0000
   6.  C 2 (s)      0.0000  0.0405  0.0000  0.0000  0.0675  1.0000  0.2484  0.0000
   7.  C 2 (s)      0.0398  0.3824  0.0000  0.0000  0.3321  0.2484  1.0000  0.0000
   8.  C 2 (px)     0.0000  0.0000  0.2255  0.0000  0.0000  0.0000  0.0000  1.0000
   9.  C 2 (py)     0.0000  0.0000  0.0000  0.2255  0.0000  0.0000  0.0000  0.0000
  10.  C 2 (pz)    -0.0672 -0.4586  0.0000  0.0000 -0.3133  0.0000  0.0000  0.0000
  11.  S 3 (s)      0.0000  0.0000  0.0000  0.0000  0.0000  0.0000  0.0054  0.0000
  12.  S 3 (s)      0.0000  0.0000  0.0000  0.0000  0.0001  0.0000  0.0425  0.0000
  13.  S 3 (px)     0.0000  0.0000  0.0000  0.0000  0.0000  0.0000  0.0000  0.0097
  14.  S 3 (py)     0.0000  0.0000  0.0000  0.0000  0.0000  0.0000  0.0000  0.0000
  15.  S 3 (pz)     0.0000 -0.0001  0.0000  0.0000 -0.0002  0.0000 -0.0226  0.0000
  16.  S 3 (s)      0.0004  0.0156  0.0000  0.0000  0.0231  0.0320  0.3257  0.0000
  17.  S 3 (px)     0.0000  0.0000  0.0052  0.0000  0.0000  0.0000  0.0000  0.1844
  18.  S 3 (py)     0.0000  0.0000  0.0000  0.0052  0.0000  0.0000  0.0000  0.0000
  19.  S 3 (pz)    -0.0010 -0.0277  0.0000  0.0000 -0.0387 -0.0536 -0.3824  0.0000

           AO          9      10      11      12      13      14      15      16
      ------------ ------- ------- ------- ------- ------- ------- ------- -------
   1.  O 1 (s)      0.0000 -0.0672  0.0000  0.0000  0.0000  0.0000  0.0000  0.0004
   2.  O 1 (s)      0.0000 -0.4586  0.0000  0.0000  0.0000  0.0000 -0.0001  0.0156
   3.  O 1 (px)     0.0000  0.0000  0.0000  0.0000  0.0000  0.0000  0.0000  0.0000
   4.  O 1 (py)     0.2255  0.0000  0.0000  0.0000  0.0000  0.0000  0.0000  0.0000
   5.  O 1 (pz)     0.0000 -0.3133  0.0000  0.0001  0.0000  0.0000 -0.0002  0.0231
   6.  C 2 (s)      0.0000  0.0000  0.0000  0.0000  0.0000  0.0000  0.0000  0.0320
   7.  C 2 (s)      0.0000  0.0000  0.0054  0.0425  0.0000  0.0000 -0.0226  0.3257
   8.  C 2 (px)     0.0000  0.0000  0.0000  0.0000  0.0097  0.0000  0.0000  0.0000
   9.  C 2 (py)     1.0000  0.0000  0.0000  0.0000  0.0000  0.0097  0.0000  0.0000
  10.  C 2 (pz)     0.0000  1.0000  0.0091  0.0713  0.0000  0.0000 -0.0356  0.3492
  11.  S 3 (s)      0.0000  0.0091  1.0000  0.3355  0.0000  0.0000  0.0000  0.0143
  12.  S 3 (s)      0.0000  0.0713  0.3355  1.0000  0.0000  0.0000  0.0000  0.2431
  13.  S 3 (px)     0.0000  0.0000  0.0000  0.0000  1.0000  0.0000  0.0000  0.0000
  14.  S 3 (py)     0.0097  0.0000  0.0000  0.0000  0.0000  1.0000  0.0000  0.0000
  15.  S 3 (pz)     0.0000 -0.0356  0.0000  0.0000  0.0000  0.0000  1.0000  0.0000
  16.  S 3 (s)      0.0000  0.3492  0.0143  0.2431  0.0000  0.0000  0.0000  1.0000
  17.  S 3 (px)     0.0000  0.0000  0.0000  0.0000  0.2574  0.0000  0.0000  0.0000
  18.  S 3 (py)     0.1844  0.0000  0.0000  0.0000  0.0000  0.2574  0.0000  0.0000
  19.  S 3 (pz)     0.0000 -0.3468  0.0000  0.0000  0.0000  0.0000  0.2574  0.0000

           AO         17      18      19
      ------------ ------- ------- -------
   1.  O 1 (s)      0.0000  0.0000 -0.0010
   2.  O 1 (s)      0.0000  0.0000 -0.0277
   3.  O 1 (px)     0.0052  0.0000  0.0000
   4.  O 1 (py)     0.0000  0.0052  0.0000
   5.  O 1 (pz)     0.0000  0.0000 -0.0387
   6.  C 2 (s)      0.0000  0.0000 -0.0536
   7.  C 2 (s)      0.0000  0.0000 -0.3824
   8.  C 2 (px)     0.1844  0.0000  0.0000
   9.  C 2 (py)     0.0000  0.1844  0.0000
  10.  C 2 (pz)     0.0000  0.0000 -0.3468
  11.  S 3 (s)      0.0000  0.0000  0.0000
  12.  S 3 (s)      0.0000  0.0000  0.0000
  13.  S 3 (px)     0.2574  0.0000  0.0000
  14.  S 3 (py)     0.0000  0.2574  0.0000
  15.  S 3 (pz)     0.0000  0.0000  0.2574
  16.  S 3 (s)      0.0000  0.0000  0.0000
  17.  S 3 (px)     1.0000  0.0000  0.0000
  18.  S 3 (py)     0.0000  1.0000  0.0000
  19.  S 3 (pz)     0.0000  0.0000  1.0000


 AO bond-order matrix:

           AO          1       2       3       4       5       6       7       8
      ------------ ------- ------- ------- ------- ------- ------- ------- -------
   1.  O 1 (s)      2.1100 -0.4595  0.0000  0.0000  0.0994  0.0137  0.0021  0.0000
   2.  O 1 (s)     -0.4595  2.0440  0.0000  0.0000 -0.5849 -0.0153 -0.1801  0.0000
   3.  O 1 (px)     0.0000  0.0000  1.3834  0.0000  0.0000  0.0000  0.0000  0.5719
   4.  O 1 (py)     0.0000  0.0000  0.0000  1.3834  0.0000  0.0000  0.0000  0.0000
   5.  O 1 (pz)     0.0994 -0.5849  0.0000  0.0000  1.0087 -0.1642  0.4417  0.0000
   6.  C 2 (s)      0.0137 -0.0153  0.0000  0.0000 -0.1642  2.0864 -0.2898  0.0000
   7.  C 2 (s)      0.0021 -0.1801  0.0000  0.0000  0.4417 -0.2898  1.1217  0.0000
   8.  C 2 (px)     0.0000  0.0000  0.5719  0.0000  0.0000  0.0000  0.0000  0.6333
   9.  C 2 (py)     0.0000  0.0000  0.0000  0.5719  0.0000  0.0000  0.0000  0.0000
  10.  C 2 (pz)     0.0504  0.0181  0.0000  0.0000 -0.5658 -0.0553  0.2873  0.0000
  11.  S 3 (s)     -0.0005  0.0055  0.0000  0.0000 -0.0006 -0.0035  0.0007  0.0000
  12.  S 3 (s)      0.0008 -0.0165  0.0000  0.0000  0.0078  0.0146 -0.0091  0.0000
  13.  S 3 (px)     0.0000  0.0000  0.1647  0.0000  0.0000  0.0000  0.0000 -0.1777
  14.  S 3 (py)     0.0000  0.0000  0.0000  0.1647  0.0000  0.0000  0.0000  0.0000
  15.  S 3 (pz)     0.0031  0.0027  0.0000  0.0000 -0.0569 -0.0603  0.2519  0.0000
  16.  S 3 (s)     -0.0177  0.0760  0.0000  0.0000  0.0591  0.0257 -0.3309  0.0000
  17.  S 3 (px)     0.0000  0.0000 -0.5603  0.0000  0.0000  0.0000  0.0000  0.5186
  18.  S 3 (py)     0.0000  0.0000  0.0000 -0.5603  0.0000  0.0000  0.0000  0.0000
  19.  S 3 (pz)    -0.0017 -0.0206  0.0000  0.0000  0.1437  0.1512 -0.5331  0.0000

           AO          9      10      11      12      13      14      15      16
      ------------ ------- ------- ------- ------- ------- ------- ------- -------
   1.  O 1 (s)      0.0000  0.0504 -0.0005  0.0008  0.0000  0.0000  0.0031 -0.0177
   2.  O 1 (s)      0.0000  0.0181  0.0055 -0.0165  0.0000  0.0000  0.0027  0.0760
   3.  O 1 (px)     0.0000  0.0000  0.0000  0.0000  0.1647  0.0000  0.0000  0.0000
   4.  O 1 (py)     0.5719  0.0000  0.0000  0.0000  0.0000  0.1647  0.0000  0.0000
   5.  O 1 (pz)     0.0000 -0.5658 -0.0006  0.0078  0.0000  0.0000 -0.0569  0.0591
   6.  C 2 (s)      0.0000 -0.0553 -0.0035  0.0146  0.0000  0.0000 -0.0603  0.0257
   7.  C 2 (s)      0.0000  0.2873  0.0007 -0.0091  0.0000  0.0000  0.2519 -0.3309
   8.  C 2 (px)     0.0000  0.0000  0.0000  0.0000 -0.1777  0.0000  0.0000  0.0000
   9.  C 2 (py)     0.6333  0.0000  0.0000  0.0000  0.0000 -0.1777  0.0000  0.0000
  10.  C 2 (pz)     0.0000  0.7083  0.0129 -0.0509  0.0000  0.0000  0.2017 -0.1489
  11.  S 3 (s)      0.0000  0.0129  2.2650 -0.7968  0.0000  0.0000 -0.0133  0.1509
  12.  S 3 (s)      0.0000 -0.0509 -0.7968  2.3995  0.0000  0.0000  0.0372 -0.5362
  13.  S 3 (px)     0.0000  0.0000  0.0000  0.0000  2.1000  0.0000  0.0000  0.0000
  14.  S 3 (py)    -0.1777  0.0000  0.0000  0.0000  0.0000  2.1000  0.0000  0.0000
  15.  S 3 (pz)     0.0000  0.2017 -0.0133  0.0372  0.0000  0.0000  2.0014 -0.2086
  16.  S 3 (s)      0.0000 -0.1489  0.1509 -0.5362  0.0000  0.0000 -0.2086  2.1661
  17.  S 3 (px)     0.0000  0.0000  0.0000  0.0000 -0.4073  0.0000  0.0000  0.0000
  18.  S 3 (py)     0.5186  0.0000  0.0000  0.0000  0.0000 -0.4073  0.0000  0.0000
  19.  S 3 (pz)     0.0000 -0.4301  0.0426 -0.1232  0.0000  0.0000 -0.0509  0.5494

           AO         17      18      19
      ------------ ------- ------- -------
   1.  O 1 (s)      0.0000  0.0000 -0.0017
   2.  O 1 (s)      0.0000  0.0000 -0.0206
   3.  O 1 (px)    -0.5603  0.0000  0.0000
   4.  O 1 (py)     0.0000 -0.5603  0.0000
   5.  O 1 (pz)     0.0000  0.0000  0.1437
   6.  C 2 (s)      0.0000  0.0000  0.1512
   7.  C 2 (s)      0.0000  0.0000 -0.5331
   8.  C 2 (px)     0.5186  0.0000  0.0000
   9.  C 2 (py)     0.0000  0.5186  0.0000
  10.  C 2 (pz)     0.0000  0.0000 -0.4301
  11.  S 3 (s)      0.0000  0.0000  0.0426
  12.  S 3 (s)      0.0000  0.0000 -0.1232
  13.  S 3 (px)    -0.4073  0.0000  0.0000
  14.  S 3 (py)     0.0000 -0.4073  0.0000
  15.  S 3 (pz)     0.0000  0.0000 -0.0509
  16.  S 3 (s)      0.0000  0.0000  0.5494
  17.  S 3 (px)     1.6530  0.0000  0.0000
  18.  S 3 (py)     0.0000  1.6530  0.0000
  19.  S 3 (pz)     0.0000  0.0000  0.4706


 AO density matrix:

           AO          1       2       3       4       5       6       7       8
      ------------ ------- ------- ------- ------- ------- ------- ------- -------
   1.  O 1 (s)      1.9999  0.4746  0.0000  0.0000  0.0056  0.0001  0.0756  0.0000
   2.  O 1 (s)      0.4746  1.9896  0.0000  0.0000 -0.0481  0.0800  0.7963  0.0000
   3.  O 1 (px)     0.0000  0.0000  1.6690  0.0000  0.0000  0.0000  0.0000  0.9788
   4.  O 1 (py)     0.0000  0.0000  0.0000  1.6690  0.0000  0.0000  0.0000  0.0000
   5.  O 1 (pz)     0.0056 -0.0481  0.0000  0.0000  1.7588  0.1285  0.8531  0.0000
   6.  C 2 (s)      0.0001  0.0800  0.0000  0.0000  0.1285  1.9997  0.5041  0.0000
   7.  C 2 (s)      0.0756  0.7963  0.0000  0.0000  0.8531  0.5041  1.8022  0.0000
   8.  C 2 (px)     0.0000  0.0000  0.9788  0.0000  0.0000  0.0000  0.0000  1.1585
   9.  C 2 (py)     0.0000  0.0000  0.0000  0.9788  0.0000  0.0000  0.0000  0.0000
  10.  C 2 (pz)    -0.1291 -0.9662  0.0000  0.0000 -0.8288 -0.0022  0.0884  0.0000
  11.  S 3 (s)      0.0000  0.0000  0.0000  0.0000 -0.0001  0.0000  0.0111  0.0000
  12.  S 3 (s)      0.0000 -0.0001  0.0000  0.0000  0.0019  0.0002  0.0802  0.0000
  13.  S 3 (px)     0.0000  0.0000  0.0176  0.0000  0.0000  0.0000  0.0000 -0.0087
  14.  S 3 (py)     0.0000  0.0000  0.0000  0.0176  0.0000  0.0000  0.0000  0.0000
  15.  S 3 (pz)     0.0001 -0.0002  0.0000  0.0000 -0.0085 -0.0008 -0.0264  0.0000
  16.  S 3 (s)      0.0006  0.0336  0.0000  0.0000  0.0420  0.0627  0.6813  0.0000
  17.  S 3 (px)     0.0000  0.0000 -0.2630  0.0000  0.0000  0.0000  0.0000  0.8048
  18.  S 3 (py)     0.0000  0.0000  0.0000 -0.2630  0.0000  0.0000  0.0000  0.0000
  19.  S 3 (pz)    -0.0031 -0.0530  0.0000  0.0000  0.0299 -0.0973 -1.0009  0.0000

           AO          9      10      11      12      13      14      15      16
      ------------ ------- ------- ------- ------- ------- ------- ------- -------
   1.  O 1 (s)      0.0000 -0.1291  0.0000  0.0000  0.0000  0.0000  0.0001  0.0006
   2.  O 1 (s)      0.0000 -0.9662  0.0000 -0.0001  0.0000  0.0000 -0.0002  0.0336
   3.  O 1 (px)     0.0000  0.0000  0.0000  0.0000  0.0176  0.0000  0.0000  0.0000
   4.  O 1 (py)     0.9788  0.0000  0.0000  0.0000  0.0000  0.0176  0.0000  0.0000
   5.  O 1 (pz)     0.0000 -0.8288 -0.0001  0.0019  0.0000  0.0000 -0.0085  0.0420
   6.  C 2 (s)      0.0000 -0.0022  0.0000  0.0002  0.0000  0.0000 -0.0008  0.0627
   7.  C 2 (s)      0.0000  0.0884  0.0111  0.0802  0.0000  0.0000 -0.0264  0.6813
   8.  C 2 (px)     0.0000  0.0000  0.0000  0.0000 -0.0087  0.0000  0.0000  0.0000
   9.  C 2 (py)     1.1585  0.0000  0.0000  0.0000  0.0000 -0.0087  0.0000  0.0000
  10.  C 2 (pz)     0.0000  1.7317  0.0185  0.1387  0.0000  0.0000 -0.0605  0.7324
  11.  S 3 (s)      0.0000  0.0185  2.0000  0.6711  0.0000  0.0000 -0.0001  0.0283
  12.  S 3 (s)      0.0000  0.1387  0.6711  1.9997  0.0000  0.0000  0.0010  0.4882
  13.  S 3 (px)     0.0000  0.0000  0.0000  0.0000  1.9991  0.0000  0.0000  0.0000
  14.  S 3 (py)    -0.0087  0.0000  0.0000  0.0000  0.0000  1.9991  0.0000  0.0000
  15.  S 3 (pz)     0.0000 -0.0605 -0.0001  0.0010  0.0000  0.0000  1.9966 -0.0068
  16.  S 3 (s)      0.0000  0.7324  0.0283  0.4882  0.0000  0.0000 -0.0068  1.9857
  17.  S 3 (px)     0.0000  0.0000  0.0000  0.0000  0.5292  0.0000  0.0000  0.0000
  18.  S 3 (py)     0.8048  0.0000  0.0000  0.0000  0.0000  0.5292  0.0000  0.0000
  19.  S 3 (pz)     0.0000 -0.8179  0.0009 -0.0120  0.0000  0.0000  0.5562  0.0833

           AO         17      18      19
      ------------ ------- ------- -------
   1.  O 1 (s)      0.0000  0.0000 -0.0031
   2.  O 1 (s)      0.0000  0.0000 -0.0530
   3.  O 1 (px)    -0.2630  0.0000  0.0000
   4.  O 1 (py)     0.0000 -0.2630  0.0000
   5.  O 1 (pz)     0.0000  0.0000  0.0299
   6.  C 2 (s)      0.0000  0.0000 -0.0973
   7.  C 2 (s)      0.0000  0.0000 -1.0009
   8.  C 2 (px)     0.8048  0.0000  0.0000
   9.  C 2 (py)     0.0000  0.8048  0.0000
  10.  C 2 (pz)     0.0000  0.0000 -0.8179
  11.  S 3 (s)      0.0000  0.0000  0.0009
  12.  S 3 (s)      0.0000  0.0000 -0.0120
  13.  S 3 (px)     0.5292  0.0000  0.0000
  14.  S 3 (py)     0.0000  0.5292  0.0000
  15.  S 3 (pz)     0.0000  0.0000  0.5562
  16.  S 3 (s)      0.0000  0.0000  0.0833
  17.  S 3 (px)     1.7741  0.0000  0.0000
  18.  S 3 (py)     0.0000  1.7741  0.0000
  19.  S 3 (pz)     0.0000  0.0000  1.4870


 MO density matrix:

      MO     1       2       3       4       5       6       7       8       9
     ---- ------  ------  ------  ------  ------  ------  ------  ------  ------
   1.     2.0000  0.0000  0.0000  0.0000  0.0000  0.0000  0.0000  0.0000  0.0000
   2.     0.0000  2.0000  0.0000  0.0000  0.0000  0.0000  0.0000  0.0000  0.0000
   3.     0.0000  0.0000  2.0000  0.0000  0.0000  0.0000  0.0000  0.0000  0.0000
   4.     0.0000  0.0000  0.0000  2.0000  0.0000  0.0000  0.0000  0.0000  0.0000
   5.     0.0000  0.0000  0.0000  0.0000  2.0000  0.0000  0.0000  0.0000  0.0000
   6.     0.0000  0.0000  0.0000  0.0000  0.0000  2.0000  0.0000  0.0000  0.0000
   7.     0.0000  0.0000  0.0000  0.0000  0.0000  0.0000  2.0000  0.0000  0.0000
   8.     0.0000  0.0000  0.0000  0.0000  0.0000  0.0000  0.0000  2.0000  0.0000
   9.     0.0000  0.0000  0.0000  0.0000  0.0000  0.0000  0.0000  0.0000  2.0000
  10.     0.0000  0.0000  0.0000  0.0000  0.0000  0.0000  0.0000  0.0000  0.0000
  11.     0.0000  0.0000  0.0000  0.0000  0.0000  0.0000  0.0000  0.0000  0.0000
  12.     0.0000  0.0000  0.0000  0.0000  0.0000  0.0000  0.0000  0.0000  0.0000
  13.     0.0000  0.0000  0.0000  0.0000  0.0000  0.0000  0.0000  0.0000  0.0000
  14.     0.0000  0.0000  0.0000  0.0000  0.0000  0.0000  0.0000  0.0000  0.0000
  15.     0.0000  0.0000  0.0000  0.0000  0.0000  0.0000  0.0000  0.0000  0.0000
  16.     0.0000  0.0000  0.0000  0.0000  0.0000  0.0000  0.0000  0.0000  0.0000
  17.     0.0000  0.0000  0.0000  0.0000  0.0000  0.0000  0.0000  0.0000  0.0000
  18.     0.0000  0.0000  0.0000  0.0000  0.0000  0.0000  0.0000  0.0000  0.0000
  19.     0.0000  0.0000  0.0000  0.0000  0.0000  0.0000  0.0000  0.0000  0.0000

      MO    10      11      12      13      14      15      16      17      18
     ---- ------  ------  ------  ------  ------  ------  ------  ------  ------
   1.     0.0000  0.0000  0.0000  0.0000  0.0000  0.0000  0.0000  0.0000  0.0000
   2.     0.0000  0.0000  0.0000  0.0000  0.0000  0.0000  0.0000  0.0000  0.0000
   3.     0.0000  0.0000  0.0000  0.0000  0.0000  0.0000  0.0000  0.0000  0.0000
   4.     0.0000  0.0000  0.0000  0.0000  0.0000  0.0000  0.0000  0.0000  0.0000
   5.     0.0000  0.0000  0.0000  0.0000  0.0000  0.0000  0.0000  0.0000  0.0000
   6.     0.0000  0.0000  0.0000  0.0000  0.0000  0.0000  0.0000  0.0000  0.0000
   7.     0.0000  0.0000  0.0000  0.0000  0.0000  0.0000  0.0000  0.0000  0.0000
   8.     0.0000  0.0000  0.0000  0.0000  0.0000  0.0000  0.0000  0.0000  0.0000
   9.     0.0000  0.0000  0.0000  0.0000  0.0000  0.0000  0.0000  0.0000  0.0000
  10.     2.0000  0.0000  0.0000  0.0000  0.0000  0.0000  0.0000  0.0000  0.0000
  11.     0.0000  2.0000  0.0000  0.0000  0.0000  0.0000  0.0000  0.0000  0.0000
  12.     0.0000  0.0000  2.0000  0.0000  0.0000  0.0000  0.0000  0.0000  0.0000
  13.     0.0000  0.0000  0.0000  2.0000  0.0000  0.0000  0.0000  0.0000  0.0000
  14.     0.0000  0.0000  0.0000  0.0000  2.0000  0.0000  0.0000  0.0000  0.0000
  15.     0.0000  0.0000  0.0000  0.0000  0.0000  2.0000  0.0000  0.0000  0.0000
  16.     0.0000  0.0000  0.0000  0.0000  0.0000  0.0000  0.0000  0.0000  0.0000
  17.     0.0000  0.0000  0.0000  0.0000  0.0000  0.0000  0.0000  0.0000  0.0000
  18.     0.0000  0.0000  0.0000  0.0000  0.0000  0.0000  0.0000  0.0000  0.0000
  19.     0.0000  0.0000  0.0000  0.0000  0.0000  0.0000  0.0000  0.0000  0.0000

      MO    19
     ---- ------
   1.     0.0000
   2.     0.0000
   3.     0.0000
   4.     0.0000
   5.     0.0000
   6.     0.0000
   7.     0.0000
   8.     0.0000
   9.     0.0000
  10.     0.0000
  11.     0.0000
  12.     0.0000
  13.     0.0000
  14.     0.0000
  15.     0.0000
  16.     0.0000
  17.     0.0000
  18.     0.0000
  19.     0.0000


 NATURAL POPULATIONS:  Natural atomic orbital occupancies

  NAO Atom No lang   Type(AO)    Occupancy      Energy
 -------------------------------------------------------
   1    O  1  s      Cor( 1s)     2.00000     -20.23080
   2    O  1  s      Val( 2s)     1.79469      -1.11528
   3    O  1  px     Val( 2p)     1.52554      -0.30036
   4    O  1  py     Val( 2p)     1.52554      -0.30036
   5    O  1  pz     Val( 2p)     1.38149      -0.19879

   6    C  2  s      Cor( 1s)     2.00000     -11.17344
   7    C  2  s      Val( 2s)     1.18279      -0.37522
   8    C  2  px     Val( 2p)     0.83021      -0.06048
   9    C  2  py     Val( 2p)     0.83021      -0.06048
  10    C  2  pz     Val( 2p)     0.87847       0.19482

  11    S  3  s      Cor( 1s)     2.00000     -90.68913
  12    S  3  s      Cor( 2s)     2.00000      -8.60174
  13    S  3  s      Val( 3s)     1.87000      -0.75779
  14    S  3  px     Cor( 2p)     1.99998      -6.26396
  15    S  3  px     Val( 3p)     1.64426      -0.20031
  16    S  3  py     Cor( 2p)     1.99998      -6.26396
  17    S  3  py     Val( 3p)     1.64426      -0.20031
  18    S  3  pz     Cor( 2p)     1.99997      -6.26888
  19    S  3  pz     Val( 3p)     0.89261       0.06554


 Summary of Natural Population Analysis:

                                     Natural Population
             Natural    ---------------------------------------------
  Atom No    Charge        Core      Valence    Rydberg      Total
 --------------------------------------------------------------------
    O  1   -0.22726      2.00000     6.22726    0.00000     8.22726
    C  2    0.27832      2.00000     3.72168    0.00000     5.72168
    S  3   -0.05106      9.99993     6.05113    0.00000    16.05106
 ====================================================================
 * Total *  0.00000     13.99992    16.00008    0.00000    30.00000

                                 Natural Population
 ---------------------------------------------------------
   Core                      13.99992 ( 99.9995% of   14)
   Valence                   16.00008 (100.0005% of   16)
   Natural Minimal Basis     30.00000 (100.0000% of   30)
   Natural Rydberg Basis      0.00000 (  0.0000% of   30)
 ---------------------------------------------------------

    Atom No         Natural Electron Configuration
 ----------------------------------------------------------------------------
      O  1      [core]2s( 1.79)2p( 4.43)
      C  2      [core]2s( 1.18)2p( 2.54)
      S  3      [core]3s( 1.87)3p( 4.18)


 PNAOs in the AO basis:

           AO          1       2       3       4       5       6       7       8
      ------------ ------- ------- ------- ------- ------- ------- ------- -------
   1.  O 1 (s)      0.9682 -0.3492  0.0000  0.0000  0.0000  0.0000  0.0000  0.0000
   2.  O 1 (s)      0.1101  1.0233  0.0000  0.0000  0.0000  0.0000  0.0000  0.0000
   3.  O 1 (px)     0.0000  0.0000  1.0000  0.0000  0.0000  0.0000  0.0000  0.0000
   4.  O 1 (py)     0.0000  0.0000  0.0000  1.0000  0.0000  0.0000  0.0000  0.0000
   5.  O 1 (pz)     0.0000  0.0000  0.0000  0.0000  1.0000  0.0000  0.0000  0.0000
   6.  C 2 (s)      0.0000  0.0000  0.0000  0.0000  0.0000  0.9903 -0.2918  0.0000
   7.  C 2 (s)      0.0000  0.0000  0.0000  0.0000  0.0000  0.0367  1.0317  0.0000
   8.  C 2 (px)     0.0000  0.0000  0.0000  0.0000  0.0000  0.0000  0.0000  1.0000
   9.  C 2 (py)     0.0000  0.0000  0.0000  0.0000  0.0000  0.0000  0.0000  0.0000
  10.  C 2 (pz)     0.0000  0.0000  0.0000  0.0000  0.0000  0.0000  0.0000  0.0000
  11.  S 3 (s)      0.0000  0.0000  0.0000  0.0000  0.0000  0.0000  0.0000  0.0000
  12.  S 3 (s)      0.0000  0.0000  0.0000  0.0000  0.0000  0.0000  0.0000  0.0000
  13.  S 3 (px)     0.0000  0.0000  0.0000  0.0000  0.0000  0.0000  0.0000  0.0000
  14.  S 3 (py)     0.0000  0.0000  0.0000  0.0000  0.0000  0.0000  0.0000  0.0000
  15.  S 3 (pz)     0.0000  0.0000  0.0000  0.0000  0.0000  0.0000  0.0000  0.0000
  16.  S 3 (s)      0.0000  0.0000  0.0000  0.0000  0.0000  0.0000  0.0000  0.0000
  17.  S 3 (px)     0.0000  0.0000  0.0000  0.0000  0.0000  0.0000  0.0000  0.0000
  18.  S 3 (py)     0.0000  0.0000  0.0000  0.0000  0.0000  0.0000  0.0000  0.0000
  19.  S 3 (pz)     0.0000  0.0000  0.0000  0.0000  0.0000  0.0000  0.0000  0.0000

           AO          9      10      11      12      13      14      15      16
      ------------ ------- ------- ------- ------- ------- ------- ------- -------
   1.  O 1 (s)      0.0000  0.0000  0.0000  0.0000  0.0000  0.0000  0.0000  0.0000
   2.  O 1 (s)      0.0000  0.0000  0.0000  0.0000  0.0000  0.0000  0.0000  0.0000
   3.  O 1 (px)     0.0000  0.0000  0.0000  0.0000  0.0000  0.0000  0.0000  0.0000
   4.  O 1 (py)     0.0000  0.0000  0.0000  0.0000  0.0000  0.0000  0.0000  0.0000
   5.  O 1 (pz)     0.0000  0.0000  0.0000  0.0000  0.0000  0.0000  0.0000  0.0000
   6.  C 2 (s)      0.0000  0.0000  0.0000  0.0000  0.0000  0.0000  0.0000  0.0000
   7.  C 2 (s)      0.0000  0.0000  0.0000  0.0000  0.0000  0.0000  0.0000  0.0000
   8.  C 2 (px)     0.0000  0.0000  0.0000  0.0000  0.0000  0.0000  0.0000  0.0000
   9.  C 2 (py)     1.0000  0.0000  0.0000  0.0000  0.0000  0.0000  0.0000  0.0000
  10.  C 2 (pz)     0.0000  1.0000  0.0000  0.0000  0.0000  0.0000  0.0000  0.0000
  11.  S 3 (s)      0.0000  0.0000  0.9856 -0.3776  0.1379  0.0000  0.0000  0.0000
  12.  S 3 (s)      0.0000  0.0000  0.0410  1.0112 -0.4240  0.0000  0.0000  0.0000
  13.  S 3 (px)     0.0000  0.0000  0.0000  0.0000  0.0000  0.9792 -0.3349  0.0000
  14.  S 3 (py)     0.0000  0.0000  0.0000  0.0000  0.0000  0.0000  0.0000  0.9792
  15.  S 3 (pz)     0.0000  0.0000  0.0000  0.0000  0.0000  0.0000  0.0000  0.0000
  16.  S 3 (s)      0.0000  0.0000 -0.0052  0.1456  1.0234  0.0000  0.0000  0.0000
  17.  S 3 (px)     0.0000  0.0000  0.0000  0.0000  0.0000  0.0716  1.0324  0.0000
  18.  S 3 (py)     0.0000  0.0000  0.0000  0.0000  0.0000  0.0000  0.0000  0.0716
  19.  S 3 (pz)     0.0000  0.0000  0.0000  0.0000  0.0000  0.0000  0.0000  0.0000

           AO         17      18      19
      ------------ ------- ------- -------
   1.  O 1 (s)      0.0000  0.0000  0.0000
   2.  O 1 (s)      0.0000  0.0000  0.0000
   3.  O 1 (px)     0.0000  0.0000  0.0000
   4.  O 1 (py)     0.0000  0.0000  0.0000
   5.  O 1 (pz)     0.0000  0.0000  0.0000
   6.  C 2 (s)      0.0000  0.0000  0.0000
   7.  C 2 (s)      0.0000  0.0000  0.0000
   8.  C 2 (px)     0.0000  0.0000  0.0000
   9.  C 2 (py)     0.0000  0.0000  0.0000
  10.  C 2 (pz)     0.0000  0.0000  0.0000
  11.  S 3 (s)      0.0000  0.0000  0.0000
  12.  S 3 (s)      0.0000  0.0000  0.0000
  13.  S 3 (px)     0.0000  0.0000  0.0000
  14.  S 3 (py)    -0.3349  0.0000  0.0000
  15.  S 3 (pz)     0.0000  0.9792 -0.3349
  16.  S 3 (s)      0.0000  0.0000  0.0000
  17.  S 3 (px)     0.0000  0.0000  0.0000
  18.  S 3 (py)     1.0324  0.0000  0.0000
  19.  S 3 (pz)     0.0000  0.0716  1.0324


 PNAO overlap matrix:

           NAO         1       2       3       4       5       6       7       8
      ------------ ------- ------- ------- ------- ------- ------- ------- -------
   1.  O 1( 1s )    1.0000  0.0000  0.0000  0.0000  0.0000  0.0074  0.0819  0.0000
   2.  O 1( 2s )    0.0000  1.0000  0.0000  0.0000  0.0000  0.0549  0.3773  0.0000
   3.  O 1( 2px)    0.0000  0.0000  1.0000  0.0000  0.0000  0.0000  0.0000  0.2255
   4.  O 1( 2py)    0.0000  0.0000  0.0000  1.0000  0.0000  0.0000  0.0000  0.0000
   5.  O 1( 2pz)    0.0000  0.0000  0.0000  0.0000  1.0000  0.0790  0.3229  0.0000
   6.  C 2( 1s )    0.0074  0.0549  0.0000  0.0000  0.0790  1.0000  0.0000  0.0000
   7.  C 2( 2s )    0.0819  0.3773  0.0000  0.0000  0.3229  0.0000  1.0000  0.0000
   8.  C 2( 2px)    0.0000  0.0000  0.2255  0.0000  0.0000  0.0000  0.0000  1.0000
   9.  C 2( 2py)    0.0000  0.0000  0.0000  0.2255  0.0000  0.0000  0.0000  0.0000
  10.  C 2( 2pz)   -0.1156 -0.4458  0.0000  0.0000 -0.3133  0.0000  0.0000  0.0000
  11.  S 3( 1s )    0.0000 -0.0001  0.0000  0.0000 -0.0001  0.0000  0.0056  0.0000
  12.  S 3( 2s )    0.0003  0.0023  0.0000  0.0000  0.0035  0.0079  0.0899  0.0000
  13.  S 3( 3s )    0.0021  0.0162  0.0000  0.0000  0.0236  0.0441  0.3165  0.0000
  14.  S 3( 2px)    0.0000  0.0000  0.0004  0.0000  0.0000  0.0000  0.0000  0.0227
  15.  S 3( 3px)    0.0000  0.0000  0.0054  0.0000  0.0000  0.0000  0.0000  0.1871
  16.  S 3( 2py)    0.0000  0.0000  0.0000  0.0004  0.0000  0.0000  0.0000  0.0000
  17.  S 3( 3py)    0.0000  0.0000  0.0000  0.0054  0.0000  0.0000  0.0000  0.0000
  18.  S 3( 2pz)   -0.0003 -0.0021  0.0000  0.0000 -0.0029 -0.0056 -0.0499  0.0000
  19.  S 3( 3pz)   -0.0041 -0.0289  0.0000  0.0000 -0.0399 -0.0690 -0.3833  0.0000

           NAO         9      10      11      12      13      14      15      16
      ------------ ------- ------- ------- ------- ------- ------- ------- -------
   1.  O 1( 1s )    0.0000 -0.1156  0.0000  0.0003  0.0021  0.0000  0.0000  0.0000
   2.  O 1( 2s )    0.0000 -0.4458 -0.0001  0.0023  0.0162  0.0000  0.0000  0.0000
   3.  O 1( 2px)    0.0000  0.0000  0.0000  0.0000  0.0000  0.0004  0.0054  0.0000
   4.  O 1( 2py)    0.2255  0.0000  0.0000  0.0000  0.0000  0.0000  0.0000  0.0004
   5.  O 1( 2pz)    0.0000 -0.3133 -0.0001  0.0035  0.0236  0.0000  0.0000  0.0000
   6.  C 2( 1s )    0.0000  0.0000  0.0000  0.0079  0.0441  0.0000  0.0000  0.0000
   7.  C 2( 2s )    0.0000  0.0000  0.0056  0.0899  0.3165  0.0000  0.0000  0.0000
   8.  C 2( 2px)    0.0000  0.0000  0.0000  0.0000  0.0000  0.0227  0.1871  0.0000
   9.  C 2( 2py)    1.0000  0.0000  0.0000  0.0000  0.0000  0.0000  0.0000  0.0227
  10.  C 2( 2pz)    0.0000  1.0000  0.0101  0.1195  0.3284  0.0000  0.0000  0.0000
  11.  S 3( 1s )    0.0000  0.0101  1.0000  0.0000  0.0000  0.0000  0.0000  0.0000
  12.  S 3( 2s )    0.0000  0.1195  0.0000  1.0000  0.0000  0.0000  0.0000  0.0000
  13.  S 3( 3s )    0.0000  0.3284  0.0000  0.0000  1.0000  0.0000  0.0000  0.0000
  14.  S 3( 2px)    0.0000  0.0000  0.0000  0.0000  0.0000  1.0000  0.0000  0.0000
  15.  S 3( 3px)    0.0000  0.0000  0.0000  0.0000  0.0000  0.0000  1.0000  0.0000
  16.  S 3( 2py)    0.0227  0.0000  0.0000  0.0000  0.0000  0.0000  0.0000  1.0000
  17.  S 3( 3py)    0.1871  0.0000  0.0000  0.0000  0.0000  0.0000  0.0000  0.0000
  18.  S 3( 2pz)    0.0000 -0.0597  0.0000  0.0000  0.0000  0.0000  0.0000  0.0000
  19.  S 3( 3pz)    0.0000 -0.3461  0.0000  0.0000  0.0000  0.0000  0.0000  0.0000

           NAO        17      18      19
      ------------ ------- ------- -------
   1.  O 1( 1s )    0.0000 -0.0003 -0.0041
   2.  O 1( 2s )    0.0000 -0.0021 -0.0289
   3.  O 1( 2px)    0.0000  0.0000  0.0000
   4.  O 1( 2py)    0.0054  0.0000  0.0000
   5.  O 1( 2pz)    0.0000 -0.0029 -0.0399
   6.  C 2( 1s )    0.0000 -0.0056 -0.0690
   7.  C 2( 2s )    0.0000 -0.0499 -0.3833
   8.  C 2( 2px)    0.0000  0.0000  0.0000
   9.  C 2( 2py)    0.1871  0.0000  0.0000
  10.  C 2( 2pz)    0.0000 -0.0597 -0.3461
  11.  S 3( 1s )    0.0000  0.0000  0.0000
  12.  S 3( 2s )    0.0000  0.0000  0.0000
  13.  S 3( 3s )    0.0000  0.0000  0.0000
  14.  S 3( 2px)    0.0000  0.0000  0.0000
  15.  S 3( 3px)    0.0000  0.0000  0.0000
  16.  S 3( 2py)    0.0000  0.0000  0.0000
  17.  S 3( 3py)    1.0000  0.0000  0.0000
  18.  S 3( 2pz)    0.0000  1.0000  0.0000
  19.  S 3( 3pz)    0.0000  0.0000  1.0000


 PNAO density matrix:

           NAO         1       2       3       4       5       6       7       8
      ------------ ------- ------- ------- ------- ------- ------- ------- -------
   1.  O 1( 1s )    2.0000  0.0000  0.0000  0.0000  0.0002  0.0148  0.1634  0.0000
   2.  O 1( 2s )    0.0000  1.9883  0.0000  0.0000 -0.0512  0.1099  0.7896  0.0000
   3.  O 1( 2px)    0.0000  0.0000  1.6690  0.0000  0.0000  0.0000  0.0000  0.9788
   4.  O 1( 2py)    0.0000  0.0000  0.0000  1.6690  0.0000  0.0000  0.0000  0.0000
   5.  O 1( 2pz)    0.0002 -0.0512  0.0000  0.0000  1.7588  0.1586  0.8426  0.0000
   6.  C 2( 1s )    0.0148  0.1099  0.0000  0.0000  0.1586  2.0000  0.0000  0.0000
   7.  C 2( 2s )    0.1634  0.7896  0.0000  0.0000  0.8426  0.0000  1.7851  0.0000
   8.  C 2( 2px)    0.0000  0.0000  0.9788  0.0000  0.0000  0.0000  0.0000  1.1585
   9.  C 2( 2py)    0.0000  0.0000  0.0000  0.9788  0.0000  0.0000  0.0000  0.0000
  10.  C 2( 2pz)   -0.2314 -0.9437  0.0000  0.0000 -0.8288  0.0011  0.0919  0.0000
  11.  S 3( 1s )    0.0000 -0.0002  0.0000  0.0000 -0.0002  0.0001  0.0111  0.0000
  12.  S 3( 2s )    0.0006  0.0049  0.0000  0.0000  0.0080  0.0157  0.1789  0.0000
  13.  S 3( 3s )    0.0044  0.0350  0.0000  0.0000  0.0422  0.0879  0.6672  0.0000
  14.  S 3( 2px)    0.0000  0.0000 -0.0016  0.0000  0.0000  0.0000  0.0000  0.0491
  15.  S 3( 3px)    0.0000  0.0000 -0.2774  0.0000  0.0000  0.0000  0.0000  0.8338
  16.  S 3( 2py)    0.0000  0.0000  0.0000 -0.0016  0.0000  0.0000  0.0000  0.0000
  17.  S 3( 3py)    0.0000  0.0000  0.0000 -0.2774  0.0000  0.0000  0.0000  0.0000
  18.  S 3( 2pz)   -0.0006 -0.0040  0.0000  0.0000 -0.0062 -0.0112 -0.0983  0.0000
  19.  S 3( 3pz)   -0.0091 -0.0548  0.0000  0.0000  0.0338 -0.1368 -1.0277  0.0000

           NAO         9      10      11      12      13      14      15      16
      ------------ ------- ------- ------- ------- ------- ------- ------- -------
   1.  O 1( 1s )    0.0000 -0.2314  0.0000  0.0006  0.0044  0.0000  0.0000  0.0000
   2.  O 1( 2s )    0.0000 -0.9437 -0.0002  0.0049  0.0350  0.0000  0.0000  0.0000
   3.  O 1( 2px)    0.0000  0.0000  0.0000  0.0000  0.0000 -0.0016 -0.2774  0.0000
   4.  O 1( 2py)    0.9788  0.0000  0.0000  0.0000  0.0000  0.0000  0.0000 -0.0016
   5.  O 1( 2pz)    0.0000 -0.8288 -0.0002  0.0080  0.0422  0.0000  0.0000  0.0000
   6.  C 2( 1s )    0.0000  0.0011  0.0001  0.0157  0.0879  0.0000  0.0000  0.0000
   7.  C 2( 2s )    0.0000  0.0919  0.0111  0.1789  0.6672  0.0000  0.0000  0.0000
   8.  C 2( 2px)    0.0000  0.0000  0.0000  0.0000  0.0000  0.0491  0.8338  0.0000
   9.  C 2( 2py)    1.1585  0.0000  0.0000  0.0000  0.0000  0.0000  0.0000  0.0491
  10.  C 2( 2pz)    0.0000  1.7317  0.0202  0.2399  0.6933  0.0000  0.0000  0.0000
  11.  S 3( 1s )    0.0000  0.0202  2.0000  0.0000  0.0000  0.0000  0.0000  0.0000
  12.  S 3( 2s )    0.0000  0.2399  0.0000  2.0000  0.0000  0.0000  0.0000  0.0000
  13.  S 3( 3s )    0.0000  0.6933  0.0000  0.0000  1.9832  0.0000  0.0000  0.0000
  14.  S 3( 2px)    0.0000  0.0000  0.0000  0.0000  0.0000  2.0000 -0.0021  0.0000
  15.  S 3( 3px)    0.0000  0.0000  0.0000  0.0000  0.0000 -0.0021  1.7491  0.0000
  16.  S 3( 2py)    0.0491  0.0000  0.0000  0.0000  0.0000  0.0000  0.0000  2.0000
  17.  S 3( 3py)    0.8338  0.0000  0.0000  0.0000  0.0000  0.0000  0.0000 -0.0021
  18.  S 3( 2pz)    0.0000 -0.1178  0.0000  0.0000 -0.0007  0.0000  0.0000  0.0000
  19.  S 3( 3pz)    0.0000 -0.8241  0.0000 -0.0004  0.0959  0.0000  0.0000  0.0000

           NAO        17      18      19
      ------------ ------- ------- -------
   1.  O 1( 1s )    0.0000 -0.0006 -0.0091
   2.  O 1( 2s )    0.0000 -0.0040 -0.0548
   3.  O 1( 2px)    0.0000  0.0000  0.0000
   4.  O 1( 2py)   -0.2774  0.0000  0.0000
   5.  O 1( 2pz)    0.0000 -0.0062  0.0338
   6.  C 2( 1s )    0.0000 -0.0112 -0.1368
   7.  C 2( 2s )    0.0000 -0.0983 -1.0277
   8.  C 2( 2px)    0.0000  0.0000  0.0000
   9.  C 2( 2py)    0.8338  0.0000  0.0000
  10.  C 2( 2pz)    0.0000 -0.1178 -0.8241
  11.  S 3( 1s )    0.0000  0.0000  0.0000
  12.  S 3( 2s )    0.0000  0.0000 -0.0004
  13.  S 3( 3s )    0.0000 -0.0007  0.0959
  14.  S 3( 2px)    0.0000  0.0000  0.0000
  15.  S 3( 3px)    0.0000  0.0000  0.0000
  16.  S 3( 2py)   -0.0021  0.0000  0.0000
  17.  S 3( 3py)    1.7491  0.0000  0.0000
  18.  S 3( 2pz)    0.0000  2.0000  0.0041
  19.  S 3( 3pz)    0.0000  0.0041  1.4242


 NAOs in the AO basis:

           AO          1       2       3       4       5       6       7       8
      ------------ ------- ------- ------- ------- ------- ------- ------- -------
   1.  O 1 (s)      0.9682 -0.3646  0.0000  0.0000 -0.0145 -0.0036  0.0011  0.0000
   2.  O 1 (s)      0.1101  1.2482  0.0000  0.0000  0.1967 -0.0004 -0.3260  0.0000
   3.  O 1 (px)     0.0000  0.0000  1.0186  0.0000  0.0000  0.0000  0.0000 -0.1324
   4.  O 1 (py)     0.0000  0.0000  0.0000  1.0186  0.0000  0.0000  0.0000  0.0000
   5.  O 1 (pz)     0.0000  0.1594  0.0000  0.0000  1.1412  0.0000 -0.2417  0.0000
   6.  C 2 (s)     -0.0037  0.0053  0.0000  0.0000 -0.0228  0.9903 -0.3154  0.0000
   7.  C 2 (s)     -0.0001 -0.2869  0.0000  0.0000 -0.2656  0.0367  1.3502  0.0000
   8.  C 2 (px)     0.0000  0.0000 -0.1052  0.0000  0.0000  0.0000  0.0000  1.0368
   9.  C 2 (py)     0.0000  0.0000  0.0000 -0.1052  0.0000  0.0000  0.0000  0.0000
  10.  C 2 (pz)     0.0000  0.3258  0.0000  0.0000  0.2650  0.0000 -0.0318  0.0000
  11.  S 3 (s)      0.0001  0.0002  0.0000  0.0000  0.0002  0.0015  0.0031  0.0000
  12.  S 3 (s)     -0.0001 -0.0032  0.0000  0.0000 -0.0021 -0.0040 -0.0141  0.0000
  13.  S 3 (px)     0.0000  0.0000 -0.0023  0.0000  0.0000  0.0000  0.0000  0.0132
  14.  S 3 (py)     0.0000  0.0000  0.0000 -0.0023  0.0000  0.0000  0.0000  0.0000
  15.  S 3 (pz)     0.0001 -0.0027  0.0000  0.0000 -0.0023  0.0027 -0.0266  0.0000
  16.  S 3 (s)      0.0000 -0.0364  0.0000  0.0000 -0.0274 -0.0006 -0.2575  0.0000
  17.  S 3 (px)     0.0000  0.0000  0.0131  0.0000  0.0000  0.0000  0.0000 -0.1133
  18.  S 3 (py)     0.0000  0.0000  0.0000  0.0131  0.0000  0.0000  0.0000  0.0000
  19.  S 3 (pz)     0.0000  0.0337  0.0000  0.0000  0.0267  0.0002  0.2747  0.0000

           AO          9      10      11      12      13      14      15      16
      ------------ ------- ------- ------- ------- ------- ------- ------- -------
   1.  O 1 (s)      0.0000  0.0008  0.0000 -0.0001  0.0006  0.0000  0.0000  0.0000
   2.  O 1 (s)      0.0000  0.5104  0.0000  0.0000 -0.0353  0.0000  0.0000  0.0000
   3.  O 1 (px)     0.0000  0.0000  0.0000  0.0000  0.0000  0.0000  0.0130  0.0000
   4.  O 1 (py)    -0.1324  0.0000  0.0000  0.0000  0.0000  0.0000  0.0000  0.0000
   5.  O 1 (pz)     0.0000  0.3336  0.0000  0.0000 -0.0214  0.0000  0.0000  0.0000
   6.  C 2 (s)      0.0000 -0.0018  0.0000 -0.0039  0.0072  0.0000  0.0000  0.0000
   7.  C 2 (s)      0.0000 -0.0439  0.0000 -0.0001 -0.2208  0.0000  0.0000  0.0000
   8.  C 2 (px)     0.0000  0.0000  0.0000  0.0000  0.0000  0.0000 -0.0889  0.0000
   9.  C 2 (py)     1.0368  0.0000  0.0000  0.0000  0.0000  0.0000  0.0000  0.0000
  10.  C 2 (pz)     0.0000  1.4557  0.0000  0.0000 -0.2269  0.0000  0.0000  0.0000
  11.  S 3 (s)      0.0000  0.0050  0.9856 -0.3776  0.1402  0.0000  0.0000  0.0000
  12.  S 3 (s)      0.0000 -0.0335  0.0410  1.0112 -0.4274  0.0000  0.0000  0.0000
  13.  S 3 (px)     0.0000  0.0000  0.0000  0.0000  0.0000  0.9792 -0.3372  0.0000
  14.  S 3 (py)     0.0132  0.0000  0.0000  0.0000  0.0000  0.0000  0.0000  0.9792
  15.  S 3 (pz)     0.0000 -0.0283  0.0000  0.0000  0.0194  0.0000  0.0000  0.0000
  16.  S 3 (s)      0.0000 -0.3662 -0.0052  0.1456  1.1529  0.0000  0.0000  0.0000
  17.  S 3 (px)     0.0000  0.0000  0.0000  0.0000  0.0000  0.0716  1.0459  0.0000
  18.  S 3 (py)    -0.1133  0.0000  0.0000  0.0000  0.0000  0.0000  0.0000  0.0716
  19.  S 3 (pz)     0.0000  0.3550  0.0000  0.0000 -0.1357  0.0000  0.0000  0.0000

           AO         17      18      19
      ------------ ------- ------- -------
   1.  O 1 (s)      0.0000  0.0001 -0.0006
   2.  O 1 (s)      0.0000  0.0000  0.0412
   3.  O 1 (px)     0.0000  0.0000  0.0000
   4.  O 1 (py)     0.0130  0.0000  0.0000
   5.  O 1 (pz)     0.0000  0.0000  0.0263
   6.  C 2 (s)      0.0000  0.0028  0.0001
   7.  C 2 (s)      0.0000  0.0001  0.2969
   8.  C 2 (px)     0.0000  0.0000  0.0000
   9.  C 2 (py)    -0.0889  0.0000  0.0000
  10.  C 2 (pz)     0.0000  0.0000  0.2779
  11.  S 3 (s)      0.0000  0.0000 -0.0034
  12.  S 3 (s)      0.0000  0.0000  0.0060
  13.  S 3 (px)     0.0000  0.0000  0.0000
  14.  S 3 (py)    -0.3372  0.0000  0.0000
  15.  S 3 (pz)     0.0000  0.9792 -0.3613
  16.  S 3 (s)      0.0000  0.0000 -0.1691
  17.  S 3 (px)     0.0000  0.0000  0.0000
  18.  S 3 (py)     1.0459  0.0000  0.0000
  19.  S 3 (pz)     0.0000  0.0716  1.2110


 NAO density matrix:

           NAO         1       2       3       4       5       6       7       8
      ------------ ------- ------- ------- ------- ------- ------- ------- -------
   1.  O 1( 1s )    2.0000  0.0000  0.0000  0.0000  0.0002  0.0000 -0.0008  0.0000
   2.  O 1( 2s )    0.0000  1.7947  0.0000  0.0000 -0.3518  0.0007  0.2802  0.0000
   3.  O 1( 2px)    0.0000  0.0000  1.5255  0.0000  0.0000  0.0000  0.0000  0.7450
   4.  O 1( 2py)    0.0000  0.0000  0.0000  1.5255  0.0000  0.0000  0.0000  0.0000
   5.  O 1( 2pz)    0.0002 -0.3518  0.0000  0.0000  1.3815  0.0010  0.5628  0.0000
   6.  C 2( 1s )    0.0000  0.0007  0.0000  0.0000  0.0010  2.0000  0.0001  0.0000
   7.  C 2( 2s )   -0.0008  0.2802  0.0000  0.0000  0.5628  0.0001  1.1828  0.0000
   8.  C 2( 2px)    0.0000  0.0000  0.7450  0.0000  0.0000  0.0000  0.0000  0.8302
   9.  C 2( 2py)    0.0000  0.0000  0.0000  0.7450  0.0000  0.0000  0.0000  0.0000
  10.  C 2( 2pz)   -0.0006 -0.4066  0.0000  0.0000 -0.6262  0.0023  0.1841  0.0000
  11.  S 3( 1s )    0.0000  0.0000  0.0000  0.0000  0.0000  0.0000  0.0000  0.0000
  12.  S 3( 2s )    0.0000  0.0009  0.0000  0.0000  0.0016  0.0000 -0.0015  0.0000
  13.  S 3( 3s )    0.0004  0.0280  0.0000  0.0000  0.0035 -0.0007  0.1959  0.0000
  14.  S 3( 2px)    0.0000  0.0000 -0.0028  0.0000  0.0000  0.0000  0.0000  0.0045
  15.  S 3( 3px)    0.0000  0.0000 -0.4108  0.0000  0.0000  0.0000  0.0000  0.6451
  16.  S 3( 2py)    0.0000  0.0000  0.0000 -0.0028  0.0000  0.0000  0.0000  0.0000
  17.  S 3( 3py)    0.0000  0.0000  0.0000 -0.4108  0.0000  0.0000  0.0000  0.0000
  18.  S 3( 2pz)    0.0000  0.0003  0.0000  0.0000 -0.0002  0.0000  0.0032  0.0000
  19.  S 3( 3pz)   -0.0013  0.0093  0.0000  0.0000  0.1478  0.0017 -0.7064  0.0000

           NAO         9      10      11      12      13      14      15      16
      ------------ ------- ------- ------- ------- ------- ------- ------- -------
   1.  O 1( 1s )    0.0000 -0.0006  0.0000  0.0000  0.0004  0.0000  0.0000  0.0000
   2.  O 1( 2s )    0.0000 -0.4066  0.0000  0.0009  0.0280  0.0000  0.0000  0.0000
   3.  O 1( 2px)    0.0000  0.0000  0.0000  0.0000  0.0000 -0.0028 -0.4108  0.0000
   4.  O 1( 2py)    0.7450  0.0000  0.0000  0.0000  0.0000  0.0000  0.0000 -0.0028
   5.  O 1( 2pz)    0.0000 -0.6262  0.0000  0.0016  0.0035  0.0000  0.0000  0.0000
   6.  C 2( 1s )    0.0000  0.0023  0.0000  0.0000 -0.0007  0.0000  0.0000  0.0000
   7.  C 2( 2s )    0.0000  0.1841  0.0000 -0.0015  0.1959  0.0000  0.0000  0.0000
   8.  C 2( 2px)    0.0000  0.0000  0.0000  0.0000  0.0000  0.0045  0.6451  0.0000
   9.  C 2( 2py)    0.8302  0.0000  0.0000  0.0000  0.0000  0.0000  0.0000  0.0045
  10.  C 2( 2pz)    0.0000  0.8785  0.0000  0.0017  0.2553  0.0000  0.0000  0.0000
  11.  S 3( 1s )    0.0000  0.0000  2.0000  0.0000  0.0000  0.0000  0.0000  0.0000
  12.  S 3( 2s )    0.0000  0.0017  0.0000  2.0000  0.0000  0.0000  0.0000  0.0000
  13.  S 3( 3s )    0.0000  0.2553  0.0000  0.0000  1.8700  0.0000  0.0000  0.0000
  14.  S 3( 2px)    0.0000  0.0000  0.0000  0.0000  0.0000  2.0000 -0.0025  0.0000
  15.  S 3( 3px)    0.0000  0.0000  0.0000  0.0000  0.0000 -0.0025  1.6443  0.0000
  16.  S 3( 2py)    0.0045  0.0000  0.0000  0.0000  0.0000  0.0000  0.0000  2.0000
  17.  S 3( 3py)    0.6451  0.0000  0.0000  0.0000  0.0000  0.0000  0.0000 -0.0025
  18.  S 3( 2pz)    0.0000  0.0037  0.0000  0.0000 -0.0020  0.0000  0.0000  0.0000
  19.  S 3( 3pz)    0.0000 -0.5734  0.0000 -0.0004  0.3725  0.0000  0.0000  0.0000

           NAO        17      18      19
      ------------ ------- ------- -------
   1.  O 1( 1s )    0.0000  0.0000 -0.0013
   2.  O 1( 2s )    0.0000  0.0003  0.0093
   3.  O 1( 2px)    0.0000  0.0000  0.0000
   4.  O 1( 2py)   -0.4108  0.0000  0.0000
   5.  O 1( 2pz)    0.0000 -0.0002  0.1478
   6.  C 2( 1s )    0.0000  0.0000  0.0017
   7.  C 2( 2s )    0.0000  0.0032 -0.7064
   8.  C 2( 2px)    0.0000  0.0000  0.0000
   9.  C 2( 2py)    0.6451  0.0000  0.0000
  10.  C 2( 2pz)    0.0000  0.0037 -0.5734
  11.  S 3( 1s )    0.0000  0.0000  0.0000
  12.  S 3( 2s )    0.0000  0.0000 -0.0004
  13.  S 3( 3s )    0.0000 -0.0020  0.3725
  14.  S 3( 2px)    0.0000  0.0000  0.0000
  15.  S 3( 3px)    0.0000  0.0000  0.0000
  16.  S 3( 2py)   -0.0025  0.0000  0.0000
  17.  S 3( 3py)    1.6443  0.0000  0.0000
  18.  S 3( 2pz)    0.0000  2.0000  0.0058
  19.  S 3( 3pz)    0.0000  0.0058  0.8926


 NATURAL BOND ORBITAL ANALYSIS:

 Initiate 2-center NBO search using THRESH = 1.900 and PRJTHR = 0.300

 Search of NAO DM block for core orbitals on atom:   1
      Eigenvector ( 1) has occupancy 2.00000
            1.0000 0.0000 0.0000 0.0000 0.0000
        1 eigenvector(s) stashed in permanent list

 Search of NAO DM block for core orbitals on atom:   2
      Eigenvector ( 1) has occupancy 2.00000
            1.0000 0.0000 0.0000 0.0000 0.0000
        1 eigenvector(s) stashed in permanent list

 Search of NAO DM block for core orbitals on atom:   3
      Eigenvector ( 1) has occupancy 2.00000
            1.0000 0.0000 0.0000 0.0000 0.0000 0.0000 0.0000 0.0000
            0.0000
      Eigenvector ( 2) has occupancy 2.00000
            0.0000 1.0000 0.0000 0.0000 0.0000 0.0000 0.0000 0.0000
            0.0000
      Eigenvector ( 3) has occupancy 1.99998
            0.0000 0.0000 0.0000 1.0000 0.0000 0.0000 0.0000 0.0000
            0.0000
      Eigenvector ( 4) has occupancy 1.99998
            0.0000 0.0000 0.0000 0.0000 0.0000 1.0000 0.0000 0.0000
            0.0000
      Eigenvector ( 5) has occupancy 1.99997
            0.0000 0.0000 0.0000 0.0000 0.0000 0.0000 0.0000 1.0000
            0.0000
        5 eigenvector(s) stashed in permanent list

 Core orbitals projected from the NAO density matrix
      16.000 electrons remain (>1.900); search continues

 Search of NAO DM block for the following atom(s):   1
      Select eigenvectors with eigenvalue > 1.900
       1.996 1.526 1.526 1.180 0.000
      Eigenvector ( 1) has occupancy 1.99606
            0.0000 0.8679 0.0000 0.0000-0.4968
      1 hybrid on atom 1 stashed in prospective list

 Search of NAO DM block for the following atom(s):   2
      Select eigenvectors with eigenvalue > 1.900
       1.269 0.830 0.830 0.792 0.000

 Search of NAO DM block for the following atom(s):   3
      Select eigenvectors with eigenvalue > 1.900
       1.996 1.644 1.644 0.767 0.000 0.000 0.000 0.000 0.000
      Eigenvector ( 1) has occupancy 1.99575
            0.0000 0.0000 0.9475 0.0000 0.0000 0.0000 0.0000 0.0000
            0.3199
      1 hybrid on atom 3 stashed in prospective list

 Stash prospective hybrids having projection expectation value > 0.300
       1.000 1.000
      0 hybrids eliminated in 1 pass
      2 hybrids moved from prospective to permanent list

 NHOs of 1-center eigenvectors projected from the NAO density matrix
      12.008 electrons remain (>1.900); search continues

 Search of NAO DM block for the following atom(s):   1   2
      Select eigenvectors with eigenvalue > 1.900
       2.000 2.000 2.000 1.237 0.356 0.356 0.004 0.000 0.000 0.000
      Eigenvector ( 1) has occupancy 2.00000
            0.0000-0.0022 0.3783 0.7539-0.0038 0.0000-0.0028 0.2409
            0.4801 0.0024
      Eigenvector ( 2) has occupancy 2.00000
            0.0000 0.3579-0.2416 0.1264 0.6253 0.0000 0.4626-0.1539
            0.0805-0.4029
      Eigenvector ( 3) has occupancy 2.00000
            0.0000 0.1223 0.7141-0.3566 0.2136 0.0000 0.1580 0.4548
           -0.2271-0.1376
      3 hybrids on atom 1 stashed in prospective list
      3 hybrids on atom 2 stashed in prospective list

 Search of NAO DM block for the following atom(s):   1   3
      Select eigenvectors with eigenvalue > 1.900
       2.000 2.000 1.213 1.170 1.170 0.734 0.000 0.000 0.000 0.000 0.000 0.000
       0.000 0.000
      Eigenvector ( 1) has occupancy 2.00000
            0.0000 0.0000-0.1742-0.6310 0.0000 0.0000 0.0000 0.0000
            0.0000 0.2011 0.0000 0.7287 0.0000 0.0000
      Eigenvector ( 2) has occupancy 2.00000
            0.0000 0.0000-0.6310 0.1742 0.0000 0.0000 0.0000 0.0000
            0.0000 0.7287 0.0000-0.2011 0.0000 0.0000
      2 hybrids on atom 1 stashed in prospective list
      2 hybrids on atom 3 stashed in prospective list

 Search of NAO DM block for the following atom(s):   2   3
      Select eigenvectors with eigenvalue > 1.900
       2.000 2.000 2.000 0.824 0.474 0.474 0.004 0.000 0.000 0.000 0.000 0.000
       0.000 0.000
      Eigenvector ( 1) has occupancy 2.00000
            0.0000 0.0525 0.3184 0.3609 0.0362 0.0000 0.0000 0.0158
            0.0000 0.5775 0.0000 0.6545 0.0000-0.0469
      Eigenvector ( 2) has occupancy 2.00000
            0.0000 0.5418-0.2203 0.1509 0.3736 0.0000 0.0000 0.1634
            0.0000-0.3995 0.0000 0.2737 0.0000-0.4841
      Eigenvector ( 3) has occupancy 2.00000
            0.0000 0.3558 0.2885-0.2831 0.2453 0.0000 0.0000 0.1073
            0.0000 0.5232 0.0000-0.5134 0.0000-0.3179
      3 hybrids on atom 2 stashed in prospective list
      3 hybrids on atom 3 stashed in prospective list

 Stash prospective hybrids having projection expectation value > 0.300
       0.000 0.000 0.000 0.000 0.000 0.000 0.000 0.000 0.000 0.000-0.052-0.052
      -0.061-0.061-0.191-0.191
      16 hybrids eliminated in 2 passes

 Stash additional hybrids from high occupancy eigenvectors
       2.000 2.000 2.000 2.000 2.000 2.000 2.000 2.000
      Hybrid projection expectation values
       1.000 1.000 1.000 1.000 1.000 1.000 1.000 1.000 1.000 1.000 1.000 1.000
       1.000 1.000 1.000 1.000
      Occ=2.000; Vecs=  1
       0.000 1.000 1.000 0.000 1.000 1.000 0.038 0.962 1.000 1.000 0.082 0.998
       0.956 1.000 1.000 1.000
      Occ=4.000; Vecs=  1  2
       0.000 0.000 0.996 0.000 0.000 0.987 0.032 0.842 1.000 1.000 0.081 0.893
       0.956 1.000 1.000 1.000
      Occ=6.000; Vecs=  1  2  3
       0.000 0.000 0.000 0.000 0.000 0.000 0.000 0.000 1.000 1.000 0.016 0.806
       0.501 1.000 1.000 1.000
      Occ=8.000; Vecs=  1  2  3  7
       0.000 0.000 0.000 0.000 0.000 0.000 0.000 0.000 0.950 0.577 0.000 0.000
       0.000 0.998 0.000 0.901
      Occ=8.000; Vecs=  1  2  3  8
       0.000 0.000 0.000 0.000 0.000 0.000 0.000 0.000 0.805 0.368 0.000 0.000
       0.000 0.999 0.901 0.000
      Occ=8.000; Vecs=  2  3  4  8
       0.000 0.000 0.000 0.919 0.000 0.000 0.000 0.000 0.000 0.215 0.912 0.092
       0.000 0.023 0.892 0.000
      193 bonding patterns considered
       0.000 0.975 0.537 0.000 0.975 0.537 0.805 0.000 0.805 0.000 0.000 0.000
       0.545 0.000 0.000 0.545
       0.975 0.975 0.805 0.805 0.545 0.545 0.537 0.537
      8 additional hybrids moved from prospective to permanent list

 NHOs of 2-center eigenvectors projected from the NAO density matrix
       1.815 electrons remain in the fully projected matrix

 Search of NHO DM block for the following atom(s):   1
      Select eigenvectors with eigenvalue > 1.900
       2.000 1.996 0.000 0.000 0.000
      Eigenvector ( 1) has occupancy 2.00000
            1.0000 0.0000 0.0000 0.0000 0.0000
           NBO accepted:    1. Label:CR ( 1)   1
      Eigenvector ( 2) has occupancy 1.99606
            0.0000 1.0000 0.0000 0.0000 0.0000
           NBO accepted:    2. Label:LP ( 1)   1
        2 eigenvector(s) stashed in permanent list

 Search of NHO DM block for the following atom(s):   2
      Select eigenvectors with eigenvalue > 1.900
       2.000 0.000 0.000 0.000 0.000
      Eigenvector ( 1) has occupancy 2.00000
            1.0000 0.0000 0.0000 0.0000 0.0000
           NBO accepted:    3. Label:CR ( 1)   2
        1 eigenvector(s) stashed in permanent list

 Search of NHO DM block for the following atom(s):   3
      Select eigenvectors with eigenvalue > 1.900
       2.000 2.000 2.000 2.000 2.000 1.996 0.000 0.000 0.000
      Eigenvector ( 1) has occupancy 2.00000
            1.0000 0.0000 0.0000 0.0000 0.0000 0.0000 0.0000 0.0000
            0.0000
           NBO accepted:    4. Label:CR ( 1)   3
      Eigenvector ( 2) has occupancy 2.00000
            0.0000 1.0000 0.0000 0.0000 0.0000 0.0000 0.0000 0.0000
            0.0000
           NBO accepted:    5. Label:CR ( 2)   3
      Eigenvector ( 3) has occupancy 1.99998
            0.0000 0.0000 1.0000 0.0000 0.0000 0.0000 0.0000 0.0000
            0.0000
           NBO accepted:    6. Label:CR ( 3)   3
      Eigenvector ( 4) has occupancy 1.99998
            0.0000 0.0000 0.0000 1.0000 0.0000 0.0000 0.0000 0.0000
            0.0000
           NBO accepted:    7. Label:CR ( 4)   3
      Eigenvector ( 5) has occupancy 1.99997
            0.0000 0.0000 0.0000 0.0000 1.0000 0.0000 0.0000 0.0000
            0.0000
           NBO accepted:    8. Label:CR ( 5)   3
      Eigenvector ( 6) has occupancy 1.99575
            0.0000 0.0000 0.0000 0.0000 0.0000 1.0000 0.0000 0.0000
            0.0000
           NBO accepted:    9. Label:LP ( 1)   3
        6 eigenvector(s) stashed in permanent list

  1-center NBOs projected from the NHO density matrix
      12.008 electrons remain (>1.900); search continues

 Search of NHO DM block for the following atom(s):   1   2
      Select eigenvectors with eigenvalue > 1.900
       2.000 1.963 0.450 0.016 0.000 0.000 0.000 0.000 0.000 0.000
      Eigenvector ( 1) has occupancy 1.99964
            0.0000 0.0000 0.7687-0.0007 0.0000 0.0000 0.6374 0.0534
            0.0000 0.0000
      Occupancy is 1.996 after deleting minor hybrid components
            0.0000 0.0000 0.7675 0.0000 0.0000 0.0000 0.6410 0.0000
            0.0000 0.0000
           NBO accepted:   10. Label:BD ( 1)   1   2
      Occupancy is 0.097 for antibonding component
            0.0000 0.0000-0.6410 0.0000 0.0000 0.0000 0.7675 0.0000
            0.0000 0.0000
           NBO accepted:   11. Label:BD*( 1)   1   2
      Eigenvector ( 2) has occupancy 1.96316
            0.0000 0.0000-0.0324 0.8394 0.0000 0.0000-0.0055 0.5426
            0.0000 0.0000
      Occupancy is 1.963 after deleting minor hybrid components
            0.0000 0.0000 0.0000 0.8381 0.0000 0.0000 0.0000 0.5454
            0.0000 0.0000
           NBO accepted:   12. Label:BD ( 2)   1   2
      Occupancy is 0.374 for antibonding component
            0.0000 0.0000 0.0000-0.5454 0.0000 0.0000 0.0000 0.8381
            0.0000 0.0000
           NBO accepted:   13. Label:BD*( 2)   1   2
        4 eigenvector(s) stashed in permanent list

 Search of NHO DM block for the following atom(s):   1   3
      Select eigenvectors with eigenvalue > 1.900
       1.991 1.170 0.000 0.000 0.000 0.000 0.000 0.000 0.000 0.000 0.000 0.000
       0.000 0.000
      Eigenvector ( 1) has occupancy 1.99108
            0.0000 0.0000 0.0000 0.0000 0.6581 0.0000 0.0000 0.0000
            0.0000 0.0000 0.0000 0.7530 0.0000 0.0000
      Occupancy is 1.991 after deleting minor hybrid components
            0.0000 0.0000 0.0000 0.0000 0.6581 0.0000 0.0000 0.0000
            0.0000 0.0000 0.0000 0.7530 0.0000 0.0000
           NBO accepted:   14. Label:BD ( 1)   1   3
      Occupancy is 1.170 for antibonding component
            0.0000 0.0000 0.0000 0.0000 0.7530 0.0000 0.0000 0.0000
            0.0000 0.0000 0.0000-0.6581 0.0000 0.0000
           NBO accepted:   15. Label:BD*( 1)   1   3
        2 eigenvector(s) stashed in permanent list

 Search of NHO DM block for the following atom(s):   2   3
      Select eigenvectors with eigenvalue > 1.900
       1.957 0.844 0.661 0.000 0.000 0.000 0.000 0.000 0.000 0.000 0.000 0.000
       0.000 0.000
      Eigenvector ( 1) has occupancy 1.95652
            0.0000 0.0000 0.0000 0.6072 0.1206 0.0000 0.0000 0.0000
            0.0000 0.0000 0.0000 0.0000 0.7854 0.0000
      Occupancy is 1.940 after deleting minor hybrid components
            0.0000 0.0000 0.0000 0.6104 0.0000 0.0000 0.0000 0.0000
            0.0000 0.0000 0.0000 0.0000 0.7921 0.0000
           NBO accepted:   16. Label:BD ( 1)   2   3
      Occupancy is 0.663 for antibonding component
            0.0000 0.0000 0.0000 0.7921 0.0000 0.0000 0.0000 0.0000
            0.0000 0.0000 0.0000 0.0000-0.6104 0.0000
           NBO accepted:   17. Label:BD*( 1)   2   3
        2 eigenvector(s) stashed in permanent list

  2-center NBOs projected from the NHO density matrix
       1.815 electrons remain in the fully projected matrix

                            Occupancies       Lewis Structure    Low   High
         Max    Occ     -------------------  -----------------   occ   occ
  Cycle  Ctr   Thresh    Lewis   non-Lewis     CR  BD  nC  LP    (L)   (NL)
 ============================================================================
    1     2     1.90    28.00765   1.99235      7   5   0   3     2      3

 Initiate 2-center NBO search using THRESH = 1.640 and PRJTHR = 0.300

 Search of NAO DM block for core orbitals on atom:   1
      Eigenvector ( 1) has occupancy 2.00000
            1.0000 0.0000 0.0000 0.0000 0.0000
        1 eigenvector(s) stashed in permanent list

 Search of NAO DM block for core orbitals on atom:   2
      Eigenvector ( 1) has occupancy 2.00000
            1.0000 0.0000 0.0000 0.0000 0.0000
        1 eigenvector(s) stashed in permanent list

 Search of NAO DM block for core orbitals on atom:   3
      Eigenvector ( 1) has occupancy 2.00000
            1.0000 0.0000 0.0000 0.0000 0.0000 0.0000 0.0000 0.0000
            0.0000
      Eigenvector ( 2) has occupancy 2.00000
            0.0000 1.0000 0.0000 0.0000 0.0000 0.0000 0.0000 0.0000
            0.0000
      Eigenvector ( 3) has occupancy 1.99998
            0.0000 0.0000 0.0000 1.0000 0.0000 0.0000 0.0000 0.0000
            0.0000
      Eigenvector ( 4) has occupancy 1.99998
            0.0000 0.0000 0.0000 0.0000 0.0000 1.0000 0.0000 0.0000
            0.0000
      Eigenvector ( 5) has occupancy 1.99997
            0.0000 0.0000 0.0000 0.0000 0.0000 0.0000 0.0000 1.0000
            0.0000
        5 eigenvector(s) stashed in permanent list

 Core orbitals projected from the NAO density matrix
      16.000 electrons remain (>1.640); search continues

 Search of NAO DM block for the following atom(s):   1
      Select eigenvectors with eigenvalue > 1.640
       1.996 1.526 1.526 1.180 0.000
      Eigenvector ( 1) has occupancy 1.99606
            0.0000 0.8679 0.0000 0.0000-0.4968
      1 hybrid on atom 1 stashed in prospective list

 Search of NAO DM block for the following atom(s):   2
      Select eigenvectors with eigenvalue > 1.640
       1.269 0.830 0.830 0.792 0.000

 Search of NAO DM block for the following atom(s):   3
      Select eigenvectors with eigenvalue > 1.640
       1.996 1.644 1.644 0.767 0.000 0.000 0.000 0.000 0.000
      Eigenvector ( 1) has occupancy 1.99575
            0.0000 0.0000 0.9475 0.0000 0.0000 0.0000 0.0000 0.0000
            0.3199
      Eigenvector ( 2) has occupancy 1.64426
            0.0000 0.0000 0.0000 0.0000 0.2367 0.0000 0.9716 0.0000
            0.0000
      Eigenvector ( 3) has occupancy 1.64426
            0.0000 0.0000 0.0000 0.0000 0.9716 0.0000-0.2367 0.0000
            0.0000
      3 hybrids on atom 3 stashed in prospective list

 Stash prospective hybrids having projection expectation value > 0.300
       1.000 1.000 1.000 1.000
      0 hybrids eliminated in 1 pass
      4 hybrids moved from prospective to permanent list

 NHOs of 1-center eigenvectors projected from the NAO density matrix
       8.720 electrons remain (>1.640); search continues

 Search of NAO DM block for the following atom(s):   1   2
      Select eigenvectors with eigenvalue > 1.640
       2.000 2.000 2.000 1.237 0.356 0.356 0.004 0.000 0.000 0.000
      Eigenvector ( 1) has occupancy 2.00000
            0.0000-0.0022 0.3783 0.7539-0.0038 0.0000-0.0028 0.2409
            0.4801 0.0024
      Eigenvector ( 2) has occupancy 2.00000
            0.0000 0.3579-0.2416 0.1264 0.6253 0.0000 0.4626-0.1539
            0.0805-0.4029
      Eigenvector ( 3) has occupancy 2.00000
            0.0000 0.1223 0.7141-0.3566 0.2136 0.0000 0.1580 0.4548
           -0.2271-0.1376
      3 hybrids on atom 1 stashed in prospective list
      3 hybrids on atom 2 stashed in prospective list

 Search of NAO DM block for the following atom(s):   1   3
      Select eigenvectors with eigenvalue > 1.640
       1.526 1.526 1.213 0.734 0.000 0.000 0.000 0.000 0.000 0.000 0.000 0.000
       0.000 0.000

 Search of NAO DM block for the following atom(s):   2   3
      Select eigenvectors with eigenvalue > 1.640
       2.000 0.830 0.830 0.824 0.004 0.000 0.000 0.000 0.000 0.000 0.000 0.000
       0.000 0.000
      Eigenvector ( 1) has occupancy 2.00000
            0.0000 0.6503 0.0000 0.0000 0.4484 0.0000 0.0000 0.1962
            0.0000 0.0000 0.0000 0.0000 0.0000-0.5810
      1 hybrid on atom 2 stashed in prospective list
[...]
            0.0000-0.0022 0.3783 0.7539-0.0038 0.0000-0.0028 0.2409
            0.4801 0.0024
      Eigenvector ( 2) has occupancy 2.00000
            0.0000 0.3579-0.2416 0.1264 0.6253 0.0000 0.4626-0.1539
            0.0805-0.4029
      Eigenvector ( 3) has occupancy 2.00000
            0.0000 0.1223 0.7141-0.3566 0.2136 0.0000 0.1580 0.4548
           -0.2271-0.1376
      3 hybrids on atom 1 stashed in prospective list
      3 hybrids on atom 2 stashed in prospective list

 Search of NAO DM block for the following atom(s):   1   3
      Select eigenvectors with eigenvalue > 1.640
       1.526 1.526 1.213 0.734 0.000 0.000 0.000 0.000 0.000 0.000 0.000 0.000
       0.000 0.000

 Search of NAO DM block for the following atom(s):   2   3
      Select eigenvectors with eigenvalue > 1.640
       2.000 0.830 0.830 0.824 0.004 0.000 0.000 0.000 0.000 0.000 0.000 0.000
       0.000 0.000
      Eigenvector ( 1) has occupancy 2.00000
            0.0000 0.6503 0.0000 0.0000 0.4484 0.0000 0.0000 0.1962
            0.0000 0.0000 0.0000 0.0000 0.0000-0.5810
      1 hybrid on atom 2 stashed in prospective list
      1 hybrid on atom 3 stashed in prospective list

 Stash prospective hybrids having projection expectation value > 0.300
       1.000 1.000 0.982 0.982 0.939 0.939 0.934 0.934
      0 hybrids eliminated in 1 pass
      8 hybrids moved from prospective to permanent list

 NHOs of 2-center eigenvectors projected from the NAO density matrix
       0.000 electrons remain in the fully projected matrix

 Search of NHO DM block for the following atom(s):   1
      Select eigenvectors with eigenvalue > 1.640
       2.000 1.996 0.000 0.000 0.000
      Eigenvector ( 1) has occupancy 2.00000
            1.0000 0.0000 0.0000 0.0000 0.0000
           NBO accepted:    1. Label:CR ( 1)   1
      Eigenvector ( 2) has occupancy 1.99606
            0.0000 1.0000 0.0000 0.0000 0.0000
           NBO accepted:    2. Label:LP ( 1)   1
        2 eigenvector(s) stashed in permanent list

 Search of NHO DM block for the following atom(s):   2
      Select eigenvectors with eigenvalue > 1.640
       2.000 0.000 0.000 0.000 0.000
      Eigenvector ( 1) has occupancy 2.00000
            1.0000 0.0000 0.0000 0.0000 0.0000
           NBO accepted:    3. Label:CR ( 1)   2
        1 eigenvector(s) stashed in permanent list

 Search of NHO DM block for the following atom(s):   3
      Select eigenvectors with eigenvalue > 1.640
       2.000 2.000 2.000 2.000 2.000 1.996 1.644 1.644 0.000
      Eigenvector ( 1) has occupancy 2.00000
            1.0000 0.0000 0.0000 0.0000 0.0000 0.0000 0.0000 0.0000
            0.0000
           NBO accepted:    4. Label:CR ( 1)   3
      Eigenvector ( 2) has occupancy 2.00000
            0.0000 1.0000 0.0000 0.0000 0.0000 0.0000 0.0000 0.0000
            0.0000
           NBO accepted:    5. Label:CR ( 2)   3
      Eigenvector ( 3) has occupancy 1.99998
            0.0000 0.0000 1.0000 0.0000 0.0000 0.0000 0.0000 0.0000
            0.0000
           NBO accepted:    6. Label:CR ( 3)   3
      Eigenvector ( 4) has occupancy 1.99998
            0.0000 0.0000 0.0000 1.0000 0.0000 0.0000 0.0000 0.0000
            0.0000
           NBO accepted:    7. Label:CR ( 4)   3
      Eigenvector ( 5) has occupancy 1.99997
            0.0000 0.0000 0.0000 0.0000 1.0000 0.0000 0.0000 0.0000
            0.0000
           NBO accepted:    8. Label:CR ( 5)   3
      Eigenvector ( 6) has occupancy 1.99575
            0.0000 0.0000 0.0000 0.0000 0.0000 1.0000 0.0000 0.0000
            0.0000
           NBO accepted:    9. Label:LP ( 1)   3
      Eigenvector ( 7) has occupancy 1.64426
            0.0000 0.0000 0.0000 0.0000 0.0000 0.0000 1.0000 0.0000
            0.0000
           NBO accepted:   10. Label:LP ( 2)   3
      Eigenvector ( 8) has occupancy 1.64426
            0.0000 0.0000 0.0000 0.0000 0.0000 0.0000 0.0000 1.0000
            0.0000
           NBO accepted:   11. Label:LP ( 3)   3
        8 eigenvector(s) stashed in permanent list

  1-center NBOs projected from the NHO density matrix
       8.720 electrons remain (>1.640); search continues

 Search of NHO DM block for the following atom(s):   1   2
      Select eigenvectors with eigenvalue > 1.640
       2.000 2.000 1.993 0.356 0.356 0.012 0.000 0.000 0.000 0.000
      Eigenvector ( 1) has occupancy 2.00000
            0.0000 0.0000 0.8429 0.0275-0.0139 0.0000 0.5368 0.0175
            0.0000-0.0089
      Occupancy is 2.000 after deleting minor hybrid components
            0.0000 0.0000 0.8435 0.0000 0.0000 0.0000 0.5372 0.0000
            0.0000 0.0000
           NBO accepted:   12. Label:BD ( 1)   1   2
      Occupancy is 0.356 for antibonding component
            0.0000 0.0000-0.5372 0.0000 0.0000 0.0000 0.8435 0.0000
            0.0000 0.0000
           NBO accepted:   13. Label:BD*( 1)   1   2
      Eigenvector ( 2) has occupancy 2.00000
            0.0000 0.0000-0.0305 0.8011-0.2622 0.0000-0.0194 0.5100
            0.0000-0.1677
      Occupancy is 1.997 after deleting minor hybrid components
            0.0000 0.0000 0.0000 0.8350 0.0000 0.0000 0.0000 0.5503
            0.0000 0.0000
           NBO accepted:   14. Label:BD ( 2)   1   2
      Occupancy is 0.323 for antibonding component
            0.0000 0.0000 0.0000-0.5503 0.0000 0.0000 0.0000 0.8350
            0.0000 0.0000
           NBO accepted:   15. Label:BD*( 2)   1   2
      Eigenvector ( 3) has occupancy 1.99312
            0.0000 0.0000 0.0042 0.2373 0.7302 0.0000 0.0036 0.2029
            0.0000 0.6076
      Occupancy is 1.991 after deleting minor hybrid components
            0.0000 0.0000 0.0000 0.0000 0.7750 0.0000 0.0000 0.0000
            0.0000 0.6320
           NBO accepted:   16. Label:BD ( 3)   1   2
      Occupancy is 0.050 for antibonding component
            0.0000 0.0000 0.0000 0.0000-0.6320 0.0000 0.0000 0.0000
            0.0000 0.7750
           NBO accepted:   17. Label:BD*( 3)   1   2
        6 eigenvector(s) stashed in permanent list

 Search of NHO DM block for the following atom(s):   2   3
      Select eigenvectors with eigenvalue > 1.640
       1.992 0.011 0.000 0.000 0.000 0.000 0.000 0.000 0.000 0.000 0.000 0.000
       0.000 0.000
      Eigenvector ( 1) has occupancy 1.99208
            0.0000 0.0000 0.0000 0.7864 0.0000 0.0000 0.0000 0.0000
            0.0000 0.0000 0.0000 0.0000 0.0000 0.6177
      Occupancy is 1.992 after deleting minor hybrid components
            0.0000 0.0000 0.0000 0.7864 0.0000 0.0000 0.0000 0.0000
            0.0000 0.0000 0.0000 0.0000 0.0000 0.6177
           NBO accepted:   18. Label:BD ( 1)   2   3
      Occupancy is 0.011 for antibonding component
            0.0000 0.0000 0.0000-0.6177 0.0000 0.0000 0.0000 0.0000
            0.0000 0.0000 0.0000 0.0000 0.0000 0.7864
           NBO accepted:   19. Label:BD*( 1)   2   3
        2 eigenvector(s) stashed in permanent list

  2-center NBOs projected from the NHO density matrix
       0.000 electrons remain in the fully projected matrix

                            Occupancies       Lewis Structure    Low   High
         Max    Occ     -------------------  -----------------   occ   occ
  Cycle  Ctr   Thresh    Lewis   non-Lewis     CR  BD  nC  LP    (L)   (NL)
 ============================================================================
    4     2     1.64    29.25993   0.74007      7   4   0   4     0      2
 ----------------------------------------------------------------------------

 Structure accepted: No low occupancy Lewis orbitals

 -------------------------------------------------------
   Core                     13.99992 ( 99.999% of  14)
   Valence Lewis            15.26001 ( 95.375% of  16)
  ==================      =============================
   Total Lewis              29.25993 ( 97.533% of  30)
  -----------------------------------------------------
   Valence non-Lewis         0.74007 (  2.467% of  30)
   Rydberg non-Lewis         0.00000 (  0.000% of  30)
  ==================      =============================
   Total non-Lewis           0.74007 (  2.467% of  30)
 -------------------------------------------------------


     (Occupancy)   Bond orbital / Coefficients / Hybrids
 ------------------ Lewis ------------------------------------------------------
   1. (2.00000) CR ( 1) O  1            s(100.00%)
                                         1.0000  0.0000  0.0000  0.0000  0.0000
   2. (2.00000) CR ( 1) C  2            s(100.00%)
                                         1.0000  0.0000  0.0000  0.0000  0.0000
   3. (2.00000) CR ( 1) S  3            s(100.00%)
                                         1.0000  0.0000  0.0000  0.0000  0.0000
                                         0.0000  0.0000  0.0000  0.0000
   4. (2.00000) CR ( 2) S  3            s(100.00%)
                                         0.0000  1.0000  0.0000  0.0000  0.0000
                                         0.0000  0.0000  0.0000  0.0000
   5. (1.99998) CR ( 3) S  3            s(  0.00%)p 1.00(100.00%)
                                         0.0000  0.0000  0.0000  1.0000  0.0000
                                         0.0000  0.0000  0.0000  0.0000
   6. (1.99998) CR ( 4) S  3            s(  0.00%)p 1.00(100.00%)
                                         0.0000  0.0000  0.0000  0.0000  0.0000
                                         1.0000  0.0000  0.0000  0.0000
   7. (1.99997) CR ( 5) S  3            s(  0.00%)p 1.00(100.00%)
                                         0.0000  0.0000  0.0000  0.0000  0.0000
                                         0.0000  0.0000  1.0000  0.0000
   8. (1.99606) LP ( 1) O  1            s( 75.32%)p 0.33( 24.68%)
                                         0.0000  0.8679  0.0000  0.0000 -0.4968
   9. (1.99575) LP ( 1) S  3            s( 89.77%)p 0.11( 10.23%)
                                         0.0000  0.0000  0.9475  0.0000  0.0000
                                         0.0000  0.0000  0.0000  0.3199
  10. (1.64426) LP ( 2) S  3            s(  0.00%)p 1.00(100.00%)
                                         0.0000  0.0000  0.0000  0.0000  0.2367
                                         0.0000  0.9716  0.0000  0.0000
  11. (1.64426) LP ( 3) S  3            s(  0.00%)p 1.00(100.00%)
                                         0.0000  0.0000  0.0000  0.0000  0.9716
                                         0.0000 -0.2367  0.0000  0.0000
  12. (2.00000) BD ( 1) O  1- C  2
               ( 71.14%)   0.8435* O  1 s(  0.00%)p 1.00(100.00%)
                                         0.0000  0.0028 -0.4485 -0.8938  0.0049
               ( 28.86%)   0.5372* C  2 s(  0.00%)p 1.00(100.00%)
                                         0.0000  0.0038 -0.4485 -0.8938 -0.0044
  13. (1.99668) BD ( 2) O  1- C  2
               ( 69.72%)   0.8350* O  1 s(  2.55%)p38.21( 97.45%)
                                         0.0000  0.1597  0.8472 -0.4230  0.2790
               ( 30.28%)   0.5503* C  2 s(  4.55%)p20.96( 95.45%)
                                         0.0000  0.2134  0.8458 -0.4223 -0.2464
  14. (1.99090) BD ( 3) O  1- C  2
               ( 60.06%)   0.7750* O  1 s( 22.13%)p 3.52( 77.87%)
                                         0.0000  0.4704 -0.2849  0.1490  0.8218
               ( 39.94%)   0.6320* C  2 s( 37.69%)p 1.65( 62.31%)
                                         0.0000  0.6140 -0.2889  0.1511 -0.7189
  15. (1.99208) BD ( 1) C  2- S  3
               ( 61.84%)   0.7864* C  2 s( 57.75%)p 0.73( 42.25%)
                                         0.0000  0.7599 -0.0019  0.0010  0.6500
               ( 38.16%)   0.6177* S  3 s( 10.23%)p 8.77( 89.77%)
                                         0.0000  0.0000  0.3199  0.0000  0.0000
                                         0.0000  0.0000  0.0000 -0.9475
 ---------------- non-Lewis ----------------------------------------------------
  16. (0.35574) BD*( 1) O  1- C  2
               ( 28.86%)   0.5372* O  1 s(  0.00%)p 1.00(100.00%)
                                         0.0000 -0.0028  0.4485  0.8938 -0.0049
               ( 71.14%)  -0.8435* C  2 s(  0.00%)p 1.00(100.00%)
                                         0.0000 -0.0038  0.4485  0.8938  0.0044
  17. (0.32300) BD*( 2) O  1- C  2
               ( 30.28%)   0.5503* O  1 s(  2.55%)p38.21( 97.45%)
                                         0.0000 -0.1597 -0.8472  0.4230 -0.2790
               ( 69.72%)  -0.8350* C  2 s(  4.55%)p20.96( 95.45%)
                                         0.0000 -0.2134 -0.8458  0.4223  0.2464
  18. (0.05048) BD*( 3) O  1- C  2
               ( 39.94%)   0.6320* O  1 s( 22.13%)p 3.52( 77.87%)
                                         0.0000 -0.4704  0.2849 -0.1490 -0.8218
               ( 60.06%)  -0.7750* C  2 s( 37.69%)p 1.65( 62.31%)
                                         0.0000 -0.6140  0.2889 -0.1511  0.7189
  19. (0.01084) BD*( 1) C  2- S  3
               ( 38.16%)   0.6177* C  2 s( 57.75%)p 0.73( 42.25%)
                                         0.0000  0.7599 -0.0019  0.0010  0.6500
               ( 61.84%)  -0.7864* S  3 s( 10.23%)p 8.77( 89.77%)
                                         0.0000  0.0000  0.3199  0.0000  0.0000
                                         0.0000  0.0000  0.0000 -0.9475


 NHO DIRECTIONALITY AND BOND BENDING (deviation from line of nuclear centers at
                                      the position of maximum hybrid amplitude)

         [Thresholds for printing:  angular deviation  >  1.0 degree]
                                    p- or d-character  > 25.0%
                                    orbital occupancy  >  0.10e

                        Line of Centers        Hybrid 1             Hybrid 2
                        ---------------  -------------------  ------------------
           NBO            Theta   Phi    Theta   Phi    Dev   Theta   Phi    Dev
 ===============================================================================
  10. LP ( 2) S  3          --     --     89.7  256.3   --      --     --    --
  11. LP ( 3) S  3          --     --     89.7  346.3   --      --     --    --
  12. BD ( 1) O  1- C  2    0.0    0.0    89.8  243.4  89.8    90.2  243.4  89.8
  13. BD ( 2) O  1- C  2    0.0    0.0    71.6  333.5  71.6   107.9  333.5  72.1
  14. BD ( 3) O  1- C  2    0.0    0.0    20.0  152.4  20.0   155.2  152.4  24.8


 3-Center, 4-Electron A:-B-:C Hyperbonds (A-B :C <=> A: B-C)
              [threshold for detection: 33.3%]

                                                  NBOs       3-center hybrids
                                              -------------  ----------------
       Hyperbond A:-B-:C   %A-B/%B-C   occ    BD(A-B) LP(C)  h(A)  h(B)  h(C)
      -------------------  ---------  ------  ------- -----  ----  ----  ----
   1.  O  1:- C  2-: S  3  57.9/42.1  4.0000      12     10    12    13    10
   2.  O  1:- C  2-: S  3  61.5/38.5  3.9639      13     11    14    15    11


 SECOND ORDER PERTURBATION THEORY ANALYSIS OF FOCK MATRIX IN NBO BASIS

     Threshold for printing:   0.50 kcal/mol
                                                          E(2) E(NL)-E(L) F(L,NL)
      Donor (L) NBO              Acceptor (NL) NBO      kcal/mol   a.u.    a.u.
 ===============================================================================

 within unit  1
    8. LP ( 1) O  1            19. BD*( 1) C  2- S  3      1.67    1.63   0.047
    9. LP ( 1) S  3            18. BD*( 3) O  1- C  2      2.68    1.61   0.059
   10. LP ( 2) S  3            16. BD*( 1) O  1- C  2    155.85    0.37   0.215
   10. LP ( 2) S  3            17. BD*( 2) O  1- C  2      5.93    0.45   0.046
   11. LP ( 3) S  3            16. BD*( 1) O  1- C  2      8.25    0.37   0.050
   11. LP ( 3) S  3            17. BD*( 2) O  1- C  2    114.18    0.45   0.203
   11. LP ( 3) S  3            18. BD*( 3) O  1- C  2      5.28    1.06   0.067
   12. BD ( 1) O  1- C  2      16. BD*( 1) O  1- C  2      1.87    0.71   0.032
   13. BD ( 2) O  1- C  2      17. BD*( 2) O  1- C  2      2.74    0.85   0.043
   13. BD ( 2) O  1- C  2      18. BD*( 3) O  1- C  2      1.47    1.45   0.041
   14. BD ( 3) O  1- C  2      17. BD*( 2) O  1- C  2      1.74    1.34   0.043
   14. BD ( 3) O  1- C  2      19. BD*( 1) C  2- S  3      4.58    1.71   0.079
   15. BD ( 1) C  2- S  3      17. BD*( 2) O  1- C  2      1.64    1.07   0.037
   15. BD ( 1) C  2- S  3      18. BD*( 3) O  1- C  2      6.80    1.68   0.095


 NATURAL BOND ORBITALS (Summary):

                                                     Principal Delocalizations
           NBO                 Occupancy    Energy   (geminal,vicinal,remote)
 ===============================================================================
 Molecular unit  1  (COS)
 ------ Lewis --------------------------------------
    1. CR ( 1) O  1             2.00000   -20.23080
    2. CR ( 1) C  2             2.00000   -11.17344
    3. CR ( 1) S  3             2.00000   -90.68913
    4. CR ( 2) S  3             2.00000    -8.60174
    5. CR ( 3) S  3             1.99998    -6.26396
    6. CR ( 4) S  3             1.99998    -6.26396
    7. CR ( 5) S  3             1.99997    -6.26888
    8. LP ( 1) O  1             1.99606    -1.01146  19(v)
    9. LP ( 1) S  3             1.99575    -0.75168  18(v)
   10. LP ( 2) S  3             1.64426    -0.20031  16(v),17(v)
   11. LP ( 3) S  3             1.64426    -0.20031  17(v),16(v),18(v)
   12. BD ( 1) O  1- C  2       2.00000    -0.53355  16(g)
   13. BD ( 2) O  1- C  2       1.99668    -0.59681  17(g),18(g)
   14. BD ( 3) O  1- C  2       1.99090    -1.08964  19(g),17(g)
   15. BD ( 1) C  2- S  3       1.99208    -0.82110  18(g),17(g)
 ------ non-Lewis ----------------------------------
   16. BD*( 1) O  1- C  2       0.35574     0.17272
   17. BD*( 2) O  1- C  2       0.32300     0.25080
   18. BD*( 3) O  1- C  2       0.05048     0.85670
   19. BD*( 1) C  2- S  3       0.01084     0.61561
          -------------------------------
                 Total Lewis   29.25993  ( 97.5331%)
           Valence non-Lewis    0.74007  (  2.4669%)
           Rydberg non-Lewis    0.00000  (  0.0000%)
          -------------------------------
               Total unit  1   30.00000  (100.0000%)
              Charge unit  1    0.00000

 $CHOOSE
   LONE 1 1 3 3 END
   BOND T 1 2 S 2 3 END
 $END

 NBO analysis completed in 0.42 CPU seconds (1 wall second)
 Maximum scratch memory used by NBO was 264332 words (2.02 MB)
 Maximum scratch memory used by G16NBO was 8738 words (0.07 MB)

 Opening RunExU unformatted file "/cluster/work/users/beto93/mol61/Gau-508774.EUF"
 Read unf file /cluster/work/users/beto93/mol61/Gau-508774.EUF:
 Label Gaussian matrix elements                                         IVers= 2 NLab= 2 Version=ES64L-G16RevC.01
 Title mol61-NBO                                                       
 NAtoms=     3 NBasis=    19 NBsUse=    19 ICharg=     0 Multip=     1 NE=    30 Len12L=8 Len4L=8 IOpCl= 0 ICGU=111
 GAUSSIAN SCALARS                    NI= 1 NR= 1 NTot=       1 LenBuf=    2 NRI=1 N=    1000
 NPA CHARGES                         NI= 0 NR= 1 NTot=       3 LenBuf= 4000 NRI=1 N=       3
 Recovered energy= -504.403571841     dipole=      0.000000000000     -0.000000000000      0.074860223713
 Unable to Open any file for archive entry.
 1\1\GINC-C1-41\SP\RHF\STO-3G\C1O1S1\BETO93\18-Nov-2024\0\\#RHF/STO-3G 
 int=nobasistransform Symmetry=None 5D 7F Pop=NBO7Read\\mol61-NBO\\0,1\
 O,0,0.,0.,-1.699243\C,0,0.,0.,-0.520492\S,0,0.,0.,1.044806\\Version=ES
 64L-G16RevC.01\HF=-504.4035718\RMSD=5.946e-09\Dipole=0.,0.,0.0748602\Q
 uadrupole=1.0037025,1.0037025,-2.007405,0.,0.,0.\PG=Unknown\\@
 The archive entry for this job was punched.


 Statistics are no substitute for judgment.
                            -- Henry Clay
 Job cpu time:       0 days  0 hours  0 minutes 10.1 seconds.
 Elapsed time:       0 days  0 hours  0 minutes  3.7 seconds.
 File lengths (MBytes):  RWF=     10 Int=      0 D2E=      0 Chk=      1 Scr=      1
 Normal termination of Gaussian 16 at Mon Nov 18 15:41:20 2024.
