 Entering Gaussian System, Link 0=g16
 Initial command:
 /cluster/software/Gaussian/g16_C.01/l1.exe "/cluster/work/users/beto93/LiCH3/Gau-2018233.inp" -scrdir="/cluster/work/users/beto93/LiCH3/"
 Entering Link 1 = /cluster/software/Gaussian/g16_C.01/l1.exe PID=   2018234.
  
 Copyright (c) 1988-2019, Gaussian, Inc.  All Rights Reserved.
  
 This is part of the Gaussian(R) 16 program.  It is based on
 the Gaussian(R) 09 system (copyright 2009, Gaussian, Inc.),
 the Gaussian(R) 03 system (copyright 2003, Gaussian, Inc.),
 the Gaussian(R) 98 system (copyright 1998, Gaussian, Inc.),
 the Gaussian(R) 94 system (copyright 1995, Gaussian, Inc.),
 the Gaussian 92(TM) system (copyright 1992, Gaussian, Inc.),
 the Gaussian 90(TM) system (copyright 1990, Gaussian, Inc.),
 the Gaussian 88(TM) system (copyright 1988, Gaussian, Inc.),
 the Gaussian 86(TM) system (copyright 1986, Carnegie Mellon
 University), and the Gaussian 82(TM) system (copyright 1983,
 Carnegie Mellon University). Gaussian is a federally registered
 trademark of Gaussian, Inc.
  
 This software contains proprietary and confidential information,
 including trade secrets, belonging to Gaussian, Inc.
  
 This software is provided under written license and may be
 used, copied, transmitted, or stored only in accord with that
 written license.
  
 The following legend is applicable only to US Government
 contracts under FAR:
  
                    RESTRICTED RIGHTS LEGEND
  
 Use, reproduction and disclosure by the US Government is
 subject to restrictions as set forth in subparagraphs (a)
 and (c) of the Commercial Computer Software - Restricted
 Rights clause in FAR 52.227-19.
  
 Gaussian, Inc.
 340 Quinnipiac St., Bldg. 40, Wallingford CT 06492
  
  
 ---------------------------------------------------------------
 Warning -- This program may not be used in any manner that
 competes with the business of Gaussian, Inc. or will provide
 assistance to any competitor of Gaussian, Inc.  The licensee
 of this program is prohibited from giving any competitor of
 Gaussian, Inc. access to this program.  By using this program,
 the user acknowledges that Gaussian, Inc. is engaged in the
 business of creating and licensing software in the field of
 computational chemistry and represents and warrants to the
 licensee that it is not a competitor of Gaussian, Inc. and that
 it will not use this program in any manner prohibited above.
 ---------------------------------------------------------------
  

 Cite this work as:
 Gaussian 16, Revision C.01,
 M. J. Frisch, G. W. Trucks, H. B. Schlegel, G. E. Scuseria, 
 M. A. Robb, J. R. Cheeseman, G. Scalmani, V. Barone, 
 G. A. Petersson, H. Nakatsuji, X. Li, M. Caricato, A. V. Marenich, 
 J. Bloino, B. G. Janesko, R. Gomperts, B. Mennucci, H. P. Hratchian, 
 J. V. Ortiz, A. F. Izmaylov, J. L. Sonnenberg, D. Williams-Young, 
 F. Ding, F. Lipparini, F. Egidi, J. Goings, B. Peng, A. Petrone, 
 T. Henderson, D. Ranasinghe, V. G. Zakrzewski, J. Gao, N. Rega, 
 G. Zheng, W. Liang, M. Hada, M. Ehara, K. Toyota, R. Fukuda, 
 J. Hasegawa, M. Ishida, T. Nakajima, Y. Honda, O. Kitao, H. Nakai, 
 T. Vreven, K. Throssell, J. A. Montgomery, Jr., J. E. Peralta, 
 F. Ogliaro, M. J. Bearpark, J. J. Heyd, E. N. Brothers, K. N. Kudin, 
 V. N. Staroverov, T. A. Keith, R. Kobayashi, J. Normand, 
 K. Raghavachari, A. P. Rendell, J. C. Burant, S. S. Iyengar, 
 J. Tomasi, M. Cossi, J. M. Millam, M. Klene, C. Adamo, R. Cammi, 
 J. W. Ochterski, R. L. Martin, K. Morokuma, O. Farkas, 
 J. B. Foresman, and D. J. Fox, Gaussian, Inc., Wallingford CT, 2019.
 
 ******************************************
 Gaussian 16:  ES64L-G16RevC.01  3-Jul-2019
                 2-Aug-2024 
 ******************************************
 %LindaWorkers=c2-6-ib
 %NProcShared=4
 Will use up to    4 processors via shared memory.
 %mem=25GB
 %chk=LiCH3.chk
 SetLPE:    new flags="-opt 'Tsnet.Node.lindarsharg: ssh'  -nodelist 'c2-6-ib.saga' -env GAUSS_MDEF=3355443200 -env GAUSS_EXEDIR="/cluster/software/Gaussian/g16_C.01/bsd:/cluster/software/Gaussian/g16_C.01""
 Will use up to    1 processors via Linda.
 ----------------------------
 #RHF/STO-3G NMR Pop=NBO7Read
 ----------------------------
 1/38=1,163=2,172=1/1;
 2/12=2,17=6,18=5,40=1/2;
 3/6=3,11=1,25=1,30=1,116=1/1,2,3,8;
 4//1;
 5/5=2,38=5/2;
 8/6=1,10=90,11=11/1;
 10/13=100,45=16/2;
 6/7=2,8=2,9=2,10=2,28=1,40=2,64=1,113=1,114=1,124=2103,125=11000/1,12;
 99/9=1/99;
 ---------
 NBO-LiCH3
 ---------
 Symbolic Z-matrix:
 Charge =  0 Multiplicity = 1
 C                     0.39811   0.        0. 
 Li                   -1.61033   0.        0. 
 H                     0.81411  -0.54245  -0.83961 
 H                     0.81411  -0.4559    0.88958 
 H                     0.81411   0.99835  -0.04997 
 
                          Input orientation:                          
 ---------------------------------------------------------------------
 Center     Atomic      Atomic             Coordinates (Angstroms)
 Number     Number       Type             X           Y           Z
 ---------------------------------------------------------------------
      1          6           0        0.398109    0.000000    0.000000
      2          3           0       -1.610325    0.000000    0.000000
      3          1           0        0.814106   -0.542451   -0.839607
      4          1           0        0.814106   -0.455895    0.889580
      5          1           0        0.814106    0.998346   -0.049973
 ---------------------------------------------------------------------
                    Distance matrix (angstroms):
                    1          2          3          4          5
     1  C    0.000000
     2  Li   2.008434   0.000000
     3  H    1.082703   2.622415   0.000000
     4  H    1.082703   2.622415   1.731352   0.000000
     5  H    1.082703   2.622414   1.731351   1.731351   0.000000
 Stoichiometry    CH3Li
 Framework group  C3V[C3(LiC),3SGV(H)]
 Deg. of freedom     3
 Full point group                 C3V     NOp   6
 Largest Abelian subgroup         CS      NOp   2
 Largest concise Abelian subgroup CS      NOp   2
                         Standard orientation:                         
 ---------------------------------------------------------------------
 Center     Atomic      Atomic             Coordinates (Angstroms)
 Number     Number       Type             X           Y           Z
 ---------------------------------------------------------------------
      1          6           0        0.000000   -0.000000    0.398109
      2          3           0       -0.000000    0.000000   -1.610325
      3          1           0       -0.000000    0.999596    0.814106
      4          1           0        0.865676   -0.499798    0.814106
      5          1           0       -0.865676   -0.499798    0.814106
 ---------------------------------------------------------------------
 Rotational constants (GHZ):         167.2867015          22.1054977          22.1054977
 Standard basis: STO-3G (5D, 7F)
 There are    10 symmetry adapted cartesian basis functions of A'  symmetry.
 There are     3 symmetry adapted cartesian basis functions of A"  symmetry.
 There are    10 symmetry adapted basis functions of A'  symmetry.
 There are     3 symmetry adapted basis functions of A"  symmetry.
    13 basis functions,    39 primitive gaussians,    13 cartesian basis functions
     6 alpha electrons        6 beta electrons
       nuclear repulsion energy        16.2732368186 Hartrees.
 NAtoms=    5 NActive=    5 NUniq=    3 SFac= 2.78D+00 NAtFMM=   60 NAOKFM=F Big=F
 Integral buffers will be    131072 words long.
 Raffenetti 1 integral format.
 Two-electron integral symmetry is turned on.
 One-electron integrals computed using PRISM.
 NBasis=    13 RedAO= T EigKep=  2.35D-01  NBF=    10     3
 NBsUse=    13 1.00D-06 EigRej= -1.00D+00 NBFU=    10     3
 ExpMin= 4.81D-02 ExpMax= 7.16D+01 ExpMxC= 7.16D+01 IAcc=3 IRadAn=         5 AccDes= 0.00D+00
 Harris functional with IExCor=  205 and IRadAn=       5 diagonalized for initial guess.
 HarFok:  IExCor=  205 AccDes= 0.00D+00 IRadAn=         5 IDoV= 1 UseB2=F ITyADJ=14
 ICtDFT=  3500011 ScaDFX=  1.000000  1.000000  1.000000  1.000000
 FoFCou: FMM=F IPFlag=           0 FMFlag=      100000 FMFlg1=           0
         NFxFlg=           0 DoJE=T BraDBF=F KetDBF=T FulRan=T
         wScrn=  0.000000 ICntrl=       500 IOpCl=  0 I1Cent=   200000004 NGrid=           0
         NMat0=    1 NMatS0=      1 NMatT0=    0 NMatD0=    1 NMtDS0=    0 NMtDT0=    0
 Petite list used in FoFCou.
 Initial guess orbital symmetries:
       Occupied  (A1) (A1) (A1) (E) (E) (A1)
       Virtual   (A1) (E) (E) (A1) (E) (E) (A1)
 The electronic state of the initial guess is 1-A1.
 Keep R1 ints in memory in symmetry-blocked form, NReq=809751.
 Requested convergence on RMS density matrix=1.00D-08 within 128 cycles.
 Requested convergence on MAX density matrix=1.00D-06.
 Requested convergence on             energy=1.00D-06.
 No special actions if energy rises.
 SCF Done:  E(RHF) =  -46.4215878959     A.U. after   10 cycles
            NFock= 10  Conv=0.51D-08     -V/T= 2.0017
 Range of M.O.s used for correlation:     1    13
 NBasis=    13 NAE=     6 NBE=     6 NFC=     0 NFV=     0
 NROrb=     13 NOA=     6 NOB=     6 NVA=     7 NVB=     7
          Differentiating once with respect to magnetic field using GIAOs.
          Electric field/nuclear overlap derivatives assumed to be zero.
 Keep R3 ints in memory in symmetry-blocked form, NReq=810287.
 FoFJK:  IHMeth= 1 ICntrl=    6127 DoSepK=F KAlg= 0 I1Cent=           0 FoldK=F
 IRaf=         1 NMat=       1 IRICut=       1 DoRegI=T DoRafI=F ISym2E= 0 IDoP0=0 IntGTp=1.
          There are     3 degrees of freedom in the 1st order CPHF.  IDoFFX=0 NUNeed=     3.
      3 vectors produced by pass  0 Test12= 1.40D-15 3.33D-08 XBig12= 5.22D-01 7.00D-01.
 AX will form     3 AO Fock derivatives at one time.
      3 vectors produced by pass  1 Test12= 1.40D-15 3.33D-08 XBig12= 1.17D-03 1.72D-02.
      2 vectors produced by pass  2 Test12= 1.40D-15 3.33D-08 XBig12= 2.56D-06 7.06D-04.
      2 vectors produced by pass  3 Test12= 1.40D-15 3.33D-08 XBig12= 4.54D-08 1.10D-04.
      2 vectors produced by pass  4 Test12= 1.40D-15 3.33D-08 XBig12= 2.68D-10 8.51D-06.
      2 vectors produced by pass  5 Test12= 1.40D-15 3.33D-08 XBig12= 5.83D-12 1.07D-06.
      2 vectors produced by pass  6 Test12= 1.40D-15 3.33D-08 XBig12= 7.00D-14 1.16D-07.
 InvSVY:  IOpt=1 It=  1 EMax= 2.78D-17
 Solved reduced A of dimension    16 with     3 vectors.
 Calculating GIAO nuclear magnetic shielding tensors.
 SCF GIAO Magnetic shielding tensor (ppm):
      1  C    Isotropic =   266.3852   Anisotropy =    20.3086
   XX=   279.9242   YX=     0.0000   ZX=     0.0000
   XY=    -0.0000   YY=   279.9242   ZY=     0.0000
   XZ=    -0.0000   YZ=     0.0000   ZZ=   239.3071
   Eigenvalues:   239.3071   279.9242   279.9242
      2  Li   Isotropic =    85.7313   Anisotropy =    27.9019
   XX=    76.4307   YX=    -0.0000   ZX=     0.0000
   XY=    -0.0000   YY=    76.4307   ZY=    -0.0000
   XZ=     0.0000   YZ=    -0.0000   ZZ=   104.3326
   Eigenvalues:    76.4307    76.4307   104.3326
      3  H    Isotropic =    33.6913   Anisotropy =    13.9577
   XX=    28.3532   YX=     0.0000   ZX=    -0.0000
   XY=     0.0000   YY=    40.3587   ZY=     6.1894
   XZ=    -0.0000   YZ=     4.4033   ZZ=    32.3620
   Eigenvalues:    28.3532    29.7242    42.9964
      4  H    Isotropic =    33.6913   Anisotropy =    13.9577
   XX=    37.3573   YX=    -5.1985   ZX=     5.3602
   XY=    -5.1985   YY=    31.3546   ZY=    -3.0947
   XZ=     3.8133   YZ=    -2.2016   ZZ=    32.3620
   Eigenvalues:    28.3532    29.7242    42.9964
      5  H    Isotropic =    33.6913   Anisotropy =    13.9577
   XX=    37.3573   YX=     5.1985   ZX=    -5.3602
   XY=     5.1985   YY=    31.3546   ZY=    -3.0947
   XZ=    -3.8133   YZ=    -2.2016   ZZ=    32.3620
   Eigenvalues:    28.3532    29.7242    42.9964
 End of Minotr F.D. properties file   721 does not exist.
 End of Minotr F.D. properties file   722 does not exist.
 End of Minotr F.D. properties file   788 does not exist.

 **********************************************************************

            Population analysis using the SCF Density.

 **********************************************************************

 Orbital symmetries:
       Occupied  (A1) (A1) (A1) (E) (E) (A1)
       Virtual   (A1) (E) (E) (A1) (E) (E) (A1)
 The electronic state is 1-A1.
 Alpha  occ. eigenvalues --  -10.91966  -2.33275  -0.80005  -0.43296  -0.43296
 Alpha  occ. eigenvalues --   -0.23959
 Alpha virt. eigenvalues --    0.08536   0.18415   0.18415   0.44867   0.80043
 Alpha virt. eigenvalues --    0.80043   0.88284
          Condensed to atoms (all electrons):
               1          2          3          4          5
     1  C    4.769770   0.314209   0.385893   0.385893   0.385893
     2  Li   0.314209   2.636757  -0.036318  -0.036318  -0.036318
     3  H    0.385893  -0.036318   0.667620  -0.022543  -0.022543
     4  H    0.385893  -0.036318  -0.022543   0.667620  -0.022543
     5  H    0.385893  -0.036318  -0.022543  -0.022543   0.667620
 Mulliken charges:
               1
     1  C   -0.241659
     2  Li   0.157988
     3  H    0.027890
     4  H    0.027890
     5  H    0.027890
 Sum of Mulliken charges =  -0.00000
 Mulliken charges with hydrogens summed into heavy atoms:
               1
     1  C   -0.157988
     2  Li   0.157988
 Electronic spatial extent (au):  <R**2>=             65.6448
 Charge=             -0.0000 electrons
 Dipole moment (field-independent basis, Debye):
    X=              0.0000    Y=             -0.0000    Z=             -4.2658  Tot=              4.2658
 Quadrupole moment (field-independent basis, Debye-Ang):
   XX=            -11.2404   YY=            -11.2404   ZZ=              0.0684
   XY=             -0.0000   XZ=              0.0000   YZ=              0.0000
 Traceless Quadrupole moment (field-independent basis, Debye-Ang):
   XX=             -3.7696   YY=             -3.7696   ZZ=              7.5392
   XY=             -0.0000   XZ=              0.0000   YZ=              0.0000
 Octapole moment (field-independent basis, Debye-Ang**2):
  XXX=              0.0000  YYY=              0.2889  ZZZ=            -23.1108  XYY=              0.0000
  XXY=             -0.2889  XXZ=              0.1363  XZZ=              0.0000  YZZ=              0.0000
  YYZ=              0.1363  XYZ=              0.0000
 Hexadecapole moment (field-independent basis, Debye-Ang**3):
 XXXX=            -23.8063 YYYY=            -23.8063 ZZZZ=             -7.0822 XXXY=              0.0000
 XXXZ=              0.0000 YYYX=              0.0000 YYYZ=              0.3382 ZZZX=              0.0000
 ZZZY=              0.0000 XXYY=             -7.9354 XXZZ=            -11.2493 YYZZ=            -11.2493
 XXYZ=             -0.3382 YYXZ=              0.0000 ZZXY=             -0.0000
 N-N= 1.627323681856D+01 E-N=-1.414180540702D+02  KE= 4.634434353722D+01
 Symmetry A'   KE= 4.446420306111D+01
 Symmetry A"   KE= 1.880140476105D+00
 Running external command "gaunbo7 R"
         input file       "/cluster/work/users/beto93/LiCH3/Gau-2018234.EIn"
         output file      "/cluster/work/users/beto93/LiCH3/Gau-2018234.EOu"
         message file     "/cluster/work/users/beto93/LiCH3/Gau-2018234.EMs"
         fchk file        "/cluster/work/users/beto93/LiCH3/Gau-2018234.EFC"
         mat. el file     "/cluster/work/users/beto93/LiCH3/Gau-2018234.EUF"

 Writing WrtUnf unformatted file "/cluster/work/users/beto93/LiCH3/Gau-2018234.EUF"
 Gaussian matrix elements                                         Version   2 NLab=11 Len12L=8 Len4L=8
 Write SHELL TO ATOM MAP                   from file      0 offset           0 length                   7 to matrix element file.
 Write SHELL TYPES                         from file      0 offset           0 length                   7 to matrix element file.
 Write NUMBER OF PRIMITIVES PER SHELL      from file      0 offset           0 length                   7 to matrix element file.
 Write PRIMITIVE EXPONENTS                 from file      0 offset           0 length                  21 to matrix element file.
 Write CONTRACTION COEFFICIENTS            from file      0 offset           0 length                  21 to matrix element file.
 Write P(S=P) CONTRACTION COEFFICIENTS     from file      0 offset           0 length                  21 to matrix element file.
 Write COORDINATES OF EACH SHELL           from file      0 offset           0 length                  21 to matrix element file.
 Write BONDS PER ATOM                      from file      0 offset           0 length                   5 to matrix element file.
 Write BONDED ATOMS                        from file      0 offset           0 length                   8 to matrix element file.
 Write BOND TYPES                          from file      0 offset           0 length                   8 to matrix element file.
 Write ONIOM CHARGE/MULT                   from file      0 offset           0 length                  32 to matrix element file.
 Write ONIOM ATOM LAYERS                   from file      0 offset           0 length                   5 to matrix element file.
 Write ONIOM ATOM MODIFIERS                from file      0 offset           0 length                   5 to matrix element file.
 Write ONIOM ATOM TYPES                    from file      0 offset           0 length                   5 to matrix element file.
 Write ONIOM LINK ATOMS                    from file      0 offset           0 length                   5 to matrix element file.
 Write ONIOM LINK CHARGES                  from file      0 offset           0 length                   5 to matrix element file.
 Write ONIOM LINK DISTANCES                from file      0 offset           0 length                  20 to matrix element file.
 Write SYMINF INTS                         from file      0 offset           0 length                  26 to matrix element file.
 Write ROTTR TO SO                         from file      0 offset           0 length                  12 to matrix element file.
 Write GAUSSIAN SCALARS                    from file    501 offset           0 to matrix element file.
 Write OPTIMIZATION FLAGS                  from file      0 offset           0 length                   5 to matrix element file.
 Write INTEGER ISO                         from file      0 offset           0 length                   5 to matrix element file.
 Write INTEGER SPIN                        from file      0 offset           0 length                   5 to matrix element file.
 Write REAL ZEFFECTIVE                     from file      0 offset           0 length                   5 to matrix element file.
 Write REAL QUADRUPOLEMOMENT               from file      0 offset           0 length                   5 to matrix element file.
 Write REAL GFACTOR                        from file      0 offset           0 length                   5 to matrix element file.
 Write REAL ZNUCLEAR                       from file      0 offset           0 length                   5 to matrix element file.
 Write MULLIKEN CHARGES                    from file      0 offset           0 length                   5 to matrix element file.
 Write NUCLEAR GRADIENT                    from file  10584 offset           0 length                  15 to matrix element file.
 Array NUCLEAR FORCE CONSTANTS              on  file  10585 does not exist.
 Write ELECTRIC DIPOLE MOMENT              from file      0 offset           0 length                   3 to matrix element file.
 Write NON-ADIABATIC COUPLING              from file  10810 offset           0 length                  15 to matrix element file.
 Write FINITE EM FIELD                     from file  10521 offset           0 length                  35 to matrix element file.
 Write OVERLAP                             from file  10514 offset           0 length                  91 to matrix element file.
 Write CORE HAMILTONIAN ALPHA              from file  10515 offset           0 length                  91 to matrix element file.
 Write CORE HAMILTONIAN BETA               from file  10515 offset          91 length                  91 to matrix element file.
 Write KINETIC ENERGY                      from file  10516 offset           0 length                  91 to matrix element file.
 Write ORTHOGONAL BASIS                    from file  10685 offset           0 length                 169 to matrix element file.
 Write DIPOLE INTEGRALS                    from file  10518 offset           0 length                 273 to matrix element file.
 Write DIP VEL INTEGRALS                   from file  10572 offset           0 length                 273 to matrix element file.
 Write R X DEL INTEGRALS                   from file  10572 offset         273 length                 273 to matrix element file.
 Write ALPHA ORBITAL ENERGIES              from file      0 offset           0 length                  13 to matrix element file.
 Write ALPHA MO COEFFICIENTS               from file  10524 offset           0 length                 169 to matrix element file.
 Write ALPHA DENSITY MATRIX                from file      0 offset           0 length                  91 to matrix element file.
 Write ALPHA FOCK MATRIX                   from file  10536 offset           0 length                  91 to matrix element file.
 Write ENERGY-WEIGHTED DENSITY             from file  10571 offset           0 length                  91 to matrix element file.
 Write ALPHA DENSITY DERIVATIVES           from file  10592 offset           0 length                 273 to matrix element file.
 Write ALPHA MO DERIVATIVES                from file      0 offset           0 length                 234 to matrix element file.
 Write ALPHA SCF DENSITY MATRIX            from file      0 offset           0 length                  91 to matrix element file.
 Write TRANS MO COEFFICIENTS               from file  10548 offset           0 length                 169 to matrix element file.
 Compute GIAO d2H/dBdm
 Compute GIAO d2H/dBdm, IAt=     1 NDo=     2
 Compute GIAO d2H/dBdm, IAt=     3 NDo=     2
 Compute GIAO d2H/dBdm, IAt=     5 NDo=     1
 Write GIAO D2H/DBDM                       from file  19999 offset           0 length                4095 to matrix element file.
 Compute GIAO L/R3
 Compute GIAO L/R3, IAt=     1 NDo=     2
 Compute GIAO L/R3, IAt=     3 NDo=     2
 Compute GIAO L/R3, IAt=     5 NDo=     1
 Write GIAO L/R3                           from file  19999 offset           0 length                1365 to matrix element file.
 Write INTEGER PARAMETERS                  from file      0 offset           0 length                   2 to matrix element file.
 No 2e integrals to process.
 Array PSCF 2PDM                            on  file  10629 does not exist.
 Perform NBO analysis...executing G16NBO...

 *********************************** NBO 7.0 ***********************************
             N A T U R A L   A T O M I C   O R B I T A L   A N D
          N A T U R A L   B O N D   O R B I T A L   A N A L Y S I S
 **************************** Espen Tangen (S101595) ***************************
  (c) Copyright 1996-2021 Board of Regents of the University of Wisconsin System
      on behalf of the Theoretical Chemistry Institute.  All rights reserved.

          Cite this program [NBO 7.0.10 (8-Feb-2021)] as:

          NBO 7.0.  E. D. Glendening, J. K. Badenhoop, A. E. Reed,
          J. E. Carpenter, J. A. Bohmann, C. M. Morales, P. Karafiloglou,
          C. R. Landis, and F. Weinhold, Theoretical Chemistry Institute,
          University of Wisconsin, Madison, WI (2018)

       /NPA    / : Natural Population Analysis
       /NCS    / : Natural Chemical Shielding Analysis
                     including chemical shielding anisotropy
                     NCS Analysis of unperturbed contributions
                     NCS Analysis of induced contributions
                     NCS Analysis with canonical MOs
                     Print threshold set to 0.001 ppm
       /AOPNAO / : Print the AO to PNAO transformation
       /AONAO  / : Print the AO to NAO transformation
       /AONO   / : Print the NOs in the AO basis
       /AOMO   / : Print the MOs in the AO basis
       /BOAO   / : Print the AO bond-order matrix
       /DMAO   / : Print the AO density matrix
       /DMPNAO / : Print the PNAO density matrix
       /DMNAO  / : Print the NAO density matrix
       /DMMO   / : Print the MO density matrix
       /SAO    / : Print the AO overlap matrix
       /SPNAO  / : Print the PNAO overlap matrix
       /DETAIL / : Write details of NBO search
       /ARCHIVE/ : Write the archive file to lfn47
       /AOINFO / : Write AO information to lfn31
       /FILE   / : Set to LiCH3

 Filename set to LiCH3

 Job title: NBO-LiCH3


 MOs in the AO basis:

           AO          1       2       3       4       5       6       7       8
      ------------ ------- ------- ------- ------- ------- ------- ------- -------
   1.  C 1 (s)      0.9921 -0.0015 -0.2152  0.0000  0.0000  0.0472  0.0278  0.0000
   2.  C 1 (s)      0.0372  0.0033  0.6127  0.0000  0.0000 -0.1544 -0.0910  0.0000
   3.  C 1 (px)     0.0000  0.0000  0.0000  0.0000  0.5395  0.0000  0.0000 -0.0937
   4.  C 1 (py)     0.0000  0.0000  0.0000  0.5395  0.0000  0.0000  0.0000  0.0000
   5.  C 1 (pz)     0.0023 -0.0044  0.1059  0.0000  0.0000  0.6396  0.1791  0.0000
   6. Li 2 (s)      0.0001  0.9909 -0.0302  0.0000  0.0000  0.1705 -0.2057  0.0000
   7. Li 2 (s)     -0.0038  0.0340  0.0323  0.0000  0.0000 -0.4827  0.7895  0.0000
   8. Li 2 (px)     0.0000  0.0000  0.0000  0.0000  0.0622  0.0000  0.0000  1.0116
   9. Li 2 (py)     0.0000  0.0000  0.0000  0.0622  0.0000  0.0000  0.0000  0.0000
  10. Li 2 (pz)    -0.0048 -0.0050  0.0235  0.0000  0.0000 -0.2945 -0.6066  0.0000
  11.  H 3 (s)     -0.0063 -0.0020  0.2168  0.5136  0.0000  0.1517  0.0326  0.0000
  12.  H 4 (s)     -0.0063 -0.0020  0.2168 -0.2568  0.4448  0.1517  0.0326 -0.1330
  13.  H 5 (s)     -0.0063 -0.0020  0.2168 -0.2568 -0.4448  0.1517  0.0326  0.1330

           AO          9      10      11      12      13
      ------------ ------- ------- ------- ------- -------
   1.  C 1 (s)      0.0000 -0.1648  0.0000  0.0000 -0.1797
   2.  C 1 (s)      0.0000  1.0184  0.0000  0.0000  1.1624
   3.  C 1 (px)     0.0000  0.0000  0.0000  1.1161  0.0000
   4.  C 1 (py)    -0.0937  0.0000  1.1161  0.0000  0.0000
   5.  C 1 (pz)     0.0000 -0.5705  0.0000  0.0000  0.8023
   6. Li 2 (s)      0.0000  0.1072  0.0000  0.0000 -0.0402
   7. Li 2 (s)      0.0000 -0.6537  0.0000  0.0000  0.2454
   8. Li 2 (px)     0.0000  0.0000  0.0000 -0.0692  0.0000
   9. Li 2 (py)     1.0116  0.0000 -0.0692  0.0000  0.0000
  10. Li 2 (pz)     0.0000 -0.9757  0.0000  0.0000  0.3001
  11.  H 3 (s)     -0.1535 -0.0958 -0.9802  0.0000 -0.7727
  12.  H 4 (s)      0.0768 -0.0958  0.4901 -0.8488 -0.7727
  13.  H 5 (s)      0.0768 -0.0958  0.4901  0.8488 -0.7727


 NOs in the AO basis:

           AO          1       2       3       4       5       6       7       8
      ------------ ------- ------- ------- ------- ------- ------- ------- -------
   1.  C 1 (s)      0.6069  0.5797 -0.5141  0.1652 -0.1880 -0.0382  0.0033  0.0230
   2.  C 1 (s)      0.1538  0.0074  0.2893 -0.4965 -0.1292 -0.1732 -0.0623 -0.1261
   3.  C 1 (px)     0.1743 -0.0119  0.0385  0.0177  0.4736 -0.1855  0.0485  0.2059
   4.  C 1 (py)     0.3240 -0.2653  0.0649  0.0182 -0.0013  0.3335  0.1651  0.3667
   5.  C 1 (pz)     0.0708 -0.4185 -0.3057  0.0655 -0.1497 -0.3463 -0.0174 -0.0434
   6. Li 2 (s)     -0.2047 -0.1422 -0.7167 -0.5543  0.2511  0.2564  0.0951 -0.0489
   7. Li 2 (s)     -0.0355  0.2932  0.2535 -0.1527  0.0944  0.2271 -0.3348  0.1745
   8. Li 2 (px)     0.0201 -0.0014  0.0044  0.0020  0.0546 -0.0214  0.1602 -0.8664
   9. Li 2 (py)     0.0374 -0.0306  0.0075  0.0021 -0.0001  0.0385  0.7894  0.2297
  10. Li 2 (pz)    -0.0169  0.1779  0.1730 -0.0800  0.0501  0.1288  0.4400 -0.2080
  11.  H 3 (s)      0.3649 -0.3903  0.0625 -0.1104 -0.0826  0.1595 -0.3462 -0.2953
  12.  H 4 (s)      0.0459 -0.0214  0.0016 -0.1218  0.3097 -0.4696  0.0825  0.2932
  13.  H 5 (s)     -0.2414 -0.0017 -0.0619 -0.1509 -0.4713 -0.1638  0.2226  0.2597

           AO          9      10      11      12      13
      ------------ ------- ------- ------- ------- -------
   1.  C 1 (s)     -0.0046 -0.0292 -0.0448  0.2357 -0.0355
   2.  C 1 (s)      0.0713  0.1220  0.2632 -1.4973  0.2140
   3.  C 1 (px)    -0.0451  0.2014 -0.0263 -0.1623 -1.0678
   4.  C 1 (py)    -0.5426 -0.0896 -0.8551 -0.2018  0.1360
   5.  C 1 (pz)    -0.1553 -0.9107  0.2169 -0.2825 -0.1367
   6. Li 2 (s)     -0.0924  0.1754  0.0503 -0.0303  0.0352
   7. Li 2 (s)      0.2749 -0.8949 -0.1449  0.1893 -0.1872
   8. Li 2 (px)     0.1938 -0.0966 -0.4522 -0.0135 -0.0119
   9. Li 2 (py)     0.5738 -0.1010  0.1064 -0.0093  0.0357
  10. Li 2 (pz)    -0.6882 -0.6285  0.3877  0.3525 -0.1727
  11.  H 3 (s)      0.4470  0.4457  0.5186  0.8340 -0.1471
  12.  H 4 (s)     -0.0823  0.1540 -0.4769  0.6888  0.8755
  13.  H 5 (s)     -0.0733  0.4262 -0.7012  0.4323 -0.7804


 AO overlap matrix:

           AO          1       2       3       4       5       6       7       8
      ------------ ------- ------- ------- ------- ------- ------- ------- -------
   1.  C 1 (s)      1.0000  0.2484  0.0000  0.0000  0.0000  0.0000  0.0343  0.0000
   2.  C 1 (s)      0.2484  1.0000  0.0000  0.0000  0.0000  0.0276  0.3190  0.0000
   3.  C 1 (px)     0.0000  0.0000  1.0000  0.0000  0.0000  0.0000  0.0000  0.1692
   4.  C 1 (py)     0.0000  0.0000  0.0000  1.0000  0.0000  0.0000  0.0000  0.0000
   5.  C 1 (pz)     0.0000  0.0000  0.0000  0.0000  1.0000 -0.0490 -0.1834  0.0000
   6. Li 2 (s)      0.0000  0.0276  0.0000  0.0000 -0.0490  1.0000  0.2411  0.0000
   7. Li 2 (s)      0.0343  0.3190  0.0000  0.0000 -0.1834  0.2411  1.0000  0.0000
   8. Li 2 (px)     0.0000  0.0000  0.1692  0.0000  0.0000  0.0000  0.0000  1.0000
   9. Li 2 (py)     0.0000  0.0000  0.0000  0.1692  0.0000  0.0000  0.0000  0.0000
  10. Li 2 (pz)     0.0601  0.4599  0.0000  0.0000 -0.2200  0.0000  0.0000  0.0000
  11.  H 3 (s)      0.0633  0.4950  0.0000  0.4337  0.1805  0.0059  0.1769  0.0000
  12.  H 4 (s)      0.0633  0.4950  0.3756 -0.2169  0.1805  0.0059  0.1769  0.0885
  13.  H 5 (s)      0.0633  0.4950 -0.3756 -0.2169  0.1805  0.0059  0.1769 -0.0885

           AO          9      10      11      12      13
      ------------ ------- ------- ------- ------- -------
   1.  C 1 (s)      0.0000  0.0601  0.0633  0.0633  0.0633
   2.  C 1 (s)      0.0000  0.4599  0.4950  0.4950  0.4950
   3.  C 1 (px)     0.0000  0.0000  0.0000  0.3756 -0.3756
   4.  C 1 (py)     0.1692  0.0000  0.4337 -0.2169 -0.2169
   5.  C 1 (pz)     0.0000 -0.2200  0.1805  0.1805  0.1805
   6. Li 2 (s)      0.0000  0.0000  0.0059  0.0059  0.0059
   7. Li 2 (s)      0.0000  0.0000  0.1769  0.1769  0.1769
   8. Li 2 (px)     0.0000  0.0000  0.0000  0.0885 -0.0885
   9. Li 2 (py)     1.0000  0.0000  0.1022 -0.0511 -0.0511
  10. Li 2 (pz)     0.0000  1.0000  0.2478  0.2478  0.2478
  11.  H 3 (s)      0.1022  0.2478  1.0000  0.1824  0.1824
  12.  H 4 (s)     -0.0511  0.2478  0.1824  1.0000  0.1824
  13.  H 5 (s)     -0.0511  0.2478  0.1824  0.1824  1.0000


 AO bond-order matrix:

           AO          1       2       3       4       5       6       7       8
      ------------ ------- ------- ------- ------- ------- ------- ------- -------
   1.  C 1 (s)      2.0654 -0.2045  0.0000  0.0000  0.0194  0.0264 -0.0670  0.0000
   2.  C 1 (s)     -0.2045  0.8012  0.0000  0.0000 -0.0677 -0.0831  0.1886  0.0000
   3.  C 1 (px)     0.0000  0.0000  0.5821  0.0000  0.0000  0.0000  0.0000  0.0671
   4.  C 1 (py)     0.0000  0.0000  0.0000  0.5821  0.0000  0.0000  0.0000  0.0000
   5.  C 1 (pz)     0.0194 -0.0677  0.0000  0.0000  0.8405  0.2030 -0.6110  0.0000
   6. Li 2 (s)      0.0264 -0.0831  0.0000  0.0000  0.2030  2.0238 -0.0991  0.0000
   7. Li 2 (s)     -0.0670  0.1886  0.0000  0.0000 -0.6110 -0.0991  0.4705  0.0000
   8. Li 2 (px)     0.0000  0.0000  0.0671  0.0000  0.0000  0.0000  0.0000  0.0077
   9. Li 2 (py)     0.0000  0.0000  0.0000  0.0671  0.0000  0.0000  0.0000  0.0000
  10. Li 2 (pz)    -0.0473  0.1194  0.0000  0.0000 -0.3718 -0.1117  0.2856  0.0000
  11.  H 3 (s)     -0.0915  0.2183  0.0000  0.5541  0.2400  0.0348 -0.1326  0.0000
  12.  H 4 (s)     -0.0915  0.2183  0.4799 -0.2771  0.2400  0.0348 -0.1326  0.0553
  13.  H 5 (s)     -0.0915  0.2183 -0.4799 -0.2771  0.2400  0.0348 -0.1326 -0.0553

           AO          9      10      11      12      13
      ------------ ------- ------- ------- ------- -------
   1.  C 1 (s)      0.0000 -0.0473 -0.0915 -0.0915 -0.0915
   2.  C 1 (s)      0.0000  0.1194  0.2183  0.2183  0.2183
   3.  C 1 (px)     0.0000  0.0000  0.0000  0.4799 -0.4799
   4.  C 1 (py)     0.0671  0.0000  0.5541 -0.2771 -0.2771
   5.  C 1 (pz)     0.0000 -0.3718  0.2400  0.2400  0.2400
   6. Li 2 (s)      0.0000 -0.1117  0.0348  0.0348  0.0348
   7. Li 2 (s)      0.0000  0.2856 -0.1326 -0.1326 -0.1326
   8. Li 2 (px)     0.0000  0.0000  0.0000  0.0553 -0.0553
   9. Li 2 (py)     0.0077  0.0000  0.0639 -0.0320 -0.0320
  10. Li 2 (pz)     0.0000  0.1747 -0.0791 -0.0791 -0.0791
  11.  H 3 (s)      0.0639 -0.0791  0.6676 -0.1236 -0.1236
  12.  H 4 (s)     -0.0320 -0.0791 -0.1236  0.6676 -0.1236
  13.  H 5 (s)     -0.0320 -0.0791 -0.1236 -0.1236  0.6676


 AO density matrix:

           AO          1       2       3       4       5       6       7       8
      ------------ ------- ------- ------- ------- ------- ------- ------- -------
   1.  C 1 (s)      1.9995  0.5053  0.0000  0.0000 -0.0010  0.0002  0.0611  0.0000
   2.  C 1 (s)      0.5053  1.8562  0.0000  0.0000  0.0309  0.0509  0.8096  0.0000
   3.  C 1 (px)     0.0000  0.0000  1.5633  0.0000  0.0000  0.0000  0.0000  0.4106
   4.  C 1 (py)     0.0000  0.0000  0.0000  1.5633  0.0000  0.0000  0.0000  0.0000
   5.  C 1 (pz)    -0.0010  0.0309  0.0000  0.0000  1.6005 -0.0845 -0.8122  0.0000
   6. Li 2 (s)      0.0002  0.0509  0.0000  0.0000 -0.0845  1.9986  0.5207  0.0000
   7. Li 2 (s)      0.0611  0.8096  0.0000  0.0000 -0.8122  0.5207  0.8968  0.0000
   8. Li 2 (px)     0.0000  0.0000  0.4106  0.0000  0.0000  0.0000  0.0000  0.1078
   9. Li 2 (py)     0.0000  0.0000  0.0000  0.4106  0.0000  0.0000  0.0000  0.0000
  10. Li 2 (pz)     0.1142  0.9695  0.0000  0.0000 -0.4926 -0.0305  0.6795  0.0000
  11.  H 3 (s)      0.1192  1.1127  0.0000  1.1674  0.4212  0.0128  0.2940  0.0000
  12.  H 4 (s)      0.1192  1.1127  1.0110 -0.5837  0.4212  0.0128  0.2940  0.2655
  13.  H 5 (s)      0.1192  1.1127 -1.0110 -0.5837  0.4212  0.0128  0.2940 -0.2655

           AO          9      10      11      12      13
      ------------ ------- ------- ------- ------- -------
   1.  C 1 (s)      0.0000  0.1142  0.1192  0.1192  0.1192
   2.  C 1 (s)      0.0000  0.9695  1.1127  1.1127  1.1127
   3.  C 1 (px)     0.0000  0.0000  0.0000  1.0110 -1.0110
   4.  C 1 (py)     0.4106  0.0000  1.1674 -0.5837 -0.5837
   5.  C 1 (pz)     0.0000 -0.4926  0.4212  0.4212  0.4212
   6. Li 2 (s)      0.0000 -0.0305  0.0128  0.0128  0.0128
   7. Li 2 (s)      0.0000  0.6795  0.2940  0.2940  0.2940
   8. Li 2 (px)     0.0000  0.0000  0.0000  0.2655 -0.2655
   9. Li 2 (py)     0.1078  0.0000  0.3066 -0.1533 -0.1533
  10. Li 2 (pz)     0.0000  0.6844  0.4679  0.4679  0.4679
  11.  H 3 (s)      0.3066  0.4679  1.6578  0.3501  0.3501
  12.  H 4 (s)     -0.1533  0.4679  0.3501  1.6578  0.3501
  13.  H 5 (s)     -0.1533  0.4679  0.3501  0.3501  1.6578


 MO density matrix:

      MO     1       2       3       4       5       6       7       8       9
     ---- ------  ------  ------  ------  ------  ------  ------  ------  ------
   1.     2.0000  0.0000  0.0000  0.0000  0.0000  0.0000  0.0000  0.0000  0.0000
   2.     0.0000  2.0000  0.0000  0.0000  0.0000  0.0000  0.0000  0.0000  0.0000
   3.     0.0000  0.0000  2.0000  0.0000  0.0000  0.0000  0.0000  0.0000  0.0000
   4.     0.0000  0.0000  0.0000  2.0000  0.0000  0.0000  0.0000  0.0000  0.0000
   5.     0.0000  0.0000  0.0000  0.0000  2.0000  0.0000  0.0000  0.0000  0.0000
   6.     0.0000  0.0000  0.0000  0.0000  0.0000  2.0000  0.0000  0.0000  0.0000
   7.     0.0000  0.0000  0.0000  0.0000  0.0000  0.0000  0.0000  0.0000  0.0000
   8.     0.0000  0.0000  0.0000  0.0000  0.0000  0.0000  0.0000  0.0000  0.0000
   9.     0.0000  0.0000  0.0000  0.0000  0.0000  0.0000  0.0000  0.0000  0.0000
  10.     0.0000  0.0000  0.0000  0.0000  0.0000  0.0000  0.0000  0.0000  0.0000
  11.     0.0000  0.0000  0.0000  0.0000  0.0000  0.0000  0.0000  0.0000  0.0000
  12.     0.0000  0.0000  0.0000  0.0000  0.0000  0.0000  0.0000  0.0000  0.0000
  13.     0.0000  0.0000  0.0000  0.0000  0.0000  0.0000  0.0000  0.0000  0.0000

      MO    10      11      12      13
     ---- ------  ------  ------  ------
   1.     0.0000  0.0000  0.0000  0.0000
   2.     0.0000  0.0000  0.0000  0.0000
   3.     0.0000  0.0000  0.0000  0.0000
   4.     0.0000  0.0000  0.0000  0.0000
   5.     0.0000  0.0000  0.0000  0.0000
   6.     0.0000  0.0000  0.0000  0.0000
   7.     0.0000  0.0000  0.0000  0.0000
   8.     0.0000  0.0000  0.0000  0.0000
   9.     0.0000  0.0000  0.0000  0.0000
  10.     0.0000  0.0000  0.0000  0.0000
  11.     0.0000  0.0000  0.0000  0.0000
  12.     0.0000  0.0000  0.0000  0.0000
  13.     0.0000  0.0000  0.0000  0.0000


 NATURAL POPULATIONS:  Natural atomic orbital occupancies

  NAO Atom No lang   Type(AO)    Occupancy      Energy
 -------------------------------------------------------
   1    C  1  s      Cor( 1s)     1.99999     -10.90731
   2    C  1  s      Val( 2s)     1.16121      -0.13745
   3    C  1  px     Val( 2p)     0.99008       0.18984
   4    C  1  py     Val( 2p)     0.99008       0.18984
   5    C  1  pz     Val( 2p)     1.36961       0.02258

   6   Li  2  s      Cor( 1s)     1.99995      -2.33264
   7   Li  2  s      Val( 2s)     0.40299       0.06637
   8   Li  2  px     Ryd( 2p)     0.00750       0.18469
   9   Li  2  py     Ryd( 2p)     0.00750       0.18469
  10   Li  2  pz     Ryd( 2p)     0.11669       0.34494

  11    H  3  s      Val( 1s)     0.98480       0.14084

  12    H  4  s      Val( 1s)     0.98480       0.14084

  13    H  5  s      Val( 1s)     0.98480       0.14084


 Summary of Natural Population Analysis:

                                     Natural Population
             Natural    ---------------------------------------------
  Atom No    Charge        Core      Valence    Rydberg      Total
 --------------------------------------------------------------------
    C  1   -0.51097      1.99999     4.51098    0.00000     6.51097
   Li  2    0.46537      1.99995     0.40299    0.13169     2.53463
    H  3    0.01520      0.00000     0.98480    0.00000     0.98480
    H  4    0.01520      0.00000     0.98480    0.00000     0.98480
    H  5    0.01520      0.00000     0.98480    0.00000     0.98480
 ====================================================================
 * Total *  0.00000      3.99994     7.86837    0.13169    12.00000

                                 Natural Population
 ---------------------------------------------------------
   Core                       3.99994 ( 99.9984% of    4)
   Valence                    7.86837 ( 98.3546% of    8)
   Natural Minimal Basis     11.86831 ( 98.9025% of   12)
   Natural Rydberg Basis      0.13169 (  1.0975% of   12)
 ---------------------------------------------------------

    Atom No         Natural Electron Configuration
 ----------------------------------------------------------------------------
      C  1      [core]2s( 1.16)2p( 3.35)
     Li  2      [core]2s( 0.40)2p( 0.13)
      H  3            1s( 0.98)
      H  4            1s( 0.98)
      H  5            1s( 0.98)


 PNAOs in the AO basis:

           AO          1       2       3       4       5       6       7       8
      ------------ ------- ------- ------- ------- ------- ------- ------- -------
   1.  C 1 (s)      0.9839 -0.3126  0.0000  0.0000  0.0000  0.0000  0.0000  0.0000
   2.  C 1 (s)      0.0585  1.0307  0.0000  0.0000  0.0000  0.0000  0.0000  0.0000
   3.  C 1 (px)     0.0000  0.0000  1.0000  0.0000  0.0000  0.0000  0.0000  0.0000
   4.  C 1 (py)     0.0000  0.0000  0.0000  1.0000  0.0000  0.0000  0.0000  0.0000
   5.  C 1 (pz)     0.0000  0.0000  0.0000  0.0000  1.0000  0.0000  0.0000  0.0000
   6. Li 2 (s)      0.0000  0.0000  0.0000  0.0000  0.0000  0.9911 -0.2818  0.0000
   7. Li 2 (s)      0.0000  0.0000  0.0000  0.0000  0.0000  0.0345  1.0298  0.0000
   8. Li 2 (px)     0.0000  0.0000  0.0000  0.0000  0.0000  0.0000  0.0000  1.0000
   9. Li 2 (py)     0.0000  0.0000  0.0000  0.0000  0.0000  0.0000  0.0000  0.0000
  10. Li 2 (pz)     0.0000  0.0000  0.0000  0.0000  0.0000  0.0000  0.0000  0.0000
  11.  H 3 (s)      0.0000  0.0000  0.0000  0.0000  0.0000  0.0000  0.0000  0.0000
  12.  H 4 (s)      0.0000  0.0000  0.0000  0.0000  0.0000  0.0000  0.0000  0.0000
  13.  H 5 (s)      0.0000  0.0000  0.0000  0.0000  0.0000  0.0000  0.0000  0.0000

           AO          9      10      11      12      13
      ------------ ------- ------- ------- ------- -------
   1.  C 1 (s)      0.0000  0.0000  0.0000  0.0000  0.0000
   2.  C 1 (s)      0.0000  0.0000  0.0000  0.0000  0.0000
   3.  C 1 (px)     0.0000  0.0000  0.0000  0.0000  0.0000
   4.  C 1 (py)     0.0000  0.0000  0.0000  0.0000  0.0000
   5.  C 1 (pz)     0.0000  0.0000  0.0000  0.0000  0.0000
   6. Li 2 (s)      0.0000  0.0000  0.0000  0.0000  0.0000
   7. Li 2 (s)      0.0000  0.0000  0.0000  0.0000  0.0000
   8. Li 2 (px)     0.0000  0.0000  0.0000  0.0000  0.0000
   9. Li 2 (py)     1.0000  0.0000  0.0000  0.0000  0.0000
  10. Li 2 (pz)     0.0000  1.0000  0.0000  0.0000  0.0000
  11.  H 3 (s)      0.0000  0.0000  1.0000  0.0000  0.0000
  12.  H 4 (s)      0.0000  0.0000  0.0000  1.0000  0.0000
  13.  H 5 (s)      0.0000  0.0000  0.0000  0.0000  1.0000


 PNAO overlap matrix:

           NAO         1       2       3       4       5       6       7       8
      ------------ ------- ------- ------- ------- ------- ------- ------- -------
   1.  C 1( 1s )    1.0000  0.0000  0.0000  0.0000  0.0000  0.0034  0.0535  0.0000
   2.  C 1( 2s )    0.0000  1.0000  0.0000  0.0000  0.0000  0.0392  0.3195  0.0000
   3.  C 1( 2px)    0.0000  0.0000  1.0000  0.0000  0.0000  0.0000  0.0000  0.1692
   4.  C 1( 2py)    0.0000  0.0000  0.0000  1.0000  0.0000  0.0000  0.0000  0.0000
   5.  C 1( 2pz)    0.0000  0.0000  0.0000  0.0000  1.0000 -0.0549 -0.1750  0.0000
   6. Li 2( 1s )    0.0034  0.0392  0.0000  0.0000 -0.0549  1.0000  0.0000  0.0000
   7. Li 2( 2s )    0.0535  0.3195  0.0000  0.0000 -0.1750  0.0000  1.0000  0.0000
   8. Li 2( 2px)    0.0000  0.0000  0.1692  0.0000  0.0000  0.0000  0.0000  1.0000
   9. Li 2( 2py)    0.0000  0.0000  0.0000  0.1692  0.0000  0.0000  0.0000  0.0000
  10. Li 2( 2pz)    0.0860  0.4552  0.0000  0.0000 -0.2200  0.0000  0.0000  0.0000
  11.  H 3( 1s )    0.0913  0.4903  0.0000  0.4337  0.1805  0.0119  0.1805  0.0000
  12.  H 4( 1s )    0.0913  0.4903  0.3756 -0.2169  0.1805  0.0119  0.1805  0.0885
  13.  H 5( 1s )    0.0913  0.4903 -0.3756 -0.2169  0.1805  0.0119  0.1805 -0.0885

           NAO         9      10      11      12      13
      ------------ ------- ------- ------- ------- -------
   1.  C 1( 1s )    0.0000  0.0860  0.0913  0.0913  0.0913
   2.  C 1( 2s )    0.0000  0.4552  0.4903  0.4903  0.4903
   3.  C 1( 2px)    0.0000  0.0000  0.0000  0.3756 -0.3756
   4.  C 1( 2py)    0.1692  0.0000  0.4337 -0.2169 -0.2169
   5.  C 1( 2pz)    0.0000 -0.2200  0.1805  0.1805  0.1805
   6. Li 2( 1s )    0.0000  0.0000  0.0119  0.0119  0.0119
   7. Li 2( 2s )    0.0000  0.0000  0.1805  0.1805  0.1805
   8. Li 2( 2px)    0.0000  0.0000  0.0000  0.0885 -0.0885
   9. Li 2( 2py)    1.0000  0.0000  0.1022 -0.0511 -0.0511
  10. Li 2( 2pz)    0.0000  1.0000  0.2478  0.2478  0.2478
  11.  H 3( 1s )    0.1022  0.2478  1.0000  0.1824  0.1824
  12.  H 4( 1s )   -0.0511  0.2478  0.1824  1.0000  0.1824
  13.  H 5( 1s )   -0.0511  0.2478  0.1824  0.1824  1.0000


 PNAO density matrix:

           NAO         1       2       3       4       5       6       7       8
      ------------ ------- ------- ------- ------- ------- ------- ------- -------
   1.  C 1( 1s )    2.0000  0.0000  0.0000  0.0000  0.0008  0.0068  0.1098  0.0000
   2.  C 1( 2s )    0.0000  1.8417  0.0000  0.0000  0.0322  0.0801  0.8249  0.0000
   3.  C 1( 2px)    0.0000  0.0000  1.5633  0.0000  0.0000  0.0000  0.0000  0.4106
   4.  C 1( 2py)    0.0000  0.0000  0.0000  1.5633  0.0000  0.0000  0.0000  0.0000
   5.  C 1( 2pz)    0.0008  0.0322  0.0000  0.0000  1.6005 -0.1118 -0.8127  0.0000
   6. Li 2( 1s )    0.0068  0.0801  0.0000  0.0000 -0.1118  1.9999  0.0000  0.0000
   7. Li 2( 2s )    0.1098  0.8249  0.0000  0.0000 -0.8127  0.0000  0.8076  0.0000
   8. Li 2( 2px)    0.0000  0.0000  0.4106  0.0000  0.0000  0.0000  0.0000  0.1078
   9. Li 2( 2py)    0.0000  0.0000  0.0000  0.4106  0.0000  0.0000  0.0000  0.0000
  10. Li 2( 2pz)    0.1690  0.9636  0.0000  0.0000 -0.4926 -0.0068  0.7083  0.0000
  11.  H 3( 1s )    0.1824  1.1095  0.0000  1.1674  0.4212  0.0228  0.2992  0.0000
  12.  H 4( 1s )    0.1824  1.1095  1.0110 -0.5837  0.4212  0.0228  0.2992  0.2655
  13.  H 5( 1s )    0.1824  1.1095 -1.0110 -0.5837  0.4212  0.0228  0.2992 -0.2655

           NAO         9      10      11      12      13
      ------------ ------- ------- ------- ------- -------
   1.  C 1( 1s )    0.0000  0.1690  0.1824  0.1824  0.1824
   2.  C 1( 2s )    0.0000  0.9636  1.1095  1.1095  1.1095
   3.  C 1( 2px)    0.0000  0.0000  0.0000  1.0110 -1.0110
   4.  C 1( 2py)    0.4106  0.0000  1.1674 -0.5837 -0.5837
   5.  C 1( 2pz)    0.0000 -0.4926  0.4212  0.4212  0.4212
   6. Li 2( 1s )    0.0000 -0.0068  0.0228  0.0228  0.0228
   7. Li 2( 2s )    0.0000  0.7083  0.2992  0.2992  0.2992
   8. Li 2( 2px)    0.0000  0.0000  0.0000  0.2655 -0.2655
   9. Li 2( 2py)    0.1078  0.0000  0.3066 -0.1533 -0.1533
  10. Li 2( 2pz)    0.0000  0.6844  0.4679  0.4679  0.4679
  11.  H 3( 1s )    0.3066  0.4679  1.6578  0.3501  0.3501
  12.  H 4( 1s )   -0.1533  0.4679  0.3501  1.6578  0.3501
  13.  H 5( 1s )   -0.1533  0.4679  0.3501  0.3501  1.6578


 NAOs in the AO basis:

           AO          1       2       3       4       5       6       7       8
      ------------ ------- ------- ------- ------- ------- ------- ------- -------
   1.  C 1 (s)      0.9839 -0.3488  0.0000  0.0000 -0.0130 -0.0017  0.0111  0.0000
   2.  C 1 (s)      0.0585  1.4572  0.0000  0.0000  0.1552 -0.0001 -0.1605  0.0000
   3.  C 1 (px)     0.0000  0.0000  1.1722  0.0000  0.0000  0.0000  0.0000 -0.1363
   4.  C 1 (py)     0.0000  0.0000  0.0000  1.1722  0.0000  0.0000  0.0000  0.0000
   5.  C 1 (pz)     0.0000  0.1272  0.0000  0.0000  1.0753  0.0000  0.1618  0.0000
   6. Li 2 (s)     -0.0017 -0.0175  0.0000  0.0000  0.0343  0.9911 -0.2863  0.0000
   7. Li 2 (s)     -0.0001 -0.0706  0.0000  0.0000  0.0874  0.0345  1.1109  0.0000
   8. Li 2 (px)     0.0000  0.0000  0.0000  0.0000  0.0000  0.0000  0.0000  1.0158
   9. Li 2 (py)     0.0000  0.0000  0.0000  0.0000  0.0000  0.0000  0.0000  0.0000
  10. Li 2 (pz)     0.0000  0.0000  0.0000  0.0000  0.0000  0.0000  0.0000  0.0000
  11.  H 3 (s)      0.0000 -0.3261  0.0000 -0.3360 -0.1413  0.0000 -0.0739  0.0000
  12.  H 4 (s)      0.0000 -0.3261 -0.2910  0.1680 -0.1413  0.0000 -0.0739 -0.0473
  13.  H 5 (s)      0.0000 -0.3261  0.2910  0.1680 -0.1413  0.0000 -0.0739  0.0473

           AO          9      10      11      12      13
      ------------ ------- ------- ------- ------- -------
   1.  C 1 (s)      0.0000  0.0542  0.0031  0.0031  0.0031
   2.  C 1 (s)      0.0000 -0.4330 -0.3799 -0.3799 -0.3799
   3.  C 1 (px)     0.0000  0.0000  0.0000 -0.2766  0.2766
   4.  C 1 (py)    -0.1363  0.0000 -0.3193  0.1597  0.1597
   5.  C 1 (pz)     0.0000  0.4110 -0.1343 -0.1343 -0.1343
   6. Li 2 (s)      0.0000 -0.0390  0.0025  0.0025  0.0025
   7. Li 2 (s)      0.0000  0.3068 -0.0373 -0.0373 -0.0373
   8. Li 2 (px)     0.0000  0.0000  0.0000  0.0000  0.0000
   9. Li 2 (py)     1.0158  0.0000  0.0000  0.0000  0.0000
  10. Li 2 (pz)     0.0000  1.2237  0.0000  0.0000  0.0000
  11.  H 3 (s)     -0.0547 -0.1616  1.2849 -0.0183 -0.0183
  12.  H 4 (s)      0.0273 -0.1616 -0.0183  1.2849 -0.0183
  13.  H 5 (s)      0.0273 -0.1616 -0.0183 -0.0183  1.2849


 NAO density matrix:

           NAO         1       2       3       4       5       6       7       8
      ------------ ------- ------- ------- ------- ------- ------- ------- -------
   1.  C 1( 1s )    2.0000  0.0001  0.0000  0.0000  0.0012  0.0000  0.0032  0.0000
   2.  C 1( 2s )    0.0001  1.1612  0.0000  0.0000 -0.1934  0.0032  0.3508  0.0000
   3.  C 1( 2px)    0.0000  0.0000  0.9901  0.0000  0.0000  0.0000  0.0000  0.0862
   4.  C 1( 2py)    0.0000  0.0000  0.0000  0.9901  0.0000  0.0000  0.0000  0.0000
   5.  C 1( 2pz)    0.0012 -0.1934  0.0000  0.0000  1.3696 -0.0014 -0.6887  0.0000
   6. Li 2( 1s )    0.0000  0.0032  0.0000  0.0000 -0.0014  1.9999 -0.0004  0.0000
   7. Li 2( 2s )    0.0032  0.3508  0.0000  0.0000 -0.6887 -0.0004  0.4030  0.0000
   8. Li 2( 2px)    0.0000  0.0000  0.0862  0.0000  0.0000  0.0000  0.0000  0.0075
   9. Li 2( 2py)    0.0000  0.0000  0.0000  0.0862  0.0000  0.0000  0.0000  0.0000
  10. Li 2( 2pz)   -0.0024  0.1428  0.0000  0.0000 -0.3878 -0.0094  0.2147  0.0000
  11.  H 3( 1s )   -0.0004  0.5142  0.0000  0.8134  0.2591 -0.0017 -0.0071  0.0000
  12.  H 4( 1s )   -0.0004  0.5142  0.7044 -0.4067  0.2591 -0.0017 -0.0071  0.0613
  13.  H 5( 1s )   -0.0004  0.5142 -0.7044 -0.4067  0.2591 -0.0017 -0.0071 -0.0613

           NAO         9      10      11      12      13
      ------------ ------- ------- ------- ------- -------
   1.  C 1( 1s )    0.0000 -0.0024 -0.0004 -0.0004 -0.0004
   2.  C 1( 2s )    0.0000  0.1428  0.5142  0.5142  0.5142
   3.  C 1( 2px)    0.0000  0.0000  0.0000  0.7044 -0.7044
   4.  C 1( 2py)    0.0862  0.0000  0.8134 -0.4067 -0.4067
   5.  C 1( 2pz)    0.0000 -0.3878  0.2591  0.2591  0.2591
   6. Li 2( 1s )    0.0000 -0.0094 -0.0017 -0.0017 -0.0017
   7. Li 2( 2s )    0.0000  0.2147 -0.0071 -0.0071 -0.0071
   8. Li 2( 2px)    0.0000  0.0000  0.0000  0.0613 -0.0613
   9. Li 2( 2py)    0.0075  0.0000  0.0708 -0.0354 -0.0354
  10. Li 2( 2pz)    0.0000  0.1167 -0.0306 -0.0306 -0.0306
  11.  H 3( 1s )    0.0708 -0.0306  0.9848 -0.0176 -0.0176
  12.  H 4( 1s )   -0.0354 -0.0306 -0.0176  0.9848 -0.0176
  13.  H 5( 1s )   -0.0354 -0.0306 -0.0176 -0.0176  0.9848


 NATURAL BOND ORBITAL ANALYSIS:

 Initiate 2-center NBO search using THRESH = 1.900 and PRJTHR = 0.300

 Search of NAO DM block for core orbitals on atom:   1
      Eigenvector ( 1) has occupancy 1.99999
            1.0000 0.0000 0.0000 0.0000 0.0000
        1 eigenvector(s) stashed in permanent list

 Search of NAO DM block for core orbitals on atom:   2
      Eigenvector ( 1) has occupancy 1.99995
            1.0000 0.0000 0.0000 0.0000 0.0000
        1 eigenvector(s) stashed in permanent list

 Core orbitals projected from the NAO density matrix
       8.000 electrons remain (>1.900); search continues

 Search of NAO DM block for the following atom(s):   1
      Select eigenvectors with eigenvalue > 1.900
       1.485 1.046 0.990 0.990 0.000

 No NHOs identified in the 1-center search of the NAO density matrix
       8.000 electrons remain (>1.900); search continues

 Search of NAO DM block for the following atom(s):   1   2
      Select eigenvectors with eigenvalue > 1.900
       2.000 1.050 0.998 0.998 0.000 0.000 0.000 0.000 0.000 0.000
      Eigenvector ( 1) has occupancy 2.00000
            0.0000-0.4037 0.0000 0.0000 0.7608 0.0000-0.4488 0.0000
            0.0000-0.2384
      1 hybrid on atom 1 stashed in prospective list
      1 hybrid on atom 2 stashed in prospective list

 Search of NAO DM block for the following atom(s):   1   3
      Select eigenvectors with eigenvalue > 1.900
       1.994 1.484 1.027 0.990 0.000 0.000
      Eigenvector ( 1) has occupancy 1.99449
            0.0000 0.3940 0.0000 0.5686 0.1691 0.7021
      1 hybrid on atom 1 stashed in prospective list
      1 hybrid on atom 3 stashed in prospective list

 Search of NAO DM block for the following atom(s):   1   4
      Select eigenvectors with eigenvalue > 1.900
       1.994 1.484 1.027 0.990 0.000 0.000
      Eigenvector ( 1) has occupancy 1.99449
            0.0000 0.3940 0.4924-0.2843 0.1691 0.7021
      1 hybrid on atom 1 stashed in prospective list
      1 hybrid on atom 4 stashed in prospective list

 Search of NAO DM block for the following atom(s):   1   5
      Select eigenvectors with eigenvalue > 1.900
       1.994 1.484 1.027 0.990 0.000 0.000
      Eigenvector ( 1) has occupancy 1.99449
            0.0000 0.3940-0.4924-0.2843 0.1691 0.7021
      1 hybrid on atom 1 stashed in prospective list
      1 hybrid on atom 5 stashed in prospective list

 Stash prospective hybrids having projection expectation value > 0.300
       0.994 0.994 0.994 0.994 0.994 0.994 0.993 0.993
      0 hybrids eliminated in 1 pass
      8 hybrids moved from prospective to permanent list

 NHOs of 2-center eigenvectors projected from the NAO density matrix
       0.017 electrons remain in the fully projected matrix

 Search of NHO DM block for the following atom(s):   1
      Select eigenvectors with eigenvalue > 1.900
       2.000 0.000 0.000 0.000 0.000
      Eigenvector ( 1) has occupancy 1.99999
            1.0000 0.0000 0.0000 0.0000 0.0000
           NBO accepted:    1. Label:CR ( 1)   1
        1 eigenvector(s) stashed in permanent list

 Search of NHO DM block for the following atom(s):   2
      Select eigenvectors with eigenvalue > 1.900
       2.000 0.008 0.008 0.002 0.000
      Eigenvector ( 1) has occupancy 1.99995
            1.0000 0.0000 0.0000 0.0000 0.0000
           NBO accepted:    2. Label:CR ( 1)   2
        1 eigenvector(s) stashed in permanent list

  1-center NBOs projected from the NHO density matrix
       8.000 electrons remain (>1.900); search continues

 Search of NHO DM block for the following atom(s):   1   2
      Select eigenvectors with eigenvalue > 1.900
       1.999 0.001 0.000 0.000 0.000 0.000 0.000 0.000 0.000 0.000
      Eigenvector ( 1) has occupancy 1.99917
            0.0000 0.0000 0.0000 0.0000 0.8609 0.0000 0.5087 0.0000
            0.0000 0.0000
      Occupancy is 1.999 after deleting minor hybrid components
            0.0000 0.0000 0.0000 0.0000 0.8609 0.0000 0.5087 0.0000
            0.0000 0.0000
           NBO accepted:    3. Label:BD ( 1)   1   2
      Occupancy is 0.001 for antibonding component
            0.0000 0.0000 0.0000 0.0000-0.5087 0.0000 0.8609 0.0000
            0.0000 0.0000
           NBO accepted:    4. Label:BD*( 1)   1   2
        2 eigenvector(s) stashed in permanent list

 Search of NHO DM block for the following atom(s):   1   3
      Select eigenvectors with eigenvalue > 1.900
       1.994 0.001 0.000 0.000 0.000 0.000
      Eigenvector ( 1) has occupancy 1.99386
            0.0000 0.7115 0.0000 0.0000 0.0000 0.7027
      Occupancy is 1.994 after deleting minor hybrid components
            0.0000 0.7115 0.0000 0.0000 0.0000 0.7027
           NBO accepted:    5. Label:BD ( 1)   1   3
      Occupancy is 0.001 for antibonding component
            0.0000-0.7027 0.0000 0.0000 0.0000 0.7115
           NBO accepted:    6. Label:BD*( 1)   1   3
        2 eigenvector(s) stashed in permanent list

 Search of NHO DM block for the following atom(s):   1   4
      Select eigenvectors with eigenvalue > 1.900
       1.994 0.001 0.000 0.000 0.000 0.000
      Eigenvector ( 1) has occupancy 1.99386
            0.0000 0.0000 0.7115 0.0000 0.0000 0.7027
      Occupancy is 1.994 after deleting minor hybrid components
            0.0000 0.0000 0.7115 0.0000 0.0000 0.7027
           NBO accepted:    7. Label:BD ( 1)   1   4
      Occupancy is 0.001 for antibonding component
            0.0000 0.0000-0.7027 0.0000 0.0000 0.7115
           NBO accepted:    8. Label:BD*( 1)   1   4
        2 eigenvector(s) stashed in permanent list

 Search of NHO DM block for the following atom(s):   1   5
      Select eigenvectors with eigenvalue > 1.900
       1.994 0.001 0.000 0.000 0.000 0.000
      Eigenvector ( 1) has occupancy 1.99386
            0.0000 0.0000 0.0000 0.7115 0.0000 0.7027
      Occupancy is 1.994 after deleting minor hybrid components
            0.0000 0.0000 0.0000 0.7115 0.0000 0.7027
           NBO accepted:    9. Label:BD ( 1)   1   5
      Occupancy is 0.001 for antibonding component
            0.0000 0.0000 0.0000-0.7027 0.0000 0.7115
           NBO accepted:   10. Label:BD*( 1)   1   5
        2 eigenvector(s) stashed in permanent list

  2-center NBOs projected from the NHO density matrix
       0.017 electrons remain in the fully projected matrix

                            Occupancies       Lewis Structure    Low   High
         Max    Occ     -------------------  -----------------   occ   occ
  Cycle  Ctr   Thresh    Lewis   non-Lewis     CR  BD  nC  LP    (L)   (NL)
 ============================================================================
    1     2     1.90    11.98068   0.01932      2   4   0   0     0      0
 ----------------------------------------------------------------------------

 Structure accepted: No low occupancy Lewis orbitals

 -------------------------------------------------------
   Core                      3.99994 ( 99.998% of   4)
   Valence Lewis             7.98075 ( 99.759% of   8)
  ==================      =============================
   Total Lewis              11.98068 ( 99.839% of  12)
  -----------------------------------------------------
   Valence non-Lewis         0.00250 (  0.021% of  12)
   Rydberg non-Lewis         0.01681 (  0.140% of  12)
  ==================      =============================
   Total non-Lewis           0.01932 (  0.161% of  12)
 -------------------------------------------------------


     (Occupancy)   Bond orbital / Coefficients / Hybrids
 ------------------ Lewis ------------------------------------------------------
   1. (1.99999) CR ( 1) C  1            s(100.00%)
                                         1.0000  0.0000  0.0000  0.0000  0.0000
   2. (1.99995) CR ( 1)Li  2            s(100.00%)
                                         1.0000  0.0000  0.0000  0.0000  0.0000
   3. (1.99917) BD ( 1) C  1-Li  2
               ( 74.12%)   0.8609* C  1 s( 19.20%)p 4.21( 80.80%)
                                         0.0000  0.4382  0.0000  0.0000 -0.8989
               ( 25.88%)   0.5087*Li  2 s( 77.99%)p 0.28( 22.01%)
                                         0.0000  0.8831  0.0000  0.0000  0.4692
   4. (1.99386) BD ( 1) C  1- H  3
               ( 50.62%)   0.7115* C  1 s( 26.93%)p 2.71( 73.07%)
                                         0.0000  0.5190  0.0000  0.8165  0.2530
               ( 49.38%)   0.7027* H  3 s(100.00%)
                                         1.0000
   5. (1.99386) BD ( 1) C  1- H  4
               ( 50.62%)   0.7115* C  1 s( 26.93%)p 2.71( 73.07%)
                                         0.0000  0.5190  0.7071 -0.4082  0.2530
               ( 49.38%)   0.7027* H  4 s(100.00%)
                                         1.0000
   6. (1.99386) BD ( 1) C  1- H  5
               ( 50.62%)   0.7115* C  1 s( 26.93%)p 2.71( 73.07%)
                                         0.0000  0.5190 -0.7071 -0.4082  0.2530
               ( 49.38%)   0.7027* H  5 s(100.00%)
                                         1.0000
 ---------------- non-Lewis ----------------------------------------------------
   7. (0.00063) BD*( 1) C  1-Li  2
               ( 25.88%)   0.5087* C  1 s( 19.20%)p 4.21( 80.80%)
                                         0.0000 -0.4382  0.0000  0.0000  0.8989
               ( 74.12%)  -0.8609*Li  2 s( 77.99%)p 0.28( 22.01%)
                                         0.0000 -0.8831  0.0000  0.0000 -0.4692
   8. (0.00062) BD*( 1) C  1- H  3
               ( 49.38%)   0.7027* C  1 s( 26.93%)p 2.71( 73.07%)
                                         0.0000 -0.5190  0.0000 -0.8165 -0.2530
               ( 50.62%)  -0.7115* H  3 s(100.00%)
                                        -1.0000
   9. (0.00062) BD*( 1) C  1- H  4
               ( 49.38%)   0.7027* C  1 s( 26.93%)p 2.71( 73.07%)
                                         0.0000 -0.5190 -0.7071  0.4082 -0.2530
               ( 50.62%)  -0.7115* H  4 s(100.00%)
                                        -1.0000
  10. (0.00062) BD*( 1) C  1- H  5
               ( 49.38%)   0.7027* C  1 s( 26.93%)p 2.71( 73.07%)
                                         0.0000 -0.5190  0.7071  0.4082 -0.2530
               ( 50.62%)  -0.7115* H  5 s(100.00%)
                                        -1.0000
  11. (0.00750) RY ( 1)Li  2            s(  0.00%)p 1.00(100.00%)
                                         0.0000  0.0000  1.0000  0.0000  0.0000
  12. (0.00750) RY ( 2)Li  2            s(  0.00%)p 1.00(100.00%)
                                         0.0000  0.0000  0.0000  1.0000  0.0000
  13. (0.00181) RY ( 3)Li  2            s( 22.01%)p 3.54( 77.99%)
                                         0.0000  0.4692  0.0000  0.0000 -0.8831


 NHO DIRECTIONALITY AND BOND BENDING (deviation from line of nuclear centers at
                                      the position of maximum hybrid amplitude)

         [Thresholds for printing:  angular deviation  >  1.0 degree]
                                    p- or d-character  > 25.0%
                                    orbital occupancy  >  0.10e

                        Line of Centers        Hybrid 1             Hybrid 2
                        ---------------  -------------------  ------------------
           NBO            Theta   Phi    Theta   Phi    Dev   Theta   Phi    Dev
 ===============================================================================
   4. BD ( 1) C  1- H  3   67.4   90.0    71.4   90.0   4.0     --     --    --
   5. BD ( 1) C  1- H  4   67.4  330.0    71.4  330.0   4.0     --     --    --
   6. BD ( 1) C  1- H  5   67.4  210.0    71.4  210.0   4.0     --     --    --


 SECOND ORDER PERTURBATION THEORY ANALYSIS OF FOCK MATRIX IN NBO BASIS

     Threshold for printing:   0.50 kcal/mol
                                                          E(2) E(NL)-E(L) F(L,NL)
      Donor (L) NBO              Acceptor (NL) NBO      kcal/mol   a.u.    a.u.
 ===============================================================================

 within unit  1
    4. BD ( 1) C  1- H  3      12. RY ( 2)Li  2            1.68    0.73   0.031
    4. BD ( 1) C  1- H  3      13. RY ( 3)Li  2            0.53    0.76   0.018
    5. BD ( 1) C  1- H  4      11. RY ( 1)Li  2            1.26    0.73   0.027
    5. BD ( 1) C  1- H  4      13. RY ( 3)Li  2            0.53    0.76   0.018
    6. BD ( 1) C  1- H  5      11. RY ( 1)Li  2            1.26    0.73   0.027
    6. BD ( 1) C  1- H  5      13. RY ( 3)Li  2            0.53    0.76   0.018


 NATURAL BOND ORBITALS (Summary):

                                                     Principal Delocalizations
           NBO                 Occupancy    Energy   (geminal,vicinal,remote)
 ===============================================================================
 Molecular unit  1  (CH3Li)
 ------ Lewis --------------------------------------
    1. CR ( 1) C  1             1.99999   -10.90731
    2. CR ( 1)Li  2             1.99995    -2.33264
    3. BD ( 1) C  1-Li  2       1.99917    -0.26804
    4. BD ( 1) C  1- H  3       1.99386    -0.54751  12(v),13(v)
    5. BD ( 1) C  1- H  4       1.99386    -0.54751  11(v),13(v)
    6. BD ( 1) C  1- H  5       1.99386    -0.54751  11(v),13(v)
 ------ non-Lewis ----------------------------------
    7. BD*( 1) C  1-Li  2       0.00063     0.36030
    8. BD*( 1) C  1- H  3       0.00062     0.81174
    9. BD*( 1) C  1- H  4       0.00062     0.81174
   10. BD*( 1) C  1- H  5       0.00062     0.81174
   11. RY ( 1)Li  2             0.00750     0.18469
   12. RY ( 2)Li  2             0.00750     0.18469
   13. RY ( 3)Li  2             0.00181     0.21367
          -------------------------------
                 Total Lewis   11.98068  ( 99.8390%)
           Valence non-Lewis    0.00250  (  0.0209%)
           Rydberg non-Lewis    0.01681  (  0.1401%)
          -------------------------------
               Total unit  1   12.00000  (100.0000%)
              Charge unit  1    0.00000

 $CHOOSE
   BOND S 1 2 S 1 3 S 1 4 S 1 5 END
 $END


 NATURAL LOCALIZED MOLECULAR ORBITAL (NLMO) ANALYSIS:

 1 pass over DM reduced the maximum off-diagonal element to 0.73E-10

 Hybridization/Polarization Analysis of NLMOs in NAO Basis:
 NLMO / Occupancy / Percent from Parent NBO / Atomic Hybrid Contributions
 -------------------------------------------------------------------------------
   1. (2.00000)  99.9996% CR ( 1) C  1
                         100.000%  C  1 s(100.00%)p 0.00(  0.00%)
   2. (2.00000)  99.9973% CR ( 1)Li  2
                          99.999% Li  2 s(100.00%)p 0.00(  0.00%)
   3. (2.00000)  99.9587% BD ( 1) C  1-Li  2
                          74.109%  C  1 s( 20.53%)p 3.87( 79.47%)
                          25.870% Li  2 s( 77.89%)p 0.28( 22.11%)
   4. (2.00000)  99.6926% BD ( 1) C  1- H  3
                          50.476%  C  1 s( 28.20%)p 2.55( 71.80%)
                           0.288% Li  2 s(  0.00%)p 1.00(100.00%)
                          49.226%  H  3 s(100.00%)
   5. (2.00000)  99.6928% BD ( 1) C  1- H  4
                          50.481%  C  1 s( 28.34%)p 2.53( 71.66%)
                           0.287% Li  2 s(  0.00%)p 1.00(100.00%)
                          49.224%  H  4 s(100.00%)
   6. (2.00000)  99.6928% BD ( 1) C  1- H  5
                          50.481%  C  1 s( 28.34%)p 2.53( 71.66%)
                           0.287% Li  2 s(  0.00%)p 1.00(100.00%)
                          49.224%  H  5 s(100.00%)


 NATURAL CHEMICAL SHIELDING ANALYSIS:

 NCS=CSA: Analysis of full anisotropic tensors
 NCS=U: Print unperturbed contribution to tensors
 NCS=I: Print induced contribution to tensors
 NCS=MO: Canonical MO analysis performed
 Print threshold: 0.001 ppm

 Principal components of the tensor (ppm) for atom  C(  1):

        NBO                11      22      33     CSA     ISO
 =============================================================
    1. C 1(cr)            195.70  195.70  195.70    0.00  195.70
       NL   7. C 1-Li 2*      0.01    0.01    0.01    0.00    0.01
       NL   8. C 1- H 3*      0.00    0.00    0.00    0.00    0.00
       NL   9. C 1- H 4*      0.00    0.00    0.00    0.00    0.00
       NL  10. C 1- H 5*      0.00    0.00    0.00    0.00    0.00
       NL  13.Li 2(ry)       -0.01   -0.01   -0.01    0.00   -0.01
    2.Li 2(cr)              0.29   -0.21   -0.21   -0.25   -0.05
       NL   7. C 1-Li 2*      0.00    0.01    0.01    0.00    0.01
       NL  13.Li 2(ry)        0.00    0.01    0.01    0.00    0.00
    3. C 1-Li 2            15.35  -12.63  -12.63  -13.99   -3.30
       NL   8. C 1- H 3*      0.01    0.04    0.16    0.14    0.07
       NL   9. C 1- H 4*      0.01    0.13    0.07    0.00    0.07
       NL  10. C 1- H 5*      0.01    0.13    0.07    0.00    0.07
       NL  13.Li 2(ry)        0.00   -0.01   -0.01   -0.01   -0.01
    4. C 1- H 3             9.21   13.65   51.96   40.53   24.94
       NL   5. C 1- H 4       0.00    0.00    0.00    0.00    0.00
       NL   6. C 1- H 5       0.00    0.00    0.00    0.00    0.00
       NL   7. C 1-Li 2*      0.03   -0.04   -0.46   -0.45   -0.16
       NL   8. C 1- H 3*      0.00    0.00    0.00    0.00    0.00
       NL   9. C 1- H 4*     -0.02    0.01   -0.10   -0.09   -0.04
       NL  10. C 1- H 5*     -0.02    0.01   -0.09   -0.09   -0.04
       NL  12.Li 2(ry)        0.08    0.02   -0.08   -0.13    0.01
       NL  13.Li 2(ry)        0.02   -0.07   -0.32   -0.30   -0.12
    5. C 1- H 4             9.23   42.37   23.27   -2.53   24.95
       NL   6. C 1- H 5       0.00    0.00    0.00    0.00    0.00
       NL   7. C 1-Li 2*      0.03   -0.36   -0.15    0.02   -0.16
       NL   8. C 1- H 3*     -0.02    0.15   -0.24   -0.30   -0.04
       NL  10. C 1- H 5*     -0.02   -0.29    0.20    0.36   -0.04
       NL  11.Li 2(ry)        0.06   -0.06    0.01    0.01    0.00
       NL  12.Li 2(ry)        0.02    0.00   -0.02   -0.03    0.00
       NL  13.Li 2(ry)        0.02   -0.26   -0.13   -0.02   -0.12
    6. C 1- H 5             9.23   42.41   23.22   -2.60   24.95
       NL   7. C 1-Li 2*      0.03   -0.36   -0.15    0.02   -0.16
       NL   8. C 1- H 3*     -0.02    0.15   -0.24   -0.30   -0.04
       NL   9. C 1- H 4*     -0.02   -0.29    0.20    0.36   -0.04
       NL  11.Li 2(ry)        0.06   -0.06    0.01    0.01    0.00
       NL  12.Li 2(ry)        0.02    0.00   -0.02   -0.03    0.00
       NL  13.Li 2(ry)        0.02   -0.26   -0.13   -0.02   -0.12
 -------------------------------------------------------------
                 Lewis  239.00  281.28  281.31   21.16  267.20
             non-Lewis    0.30   -1.36   -1.38   -0.85   -0.81
 -------------------------------------------------------------
                 Total  239.31  279.92  279.92   20.31  266.39
 -------------------------------------------------------------

 Cartesian XYZ to principal shielding axes for atom  C (  1):

        1         2         3
 -------------------------------
  X  0.000000 -0.000673  1.000000
  Y  0.000000  1.000000  0.000673
  Z  1.000000  0.000000  0.000000

 Principal components of the tensor (ppm) for atom  C(  1):
 Canonical MO contributions

        MO                 11      22      33     CSA     ISO
 =============================================================
    1.                    197.49  197.50  197.50    0.00  197.50
    2.                      0.28   -0.17   -0.17   -0.23   -0.02
    3.                     26.53   32.97   32.97    3.22   30.82
    4.                      0.76   45.63   12.61  -10.59   19.67
    5.                      0.76   12.61   45.63   38.95   19.67
    6.                     13.48   -8.61   -8.61  -11.04   -1.25
 -------------------------------------------------------------
                 Total  239.31  279.92  279.92   20.31  266.39
 -------------------------------------------------------------

 Principal components of the unperturbed tensor (ppm) for atom  C(  1):

        NBO                11      22      33     CSA     ISO
 =============================================================
    1. C 1(cr)            195.70  195.70  195.70    0.00  195.70
       NL   7. C 1-Li 2*      0.01    0.01    0.01    0.00    0.01
       NL   8. C 1- H 3*      0.00    0.00    0.00    0.00    0.00
       NL   9. C 1- H 4*      0.00    0.00    0.00    0.00    0.00
       NL  10. C 1- H 5*      0.00    0.00    0.00    0.00    0.00
       NL  13.Li 2(ry)       -0.01   -0.01   -0.01    0.00   -0.01
    2.Li 2(cr)             -0.13   -0.13    0.29    0.42    0.01
       NL   7. C 1-Li 2*      0.00    0.00    0.00    0.00    0.00
       NL  13.Li 2(ry)        0.00    0.00    0.00    0.00    0.00
    3. C 1-Li 2            -2.67   -2.67   15.35   18.02    3.34
       NL   8. C 1- H 3*      0.07   -0.03    0.01   -0.01    0.02
       NL   9. C 1- H 4*      0.00    0.04    0.01   -0.01    0.02
       NL  10. C 1- H 5*      0.00    0.04    0.01   -0.01    0.02
       NL  13.Li 2(ry)       -0.01   -0.01    0.00    0.01   -0.01
    4. C 1- H 3             9.70   13.12   11.29   -0.12   11.37
       NL   5. C 1- H 4       0.00    0.00    0.00    0.00    0.00
       NL   6. C 1- H 5       0.00    0.00    0.00    0.00    0.00
       NL   7. C 1-Li 2*     -0.11   -0.03    0.03    0.10   -0.04
       NL   9. C 1- H 4*     -0.01    0.01   -0.04   -0.04   -0.01
       NL  10. C 1- H 5*     -0.01    0.01   -0.04   -0.04   -0.01
       NL  12.Li 2(ry)        0.24    0.02    0.04   -0.09    0.10
       NL  13.Li 2(ry)       -0.13   -0.07    0.02    0.12   -0.06
    5. C 1- H 4            12.28   10.57   11.31   -0.12   11.39
       NL   6. C 1- H 5       0.00    0.00    0.00    0.00    0.00
       NL   7. C 1-Li 2*     -0.05   -0.09    0.03    0.10   -0.04
       NL   8. C 1- H 3*     -0.06    0.06   -0.04   -0.04   -0.01
       NL  10. C 1- H 5*      0.06   -0.07   -0.04   -0.04   -0.01
       NL  11.Li 2(ry)        0.01    0.18    0.03   -0.07    0.07
       NL  12.Li 2(ry)        0.06    0.00    0.01   -0.02    0.02
       NL  13.Li 2(ry)       -0.08   -0.11    0.02    0.12   -0.06
    6. C 1- H 5            12.28   10.57   11.31   -0.12   11.39
       NL   7. C 1-Li 2*     -0.05   -0.09    0.03    0.10   -0.04
       NL   8. C 1- H 3*     -0.06    0.06   -0.04   -0.04   -0.01
       NL   9. C 1- H 4*      0.06   -0.07   -0.04   -0.04   -0.01
       NL  11.Li 2(ry)        0.01    0.18    0.03   -0.07    0.07
       NL  12.Li 2(ry)        0.06    0.00    0.01   -0.02    0.02
       NL  13.Li 2(ry)       -0.08   -0.11    0.02    0.12   -0.06
 -------------------------------------------------------------
                 Lewis  227.16  227.16  245.24   18.08  233.19
             non-Lewis   -0.08   -0.08    0.06    0.14   -0.03
 -------------------------------------------------------------
                 Total  227.08  227.08  245.30   18.22  233.15
 -------------------------------------------------------------

 Principal components of the unperturbed tensor (ppm) for atom  C(  1):
 Canonical MO contributions

        MO                 11      22      33     CSA     ISO
 =============================================================
    1.                    197.49  197.49  197.49    0.00  197.49
    2.                     -0.13   -0.13    0.28    0.41    0.01
    3.                     26.23   26.23   26.53    0.30   26.33
    4.                     -1.73   11.00    3.76   -0.88    4.34
    5.                     11.00   -1.73    3.76   -0.88    4.34
    6.                     -5.79   -5.79   13.48   19.26    0.64
 -------------------------------------------------------------
                 Total  227.08  227.08  245.30   18.22  233.15
 -------------------------------------------------------------

 Principal components of the induced tensor (ppm) for atom  C(  1):

        NBO                11      22      33     CSA     ISO
 =============================================================
    2.Li 2(cr)             -0.08   -0.08    0.00    0.08   -0.05
       NL   7. C 1-Li 2*      0.01    0.01    0.00   -0.01    0.00
       NL  13.Li 2(ry)        0.00    0.00    0.00    0.00    0.00
    3. C 1-Li 2            -9.96   -9.96    0.00    9.96   -6.64
       NL   8. C 1- H 3*      0.10    0.07    0.00   -0.08    0.05
       NL   9. C 1- H 4*      0.08    0.09    0.00   -0.08    0.05
       NL  10. C 1- H 5*      0.08    0.09    0.00   -0.08    0.05
       NL  13.Li 2(ry)        0.00    0.00    0.00    0.00    0.00
    4. C 1- H 3            42.27    0.53   -2.08  -23.48   13.57
       NL   5. C 1- H 4       0.00    0.00    0.00    0.00    0.00
       NL   6. C 1- H 5       0.00    0.00    0.00    0.00    0.00
       NL   7. C 1-Li 2*     -0.35   -0.01    0.00    0.18   -0.12
       NL   8. C 1- H 3*      0.00    0.00    0.00    0.00    0.00
       NL   9. C 1- H 4*     -0.09    0.00    0.02    0.06   -0.02
       NL  10. C 1- H 5*     -0.09    0.00    0.02    0.06   -0.02
       NL  12.Li 2(ry)       -0.32    0.01    0.04    0.20   -0.09
       NL  13.Li 2(ry)       -0.19    0.00    0.00    0.10   -0.07
    5. C 1- H 4            10.96   31.82   -2.08  -23.47   13.57
       NL   6. C 1- H 5       0.00   -0.01    0.00    0.00    0.00
       NL   7. C 1-Li 2*     -0.10   -0.26    0.00    0.18   -0.12
       NL   8. C 1- H 3*     -0.18    0.10    0.02    0.06   -0.02
       NL  10. C 1- H 5*      0.14   -0.22    0.02    0.06   -0.02
       NL  11.Li 2(ry)        0.00   -0.24    0.03    0.15   -0.07
       NL  12.Li 2(ry)       -0.08    0.00    0.01    0.05   -0.02
       NL  13.Li 2(ry)       -0.05   -0.15    0.00    0.10   -0.07
    6. C 1- H 5            10.96   31.82   -2.08  -23.47   13.57
       NL   7. C 1-Li 2*     -0.10   -0.26    0.00    0.18   -0.12
       NL   8. C 1- H 3*     -0.18    0.10    0.02    0.06   -0.02
       NL   9. C 1- H 4*      0.14   -0.22    0.02    0.06   -0.02
       NL  11.Li 2(ry)        0.00   -0.24    0.03    0.15   -0.07
       NL  12.Li 2(ry)       -0.08    0.00    0.01    0.05   -0.02
       NL  13.Li 2(ry)       -0.05   -0.15    0.00    0.10   -0.07
 -------------------------------------------------------------
                 Lewis   54.15   54.13   -6.24  -60.37   34.01
             non-Lewis   -1.30   -1.28    0.25    1.54   -0.78
 -------------------------------------------------------------
                 Total   52.84   52.84   -5.99  -58.84   33.23
 -------------------------------------------------------------

 Principal components of the induced tensor (ppm) for atom  C(  1):
 Canonical MO contributions

        MO                 11      22      33     CSA     ISO
 =============================================================
    1.                      0.01    0.01    0.00   -0.01    0.00
    2.                     -0.04   -0.04    0.00    0.04   -0.03
    3.                      6.74    6.74    0.00   -6.74    4.49
    4.                     48.97   -0.01   -3.00  -27.48   15.32
    5.                     -0.01   48.97   -3.00  -27.48   15.32
    6.                     -2.82   -2.82    0.00    2.82   -1.88
 -------------------------------------------------------------
                 Total   52.84   52.84   -5.99  -58.84   33.23
 -------------------------------------------------------------

 Principal components of the tensor (ppm) for atom Li(  2):

        NBO                11      22      33     CSA     ISO
 =============================================================
    1. C 1(cr)              0.15    0.15    0.07   -0.08    0.13
       NL   7. C 1-Li 2*      0.00    0.00    0.00    0.00    0.00
       NL  13.Li 2(ry)        0.00    0.00    0.00    0.00    0.00
    2.Li 2(cr)             93.60   93.60   93.60    0.00   93.60
       NL   7. C 1-Li 2*      0.03    0.03    0.03    0.00    0.03
       NL  13.Li 2(ry)       -0.02   -0.02   -0.02    0.00   -0.02
    3. C 1-Li 2           -18.03  -18.03    7.37   25.39   -9.56
       NL   8. C 1- H 3*      0.00    0.01    0.00    0.00    0.00
       NL   9. C 1- H 4*      0.01    0.00    0.00    0.00    0.00
       NL  10. C 1- H 5*      0.01    0.00    0.00    0.00    0.00
       NL  13.Li 2(ry)       -0.03   -0.03    0.00    0.03   -0.02
    4. C 1- H 3             0.25    0.39    1.05    0.73    0.56
       NL   7. C 1-Li 2*     -0.05   -0.04    0.00    0.04   -0.03
       NL   9. C 1- H 4*      0.00    0.00    0.00   -0.01    0.00
       NL  10. C 1- H 5*      0.00    0.00    0.00   -0.01    0.00
       NL  12.Li 2(ry)        0.10    0.05    0.06   -0.01    0.07
       NL  13.Li 2(ry)       -0.14   -0.10    0.00    0.11   -0.08
    5. C 1- H 4             0.36    0.28    1.05    0.73    0.56
       NL   7. C 1-Li 2*     -0.04   -0.04    0.00    0.04   -0.03
       NL   8. C 1- H 3*      0.00    0.00    0.00   -0.01    0.00
       NL  10. C 1- H 5*      0.00    0.01    0.00   -0.01    0.00
       NL  11.Li 2(ry)        0.04    0.07    0.04   -0.01    0.05
       NL  12.Li 2(ry)        0.02    0.01    0.01    0.00    0.02
       NL  13.Li 2(ry)       -0.11   -0.13    0.00    0.12   -0.08
    6. C 1- H 5             0.36    0.29    1.05    0.73    0.56
       NL   7. C 1-Li 2*     -0.04   -0.04    0.00    0.04   -0.03
       NL   8. C 1- H 3*      0.00    0.00    0.00   -0.01    0.00
       NL   9. C 1- H 4*      0.00    0.01    0.00   -0.01    0.00
       NL  11.Li 2(ry)        0.04    0.07    0.04   -0.01    0.05
[...]
       NL  12. RY     0.00    0.01    0.00    0.00    0.00    0.00   -0.01    0.00
       NL  13. RY    -0.01   -0.01    0.00    0.00    0.00    0.00    0.01   -0.01
    6. C 1- H 5       1.04    2.87    1.11   -0.03    0.47   -0.41   -0.85    1.67
       NL   7. BD*   -0.02    0.01    0.00   -0.01    0.00    0.00    0.00    0.00
       NL   8. BD*   -0.01    0.00    0.00   -0.01    0.00    0.00    0.01    0.00
       NL   9. BD*   -0.02    0.02    0.00   -0.02    0.01   -0.01    0.00    0.00
       NL  11. RY     0.00    0.01    0.00   -0.01    0.00    0.00   -0.01    0.00
       NL  12. RY     0.01   -0.01    0.00    0.01    0.00    0.01    0.00    0.00
       NL  13. RY    -0.01    0.01    0.00   -0.01    0.00    0.00    0.00    0.00
 ---------------------------------------------------------------------------------
             Lewis    6.88    5.76    2.39    0.00    0.50   -0.29   -3.93    5.01
         non-Lewis   -0.03    0.05   -0.03    0.00    0.01   -0.01   -0.04    0.00
 ---------------------------------------------------------------------------------
             Total    6.85    5.81    2.36    0.00    0.51   -0.29   -3.97    5.01
 ---------------------------------------------------------------------------------

 Principal components of the induced tensor (ppm) for atom  H(  4):
 Canonical MO contributions
 This tensor is non-symmetric.  The antisymmetric part will be printed.

                      Principal components     Antisymmetric part
        MO             11      22      33      12      13      23     CSA     ISO
 =================================================================================
    1.               -0.17   -0.17    0.00    0.00    0.18   -0.10    0.17   -0.11
    2.               -0.03   -0.03    0.00    0.00    0.01    0.00    0.03   -0.02
    3.               -0.10   -0.34    0.00    0.00    0.56   -0.32    0.22   -0.14
    4.                3.97   -0.02    1.07   -1.05    0.42    0.11   -0.91    1.67
    5.                0.03    2.36    1.29    1.05   -0.08   -0.30    0.10    1.23
    6.                3.15    4.01    0.00    0.00   -0.57    0.33   -3.58    2.39
 ---------------------------------------------------------------------------------
             Total    6.85    5.81    2.36    0.00    0.51   -0.29   -3.97    5.01
 ---------------------------------------------------------------------------------

 Principal components of the tensor (ppm) for atom  H(  5):
 This tensor is non-symmetric.  The antisymmetric part will be printed.

                      Principal components     Antisymmetric part
        NBO            11      22      33      12      13      23     CSA     ISO
 =================================================================================
    1. C 1(cr)       -0.46   -0.50    0.48    0.00    0.00    0.30    0.95   -0.16
       NL   7. BD*    0.00    0.00    0.00    0.00    0.00    0.00    0.00    0.00
       NL  10. BD*    0.00    0.00    0.00    0.00    0.00    0.00    0.00    0.00
       NL  13. RY     0.00    0.00    0.00    0.00    0.00    0.00    0.00    0.00
    2.Li 2(cr)       -0.11    0.00    0.02    0.00    0.00    0.01    0.07   -0.03
       NL   7. BD*    0.00    0.00    0.00    0.00    0.00    0.00    0.00    0.00
       NL  13. RY     0.00    0.00    0.00    0.00    0.00    0.00    0.00    0.00
    3. C 1-Li 2       2.16    1.03    1.29    0.00    0.00   -1.27   -0.31    1.49
       NL   8. BD*    0.00    0.00   -0.01    0.01    0.01    0.02   -0.01    0.00
       NL   9. BD*    0.00    0.00   -0.01   -0.01   -0.01    0.02   -0.01    0.00
       NL  10. BD*    0.00   -0.02    0.04    0.00    0.00   -0.04    0.05    0.01
       NL  13. RY     0.00    0.00    0.00    0.00    0.00    0.00    0.00    0.00
    4. C 1- H 3       1.59    2.08    5.50    0.36    0.77    1.05    3.67    3.06
       NL   6. BD     0.00    0.00    0.00    0.00    0.00    0.00    0.00    0.00
       NL   7. BD*    0.00    0.01   -0.05    0.01   -0.01   -0.03   -0.06   -0.01
       NL   9. BD*    0.02   -0.01   -0.03    0.01   -0.01    0.00   -0.04   -0.01
       NL  10. BD*   -0.03   -0.06    0.02    0.01    0.04    0.03    0.06   -0.02
       NL  12. RY     0.01    0.00    0.07    0.01    0.01    0.03    0.06    0.03
       NL  13. RY     0.00    0.01   -0.05    0.01   -0.03   -0.03   -0.05   -0.01
    5. C 1- H 4       1.59    2.08    5.51   -0.36   -0.77    1.05    3.67    3.06
       NL   7. BD*    0.00    0.01   -0.05   -0.01    0.01   -0.03   -0.06   -0.01
       NL   8. BD*    0.02   -0.01   -0.03   -0.01    0.01    0.00   -0.04   -0.01
       NL  10. BD*   -0.03   -0.06    0.02   -0.01   -0.04    0.03    0.06   -0.02
       NL  11. RY     0.03   -0.01    0.03   -0.01    0.01    0.01    0.02    0.02
       NL  12. RY    -0.01    0.00    0.04    0.00   -0.02    0.02    0.04    0.01
       NL  13. RY     0.00    0.01   -0.05   -0.01    0.03   -0.03   -0.05   -0.01
    6. C 1- H 5      23.60   25.15   30.31    0.00    0.00   -0.23    5.93   26.35
       NL   7. BD*    0.05    0.04    0.01    0.00    0.00   -0.03   -0.04    0.03
       NL   8. BD*   -0.02   -0.01    0.00    0.01    0.03    0.01    0.01   -0.01
       NL   9. BD*   -0.02   -0.01    0.00   -0.01   -0.03    0.01    0.01   -0.01
       NL  11. RY    -0.08   -0.08   -0.05   -0.02    0.00    0.02    0.03   -0.07
       NL  12. RY    -0.03   -0.03   -0.02    0.02    0.00    0.01    0.01   -0.02
       NL  13. RY     0.08    0.06    0.03    0.00    0.00   -0.02   -0.04    0.06
 ---------------------------------------------------------------------------------
             Lewis   28.38   29.85   43.10    0.00    0.00    0.91   13.99   33.77
         non-Lewis   -0.02   -0.12   -0.10    0.00    0.00   -0.01   -0.03   -0.08
 ---------------------------------------------------------------------------------
             Total   28.35   29.72   43.00    0.00    0.00    0.89   13.96   33.69
 ---------------------------------------------------------------------------------

 Cartesian XYZ to principal shielding axes for atom  H (  5):

        1         2         3
 -------------------------------
  X -0.500000  0.386080  0.775205
  Y  0.866025  0.222903  0.447565
  Z  0.000000  0.895129 -0.445806

 Principal components of the tensor (ppm) for atom  H(  5):
 Canonical MO contributions
 This tensor is non-symmetric.  The antisymmetric part will be printed.

                      Principal components     Antisymmetric part
        MO             11      22      33      12      13      23     CSA     ISO
 =================================================================================
    1.               -0.36   -0.38    0.43    0.00    0.00    0.18    0.80   -0.10
    2.               -0.09    0.01    0.03    0.00    0.00    0.01    0.07   -0.02
    3.                5.58    5.20   13.22    0.00    0.00    2.33    7.83    8.00
    4.                5.04    7.16    9.19   -0.17   -1.76   -1.18    3.09    7.13
    5.               15.15   16.30   17.75    0.17    1.76   -0.18    2.02   16.40
    6.                3.03    1.43    2.38    0.00    0.00   -0.26    0.15    2.28
 ---------------------------------------------------------------------------------
             Total   28.35   29.72   43.00    0.00    0.00    0.89   13.96   33.69
 ---------------------------------------------------------------------------------

 Principal components of the unperturbed tensor (ppm) for atom  H(  5):
 This tensor is non-symmetric.  The antisymmetric part will be printed.

                      Principal components     Antisymmetric part
        NBO            11      22      33      12      13      23     CSA     ISO
 =================================================================================
    1. C 1(cr)        0.21   -0.07   -0.11    0.00    0.00    0.00   -0.18    0.01
       NL   7. BD*    0.00    0.00    0.00    0.00    0.00    0.00    0.00    0.00
       NL  10. BD*    0.00    0.00    0.00    0.00    0.00    0.00    0.00    0.00
       NL  13. RY     0.00    0.00    0.00    0.00    0.00    0.00    0.00    0.00
    2.Li 2(cr)       -0.04   -0.05    0.10    0.00    0.00    0.00    0.15    0.00
       NL   7. BD*    0.00    0.00    0.00    0.00    0.00    0.00    0.00    0.00
       NL  13. RY     0.00    0.00    0.00    0.00    0.00    0.00    0.00    0.00
    3. C 1-Li 2      -2.06   -2.37    2.00    0.00    0.23    0.13    4.21   -0.81
       NL   8. BD*    0.00    0.00    0.00   -0.02   -0.02   -0.01    0.00    0.00
       NL   9. BD*   -0.01    0.01    0.00    0.02   -0.02   -0.01    0.00    0.00
       NL  10. BD*   -0.03   -0.06    0.03    0.00    0.02    0.01    0.08   -0.02
       NL  13. RY     0.00    0.00    0.00    0.00    0.00    0.00    0.00    0.00
    4. C 1- H 3       1.79    1.17    1.18   -0.82   -0.30   -0.34   -0.30    1.38
       NL   7. BD*   -0.03    0.00    0.00    0.02    0.02    0.03    0.02   -0.01
       NL   9. BD*   -0.01    0.00   -0.01    0.01    0.00    0.02   -0.01   -0.01
       NL  10. BD*   -0.02    0.00   -0.05   -0.02   -0.01   -0.02   -0.04   -0.02
       NL  12. RY     0.06   -0.02    0.02   -0.01   -0.03   -0.01    0.00    0.02
       NL  13. RY    -0.03    0.00    0.00    0.03    0.01    0.03    0.02   -0.01
    5. C 1- H 4       2.18    0.79    1.18    0.82   -0.45   -0.10   -0.30    1.38
       NL   7. BD*   -0.01   -0.02    0.00   -0.02    0.04    0.00    0.02   -0.01
       NL   8. BD*   -0.01    0.01   -0.01   -0.01    0.01   -0.01   -0.01    0.00
       NL  10. BD*    0.03   -0.05   -0.05    0.02   -0.02    0.00   -0.04   -0.02
       NL  11. RY    -0.02    0.04    0.01   -0.02    0.00   -0.01    0.00    0.01
       NL  12. RY     0.01    0.01    0.01    0.03   -0.02   -0.01    0.01    0.01
       NL  13. RY    -0.01   -0.02    0.00   -0.03    0.04   -0.01    0.02   -0.01
    6. C 1- H 5      28.52   26.18   25.68    0.00    0.24    0.14   -1.68   26.79
       NL   7. BD*    0.04    0.06    0.01    0.00    0.02    0.01   -0.04    0.04
       NL   8. BD*    0.01   -0.01    0.01   -0.02    0.00   -0.01    0.01    0.00
       NL   9. BD*   -0.01    0.01    0.01    0.02   -0.01    0.00    0.01    0.00
       NL  11. RY    -0.09   -0.12   -0.04    0.01   -0.01   -0.02    0.06   -0.08
       NL  12. RY    -0.03   -0.04   -0.01   -0.01   -0.01    0.01    0.02   -0.03
       NL  13. RY     0.07    0.09    0.04    0.00    0.02    0.01   -0.04    0.07
 ---------------------------------------------------------------------------------
             Lewis   30.60   25.65   30.04    0.00   -0.29   -0.16    1.91   28.76
         non-Lewis   -0.09   -0.11   -0.04    0.00    0.02    0.01    0.06   -0.08
 ---------------------------------------------------------------------------------
             Total   30.51   25.54   30.00    0.00   -0.26   -0.15    1.97   28.68
 ---------------------------------------------------------------------------------

 Principal components of the unperturbed tensor (ppm) for atom  H(  5):
 Canonical MO contributions
 This tensor is non-symmetric.  The antisymmetric part will be printed.

                      Principal components     Antisymmetric part
        MO             11      22      33      12      13      23     CSA     ISO
 =================================================================================
    1.                0.20   -0.06   -0.12    0.00    0.02    0.01   -0.19    0.01
    2.               -0.04   -0.05    0.10    0.00    0.00    0.00    0.14    0.00
    3.                9.75    7.27    7.42    0.00   -1.46   -0.84   -1.09    8.15
    4.                5.98    5.24    5.15    0.61    1.13    1.04   -0.47    5.46
    5.               16.05   14.56   14.91   -0.61    0.39   -0.16   -0.39   15.18
    6.               -1.44   -1.42    2.53    0.00   -0.34   -0.20    3.96   -0.11
 ---------------------------------------------------------------------------------
             Total   30.51   25.54   30.00    0.00   -0.26   -0.15    1.97   28.68
 ---------------------------------------------------------------------------------

 Principal components of the induced tensor (ppm) for atom  H(  5):
 This tensor is non-symmetric.  The antisymmetric part will be printed.

                      Principal components     Antisymmetric part
        NBO            11      22      33      12      13      23     CSA     ISO
 =================================================================================
    1. C 1(cr)       -0.25   -0.25    0.00    0.00   -0.26   -0.15    0.25   -0.17
    2.Li 2(cr)       -0.05   -0.05    0.00    0.00   -0.01    0.00    0.05   -0.03
    3. C 1-Li 2       2.83    4.07    0.00    0.00    0.88    0.51   -3.45    2.30
       NL   8. BD*    0.01   -0.01    0.00    0.01    0.00    0.01    0.00    0.00
       NL   9. BD*    0.00    0.00    0.00   -0.01    0.01   -0.01    0.00    0.00
       NL  10. BD*    0.02    0.05    0.00    0.00    0.01    0.00   -0.04    0.02
    4. C 1- H 3       3.72    0.19    1.11   -0.03   -0.59   -0.20   -0.85    1.68
       NL   7. BD*    0.00   -0.01    0.00   -0.01    0.00    0.00    0.00    0.00
       NL   9. BD*   -0.01    0.00    0.00   -0.01    0.00    0.00    0.01    0.00
       NL  10. BD*    0.01   -0.01    0.00   -0.02   -0.01    0.00    0.00    0.00
       NL  12. RY     0.01    0.00    0.00    0.00    0.01    0.00    0.00    0.00
       NL  13. RY     0.00    0.00    0.00   -0.01    0.00    0.00    0.00    0.00
    5. C 1- H 4       1.04    2.87    1.11    0.03   -0.47   -0.41   -0.85    1.67
       NL   7. BD*   -0.02    0.01    0.00    0.01    0.00    0.00    0.00    0.00
       NL   8. BD*   -0.01    0.00    0.00    0.01    0.00    0.00    0.01    0.00
       NL  10. BD*   -0.02    0.02    0.00    0.02   -0.01   -0.01    0.00    0.00
       NL  11. RY     0.00    0.01    0.00    0.01    0.00    0.00   -0.01    0.00
       NL  12. RY     0.01   -0.01    0.00   -0.01    0.00    0.01    0.00    0.00
       NL  13. RY    -0.01    0.01    0.00    0.01    0.00    0.00    0.00    0.00
    6. C 1- H 5      -0.41   -1.08    0.17    0.00   -0.04   -0.03    0.92   -0.44
       NL   7. BD*   -0.01   -0.01    0.00    0.00    0.00    0.00    0.01   -0.01
       NL   8. BD*   -0.02    0.00   -0.01   -0.02    0.00    0.00    0.00   -0.01
       NL   9. BD*    0.01   -0.03   -0.01    0.02    0.00    0.00    0.00   -0.01
       NL  11. RY     0.01    0.04    0.00    0.00    0.00    0.00   -0.03    0.01
       NL  12. RY     0.00    0.01    0.00    0.00    0.00    0.00   -0.01    0.00
       NL  13. RY    -0.01   -0.01    0.00    0.00    0.00    0.00    0.01   -0.01
 ---------------------------------------------------------------------------------
             Lewis    6.88    5.76    2.39    0.00   -0.50   -0.29   -3.93    5.01
         non-Lewis   -0.03    0.05   -0.03    0.00   -0.01   -0.01   -0.04    0.00
 ---------------------------------------------------------------------------------
             Total    6.85    5.81    2.36    0.00   -0.51   -0.29   -3.97    5.01
 ---------------------------------------------------------------------------------

 Principal components of the induced tensor (ppm) for atom  H(  5):
 Canonical MO contributions
 This tensor is non-symmetric.  The antisymmetric part will be printed.

                      Principal components     Antisymmetric part
        MO             11      22      33      12      13      23     CSA     ISO
 =================================================================================
    1.               -0.17   -0.17    0.00    0.00   -0.18   -0.10    0.17   -0.11
    2.               -0.03   -0.03    0.00    0.00   -0.01    0.00    0.03   -0.02
    3.               -0.10   -0.34    0.00    0.00   -0.56   -0.32    0.22   -0.14
    4.                3.97   -0.02    1.07    1.05   -0.42    0.11   -0.91    1.67
    5.                0.03    2.36    1.29   -1.05    0.08   -0.30    0.10    1.23
    6.                3.15    4.01    0.00    0.00    0.57    0.33   -3.58    2.39
 ---------------------------------------------------------------------------------
             Total    6.85    5.81    2.36    0.00   -0.51   -0.29   -3.97    5.01
 ---------------------------------------------------------------------------------

 Summary of isotropic NMR chemical shielding
 Total Lewis (L) and non-Lewis (NL) contributions: (ppm)

         NBO            C  1   Li  2    H  3    H  4    H  5
 -----------------    ------- ------- ------- ------- -------
   1.  C 1(cr)     L   195.70    0.13   -0.16   -0.16   -0.16
                   NL    0.00    0.00    0.00    0.00    0.00
   2. Li 2(cr)     L    -0.05   93.60   -0.03   -0.03   -0.03
                   NL    0.01    0.01    0.00    0.00    0.00
   3.  C 1-Li 2    L    -3.30   -9.56    1.49    1.49    1.49
                   NL    0.21   -0.01    0.00    0.00    0.00
   4.  C 1- H 3    L    24.94    0.56   26.36    3.06    3.06
                   NL   -0.35   -0.04   -0.02   -0.03   -0.03
   5.  C 1- H 4    L    24.95    0.56    3.06   26.35    3.06
                   NL   -0.34   -0.04   -0.03   -0.02   -0.03
   6.  C 1- H 5    L    24.95    0.56    3.06    3.06   26.35
                   NL   -0.34   -0.04   -0.03   -0.03   -0.02
 -----------------    ------- ------- ------- ------- -------
             Lewis     267.20   85.85   33.77   33.77   33.77
         non-Lewis      -0.81   -0.12   -0.08   -0.08   -0.08
 -----------------    ------- ------- ------- ------- -------
             Total     266.39   85.73   33.69   33.69   33.69

 Summary of isotropic NMR chemical shielding
 Canonical MO contributions: (ppm)

         MO             C  1   Li  2    H  3    H  4    H  5
 -----------------    ------- ------- ------- ------- -------
   1.                197.50    0.08   -0.10   -0.10   -0.10
   2.                 -0.02   93.57   -0.02   -0.02   -0.02
   3.                 30.82    1.37    8.00    8.00    8.00
   4.                 19.67    0.06   21.04    7.13    7.13
   5.                 19.67    0.06    2.49   16.40   16.40
   6.                 -1.25   -9.41    2.28    2.28    2.28
 -----------------    ------- ------- ------- ------- -------
             Total     266.39   85.73   33.69   33.69   33.69

 NBO analysis completed in 0.26 CPU seconds (1 wall second)
 Maximum scratch memory used by NBO was 222354 words (1.70 MB)
 Maximum scratch memory used by G16NBO was 12249 words (0.09 MB)

 Opening RunExU unformatted file "/cluster/work/users/beto93/LiCH3/Gau-2018234.EUF"
 Read unf file /cluster/work/users/beto93/LiCH3/Gau-2018234.EUF:
 Label Gaussian matrix elements                                         IVers= 2 NLab= 2 Version=ES64L-G16RevC.01
 Title NBO-LiCH3                                                       
 NAtoms=     5 NBasis=    13 NBsUse=    13 ICharg=     0 Multip=     1 NE=    12 Len12L=8 Len4L=8 IOpCl= 0 ICGU=111
 GAUSSIAN SCALARS                    NI= 1 NR= 1 NTot=       1 LenBuf=    2 NRI=1 N=    1000
 NPA CHARGES                         NI= 0 NR= 1 NTot=       5 LenBuf= 4000 NRI=1 N=       5
 Recovered energy= -46.4215878959     dipole=      0.000000000000     -0.000000000000     -1.678304535045
 Unable to Open any file for archive entry.
 1\1\GINC-C2-6\SP\RHF\STO-3G\C1H3Li1\BETO93\02-Aug-2024\0\\#RHF/STO-3G 
 NMR Pop=NBO7Read\\NBO-LiCH3\\0,1\C,0,0.398109,0.,0.\Li,0,-1.610325,0.,
 0.\H,0,0.814106,-0.542451,-0.839607\H,0,0.814106,-0.455895,0.88958\H,0
 ,0.814106,0.998346,-0.049973\\Version=ES64L-G16RevC.01\State=1-A1\HF=-
 46.4215879\RMSD=5.102e-09\Dipole=-1.6783045,0.,0.\Quadrupole=5.6052,-2
 .8026,-2.8026,0.,0.,0.\PG=C03V [C3(Li1C1),3SGV(H1)]\\@
 The archive entry for this job was punched.


 IT MATTERS NOT HOW DEEP YOU PLOW,
 BUT HOW LONG YOU STAY IN THE FURROW.
 Job cpu time:       0 days  0 hours  0 minutes 13.4 seconds.
 Elapsed time:       0 days  0 hours  0 minutes  5.1 seconds.
 File lengths (MBytes):  RWF=     10 Int=      0 D2E=      0 Chk=      1 Scr=      1
 Normal termination of Gaussian 16 at Fri Aug  2 15:56:40 2024.
