 Entering Gaussian System, Link 0=g16
 Initial command:
 /cluster/software/Gaussian/g16_C.01/l1.exe "/cluster/work/users/beto93/LiLi/Gau-2325349.inp" -scrdir="/cluster/work/users/beto93/LiLi/"
 Entering Link 1 = /cluster/software/Gaussian/g16_C.01/l1.exe PID=   2325357.
  
 Copyright (c) 1988-2019, Gaussian, Inc.  All Rights Reserved.
  
 This is part of the Gaussian(R) 16 program.  It is based on
 the Gaussian(R) 09 system (copyright 2009, Gaussian, Inc.),
 the Gaussian(R) 03 system (copyright 2003, Gaussian, Inc.),
 the Gaussian(R) 98 system (copyright 1998, Gaussian, Inc.),
 the Gaussian(R) 94 system (copyright 1995, Gaussian, Inc.),
 the Gaussian 92(TM) system (copyright 1992, Gaussian, Inc.),
 the Gaussian 90(TM) system (copyright 1990, Gaussian, Inc.),
 the Gaussian 88(TM) system (copyright 1988, Gaussian, Inc.),
 the Gaussian 86(TM) system (copyright 1986, Carnegie Mellon
 University), and the Gaussian 82(TM) system (copyright 1983,
 Carnegie Mellon University). Gaussian is a federally registered
 trademark of Gaussian, Inc.
  
 This software contains proprietary and confidential information,
 including trade secrets, belonging to Gaussian, Inc.
  
 This software is provided under written license and may be
 used, copied, transmitted, or stored only in accord with that
 written license.
  
 The following legend is applicable only to US Government
 contracts under FAR:
  
                    RESTRICTED RIGHTS LEGEND
  
 Use, reproduction and disclosure by the US Government is
 subject to restrictions as set forth in subparagraphs (a)
 and (c) of the Commercial Computer Software - Restricted
 Rights clause in FAR 52.227-19.
  
 Gaussian, Inc.
 340 Quinnipiac St., Bldg. 40, Wallingford CT 06492
  
  
 ---------------------------------------------------------------
 Warning -- This program may not be used in any manner that
 competes with the business of Gaussian, Inc. or will provide
 assistance to any competitor of Gaussian, Inc.  The licensee
 of this program is prohibited from giving any competitor of
 Gaussian, Inc. access to this program.  By using this program,
 the user acknowledges that Gaussian, Inc. is engaged in the
 business of creating and licensing software in the field of
 computational chemistry and represents and warrants to the
 licensee that it is not a competitor of Gaussian, Inc. and that
 it will not use this program in any manner prohibited above.
 ---------------------------------------------------------------
  

 Cite this work as:
 Gaussian 16, Revision C.01,
 M. J. Frisch, G. W. Trucks, H. B. Schlegel, G. E. Scuseria, 
 M. A. Robb, J. R. Cheeseman, G. Scalmani, V. Barone, 
 G. A. Petersson, H. Nakatsuji, X. Li, M. Caricato, A. V. Marenich, 
 J. Bloino, B. G. Janesko, R. Gomperts, B. Mennucci, H. P. Hratchian, 
 J. V. Ortiz, A. F. Izmaylov, J. L. Sonnenberg, D. Williams-Young, 
 F. Ding, F. Lipparini, F. Egidi, J. Goings, B. Peng, A. Petrone, 
 T. Henderson, D. Ranasinghe, V. G. Zakrzewski, J. Gao, N. Rega, 
 G. Zheng, W. Liang, M. Hada, M. Ehara, K. Toyota, R. Fukuda, 
 J. Hasegawa, M. Ishida, T. Nakajima, Y. Honda, O. Kitao, H. Nakai, 
 T. Vreven, K. Throssell, J. A. Montgomery, Jr., J. E. Peralta, 
 F. Ogliaro, M. J. Bearpark, J. J. Heyd, E. N. Brothers, K. N. Kudin, 
 V. N. Staroverov, T. A. Keith, R. Kobayashi, J. Normand, 
 K. Raghavachari, A. P. Rendell, J. C. Burant, S. S. Iyengar, 
 J. Tomasi, M. Cossi, J. M. Millam, M. Klene, C. Adamo, R. Cammi, 
 J. W. Ochterski, R. L. Martin, K. Morokuma, O. Farkas, 
 J. B. Foresman, and D. J. Fox, Gaussian, Inc., Wallingford CT, 2019.
 
 ******************************************
 Gaussian 16:  ES64L-G16RevC.01  3-Jul-2019
                24-Jul-2024 
 ******************************************
 %LindaWorkers=c1-4-ib
 %NProcShared=4
 Will use up to    4 processors via shared memory.
 %mem=25GB
 %chk=LiLi.chk
 SetLPE:    new flags="-opt 'Tsnet.Node.lindarsharg: ssh'  -nodelist 'c1-4-ib.saga' -env GAUSS_MDEF=3355443200 -env GAUSS_EXEDIR="/cluster/software/Gaussian/g16_C.01/bsd:/cluster/software/Gaussian/g16_C.01""
 Will use up to    1 processors via Linda.
 ----------------------------------------------------
 #OPT=VeryTight Int=UltraFine RHF/STO-3G Pop=NBO7Read
 ----------------------------------------------------
 1/7=1,18=20,19=15,38=1,163=2/1,3;
 2/9=110,12=2,17=6,18=5,40=1/2;
 3/6=3,11=1,25=1,30=1,71=1,75=-5,116=1/1,2,3;
 4//1;
 5/5=2,38=5/2;
 6/7=2,8=2,9=2,10=2,28=1,40=2,113=1,114=1,124=2103/1,12;
 7//1,2,3,16;
 1/7=1,18=20,19=15/3(2);
 2/9=110/2;
 99//99;
 2/9=110/2;
 3/6=3,11=1,25=1,30=1,71=1,75=-5,116=1/1,2,3;
 4/5=5,16=3,69=1/1;
 5/5=2,38=5/2;
 7//1,2,3,16;
 1/7=1,18=20,19=15/3(-5);
 2/9=110/2;
 6/7=2,8=2,9=2,10=2,19=2,28=1,40=2,113=1,114=1,124=2103/1,12;
 99/9=1/99;
 --------
 NBO-LiLi
 --------
 Symbolic Z-matrix:
 Charge =  0 Multiplicity = 1
 Li                    0.        0.        0. 
 Li                    0.        0.        2.696 
 

 GradGradGradGradGradGradGradGradGradGradGradGradGradGradGradGradGradGrad
 Berny optimization.
 Initialization pass.
                           ----------------------------
                           !    Initial Parameters    !
                           ! (Angstroms and Degrees)  !
 --------------------------                            --------------------------
 ! Name  Definition              Value          Derivative Info.                !
 --------------------------------------------------------------------------------
 ! R1    R(1,2)                  2.696          estimate D2E/DX2                !
 --------------------------------------------------------------------------------
 Trust Radius=3.00D-01 FncErr=1.00D-07 GrdErr=1.00D-07 EigMax=2.50D+02 EigMin=1.00D-04
 Number of steps in this run=     20 maximum allowed number of steps=    100.
 GradGradGradGradGradGradGradGradGradGradGradGradGradGradGradGradGradGrad

                          Input orientation:                          
 ---------------------------------------------------------------------
 Center     Atomic      Atomic             Coordinates (Angstroms)
 Number     Number       Type             X           Y           Z
 ---------------------------------------------------------------------
      1          3           0        0.000000    0.000000    0.000000
      2          3           0        0.000000    0.000000    2.696000
 ---------------------------------------------------------------------
 Stoichiometry    Li2
 Framework group  D*H[C*(Li.Li)]
 Deg. of freedom     1
 Full point group                 D*H     NOp   8
 Largest Abelian subgroup         D2H     NOp   8
 Largest concise Abelian subgroup C2      NOp   2
                         Standard orientation:                         
 ---------------------------------------------------------------------
 Center     Atomic      Atomic             Coordinates (Angstroms)
 Number     Number       Type             X           Y           Z
 ---------------------------------------------------------------------
      1          3           0        0.000000    0.000000    1.348000
      2          3           0        0.000000    0.000000   -1.348000
 ---------------------------------------------------------------------
 Rotational constants (GHZ):           0.0000000          19.8206348          19.8206348
 Standard basis: STO-3G (5D, 7F)
 There are     3 symmetry adapted cartesian basis functions of AG  symmetry.
 There are     0 symmetry adapted cartesian basis functions of B1G symmetry.
 There are     1 symmetry adapted cartesian basis functions of B2G symmetry.
 There are     1 symmetry adapted cartesian basis functions of B3G symmetry.
 There are     0 symmetry adapted cartesian basis functions of AU  symmetry.
 There are     3 symmetry adapted cartesian basis functions of B1U symmetry.
 There are     1 symmetry adapted cartesian basis functions of B2U symmetry.
 There are     1 symmetry adapted cartesian basis functions of B3U symmetry.
 There are     3 symmetry adapted basis functions of AG  symmetry.
 There are     0 symmetry adapted basis functions of B1G symmetry.
 There are     1 symmetry adapted basis functions of B2G symmetry.
 There are     1 symmetry adapted basis functions of B3G symmetry.
 There are     0 symmetry adapted basis functions of AU  symmetry.
 There are     3 symmetry adapted basis functions of B1U symmetry.
 There are     1 symmetry adapted basis functions of B2U symmetry.
 There are     1 symmetry adapted basis functions of B3U symmetry.
    10 basis functions,    30 primitive gaussians,    10 cartesian basis functions
     3 alpha electrons        3 beta electrons
       nuclear repulsion energy         1.7665411344 Hartrees.
 NAtoms=    2 NActive=    2 NUniq=    1 SFac= 4.00D+00 NAtFMM=   60 NAOKFM=F Big=F
 Integral buffers will be    131072 words long.
 Raffenetti 1 integral format.
 Two-electron integral symmetry is turned on.
 One-electron integrals computed using PRISM.
 NBasis=    10 RedAO= T EigKep=  1.67D-01  NBF=     3     0     1     1     0     3     1     1
 NBsUse=    10 1.00D-06 EigRej= -1.00D+00 NBFU=     3     0     1     1     0     3     1     1
 ExpMin= 4.81D-02 ExpMax= 1.61D+01 ExpMxC= 1.61D+01 IAcc=3 IRadAn=         5 AccDes= 0.00D+00
 Harris functional with IExCor=  205 and IRadAn=       5 diagonalized for initial guess.
 HarFok:  IExCor=  205 AccDes= 0.00D+00 IRadAn=         5 IDoV= 1 UseB2=F ITyADJ=14
 ICtDFT=  3500011 ScaDFX=  1.000000  1.000000  1.000000  1.000000
 FoFCou: FMM=F IPFlag=           0 FMFlag=      100000 FMFlg1=           0
         NFxFlg=           0 DoJE=T BraDBF=F KetDBF=T FulRan=T
         wScrn=  0.000000 ICntrl=       500 IOpCl=  0 I1Cent=   200000004 NGrid=           0
         NMat0=    1 NMatS0=      1 NMatT0=    0 NMatD0=    1 NMtDS0=    0 NMtDT0=    0
 Petite list used in FoFCou.
 Initial guess orbital symmetries:
       Occupied  (SGU) (SGG) (SGG)
       Virtual   (SGU) (PIU) (PIU) (SGG) (PIG) (PIG) (SGU)
 The electronic state of the initial guess is 1-SGG.
 Keep R1 ints in memory in symmetry-blocked form, NReq=804782.
 Requested convergence on RMS density matrix=1.00D-08 within 128 cycles.
 Requested convergence on MAX density matrix=1.00D-06.
 Requested convergence on             energy=1.00D-06.
 No special actions if energy rises.
 SCF Done:  E(RHF) =  -14.6387473092     A.U. after    7 cycles
            NFock=  7  Conv=0.35D-08     -V/T= 1.9884

 **********************************************************************

            Population analysis using the SCF Density.

 **********************************************************************

 Orbital symmetries:
       Occupied  (SGU) (SGG) (SGG)
       Virtual   (SGU) (PIU) (PIU) (SGG) (PIG) (PIG) (SGU)
 The electronic state is 1-SGG.
 Alpha  occ. eigenvalues --   -2.33043  -2.33038  -0.14890
 Alpha virt. eigenvalues --    0.08230   0.13426   0.13426   0.15712   0.23937
 Alpha virt. eigenvalues --    0.23937   0.46369
          Condensed to atoms (all electrons):
               1          2
     1  Li   2.642592   0.357408
     2  Li   0.357408   2.642592
 Mulliken charges:
               1
     1  Li  -0.000000
     2  Li  -0.000000
 Sum of Mulliken charges =  -0.00000
 Mulliken charges with hydrogens summed into heavy atoms:
               1
     1  Li  -0.000000
     2  Li  -0.000000
 Electronic spatial extent (au):  <R**2>=             56.0953
 Charge=             -0.0000 electrons
 Dipole moment (field-independent basis, Debye):
    X=             -0.0000    Y=              0.0000    Z=             -0.0000  Tot=              0.0000
 Quadrupole moment (field-independent basis, Debye-Ang):
   XX=            -11.7045   YY=            -11.7045   ZZ=              0.3264
   XY=             -0.0000   XZ=             -0.0000   YZ=              0.0000
 Traceless Quadrupole moment (field-independent basis, Debye-Ang):
   XX=             -4.0103   YY=             -4.0103   ZZ=              8.0206
   XY=             -0.0000   XZ=             -0.0000   YZ=              0.0000
 Octapole moment (field-independent basis, Debye-Ang**2):
  XXX=             -0.0000  YYY=              0.0000  ZZZ=              0.0000  XYY=             -0.0000
  XXY=             -0.0000  XXZ=             -0.0000  XZZ=              0.0000  YZZ=             -0.0000
  YYZ=             -0.0000  XYZ=              0.0000
 Hexadecapole moment (field-independent basis, Debye-Ang**3):
 XXXX=            -39.9979 YYYY=            -39.9979 ZZZZ=            -63.0140 XXXY=             -0.0000
 XXXZ=              0.0000 YYYX=             -0.0000 YYYZ=              0.0000 ZZZX=              0.0000
 ZZZY=              0.0000 XXYY=            -13.3326 XXZZ=            -22.1831 YYZZ=            -22.1831
 XXYZ=              0.0000 YYXZ=              0.0000 ZZXY=             -0.0000
 N-N= 1.766541134377D+00 E-N=-3.800180545704D+01  KE= 1.481063487140D+01
 Symmetry AG   KE= 7.795573219978D+00
 Symmetry B1G  KE= 0.000000000000D+00
 Symmetry B2G  KE= 9.465972224443D-35
 Symmetry B3G  KE= 9.465972224443D-35
 Symmetry AU   KE= 0.000000000000D+00
 Symmetry B1U  KE= 7.015061651421D+00
 Symmetry B2U  KE= 1.915920971361D-36
 Symmetry B3U  KE= 1.915920971361D-36
 Running external command "gaunbo7 R"
         input file       "/cluster/work/users/beto93/LiLi/Gau-2325357.EIn"
         output file      "/cluster/work/users/beto93/LiLi/Gau-2325357.EOu"
         message file     "/cluster/work/users/beto93/LiLi/Gau-2325357.EMs"
         fchk file        "/cluster/work/users/beto93/LiLi/Gau-2325357.EFC"
         mat. el file     "/cluster/work/users/beto93/LiLi/Gau-2325357.EUF"

 Writing WrtUnf unformatted file "/cluster/work/users/beto93/LiLi/Gau-2325357.EUF"
 Gaussian matrix elements                                         Version   2 NLab=11 Len12L=8 Len4L=8
 Write SHELL TO ATOM MAP                   from file      0 offset           0 length                   4 to matrix element file.
 Write SHELL TYPES                         from file      0 offset           0 length                   4 to matrix element file.
 Write NUMBER OF PRIMITIVES PER SHELL      from file      0 offset           0 length                   4 to matrix element file.
 Write PRIMITIVE EXPONENTS                 from file      0 offset           0 length                  12 to matrix element file.
 Write CONTRACTION COEFFICIENTS            from file      0 offset           0 length                  12 to matrix element file.
 Write P(S=P) CONTRACTION COEFFICIENTS     from file      0 offset           0 length                  12 to matrix element file.
 Write COORDINATES OF EACH SHELL           from file      0 offset           0 length                  12 to matrix element file.
 Write BONDS PER ATOM                      from file      0 offset           0 length                   2 to matrix element file.
 Write BONDED ATOMS                        from file      0 offset           0 length                   2 to matrix element file.
 Write BOND TYPES                          from file      0 offset           0 length                   2 to matrix element file.
 Write ONIOM CHARGE/MULT                   from file      0 offset           0 length                  32 to matrix element file.
 Write ONIOM ATOM LAYERS                   from file      0 offset           0 length                   2 to matrix element file.
 Write ONIOM ATOM MODIFIERS                from file      0 offset           0 length                   2 to matrix element file.
 Write ONIOM ATOM TYPES                    from file      0 offset           0 length                   2 to matrix element file.
 Write ONIOM LINK ATOMS                    from file      0 offset           0 length                   2 to matrix element file.
 Write ONIOM LINK CHARGES                  from file      0 offset           0 length                   2 to matrix element file.
 Write ONIOM LINK DISTANCES                from file      0 offset           0 length                   8 to matrix element file.
 Write SYMINF INTS                         from file      0 offset           0 length                  26 to matrix element file.
 Write ROTTR TO SO                         from file      0 offset           0 length                  12 to matrix element file.
 Write GAUSSIAN SCALARS                    from file    501 offset           0 to matrix element file.
 Write OPTIMIZATION FLAGS                  from file      0 offset           0 length                   2 to matrix element file.
 Write INTEGER ISO                         from file      0 offset           0 length                   2 to matrix element file.
 Write INTEGER SPIN                        from file      0 offset           0 length                   2 to matrix element file.
 Write REAL ZEFFECTIVE                     from file      0 offset           0 length                   2 to matrix element file.
 Write REAL QUADRUPOLEMOMENT               from file      0 offset           0 length                   2 to matrix element file.
 Write REAL GFACTOR                        from file      0 offset           0 length                   2 to matrix element file.
 Write REAL ZNUCLEAR                       from file      0 offset           0 length                   2 to matrix element file.
 Write MULLIKEN CHARGES                    from file      0 offset           0 length                   2 to matrix element file.
 Write NUCLEAR GRADIENT                    from file  10584 offset           0 length                   6 to matrix element file.
 Array NUCLEAR FORCE CONSTANTS              on  file  10585 does not exist.
 Write ELECTRIC DIPOLE MOMENT              from file      0 offset           0 length                   3 to matrix element file.
 Write NON-ADIABATIC COUPLING              from file  10810 offset           0 length                   6 to matrix element file.
 Write RED INT COORD DIMS                  from file      0 offset           0 length                   4 to matrix element file.
 Write RED INT COORD ATOMS                 from file      0 offset           0 length                   4 to matrix element file.
 Write RED INT COORD VALS                  from file      0 offset           0 length                   1 to matrix element file.
 Write RED INT COORD IFLAGS                from file      0 offset           0 length                   1 to matrix element file.
 Write RED INT COORD RFLAGS                from file      0 offset           0 length                   1 to matrix element file.
 Write RED INT COORD CONSTRAINT            from file      0 offset           0 length                   2 to matrix element file.
 Write FINITE EM FIELD                     from file  10521 offset           0 length                  35 to matrix element file.
 Write OVERLAP                             from file  10514 offset           0 length                  55 to matrix element file.
 Write CORE HAMILTONIAN ALPHA              from file  10515 offset           0 length                  55 to matrix element file.
 Write CORE HAMILTONIAN BETA               from file  10515 offset          55 length                  55 to matrix element file.
 Write KINETIC ENERGY                      from file  10516 offset           0 length                  55 to matrix element file.
 Write ORTHOGONAL BASIS                    from file  10685 offset           0 length                 100 to matrix element file.
 Write DIPOLE INTEGRALS                    from file  10518 offset           0 length                 165 to matrix element file.
 Array DIP VEL INTEGRALS                    on  file  10572 does not exist.
 Array R X DEL INTEGRALS                    on  file  10572 does not exist.
 Write ALPHA ORBITAL ENERGIES              from file      0 offset           0 length                  10 to matrix element file.
 Write ALPHA MO COEFFICIENTS               from file  10524 offset           0 length                 100 to matrix element file.
 Write ALPHA DENSITY MATRIX                from file      0 offset           0 length                  55 to matrix element file.
 Write ALPHA FOCK MATRIX                   from file  10536 offset           0 length                  55 to matrix element file.
 Write ENERGY-WEIGHTED DENSITY             from file  10571 offset           0 length                  55 to matrix element file.
 Write ALPHA SCF DENSITY MATRIX            from file      0 offset           0 length                  55 to matrix element file.
 No 2e integrals to process.
 Perform NBO analysis...executing G16NBO...

 *********************************** NBO 7.0 ***********************************
             N A T U R A L   A T O M I C   O R B I T A L   A N D
          N A T U R A L   B O N D   O R B I T A L   A N A L Y S I S
 **************************** Espen Tangen (S101595) ***************************
  (c) Copyright 1996-2021 Board of Regents of the University of Wisconsin System
      on behalf of the Theoretical Chemistry Institute.  All rights reserved.

          Cite this program [NBO 7.0.10 (8-Feb-2021)] as:

          NBO 7.0.  E. D. Glendening, J. K. Badenhoop, A. E. Reed,
          J. E. Carpenter, J. A. Bohmann, C. M. Morales, P. Karafiloglou,
          C. R. Landis, and F. Weinhold, Theoretical Chemistry Institute,
          University of Wisconsin, Madison, WI (2018)

       /NPA    / : Natural Population Analysis
       /AOPNAO / : Print the AO to PNAO transformation
       /AONAO  / : Print the AO to NAO transformation
       /AONO   / : Print the NOs in the AO basis
       /AOMO   / : Print the MOs in the AO basis
       /BOAO   / : Print the AO bond-order matrix
       /DMAO   / : Print the AO density matrix
       /DMPNAO / : Print the PNAO density matrix
       /DMNAO  / : Print the NAO density matrix
       /DMMO   / : Print the MO density matrix
       /SAO    / : Print the AO overlap matrix
       /SPNAO  / : Print the PNAO overlap matrix
       /DETAIL / : Write details of NBO search
       /ARCHIVE/ : Write the archive file to lfn47
       /AOINFO / : Write AO information to lfn31
       /FILE   / : Set to LiLi

 Filename set to LiLi

 Job title: NBO-LiLi


 MOs in the AO basis:

           AO          1       2       3       4       5       6       7       8
      ------------ ------- ------- ------- ------- ------- ------- ------- -------
   1. Li 1 (s)      0.7004  0.7009 -0.1973 -0.1794  0.0000  0.0000 -0.0356  0.0000
   2. Li 1 (s)      0.0371  0.0203  0.5683  0.7012  0.0000  0.0000  0.2906  0.0000
   3. Li 1 (px)     0.0000  0.0000  0.0000  0.0000  0.0000  0.6260  0.0000  0.8309
   4. Li 1 (py)     0.0000  0.0000  0.0000  0.0000  0.6260  0.0000  0.0000  0.0000
   5. Li 1 (pz)    -0.0080  0.0017 -0.1019  0.3047  0.0000  0.0000  0.6409  0.0000
   6. Li 2 (s)     -0.7004  0.7009 -0.1973  0.1794  0.0000  0.0000 -0.0356  0.0000
   7. Li 2 (s)     -0.0371  0.0203  0.5683 -0.7012  0.0000  0.0000  0.2906  0.0000
   8. Li 2 (px)     0.0000  0.0000  0.0000  0.0000  0.0000  0.6260  0.0000 -0.8309
   9. Li 2 (py)     0.0000  0.0000  0.0000  0.0000  0.6260  0.0000  0.0000  0.0000
  10. Li 2 (pz)    -0.0080 -0.0017  0.1019  0.3047  0.0000  0.0000 -0.6409  0.0000

           AO          9      10
      ------------ ------- -------
   1. Li 1 (s)      0.0000 -0.1369
   2. Li 1 (s)      0.0000  1.2047
   3. Li 1 (px)     0.0000  0.0000
   4. Li 1 (py)     0.8309  0.0000
   5. Li 1 (pz)     0.0000 -1.1906
   6. Li 2 (s)      0.0000  0.1369
   7. Li 2 (s)      0.0000 -1.2047
   8. Li 2 (px)     0.0000  0.0000
   9. Li 2 (py)    -0.8309  0.0000
  10. Li 2 (pz)     0.0000 -1.1906


 NOs in the AO basis:

           AO          1       2       3       4       5       6       7       8
      ------------ ------- ------- ------- ------- ------- ------- ------- -------
   1. Li 1 (s)      0.8689  0.5106 -0.0708  0.0988  0.0146  0.0146 -0.0361  0.0000
   2. Li 1 (s)      0.0127 -0.0843  0.5634 -0.2439 -0.2896 -0.0911 -0.1112  0.0000
   3. Li 1 (px)     0.0000  0.0000  0.0000  0.0706  0.1225 -0.9896 -0.0028  0.2870
   4. Li 1 (py)     0.0000  0.0000  0.0000 -0.3567  0.5754  0.0478 -0.7344  0.0014
   5. Li 1 (pz)    -0.0022  0.0205 -0.1001 -0.9389 -0.2189 -0.0682  0.2778  0.0000
   6. Li 2 (s)     -0.4808  0.8853 -0.0767 -0.0618  0.0397 -0.0055  0.0613  0.0000
   7. Li 2 (s)     -0.0588 -0.0645  0.5631 -0.0582 -0.1538  0.0166 -0.0945  0.0000
   8. Li 2 (px)     0.0000  0.0000  0.0000  0.0000  0.0000  0.0000  0.0000 -1.0404
   9. Li 2 (py)     0.0000  0.0000  0.0000  0.0000  0.0000  0.0000  0.0000 -0.0052
  10. Li 2 (pz)    -0.0133 -0.0162  0.1001 -0.2727  0.7590  0.0962  0.7314  0.0000

           AO          9      10
      ------------ ------- -------
   1. Li 1 (s)      0.0000  0.2018
   2. Li 1 (s)      0.0000 -1.3651
   3. Li 1 (px)    -0.0014  0.0277
   4. Li 1 (py)     0.2870 -0.0017
   5. Li 1 (pz)     0.0000  0.9539
   6. Li 2 (s)      0.0000 -0.2074
   7. Li 2 (s)      0.0000  1.4111
   8. Li 2 (px)     0.0052  0.0000
   9. Li 2 (py)    -1.0404  0.0000
  10. Li 2 (pz)     0.0000  0.8524


 AO overlap matrix:

           AO          1       2       3       4       5       6       7       8
      ------------ ------- ------- ------- ------- ------- ------- ------- -------
   1. Li 1 (s)      1.0000  0.2411  0.0000  0.0000  0.0000  0.0000  0.0513  0.0000
   2. Li 1 (s)      0.2411  1.0000  0.0000  0.0000  0.0000  0.0513  0.4417  0.0000
   3. Li 1 (px)     0.0000  0.0000  1.0000  0.0000  0.0000  0.0000  0.0000  0.2759
   4. Li 1 (py)     0.0000  0.0000  0.0000  1.0000  0.0000  0.0000  0.0000  0.0000
   5. Li 1 (pz)     0.0000  0.0000  0.0000  0.0000  1.0000 -0.0855 -0.4384  0.0000
   6. Li 2 (s)      0.0000  0.0513  0.0000  0.0000 -0.0855  1.0000  0.2411  0.0000
   7. Li 2 (s)      0.0513  0.4417  0.0000  0.0000 -0.4384  0.2411  1.0000  0.0000
   8. Li 2 (px)     0.0000  0.0000  0.2759  0.0000  0.0000  0.0000  0.0000  1.0000
   9. Li 2 (py)     0.0000  0.0000  0.0000  0.2759  0.0000  0.0000  0.0000  0.0000
  10. Li 2 (pz)     0.0855  0.4384  0.0000  0.0000 -0.3204  0.0000  0.0000  0.0000

           AO          9      10
      ------------ ------- -------
   1. Li 1 (s)      0.0000  0.0855
   2. Li 1 (s)      0.0000  0.4384
   3. Li 1 (px)     0.0000  0.0000
   4. Li 1 (py)     0.2759  0.0000
   5. Li 1 (pz)     0.0000 -0.3204
   6. Li 2 (s)      0.0000  0.0000
   7. Li 2 (s)      0.0000  0.0000
   8. Li 2 (px)     0.0000  0.0000
   9. Li 2 (py)     1.0000  0.0000
  10. Li 2 (pz)     0.0000  1.0000


 AO bond-order matrix:

           AO          1       2       3       4       5       6       7       8
      ------------ ------- ------- ------- ------- ------- ------- ------- -------
   1. Li 1 (s)      2.0416 -0.1439  0.0000  0.0000  0.0313  0.0794 -0.2478  0.0000
   2. Li 1 (s)     -0.1439  0.6495  0.0000  0.0000 -0.1164 -0.2478  0.6440  0.0000
   3. Li 1 (px)     0.0000  0.0000  0.0000  0.0000  0.0000  0.0000  0.0000  0.0000
   4. Li 1 (py)     0.0000  0.0000  0.0000  0.0000  0.0000  0.0000  0.0000  0.0000
   5. Li 1 (pz)     0.0313 -0.1164  0.0000  0.0000  0.0209  0.0538 -0.1152  0.0000
   6. Li 2 (s)      0.0794 -0.2478  0.0000  0.0000  0.0538  2.0416 -0.1439  0.0000
   7. Li 2 (s)     -0.2478  0.6440  0.0000  0.0000 -0.1152 -0.1439  0.6495  0.0000
   8. Li 2 (px)     0.0000  0.0000  0.0000  0.0000  0.0000  0.0000  0.0000  0.0000
   9. Li 2 (py)     0.0000  0.0000  0.0000  0.0000  0.0000  0.0000  0.0000  0.0000
  10. Li 2 (pz)    -0.0538  0.1152  0.0000  0.0000 -0.0207 -0.0313  0.1164  0.0000

           AO          9      10
      ------------ ------- -------
   1. Li 1 (s)      0.0000 -0.0538
   2. Li 1 (s)      0.0000  0.1152
   3. Li 1 (px)     0.0000  0.0000
   4. Li 1 (py)     0.0000  0.0000
   5. Li 1 (pz)     0.0000 -0.0207
   6. Li 2 (s)      0.0000 -0.0313
   7. Li 2 (s)      0.0000  0.1164
   8. Li 2 (px)     0.0000  0.0000
   9. Li 2 (py)     0.0000  0.0000
  10. Li 2 (pz)     0.0000  0.0209


 AO density matrix:

           AO          1       2       3       4       5       6       7       8
      ------------ ------- ------- ------- ------- ------- ------- ------- -------
   1. Li 1 (s)      1.9989  0.5060  0.0000  0.0000  0.0222  0.0010  0.0816  0.0000
   2. Li 1 (s)      0.5060  1.4542  0.0000  0.0000 -0.6014  0.0816  1.3640  0.0000
   3. Li 1 (px)     0.0000  0.0000  0.0000  0.0000  0.0000  0.0000  0.0000  0.0000
   4. Li 1 (py)     0.0000  0.0000  0.0000  0.0000  0.0000  0.0000  0.0000  0.0000
   5. Li 1 (pz)     0.0222 -0.6014  0.0000  0.0000  0.2880 -0.1776 -0.6439  0.0000
   6. Li 2 (s)      0.0010  0.0816  0.0000  0.0000 -0.1776  1.9989  0.5060  0.0000
   7. Li 2 (s)      0.0816  1.3640  0.0000  0.0000 -0.6439  0.5060  1.4542  0.0000
   8. Li 2 (px)     0.0000  0.0000  0.0000  0.0000  0.0000  0.0000  0.0000  0.0000
   9. Li 2 (py)     0.0000  0.0000  0.0000  0.0000  0.0000  0.0000  0.0000  0.0000
  10. Li 2 (pz)     0.1776  0.6439  0.0000  0.0000 -0.2680 -0.0222  0.6014  0.0000

           AO          9      10
      ------------ ------- -------
   1. Li 1 (s)      0.0000  0.1776
   2. Li 1 (s)      0.0000  0.6439
   3. Li 1 (px)     0.0000  0.0000
   4. Li 1 (py)     0.0000  0.0000
   5. Li 1 (pz)     0.0000 -0.2680
   6. Li 2 (s)      0.0000 -0.0222
   7. Li 2 (s)      0.0000  0.6014
   8. Li 2 (px)     0.0000  0.0000
   9. Li 2 (py)     0.0000  0.0000
  10. Li 2 (pz)     0.0000  0.2880


 MO density matrix:

      MO     1       2       3       4       5       6       7       8       9
     ---- ------  ------  ------  ------  ------  ------  ------  ------  ------
   1.     2.0000  0.0000  0.0000  0.0000  0.0000  0.0000  0.0000  0.0000  0.0000
   2.     0.0000  2.0000  0.0000  0.0000  0.0000  0.0000  0.0000  0.0000  0.0000
   3.     0.0000  0.0000  2.0000  0.0000  0.0000  0.0000  0.0000  0.0000  0.0000
   4.     0.0000  0.0000  0.0000  0.0000  0.0000  0.0000  0.0000  0.0000  0.0000
   5.     0.0000  0.0000  0.0000  0.0000  0.0000  0.0000  0.0000  0.0000  0.0000
   6.     0.0000  0.0000  0.0000  0.0000  0.0000  0.0000  0.0000  0.0000  0.0000
   7.     0.0000  0.0000  0.0000  0.0000  0.0000  0.0000  0.0000  0.0000  0.0000
   8.     0.0000  0.0000  0.0000  0.0000  0.0000  0.0000  0.0000  0.0000  0.0000
   9.     0.0000  0.0000  0.0000  0.0000  0.0000  0.0000  0.0000  0.0000  0.0000
  10.     0.0000  0.0000  0.0000  0.0000  0.0000  0.0000  0.0000  0.0000  0.0000

      MO    10
     ---- ------
   1.     0.0000
   2.     0.0000
   3.     0.0000
   4.     0.0000
   5.     0.0000
   6.     0.0000
   7.     0.0000
   8.     0.0000
   9.     0.0000
  10.     0.0000


 NATURAL POPULATIONS:  Natural atomic orbital occupancies

  NAO Atom No lang   Type(AO)    Occupancy      Energy
 -------------------------------------------------------
   1   Li  1  s      Cor( 1s)     1.99996      -2.33000
   2   Li  1  s      Val( 2s)     0.97533      -0.01814
   3   Li  1  px     Ryd( 2p)     0.00000       0.18682
   4   Li  1  py     Ryd( 2p)     0.00000       0.18682
   5   Li  1  pz     Ryd( 2p)     0.02471       0.29484

   6   Li  2  s      Cor( 1s)     1.99996      -2.33000
   7   Li  2  s      Val( 2s)     0.97533      -0.01814
   8   Li  2  px     Ryd( 2p)     0.00000       0.18682
   9   Li  2  py     Ryd( 2p)     0.00000       0.18682
  10   Li  2  pz     Ryd( 2p)     0.02471       0.29484


 Summary of Natural Population Analysis:

                                     Natural Population
             Natural    ---------------------------------------------
  Atom No    Charge        Core      Valence    Rydberg      Total
 --------------------------------------------------------------------
   Li  1    0.00000      1.99996     0.97533    0.02471     3.00000
   Li  2    0.00000      1.99996     0.97533    0.02471     3.00000
 ====================================================================
 * Total *  0.00000      3.99991     1.95067    0.04942     6.00000

                                 Natural Population
 ---------------------------------------------------------
   Core                       3.99991 ( 99.9979% of    4)
   Valence                    1.95067 ( 97.5333% of    2)
   Natural Minimal Basis      5.95058 ( 99.1763% of    6)
   Natural Rydberg Basis      0.04942 (  0.8237% of    6)
 ---------------------------------------------------------

    Atom No         Natural Electron Configuration
 ----------------------------------------------------------------------------
     Li  1      [core]2s( 0.98)2p( 0.02)
     Li  2      [core]2s( 0.98)2p( 0.02)


 PNAOs in the AO basis:

           AO          1       2       3       4       5       6       7       8
      ------------ ------- ------- ------- ------- ------- ------- ------- -------
   1. Li 1 (s)      0.9887 -0.2901  0.0000  0.0000  0.0000  0.0000  0.0000  0.0000
   2. Li 1 (s)      0.0431  1.0295  0.0000  0.0000  0.0000  0.0000  0.0000  0.0000
   3. Li 1 (px)     0.0000  0.0000  1.0000  0.0000  0.0000  0.0000  0.0000  0.0000
   4. Li 1 (py)     0.0000  0.0000  0.0000  1.0000  0.0000  0.0000  0.0000  0.0000
   5. Li 1 (pz)     0.0000  0.0000  0.0000  0.0000  1.0000  0.0000  0.0000  0.0000
   6. Li 2 (s)      0.0000  0.0000  0.0000  0.0000  0.0000  0.9887 -0.2901  0.0000
   7. Li 2 (s)      0.0000  0.0000  0.0000  0.0000  0.0000  0.0431  1.0295  0.0000
   8. Li 2 (px)     0.0000  0.0000  0.0000  0.0000  0.0000  0.0000  0.0000  1.0000
   9. Li 2 (py)     0.0000  0.0000  0.0000  0.0000  0.0000  0.0000  0.0000  0.0000
  10. Li 2 (pz)     0.0000  0.0000  0.0000  0.0000  0.0000  0.0000  0.0000  0.0000

           AO          9      10
      ------------ ------- -------
   1. Li 1 (s)      0.0000  0.0000
   2. Li 1 (s)      0.0000  0.0000
   3. Li 1 (px)     0.0000  0.0000
   4. Li 1 (py)     0.0000  0.0000
   5. Li 1 (pz)     0.0000  0.0000
   6. Li 2 (s)      0.0000  0.0000
   7. Li 2 (s)      0.0000  0.0000
   8. Li 2 (px)     0.0000  0.0000
   9. Li 2 (py)     1.0000  0.0000
  10. Li 2 (pz)     0.0000  1.0000


 PNAO overlap matrix:

           NAO         1       2       3       4       5       6       7       8
      ------------ ------- ------- ------- ------- ------- ------- ------- -------
   1. Li 1( 1s )    1.0000  0.0000  0.0000  0.0000  0.0000  0.0052  0.0712  0.0000
   2. Li 1( 2s )    0.0000  1.0000  0.0000  0.0000  0.0000  0.0712  0.4375  0.0000
   3. Li 1( 2px)    0.0000  0.0000  1.0000  0.0000  0.0000  0.0000  0.0000  0.2759
   4. Li 1( 2py)    0.0000  0.0000  0.0000  1.0000  0.0000  0.0000  0.0000  0.0000
   5. Li 1( 2pz)    0.0000  0.0000  0.0000  0.0000  1.0000 -0.1034 -0.4265  0.0000
   6. Li 2( 1s )    0.0052  0.0712  0.0000  0.0000 -0.1034  1.0000  0.0000  0.0000
   7. Li 2( 2s )    0.0712  0.4375  0.0000  0.0000 -0.4265  0.0000  1.0000  0.0000
   8. Li 2( 2px)    0.0000  0.0000  0.2759  0.0000  0.0000  0.0000  0.0000  1.0000
   9. Li 2( 2py)    0.0000  0.0000  0.0000  0.2759  0.0000  0.0000  0.0000  0.0000
  10. Li 2( 2pz)    0.1034  0.4265  0.0000  0.0000 -0.3204  0.0000  0.0000  0.0000

           NAO         9      10
      ------------ ------- -------
   1. Li 1( 1s )    0.0000  0.1034
   2. Li 1( 2s )    0.0000  0.4265
   3. Li 1( 2px)    0.0000  0.0000
   4. Li 1( 2py)    0.2759  0.0000
   5. Li 1( 2pz)    0.0000 -0.3204
   6. Li 2( 1s )    0.0000  0.0000
   7. Li 2( 2s )    0.0000  0.0000
   8. Li 2( 2px)    0.0000  0.0000
   9. Li 2( 2py)    1.0000  0.0000
  10. Li 2( 2pz)    0.0000  1.0000


 PNAO density matrix:

           NAO         1       2       3       4       5       6       7       8
      ------------ ------- ------- ------- ------- ------- ------- ------- -------
   1. Li 1( 1s )    2.0000  0.0000  0.0000  0.0000 -0.0040  0.0104  0.1422  0.0000
   2. Li 1( 2s )    0.0000  1.4073  0.0000  0.0000 -0.6256  0.1422  1.3971  0.0000
   3. Li 1( 2px)    0.0000  0.0000  0.0000  0.0000  0.0000  0.0000  0.0000  0.0000
   4. Li 1( 2py)    0.0000  0.0000  0.0000  0.0000  0.0000  0.0000  0.0000  0.0000
   5. Li 1( 2pz)   -0.0040 -0.6256  0.0000  0.0000  0.2880 -0.2033 -0.6114  0.0000
   6. Li 2( 1s )    0.0104  0.1422  0.0000  0.0000 -0.2033  2.0000  0.0000  0.0000
   7. Li 2( 2s )    0.1422  1.3971  0.0000  0.0000 -0.6114  0.0000  1.4073  0.0000
   8. Li 2( 2px)    0.0000  0.0000  0.0000  0.0000  0.0000  0.0000  0.0000  0.0000
   9. Li 2( 2py)    0.0000  0.0000  0.0000  0.0000  0.0000  0.0000  0.0000  0.0000
  10. Li 2( 2pz)    0.2033  0.6114  0.0000  0.0000 -0.2680  0.0040  0.6256  0.0000

           NAO         9      10
      ------------ ------- -------
   1. Li 1( 1s )    0.0000  0.2033
   2. Li 1( 2s )    0.0000  0.6114
   3. Li 1( 2px)    0.0000  0.0000
   4. Li 1( 2py)    0.0000  0.0000
   5. Li 1( 2pz)    0.0000 -0.2680
   6. Li 2( 1s )    0.0000  0.0040
   7. Li 2( 2s )    0.0000  0.6256
   8. Li 2( 2px)    0.0000  0.0000
   9. Li 2( 2py)    0.0000  0.0000
  10. Li 2( 2pz)    0.0000  0.2880


 NAOs in the AO basis:

           AO          1       2       3       4       5       6       7       8
      ------------ ------- ------- ------- ------- ------- ------- ------- -------
   1. Li 1 (s)      0.9887 -0.2973  0.0000  0.0000  0.0574 -0.0026 -0.0035  0.0000
   2. Li 1 (s)      0.0431  1.1203  0.0000  0.0000 -0.5626 -0.0001 -0.2627  0.0000
   3. Li 1 (px)     0.0000  0.0000  1.0302  0.0000  0.0000  0.0000  0.0000 -0.1449
   4. Li 1 (py)     0.0000  0.0000  0.0000  1.0302  0.0000  0.0000  0.0000  0.0000
   5. Li 1 (pz)     0.0000  0.0000  0.0000  0.0000  1.3280  0.0000  0.0000  0.0000
   6. Li 2 (s)     -0.0026 -0.0035  0.0000  0.0000 -0.0608  0.9887 -0.2973  0.0000
   7. Li 2 (s)     -0.0001 -0.2627  0.0000  0.0000  0.8424  0.0431  1.1203  0.0000
   8. Li 2 (px)     0.0000  0.0000 -0.1449  0.0000  0.0000  0.0000  0.0000  1.0302
   9. Li 2 (py)     0.0000  0.0000  0.0000 -0.1449  0.0000  0.0000  0.0000  0.0000
  10. Li 2 (pz)     0.0000  0.0000  0.0000  0.0000  0.4101  0.0000  0.0000  0.0000

           AO          9      10
      ------------ ------- -------
   1. Li 1 (s)      0.0000  0.0608
   2. Li 1 (s)      0.0000 -0.8424
   3. Li 1 (px)     0.0000  0.0000
   4. Li 1 (py)    -0.1449  0.0000
   5. Li 1 (pz)     0.0000  0.4101
   6. Li 2 (s)      0.0000 -0.0574
   7. Li 2 (s)      0.0000  0.5626
   8. Li 2 (px)     0.0000  0.0000
   9. Li 2 (py)     1.0302  0.0000
  10. Li 2 (pz)     0.0000  1.3280


 NAO density matrix:

           NAO         1       2       3       4       5       6       7       8
      ------------ ------- ------- ------- ------- ------- ------- ------- -------
   1. Li 1( 1s )    2.0000  0.0000  0.0000  0.0000 -0.0068  0.0000 -0.0001  0.0000
   2. Li 1( 2s )    0.0000  0.9753  0.0000  0.0000 -0.1551 -0.0001  0.9753  0.0000
   3. Li 1( 2px)    0.0000  0.0000  0.0000  0.0000  0.0000  0.0000  0.0000  0.0000
   4. Li 1( 2py)    0.0000  0.0000  0.0000  0.0000  0.0000  0.0000  0.0000  0.0000
   5. Li 1( 2pz)   -0.0068 -0.1551  0.0000  0.0000  0.0247  0.0063 -0.1551  0.0000
   6. Li 2( 1s )    0.0000 -0.0001  0.0000  0.0000  0.0063  2.0000  0.0000  0.0000
   7. Li 2( 2s )   -0.0001  0.9753  0.0000  0.0000 -0.1551  0.0000  0.9753  0.0000
   8. Li 2( 2px)    0.0000  0.0000  0.0000  0.0000  0.0000  0.0000  0.0000  0.0000
   9. Li 2( 2py)    0.0000  0.0000  0.0000  0.0000  0.0000  0.0000  0.0000  0.0000
  10. Li 2( 2pz)   -0.0063  0.1551  0.0000  0.0000 -0.0246  0.0068  0.1551  0.0000

           NAO         9      10
      ------------ ------- -------
   1. Li 1( 1s )    0.0000 -0.0063
   2. Li 1( 2s )    0.0000  0.1551
   3. Li 1( 2px)    0.0000  0.0000
   4. Li 1( 2py)    0.0000  0.0000
   5. Li 1( 2pz)    0.0000 -0.0246
   6. Li 2( 1s )    0.0000  0.0068
   7. Li 2( 2s )    0.0000  0.1551
   8. Li 2( 2px)    0.0000  0.0000
   9. Li 2( 2py)    0.0000  0.0000
  10. Li 2( 2pz)    0.0000  0.0247


 NATURAL BOND ORBITAL ANALYSIS:

 Initiate 2-center NBO search using THRESH = 1.900 and PRJTHR = 0.300

 Search of NAO DM block for core orbitals on atom:   1
      Eigenvector ( 1) has occupancy 1.99996
            1.0000 0.0000 0.0000 0.0000 0.0000
        1 eigenvector(s) stashed in permanent list

 Search of NAO DM block for core orbitals on atom:   2
      Eigenvector ( 1) has occupancy 1.99996
            1.0000 0.0000 0.0000 0.0000 0.0000
        1 eigenvector(s) stashed in permanent list

 Core orbitals projected from the NAO density matrix
       2.000 electrons remain (>1.900); search continues

 No NHOs identified in the 1-center search of the NAO density matrix
       2.000 electrons remain (>1.900); search continues

 Search of NAO DM block for the following atom(s):   1   2
      Select eigenvectors with eigenvalue > 1.900
       2.000 0.000 0.000 0.000 0.000 0.000 0.000 0.000 0.000 0.000
      Eigenvector ( 1) has occupancy 2.00000
            0.0000 0.6983 0.0000 0.0000-0.1111 0.0000 0.6983 0.0000
            0.0000 0.1111
      1 hybrid on atom 1 stashed in prospective list
      1 hybrid on atom 2 stashed in prospective list

 Stash prospective hybrids having projection expectation value > 0.300
       1.000 1.000
      0 hybrids eliminated in 1 pass
      2 hybrids moved from prospective to permanent list

 NHOs of 2-center eigenvectors projected from the NAO density matrix
       0.000 electrons remain in the fully projected matrix

 Search of NHO DM block for the following atom(s):   1
      Select eigenvectors with eigenvalue > 1.900
       2.000 0.000 0.000 0.000 0.000
      Eigenvector ( 1) has occupancy 1.99996
            1.0000 0.0000 0.0000 0.0000 0.0000
           NBO accepted:    1. Label:CR ( 1)   1
        1 eigenvector(s) stashed in permanent list

 Search of NHO DM block for the following atom(s):   2
      Select eigenvectors with eigenvalue > 1.900
       2.000 0.000 0.000 0.000 0.000
      Eigenvector ( 1) has occupancy 1.99996
            1.0000 0.0000 0.0000 0.0000 0.0000
           NBO accepted:    2. Label:CR ( 1)   2
        1 eigenvector(s) stashed in permanent list

  1-center NBOs projected from the NHO density matrix
       2.000 electrons remain (>1.900); search continues

 Search of NHO DM block for the following atom(s):   1   2
      Select eigenvectors with eigenvalue > 1.900
       2.000 0.000 0.000 0.000 0.000 0.000 0.000 0.000 0.000 0.000
      Eigenvector ( 1) has occupancy 2.00000
            0.0000 0.7071 0.0000 0.0000 0.0000 0.0000 0.7071 0.0000
            0.0000 0.0000
      Occupancy is 2.000 after deleting minor hybrid components
            0.0000 0.7071 0.0000 0.0000 0.0000 0.0000 0.7071 0.0000
            0.0000 0.0000
           NBO accepted:    3. Label:BD ( 1)   1   2
      Occupancy is 0.000 for antibonding component
            0.0000-0.7071 0.0000 0.0000 0.0000 0.0000 0.7071 0.0000
            0.0000 0.0000
           NBO accepted:    4. Label:BD*( 1)   1   2
        2 eigenvector(s) stashed in permanent list

  2-center NBOs projected from the NHO density matrix
       0.000 electrons remain in the fully projected matrix

                            Occupancies       Lewis Structure    Low   High
         Max    Occ     -------------------  -----------------   occ   occ
  Cycle  Ctr   Thresh    Lewis   non-Lewis     CR  BD  nC  LP    (L)   (NL)
 ============================================================================
    1     2     1.90     5.99991   0.00009      2   1   0   0     0      0
 ----------------------------------------------------------------------------

 Structure accepted: No low occupancy Lewis orbitals

 -------------------------------------------------------
   Core                      3.99991 ( 99.998% of   4)
   Valence Lewis             2.00000 (100.000% of   2)
  ==================      =============================
   Total Lewis               5.99991 ( 99.999% of   6)
  -----------------------------------------------------
   Valence non-Lewis         0.00000 (  0.000% of   6)
   Rydberg non-Lewis         0.00008 (  0.001% of   6)
  ==================      =============================
   Total non-Lewis           0.00009 (  0.001% of   6)
 -------------------------------------------------------


     (Occupancy)   Bond orbital / Coefficients / Hybrids
 ------------------ Lewis ------------------------------------------------------
   1. (1.99996) CR ( 1)Li  1            s(100.00%)
                                         1.0000  0.0000  0.0000  0.0000  0.0000
   2. (1.99996) CR ( 1)Li  2            s(100.00%)
                                         1.0000  0.0000  0.0000  0.0000  0.0000
   3. (2.00000) BD ( 1)Li  1-Li  2
               ( 50.00%)   0.7071*Li  1 s( 97.53%)p 0.03(  2.47%)
                                         0.0000  0.9876  0.0000  0.0000 -0.1571
               ( 50.00%)   0.7071*Li  2 s( 97.53%)p 0.03(  2.47%)
                                         0.0000  0.9876  0.0000  0.0000  0.1571
 ---------------- non-Lewis ----------------------------------------------------
   4. (0.00000) BD*( 1)Li  1-Li  2
               ( 50.00%)   0.7071*Li  1 s( 97.53%)p 0.03(  2.47%)
               ( 50.00%)  -0.7071*Li  2 s( 97.53%)p 0.03(  2.47%)
   5. (0.00004) RY ( 1)Li  1            s(  2.47%)p39.54( 97.53%)
   6. (0.00000) RY ( 2)Li  1            s(  0.00%)p 1.00(100.00%)
   7. (0.00000) RY ( 3)Li  1            s(  0.00%)p 1.00(100.00%)
   8. (0.00004) RY ( 1)Li  2            s(  2.47%)p39.54( 97.53%)
   9. (0.00000) RY ( 2)Li  2            s(  0.00%)p 1.00(100.00%)
  10. (0.00000) RY ( 3)Li  2            s(  0.00%)p 1.00(100.00%)


 NHO DIRECTIONALITY AND BOND BENDING (deviation from line of nuclear centers at
                                      the position of maximum hybrid amplitude)

         [Thresholds for printing:  angular deviation  >  1.0 degree]
                                    p- or d-character  > 25.0%
                                    orbital occupancy  >  0.10e

                        Line of Centers        Hybrid 1             Hybrid 2
                        ---------------  -------------------  ------------------
           NBO            Theta   Phi    Theta   Phi    Dev   Theta   Phi    Dev
 ===============================================================================
    None exceeding thresholds


 SECOND ORDER PERTURBATION THEORY ANALYSIS OF FOCK MATRIX IN NBO BASIS

     Threshold for printing:   0.50 kcal/mol
                                                          E(2) E(NL)-E(L) F(L,NL)
      Donor (L) NBO              Acceptor (NL) NBO      kcal/mol   a.u.    a.u.
 ===============================================================================

 within unit  1
       None above threshold


 NATURAL BOND ORBITALS (Summary):

                                                     Principal Delocalizations
           NBO                 Occupancy    Energy   (geminal,vicinal,remote)
 ===============================================================================
 Molecular unit  1  (Li2)
 ------ Lewis --------------------------------------
    1. CR ( 1)Li  1             1.99996    -2.33000
    2. CR ( 1)Li  2             1.99996    -2.33000
    3. BD ( 1)Li  1-Li  2       2.00000    -0.14959
 ------ non-Lewis ----------------------------------
    4. BD*( 1)Li  1-Li  2       0.00000     0.14240
    5. RY ( 1)Li  1             0.00004     0.28029
    6. RY ( 2)Li  1             0.00000     0.18682
    7. RY ( 3)Li  1             0.00000     0.18682
    8. RY ( 1)Li  2             0.00004     0.28029
    9. RY ( 2)Li  2             0.00000     0.18682
   10. RY ( 3)Li  2             0.00000     0.18682
          -------------------------------
                 Total Lewis    5.99991  ( 99.9986%)
           Valence non-Lewis    0.00000  (  0.0000%)
           Rydberg non-Lewis    0.00008  (  0.0014%)
          -------------------------------
               Total unit  1    6.00000  (100.0000%)
              Charge unit  1    0.00000

 $CHOOSE
   BOND S 1 2 END
 $END

 NBO analysis completed in 0.11 CPU seconds (0 wall seconds)
 Maximum scratch memory used by NBO was 221550 words (1.69 MB)
 Maximum scratch memory used by G16NBO was 8259 words (0.06 MB)

 Opening RunExU unformatted file "/cluster/work/users/beto93/LiLi/Gau-2325357.EUF"
 Read unf file /cluster/work/users/beto93/LiLi/Gau-2325357.EUF:
 Label Gaussian matrix elements                                         IVers= 2 NLab= 2 Version=ES64L-G16RevC.01
 Title NBO-LiLi                                                        
 NAtoms=     2 NBasis=    10 NBsUse=    10 ICharg=     0 Multip=     1 NE=     6 Len12L=8 Len4L=8 IOpCl= 0 ICGU=111
 GAUSSIAN SCALARS                    NI= 1 NR= 1 NTot=       1 LenBuf=    2 NRI=1 N=    1000
 NPA CHARGES                         NI= 0 NR= 1 NTot=       2 LenBuf= 4000 NRI=1 N=       2
 Recovered energy= -14.6387473092     dipole=     -0.000000000000      0.000000000000     -0.000000000000
 Calling FoFJK, ICntrl=      2127 FMM=F ISym2X=1 I1Cent= 0 IOpClX= 0 NMat=1 NMatS=1 NMatT=0.
 ***** Axes restored to original set *****
 -------------------------------------------------------------------
 Center     Atomic                   Forces (Hartrees/Bohr)
 Number     Number              X              Y              Z
 -------------------------------------------------------------------
      1        3           0.000000000    0.000000000   -0.000017831
      2        3          -0.000000000   -0.000000000    0.000017831
 -------------------------------------------------------------------
 Cartesian Forces:  Max     0.000017831 RMS     0.000010295

 GradGradGradGradGradGradGradGradGradGradGradGradGradGradGradGradGradGrad
 Berny optimization.
 FormGI is forming the generalized inverse of G from B-inverse, IUseBI=4.
 Internal  Forces:  Max     0.000017831 RMS     0.000017831
 Search for a local minimum.
 Step number   1 out of a maximum of   20
 All quantities printed in internal units (Hartrees-Bohrs-Radians)
 Mixed Optimization -- En-DIIS/RFO-DIIS
 Second derivative matrix not updated -- first step.
 The second derivative matrix:
                          R1
           R1           0.02690
 ITU=  0
     Eigenvalues ---    0.02690
 RFO step:  Lambda=-1.18209113D-08 EMin= 2.68975622D-02
 Linear search not attempted -- first point.
 Iteration  1 RMS(Cart)=  0.00046876 RMS(Int)=  0.00000000
 Iteration  2 RMS(Cart)=  0.00000000 RMS(Int)=  0.00000000
 ClnCor:  largest displacement from symmetrization is 2.03D-20 for atom     1.
 Variable       Old X    -DE/DX   Delta X   Delta X   Delta X     New X
                                 (Linear)    (Quad)   (Total)
    R1        5.09470   0.00002   0.00000   0.00066   0.00066   5.09536
         Item               Value     Threshold  Converged?
 Maximum Force            0.000018     0.000002     NO 
 RMS     Force            0.000018     0.000001     NO 
 Maximum Displacement     0.000331     0.000006     NO 
 RMS     Displacement     0.000469     0.000004     NO 
 Predicted change in Energy=-5.910458D-09
 GradGradGradGradGradGradGradGradGradGradGradGradGradGradGradGradGradGrad

                          Input orientation:                          
 ---------------------------------------------------------------------
 Center     Atomic      Atomic             Coordinates (Angstroms)
 Number     Number       Type             X           Y           Z
 ---------------------------------------------------------------------
      1          3           0        0.000000    0.000000   -0.000175
      2          3           0        0.000000    0.000000    2.696175
 ---------------------------------------------------------------------
 Stoichiometry    Li2
 Framework group  D*H[C*(Li.Li)]
 Deg. of freedom     1
 Full point group                 D*H     NOp   8
 Largest Abelian subgroup         D2H     NOp   8
 Largest concise Abelian subgroup C2      NOp   2
                         Standard orientation:                         
 ---------------------------------------------------------------------
 Center     Atomic      Atomic             Coordinates (Angstroms)
 Number     Number       Type             X           Y           Z
 ---------------------------------------------------------------------
      1          3           0        0.000000    0.000000    1.348175
      2          3           0        0.000000    0.000000   -1.348175
 ---------------------------------------------------------------------
 Rotational constants (GHZ):           0.0000000          19.8154777          19.8154777
 Standard basis: STO-3G (5D, 7F)
 There are     3 symmetry adapted cartesian basis functions of AG  symmetry.
 There are     0 symmetry adapted cartesian basis functions of B1G symmetry.
 There are     1 symmetry adapted cartesian basis functions of B2G symmetry.
 There are     1 symmetry adapted cartesian basis functions of B3G symmetry.
 There are     0 symmetry adapted cartesian basis functions of AU  symmetry.
 There are     3 symmetry adapted cartesian basis functions of B1U symmetry.
 There are     1 symmetry adapted cartesian basis functions of B2U symmetry.
 There are     1 symmetry adapted cartesian basis functions of B3U symmetry.
 There are     3 symmetry adapted basis functions of AG  symmetry.
 There are     0 symmetry adapted basis functions of B1G symmetry.
 There are     1 symmetry adapted basis functions of B2G symmetry.
 There are     1 symmetry adapted basis functions of B3G symmetry.
 There are     0 symmetry adapted basis functions of AU  symmetry.
 There are     3 symmetry adapted basis functions of B1U symmetry.
 There are     1 symmetry adapted basis functions of B2U symmetry.
 There are     1 symmetry adapted basis functions of B3U symmetry.
    10 basis functions,    30 primitive gaussians,    10 cartesian basis functions
     3 alpha electrons        3 beta electrons
       nuclear repulsion energy         1.7663112987 Hartrees.
 NAtoms=    2 NActive=    2 NUniq=    1 SFac= 4.00D+00 NAtFMM=   60 NAOKFM=F Big=F
 Integral buffers will be    131072 words long.
 Raffenetti 1 integral format.
 Two-electron integral symmetry is turned on.
 One-electron integrals computed using PRISM.
 NBasis=    10 RedAO= T EigKep=  1.67D-01  NBF=     3     0     1     1     0     3     1     1
 NBsUse=    10 1.00D-06 EigRej= -1.00D+00 NBFU=     3     0     1     1     0     3     1     1
 Initial guess from the checkpoint file:  "LiLi.chk"
 B after Tr=     0.000000    0.000000    0.000000
         Rot=    1.000000    0.000000    0.000000    0.000000 Ang=   0.00 deg.
 Initial guess orbital symmetries:
       Occupied  (SGU) (SGG) (SGG)
       Virtual   (SGU) (PIU) (PIU) (SGG) (PIG) (PIG) (SGU)
 Keep R1 ints in memory in symmetry-blocked form, NReq=804782.
 Requested convergence on RMS density matrix=1.00D-08 within 128 cycles.
 Requested convergence on MAX density matrix=1.00D-06.
 Requested convergence on             energy=1.00D-06.
 No special actions if energy rises.
 SCF Done:  E(RHF) =  -14.6387473161     A.U. after    5 cycles
            NFock=  5  Conv=0.55D-09     -V/T= 1.9884
 Calling FoFJK, ICntrl=      2127 FMM=F ISym2X=1 I1Cent= 0 IOpClX= 0 NMat=1 NMatS=1 NMatT=0.
 ***** Axes restored to original set *****
 -------------------------------------------------------------------
 Center     Atomic                   Forces (Hartrees/Bohr)
 Number     Number              X              Y              Z
 -------------------------------------------------------------------
      1        3           0.000000000    0.000000000   -0.000003079
      2        3          -0.000000000   -0.000000000    0.000003079
 -------------------------------------------------------------------
 Cartesian Forces:  Max     0.000003079 RMS     0.000001778

 GradGradGradGradGradGradGradGradGradGradGradGradGradGradGradGradGradGrad
 Berny optimization.
 Using GEDIIS/GDIIS optimizer.
 Internal  Forces:  Max     0.000003079 RMS     0.000003079
 Search for a local minimum.
 Step number   2 out of a maximum of   20
 All quantities printed in internal units (Hartrees-Bohrs-Radians)
 Mixed Optimization -- En-DIIS/RFO-DIIS
 Swapping is turned off.
 Update second derivatives using D2CorX and points    1    2
 DE= -6.93D-09 DEPred=-5.91D-09 R= 1.17D+00
 Trust test= 1.17D+00 RLast= 6.63D-04 DXMaxT set to 3.00D-01
 The second derivative matrix:
                          R1
           R1           0.02225
 ITU=  0  0
     Eigenvalues ---    0.02225
 En-DIIS/RFO-DIIS/Sim-DIIS IScMMF=       -3 using points:     2    1
 RFO step:  Lambda=-4.26124129D-10.
 DidBck=F Rises=F RFO-DIIS coefs:    1.20874   -0.20874
 Iteration  1 RMS(Cart)=  0.00009785 RMS(Int)=  0.00000000
 Iteration  2 RMS(Cart)=  0.00000000 RMS(Int)=  0.00000000
 ClnCor:  largest displacement from symmetrization is 1.78D-15 for atom     2.
 Variable       Old X    -DE/DX   Delta X   Delta X   Delta X     New X
                                 (Linear)    (Quad)   (Total)
    R1        5.09536   0.00000   0.00014   0.00000   0.00014   5.09550
         Item               Value     Threshold  Converged?
 Maximum Force            0.000003     0.000002     NO 
 RMS     Force            0.000003     0.000001     NO 
 Maximum Displacement     0.000069     0.000006     NO 
 RMS     Displacement     0.000098     0.000004     NO 
 Predicted change in Energy=-2.130621D-10
 GradGradGradGradGradGradGradGradGradGradGradGradGradGradGradGradGradGrad

                          Input orientation:                          
 ---------------------------------------------------------------------
 Center     Atomic      Atomic             Coordinates (Angstroms)
 Number     Number       Type             X           Y           Z
 ---------------------------------------------------------------------
      1          3           0        0.000000    0.000000   -0.000212
      2          3           0        0.000000    0.000000    2.696212
 ---------------------------------------------------------------------
 Stoichiometry    Li2
 Framework group  D*H[C*(Li.Li)]
 Deg. of freedom     1
 Full point group                 D*H     NOp   8
 Largest Abelian subgroup         D2H     NOp   8
 Largest concise Abelian subgroup C2      NOp   2
                         Standard orientation:                         
 ---------------------------------------------------------------------
 Center     Atomic      Atomic             Coordinates (Angstroms)
 Number     Number       Type             X           Y           Z
 ---------------------------------------------------------------------
      1          3           0        0.000000    0.000000    1.348212
      2          3           0        0.000000    0.000000   -1.348212
 ---------------------------------------------------------------------
 Rotational constants (GHZ):           0.0000000          19.8144014          19.8144014
 Standard basis: STO-3G (5D, 7F)
 There are     3 symmetry adapted cartesian basis functions of AG  symmetry.
 There are     0 symmetry adapted cartesian basis functions of B1G symmetry.
 There are     1 symmetry adapted cartesian basis functions of B2G symmetry.
 There are     1 symmetry adapted cartesian basis functions of B3G symmetry.
 There are     0 symmetry adapted cartesian basis functions of AU  symmetry.
 There are     3 symmetry adapted cartesian basis functions of B1U symmetry.
 There are     1 symmetry adapted cartesian basis functions of B2U symmetry.
 There are     1 symmetry adapted cartesian basis functions of B3U symmetry.
 There are     3 symmetry adapted basis functions of AG  symmetry.
 There are     0 symmetry adapted basis functions of B1G symmetry.
 There are     1 symmetry adapted basis functions of B2G symmetry.
 There are     1 symmetry adapted basis functions of B3G symmetry.
 There are     0 symmetry adapted basis functions of AU  symmetry.
 There are     3 symmetry adapted basis functions of B1U symmetry.
 There are     1 symmetry adapted basis functions of B2U symmetry.
 There are     1 symmetry adapted basis functions of B3U symmetry.
    10 basis functions,    30 primitive gaussians,    10 cartesian basis functions
     3 alpha electrons        3 beta electrons
       nuclear repulsion energy         1.7662633300 Hartrees.
 NAtoms=    2 NActive=    2 NUniq=    1 SFac= 4.00D+00 NAtFMM=   60 NAOKFM=F Big=F
 Integral buffers will be    131072 words long.
 Raffenetti 1 integral format.
 Two-electron integral symmetry is turned on.
 One-electron integrals computed using PRISM.
 NBasis=    10 RedAO= T EigKep=  1.67D-01  NBF=     3     0     1     1     0     3     1     1
 NBsUse=    10 1.00D-06 EigRej= -1.00D+00 NBFU=     3     0     1     1     0     3     1     1
 Initial guess from the checkpoint file:  "LiLi.chk"
 B after Tr=     0.000000    0.000000   -0.000000
         Rot=    1.000000    0.000000    0.000000    0.000000 Ang=   0.00 deg.
 Initial guess orbital symmetries:
       Occupied  (SGU) (SGG) (SGG)
       Virtual   (SGU) (PIU) (PIU) (SGG) (PIG) (PIG) (SGU)
 Keep R1 ints in memory in symmetry-blocked form, NReq=804782.
 Requested convergence on RMS density matrix=1.00D-08 within 128 cycles.
 Requested convergence on MAX density matrix=1.00D-06.
 Requested convergence on             energy=1.00D-06.
 No special actions if energy rises.
 SCF Done:  E(RHF) =  -14.6387473163     A.U. after    4 cycles
            NFock=  4  Conv=0.35D-08     -V/T= 1.9884
 Calling FoFJK, ICntrl=      2127 FMM=F ISym2X=1 I1Cent= 0 IOpClX= 0 NMat=1 NMatS=1 NMatT=0.
 ***** Axes restored to original set *****
 -------------------------------------------------------------------
 Center     Atomic                   Forces (Hartrees/Bohr)
 Number     Number              X              Y              Z
 -------------------------------------------------------------------
      1        3           0.000000000    0.000000000   -0.000000001
      2        3          -0.000000000   -0.000000000    0.000000001
 -------------------------------------------------------------------
 Cartesian Forces:  Max     0.000000001 RMS     0.000000001

 GradGradGradGradGradGradGradGradGradGradGradGradGradGradGradGradGradGrad
 Berny optimization.
 Using GEDIIS/GDIIS optimizer.
 Internal  Forces:  Max     0.000000001 RMS     0.000000001
 Search for a local minimum.
 Step number   3 out of a maximum of   20
 All quantities printed in internal units (Hartrees-Bohrs-Radians)
 Mixed Optimization -- En-DIIS/RFO-DIIS
 Swapping is turned off.
 Update second derivatives using D2CorX and points    2    3
 DE= -2.13D-10 DEPred=-2.13D-10 R= 1.00D+00
 Trust test= 1.00D+00 RLast= 1.38D-04 DXMaxT set to 3.00D-01
 The second derivative matrix:
                          R1
           R1           0.02224
 ITU=  0  0
     Eigenvalues ---    0.02224
 En-DIIS/RFO-DIIS/Sim-DIIS IScMMF=       -3 using points:     3    2
 RFO step:  Lambda=-5.89805982D-17.
 DIIS inversion failure, remove point   2.
 Use linear search instead of GDIIS.
 RFO step:  Lambda= 0.00000000D+00 EMin= 2.22442622D-02
 Quartic linear search produced a step of  0.00037.
 Iteration  1 RMS(Cart)=  0.00000004 RMS(Int)=  0.00000000
 ClnCor:  largest displacement from symmetrization is 1.58D-24 for atom     2.
 Variable       Old X    -DE/DX   Delta X   Delta X   Delta X     New X
                                 (Linear)    (Quad)   (Total)
    R1        5.09550   0.00000   0.00000  -0.00000   0.00000   5.09550
         Item               Value     Threshold  Converged?
 Maximum Force            0.000000     0.000002     YES
 RMS     Force            0.000000     0.000001     YES
 Maximum Displacement     0.000000     0.000006     YES
 RMS     Displacement     0.000000     0.000004     YES
 Predicted change in Energy=-2.949164D-17
 Optimization completed.
    -- Stationary point found.
                           ----------------------------
                           !   Optimized Parameters   !
                           ! (Angstroms and Degrees)  !
 --------------------------                            --------------------------
 ! Name  Definition              Value          Derivative Info.                !
 --------------------------------------------------------------------------------
 ! R1    R(1,2)                  2.6964         -DE/DX =    0.0                 !
 --------------------------------------------------------------------------------
 GradGradGradGradGradGradGradGradGradGradGradGradGradGradGradGradGradGrad

                          Input orientation:                          
 ---------------------------------------------------------------------
 Center     Atomic      Atomic             Coordinates (Angstroms)
 Number     Number       Type             X           Y           Z
 ---------------------------------------------------------------------
      1          3           0        0.000000    0.000000   -0.000212
      2          3           0        0.000000    0.000000    2.696212
 ---------------------------------------------------------------------
 Stoichiometry    Li2
 Framework group  D*H[C*(Li.Li)]
 Deg. of freedom     1
 Full point group                 D*H     NOp   8
 Largest Abelian subgroup         D2H     NOp   8
 Largest concise Abelian subgroup C2      NOp   2
                         Standard orientation:                         
 ---------------------------------------------------------------------
 Center     Atomic      Atomic             Coordinates (Angstroms)
 Number     Number       Type             X           Y           Z
 ---------------------------------------------------------------------
      1          3           0        0.000000    0.000000    1.348212
      2          3           0        0.000000    0.000000   -1.348212
 ---------------------------------------------------------------------
 Rotational constants (GHZ):           0.0000000          19.8144014          19.8144014

 **********************************************************************

            Population analysis using the SCF Density.

 **********************************************************************

 Orbital symmetries:
       Occupied  (SGU) (SGG) (SGG)
       Virtual   (SGU) (PIU) (PIU) (SGG) (PIG) (PIG) (SGU)
 The electronic state is 1-SGG.
 Alpha  occ. eigenvalues --   -2.33043  -2.33038  -0.14889
 Alpha virt. eigenvalues --    0.08229   0.13427   0.13427   0.15711   0.23935
 Alpha virt. eigenvalues --    0.23935   0.46360
          Condensed to atoms (all electrons):
               1          2
     1  Li   2.642628   0.357372
     2  Li   0.357372   2.642628
 Mulliken charges:
               1
     1  Li  -0.000000
     2  Li  -0.000000
 Sum of Mulliken charges =  -0.00000
 Mulliken charges with hydrogens summed into heavy atoms:
               1
     1  Li  -0.000000
     2  Li  -0.000000
 Electronic spatial extent (au):  <R**2>=             56.1057
 Charge=             -0.0000 electrons
 Dipole moment (field-independent basis, Debye):
    X=              0.0000    Y=             -0.0000    Z=              0.0000  Tot=              0.0000
 Quadrupole moment (field-independent basis, Debye-Ang):
   XX=            -11.7044   YY=            -11.7044   ZZ=              0.3288
   XY=             -0.0000   XZ=             -0.0000   YZ=              0.0000
 Traceless Quadrupole moment (field-independent basis, Debye-Ang):
   XX=             -4.0111   YY=             -4.0111   ZZ=              8.0222
   XY=             -0.0000   XZ=             -0.0000   YZ=              0.0000
 Octapole moment (field-independent basis, Debye-Ang**2):
  XXX=             -0.0000  YYY=             -0.0000  ZZZ=             -0.0000  XYY=             -0.0000
  XXY=              0.0000  XXZ=              0.0000  XZZ=              0.0000  YZZ=             -0.0000
  YYZ=              0.0000  XYZ=              0.0000
 Hexadecapole moment (field-independent basis, Debye-Ang**3):
 XXXX=            -39.9980 YYYY=            -39.9980 ZZZZ=            -63.0224 XXXY=             -0.0000
 XXXZ=              0.0000 YYYX=             -0.0000 YYYZ=              0.0000 ZZZX=              0.0000
 ZZZY=              0.0000 XXYY=            -13.3327 XXZZ=            -22.1872 YYZZ=            -22.1872
 XXYZ=              0.0000 YYXZ=              0.0000 ZZXY=             -0.0000
 N-N= 1.766263329958D+00 E-N=-3.800117312897D+01  KE= 1.481056178842D+01
 Symmetry AG   KE= 7.795503944537D+00
 Symmetry B1G  KE= 0.000000000000D+00
 Symmetry B2G  KE= 9.464094492325D-35
 Symmetry B3G  KE= 9.464094492325D-35
 Symmetry AU   KE= 0.000000000000D+00
 Symmetry B1U  KE= 7.015057843888D+00
 Symmetry B2U  KE= 1.914370029156D-36
 Symmetry B3U  KE= 1.914370029156D-36
 Running external command "gaunbo7 R"
         input file       "/cluster/work/users/beto93/LiLi/Gau-2325357.EIn"
         output file      "/cluster/work/users/beto93/LiLi/Gau-2325357.EOu"
         message file     "/cluster/work/users/beto93/LiLi/Gau-2325357.EMs"
         fchk file        "/cluster/work/users/beto93/LiLi/Gau-2325357.EFC"
         mat. el file     "/cluster/work/users/beto93/LiLi/Gau-2325357.EUF"

 Writing WrtUnf unformatted file "/cluster/work/users/beto93/LiLi/Gau-2325357.EUF"
 Gaussian matrix elements                                         Version   2 NLab=11 Len12L=8 Len4L=8
 Write SHELL TO ATOM MAP                   from file      0 offset           0 length                   4 to matrix element file.
 Write SHELL TYPES                         from file      0 offset           0 length                   4 to matrix element file.
 Write NUMBER OF PRIMITIVES PER SHELL      from file      0 offset           0 length                   4 to matrix element file.
 Write PRIMITIVE EXPONENTS                 from file      0 offset           0 length                  12 to matrix element file.
 Write CONTRACTION COEFFICIENTS            from file      0 offset           0 length                  12 to matrix element file.
 Write P(S=P) CONTRACTION COEFFICIENTS     from file      0 offset           0 length                  12 to matrix element file.
 Write COORDINATES OF EACH SHELL           from file      0 offset           0 length                  12 to matrix element file.
 Write BONDS PER ATOM                      from file      0 offset           0 length                   2 to matrix element file.
 Write BONDED ATOMS                        from file      0 offset           0 length                   2 to matrix element file.
 Write BOND TYPES                          from file      0 offset           0 length                   2 to matrix element file.
 Write ONIOM CHARGE/MULT                   from file      0 offset           0 length                  32 to matrix element file.
 Write ONIOM ATOM LAYERS                   from file      0 offset           0 length                   2 to matrix element file.
 Write ONIOM ATOM MODIFIERS                from file      0 offset           0 length                   2 to matrix element file.
 Write ONIOM ATOM TYPES                    from file      0 offset           0 length                   2 to matrix element file.
 Write ONIOM LINK ATOMS                    from file      0 offset           0 length                   2 to matrix element file.
 Write ONIOM LINK CHARGES                  from file      0 offset           0 length                   2 to matrix element file.
 Write ONIOM LINK DISTANCES                from file      0 offset           0 length                   8 to matrix element file.
 Write SYMINF INTS                         from file      0 offset           0 length                  26 to matrix element file.
 Write ROTTR TO SO                         from file      0 offset           0 length                  12 to matrix element file.
 Write GAUSSIAN SCALARS                    from file    501 offset           0 to matrix element file.
 Write OPTIMIZATION FLAGS                  from file      0 offset           0 length                   2 to matrix element file.
 Write INTEGER ISO                         from file      0 offset           0 length                   2 to matrix element file.
 Write INTEGER SPIN                        from file      0 offset           0 length                   2 to matrix element file.
 Write REAL ZEFFECTIVE                     from file      0 offset           0 length                   2 to matrix element file.
 Write REAL QUADRUPOLEMOMENT               from file      0 offset           0 length                   2 to matrix element file.
 Write REAL GFACTOR                        from file      0 offset           0 length                   2 to matrix element file.
 Write REAL ZNUCLEAR                       from file      0 offset           0 length                   2 to matrix element file.
 Write MULLIKEN CHARGES                    from file      0 offset           0 length                   2 to matrix element file.
 Write NUCLEAR GRADIENT                    from file  10584 offset           0 length                   6 to matrix element file.
 Array NUCLEAR FORCE CONSTANTS              on  file  10585 does not exist.
 Write ELECTRIC DIPOLE MOMENT              from file      0 offset           0 length                   3 to matrix element file.
 Write NON-ADIABATIC COUPLING              from file  10810 offset           0 length                   6 to matrix element file.
 Write TRAJ SCALARS                        from file      0 offset           0 length                  16 to matrix element file.
 Write TRAJ NSTEP                          from file      0 offset           0 length                   1 to matrix element file.
 Write TRAJ RESULTS                        from file      0 offset           0 length                  42 to matrix element file.
 Write RED INT COORD DIMS                  from file      0 offset           0 length                   4 to matrix element file.
 Write RED INT COORD ATOMS                 from file      0 offset           0 length                   4 to matrix element file.
 Write RED INT COORD VALS                  from file      0 offset           0 length                   1 to matrix element file.
 Write RED INT COORD IFLAGS                from file      0 offset           0 length                   1 to matrix element file.
 Write RED INT COORD RFLAGS                from file      0 offset           0 length                   1 to matrix element file.
 Write RED INT COORD CONSTRAINT            from file      0 offset           0 length                   2 to matrix element file.
 Write FINITE EM FIELD                     from file  10521 offset           0 length                  35 to matrix element file.
 Write OVERLAP                             from file  10514 offset           0 length                  55 to matrix element file.
 Write CORE HAMILTONIAN ALPHA              from file  10515 offset           0 length                  55 to matrix element file.
 Write CORE HAMILTONIAN BETA               from file  10515 offset          55 length                  55 to matrix element file.
 Write KINETIC ENERGY                      from file  10516 offset           0 length                  55 to matrix element file.
 Write ORTHOGONAL BASIS                    from file  10685 offset           0 length                 100 to matrix element file.
 Write DIPOLE INTEGRALS                    from file  10518 offset           0 length                 165 to matrix element file.
 Array DIP VEL INTEGRALS                    on  file  10572 does not exist.
 Array R X DEL INTEGRALS                    on  file  10572 does not exist.
 Write ALPHA ORBITAL ENERGIES              from file      0 offset           0 length                  10 to matrix element file.
 Write ALPHA MO COEFFICIENTS               from file  10524 offset           0 length                 100 to matrix element file.
 Write ALPHA DENSITY MATRIX                from file      0 offset           0 length                  55 to matrix element file.
 Write ALPHA FOCK MATRIX                   from file  10536 offset           0 length                  55 to matrix element file.
 Write ENERGY-WEIGHTED DENSITY             from file  10571 offset           0 length                  55 to matrix element file.
 Write ALPHA SCF DENSITY MATRIX            from file      0 offset           0 length                  55 to matrix element file.
 No 2e integrals to process.
 Perform NBO analysis...executing G16NBO...

 *********************************** NBO 7.0 ***********************************
             N A T U R A L   A T O M I C   O R B I T A L   A N D
          N A T U R A L   B O N D   O R B I T A L   A N A L Y S I S
 **************************** Espen Tangen (S101595) ***************************
  (c) Copyright 1996-2021 Board of Regents of the University of Wisconsin System
      on behalf of the Theoretical Chemistry Institute.  All rights reserved.

          Cite this program [NBO 7.0.10 (8-Feb-2021)] as:

          NBO 7.0.  E. D. Glendening, J. K. Badenhoop, A. E. Reed,
          J. E. Carpenter, J. A. Bohmann, C. M. Morales, P. Karafiloglou,
          C. R. Landis, and F. Weinhold, Theoretical Chemistry Institute,
          University of Wisconsin, Madison, WI (2018)

       /NPA    / : Natural Population Analysis
       /AOPNAO / : Print the AO to PNAO transformation
       /AONAO  / : Print the AO to NAO transformation
       /AONO   / : Print the NOs in the AO basis
       /AOMO   / : Print the MOs in the AO basis
       /BOAO   / : Print the AO bond-order matrix
       /DMAO   / : Print the AO density matrix
       /DMPNAO / : Print the PNAO density matrix
       /DMNAO  / : Print the NAO density matrix
       /DMMO   / : Print the MO density matrix
       /SAO    / : Print the AO overlap matrix
       /SPNAO  / : Print the PNAO overlap matrix
       /DETAIL / : Write details of NBO search
       /ARCHIVE/ : Write the archive file to lfn47
       /AOINFO / : Write AO information to lfn31
       /FILE   / : Set to LiLi

 Filename set to LiLi

 Job title: NBO-LiLi


 MOs in the AO basis:

           AO          1       2       3       4       5       6       7       8
      ------------ ------- ------- ------- ------- ------- ------- ------- -------
   1. Li 1 (s)      0.7004  0.7009 -0.1973 -0.1794  0.0000  0.0000 -0.0356  0.0000
   2. Li 1 (s)      0.0371  0.0203  0.5683  0.7012  0.0000  0.0000  0.2906  0.0000
   3. Li 1 (px)     0.0000  0.0000  0.0000  0.0000  0.0000  0.6260  0.0000  0.8309
   4. Li 1 (py)     0.0000  0.0000  0.0000  0.0000  0.6260  0.0000  0.0000  0.0000
   5. Li 1 (pz)    -0.0080  0.0017 -0.1019  0.3046  0.0000  0.0000  0.6409  0.0000
   6. Li 2 (s)     -0.7004  0.7009 -0.1973  0.1794  0.0000  0.0000 -0.0356  0.0000
   7. Li 2 (s)     -0.0371  0.0203  0.5683 -0.7012  0.0000  0.0000  0.2906  0.0000
   8. Li 2 (px)     0.0000  0.0000  0.0000  0.0000  0.0000  0.6260  0.0000 -0.8309
   9. Li 2 (py)     0.0000  0.0000  0.0000  0.0000  0.6260  0.0000  0.0000  0.0000
  10. Li 2 (pz)    -0.0080 -0.0017  0.1019  0.3046  0.0000  0.0000 -0.6409  0.0000

           AO          9      10
      ------------ ------- -------
   1. Li 1 (s)      0.0000 -0.1369
   2. Li 1 (s)      0.0000  1.2042
   3. Li 1 (px)     0.0000  0.0000
   4. Li 1 (py)     0.8309  0.0000
   5. Li 1 (pz)     0.0000 -1.1904
   6. Li 2 (s)      0.0000  0.1369
   7. Li 2 (s)      0.0000 -1.2042
   8. Li 2 (px)     0.0000  0.0000
   9. Li 2 (py)    -0.8309  0.0000
  10. Li 2 (pz)     0.0000 -1.1904


 NOs in the AO basis:

           AO          1       2       3       4       5       6       7       8
      ------------ ------- ------- ------- ------- ------- ------- ------- -------
   1. Li 1 (s)      0.8068 -0.5928 -0.1362 -0.0231  0.0622 -0.0177  0.0524  0.0000
   2. Li 1 (s)      0.0050 -0.0028  0.5698 -0.1592 -0.1750 -0.0029  0.0544  0.0000
   3. Li 1 (px)     0.0000  0.0000  0.0000 -0.5754  0.3051  0.6155 -0.4439  0.2841
   4. Li 1 (py)     0.0000  0.0000  0.0000  0.3146 -0.1356  0.7598  0.5526  0.0398
   5. Li 1 (pz)     0.0041  0.0027 -0.1021  0.0534 -0.9752  0.1636 -0.4962  0.0000
   6. Li 2 (s)      0.5920  0.7890 -0.2188  0.0639 -0.0049  0.0192 -0.0637  0.0000
   7. Li 2 (s)     -0.0064  0.0704  0.5655 -0.1734 -0.2921 -0.0097  0.0378  0.0000
   8. Li 2 (px)     0.0000  0.0000  0.0000  0.0000  0.0000  0.0000  0.0000 -1.0303
[...]
   1.     2.0000  0.0000  0.0000  0.0000  0.0000  0.0000  0.0000  0.0000  0.0000
   2.     0.0000  2.0000  0.0000  0.0000  0.0000  0.0000  0.0000  0.0000  0.0000
   3.     0.0000  0.0000  2.0000  0.0000  0.0000  0.0000  0.0000  0.0000  0.0000
   4.     0.0000  0.0000  0.0000  0.0000  0.0000  0.0000  0.0000  0.0000  0.0000
   5.     0.0000  0.0000  0.0000  0.0000  0.0000  0.0000  0.0000  0.0000  0.0000
   6.     0.0000  0.0000  0.0000  0.0000  0.0000  0.0000  0.0000  0.0000  0.0000
   7.     0.0000  0.0000  0.0000  0.0000  0.0000  0.0000  0.0000  0.0000  0.0000
   8.     0.0000  0.0000  0.0000  0.0000  0.0000  0.0000  0.0000  0.0000  0.0000
   9.     0.0000  0.0000  0.0000  0.0000  0.0000  0.0000  0.0000  0.0000  0.0000
  10.     0.0000  0.0000  0.0000  0.0000  0.0000  0.0000  0.0000  0.0000  0.0000

      MO    10
     ---- ------
   1.     0.0000
   2.     0.0000
   3.     0.0000
   4.     0.0000
   5.     0.0000
   6.     0.0000
   7.     0.0000
   8.     0.0000
   9.     0.0000
  10.     0.0000


 NATURAL POPULATIONS:  Natural atomic orbital occupancies

  NAO Atom No lang   Type(AO)    Occupancy      Energy
 -------------------------------------------------------
   1   Li  1  s      Cor( 1s)     1.99996      -2.33001
   2   Li  1  s      Val( 2s)     0.97533      -0.01814
   3   Li  1  px     Ryd( 2p)     0.00000       0.18681
   4   Li  1  py     Ryd( 2p)     0.00000       0.18681
   5   Li  1  pz     Ryd( 2p)     0.02471       0.29479

   6   Li  2  s      Cor( 1s)     1.99996      -2.33001
   7   Li  2  s      Val( 2s)     0.97533      -0.01814
   8   Li  2  px     Ryd( 2p)     0.00000       0.18681
   9   Li  2  py     Ryd( 2p)     0.00000       0.18681
  10   Li  2  pz     Ryd( 2p)     0.02471       0.29479


 Summary of Natural Population Analysis:

                                     Natural Population
             Natural    ---------------------------------------------
  Atom No    Charge        Core      Valence    Rydberg      Total
 --------------------------------------------------------------------
   Li  1    0.00000      1.99996     0.97533    0.02471     3.00000
   Li  2    0.00000      1.99996     0.97533    0.02471     3.00000
 ====================================================================
 * Total *  0.00000      3.99991     1.95066    0.04943     6.00000

                                 Natural Population
 ---------------------------------------------------------
   Core                       3.99991 ( 99.9979% of    4)
   Valence                    1.95066 ( 97.5329% of    2)
   Natural Minimal Basis      5.95057 ( 99.1762% of    6)
   Natural Rydberg Basis      0.04943 (  0.8238% of    6)
 ---------------------------------------------------------

    Atom No         Natural Electron Configuration
 ----------------------------------------------------------------------------
     Li  1      [core]2s( 0.98)2p( 0.02)
     Li  2      [core]2s( 0.98)2p( 0.02)


 PNAOs in the AO basis:

           AO          1       2       3       4       5       6       7       8
      ------------ ------- ------- ------- ------- ------- ------- ------- -------
   1. Li 1 (s)      0.9887 -0.2901  0.0000  0.0000  0.0000  0.0000  0.0000  0.0000
   2. Li 1 (s)      0.0431  1.0295  0.0000  0.0000  0.0000  0.0000  0.0000  0.0000
   3. Li 1 (px)     0.0000  0.0000  1.0000  0.0000  0.0000  0.0000  0.0000  0.0000
   4. Li 1 (py)     0.0000  0.0000  0.0000  1.0000  0.0000  0.0000  0.0000  0.0000
   5. Li 1 (pz)     0.0000  0.0000  0.0000  0.0000  1.0000  0.0000  0.0000  0.0000
   6. Li 2 (s)      0.0000  0.0000  0.0000  0.0000  0.0000  0.9887 -0.2901  0.0000
   7. Li 2 (s)      0.0000  0.0000  0.0000  0.0000  0.0000  0.0431  1.0295  0.0000
   8. Li 2 (px)     0.0000  0.0000  0.0000  0.0000  0.0000  0.0000  0.0000  1.0000
   9. Li 2 (py)     0.0000  0.0000  0.0000  0.0000  0.0000  0.0000  0.0000  0.0000
  10. Li 2 (pz)     0.0000  0.0000  0.0000  0.0000  0.0000  0.0000  0.0000  0.0000

           AO          9      10
      ------------ ------- -------
   1. Li 1 (s)      0.0000  0.0000
   2. Li 1 (s)      0.0000  0.0000
   3. Li 1 (px)     0.0000  0.0000
   4. Li 1 (py)     0.0000  0.0000
   5. Li 1 (pz)     0.0000  0.0000
   6. Li 2 (s)      0.0000  0.0000
   7. Li 2 (s)      0.0000  0.0000
   8. Li 2 (px)     0.0000  0.0000
   9. Li 2 (py)     1.0000  0.0000
  10. Li 2 (pz)     0.0000  1.0000


 PNAO overlap matrix:

           NAO         1       2       3       4       5       6       7       8
      ------------ ------- ------- ------- ------- ------- ------- ------- -------
   1. Li 1( 1s )    1.0000  0.0000  0.0000  0.0000  0.0000  0.0052  0.0711  0.0000
   2. Li 1( 2s )    0.0000  1.0000  0.0000  0.0000  0.0000  0.0711  0.4374  0.0000
   3. Li 1( 2px)    0.0000  0.0000  1.0000  0.0000  0.0000  0.0000  0.0000  0.2758
   4. Li 1( 2py)    0.0000  0.0000  0.0000  1.0000  0.0000  0.0000  0.0000  0.0000
   5. Li 1( 2pz)    0.0000  0.0000  0.0000  0.0000  1.0000 -0.1034 -0.4265  0.0000
   6. Li 2( 1s )    0.0052  0.0711  0.0000  0.0000 -0.1034  1.0000  0.0000  0.0000
   7. Li 2( 2s )    0.0711  0.4374  0.0000  0.0000 -0.4265  0.0000  1.0000  0.0000
   8. Li 2( 2px)    0.0000  0.0000  0.2758  0.0000  0.0000  0.0000  0.0000  1.0000
   9. Li 2( 2py)    0.0000  0.0000  0.0000  0.2758  0.0000  0.0000  0.0000  0.0000
  10. Li 2( 2pz)    0.1034  0.4265  0.0000  0.0000 -0.3204  0.0000  0.0000  0.0000

           NAO         9      10
      ------------ ------- -------
   1. Li 1( 1s )    0.0000  0.1034
   2. Li 1( 2s )    0.0000  0.4265
   3. Li 1( 2px)    0.0000  0.0000
   4. Li 1( 2py)    0.2758  0.0000
   5. Li 1( 2pz)    0.0000 -0.3204
   6. Li 2( 1s )    0.0000  0.0000
   7. Li 2( 2s )    0.0000  0.0000
   8. Li 2( 2px)    0.0000  0.0000
   9. Li 2( 2py)    1.0000  0.0000
  10. Li 2( 2pz)    0.0000  1.0000


 PNAO density matrix:

           NAO         1       2       3       4       5       6       7       8
      ------------ ------- ------- ------- ------- ------- ------- ------- -------
   1. Li 1( 1s )    2.0000  0.0000  0.0000  0.0000 -0.0040  0.0104  0.1422  0.0000
   2. Li 1( 2s )    0.0000  1.4071  0.0000  0.0000 -0.6256  0.1422  1.3970  0.0000
   3. Li 1( 2px)    0.0000  0.0000  0.0000  0.0000  0.0000  0.0000  0.0000  0.0000
   4. Li 1( 2py)    0.0000  0.0000  0.0000  0.0000  0.0000  0.0000  0.0000  0.0000
   5. Li 1( 2pz)   -0.0040 -0.6256  0.0000  0.0000  0.2880 -0.2032 -0.6113  0.0000
   6. Li 2( 1s )    0.0104  0.1422  0.0000  0.0000 -0.2032  2.0000  0.0000  0.0000
   7. Li 2( 2s )    0.1422  1.3970  0.0000  0.0000 -0.6113  0.0000  1.4071  0.0000
   8. Li 2( 2px)    0.0000  0.0000  0.0000  0.0000  0.0000  0.0000  0.0000  0.0000
   9. Li 2( 2py)    0.0000  0.0000  0.0000  0.0000  0.0000  0.0000  0.0000  0.0000
  10. Li 2( 2pz)    0.2032  0.6113  0.0000  0.0000 -0.2680  0.0040  0.6256  0.0000

           NAO         9      10
      ------------ ------- -------
   1. Li 1( 1s )    0.0000  0.2032
   2. Li 1( 2s )    0.0000  0.6113
   3. Li 1( 2px)    0.0000  0.0000
   4. Li 1( 2py)    0.0000  0.0000
   5. Li 1( 2pz)    0.0000 -0.2680
   6. Li 2( 1s )    0.0000  0.0040
   7. Li 2( 2s )    0.0000  0.6256
   8. Li 2( 2px)    0.0000  0.0000
   9. Li 2( 2py)    0.0000  0.0000
  10. Li 2( 2pz)    0.0000  0.2880


 NAOs in the AO basis:

           AO          1       2       3       4       5       6       7       8
      ------------ ------- ------- ------- ------- ------- ------- ------- -------
   1. Li 1 (s)      0.9887 -0.2973  0.0000  0.0000  0.0574 -0.0026 -0.0035  0.0000
   2. Li 1 (s)      0.0431  1.1203  0.0000  0.0000 -0.5623 -0.0001 -0.2626  0.0000
   3. Li 1 (px)     0.0000  0.0000  1.0302  0.0000  0.0000  0.0000  0.0000 -0.1449
   4. Li 1 (py)     0.0000  0.0000  0.0000  1.0302  0.0000  0.0000  0.0000  0.0000
   5. Li 1 (pz)     0.0000  0.0000  0.0000  0.0000  1.3278  0.0000  0.0000  0.0000
   6. Li 2 (s)     -0.0026 -0.0035  0.0000  0.0000 -0.0608  0.9887 -0.2973  0.0000
   7. Li 2 (s)     -0.0001 -0.2626  0.0000  0.0000  0.8420  0.0431  1.1203  0.0000
   8. Li 2 (px)     0.0000  0.0000 -0.1449  0.0000  0.0000  0.0000  0.0000  1.0302
   9. Li 2 (py)     0.0000  0.0000  0.0000 -0.1449  0.0000  0.0000  0.0000  0.0000
  10. Li 2 (pz)     0.0000  0.0000  0.0000  0.0000  0.4100  0.0000  0.0000  0.0000

           AO          9      10
      ------------ ------- -------
   1. Li 1 (s)      0.0000  0.0608
   2. Li 1 (s)      0.0000 -0.8420
   3. Li 1 (px)     0.0000  0.0000
   4. Li 1 (py)    -0.1449  0.0000
   5. Li 1 (pz)     0.0000  0.4100
   6. Li 2 (s)      0.0000 -0.0574
   7. Li 2 (s)      0.0000  0.5623
   8. Li 2 (px)     0.0000  0.0000
   9. Li 2 (py)     1.0302  0.0000
  10. Li 2 (pz)     0.0000  1.3278


 NAO density matrix:

           NAO         1       2       3       4       5       6       7       8
      ------------ ------- ------- ------- ------- ------- ------- ------- -------
   1. Li 1( 1s )    2.0000  0.0000  0.0000  0.0000 -0.0068  0.0000 -0.0001  0.0000
   2. Li 1( 2s )    0.0000  0.9753  0.0000  0.0000 -0.1551 -0.0001  0.9753  0.0000
   3. Li 1( 2px)    0.0000  0.0000  0.0000  0.0000  0.0000  0.0000  0.0000  0.0000
   4. Li 1( 2py)    0.0000  0.0000  0.0000  0.0000  0.0000  0.0000  0.0000  0.0000
   5. Li 1( 2pz)   -0.0068 -0.1551  0.0000  0.0000  0.0247  0.0063 -0.1551  0.0000
   6. Li 2( 1s )    0.0000 -0.0001  0.0000  0.0000  0.0063  2.0000  0.0000  0.0000
   7. Li 2( 2s )   -0.0001  0.9753  0.0000  0.0000 -0.1551  0.0000  0.9753  0.0000
   8. Li 2( 2px)    0.0000  0.0000  0.0000  0.0000  0.0000  0.0000  0.0000  0.0000
   9. Li 2( 2py)    0.0000  0.0000  0.0000  0.0000  0.0000  0.0000  0.0000  0.0000
  10. Li 2( 2pz)   -0.0063  0.1551  0.0000  0.0000 -0.0246  0.0068  0.1551  0.0000

           NAO         9      10
      ------------ ------- -------
   1. Li 1( 1s )    0.0000 -0.0063
   2. Li 1( 2s )    0.0000  0.1551
   3. Li 1( 2px)    0.0000  0.0000
   4. Li 1( 2py)    0.0000  0.0000
   5. Li 1( 2pz)    0.0000 -0.0246
   6. Li 2( 1s )    0.0000  0.0068
   7. Li 2( 2s )    0.0000  0.1551
   8. Li 2( 2px)    0.0000  0.0000
   9. Li 2( 2py)    0.0000  0.0000
  10. Li 2( 2pz)    0.0000  0.0247


 NATURAL BOND ORBITAL ANALYSIS:

 Initiate 2-center NBO search using THRESH = 1.900 and PRJTHR = 0.300

 Search of NAO DM block for core orbitals on atom:   1
      Eigenvector ( 1) has occupancy 1.99996
            1.0000 0.0000 0.0000 0.0000 0.0000
        1 eigenvector(s) stashed in permanent list

 Search of NAO DM block for core orbitals on atom:   2
      Eigenvector ( 1) has occupancy 1.99996
            1.0000 0.0000 0.0000 0.0000 0.0000
        1 eigenvector(s) stashed in permanent list

 Core orbitals projected from the NAO density matrix
       2.000 electrons remain (>1.900); search continues

 No NHOs identified in the 1-center search of the NAO density matrix
       2.000 electrons remain (>1.900); search continues

 Search of NAO DM block for the following atom(s):   1   2
      Select eigenvectors with eigenvalue > 1.900
       2.000 0.000 0.000 0.000 0.000 0.000 0.000 0.000 0.000 0.000
      Eigenvector ( 1) has occupancy 2.00000
            0.0000 0.6983 0.0000 0.0000-0.1111 0.0000 0.6983 0.0000
            0.0000 0.1111
      1 hybrid on atom 1 stashed in prospective list
      1 hybrid on atom 2 stashed in prospective list

 Stash prospective hybrids having projection expectation value > 0.300
       1.000 1.000
      0 hybrids eliminated in 1 pass
      2 hybrids moved from prospective to permanent list

 NHOs of 2-center eigenvectors projected from the NAO density matrix
       0.000 electrons remain in the fully projected matrix

 Search of NHO DM block for the following atom(s):   1
      Select eigenvectors with eigenvalue > 1.900
       2.000 0.000 0.000 0.000 0.000
      Eigenvector ( 1) has occupancy 1.99996
            1.0000 0.0000 0.0000 0.0000 0.0000
           NBO accepted:    1. Label:CR ( 1)   1
        1 eigenvector(s) stashed in permanent list

 Search of NHO DM block for the following atom(s):   2
      Select eigenvectors with eigenvalue > 1.900
       2.000 0.000 0.000 0.000 0.000
      Eigenvector ( 1) has occupancy 1.99996
            1.0000 0.0000 0.0000 0.0000 0.0000
           NBO accepted:    2. Label:CR ( 1)   2
        1 eigenvector(s) stashed in permanent list

  1-center NBOs projected from the NHO density matrix
       2.000 electrons remain (>1.900); search continues

 Search of NHO DM block for the following atom(s):   1   2
      Select eigenvectors with eigenvalue > 1.900
       2.000 0.000 0.000 0.000 0.000 0.000 0.000 0.000 0.000 0.000
      Eigenvector ( 1) has occupancy 2.00000
            0.0000 0.7071 0.0000 0.0000 0.0000 0.0000 0.7071 0.0000
            0.0000 0.0000
      Occupancy is 2.000 after deleting minor hybrid components
            0.0000 0.7071 0.0000 0.0000 0.0000 0.0000 0.7071 0.0000
            0.0000 0.0000
           NBO accepted:    3. Label:BD ( 1)   1   2
      Occupancy is 0.000 for antibonding component
            0.0000 0.7071 0.0000 0.0000 0.0000 0.0000-0.7071 0.0000
            0.0000 0.0000
           NBO accepted:    4. Label:BD*( 1)   1   2
        2 eigenvector(s) stashed in permanent list

  2-center NBOs projected from the NHO density matrix
       0.000 electrons remain in the fully projected matrix

                            Occupancies       Lewis Structure    Low   High
         Max    Occ     -------------------  -----------------   occ   occ
  Cycle  Ctr   Thresh    Lewis   non-Lewis     CR  BD  nC  LP    (L)   (NL)
 ============================================================================
    1     2     1.90     5.99991   0.00009      2   1   0   0     0      0
 ----------------------------------------------------------------------------

 Structure accepted: No low occupancy Lewis orbitals

 -------------------------------------------------------
   Core                      3.99991 ( 99.998% of   4)
   Valence Lewis             2.00000 (100.000% of   2)
  ==================      =============================
   Total Lewis               5.99991 ( 99.999% of   6)
  -----------------------------------------------------
   Valence non-Lewis         0.00000 (  0.000% of   6)
   Rydberg non-Lewis         0.00008 (  0.001% of   6)
  ==================      =============================
   Total non-Lewis           0.00009 (  0.001% of   6)
 -------------------------------------------------------


     (Occupancy)   Bond orbital / Coefficients / Hybrids
 ------------------ Lewis ------------------------------------------------------
   1. (1.99996) CR ( 1)Li  1            s(100.00%)
                                         1.0000  0.0000  0.0000  0.0000  0.0000
   2. (1.99996) CR ( 1)Li  2            s(100.00%)
                                         1.0000  0.0000  0.0000  0.0000  0.0000
   3. (2.00000) BD ( 1)Li  1-Li  2
               ( 50.00%)   0.7071*Li  1 s( 97.53%)p 0.03(  2.47%)
                                         0.0000  0.9876  0.0000  0.0000 -0.1571
               ( 50.00%)   0.7071*Li  2 s( 97.53%)p 0.03(  2.47%)
                                         0.0000  0.9876  0.0000  0.0000  0.1571
 ---------------- non-Lewis ----------------------------------------------------
   4. (0.00000) BD*( 1)Li  1-Li  2
               ( 50.00%)   0.7071*Li  1 s( 97.53%)p 0.03(  2.47%)
               ( 50.00%)  -0.7071*Li  2 s( 97.53%)p 0.03(  2.47%)
   5. (0.00004) RY ( 1)Li  1            s(  2.47%)p39.53( 97.53%)
   6. (0.00000) RY ( 2)Li  1            s(  0.00%)p 1.00(100.00%)
   7. (0.00000) RY ( 3)Li  1            s(  0.00%)p 1.00(100.00%)
   8. (0.00004) RY ( 1)Li  2            s(  2.47%)p39.53( 97.53%)
   9. (0.00000) RY ( 2)Li  2            s(  0.00%)p 1.00(100.00%)
  10. (0.00000) RY ( 3)Li  2            s(  0.00%)p 1.00(100.00%)


 NHO DIRECTIONALITY AND BOND BENDING (deviation from line of nuclear centers at
                                      the position of maximum hybrid amplitude)

         [Thresholds for printing:  angular deviation  >  1.0 degree]
                                    p- or d-character  > 25.0%
                                    orbital occupancy  >  0.10e

                        Line of Centers        Hybrid 1             Hybrid 2
                        ---------------  -------------------  ------------------
           NBO            Theta   Phi    Theta   Phi    Dev   Theta   Phi    Dev
 ===============================================================================
    None exceeding thresholds


 SECOND ORDER PERTURBATION THEORY ANALYSIS OF FOCK MATRIX IN NBO BASIS

     Threshold for printing:   0.50 kcal/mol
                                                          E(2) E(NL)-E(L) F(L,NL)
      Donor (L) NBO              Acceptor (NL) NBO      kcal/mol   a.u.    a.u.
 ===============================================================================

 within unit  1
       None above threshold


 NATURAL BOND ORBITALS (Summary):

                                                     Principal Delocalizations
           NBO                 Occupancy    Energy   (geminal,vicinal,remote)
 ===============================================================================
 Molecular unit  1  (Li2)
 ------ Lewis --------------------------------------
    1. CR ( 1)Li  1             1.99996    -2.33001
    2. CR ( 1)Li  2             1.99996    -2.33001
    3. BD ( 1)Li  1-Li  2       2.00000    -0.14958
 ------ non-Lewis ----------------------------------
    4. BD*( 1)Li  1-Li  2       0.00000     0.14239
    5. RY ( 1)Li  1             0.00004     0.28025
    6. RY ( 2)Li  1             0.00000     0.18681
    7. RY ( 3)Li  1             0.00000     0.18681
    8. RY ( 1)Li  2             0.00004     0.28025
    9. RY ( 2)Li  2             0.00000     0.18681
   10. RY ( 3)Li  2             0.00000     0.18681
          -------------------------------
                 Total Lewis    5.99991  ( 99.9986%)
           Valence non-Lewis    0.00000  (  0.0000%)
           Rydberg non-Lewis    0.00008  (  0.0014%)
          -------------------------------
               Total unit  1    6.00000  (100.0000%)
              Charge unit  1    0.00000

 $CHOOSE
   BOND S 1 2 END
 $END

 NBO analysis completed in 0.12 CPU seconds (0 wall seconds)
 Maximum scratch memory used by NBO was 221550 words (1.69 MB)
 Maximum scratch memory used by G16NBO was 8259 words (0.06 MB)

 Opening RunExU unformatted file "/cluster/work/users/beto93/LiLi/Gau-2325357.EUF"
 Read unf file /cluster/work/users/beto93/LiLi/Gau-2325357.EUF:
 Label Gaussian matrix elements                                         IVers= 2 NLab= 2 Version=ES64L-G16RevC.01
 Title NBO-LiLi                                                        
 NAtoms=     2 NBasis=    10 NBsUse=    10 ICharg=     0 Multip=     1 NE=     6 Len12L=8 Len4L=8 IOpCl= 0 ICGU=111
 GAUSSIAN SCALARS                    NI= 1 NR= 1 NTot=       1 LenBuf=    2 NRI=1 N=    1000
 NPA CHARGES                         NI= 0 NR= 1 NTot=       2 LenBuf= 4000 NRI=1 N=       2
 Recovered energy= -14.6387473163     dipole=      0.000000000000     -0.000000000000      0.000000000000
 Unable to Open any file for archive entry.
 1\1\GINC-C1-4\FOpt\RHF\STO-3G\Li2\BETO93\24-Jul-2024\0\\#OPT=VeryTight
  Int=UltraFine RHF/STO-3G Pop=NBO7Read\\NBO-LiLi\\0,1\Li,0.,0.,-0.0002
 120184\Li,0.,0.,2.6962120184\\Version=ES64L-G16RevC.01\State=1-SGG\HF=
 -14.6387473\RMSD=3.524e-09\RMSF=6.613e-10\Dipole=0.,0.,0.\Quadrupole=-
 2.9821397,-2.9821397,5.9642794,0.,0.,0.\PG=D*H [C*(Li1.Li1)]\\@
 The archive entry for this job was punched.


 THERE'S A SUCKER BORN EVERY MINUTE

              -- PHINEAS TAYLOR (P.T.) BARNUM
 Job cpu time:       0 days  0 hours  0 minutes 25.6 seconds.
 Elapsed time:       0 days  0 hours  0 minutes  8.5 seconds.
 File lengths (MBytes):  RWF=     10 Int=      0 D2E=      0 Chk=      1 Scr=      1
 Normal termination of Gaussian 16 at Wed Jul 24 10:54:14 2024.
