 Entering Gaussian System, Link 0=g16
 Initial command:
 /cluster/software/Gaussian/g16_C.01/l1.exe "/cluster/work/users/beto93/CH3F/Gau-2337965.inp" -scrdir="/cluster/work/users/beto93/CH3F/"
 Entering Link 1 = /cluster/software/Gaussian/g16_C.01/l1.exe PID=   2337966.
  
 Copyright (c) 1988-2019, Gaussian, Inc.  All Rights Reserved.
  
 This is part of the Gaussian(R) 16 program.  It is based on
 the Gaussian(R) 09 system (copyright 2009, Gaussian, Inc.),
 the Gaussian(R) 03 system (copyright 2003, Gaussian, Inc.),
 the Gaussian(R) 98 system (copyright 1998, Gaussian, Inc.),
 the Gaussian(R) 94 system (copyright 1995, Gaussian, Inc.),
 the Gaussian 92(TM) system (copyright 1992, Gaussian, Inc.),
 the Gaussian 90(TM) system (copyright 1990, Gaussian, Inc.),
 the Gaussian 88(TM) system (copyright 1988, Gaussian, Inc.),
 the Gaussian 86(TM) system (copyright 1986, Carnegie Mellon
 University), and the Gaussian 82(TM) system (copyright 1983,
 Carnegie Mellon University). Gaussian is a federally registered
 trademark of Gaussian, Inc.
  
 This software contains proprietary and confidential information,
 including trade secrets, belonging to Gaussian, Inc.
  
 This software is provided under written license and may be
 used, copied, transmitted, or stored only in accord with that
 written license.
  
 The following legend is applicable only to US Government
 contracts under FAR:
  
                    RESTRICTED RIGHTS LEGEND
  
 Use, reproduction and disclosure by the US Government is
 subject to restrictions as set forth in subparagraphs (a)
 and (c) of the Commercial Computer Software - Restricted
 Rights clause in FAR 52.227-19.
  
 Gaussian, Inc.
 340 Quinnipiac St., Bldg. 40, Wallingford CT 06492
  
  
 ---------------------------------------------------------------
 Warning -- This program may not be used in any manner that
 competes with the business of Gaussian, Inc. or will provide
 assistance to any competitor of Gaussian, Inc.  The licensee
 of this program is prohibited from giving any competitor of
 Gaussian, Inc. access to this program.  By using this program,
 the user acknowledges that Gaussian, Inc. is engaged in the
 business of creating and licensing software in the field of
 computational chemistry and represents and warrants to the
 licensee that it is not a competitor of Gaussian, Inc. and that
 it will not use this program in any manner prohibited above.
 ---------------------------------------------------------------
  

 Cite this work as:
 Gaussian 16, Revision C.01,
 M. J. Frisch, G. W. Trucks, H. B. Schlegel, G. E. Scuseria, 
 M. A. Robb, J. R. Cheeseman, G. Scalmani, V. Barone, 
 G. A. Petersson, H. Nakatsuji, X. Li, M. Caricato, A. V. Marenich, 
 J. Bloino, B. G. Janesko, R. Gomperts, B. Mennucci, H. P. Hratchian, 
 J. V. Ortiz, A. F. Izmaylov, J. L. Sonnenberg, D. Williams-Young, 
 F. Ding, F. Lipparini, F. Egidi, J. Goings, B. Peng, A. Petrone, 
 T. Henderson, D. Ranasinghe, V. G. Zakrzewski, J. Gao, N. Rega, 
 G. Zheng, W. Liang, M. Hada, M. Ehara, K. Toyota, R. Fukuda, 
 J. Hasegawa, M. Ishida, T. Nakajima, Y. Honda, O. Kitao, H. Nakai, 
 T. Vreven, K. Throssell, J. A. Montgomery, Jr., J. E. Peralta, 
 F. Ogliaro, M. J. Bearpark, J. J. Heyd, E. N. Brothers, K. N. Kudin, 
 V. N. Staroverov, T. A. Keith, R. Kobayashi, J. Normand, 
 K. Raghavachari, A. P. Rendell, J. C. Burant, S. S. Iyengar, 
 J. Tomasi, M. Cossi, J. M. Millam, M. Klene, C. Adamo, R. Cammi, 
 J. W. Ochterski, R. L. Martin, K. Morokuma, O. Farkas, 
 J. B. Foresman, and D. J. Fox, Gaussian, Inc., Wallingford CT, 2019.
 
 ******************************************
 Gaussian 16:  ES64L-G16RevC.01  3-Jul-2019
                24-Jul-2024 
 ******************************************
 %LindaWorkers=c1-4-ib
 %NProcShared=4
 Will use up to    4 processors via shared memory.
 %mem=25GB
 %chk=a.chk
 SetLPE:    new flags="-opt 'Tsnet.Node.lindarsharg: ssh'  -nodelist 'c1-4-ib.saga' -env GAUSS_MDEF=3355443200 -env GAUSS_EXEDIR="/cluster/software/Gaussian/g16_C.01/bsd:/cluster/software/Gaussian/g16_C.01""
 Will use up to    1 processors via Linda.
 -----------------------
 #RHF/4-31G Pop=NBO7Read
 -----------------------
 1/38=1,163=2,172=1/1;
 2/12=2,17=6,18=5,40=1/2;
 3/5=1,11=1,25=1,30=1,116=1/1,2,3;
 4//1;
 5/5=2,38=5/2;
 6/7=2,8=2,9=2,10=2,28=1,40=2,113=1,114=1,124=2103/1,12;
 99/5=1,9=1/99;
 -----
 NBO-a
 -----
 Symbolic Z-matrix:
 Charge =  0 Multiplicity = 1
 C                    -0.00886   0.01534  -0.00626 
 H                     0.00199  -0.00344   1.09006 
 H                     1.02838  -0.00344  -0.36148 
 H                    -0.51121  -0.89232  -0.36148 
 F                    -0.66115   1.14515  -0.4675 
 
                          Input orientation:                          
 ---------------------------------------------------------------------
 Center     Atomic      Atomic             Coordinates (Angstroms)
 Number     Number       Type             X           Y           Z
 ---------------------------------------------------------------------
      1          6           0       -0.008857    0.015341   -0.006262
      2          1           0        0.001985   -0.003442    1.090060
      3          1           0        1.028381   -0.003442   -0.361478
      4          1           0       -0.511210   -0.892323   -0.361480
      5          9           0       -0.661148    1.145146   -0.467503
 ---------------------------------------------------------------------
                    Distance matrix (angstroms):
                    1          2          3          4          5
     1  C    0.000000
     2  H    1.096536   0.000000
     3  H    1.096537   1.777766   0.000000
     4  H    1.096537   1.777765   1.777765   0.000000
     5  F    1.383722   2.045728   2.045728   2.045728   0.000000
 Stoichiometry    CH3F
 Framework group  C3V[C3(CF),3SGV(H)]
 Deg. of freedom     3
 Full point group                 C3V     NOp   6
 Largest Abelian subgroup         CS      NOp   2
 Largest concise Abelian subgroup CS      NOp   2
                         Standard orientation:                         
 ---------------------------------------------------------------------
 Center     Atomic      Atomic             Coordinates (Angstroms)
 Number     Number       Type             X           Y           Z
 ---------------------------------------------------------------------
      1          6           0       -0.000000    0.000000   -0.627546
      2          1           0       -0.000000    1.026393   -1.013434
      3          1           0       -0.888882   -0.513197   -1.013434
      4          1           0        0.888882   -0.513197   -1.013434
      5          9           0        0.000000   -0.000000    0.756176
 ---------------------------------------------------------------------
 Rotational constants (GHZ):         158.6658144          25.4357465          25.4357465
 Standard basis: 4-31G (6D, 7F)
 There are    18 symmetry adapted cartesian basis functions of A'  symmetry.
 There are     6 symmetry adapted cartesian basis functions of A"  symmetry.
 There are    18 symmetry adapted basis functions of A'  symmetry.
 There are     6 symmetry adapted basis functions of A"  symmetry.
    24 basis functions,    52 primitive gaussians,    24 cartesian basis functions
     9 alpha electrons        9 beta electrons
       nuclear repulsion energy        37.2150512893 Hartrees.
 NAtoms=    5 NActive=    5 NUniq=    3 SFac= 2.78D+00 NAtFMM=   60 NAOKFM=F Big=F
 Integral buffers will be    131072 words long.
 Raffenetti 1 integral format.
 Two-electron integral symmetry is turned on.
 One-electron integrals computed using PRISM.
 NBasis=    24 RedAO= T EigKep=  2.46D-02  NBF=    18     6
 NBsUse=    24 1.00D-06 EigRej= -1.00D+00 NBFU=    18     6
 ExpMin= 1.61D-01 ExpMax= 1.13D+03 ExpMxC= 1.13D+03 IAcc=3 IRadAn=         5 AccDes= 0.00D+00
 Harris functional with IExCor=  205 and IRadAn=       5 diagonalized for initial guess.
 HarFok:  IExCor=  205 AccDes= 0.00D+00 IRadAn=         5 IDoV= 1 UseB2=F ITyADJ=14
 ICtDFT=  3500011 ScaDFX=  1.000000  1.000000  1.000000  1.000000
 FoFCou: FMM=F IPFlag=           0 FMFlag=      100000 FMFlg1=           0
         NFxFlg=           0 DoJE=T BraDBF=F KetDBF=T FulRan=T
         wScrn=  0.000000 ICntrl=       500 IOpCl=  0 I1Cent=   200000004 NGrid=           0
         NMat0=    1 NMatS0=      1 NMatT0=    0 NMatD0=    1 NMtDS0=    0 NMtDT0=    0
 Petite list used in FoFCou.
 Initial guess orbital symmetries:
       Occupied  (A1) (A1) (A1) (A1) (A1) (E) (E) (E) (E)
       Virtual   (A1) (A1) (E) (E) (A1) (E) (E) (A1) (E) (E) (A1)
                 (E) (E) (A1) (A1)
 The electronic state of the initial guess is 1-A1.
 Keep R1 ints in memory in symmetry-blocked form, NReq=854332.
 Requested convergence on RMS density matrix=1.00D-08 within 128 cycles.
 Requested convergence on MAX density matrix=1.00D-06.
 Requested convergence on             energy=1.00D-06.
 No special actions if energy rises.
 SCF Done:  E(RHF) =  -138.856865007     A.U. after   10 cycles
            NFock= 10  Conv=0.13D-08     -V/T= 1.9999

 **********************************************************************

            Population analysis using the SCF Density.

 **********************************************************************

 Orbital symmetries:
       Occupied  (A1) (A1) (A1) (A1) (E) (E) (A1) (E) (E)
       Virtual   (A1) (E) (E) (A1) (E) (E) (A1) (E) (E) (A1) (A1)
                 (E) (E) (A1) (A1)
 The electronic state is 1-A1.
 Alpha  occ. eigenvalues --  -26.21848 -11.29253  -1.57621  -0.95699  -0.68661
 Alpha  occ. eigenvalues --   -0.68661  -0.65679  -0.52420  -0.52420
 Alpha virt. eigenvalues --    0.24292   0.30686   0.30686   0.31416   0.84295
 Alpha virt. eigenvalues --    0.84295   0.84609   1.15866   1.15866   1.16316
 Alpha virt. eigenvalues --    1.38562   1.70311   1.70311   1.73477   2.51177
          Condensed to atoms (all electrons):
               1          2          3          4          5
     1  C    4.765314   0.373886   0.373886   0.373886   0.141771
     2  H    0.373886   0.571760  -0.038303  -0.038303  -0.029481
     3  H    0.373886  -0.038303   0.571760  -0.038303  -0.029481
     4  H    0.373886  -0.038303  -0.038303   0.571760  -0.029481
     5  F    0.141771  -0.029481  -0.029481  -0.029481   9.399253
 Mulliken charges:
               1
     1  C   -0.028744
     2  H    0.160441
     3  H    0.160441
     4  H    0.160441
     5  F   -0.452581
 Sum of Mulliken charges =   0.00000
 Mulliken charges with hydrogens summed into heavy atoms:
               1
     1  C    0.452581
     5  F   -0.452581
 Electronic spatial extent (au):  <R**2>=             75.8278
 Charge=              0.0000 electrons
 Dipole moment (field-independent basis, Debye):
    X=             -0.0000    Y=             -0.0000    Z=             -2.5023  Tot=              2.5023
 Quadrupole moment (field-independent basis, Debye-Ang):
   XX=            -11.7576   YY=            -11.7576   ZZ=            -12.4284
   XY=              0.0000   XZ=              0.0000   YZ=              0.0000
 Traceless Quadrupole moment (field-independent basis, Debye-Ang):
   XX=              0.2236   YY=              0.2236   ZZ=             -0.4472
   XY=              0.0000   XZ=              0.0000   YZ=              0.0000
 Octapole moment (field-independent basis, Debye-Ang**2):
  XXX=             -0.0000  YYY=              0.4979  ZZZ=              3.3442  XYY=             -0.0000
  XXY=             -0.4979  XXZ=              1.2877  XZZ=             -0.0000  YZZ=             -0.0000
  YYZ=              1.2877  XYZ=             -0.0000
 Hexadecapole moment (field-independent basis, Debye-Ang**3):
 XXXX=            -16.0850 YYYY=            -16.0850 ZZZZ=            -50.2255 XXXY=              0.0000
 XXXZ=             -0.0000 YYYX=              0.0000 YYYZ=             -0.6021 ZZZX=             -0.0000
 ZZZY=              0.0000 XXYY=             -5.3617 XXZZ=            -10.7758 YYZZ=            -10.7758
 XXYZ=              0.6021 YYXZ=             -0.0000 ZZXY=              0.0000
 N-N= 3.721505128928D+01 E-N=-4.047743825612D+02  KE= 1.388757935248D+02
 Symmetry A'   KE= 1.304625332328D+02
 Symmetry A"   KE= 8.413260292009D+00
 Running external command "gaunbo7 R"
         input file       "/cluster/work/users/beto93/CH3F/Gau-2337966.EIn"
         output file      "/cluster/work/users/beto93/CH3F/Gau-2337966.EOu"
         message file     "/cluster/work/users/beto93/CH3F/Gau-2337966.EMs"
         fchk file        "/cluster/work/users/beto93/CH3F/Gau-2337966.EFC"
         mat. el file     "/cluster/work/users/beto93/CH3F/Gau-2337966.EUF"

 Writing WrtUnf unformatted file "/cluster/work/users/beto93/CH3F/Gau-2337966.EUF"
 Gaussian matrix elements                                         Version   2 NLab=11 Len12L=8 Len4L=8
 Write SHELL TO ATOM MAP                   from file      0 offset           0 length                  12 to matrix element file.
 Write SHELL TYPES                         from file      0 offset           0 length                  12 to matrix element file.
 Write NUMBER OF PRIMITIVES PER SHELL      from file      0 offset           0 length                  12 to matrix element file.
 Write PRIMITIVE EXPONENTS                 from file      0 offset           0 length                  28 to matrix element file.
 Write CONTRACTION COEFFICIENTS            from file      0 offset           0 length                  28 to matrix element file.
 Write P(S=P) CONTRACTION COEFFICIENTS     from file      0 offset           0 length                  28 to matrix element file.
 Write COORDINATES OF EACH SHELL           from file      0 offset           0 length                  36 to matrix element file.
 Write BONDS PER ATOM                      from file      0 offset           0 length                   5 to matrix element file.
 Write BONDED ATOMS                        from file      0 offset           0 length                   8 to matrix element file.
 Write BOND TYPES                          from file      0 offset           0 length                   8 to matrix element file.
 Write ONIOM CHARGE/MULT                   from file      0 offset           0 length                  32 to matrix element file.
 Write ONIOM ATOM LAYERS                   from file      0 offset           0 length                   5 to matrix element file.
 Write ONIOM ATOM MODIFIERS                from file      0 offset           0 length                   5 to matrix element file.
 Write ONIOM ATOM TYPES                    from file      0 offset           0 length                   5 to matrix element file.
 Write ONIOM LINK ATOMS                    from file      0 offset           0 length                   5 to matrix element file.
 Write ONIOM LINK CHARGES                  from file      0 offset           0 length                   5 to matrix element file.
 Write ONIOM LINK DISTANCES                from file      0 offset           0 length                  20 to matrix element file.
 Write SYMINF INTS                         from file      0 offset           0 length                  26 to matrix element file.
 Write ROTTR TO SO                         from file      0 offset           0 length                  12 to matrix element file.
 Write GAUSSIAN SCALARS                    from file    501 offset           0 to matrix element file.
 Write OPTIMIZATION FLAGS                  from file      0 offset           0 length                   5 to matrix element file.
 Write INTEGER ISO                         from file      0 offset           0 length                   5 to matrix element file.
 Write INTEGER SPIN                        from file      0 offset           0 length                   5 to matrix element file.
 Write REAL ZEFFECTIVE                     from file      0 offset           0 length                   5 to matrix element file.
 Write REAL GFACTOR                        from file      0 offset           0 length                   5 to matrix element file.
 Write REAL ZNUCLEAR                       from file      0 offset           0 length                   5 to matrix element file.
 Write MULLIKEN CHARGES                    from file      0 offset           0 length                   5 to matrix element file.
 Write NUCLEAR GRADIENT                    from file  10584 offset           0 length                  15 to matrix element file.
 Array NUCLEAR FORCE CONSTANTS              on  file  10585 does not exist.
 Write ELECTRIC DIPOLE MOMENT              from file      0 offset           0 length                   3 to matrix element file.
 Write NON-ADIABATIC COUPLING              from file  10810 offset           0 length                  15 to matrix element file.
 Write FINITE EM FIELD                     from file  10521 offset           0 length                  35 to matrix element file.
 Write OVERLAP                             from file  10514 offset           0 length                 300 to matrix element file.
 Write CORE HAMILTONIAN ALPHA              from file  10515 offset           0 length                 300 to matrix element file.
 Write CORE HAMILTONIAN BETA               from file  10515 offset         300 length                 300 to matrix element file.
 Write KINETIC ENERGY                      from file  10516 offset           0 length                 300 to matrix element file.
 Write ORTHOGONAL BASIS                    from file  10685 offset           0 length                 576 to matrix element file.
 Write DIPOLE INTEGRALS                    from file  10518 offset           0 length                 900 to matrix element file.
 Array DIP VEL INTEGRALS                    on  file  10572 does not exist.
 Array R X DEL INTEGRALS                    on  file  10572 does not exist.
 Write ALPHA ORBITAL ENERGIES              from file      0 offset           0 length                  24 to matrix element file.
 Write ALPHA MO COEFFICIENTS               from file  10524 offset           0 length                 576 to matrix element file.
 Write ALPHA DENSITY MATRIX                from file      0 offset           0 length                 300 to matrix element file.
 Write ALPHA FOCK MATRIX                   from file  10536 offset           0 length                 300 to matrix element file.
 Write ENERGY-WEIGHTED DENSITY             from file  10571 offset           0 length                 300 to matrix element file.
 Write ALPHA SCF DENSITY MATRIX            from file      0 offset           0 length                 300 to matrix element file.
 No 2e integrals to process.
 Perform NBO analysis...executing G16NBO...

 *********************************** NBO 7.0 ***********************************
             N A T U R A L   A T O M I C   O R B I T A L   A N D
          N A T U R A L   B O N D   O R B I T A L   A N A L Y S I S
 **************************** Espen Tangen (S101595) ***************************
  (c) Copyright 1996-2021 Board of Regents of the University of Wisconsin System
      on behalf of the Theoretical Chemistry Institute.  All rights reserved.

          Cite this program [NBO 7.0.10 (8-Feb-2021)] as:

          NBO 7.0.  E. D. Glendening, J. K. Badenhoop, A. E. Reed,
          J. E. Carpenter, J. A. Bohmann, C. M. Morales, P. Karafiloglou,
          C. R. Landis, and F. Weinhold, Theoretical Chemistry Institute,
          University of Wisconsin, Madison, WI (2018)

       /NPA    / : Natural Population Analysis
       /AOPNAO / : Print the AO to PNAO transformation
       /AONAO  / : Print the AO to NAO transformation
       /AONO   / : Print the NOs in the AO basis
       /AOMO   / : Print the MOs in the AO basis
       /BOAO   / : Print the AO bond-order matrix
       /DMAO   / : Print the AO density matrix
       /DMPNAO / : Print the PNAO density matrix
       /DMNAO  / : Print the NAO density matrix
       /DMMO   / : Print the MO density matrix
       /SAO    / : Print the AO overlap matrix
       /SPNAO  / : Print the PNAO overlap matrix
       /DETAIL / : Write details of NBO search
       /ARCHIVE/ : Write the archive file to lfn47
       /AOINFO / : Write AO information to lfn31
       /FILE   / : Set to inpGenNbo

 Filename set to inpGenNbo

 Job title: NBO-a


 MOs in the AO basis:

           AO          1       2       3       4       5       6       7       8
      ------------ ------- ------- ------- ------- ------- ------- ------- -------
   1.  C 1 (s)     -0.0003  0.9934 -0.0541 -0.1849  0.0000  0.0000 -0.0122  0.0000
   2.  C 1 (s)     -0.0016  0.0568  0.0942  0.3197  0.0000  0.0000  0.0008  0.0000
   3.  C 1 (px)     0.0000  0.0000  0.0000  0.0000  0.0000  0.2812  0.0000  0.0000
   4.  C 1 (py)     0.0000  0.0000  0.0000  0.0000  0.2812  0.0000  0.0000 -0.3367
   5.  C 1 (pz)     0.0012  0.0006  0.0803 -0.0581  0.0000  0.0000 -0.3206  0.0000
   6.  C 1 (s)      0.0106 -0.0367  0.0242  0.4134  0.0000  0.0000  0.1033  0.0000
   7.  C 1 (px)     0.0000  0.0000  0.0000  0.0000  0.0000  0.1833  0.0000  0.0000
   8.  C 1 (py)     0.0000  0.0000  0.0000  0.0000  0.1833  0.0000  0.0000 -0.1485
   9.  C 1 (pz)     0.0049  0.0032 -0.0172 -0.0507  0.0000  0.0000 -0.1008  0.0000
  10.  H 2 (s)     -0.0009 -0.0008  0.0146  0.1420  0.1516  0.0000  0.0829 -0.2547
  11.  H 2 (s)     -0.0007  0.0077  0.0004  0.0294  0.0846  0.0000  0.0545 -0.2318
  12.  H 3 (s)     -0.0009 -0.0008  0.0146  0.1420 -0.0758 -0.1313  0.0829  0.1273
  13.  H 3 (s)     -0.0007  0.0077  0.0004  0.0294 -0.0423 -0.0732  0.0545  0.1159
  14.  H 4 (s)     -0.0009 -0.0008  0.0146  0.1420 -0.0758  0.1313  0.0829  0.1273
  15.  H 4 (s)     -0.0007  0.0077  0.0004  0.0294 -0.0423  0.0732  0.0545  0.1159
  16.  F 5 (s)      0.9911  0.0000 -0.2264  0.0633  0.0000  0.0000 -0.0369  0.0000
  17.  F 5 (s)      0.0507  0.0002  0.4493 -0.1282  0.0000  0.0000  0.0867  0.0000
  18.  F 5 (px)     0.0000  0.0000  0.0000  0.0000  0.0000  0.4855  0.0000  0.0000
  19.  F 5 (py)     0.0000  0.0000  0.0000  0.0000  0.4855  0.0000  0.0000  0.4298
  20.  F 5 (pz)    -0.0023 -0.0002 -0.0706 -0.1805  0.0000  0.0000  0.4998  0.0000
  21.  F 5 (s)     -0.0226  0.0016  0.5768 -0.2264  0.0000  0.0000  0.1195  0.0000
  22.  F 5 (px)     0.0000  0.0000  0.0000  0.0000  0.0000  0.3470  0.0000  0.0000
  23.  F 5 (py)     0.0000  0.0000  0.0000  0.0000  0.3470  0.0000  0.0000  0.3604
  24.  F 5 (pz)     0.0057  0.0014 -0.0670 -0.1049  0.0000  0.0000  0.3904  0.0000

           AO          9      10      11      12      13      14      15      16
      ------------ ------- ------- ------- ------- ------- ------- ------- -------
   1.  C 1 (s)      0.0000 -0.1366  0.0000  0.0000 -0.0982  0.0000  0.0000  0.0395
   2.  C 1 (s)      0.0000  0.0683  0.0000  0.0000  0.0938  0.0000  0.0000 -0.3756
   3.  C 1 (px)    -0.3367  0.0000  0.0000  0.3543  0.0000  0.0000 -0.7163  0.0000
   4.  C 1 (py)     0.0000  0.0000 -0.3543  0.0000  0.0000 -0.7163  0.0000  0.0000
   5.  C 1 (pz)     0.0000 -0.1607  0.0000  0.0000  0.2620  0.0000  0.0000 -1.0632
   6.  C 1 (s)      0.0000  2.1241  0.0000  0.0000  0.9584  0.0000  0.0000  0.1742
   7.  C 1 (px)    -0.1485  0.0000  0.0000  1.3254  0.0000  0.0000  1.6347  0.0000
   8.  C 1 (py)     0.0000  0.0000 -1.3254  0.0000  0.0000  1.6347  0.0000  0.0000
   9.  C 1 (pz)     0.0000 -0.6539  0.0000  0.0000  1.1431  0.0000  0.0000  1.1898
  10.  H 2 (s)      0.0000 -0.0133  0.0549  0.0000  0.0369 -0.6205  0.0000  0.1214
  11.  H 2 (s)      0.0000 -1.0870  1.7663  0.0000 -0.1271 -0.2801  0.0000  0.0496
  12.  H 3 (s)      0.2205 -0.0133 -0.0275  0.0476  0.0369  0.3103  0.5374  0.1214
  13.  H 3 (s)      0.2007 -1.0870 -0.8831  1.5296 -0.1271  0.1400  0.2425  0.0496
  14.  H 4 (s)     -0.2205 -0.0133 -0.0275 -0.0476  0.0369  0.3103 -0.5374  0.1214
  15.  H 4 (s)     -0.2007 -1.0870 -0.8831 -1.5296 -0.1271  0.1400 -0.2425  0.0496
  16.  F 5 (s)      0.0000 -0.0090  0.0000  0.0000  0.0780  0.0000  0.0000 -0.0118
  17.  F 5 (s)      0.0000  0.0158  0.0000  0.0000 -0.0891  0.0000  0.0000  0.1209
  18.  F 5 (px)     0.4298  0.0000  0.0000 -0.0830  0.0000  0.0000 -0.1666  0.0000
  19.  F 5 (py)     0.0000  0.0000  0.0830  0.0000  0.0000 -0.1666  0.0000  0.0000
  20.  F 5 (pz)     0.0000  0.0178  0.0000  0.0000  0.3010  0.0000  0.0000 -0.3204
  21.  F 5 (s)      0.0000  0.0841  0.0000  0.0000 -0.9133  0.0000  0.0000 -0.5047
  22.  F 5 (px)     0.3604  0.0000  0.0000 -0.1708  0.0000  0.0000 -0.1631  0.0000
  23.  F 5 (py)     0.0000  0.0000  0.1708  0.0000  0.0000 -0.1631  0.0000  0.0000
  24.  F 5 (pz)     0.0000  0.0116  0.0000  0.0000  0.6175  0.0000  0.0000  0.0274

           AO         17      18      19      20      21      22      23      24
      ------------ ------- ------- ------- ------- ------- ------- ------- -------
   1.  C 1 (s)      0.0000  0.0000  0.0941 -0.0861  0.0000  0.0000  0.0274  0.0788
   2.  C 1 (s)      0.0000  0.0000 -0.3375 -2.1443  0.0000  0.0000  0.5814  0.3084
   3.  C 1 (px)     0.0000 -0.9209  0.0000  0.0000  0.0000  0.0177  0.0000  0.0000
   4.  C 1 (py)     0.9209  0.0000  0.0000  0.0000  0.0177  0.0000  0.0000  0.0000
   5.  C 1 (pz)     0.0000  0.0000  0.3825  0.2618  0.0000  0.0000  0.2306 -0.3653
   6.  C 1 (s)      0.0000  0.0000  0.1454  4.3762  0.0000  0.0000 -0.5804 -1.9867
   7.  C 1 (px)     0.0000  1.1206  0.0000  0.0000  0.0000 -0.6168  0.0000  0.0000
   8.  C 1 (py)    -1.1206  0.0000  0.0000  0.0000 -0.6168  0.0000  0.0000  0.0000
   9.  C 1 (pz)     0.0000  0.0000 -0.1262 -0.5832  0.0000  0.0000 -0.0425 -0.5069
  10.  H 2 (s)     -0.8818  0.0000  0.7606 -0.2019  0.2379  0.0000  0.0200  0.2429
  11.  H 2 (s)      1.4417  0.0000 -0.4337 -0.9552  0.1311  0.0000  0.1233  0.1828
  12.  H 3 (s)      0.4409 -0.7636  0.7606 -0.2019 -0.1189 -0.2060  0.0200  0.2429
  13.  H 3 (s)     -0.7209  1.2486 -0.4337 -0.9552 -0.0656 -0.1135  0.1233  0.1828
  14.  H 4 (s)      0.4409  0.7636  0.7606 -0.2019 -0.1189  0.2060  0.0200  0.2429
  15.  H 4 (s)     -0.7209 -1.2486 -0.4337 -0.9552 -0.0656  0.1135  0.1233  0.1828
  16.  F 5 (s)      0.0000  0.0000 -0.0249  0.0404  0.0000  0.0000  0.0539  0.0607
  17.  F 5 (s)      0.0000  0.0000  0.1845 -0.2646  0.0000  0.0000 -0.5956 -1.5830
  18.  F 5 (px)     0.0000  0.1000  0.0000  0.0000  0.0000 -0.9488  0.0000  0.0000
  19.  F 5 (py)    -0.1000  0.0000  0.0000  0.0000 -0.9488  0.0000  0.0000  0.0000
  20.  F 5 (pz)     0.0000  0.0000 -0.0618 -0.0970  0.0000  0.0000 -0.8489  0.4600
  21.  F 5 (s)      0.0000  0.0000 -0.0521 -0.2000  0.0000  0.0000  0.5909  2.4029
  22.  F 5 (px)     0.0000 -0.1441  0.0000  0.0000  0.0000  1.1895  0.0000  0.0000
  23.  F 5 (py)     0.1441  0.0000  0.0000  0.0000  1.1895  0.0000  0.0000  0.0000
  24.  F 5 (pz)     0.0000  0.0000  0.0066  0.3197  0.0000  0.0000  1.0386 -1.1689


 NOs in the AO basis:

           AO          1       2       3       4       5       6       7       8
      ------------ ------- ------- ------- ------- ------- ------- ------- -------
   1.  C 1 (s)     -0.1566  0.9663  0.0098 -0.2437 -0.0080  0.0777 -0.0088  0.0023
   2.  C 1 (s)     -0.0214  0.0740 -0.0684  0.3098 -0.0220 -0.0820  0.0064  0.0075
   3.  C 1 (px)    -0.0091 -0.0007 -0.1353  0.0251  0.2747  0.1352 -0.0417 -0.2571
   4.  C 1 (py)    -0.0004 -0.0011  0.0508 -0.0256 -0.0736 -0.0563 -0.2585  0.0462
   5.  C 1 (pz)     0.0204  0.0008  0.0577  0.0440 -0.1410  0.2935  0.0111 -0.0148
   6.  C 1 (s)      0.0078 -0.0079 -0.0474  0.3663  0.0519 -0.2100  0.0044  0.0104
   7.  C 1 (px)    -0.0055 -0.0002 -0.0637  0.0115  0.1234  0.0588 -0.0276 -0.1717
   8.  C 1 (py)    -0.0008 -0.0009  0.0244 -0.0098 -0.0338 -0.0236 -0.1724  0.0295
   9.  C 1 (pz)     0.0166  0.0040  0.0508 -0.0228 -0.0262  0.0944  0.0026 -0.0067
  10.  H 2 (s)     -0.0092  0.0060 -0.0030  0.0922 -0.0252 -0.1528 -0.1356  0.0320
  11.  H 2 (s)     -0.0063  0.0080  0.0106 -0.0080 -0.0297 -0.0942 -0.0721  0.0183
  12.  H 3 (s)     -0.0051  0.0072  0.0273  0.1074 -0.1217 -0.1764  0.0865  0.1101
  13.  H 3 (s)     -0.0045  0.0087  0.0377  0.0082 -0.1176 -0.1146  0.0440  0.0562
  14.  H 4 (s)     -0.0144  0.0062 -0.1428  0.1396  0.2340  0.0022  0.0484 -0.1226
  15.  H 4 (s)     -0.0108  0.0077 -0.1108  0.0368  0.2026  0.0492  0.0236 -0.0645
  16.  F 5 (s)      0.9997  0.1711  0.0143  0.0087  0.0596 -0.0748 -0.0174 -0.0197
  17.  F 5 (s)     -0.0344 -0.0300 -0.4151 -0.0850 -0.2087  0.0507 -0.0055  0.0212
  18.  F 5 (px)    -0.0090  0.0020  0.1156 -0.0262 -0.3181 -0.1844 -0.0778 -0.5027
  19.  F 5 (py)    -0.0082 -0.0038 -0.0373  0.0537  0.0746  0.0891 -0.5019  0.0711
  20.  F 5 (pz)    -0.0451 -0.0239 -0.1435 -0.3164  0.1713 -0.3626 -0.0226  0.0226
  21.  F 5 (s)     -0.1309 -0.0556 -0.5217 -0.1669 -0.2663  0.0816 -0.0069  0.0278
  22.  F 5 (px)    -0.0061  0.0016  0.1010 -0.0224 -0.2690 -0.1537 -0.0559 -0.3624
  23.  F 5 (py)    -0.0063 -0.0028 -0.0332  0.0435  0.0639  0.0735 -0.3617  0.0504
  24.  F 5 (pz)    -0.0257 -0.0126 -0.1027 -0.2151  0.1422 -0.2971 -0.0171  0.0175

           AO          9      10      11      12      13      14      15      16
      ------------ ------- ------- ------- ------- ------- ------- ------- -------
   1.  C 1 (s)     -0.0129  0.0267  0.1020 -0.0352 -0.0493 -0.0308  0.0752 -0.0006
   2.  C 1 (s)      0.0196 -0.3896 -0.9771 -0.0798 -0.7447  0.3593  1.2220 -0.1098
   3.  C 1 (px)     0.1091  0.3058 -0.1773 -0.0392 -0.1194  0.2354  0.2980  0.1816
   4.  C 1 (py)     0.3342 -0.8544  0.0759  0.3397  0.5585 -0.2457  0.2647 -0.1070
   5.  C 1 (pz)     0.0237  0.3678 -0.6915  0.3776  0.1539 -0.6770 -0.3035  0.1497
   6.  C 1 (s)      0.0133  0.2409  0.1113  0.7381  1.9441 -0.3019 -3.1669  0.8682
   7.  C 1 (px)     0.0500 -0.0674  0.3193  0.2820  0.6050 -0.0031 -0.9836  0.2326
   8.  C 1 (py)     0.1505  0.3377  0.3012 -0.4791 -1.7812  0.0309 -0.9927  0.3184
   9.  C 1 (pz)     0.0037 -0.3673  0.0035 -1.2654 -0.0883 -0.0176  0.4056  0.1333
  10.  H 2 (s)      0.2511  0.0416 -0.1172  0.0684 -0.4517  0.1312 -0.2145  0.3483
  11.  H 2 (s)      0.2218  0.4562 -0.0129 -0.4780  1.4768 -0.0976  1.9585 -0.6792
  12.  H 3 (s)     -0.1928 -0.0152  0.2984 -0.0816  0.1300 -0.0284  0.3895  1.1645
  13.  H 3 (s)     -0.1764 -0.0107  0.1088 -0.3273 -0.9063 -0.0254 -0.7500 -1.0105
  14.  H 4 (s)     -0.0534 -0.2639  0.0535 -0.5202  0.2852  0.2305 -0.3156 -0.1818
  15.  H 4 (s)     -0.0526 -0.0959  0.1811 -0.2446 -2.0466 -0.7818  1.5307  0.0143
  16.  F 5 (s)     -0.0101 -0.0223 -0.0442 -0.0649  0.0118 -0.0447 -0.0190  0.0005
  17.  F 5 (s)      0.0119  0.2984  0.0243  0.5237  0.0779  0.1568  0.0023  0.1179
  18.  F 5 (px)    -0.1114 -0.0080  0.1068 -0.0817  0.0197 -0.0043 -0.0100  0.0010
  19.  F 5 (py)    -0.3815 -0.0045  0.1964  0.0843 -0.0220  0.0609  0.0027 -0.0287
  20.  F 5 (pz)    -0.0465 -0.0730 -0.1982  0.0266 -0.0701  0.4673  0.0629 -0.1224
  21.  F 5 (s)      0.0122 -0.2280  0.2581  0.0119 -0.3923  0.1762  0.3438 -0.2939
  22.  F 5 (px)    -0.0954 -0.0137 -0.1866  0.0057 -0.1120  0.0152  0.1162 -0.1606
  23.  F 5 (py)    -0.3231  0.0016 -0.3017  0.0115  0.2558 -0.0583  0.1391 -0.0338
  24.  F 5 (pz)    -0.0353  0.0864 -0.5445 -0.2209  0.2984 -0.9079 -0.3440  0.3080

           AO         17      18      19      20      21      22      23      24
      ------------ ------- ------- ------- ------- ------- ------- ------- -------
   1.  C 1 (s)     -0.0390 -0.0682 -0.1279  0.0362  0.0409  0.0323  0.0676  0.0241
   2.  C 1 (s)     -0.5168  0.4143 -1.1788  0.2028 -0.0258  0.3255 -0.1157 -0.0904
   3.  C 1 (px)     0.6247  0.0954  0.3051  0.6304  0.4649 -0.0354  0.1922  0.1576
   4.  C 1 (py)     0.1193 -0.1295 -0.0302  0.2626  0.2601 -0.0712 -0.0154  0.0898
   5.  C 1 (pz)    -0.2408 -0.2112  0.0199  0.1970  0.1497 -0.2196  0.1009 -0.2262
   6.  C 1 (s)      0.8258  0.4708  3.4807 -0.4014 -0.4991 -0.2327 -0.4041 -0.0236
   7.  C 1 (px)    -0.0493  0.0783 -1.6308 -0.5328 -0.5408 -0.1087 -1.1073 -0.0948
   8.  C 1 (py)    -0.4390  0.6994  0.0837  0.0669  0.3805 -0.5746 -0.2651 -0.3625
   9.  C 1 (pz)     0.0599 -0.3547  0.1802  0.0376  0.1362  0.6311 -1.1213  0.0264
  10.  H 2 (s)      0.1881 -0.8386 -0.2698 -0.0024 -0.2914  0.6679  0.3976  0.0893
  11.  H 2 (s)     -0.2459 -0.1603 -0.7714 -0.0434  0.0793  0.1199 -0.1231  0.0072
  12.  H 3 (s)     -0.0822 -0.0660 -0.2863  0.1204  0.2681 -0.3190  0.1109 -0.0482
  13.  H 3 (s)      0.0554 -0.0877 -1.9351  0.2022  0.3561  0.2171 -1.0673  0.0947
  14.  H 4 (s)     -0.8357 -0.2327 -0.2279  0.3123  0.3720  0.0620  0.5107 -0.0430
  15.  H 4 (s)      0.0332 -0.2075  0.5368  0.0843  0.1615 -0.1229  0.1276 -0.0355
  16.  F 5 (s)      0.0544  0.0152 -0.0079 -0.0234 -0.0154 -0.0241  0.0289 -0.0229
  17.  F 5 (s)     -0.6661 -0.2459  0.6501  0.3482  0.2346  0.4856 -1.1017  0.1624
  18.  F 5 (px)    -0.0309 -0.0592 -0.0495  0.6087 -0.6792 -0.2655 -0.1137 -0.0643
  19.  F 5 (py)     0.0825  0.0817  0.0083  0.1056  0.1026  0.2177  0.0024 -0.9008
  20.  F 5 (pz)     0.0950 -0.5444 -0.0093 -0.2357  0.0777 -0.6586 -0.0370 -0.2218
  21.  F 5 (s)      0.5052  0.3375 -1.3910 -0.3362 -0.2482 -0.7521  1.9238 -0.0898
  22.  F 5 (px)    -0.0476  0.0333  0.3375 -0.5897  0.8325  0.3449  0.3475  0.0809
  23.  F 5 (py)     0.0428 -0.2741 -0.0240 -0.1614 -0.2510 -0.0590  0.0538  1.0668
  24.  F 5 (pz)    -0.1096  0.5317  0.4680  0.2990 -0.0588  0.7554 -0.5216  0.0326


 AO overlap matrix:

           AO          1       2       3       4       5       6       7       8
      ------------ ------- ------- ------- ------- ------- ------- ------- -------
   1.  C 1 (s)      1.0000  0.1903  0.0000  0.0000  0.0000  0.1846  0.0000  0.0000
   2.  C 1 (s)      0.1903  1.0000  0.0000  0.0000  0.0000  0.8114  0.0000  0.0000
   3.  C 1 (px)     0.0000  0.0000  1.0000  0.0000  0.0000  0.0000  0.5686  0.0000
   4.  C 1 (py)     0.0000  0.0000  0.0000  1.0000  0.0000  0.0000  0.0000  0.5686
   5.  C 1 (pz)     0.0000  0.0000  0.0000  0.0000  1.0000  0.0000  0.0000  0.0000
   6.  C 1 (s)      0.1846  0.8114  0.0000  0.0000  0.0000  1.0000  0.0000  0.0000
   7.  C 1 (px)     0.0000  0.0000  0.5686  0.0000  0.0000  0.0000  1.0000  0.0000
   8.  C 1 (py)     0.0000  0.0000  0.0000  0.5686  0.0000  0.0000  0.0000  1.0000
   9.  C 1 (pz)     0.0000  0.0000  0.0000  0.0000  0.5686  0.0000  0.0000  0.0000
  10.  H 2 (s)      0.0293  0.2555  0.0000  0.3217 -0.1210  0.3733  0.0000  0.4926
  11.  H 2 (s)      0.0861  0.4525  0.0000  0.2305 -0.0867  0.6895  0.0000  0.5360
  12.  H 3 (s)      0.0293  0.2555 -0.2786 -0.1609 -0.1210  0.3733 -0.4266 -0.2463
  13.  H 3 (s)      0.0861  0.4525 -0.1996 -0.1153 -0.0867  0.6895 -0.4642 -0.2680
  14.  H 4 (s)      0.0293  0.2555  0.2786 -0.1609 -0.1210  0.3733  0.4266 -0.2463
  15.  H 4 (s)      0.0861  0.4525  0.1996 -0.1153 -0.0867  0.6895  0.4642 -0.2680
  16.  F 5 (s)      0.0000  0.0054  0.0000  0.0000  0.0134  0.0291  0.0000  0.0000
  17.  F 5 (s)      0.0004  0.0625  0.0000  0.0000  0.1174  0.1790  0.0000  0.0000
  18.  F 5 (px)     0.0000  0.0000  0.0276  0.0000  0.0000  0.0000  0.0872  0.0000
  19.  F 5 (py)     0.0000  0.0000  0.0000  0.0276  0.0000  0.0000  0.0000  0.0872
  20.  F 5 (pz)    -0.0012 -0.0831  0.0000  0.0000 -0.1389 -0.0977  0.0000  0.0000
  21.  F 5 (s)      0.0275  0.2159  0.0000  0.0000  0.2584  0.3932  0.0000  0.0000
  22.  F 5 (px)     0.0000  0.0000  0.1618  0.0000  0.0000  0.0000  0.3697  0.0000
  23.  F 5 (py)     0.0000  0.0000  0.0000  0.1618  0.0000  0.0000  0.0000  0.3697
  24.  F 5 (pz)    -0.0821 -0.4120  0.0000  0.0000 -0.3671 -0.4142  0.0000  0.0000

           AO          9      10      11      12      13      14      15      16
      ------------ ------- ------- ------- ------- ------- ------- ------- -------
   1.  C 1 (s)      0.0000  0.0293  0.0861  0.0293  0.0861  0.0293  0.0861  0.0000
   2.  C 1 (s)      0.0000  0.2555  0.4525  0.2555  0.4525  0.2555  0.4525  0.0054
   3.  C 1 (px)     0.0000  0.0000  0.0000 -0.2786 -0.1996  0.2786  0.1996  0.0000
   4.  C 1 (py)     0.0000  0.3217  0.2305 -0.1609 -0.1153 -0.1609 -0.1153  0.0000
   5.  C 1 (pz)     0.5686 -0.1210 -0.0867 -0.1210 -0.0867 -0.1210 -0.0867  0.0134
   6.  C 1 (s)      0.0000  0.3733  0.6895  0.3733  0.6895  0.3733  0.6895  0.0291
   7.  C 1 (px)     0.0000  0.0000  0.0000 -0.4266 -0.4642  0.4266  0.4642  0.0000
   8.  C 1 (py)     0.0000  0.4926  0.5360 -0.2463 -0.2680 -0.2463 -0.2680  0.0000
   9.  C 1 (pz)     1.0000 -0.1852 -0.2015 -0.1852 -0.2015 -0.1852 -0.2015  0.0642
  10.  H 2 (s)     -0.1852  1.0000  0.6583  0.0186  0.1497  0.0186  0.1497  0.0000
  11.  H 2 (s)     -0.2015  0.6583  1.0000  0.1497  0.4025  0.1497  0.4025  0.0084
  12.  H 3 (s)     -0.1852  0.0186  0.1497  1.0000  0.6583  0.0186  0.1497  0.0000
  13.  H 3 (s)     -0.2015  0.1497  0.4025  0.6583  1.0000  0.1497  0.4025  0.0084
  14.  H 4 (s)     -0.1852  0.0186  0.1497  0.0186  0.1497  1.0000  0.6583  0.0000
  15.  H 4 (s)     -0.2015  0.1497  0.4025  0.1497  0.4025  0.6583  1.0000  0.0084
  16.  F 5 (s)      0.0642  0.0000  0.0084  0.0000  0.0084  0.0000  0.0084  1.0000
  17.  F 5 (s)      0.3521  0.0011  0.0583  0.0011  0.0583  0.0011  0.0583  0.2239
  18.  F 5 (px)     0.0000  0.0000  0.0000 -0.0010 -0.0179  0.0010  0.0179  0.0000
  19.  F 5 (py)     0.0000  0.0011  0.0207 -0.0005 -0.0104 -0.0005 -0.0104  0.0000
  20.  F 5 (pz)    -0.1082 -0.0019 -0.0357 -0.0019 -0.0357 -0.0019 -0.0357  0.0000
  21.  F 5 (s)      0.5904  0.0237  0.1635  0.0237  0.1635  0.0237  0.1635  0.1667
  22.  F 5 (px)     0.0000  0.0000  0.0000 -0.0311 -0.1013  0.0311  0.1013  0.0000
  23.  F 5 (py)     0.0000  0.0360  0.1169 -0.0180 -0.0585 -0.0180 -0.0585  0.0000
  24.  F 5 (pz)    -0.2522 -0.0620 -0.2016 -0.0620 -0.2016 -0.0620 -0.2016  0.0000

           AO         17      18      19      20      21      22      23      24
      ------------ ------- ------- ------- ------- ------- ------- ------- -------
   1.  C 1 (s)      0.0004  0.0000  0.0000 -0.0012  0.0275  0.0000  0.0000 -0.0821
   2.  C 1 (s)      0.0625  0.0000  0.0000 -0.0831  0.2159  0.0000  0.0000 -0.4120
   3.  C 1 (px)     0.0000  0.0276  0.0000  0.0000  0.0000  0.1618  0.0000  0.0000
   4.  C 1 (py)     0.0000  0.0000  0.0276  0.0000  0.0000  0.0000  0.1618  0.0000
   5.  C 1 (pz)     0.1174  0.0000  0.0000 -0.1389  0.2584  0.0000  0.0000 -0.3671
   6.  C 1 (s)      0.1790  0.0000  0.0000 -0.0977  0.3932  0.0000  0.0000 -0.4142
   7.  C 1 (px)     0.0000  0.0872  0.0000  0.0000  0.0000  0.3697  0.0000  0.0000
   8.  C 1 (py)     0.0000  0.0000  0.0872  0.0000  0.0000  0.0000  0.3697  0.0000
   9.  C 1 (pz)     0.3521  0.0000  0.0000 -0.1082  0.5904  0.0000  0.0000 -0.2522
  10.  H 2 (s)      0.0011  0.0000  0.0011 -0.0019  0.0237  0.0000  0.0360 -0.0620
  11.  H 2 (s)      0.0583  0.0000  0.0207 -0.0357  0.1635  0.0000  0.1169 -0.2016
  12.  H 3 (s)      0.0011 -0.0010 -0.0005 -0.0019  0.0237 -0.0311 -0.0180 -0.0620
  13.  H 3 (s)      0.0583 -0.0179 -0.0104 -0.0357  0.1635 -0.1013 -0.0585 -0.2016
  14.  H 4 (s)      0.0011  0.0010 -0.0005 -0.0019  0.0237  0.0311 -0.0180 -0.0620
  15.  H 4 (s)      0.0583  0.0179 -0.0104 -0.0357  0.1635  0.1013 -0.0585 -0.2016
  16.  F 5 (s)      0.2239  0.0000  0.0000  0.0000  0.1667  0.0000  0.0000  0.0000
  17.  F 5 (s)      1.0000  0.0000  0.0000  0.0000  0.7650  0.0000  0.0000  0.0000
  18.  F 5 (px)     0.0000  1.0000  0.0000  0.0000  0.0000  0.5010  0.0000  0.0000
  19.  F 5 (py)     0.0000  0.0000  1.0000  0.0000  0.0000  0.0000  0.5010  0.0000
  20.  F 5 (pz)     0.0000  0.0000  0.0000  1.0000  0.0000  0.0000  0.0000  0.5010
  21.  F 5 (s)      0.7650  0.0000  0.0000  0.0000  1.0000  0.0000  0.0000  0.0000
  22.  F 5 (px)     0.0000  0.5010  0.0000  0.0000  0.0000  1.0000  0.0000  0.0000
  23.  F 5 (py)     0.0000  0.0000  0.5010  0.0000  0.0000  0.0000  1.0000  0.0000
  24.  F 5 (pz)     0.0000  0.0000  0.0000  0.5010  0.0000  0.0000  0.0000  1.0000


 AO bond-order matrix:

           AO          1       2       3       4       5       6       7       8
      ------------ ------- ------- ------- ------- ------- ------- ------- -------
   1.  C 1 (s)      2.0483 -0.0156  0.0000  0.0000  0.0218 -0.2310  0.0000  0.0000
   2.  C 1 (s)     -0.0156  0.2286  0.0000  0.0000 -0.0225  0.2648  0.0000  0.0000
   3.  C 1 (px)     0.0000  0.0000  0.3849  0.0000  0.0000  0.0000  0.2031  0.0000
   4.  C 1 (py)     0.0000  0.0000  0.0000  0.3849  0.0000  0.0000  0.0000  0.2031
   5.  C 1 (pz)     0.0218 -0.0225  0.0000  0.0000  0.2252 -0.1104  0.0000  0.0000
   6.  C 1 (s)     -0.2310  0.2648  0.0000  0.0000 -0.1104  0.3673  0.0000  0.0000
   7.  C 1 (px)     0.0000  0.0000  0.2031  0.0000  0.0000  0.0000  0.1113  0.0000
   8.  C 1 (py)     0.0000  0.0000  0.0000  0.2031  0.0000  0.0000  0.0000  0.1113
   9.  C 1 (pz)     0.0295 -0.0355  0.0000  0.0000  0.0678 -0.0637  0.0000  0.0000
  10.  H 2 (s)     -0.0578  0.0936  0.0000  0.2568 -0.0673  0.1353  0.0000  0.1312
  11.  H 2 (s)      0.0031  0.0198  0.0000  0.2037 -0.0383  0.0350  0.0000  0.0998
  12.  H 3 (s)     -0.0578  0.0936 -0.2224 -0.1284 -0.0673  0.1353 -0.1136 -0.0656
  13.  H 3 (s)      0.0031  0.0198 -0.1764 -0.1018 -0.0383  0.0350 -0.0865 -0.0499
  14.  H 4 (s)     -0.0578  0.0936  0.2224 -0.1284 -0.0673  0.1353  0.1136 -0.0656
  15.  H 4 (s)      0.0031  0.0198  0.1764 -0.1018 -0.0383  0.0350  0.0865 -0.0499
  16.  F 5 (s)      0.0014 -0.0054  0.0000  0.0000 -0.0176  0.0547  0.0000  0.0000
  17.  F 5 (s)     -0.0029  0.0027  0.0000  0.0000  0.0316 -0.0652  0.0000  0.0000
  18.  F 5 (px)     0.0000  0.0000 -0.0164  0.0000  0.0000  0.0000  0.0504  0.0000
  19.  F 5 (py)     0.0000  0.0000  0.0000 -0.0164  0.0000  0.0000  0.0000  0.0504
  20.  F 5 (pz)     0.0619 -0.1279  0.0000  0.0000 -0.3108 -0.0495  0.0000  0.0000
  21.  F 5 (s)      0.0215 -0.0356  0.0000  0.0000  0.0423 -0.1351  0.0000  0.0000
  22.  F 5 (px)     0.0000  0.0000 -0.0475  0.0000  0.0000  0.0000  0.0202  0.0000
  23.  F 5 (py)     0.0000  0.0000  0.0000 -0.0475  0.0000  0.0000  0.0000  0.0202
  24.  F 5 (pz)     0.0393 -0.0789  0.0000  0.0000 -0.2489 -0.0093  0.0000  0.0000

           AO          9      10      11      12      13      14      15      16
      ------------ ------- ------- ------- ------- ------- ------- ------- -------
   1.  C 1 (s)      0.0295 -0.0578  0.0031 -0.0578  0.0031 -0.0578  0.0031  0.0014
   2.  C 1 (s)     -0.0355  0.0936  0.0198  0.0936  0.0198  0.0936  0.0198 -0.0054
   3.  C 1 (px)     0.0000  0.0000  0.0000 -0.2224 -0.1764  0.2224  0.1764  0.0000
   4.  C 1 (py)     0.0000  0.2568  0.2037 -0.1284 -0.1018 -0.1284 -0.1018  0.0000
   5.  C 1 (pz)     0.0678 -0.0673 -0.0383 -0.0673 -0.0383 -0.0673 -0.0383 -0.0176
   6.  C 1 (s)     -0.0637  0.1353  0.0350  0.1353  0.0350  0.1353  0.0350  0.0547
   7.  C 1 (px)     0.0000  0.0000  0.0000 -0.1136 -0.0865  0.1136  0.0865  0.0000
   8.  C 1 (py)     0.0000  0.1312  0.0998 -0.0656 -0.0499 -0.0656 -0.0499  0.0000
   9.  C 1 (pz)     0.0261 -0.0316 -0.0139 -0.0316 -0.0139 -0.0316 -0.0139  0.0185
  10.  H 2 (s)     -0.0316  0.2301  0.1611 -0.0333 -0.0545 -0.0333 -0.0545  0.0034
  11.  H 2 (s)     -0.0139  0.1611  0.1295 -0.0545 -0.0531 -0.0545 -0.0531 -0.0019
  12.  H 3 (s)     -0.0316 -0.0333 -0.0545  0.2301  0.1611 -0.0333 -0.0545  0.0034
  13.  H 3 (s)     -0.0139 -0.0545 -0.0531  0.1611  0.1295 -0.0545 -0.0531 -0.0019
  14.  H 4 (s)     -0.0316 -0.0333 -0.0545 -0.0333 -0.0545  0.2301  0.1611  0.0034
  15.  H 4 (s)     -0.0139 -0.0545 -0.0531 -0.0545 -0.0531  0.1611  0.1295 -0.0019
  16.  F 5 (s)      0.0185  0.0034 -0.0019  0.0034 -0.0019  0.0034 -0.0019  2.0779
  17.  F 5 (s)     -0.0194 -0.0090  0.0022 -0.0090  0.0022 -0.0090  0.0022 -0.1257
  18.  F 5 (px)     0.0000  0.0000  0.0000  0.0621  0.1015 -0.0621 -0.1015  0.0000
  19.  F 5 (py)     0.0000 -0.0717 -0.1171  0.0359  0.0586  0.0359  0.0586  0.0000
  20.  F 5 (pz)    -0.0801  0.0295  0.0438  0.0295  0.0438  0.0295  0.0438 -0.0324
  21.  F 5 (s)     -0.0212 -0.0276  0.0003 -0.0276  0.0003 -0.0276  0.0003 -0.3436
  22.  F 5 (px)     0.0000  0.0000  0.0000  0.0678  0.0939 -0.0678 -0.0939  0.0000
  23.  F 5 (py)     0.0000 -0.0783 -0.1084  0.0392  0.0542  0.0392  0.0542  0.0000
  24.  F 5 (pz)    -0.0657  0.0329  0.0363  0.0329  0.0363  0.0329  0.0363 -0.0004

           AO         17      18      19      20      21      22      23      24
      ------------ ------- ------- ------- ------- ------- ------- ------- -------
   1.  C 1 (s)     -0.0029  0.0000  0.0000  0.0619  0.0215  0.0000  0.0000  0.0393
   2.  C 1 (s)      0.0027  0.0000  0.0000 -0.1279 -0.0356  0.0000  0.0000 -0.0789
   3.  C 1 (px)     0.0000 -0.0164  0.0000  0.0000  0.0000 -0.0475  0.0000  0.0000
   4.  C 1 (py)     0.0000  0.0000 -0.0164  0.0000  0.0000  0.0000 -0.0475  0.0000
   5.  C 1 (pz)     0.0316  0.0000  0.0000 -0.3108  0.0423  0.0000  0.0000 -0.2489
   6.  C 1 (s)     -0.0652  0.0000  0.0000 -0.0495 -0.1351  0.0000  0.0000 -0.0093
   7.  C 1 (px)     0.0000  0.0504  0.0000  0.0000  0.0000  0.0202  0.0000  0.0000
   8.  C 1 (py)     0.0000  0.0000  0.0504  0.0000  0.0000  0.0000  0.0202  0.0000
   9.  C 1 (pz)    -0.0194  0.0000  0.0000 -0.0801 -0.0212  0.0000  0.0000 -0.0657
  10.  H 2 (s)     -0.0090  0.0000 -0.0717  0.0295 -0.0276  0.0000 -0.0783  0.0329
  11.  H 2 (s)      0.0022  0.0000 -0.1171  0.0438  0.0003  0.0000 -0.1084  0.0363
  12.  H 3 (s)     -0.0090  0.0621  0.0359  0.0295 -0.0276  0.0678  0.0392  0.0329
  13.  H 3 (s)      0.0022  0.1015  0.0586  0.0438  0.0003  0.0939  0.0542  0.0363
  14.  H 4 (s)     -0.0090 -0.0621  0.0359  0.0295 -0.0276 -0.0678  0.0392  0.0329
  15.  H 4 (s)      0.0022 -0.1015  0.0586  0.0438  0.0003 -0.0939  0.0542  0.0363
  16.  F 5 (s)     -0.1257  0.0000  0.0000 -0.0324 -0.3436  0.0000  0.0000 -0.0004
  17.  F 5 (s)      0.4567  0.0000  0.0000  0.0694  0.5948  0.0000  0.0000  0.0350
  18.  F 5 (px)     0.0000  0.8409  0.0000  0.0000  0.0000  0.6467  0.0000  0.0000
  19.  F 5 (py)     0.0000  0.0000  0.8409  0.0000  0.0000  0.0000  0.6467  0.0000
  20.  F 5 (pz)     0.0694  0.0000  0.0000  0.5747  0.1199  0.0000  0.0000  0.4375
  21.  F 5 (s)      0.5948  0.0000  0.0000  0.1199  0.7975  0.0000  0.0000  0.0633
  22.  F 5 (px)     0.0000  0.6467  0.0000  0.0000  0.0000  0.5005  0.0000  0.0000
  23.  F 5 (py)     0.0000  0.0000  0.6467  0.0000  0.0000  0.0000  0.5005  0.0000
  24.  F 5 (pz)     0.0350  0.0000  0.0000  0.4375  0.0633  0.0000  0.0000  0.3359


 AO density matrix:

           AO          1       2       3       4       5       6       7       8
      ------------ ------- ------- ------- ------- ------- ------- ------- -------
   1.  C 1 (s)      1.9986  0.4070  0.0000  0.0000  0.0051  0.3669  0.0000  0.0000
   2.  C 1 (s)      0.4070  1.4737  0.0000  0.0000 -0.1170  1.6228  0.0000  0.0000
   3.  C 1 (px)     0.0000  0.0000  1.2351  0.0000  0.0000  0.0000  1.3759  0.0000
   4.  C 1 (py)     0.0000  0.0000  0.0000  1.2351  0.0000  0.0000  0.0000  1.3759
   5.  C 1 (pz)     0.0051 -0.1170  0.0000  0.0000  0.9330 -0.1734  0.0000  0.0000
   6.  C 1 (s)      0.3669  1.6228  0.0000  0.0000 -0.1734  1.8420  0.0000  0.0000
   7.  C 1 (px)     0.0000  0.0000  1.3759  0.0000  0.0000  0.0000  1.5541  0.0000
   8.  C 1 (py)     0.0000  0.0000  0.0000  1.3759  0.0000  0.0000  0.0000  1.5541
   9.  C 1 (pz)     0.0073 -0.1980  0.0000  0.0000  0.9081 -0.1583  0.0000  0.0000
  10.  H 2 (s)      0.0486  0.7249  0.0000  1.0235 -0.3480  0.8202  0.0000  1.1177
  11.  H 2 (s)      0.1623  1.1137  0.0000  0.7951 -0.3330  1.2643  0.0000  0.8805
  12.  H 3 (s)      0.0486  0.7249 -0.8864 -0.5118 -0.3480  0.8202 -0.9680 -0.5589
  13.  H 3 (s)      0.1623  1.1137 -0.6885 -0.3975 -0.3330  1.2643 -0.7626 -0.4403
  14.  H 4 (s)      0.0486  0.7249  0.8864 -0.5118 -0.3480  0.8202  0.9680 -0.5589
  15.  H 4 (s)      0.1623  1.1137  0.6885 -0.3975 -0.3330  1.2643  0.7626 -0.4403
  16.  F 5 (s)      0.0001  0.0072  0.0000  0.0000  0.0176  0.0525  0.0000  0.0000
  17.  F 5 (s)     -0.0016  0.2017  0.0000  0.0000  0.4348  0.4705  0.0000  0.0000
  18.  F 5 (px)     0.0000  0.0000  0.1214  0.0000  0.0000  0.0000  0.3206  0.0000
  19.  F 5 (py)     0.0000  0.0000  0.0000  0.1214  0.0000  0.0000  0.0000  0.3206
  20.  F 5 (pz)     0.0092 -0.4516  0.0000  0.0000 -0.8565 -0.3485  0.0000  0.0000
  21.  F 5 (s)      0.0546  0.4161  0.0000  0.0000  0.4591  0.7047  0.0000  0.0000
  22.  F 5 (px)     0.0000  0.0000  0.3534  0.0000  0.0000  0.0000  0.5602  0.0000
  23.  F 5 (py)     0.0000  0.0000  0.0000  0.3534  0.0000  0.0000  0.0000  0.5602
  24.  F 5 (pz)    -0.1615 -0.8400  0.0000  0.0000 -0.7755 -0.7732  0.0000  0.0000

           AO          9      10      11      12      13      14      15      16
      ------------ ------- ------- ------- ------- ------- ------- ------- -------
   1.  C 1 (s)      0.0073  0.0486  0.1623  0.0486  0.1623  0.0486  0.1623  0.0001
   2.  C 1 (s)     -0.1980  0.7249  1.1137  0.7249  1.1137  0.7249  1.1137  0.0072
   3.  C 1 (px)     0.0000  0.0000  0.0000 -0.8864 -0.6885  0.8864  0.6885  0.0000
   4.  C 1 (py)     0.0000  1.0235  0.7951 -0.5118 -0.3975 -0.5118 -0.3975  0.0000
   5.  C 1 (pz)     0.9081 -0.3480 -0.3330 -0.3480 -0.3330 -0.3480 -0.3330  0.0176
   6.  C 1 (s)     -0.1583  0.8202  1.2643  0.8202  1.2643  0.8202  1.2643  0.0525
   7.  C 1 (px)     0.0000  0.0000  0.0000 -0.9680 -0.7626  0.9680  0.7626  0.0000
   8.  C 1 (py)     0.0000  1.1177  0.8805 -0.5589 -0.4403 -0.5589 -0.4403  0.0000
   9.  C 1 (pz)     1.1071 -0.3757 -0.3447 -0.3757 -0.3447 -0.3757 -0.3447  0.1154
  10.  H 2 (s)     -0.3757  1.3299  1.2997  0.0226  0.3035  0.0226  0.3035  0.0013
  11.  H 2 (s)     -0.3447  1.2997  1.4375  0.3035  0.6680  0.3035  0.6680  0.0153
  12.  H 3 (s)     -0.3757  0.0226  0.3035  1.3299  1.2997  0.0226  0.3035  0.0013
  13.  H 3 (s)     -0.3447  0.3035  0.6680  1.2997  1.4375  0.3035  0.6680  0.0153
  14.  H 4 (s)     -0.3757  0.0226  0.3035  0.0226  0.3035  1.3299  1.2997  0.0013
  15.  H 4 (s)     -0.3447  0.3035  0.6680  0.3035  0.6680  1.2997  1.4375  0.0153
  16.  F 5 (s)      0.1154  0.0013  0.0153  0.0013  0.0153  0.0013  0.0153  1.9990
  17.  F 5 (s)      0.9680 -0.0260  0.1484 -0.0260  0.1484 -0.0260  0.1484  0.4646
  18.  F 5 (px)     0.0000  0.0000  0.0000  0.0807 -0.0293 -0.0807  0.0293  0.0000
  19.  F 5 (py)     0.0000 -0.0932  0.0339  0.0466 -0.0169  0.0466 -0.0169  0.0000
  20.  F 5 (pz)    -0.5622  0.0502 -0.0704  0.0502 -0.0704  0.0502 -0.0704 -0.0049
  21.  F 5 (s)      0.9787  0.0667  0.3002  0.0667  0.3002  0.0667  0.3002  0.3206
  22.  F 5 (px)     0.0000  0.0000  0.0000 -0.1029 -0.1625  0.1029  0.1625  0.0000
  23.  F 5 (py)     0.0000  0.1188  0.1877 -0.0594 -0.0938 -0.0594 -0.0938  0.0000
  24.  F 5 (pz)    -0.4568 -0.1517 -0.3714 -0.1517 -0.3714 -0.1517 -0.3714 -0.0031

           AO         17      18      19      20      21      22      23      24
      ------------ ------- ------- ------- ------- ------- ------- ------- -------
   1.  C 1 (s)     -0.0016  0.0000  0.0000  0.0092  0.0546  0.0000  0.0000 -0.1615
   2.  C 1 (s)      0.2017  0.0000  0.0000 -0.4516  0.4161  0.0000  0.0000 -0.8400
   3.  C 1 (px)     0.0000  0.1214  0.0000  0.0000  0.0000  0.3534  0.0000  0.0000
   4.  C 1 (py)     0.0000  0.0000  0.1214  0.0000  0.0000  0.0000  0.3534  0.0000
   5.  C 1 (pz)     0.4348  0.0000  0.0000 -0.8565  0.4591  0.0000  0.0000 -0.7755
   6.  C 1 (s)      0.4705  0.0000  0.0000 -0.3485  0.7047  0.0000  0.0000 -0.7732
   7.  C 1 (px)     0.0000  0.3206  0.0000  0.0000  0.0000  0.5602  0.0000  0.0000
   8.  C 1 (py)     0.0000  0.0000  0.3206  0.0000  0.0000  0.0000  0.5602  0.0000
   9.  C 1 (pz)     0.9680  0.0000  0.0000 -0.5622  0.9787  0.0000  0.0000 -0.4568
  10.  H 2 (s)     -0.0260  0.0000 -0.0932  0.0502  0.0667  0.0000  0.1188 -0.1517
  11.  H 2 (s)      0.1484  0.0000  0.0339 -0.0704  0.3002  0.0000  0.1877 -0.3714
  12.  H 3 (s)     -0.0260  0.0807  0.0466  0.0502  0.0667 -0.1029 -0.0594 -0.1517
  13.  H 3 (s)      0.1484 -0.0293 -0.0169 -0.0704  0.3002 -0.1625 -0.0938 -0.3714
  14.  H 4 (s)     -0.0260 -0.0807  0.0466  0.0502  0.0667  0.1029 -0.0594 -0.1517
  15.  H 4 (s)      0.1484  0.0293 -0.0169 -0.0704  0.3002  0.1625 -0.0938 -0.3714
  16.  F 5 (s)      0.4646  0.0000  0.0000 -0.0049  0.3206  0.0000  0.0000 -0.0031
  17.  F 5 (s)      1.7126  0.0000  0.0000  0.0954  1.7466  0.0000  0.0000  0.0841
  18.  F 5 (px)     0.0000  1.6150  0.0000  0.0000  0.0000  1.4750  0.0000  0.0000
  19.  F 5 (py)     0.0000  0.0000  1.6150  0.0000  0.0000  0.0000  1.4750  0.0000
  20.  F 5 (pz)     0.0954  0.0000  0.0000  1.2775 -0.0040  0.0000  0.0000  1.3485
  21.  F 5 (s)      1.7466  0.0000  0.0000 -0.0040  1.8244  0.0000  0.0000 -0.0695
  22.  F 5 (px)     0.0000  1.4750  0.0000  0.0000  0.0000  1.3950  0.0000  0.0000
  23.  F 5 (py)     0.0000  0.0000  1.4750  0.0000  0.0000  0.0000  1.3950  0.0000
  24.  F 5 (pz)     0.0841  0.0000  0.0000  1.3485 -0.0695  0.0000  0.0000  1.5270


 MO density matrix:

      MO     1       2       3       4       5       6       7       8       9
     ---- ------  ------  ------  ------  ------  ------  ------  ------  ------
   1.     2.0000  0.0000  0.0000  0.0000  0.0000  0.0000  0.0000  0.0000  0.0000
   2.     0.0000  2.0000  0.0000  0.0000  0.0000  0.0000  0.0000  0.0000  0.0000
   3.     0.0000  0.0000  2.0000  0.0000  0.0000  0.0000  0.0000  0.0000  0.0000
   4.     0.0000  0.0000  0.0000  2.0000  0.0000  0.0000  0.0000  0.0000  0.0000
   5.     0.0000  0.0000  0.0000  0.0000  2.0000  0.0000  0.0000  0.0000  0.0000
   6.     0.0000  0.0000  0.0000  0.0000  0.0000  2.0000  0.0000  0.0000  0.0000
   7.     0.0000  0.0000  0.0000  0.0000  0.0000  0.0000  2.0000  0.0000  0.0000
   8.     0.0000  0.0000  0.0000  0.0000  0.0000  0.0000  0.0000  2.0000  0.0000
   9.     0.0000  0.0000  0.0000  0.0000  0.0000  0.0000  0.0000  0.0000  2.0000
  10.     0.0000  0.0000  0.0000  0.0000  0.0000  0.0000  0.0000  0.0000  0.0000
  11.     0.0000  0.0000  0.0000  0.0000  0.0000  0.0000  0.0000  0.0000  0.0000
  12.     0.0000  0.0000  0.0000  0.0000  0.0000  0.0000  0.0000  0.0000  0.0000
  13.     0.0000  0.0000  0.0000  0.0000  0.0000  0.0000  0.0000  0.0000  0.0000
  14.     0.0000  0.0000  0.0000  0.0000  0.0000  0.0000  0.0000  0.0000  0.0000
  15.     0.0000  0.0000  0.0000  0.0000  0.0000  0.0000  0.0000  0.0000  0.0000
  16.     0.0000  0.0000  0.0000  0.0000  0.0000  0.0000  0.0000  0.0000  0.0000
  17.     0.0000  0.0000  0.0000  0.0000  0.0000  0.0000  0.0000  0.0000  0.0000
  18.     0.0000  0.0000  0.0000  0.0000  0.0000  0.0000  0.0000  0.0000  0.0000
  19.     0.0000  0.0000  0.0000  0.0000  0.0000  0.0000  0.0000  0.0000  0.0000
  20.     0.0000  0.0000  0.0000  0.0000  0.0000  0.0000  0.0000  0.0000  0.0000
  21.     0.0000  0.0000  0.0000  0.0000  0.0000  0.0000  0.0000  0.0000  0.0000
  22.     0.0000  0.0000  0.0000  0.0000  0.0000  0.0000  0.0000  0.0000  0.0000
  23.     0.0000  0.0000  0.0000  0.0000  0.0000  0.0000  0.0000  0.0000  0.0000
  24.     0.0000  0.0000  0.0000  0.0000  0.0000  0.0000  0.0000  0.0000  0.0000

      MO    10      11      12      13      14      15      16      17      18
     ---- ------  ------  ------  ------  ------  ------  ------  ------  ------
   1.     0.0000  0.0000  0.0000  0.0000  0.0000  0.0000  0.0000  0.0000  0.0000
   2.     0.0000  0.0000  0.0000  0.0000  0.0000  0.0000  0.0000  0.0000  0.0000
   3.     0.0000  0.0000  0.0000  0.0000  0.0000  0.0000  0.0000  0.0000  0.0000
   4.     0.0000  0.0000  0.0000  0.0000  0.0000  0.0000  0.0000  0.0000  0.0000
   5.     0.0000  0.0000  0.0000  0.0000  0.0000  0.0000  0.0000  0.0000  0.0000
   6.     0.0000  0.0000  0.0000  0.0000  0.0000  0.0000  0.0000  0.0000  0.0000
   7.     0.0000  0.0000  0.0000  0.0000  0.0000  0.0000  0.0000  0.0000  0.0000
   8.     0.0000  0.0000  0.0000  0.0000  0.0000  0.0000  0.0000  0.0000  0.0000
   9.     0.0000  0.0000  0.0000  0.0000  0.0000  0.0000  0.0000  0.0000  0.0000
  10.     0.0000  0.0000  0.0000  0.0000  0.0000  0.0000  0.0000  0.0000  0.0000
  11.     0.0000  0.0000  0.0000  0.0000  0.0000  0.0000  0.0000  0.0000  0.0000
  12.     0.0000  0.0000  0.0000  0.0000  0.0000  0.0000  0.0000  0.0000  0.0000
  13.     0.0000  0.0000  0.0000  0.0000  0.0000  0.0000  0.0000  0.0000  0.0000
  14.     0.0000  0.0000  0.0000  0.0000  0.0000  0.0000  0.0000  0.0000  0.0000
  15.     0.0000  0.0000  0.0000  0.0000  0.0000  0.0000  0.0000  0.0000  0.0000
  16.     0.0000  0.0000  0.0000  0.0000  0.0000  0.0000  0.0000  0.0000  0.0000
  17.     0.0000  0.0000  0.0000  0.0000  0.0000  0.0000  0.0000  0.0000  0.0000
  18.     0.0000  0.0000  0.0000  0.0000  0.0000  0.0000  0.0000  0.0000  0.0000
  19.     0.0000  0.0000  0.0000  0.0000  0.0000  0.0000  0.0000  0.0000  0.0000
  20.     0.0000  0.0000  0.0000  0.0000  0.0000  0.0000  0.0000  0.0000  0.0000
  21.     0.0000  0.0000  0.0000  0.0000  0.0000  0.0000  0.0000  0.0000  0.0000
  22.     0.0000  0.0000  0.0000  0.0000  0.0000  0.0000  0.0000  0.0000  0.0000
  23.     0.0000  0.0000  0.0000  0.0000  0.0000  0.0000  0.0000  0.0000  0.0000
  24.     0.0000  0.0000  0.0000  0.0000  0.0000  0.0000  0.0000  0.0000  0.0000

      MO    19      20      21      22      23      24
     ---- ------  ------  ------  ------  ------  ------
   1.     0.0000  0.0000  0.0000  0.0000  0.0000  0.0000
   2.     0.0000  0.0000  0.0000  0.0000  0.0000  0.0000
   3.     0.0000  0.0000  0.0000  0.0000  0.0000  0.0000
   4.     0.0000  0.0000  0.0000  0.0000  0.0000  0.0000
   5.     0.0000  0.0000  0.0000  0.0000  0.0000  0.0000
   6.     0.0000  0.0000  0.0000  0.0000  0.0000  0.0000
   7.     0.0000  0.0000  0.0000  0.0000  0.0000  0.0000
   8.     0.0000  0.0000  0.0000  0.0000  0.0000  0.0000
   9.     0.0000  0.0000  0.0000  0.0000  0.0000  0.0000
  10.     0.0000  0.0000  0.0000  0.0000  0.0000  0.0000
  11.     0.0000  0.0000  0.0000  0.0000  0.0000  0.0000
  12.     0.0000  0.0000  0.0000  0.0000  0.0000  0.0000
  13.     0.0000  0.0000  0.0000  0.0000  0.0000  0.0000
  14.     0.0000  0.0000  0.0000  0.0000  0.0000  0.0000
  15.     0.0000  0.0000  0.0000  0.0000  0.0000  0.0000
  16.     0.0000  0.0000  0.0000  0.0000  0.0000  0.0000
  17.     0.0000  0.0000  0.0000  0.0000  0.0000  0.0000
  18.     0.0000  0.0000  0.0000  0.0000  0.0000  0.0000
  19.     0.0000  0.0000  0.0000  0.0000  0.0000  0.0000
  20.     0.0000  0.0000  0.0000  0.0000  0.0000  0.0000
  21.     0.0000  0.0000  0.0000  0.0000  0.0000  0.0000
  22.     0.0000  0.0000  0.0000  0.0000  0.0000  0.0000
  23.     0.0000  0.0000  0.0000  0.0000  0.0000  0.0000
  24.     0.0000  0.0000  0.0000  0.0000  0.0000  0.0000


 NATURAL POPULATIONS:  Natural atomic orbital occupancies

  NAO Atom No lang   Type(AO)    Occupancy      Energy
 -------------------------------------------------------
   1    C  1  s      Cor( 1s)     1.99994     -11.29214
   2    C  1  s      Val( 2s)     1.11103      -0.27874
   3    C  1  s      Ryd( 3s)     0.00158       1.38031
   4    C  1  px     Val( 2p)     1.22149      -0.11260
   5    C  1  px     Ryd( 3p)     0.00040       0.87530
   6    C  1  py     Val( 2p)     1.22149      -0.11260
   7    C  1  py     Ryd( 3p)     0.00040       0.87530
   8    C  1  pz     Val( 2p)     0.63313       0.02282
   9    C  1  pz     Ryd( 3p)     0.00395       0.83826

  10    H  2  s      Val( 1s)     0.79708       0.12915
  11    H  2  s      Ryd( 2s)     0.00125       0.76206

  12    H  3  s      Val( 1s)     0.79708       0.12915
  13    H  3  s      Ryd( 2s)     0.00125       0.76206

  14    H  4  s      Val( 1s)     0.79708       0.12915
  15    H  4  s      Ryd( 2s)     0.00125       0.76206

  16    F  5  s      Cor( 1s)     1.99997     -26.21787
  17    F  5  s      Val( 2s)     1.85330      -1.36182
  18    F  5  s      Ryd( 3s)     0.00032       2.30314
  19    F  5  px     Val( 2p)     1.98116      -0.60804
  20    F  5  px     Ryd( 3p)     0.00114       1.69504
  21    F  5  py     Val( 2p)     1.98116      -0.60804
  22    F  5  py     Ryd( 3p)     0.00114       1.69504
  23    F  5  pz     Val( 2p)     1.59298      -0.47826
  24    F  5  pz     Ryd( 3p)     0.00041       1.81029


 Summary of Natural Population Analysis:

                                     Natural Population
             Natural    ---------------------------------------------
  Atom No    Charge        Core      Valence    Rydberg      Total
 --------------------------------------------------------------------
    C  1   -0.19342      1.99994     4.18715    0.00633     6.19342
    H  2    0.20167      0.00000     0.79708    0.00125     0.79833
    H  3    0.20167      0.00000     0.79708    0.00125     0.79833
    H  4    0.20167      0.00000     0.79708    0.00125     0.79833
    F  5   -0.41159      1.99997     7.40861    0.00301     9.41159
 ====================================================================
 * Total *  0.00000      3.99991    13.98700    0.01309    18.00000

                                 Natural Population
 ---------------------------------------------------------
   Core                       3.99991 ( 99.9977% of    4)
   Valence                   13.98700 ( 99.9071% of   14)
   Natural Minimal Basis     17.98691 ( 99.9273% of   18)
   Natural Rydberg Basis      0.01309 (  0.0727% of   18)
 ---------------------------------------------------------

    Atom No         Natural Electron Configuration
 ----------------------------------------------------------------------------
      C  1      [core]2s( 1.11)2p( 3.08)
      H  2            1s( 0.80)
      H  3            1s( 0.80)
      H  4            1s( 0.80)
      F  5      [core]2s( 1.85)2p( 5.56)


 PNAOs in the AO basis:

           AO          1       2       3       4       5       6       7       8
      ------------ ------- ------- ------- ------- ------- ------- ------- -------
   1.  C 1 (s)      0.9925 -0.2234 -0.0741  0.0000  0.0000  0.0000  0.0000  0.0000
   2.  C 1 (s)      0.0499  0.2091  1.7017  0.0000  0.0000  0.0000  0.0000  0.0000
   3.  C 1 (px)     0.0000  0.0000  0.0000  0.4430  1.1320  0.0000  0.0000  0.0000
   4.  C 1 (py)     0.0000  0.0000  0.0000  0.0000  0.0000  0.4430  1.1320  0.0000
   5.  C 1 (pz)     0.0000  0.0000  0.0000  0.0000  0.0000  0.0000  0.0000  0.4430
   6.  C 1 (s)     -0.0148  0.8415 -1.4924  0.0000  0.0000  0.0000  0.0000  0.0000
   7.  C 1 (px)     0.0000  0.0000  0.0000  0.6793 -1.0081  0.0000  0.0000  0.0000
   8.  C 1 (py)     0.0000  0.0000  0.0000  0.0000  0.0000  0.6793 -1.0081  0.0000
   9.  C 1 (pz)     0.0000  0.0000  0.0000  0.0000  0.0000  0.0000  0.0000  0.6793
  10.  H 2 (s)      0.0000  0.0000  0.0000  0.0000  0.0000  0.0000  0.0000  0.0000
  11.  H 2 (s)      0.0000  0.0000  0.0000  0.0000  0.0000  0.0000  0.0000  0.0000
  12.  H 3 (s)      0.0000  0.0000  0.0000  0.0000  0.0000  0.0000  0.0000  0.0000
  13.  H 3 (s)      0.0000  0.0000  0.0000  0.0000  0.0000  0.0000  0.0000  0.0000
  14.  H 4 (s)      0.0000  0.0000  0.0000  0.0000  0.0000  0.0000  0.0000  0.0000
  15.  H 4 (s)      0.0000  0.0000  0.0000  0.0000  0.0000  0.0000  0.0000  0.0000
  16.  F 5 (s)      0.0000  0.0000  0.0000  0.0000  0.0000  0.0000  0.0000  0.0000
  17.  F 5 (s)      0.0000  0.0000  0.0000  0.0000  0.0000  0.0000  0.0000  0.0000
  18.  F 5 (px)     0.0000  0.0000  0.0000  0.0000  0.0000  0.0000  0.0000  0.0000
  19.  F 5 (py)     0.0000  0.0000  0.0000  0.0000  0.0000  0.0000  0.0000  0.0000
  20.  F 5 (pz)     0.0000  0.0000  0.0000  0.0000  0.0000  0.0000  0.0000  0.0000
  21.  F 5 (s)      0.0000  0.0000  0.0000  0.0000  0.0000  0.0000  0.0000  0.0000
  22.  F 5 (px)     0.0000  0.0000  0.0000  0.0000  0.0000  0.0000  0.0000  0.0000
  23.  F 5 (py)     0.0000  0.0000  0.0000  0.0000  0.0000  0.0000  0.0000  0.0000
  24.  F 5 (pz)     0.0000  0.0000  0.0000  0.0000  0.0000  0.0000  0.0000  0.0000

           AO          9      10      11      12      13      14      15      16
      ------------ ------- ------- ------- ------- ------- ------- ------- -------
   1.  C 1 (s)      0.0000  0.0000  0.0000  0.0000  0.0000  0.0000  0.0000  0.0000
   2.  C 1 (s)      0.0000  0.0000  0.0000  0.0000  0.0000  0.0000  0.0000  0.0000
   3.  C 1 (px)     0.0000  0.0000  0.0000  0.0000  0.0000  0.0000  0.0000  0.0000
   4.  C 1 (py)     0.0000  0.0000  0.0000  0.0000  0.0000  0.0000  0.0000  0.0000
   5.  C 1 (pz)     1.1320  0.0000  0.0000  0.0000  0.0000  0.0000  0.0000  0.0000
   6.  C 1 (s)      0.0000  0.0000  0.0000  0.0000  0.0000  0.0000  0.0000  0.0000
   7.  C 1 (px)     0.0000  0.0000  0.0000  0.0000  0.0000  0.0000  0.0000  0.0000
   8.  C 1 (py)     0.0000  0.0000  0.0000  0.0000  0.0000  0.0000  0.0000  0.0000
   9.  C 1 (pz)    -1.0081  0.0000  0.0000  0.0000  0.0000  0.0000  0.0000  0.0000
  10.  H 2 (s)      0.0000  0.4856  1.2365  0.0000  0.0000  0.0000  0.0000  0.0000
  11.  H 2 (s)      0.0000  0.6111 -1.1795  0.0000  0.0000  0.0000  0.0000  0.0000
  12.  H 3 (s)      0.0000  0.0000  0.0000  0.4856  1.2365  0.0000  0.0000  0.0000
  13.  H 3 (s)      0.0000  0.0000  0.0000  0.6111 -1.1795  0.0000  0.0000  0.0000
  14.  H 4 (s)      0.0000  0.0000  0.0000  0.0000  0.0000  0.4856  1.2365  0.0000
  15.  H 4 (s)      0.0000  0.0000  0.0000  0.0000  0.0000  0.6111 -1.1795  0.0000
  16.  F 5 (s)      0.0000  0.0000  0.0000  0.0000  0.0000  0.0000  0.0000  0.9905
  17.  F 5 (s)      0.0000  0.0000  0.0000  0.0000  0.0000  0.0000  0.0000  0.0483
  18.  F 5 (px)     0.0000  0.0000  0.0000  0.0000  0.0000  0.0000  0.0000  0.0000
  19.  F 5 (py)     0.0000  0.0000  0.0000  0.0000  0.0000  0.0000  0.0000  0.0000
  20.  F 5 (pz)     0.0000  0.0000  0.0000  0.0000  0.0000  0.0000  0.0000  0.0000
  21.  F 5 (s)      0.0000  0.0000  0.0000  0.0000  0.0000  0.0000  0.0000 -0.0124
  22.  F 5 (px)     0.0000  0.0000  0.0000  0.0000  0.0000  0.0000  0.0000  0.0000
  23.  F 5 (py)     0.0000  0.0000  0.0000  0.0000  0.0000  0.0000  0.0000  0.0000
  24.  F 5 (pz)     0.0000  0.0000  0.0000  0.0000  0.0000  0.0000  0.0000  0.0000

           AO         17      18      19      20      21      22      23      24
      ------------ ------- ------- ------- ------- ------- ------- ------- -------
   1.  C 1 (s)      0.0000  0.0000  0.0000  0.0000  0.0000  0.0000  0.0000  0.0000
   2.  C 1 (s)      0.0000  0.0000  0.0000  0.0000  0.0000  0.0000  0.0000  0.0000
   3.  C 1 (px)     0.0000  0.0000  0.0000  0.0000  0.0000  0.0000  0.0000  0.0000
   4.  C 1 (py)     0.0000  0.0000  0.0000  0.0000  0.0000  0.0000  0.0000  0.0000
   5.  C 1 (pz)     0.0000  0.0000  0.0000  0.0000  0.0000  0.0000  0.0000  0.0000
   6.  C 1 (s)      0.0000  0.0000  0.0000  0.0000  0.0000  0.0000  0.0000  0.0000
   7.  C 1 (px)     0.0000  0.0000  0.0000  0.0000  0.0000  0.0000  0.0000  0.0000
   8.  C 1 (py)     0.0000  0.0000  0.0000  0.0000  0.0000  0.0000  0.0000  0.0000
   9.  C 1 (pz)     0.0000  0.0000  0.0000  0.0000  0.0000  0.0000  0.0000  0.0000
  10.  H 2 (s)      0.0000  0.0000  0.0000  0.0000  0.0000  0.0000  0.0000  0.0000
  11.  H 2 (s)      0.0000  0.0000  0.0000  0.0000  0.0000  0.0000  0.0000  0.0000
  12.  H 3 (s)      0.0000  0.0000  0.0000  0.0000  0.0000  0.0000  0.0000  0.0000
  13.  H 3 (s)      0.0000  0.0000  0.0000  0.0000  0.0000  0.0000  0.0000  0.0000
  14.  H 4 (s)      0.0000  0.0000  0.0000  0.0000  0.0000  0.0000  0.0000  0.0000
  15.  H 4 (s)      0.0000  0.0000  0.0000  0.0000  0.0000  0.0000  0.0000  0.0000
  16.  F 5 (s)     -0.2391 -0.1207  0.0000  0.0000  0.0000  0.0000  0.0000  0.0000
  17.  F 5 (s)      0.4668  1.4993  0.0000  0.0000  0.0000  0.0000  0.0000  0.0000
  18.  F 5 (px)     0.0000  0.0000  0.5968 -0.9894  0.0000  0.0000  0.0000  0.0000
  19.  F 5 (py)     0.0000  0.0000  0.0000  0.0000  0.5968 -0.9894  0.0000  0.0000
  20.  F 5 (pz)     0.0000  0.0000  0.0000  0.0000  0.0000  0.0000  0.5968 -0.9894
  21.  F 5 (s)      0.6185 -1.4244  0.0000  0.0000  0.0000  0.0000  0.0000  0.0000
  22.  F 5 (px)     0.0000  0.0000  0.5573  1.0122  0.0000  0.0000  0.0000  0.0000
  23.  F 5 (py)     0.0000  0.0000  0.0000  0.0000  0.5573  1.0122  0.0000  0.0000
  24.  F 5 (pz)     0.0000  0.0000  0.0000  0.0000  0.0000  0.0000  0.5573  1.0122


 PNAO overlap matrix:

           NAO         1       2       3       4       5       6       7       8
      ------------ ------- ------- ------- ------- ------- ------- ------- -------
   1.  C 1( 1s )    1.0000  0.0000  0.0000  0.0000  0.0000  0.0000  0.0000  0.0000
   2.  C 1( 2s )    0.0000  1.0000  0.0000  0.0000  0.0000  0.0000  0.0000  0.0000
   3.  C 1( 3s )    0.0000  0.0000  1.0000  0.0000  0.0000  0.0000  0.0000  0.0000
   4.  C 1( 2px)    0.0000  0.0000  0.0000  1.0000  0.0000  0.0000  0.0000  0.0000
   5.  C 1( 3px)    0.0000  0.0000  0.0000  0.0000  1.0000  0.0000  0.0000  0.0000
   6.  C 1( 2py)    0.0000  0.0000  0.0000  0.0000  0.0000  1.0000  0.0000  0.0000
   7.  C 1( 3py)    0.0000  0.0000  0.0000  0.0000  0.0000  0.0000  1.0000  0.0000
   8.  C 1( 2pz)    0.0000  0.0000  0.0000  0.0000  0.0000  0.0000  0.0000  1.0000
   9.  C 1( 3pz)    0.0000  0.0000  0.0000  0.0000  0.0000  0.0000  0.0000  0.0000
  10.  H 2( 1s )    0.0774  0.5759 -0.2227  0.0000  0.0000  0.5166 -0.2350 -0.1942
  11.  H 2( 2s )   -0.0705 -0.3269  0.1591  0.0000  0.0000  0.0401  0.1658 -0.0151
  12.  H 3( 1s )    0.0774  0.5759 -0.2227 -0.4474  0.2036 -0.2583  0.1175 -0.1942
  13.  H 3( 2s )   -0.0705 -0.3269  0.1591 -0.0347 -0.1436 -0.0201 -0.0829 -0.0151
  14.  H 4( 1s )    0.0774  0.5759 -0.2227  0.4474 -0.2036 -0.2583  0.1175 -0.1942
  15.  H 4( 2s )   -0.0705 -0.3269  0.1591  0.0347  0.1436 -0.0201 -0.0829 -0.0151
  16.  F 5( 1s )   -0.0005  0.0286 -0.0390  0.0000  0.0000  0.0000  0.0000  0.0567
  17.  F 5( 2s )    0.0204  0.2990 -0.2038  0.0000  0.0000  0.0000  0.0000  0.4429
  18.  F 5( 3s )   -0.0447 -0.2845  0.0783  0.0000  0.0000  0.0000  0.0000 -0.3037
  19.  F 5( 2px)    0.0000  0.0000  0.0000  0.2226 -0.1395  0.0000  0.0000  0.0000
  20.  F 5( 3px)    0.0000  0.0000  0.0000  0.2561 -0.1357  0.0000  0.0000  0.0000
  21.  F 5( 2py)    0.0000  0.0000  0.0000  0.0000  0.0000  0.2226 -0.1395  0.0000
  22.  F 5( 3py)    0.0000  0.0000  0.0000  0.0000  0.0000  0.2561 -0.1357  0.0000
  23.  F 5( 2pz)   -0.0558 -0.2913 -0.0402  0.0000  0.0000  0.0000  0.0000 -0.2667
  24.  F 5( 3pz)   -0.0933 -0.3231 -0.0824  0.0000  0.0000  0.0000  0.0000 -0.2045

           NAO         9      10      11      12      13      14      15      16
      ------------ ------- ------- ------- ------- ------- ------- ------- -------
   1.  C 1( 1s )    0.0000  0.0774 -0.0705  0.0774 -0.0705  0.0774 -0.0705 -0.0005
   2.  C 1( 2s )    0.0000  0.5759 -0.3269  0.5759 -0.3269  0.5759 -0.3269  0.0286
   3.  C 1( 3s )    0.0000 -0.2227  0.1591 -0.2227  0.1591 -0.2227  0.1591 -0.0390
   4.  C 1( 2px)    0.0000  0.0000  0.0000 -0.4474 -0.0347  0.4474  0.0347  0.0000
   5.  C 1( 3px)    0.0000  0.0000  0.0000  0.2036 -0.1436 -0.2036  0.1436  0.0000
   6.  C 1( 2py)    0.0000  0.5166  0.0401 -0.2583 -0.0201 -0.2583 -0.0201  0.0000
   7.  C 1( 3py)    0.0000 -0.2350  0.1658  0.1175 -0.0829  0.1175 -0.0829  0.0000
   8.  C 1( 2pz)    0.0000 -0.1942 -0.0151 -0.1942 -0.0151 -0.1942 -0.0151  0.0567
   9.  C 1( 3pz)    1.0000  0.0884 -0.0623  0.0884 -0.0623  0.0884 -0.0623 -0.0561
  10.  H 2( 1s )    0.0884  1.0000  0.0000  0.2436 -0.2516  0.2436 -0.2516  0.0055
  11.  H 2( 2s )   -0.0623  0.0000  1.0000 -0.2516  0.1517 -0.2516  0.1517 -0.0111
  12.  H 3( 1s )    0.0884  0.2436 -0.2516  1.0000  0.0000  0.2436 -0.2516  0.0055
  13.  H 3( 2s )   -0.0623 -0.2516  0.1517  0.0000  1.0000 -0.2516  0.1517 -0.0111
  14.  H 4( 1s )    0.0884  0.2436 -0.2516  0.2436 -0.2516  1.0000  0.0000  0.0055
  15.  H 4( 2s )   -0.0623 -0.2516  0.1517 -0.2516  0.1517  0.0000  1.0000 -0.0111
  16.  F 5( 1s )   -0.0561  0.0055 -0.0111  0.0055 -0.0111  0.0055 -0.0111  1.0000
  17.  F 5( 2s )   -0.2789  0.0846 -0.1303  0.0846 -0.1303  0.0846 -0.1303  0.0000
  18.  F 5( 3s )    0.1042 -0.1050  0.1332 -0.1050  0.1332 -0.1050  0.1332  0.0000
  19.  F 5( 2px)    0.0000  0.0000  0.0000 -0.0497  0.0570  0.0497 -0.0570  0.0000
  20.  F 5( 3px)    0.0000  0.0000  0.0000 -0.0666  0.0621  0.0666 -0.0621  0.0000
  21.  F 5( 2py)    0.0000  0.0574 -0.0659 -0.0287  0.0329 -0.0287  0.0329  0.0000
  22.  F 5( 3py)    0.0000  0.0770 -0.0718 -0.0385  0.0359 -0.0385  0.0359  0.0000
  23.  F 5( 2pz)   -0.1186 -0.0990  0.1135 -0.0990  0.1135 -0.0990  0.1135  0.0000
  24.  F 5( 3pz)   -0.1156 -0.1327  0.1237 -0.1327  0.1237 -0.1327  0.1237  0.0000

           NAO        17      18      19      20      21      22      23      24
      ------------ ------- ------- ------- ------- ------- ------- ------- -------
   1.  C 1( 1s )    0.0204 -0.0447  0.0000  0.0000  0.0000  0.0000 -0.0558 -0.0933
   2.  C 1( 2s )    0.2990 -0.2845  0.0000  0.0000  0.0000  0.0000 -0.2913 -0.3231
   3.  C 1( 3s )   -0.2038  0.0783  0.0000  0.0000  0.0000  0.0000 -0.0402 -0.0824
   4.  C 1( 2px)    0.0000  0.0000  0.2226  0.2561  0.0000  0.0000  0.0000  0.0000
   5.  C 1( 3px)    0.0000  0.0000 -0.1395 -0.1357  0.0000  0.0000  0.0000  0.0000
   6.  C 1( 2py)    0.0000  0.0000  0.0000  0.0000  0.2226  0.2561  0.0000  0.0000
   7.  C 1( 3py)    0.0000  0.0000  0.0000  0.0000 -0.1395 -0.1357  0.0000  0.0000
   8.  C 1( 2pz)    0.4429 -0.3037  0.0000  0.0000  0.0000  0.0000 -0.2667 -0.2045
   9.  C 1( 3pz)   -0.2789  0.1042  0.0000  0.0000  0.0000  0.0000 -0.1186 -0.1156
  10.  H 2( 1s )    0.0846 -0.1050  0.0000  0.0000  0.0574  0.0770 -0.0990 -0.1327
  11.  H 2( 2s )   -0.1303  0.1332  0.0000  0.0000 -0.0659 -0.0718  0.1135  0.1237
  12.  H 3( 1s )    0.0846 -0.1050 -0.0497 -0.0666 -0.0287 -0.0385 -0.0990 -0.1327
  13.  H 3( 2s )   -0.1303  0.1332  0.0570  0.0621  0.0329  0.0359  0.1135  0.1237
  14.  H 4( 1s )    0.0846 -0.1050  0.0497  0.0666 -0.0287 -0.0385 -0.0990 -0.1327
  15.  H 4( 2s )   -0.1303  0.1332 -0.0570 -0.0621  0.0329  0.0359  0.1135  0.1237
  16.  F 5( 1s )    0.0000  0.0000  0.0000  0.0000  0.0000  0.0000  0.0000  0.0000
  17.  F 5( 2s )    1.0000  0.0000  0.0000  0.0000  0.0000  0.0000  0.0000  0.0000
  18.  F 5( 3s )    0.0000  1.0000  0.0000  0.0000  0.0000  0.0000  0.0000  0.0000
  19.  F 5( 2px)    0.0000  0.0000  1.0000  0.0000  0.0000  0.0000  0.0000  0.0000
  20.  F 5( 3px)    0.0000  0.0000  0.0000  1.0000  0.0000  0.0000  0.0000  0.0000
  21.  F 5( 2py)    0.0000  0.0000  0.0000  0.0000  1.0000  0.0000  0.0000  0.0000
  22.  F 5( 3py)    0.0000  0.0000  0.0000  0.0000  0.0000  1.0000  0.0000  0.0000
  23.  F 5( 2pz)    0.0000  0.0000  0.0000  0.0000  0.0000  0.0000  1.0000  0.0000
  24.  F 5( 3pz)    0.0000  0.0000  0.0000  0.0000  0.0000  0.0000  0.0000  1.0000


 PNAO density matrix:

           NAO         1       2       3       4       5       6       7       8
      ------------ ------- ------- ------- ------- ------- ------- ------- -------
   1.  C 1( 1s )    1.9999  0.0000  0.0000  0.0000  0.0000  0.0000  0.0000  0.0006
   2.  C 1( 2s )    0.0000  1.8635  0.0000  0.0000  0.0000  0.0000  0.0000 -0.1957
   3.  C 1( 3s )    0.0000  0.0000  0.1170  0.0000  0.0000  0.0000  0.0000 -0.0425
   4.  C 1( 2px)    0.0000  0.0000  0.0000  1.7878 -0.0013  0.0000  0.0000  0.0000
   5.  C 1( 3px)    0.0000  0.0000  0.0000 -0.0013  0.0219  0.0000  0.0000  0.0000
   6.  C 1( 2py)    0.0000  0.0000  0.0000  0.0000  0.0000  1.7878 -0.0013  0.0000
   7.  C 1( 3py)    0.0000  0.0000  0.0000  0.0000  0.0000 -0.0013  0.0219  0.0000
   8.  C 1( 2pz)    0.0006 -0.1957 -0.0425  0.0000  0.0000  0.0000  0.0000  1.2406
   9.  C 1( 3pz)    0.0024 -0.0166  0.1692  0.0000  0.0000  0.0000  0.0000  0.0025
  10.  H 2( 1s )    0.1561  1.1737  0.0006  0.0000  0.0000  1.1697  0.0230 -0.4321
  11.  H 2( 2s )   -0.1441 -0.4594  0.0119  0.0000  0.0000  0.3785  0.0248 -0.0559
  12.  H 3( 1s )    0.1561  1.1737  0.0006 -1.0130 -0.0199 -0.5849 -0.0115 -0.4321
  13.  H 3( 2s )   -0.1441 -0.4594  0.0119 -0.3278 -0.0215 -0.1893 -0.0124 -0.0559
  14.  H 4( 1s )    0.1561  1.1737  0.0006  1.0130  0.0199 -0.5849 -0.0115 -0.4321
  15.  H 4( 2s )   -0.1441 -0.4594  0.0119  0.3278  0.0215 -0.1893 -0.0124 -0.0559
  16.  F 5( 1s )   -0.0010  0.0581 -0.0785  0.0000  0.0000  0.0000  0.0000  0.1156
  17.  F 5( 2s )    0.0407  0.6067 -0.3667  0.0000  0.0000  0.0000  0.0000  0.9132
  18.  F 5( 3s )   -0.0897 -0.2994 -0.0346  0.0000  0.0000  0.0000  0.0000  0.0277
  19.  F 5( 2px)    0.0000  0.0000  0.0000  0.4614 -0.2026  0.0000  0.0000  0.0000
  20.  F 5( 3px)    0.0000  0.0000  0.0000  0.2750  0.0171  0.0000  0.0000  0.0000
  21.  F 5( 2py)    0.0000  0.0000  0.0000  0.0000  0.0000  0.4614 -0.2026  0.0000
  22.  F 5( 3py)    0.0000  0.0000  0.0000  0.0000  0.0000  0.2750  0.0171  0.0000
  23.  F 5( 2pz)   -0.1112 -0.6730 -0.2956  0.0000  0.0000  0.0000  0.0000 -0.8188
  24.  F 5( 3pz)   -0.1849 -0.4141 -0.0204  0.0000  0.0000  0.0000  0.0000  0.0914

           NAO         9      10      11      12      13      14      15      16
      ------------ ------- ------- ------- ------- ------- ------- ------- -------
   1.  C 1( 1s )    0.0024  0.1561 -0.1441  0.1561 -0.1441  0.1561 -0.1441 -0.0010
   2.  C 1( 2s )   -0.0166  1.1737 -0.4594  1.1737 -0.4594  1.1737 -0.4594  0.0581
   3.  C 1( 3s )    0.1692  0.0006  0.0119  0.0006  0.0119  0.0006  0.0119 -0.0785
   4.  C 1( 2px)    0.0000  0.0000  0.0000 -1.0130 -0.3278  1.0130  0.3278  0.0000
   5.  C 1( 3px)    0.0000  0.0000  0.0000 -0.0199 -0.0215  0.0199  0.0215  0.0000
   6.  C 1( 2py)    0.0000  1.1697  0.3785 -0.5849 -0.1893 -0.5849 -0.1893  0.0000
   7.  C 1( 3py)    0.0000  0.0230  0.0248 -0.0115 -0.0124 -0.0115 -0.0124  0.0000
   8.  C 1( 2pz)    0.0025 -0.4321 -0.0559 -0.4321 -0.0559 -0.4321 -0.0559  0.1156
   9.  C 1( 3pz)    0.2481 -0.0253  0.0159 -0.0253  0.0159 -0.0253  0.0159 -0.1131
  10.  H 2( 1s )   -0.0253  1.6219  0.0000  0.4349 -0.4125  0.4349 -0.4125  0.0110
  11.  H 2( 2s )    0.0159  0.0000  0.2420 -0.4125  0.0787 -0.4125  0.0787 -0.0230
  12.  H 3( 1s )   -0.0253  0.4349 -0.4125  1.6219  0.0000  0.4349 -0.4125  0.0110
  13.  H 3( 2s )    0.0159 -0.4125  0.0787  0.0000  0.2420 -0.4125  0.0787 -0.0230
  14.  H 4( 1s )   -0.0253  0.4349 -0.4125  0.4349 -0.4125  1.6219  0.0000  0.0110
  15.  H 4( 2s )    0.0159 -0.4125  0.0787 -0.4125  0.0787  0.0000  0.2420 -0.0230
  16.  F 5( 1s )   -0.1131  0.0110 -0.0230  0.0110 -0.0230  0.0110 -0.0230  2.0000
  17.  F 5( 2s )   -0.4915  0.1675 -0.2608  0.1675 -0.2608  0.1675 -0.2608  0.0000
  18.  F 5( 3s )   -0.0483 -0.1916  0.0781 -0.1916  0.0781 -0.1916  0.0781  0.0000
  19.  F 5( 2px)    0.0000  0.0000  0.0000 -0.0705  0.1161  0.0705 -0.1161  0.0000
  20.  F 5( 3px)    0.0000  0.0000  0.0000 -0.1721 -0.0676  0.1721  0.0676  0.0000
  21.  F 5( 2py)    0.0000  0.0814 -0.1341 -0.0407  0.0671 -0.0407  0.0671  0.0000
  22.  F 5( 3py)    0.0000  0.1988  0.0780 -0.0994 -0.0390 -0.0994 -0.0390  0.0000
  23.  F 5( 2pz)   -0.4730 -0.1786  0.2262 -0.1786  0.2262 -0.1786  0.2262  0.0009
  24.  F 5( 3pz)   -0.0240 -0.2858  0.1100 -0.2858  0.1100 -0.2858  0.1100  0.0020

           NAO        17      18      19      20      21      22      23      24
      ------------ ------- ------- ------- ------- ------- ------- ------- -------
   1.  C 1( 1s )    0.0407 -0.0897  0.0000  0.0000  0.0000  0.0000 -0.1112 -0.1849
   2.  C 1( 2s )    0.6067 -0.2994  0.0000  0.0000  0.0000  0.0000 -0.6730 -0.4141
   3.  C 1( 3s )   -0.3667 -0.0346  0.0000  0.0000  0.0000  0.0000 -0.2956 -0.0204
   4.  C 1( 2px)    0.0000  0.0000  0.4614  0.2750  0.0000  0.0000  0.0000  0.0000
   5.  C 1( 3px)    0.0000  0.0000 -0.2026  0.0171  0.0000  0.0000  0.0000  0.0000
   6.  C 1( 2py)    0.0000  0.0000  0.0000  0.0000  0.4614  0.2750  0.0000  0.0000
   7.  C 1( 3py)    0.0000  0.0000  0.0000  0.0000 -0.2026  0.0171  0.0000  0.0000
   8.  C 1( 2pz)    0.9132  0.0277  0.0000  0.0000  0.0000  0.0000 -0.8188  0.0914
   9.  C 1( 3pz)   -0.4915 -0.0483  0.0000  0.0000  0.0000  0.0000 -0.4730 -0.0240
  10.  H 2( 1s )    0.1675 -0.1916  0.0000  0.0000  0.0814  0.1988 -0.1786 -0.2858
  11.  H 2( 2s )   -0.2608  0.0781  0.0000  0.0000 -0.1341  0.0780  0.2262  0.1100
[...]
            0.0030 0.6284 0.0014
      1 hybrid on atom 1 stashed in prospective list
      1 hybrid on atom 4 stashed in prospective list

 Search of NAO DM block for the following atom(s):   1   5
      Select eigenvectors with eigenvalue > 1.900
       2.000 1.223 1.223 1.198 0.003 0.000 0.000 0.000 0.000 0.000 0.000 0.000
       0.000 0.000 0.000 0.000 0.000 0.000
      Eigenvector ( 1) has occupancy 1.99974
            0.0000-0.2596-0.0203 0.0000 0.0000 0.0000 0.0000-0.4551
           -0.0271 0.0000-0.4347-0.0045 0.0000 0.0000 0.0000 0.0000
            0.7316 0.0094
      1 hybrid on atom 1 stashed in prospective list
      1 hybrid on atom 5 stashed in prospective list

 Stash prospective hybrids having projection expectation value > 0.300
       0.996 0.996 0.996 0.996 0.996 0.996 0.989 0.989
      0 hybrids eliminated in 1 pass
      8 hybrids moved from prospective to permanent list

 NHOs of 2-center eigenvectors projected from the NAO density matrix
       0.010 electrons remain in the fully projected matrix

 Search of NHO DM block for the following atom(s):   1
      Select eigenvectors with eigenvalue > 1.900
       2.000 0.003 0.000 0.000 0.000 0.000 0.000 0.000 0.000
      Eigenvector ( 1) has occupancy 1.99994
            1.0000 0.0000 0.0000 0.0000 0.0000 0.0000 0.0000 0.0000
            0.0000
           NBO accepted:    1. Label:CR ( 1)   1
        1 eigenvector(s) stashed in permanent list

 Search of NHO DM block for the following atom(s):   5
      Select eigenvectors with eigenvalue > 1.900
       2.000 1.995 1.981 1.981 0.001 0.001 0.000 0.000 0.000
      Eigenvector ( 1) has occupancy 1.99997
            1.0000 0.0000 0.0000 0.0000 0.0000 0.0000 0.0000 0.0000
            0.0000
           NBO accepted:    2. Label:CR ( 1)   5
      Eigenvector ( 2) has occupancy 1.99548
            0.0000 1.0000 0.0000 0.0000 0.0000 0.0000 0.0000 0.0000
            0.0000
           NBO accepted:    3. Label:LP ( 1)   5
      Eigenvector ( 3) has occupancy 1.98118
            0.0000 0.0000 1.0000 0.0000 0.0000 0.0000 0.0000 0.0000
            0.0000
           NBO accepted:    4. Label:LP ( 2)   5
      Eigenvector ( 4) has occupancy 1.98118
            0.0000 0.0000 0.0000 1.0000 0.0000 0.0000 0.0000 0.0000
            0.0000
           NBO accepted:    5. Label:LP ( 3)   5
        4 eigenvector(s) stashed in permanent list

  1-center NBOs projected from the NHO density matrix
       8.042 electrons remain (>1.900); search continues

 Search of NHO DM block for the following atom(s):   1   2
      Select eigenvectors with eigenvalue > 1.900
       1.998 0.013 0.000 0.000 0.000 0.000 0.000 0.000 0.000 0.000 0.000
      Eigenvector ( 1) has occupancy 1.99807
            0.0000 0.7778 0.0000 0.0000 0.0000 0.0000 0.0000 0.0000
            0.0000 0.6285 0.0000
      Occupancy is 1.998 after deleting minor hybrid components
            0.0000 0.7778 0.0000 0.0000 0.0000 0.0000 0.0000 0.0000
            0.0000 0.6285 0.0000
           NBO accepted:    6. Label:BD ( 1)   1   2
      Occupancy is 0.013 for antibonding component
            0.0000-0.6285 0.0000 0.0000 0.0000 0.0000 0.0000 0.0000
            0.0000 0.7778 0.0000
           NBO accepted:    7. Label:BD*( 1)   1   2
        2 eigenvector(s) stashed in permanent list

 Search of NHO DM block for the following atom(s):   1   3
      Select eigenvectors with eigenvalue > 1.900
       1.998 0.013 0.000 0.000 0.000 0.000 0.000 0.000 0.000 0.000 0.000
      Eigenvector ( 1) has occupancy 1.99807
            0.0000 0.0000 0.7778 0.0000 0.0000 0.0000 0.0000 0.0000
            0.0000 0.6285 0.0000
      Occupancy is 1.998 after deleting minor hybrid components
            0.0000 0.0000 0.7778 0.0000 0.0000 0.0000 0.0000 0.0000
            0.0000 0.6285 0.0000
           NBO accepted:    8. Label:BD ( 1)   1   3
      Occupancy is 0.013 for antibonding component
            0.0000 0.0000-0.6285 0.0000 0.0000 0.0000 0.0000 0.0000
            0.0000 0.7778 0.0000
           NBO accepted:    9. Label:BD*( 1)   1   3
        2 eigenvector(s) stashed in permanent list

 Search of NHO DM block for the following atom(s):   1   4
      Select eigenvectors with eigenvalue > 1.900
       1.998 0.013 0.000 0.000 0.000 0.000 0.000 0.000 0.000 0.000 0.000
      Eigenvector ( 1) has occupancy 1.99807
            0.0000 0.0000 0.0000 0.7778 0.0000 0.0000 0.0000 0.0000
            0.0000 0.6285 0.0000
      Occupancy is 1.998 after deleting minor hybrid components
            0.0000 0.0000 0.0000 0.7778 0.0000 0.0000 0.0000 0.0000
            0.0000 0.6285 0.0000
           NBO accepted:   10. Label:BD ( 1)   1   4
      Occupancy is 0.013 for antibonding component
            0.0000 0.0000 0.0000-0.6285 0.0000 0.0000 0.0000 0.0000
            0.0000 0.7778 0.0000
           NBO accepted:   11. Label:BD*( 1)   1   4
        2 eigenvector(s) stashed in permanent list

 Search of NHO DM block for the following atom(s):   1   5
      Select eigenvectors with eigenvalue > 1.900
       1.999 0.001 0.000 0.000 0.000 0.000 0.000 0.000 0.000 0.000 0.000 0.000
       0.000 0.000 0.000 0.000 0.000 0.000
      Eigenvector ( 1) has occupancy 1.99862
            0.0000 0.0000 0.0000 0.0000 0.5235 0.0000 0.0000 0.0000
            0.0000 0.0000 0.0000 0.0000 0.0000 0.8520 0.0000 0.0000
            0.0000 0.0000
      Occupancy is 1.999 after deleting minor hybrid components
            0.0000 0.0000 0.0000 0.0000 0.5235 0.0000 0.0000 0.0000
            0.0000 0.0000 0.0000 0.0000 0.0000 0.8520 0.0000 0.0000
            0.0000 0.0000
           NBO accepted:   12. Label:BD ( 1)   1   5
      Occupancy is 0.001 for antibonding component
            0.0000 0.0000 0.0000 0.0000 0.8520 0.0000 0.0000 0.0000
            0.0000 0.0000 0.0000 0.0000 0.0000-0.5235 0.0000 0.0000
            0.0000 0.0000
           NBO accepted:   13. Label:BD*( 1)   1   5
        2 eigenvector(s) stashed in permanent list

  2-center NBOs projected from the NHO density matrix
       0.010 electrons remain in the fully projected matrix

                            Occupancies       Lewis Structure    Low   High
         Max    Occ     -------------------  -----------------   occ   occ
  Cycle  Ctr   Thresh    Lewis   non-Lewis     CR  BD  nC  LP    (L)   (NL)
 ============================================================================
    1     2     1.90    17.95058   0.04942      2   4   0   3     0      0
 ----------------------------------------------------------------------------

 Structure accepted: No low occupancy Lewis orbitals

 -------------------------------------------------------
   Core                      3.99991 ( 99.998% of   4)
   Valence Lewis            13.95068 ( 99.648% of  14)
  ==================      =============================
   Total Lewis              17.95058 ( 99.725% of  18)
  -----------------------------------------------------
   Valence non-Lewis         0.03919 (  0.218% of  18)
   Rydberg non-Lewis         0.01022 (  0.057% of  18)
  ==================      =============================
   Total non-Lewis           0.04942 (  0.275% of  18)
 -------------------------------------------------------


     (Occupancy)   Bond orbital / Coefficients / Hybrids
 ------------------ Lewis ------------------------------------------------------
   1. (1.99994) CR ( 1) C  1            s(100.00%)
                                         1.0000  0.0000  0.0000  0.0000  0.0000
                                         0.0000  0.0000  0.0000  0.0000
   2. (1.99997) CR ( 1) F  5            s(100.00%)
                                         1.0000  0.0000  0.0000  0.0000  0.0000
                                         0.0000  0.0000  0.0000  0.0000
   3. (1.99548) LP ( 1) F  5            s( 73.91%)p 0.35( 26.09%)
                                         0.0000  0.8597 -0.0021  0.0000  0.0000
                                         0.0000  0.0000  0.5108 -0.0040
   4. (1.98118) LP ( 2) F  5            s(  0.00%)p 1.00(100.00%)
                                         0.0000  0.0000  0.0000 -0.3256  0.0008
                                         0.9455 -0.0024  0.0000  0.0000
   5. (1.98118) LP ( 3) F  5            s(  0.00%)p 1.00(100.00%)
                                         0.0000  0.0000  0.0000  0.9455 -0.0024
                                         0.3256 -0.0008  0.0000  0.0000
   6. (1.99807) BD ( 1) C  1- H  2
               ( 60.49%)   0.7778* C  1 s( 27.11%)p 2.69( 72.89%)
                                         0.0000  0.5207 -0.0059  0.0000  0.0000
                                         0.8165 -0.0061 -0.2494  0.0029
               ( 39.51%)   0.6285* H  2 s(100.00%)
                                         1.0000  0.0022
   7. (1.99807) BD ( 1) C  1- H  3
               ( 60.49%)   0.7778* C  1 s( 27.11%)p 2.69( 72.89%)
                                         0.0000  0.5207 -0.0059 -0.7071  0.0053
                                        -0.4082  0.0031 -0.2494  0.0029
               ( 39.51%)   0.6285* H  3 s(100.00%)
                                         1.0000  0.0022
   8. (1.99807) BD ( 1) C  1- H  4
               ( 60.49%)   0.7778* C  1 s( 27.11%)p 2.69( 72.89%)
                                         0.0000  0.5207 -0.0059  0.7071 -0.0053
                                        -0.4082  0.0031 -0.2494  0.0029
               ( 39.51%)   0.6285* H  4 s(100.00%)
                                         1.0000  0.0022
   9. (1.99862) BD ( 1) C  1- F  5
               ( 27.41%)   0.5235* C  1 s( 18.76%)p 4.33( 81.24%)
                                         0.0000  0.4313  0.0395  0.0000  0.0000
                                         0.0000  0.0000  0.8999  0.0513
               ( 72.59%)   0.8520* F  5 s( 26.09%)p 2.83( 73.91%)
                                         0.0000  0.5107  0.0053  0.0000  0.0000
                                         0.0000  0.0000 -0.8597 -0.0110
 ---------------- non-Lewis ----------------------------------------------------
  10. (0.01274) BD*( 1) C  1- H  2
               ( 39.51%)   0.6285* C  1 s( 27.11%)p 2.69( 72.89%)
                                         0.0000 -0.5207  0.0059  0.0000  0.0000
                                        -0.8165  0.0061  0.2494 -0.0029
               ( 60.49%)  -0.7778* H  2 s(100.00%)
                                        -1.0000 -0.0022
  11. (0.01274) BD*( 1) C  1- H  3
               ( 39.51%)   0.6285* C  1 s( 27.11%)p 2.69( 72.89%)
                                         0.0000 -0.5207  0.0059  0.7071 -0.0053
                                         0.4082 -0.0031  0.2494 -0.0029
               ( 60.49%)  -0.7778* H  3 s(100.00%)
                                        -1.0000 -0.0022
  12. (0.01274) BD*( 1) C  1- H  4
               ( 39.51%)   0.6285* C  1 s( 27.11%)p 2.69( 72.89%)
                                         0.0000 -0.5207  0.0059 -0.7071  0.0053
                                         0.4082 -0.0031  0.2494 -0.0029
               ( 60.49%)  -0.7778* H  4 s(100.00%)
                                        -1.0000 -0.0022
  13. (0.00098) BD*( 1) C  1- F  5
               ( 72.59%)   0.8520* C  1 s( 18.76%)p 4.33( 81.24%)
                                         0.0000  0.4313  0.0395  0.0000  0.0000
                                         0.0000  0.0000  0.8999  0.0513
               ( 27.41%)  -0.5235* F  5 s( 26.09%)p 2.83( 73.91%)
                                         0.0000  0.5107  0.0053  0.0000  0.0000
                                         0.0000  0.0000 -0.8597 -0.0110
  14. (0.00310) RY ( 1) C  1            s( 20.67%)p 3.84( 79.33%)
                                         0.0000 -0.0272  0.4538  0.0000  0.0000
                                         0.0000  0.0000 -0.0575  0.8888
  15. (0.00031) RY ( 2) C  1            s(  0.00%)p 1.00(100.00%)
                                         0.0000  0.0000  0.0000  0.0003  0.0396
                                         0.0075  0.9992  0.0000  0.0000
  16. (0.00031) RY ( 3) C  1            s(  0.00%)p 1.00(100.00%)
                                         0.0000  0.0000  0.0000  0.0075  0.9992
                                        -0.0003 -0.0396  0.0000  0.0000
  17. (0.00001) RY ( 4) C  1            s( 79.24%)p 0.26( 20.76%)
  18. (0.00125) RY ( 1) H  2            s(100.00%)
                                        -0.0022  1.0000
  19. (0.00125) RY ( 1) H  3            s(100.00%)
                                        -0.0022  1.0000
  20. (0.00125) RY ( 1) H  4            s(100.00%)
                                        -0.0022  1.0000
  21. (0.00113) RY ( 1) F  5            s(  0.00%)p 1.00(100.00%)
                                         0.0000  0.0000  0.0000  0.0026  1.0000
                                         0.0000  0.0007  0.0000  0.0000
  22. (0.00113) RY ( 2) F  5            s(  0.00%)p 1.00(100.00%)
                                         0.0000  0.0000  0.0000  0.0000 -0.0007
                                         0.0026  1.0000  0.0000  0.0000
  23. (0.00046) RY ( 3) F  5            s( 60.44%)p 0.65( 39.56%)
                                         0.0000  0.0050  0.7774  0.0000  0.0000
                                         0.0000  0.0000 -0.0003  0.6290
  24. (0.00000) RY ( 4) F  5            s( 39.56%)p 1.53( 60.44%)


 NHO DIRECTIONALITY AND BOND BENDING (deviation from line of nuclear centers at
                                      the position of maximum hybrid amplitude)

         [Thresholds for printing:  angular deviation  >  1.0 degree]
                                    p- or d-character  > 25.0%
                                    orbital occupancy  >  0.10e

                        Line of Centers        Hybrid 1             Hybrid 2
                        ---------------  -------------------  ------------------
           NBO            Theta   Phi    Theta   Phi    Dev   Theta   Phi    Dev
 ===============================================================================
   3. LP ( 1) F  5          --     --      0.0    0.0   --      --     --    --
   4. LP ( 2) F  5          --     --     90.0  109.0   --      --     --    --
   5. LP ( 3) F  5          --     --     90.0  199.0   --      --     --    --
   6. BD ( 1) C  1- H  2  110.6   90.0   107.7   90.0   2.9     --     --    --
   7. BD ( 1) C  1- H  3  110.6  210.0   107.7  210.0   2.9     --     --    --
   8. BD ( 1) C  1- H  4  110.6  330.0   107.7  330.0   2.9     --     --    --


 SECOND ORDER PERTURBATION THEORY ANALYSIS OF FOCK MATRIX IN NBO BASIS

     Threshold for printing:   0.50 kcal/mol
                                                          E(2) E(NL)-E(L) F(L,NL)
      Donor (L) NBO              Acceptor (NL) NBO      kcal/mol   a.u.    a.u.
 ===============================================================================

 within unit  1
    3. LP ( 1) F  5            14. RY ( 1) C  1            3.96    2.07   0.081
    4. LP ( 2) F  5            10. BD*( 1) C  1- H  2      7.58    1.27   0.088
    4. LP ( 2) F  5            12. BD*( 1) C  1- H  4      4.83    1.27   0.070
    5. LP ( 3) F  5            10. BD*( 1) C  1- H  2      0.90    1.27   0.030
    5. LP ( 3) F  5            11. BD*( 1) C  1- H  3      8.17    1.27   0.091
    5. LP ( 3) F  5            12. BD*( 1) C  1- H  4      3.65    1.27   0.061
    6. BD ( 1) C  1- H  2      22. RY ( 2) F  5            1.07    2.39   0.045
    7. BD ( 1) C  1- H  3      21. RY ( 1) F  5            0.80    2.39   0.039
    8. BD ( 1) C  1- H  4      21. RY ( 1) F  5            0.80    2.39   0.039


 NATURAL BOND ORBITALS (Summary):

                                                     Principal Delocalizations
           NBO                 Occupancy    Energy   (geminal,vicinal,remote)
 ===============================================================================
 Molecular unit  1  (CH3F)
 ------ Lewis --------------------------------------
    1. CR ( 1) C  1             1.99994   -11.29214
    2. CR ( 1) F  5             1.99997   -26.21787
    3. LP ( 1) F  5             1.99548    -1.18108  14(v)
    4. LP ( 2) F  5             1.98118    -0.60805  10(v),12(v)
    5. LP ( 3) F  5             1.98118    -0.60805  11(v),12(v),10(v)
    6. BD ( 1) C  1- H  2       1.99807    -0.69947  22(v)
    7. BD ( 1) C  1- H  3       1.99807    -0.69947  21(v)
    8. BD ( 1) C  1- H  4       1.99807    -0.69947  21(v)
    9. BD ( 1) C  1- F  5       1.99862    -1.08463
 ------ non-Lewis ----------------------------------
   10. BD*( 1) C  1- H  2       0.01274     0.66393
   11. BD*( 1) C  1- H  3       0.01274     0.66393
   12. BD*( 1) C  1- H  4       0.01274     0.66393
   13. BD*( 1) C  1- F  5       0.00098     0.45180
   14. RY ( 1) C  1             0.00310     0.88464
   15. RY ( 2) C  1             0.00031     0.87650
   16. RY ( 3) C  1             0.00031     0.87650
   17. RY ( 4) C  1             0.00001     1.32186
   18. RY ( 1) H  2             0.00125     0.76063
   19. RY ( 1) H  3             0.00125     0.76063
   20. RY ( 1) H  4             0.00125     0.76063
   21. RY ( 1) F  5             0.00113     1.69506
   22. RY ( 2) F  5             0.00113     1.69506
   23. RY ( 3) F  5             0.00046     2.33799
   24. RY ( 4) F  5             0.00000     1.77619
          -------------------------------
                 Total Lewis   17.95058  ( 99.7255%)
           Valence non-Lewis    0.03919  (  0.2177%)
           Rydberg non-Lewis    0.01022  (  0.0568%)
          -------------------------------
               Total unit  1   18.00000  (100.0000%)
              Charge unit  1    0.00000

 $CHOOSE
   LONE 5 3 END
   BOND S 1 2 S 1 3 S 1 4 S 1 5 END
 $END

 NBO analysis completed in 0.24 CPU seconds (0 wall seconds)
 Maximum scratch memory used by NBO was 266365 words (2.03 MB)
 Maximum scratch memory used by G16NBO was 9129 words (0.07 MB)

 Opening RunExU unformatted file "/cluster/work/users/beto93/CH3F/Gau-2337966.EUF"
 Read unf file /cluster/work/users/beto93/CH3F/Gau-2337966.EUF:
 Label Gaussian matrix elements                                         IVers= 2 NLab= 2 Version=ES64L-G16RevC.01
 Title NBO-a                                                           
 NAtoms=     5 NBasis=    24 NBsUse=    24 ICharg=     0 Multip=     1 NE=    18 Len12L=8 Len4L=8 IOpCl= 0 ICGU=111
 GAUSSIAN SCALARS                    NI= 1 NR= 1 NTot=       1 LenBuf=    2 NRI=1 N=    1000
 NPA CHARGES                         NI= 0 NR= 1 NTot=       5 LenBuf= 4000 NRI=1 N=       5
 Recovered energy= -138.856865007     dipole=     -0.000000000000     -0.000000000000     -0.984485081376
 Unable to Open any file for archive entry.
 1\1\GINC-C1-4\SP\RHF\4-31G\C1H3F1\BETO93\24-Jul-2024\0\\#RHF/4-31G Pop
 =NBO7Read\\NBO-a\\0,1\C,0,-0.008857,0.015341,-0.006262\H,0,0.001985,-0
 .003442,1.09006\H,0,1.028381,-0.003442,-0.361478\H,0,-0.51121,-0.89232
 3,-0.36148\F,0,-0.661148,1.145146,-0.467503\\Version=ES64L-G16RevC.01\
 State=1-A1\HF=-138.856865\RMSD=1.300e-09\Dipole=0.4640895,-0.8038293,0
 .3281619\Quadrupole=0.0554179,-0.1662524,0.1108345,0.1919708,-0.078371
 7,0.1357443\PG=C03V [C3(C1F1),3SGV(H1)]\\@
 The archive entry for this job was punched.


 TERENCE, THIS IS STUPID STUFF:
 YOU EAT YOUR VICTUALS FAST ENOUGH;
 THERE CAN'T BE MUCH AMISS, 'TIS CLEAR
 TO SEE THE RATE YOU DRINK YOUR BEER.
 BUT OH, GOOD LORD, THE VERSE YOU MAKE,
 IT GIVES A CHAP THE BELLY-ACHE.
 THE COW, THE OLD COW, SHE IS DEAD;
 IT SLEEPS WELL, THE HORNED HEAD:
 WE POOR LADS, 'TIS OUR TURN NOW
 TO HEAR SUCH TUNES AS KILLED THE COW.
 PRETTY FRIENDSHIP 'TIS TO RHYME
 YOUR FRIENDS TO DEATH BEFORE THEIR TIME.
 MOPING, MELANCHOLY MAD:
 COME PIPE A TUNE TO DANCE TO, LAD.

     -- A. E. HOUSMAN
 Job cpu time:       0 days  0 hours  0 minutes  8.0 seconds.
 Elapsed time:       0 days  0 hours  0 minutes  2.7 seconds.
 File lengths (MBytes):  RWF=     10 Int=      0 D2E=      0 Chk=      1 Scr=      1
 Normal termination of Gaussian 16 at Wed Jul 24 13:56:57 2024.
