 Entering Gaussian System, Link 0=g16
 Initial command:
 /cluster/software/Gaussian/g16_C.01/l1.exe "/cluster/work/users/beto93/LiH/Gau-1873852.inp" -scrdir="/cluster/work/users/beto93/LiH/"
 Entering Link 1 = /cluster/software/Gaussian/g16_C.01/l1.exe PID=   1873854.
  
 Copyright (c) 1988-2019, Gaussian, Inc.  All Rights Reserved.
  
 This is part of the Gaussian(R) 16 program.  It is based on
 the Gaussian(R) 09 system (copyright 2009, Gaussian, Inc.),
 the Gaussian(R) 03 system (copyright 2003, Gaussian, Inc.),
 the Gaussian(R) 98 system (copyright 1998, Gaussian, Inc.),
 the Gaussian(R) 94 system (copyright 1995, Gaussian, Inc.),
 the Gaussian 92(TM) system (copyright 1992, Gaussian, Inc.),
 the Gaussian 90(TM) system (copyright 1990, Gaussian, Inc.),
 the Gaussian 88(TM) system (copyright 1988, Gaussian, Inc.),
 the Gaussian 86(TM) system (copyright 1986, Carnegie Mellon
 University), and the Gaussian 82(TM) system (copyright 1983,
 Carnegie Mellon University). Gaussian is a federally registered
 trademark of Gaussian, Inc.
  
 This software contains proprietary and confidential information,
 including trade secrets, belonging to Gaussian, Inc.
  
 This software is provided under written license and may be
 used, copied, transmitted, or stored only in accord with that
 written license.
  
 The following legend is applicable only to US Government
 contracts under FAR:
  
                    RESTRICTED RIGHTS LEGEND
  
 Use, reproduction and disclosure by the US Government is
 subject to restrictions as set forth in subparagraphs (a)
 and (c) of the Commercial Computer Software - Restricted
 Rights clause in FAR 52.227-19.
  
 Gaussian, Inc.
 340 Quinnipiac St., Bldg. 40, Wallingford CT 06492
  
  
 ---------------------------------------------------------------
 Warning -- This program may not be used in any manner that
 competes with the business of Gaussian, Inc. or will provide
 assistance to any competitor of Gaussian, Inc.  The licensee
 of this program is prohibited from giving any competitor of
 Gaussian, Inc. access to this program.  By using this program,
 the user acknowledges that Gaussian, Inc. is engaged in the
 business of creating and licensing software in the field of
 computational chemistry and represents and warrants to the
 licensee that it is not a competitor of Gaussian, Inc. and that
 it will not use this program in any manner prohibited above.
 ---------------------------------------------------------------
  

 Cite this work as:
 Gaussian 16, Revision C.01,
 M. J. Frisch, G. W. Trucks, H. B. Schlegel, G. E. Scuseria, 
 M. A. Robb, J. R. Cheeseman, G. Scalmani, V. Barone, 
 G. A. Petersson, H. Nakatsuji, X. Li, M. Caricato, A. V. Marenich, 
 J. Bloino, B. G. Janesko, R. Gomperts, B. Mennucci, H. P. Hratchian, 
 J. V. Ortiz, A. F. Izmaylov, J. L. Sonnenberg, D. Williams-Young, 
 F. Ding, F. Lipparini, F. Egidi, J. Goings, B. Peng, A. Petrone, 
 T. Henderson, D. Ranasinghe, V. G. Zakrzewski, J. Gao, N. Rega, 
 G. Zheng, W. Liang, M. Hada, M. Ehara, K. Toyota, R. Fukuda, 
 J. Hasegawa, M. Ishida, T. Nakajima, Y. Honda, O. Kitao, H. Nakai, 
 T. Vreven, K. Throssell, J. A. Montgomery, Jr., J. E. Peralta, 
 F. Ogliaro, M. J. Bearpark, J. J. Heyd, E. N. Brothers, K. N. Kudin, 
 V. N. Staroverov, T. A. Keith, R. Kobayashi, J. Normand, 
 K. Raghavachari, A. P. Rendell, J. C. Burant, S. S. Iyengar, 
 J. Tomasi, M. Cossi, J. M. Millam, M. Klene, C. Adamo, R. Cammi, 
 J. W. Ochterski, R. L. Martin, K. Morokuma, O. Farkas, 
 J. B. Foresman, and D. J. Fox, Gaussian, Inc., Wallingford CT, 2019.
 
 ******************************************
 Gaussian 16:  ES64L-G16RevC.01  3-Jul-2019
                24-Jul-2024 
 ******************************************
 %LindaWorkers=c2-2-ib
 %NProcShared=4
 Will use up to    4 processors via shared memory.
 %mem=25GB
 %chk=a.chk
 SetLPE:    new flags="-opt 'Tsnet.Node.lindarsharg: ssh'  -nodelist 'c2-2-ib.saga' -env GAUSS_MDEF=3355443200 -env GAUSS_EXEDIR="/cluster/software/Gaussian/g16_C.01/bsd:/cluster/software/Gaussian/g16_C.01""
 Will use up to    1 processors via Linda.
 -----------------------
 #RHF/4-31G Pop=NBO7Read
 -----------------------
 1/38=1,163=2,172=1/1;
 2/12=2,17=6,18=5,40=1/2;
 3/5=1,11=1,25=1,30=1,116=1/1,2,3;
 4//1;
 5/5=2,38=5/2;
 6/7=2,8=2,9=2,10=2,28=1,40=2,113=1,114=1,124=2103/1,12;
 99/5=1,9=1/99;
 -----
 NBO-a
 -----
 Symbolic Z-matrix:
 Charge =  0 Multiplicity = 1
 Li                    0.        0.        0.03959 
 H                     0.        0.        1.55041 
 
                          Input orientation:                          
 ---------------------------------------------------------------------
 Center     Atomic      Atomic             Coordinates (Angstroms)
 Number     Number       Type             X           Y           Z
 ---------------------------------------------------------------------
      1          3           0        0.000000    0.000000    0.039594
      2          1           0        0.000000    0.000000    1.550406
 ---------------------------------------------------------------------
 Stoichiometry    HLi
 Framework group  C*V[C*(HLi)]
 Deg. of freedom     1
 Full point group                 C*V     NOp   4
 Largest Abelian subgroup         C2V     NOp   4
 Largest concise Abelian subgroup C1      NOp   1
                         Standard orientation:                         
 ---------------------------------------------------------------------
 Center     Atomic      Atomic             Coordinates (Angstroms)
 Number     Number       Type             X           Y           Z
 ---------------------------------------------------------------------
      1          3           0        0.000000    0.000000    0.377703
      2          1           0        0.000000    0.000000   -1.133109
 ---------------------------------------------------------------------
 Rotational constants (GHZ):           0.0000000         251.2482468         251.2482468
 Standard basis: 4-31G (6D, 7F)
 There are     7 symmetry adapted cartesian basis functions of A1  symmetry.
 There are     0 symmetry adapted cartesian basis functions of A2  symmetry.
 There are     2 symmetry adapted cartesian basis functions of B1  symmetry.
 There are     2 symmetry adapted cartesian basis functions of B2  symmetry.
 There are     7 symmetry adapted basis functions of A1  symmetry.
 There are     0 symmetry adapted basis functions of A2  symmetry.
 There are     2 symmetry adapted basis functions of B1  symmetry.
 There are     2 symmetry adapted basis functions of B2  symmetry.
    11 basis functions,    21 primitive gaussians,    11 cartesian basis functions
     2 alpha electrons        2 beta electrons
       nuclear repulsion energy         1.0507803967 Hartrees.
 NAtoms=    2 NActive=    2 NUniq=    2 SFac= 1.00D+00 NAtFMM=   60 NAOKFM=F Big=F
 Integral buffers will be    131072 words long.
 Raffenetti 1 integral format.
 Two-electron integral symmetry is turned on.
 One-electron integrals computed using PRISM.
 NBasis=    11 RedAO= T EigKep=  7.79D-02  NBF=     7     0     2     2
 NBsUse=    11 1.00D-06 EigRej= -1.00D+00 NBFU=     7     0     2     2
 ExpMin= 4.04D-02 ExpMax= 2.75D+02 ExpMxC= 4.14D+01 IAcc=3 IRadAn=         5 AccDes= 0.00D+00
 Harris functional with IExCor=  205 and IRadAn=       5 diagonalized for initial guess.
 HarFok:  IExCor=  205 AccDes= 0.00D+00 IRadAn=         5 IDoV= 1 UseB2=F ITyADJ=14
 ICtDFT=  3500011 ScaDFX=  1.000000  1.000000  1.000000  1.000000
 FoFCou: FMM=F IPFlag=           0 FMFlag=      100000 FMFlg1=           0
         NFxFlg=           0 DoJE=T BraDBF=F KetDBF=T FulRan=T
         wScrn=  0.000000 ICntrl=       500 IOpCl=  0 I1Cent=   200000004 NGrid=           0
         NMat0=    1 NMatS0=      1 NMatT0=    0 NMatD0=    1 NMtDS0=    0 NMtDT0=    0
 Petite list used in FoFCou.
 Initial guess orbital symmetries:
       Occupied  (SG) (SG)
       Virtual   (SG) (PI) (PI) (SG) (PI) (PI) (SG) (SG) (SG)
 The electronic state of the initial guess is 1-SG.
 Keep R1 ints in memory in symmetry-blocked form, NReq=805766.
 Requested convergence on RMS density matrix=1.00D-08 within 128 cycles.
 Requested convergence on MAX density matrix=1.00D-06.
 Requested convergence on             energy=1.00D-06.
 No special actions if energy rises.
 SCF Done:  E(RHF) =  -7.97519253546     A.U. after   10 cycles
            NFock= 10  Conv=0.25D-08     -V/T= 1.9915

 **********************************************************************

            Population analysis using the SCF Density.

 **********************************************************************

 Orbital symmetries:
       Occupied  (SG) (SG)
       Virtual   (SG) (PI) (PI) (SG) (PI) (PI) (SG) (SG) (SG)
 The electronic state is 1-SG.
 Alpha  occ. eigenvalues --   -2.44387  -0.30460
 Alpha virt. eigenvalues --    0.01618   0.06747   0.06747   0.16075   0.25196
 Alpha virt. eigenvalues --    0.25196   0.25274   0.41991   1.32799
          Condensed to atoms (all electrons):
               1          2
     1  Li   2.359711   0.382503
     2  H    0.382503   0.875283
 Mulliken charges:
               1
     1  Li   0.257786
     2  H   -0.257786
 Sum of Mulliken charges =  -0.00000
 Mulliken charges with hydrogens summed into heavy atoms:
               1
     1  Li  -0.000000
 Electronic spatial extent (au):  <R**2>=             18.9542
 Charge=             -0.0000 electrons
 Dipole moment (field-independent basis, Debye):
    X=              0.0000    Y=              0.0000    Z=              5.7096  Tot=              5.7096
 Quadrupole moment (field-independent basis, Debye-Ang):
   XX=             -5.2427   YY=             -5.2427   ZZ=             -6.7861
   XY=              0.0000   XZ=              0.0000   YZ=              0.0000
 Traceless Quadrupole moment (field-independent basis, Debye-Ang):
   XX=              0.5145   YY=              0.5145   ZZ=             -1.0289
   XY=              0.0000   XZ=              0.0000   YZ=              0.0000
 Octapole moment (field-independent basis, Debye-Ang**2):
  XXX=              0.0000  YYY=              0.0000  ZZZ=             12.7300  XYY=              0.0000
  XXY=              0.0000  XXZ=              3.6193  XZZ=              0.0000  YZZ=              0.0000
  YYZ=              3.6193  XYZ=              0.0000
 Hexadecapole moment (field-independent basis, Debye-Ang**3):
 XXXX=            -11.1474 YYYY=            -11.1474 ZZZZ=            -28.5241 XXXY=              0.0000
 XXXZ=              0.0000 YYYX=              0.0000 YYYZ=              0.0000 ZZZX=              0.0000
 ZZZY=              0.0000 XXYY=             -3.7158 XXZZ=             -6.3378 YYZZ=             -6.3378
 XXYZ=              0.0000 YYXZ=              0.0000 ZZXY=              0.0000
 N-N= 1.050780396740D+00 E-N=-2.059844020304D+01  KE= 8.043430880100D+00
 Symmetry A1   KE= 8.043430880100D+00
 Symmetry A2   KE= 0.000000000000D+00
 Symmetry B1   KE= 0.000000000000D+00
 Symmetry B2   KE= 0.000000000000D+00
 Running external command "gaunbo7 R"
         input file       "/cluster/work/users/beto93/LiH/Gau-1873854.EIn"
         output file      "/cluster/work/users/beto93/LiH/Gau-1873854.EOu"
         message file     "/cluster/work/users/beto93/LiH/Gau-1873854.EMs"
         fchk file        "/cluster/work/users/beto93/LiH/Gau-1873854.EFC"
         mat. el file     "/cluster/work/users/beto93/LiH/Gau-1873854.EUF"

 Writing WrtUnf unformatted file "/cluster/work/users/beto93/LiH/Gau-1873854.EUF"
 Gaussian matrix elements                                         Version   2 NLab=11 Len12L=8 Len4L=8
 Write SHELL TO ATOM MAP                   from file      0 offset           0 length                   5 to matrix element file.
 Write SHELL TYPES                         from file      0 offset           0 length                   5 to matrix element file.
 Write NUMBER OF PRIMITIVES PER SHELL      from file      0 offset           0 length                   5 to matrix element file.
 Write PRIMITIVE EXPONENTS                 from file      0 offset           0 length                  12 to matrix element file.
 Write CONTRACTION COEFFICIENTS            from file      0 offset           0 length                  12 to matrix element file.
 Write P(S=P) CONTRACTION COEFFICIENTS     from file      0 offset           0 length                  12 to matrix element file.
 Write COORDINATES OF EACH SHELL           from file      0 offset           0 length                  15 to matrix element file.
 Write BONDS PER ATOM                      from file      0 offset           0 length                   2 to matrix element file.
 Write BONDED ATOMS                        from file      0 offset           0 length                   2 to matrix element file.
 Write BOND TYPES                          from file      0 offset           0 length                   2 to matrix element file.
 Write ONIOM CHARGE/MULT                   from file      0 offset           0 length                  32 to matrix element file.
 Write ONIOM ATOM LAYERS                   from file      0 offset           0 length                   2 to matrix element file.
 Write ONIOM ATOM MODIFIERS                from file      0 offset           0 length                   2 to matrix element file.
 Write ONIOM ATOM TYPES                    from file      0 offset           0 length                   2 to matrix element file.
 Write ONIOM LINK ATOMS                    from file      0 offset           0 length                   2 to matrix element file.
 Write ONIOM LINK CHARGES                  from file      0 offset           0 length                   2 to matrix element file.
 Write ONIOM LINK DISTANCES                from file      0 offset           0 length                   8 to matrix element file.
 Write SYMINF INTS                         from file      0 offset           0 length                  26 to matrix element file.
 Write ROTTR TO SO                         from file      0 offset           0 length                  12 to matrix element file.
 Write GAUSSIAN SCALARS                    from file    501 offset           0 to matrix element file.
 Write OPTIMIZATION FLAGS                  from file      0 offset           0 length                   2 to matrix element file.
 Write INTEGER ISO                         from file      0 offset           0 length                   2 to matrix element file.
 Write INTEGER SPIN                        from file      0 offset           0 length                   2 to matrix element file.
 Write REAL ZEFFECTIVE                     from file      0 offset           0 length                   2 to matrix element file.
 Write REAL QUADRUPOLEMOMENT               from file      0 offset           0 length                   2 to matrix element file.
 Write REAL GFACTOR                        from file      0 offset           0 length                   2 to matrix element file.
 Write REAL ZNUCLEAR                       from file      0 offset           0 length                   2 to matrix element file.
 Write MULLIKEN CHARGES                    from file      0 offset           0 length                   2 to matrix element file.
 Write NUCLEAR GRADIENT                    from file  10584 offset           0 length                   6 to matrix element file.
 Array NUCLEAR FORCE CONSTANTS              on  file  10585 does not exist.
 Write ELECTRIC DIPOLE MOMENT              from file      0 offset           0 length                   3 to matrix element file.
 Write NON-ADIABATIC COUPLING              from file  10810 offset           0 length                   6 to matrix element file.
 Write FINITE EM FIELD                     from file  10521 offset           0 length                  35 to matrix element file.
 Write OVERLAP                             from file  10514 offset           0 length                  66 to matrix element file.
 Write CORE HAMILTONIAN ALPHA              from file  10515 offset           0 length                  66 to matrix element file.
 Write CORE HAMILTONIAN BETA               from file  10515 offset          66 length                  66 to matrix element file.
 Write KINETIC ENERGY                      from file  10516 offset           0 length                  66 to matrix element file.
 Write ORTHOGONAL BASIS                    from file  10685 offset           0 length                 121 to matrix element file.
 Write DIPOLE INTEGRALS                    from file  10518 offset           0 length                 198 to matrix element file.
 Array DIP VEL INTEGRALS                    on  file  10572 does not exist.
 Array R X DEL INTEGRALS                    on  file  10572 does not exist.
 Write ALPHA ORBITAL ENERGIES              from file      0 offset           0 length                  11 to matrix element file.
 Write ALPHA MO COEFFICIENTS               from file  10524 offset           0 length                 121 to matrix element file.
 Write ALPHA DENSITY MATRIX                from file      0 offset           0 length                  66 to matrix element file.
 Write ALPHA FOCK MATRIX                   from file  10536 offset           0 length                  66 to matrix element file.
 Write ENERGY-WEIGHTED DENSITY             from file  10571 offset           0 length                  66 to matrix element file.
 Write ALPHA SCF DENSITY MATRIX            from file      0 offset           0 length                  66 to matrix element file.
 No 2e integrals to process.
 Perform NBO analysis...executing G16NBO...

 *********************************** NBO 7.0 ***********************************
             N A T U R A L   A T O M I C   O R B I T A L   A N D
          N A T U R A L   B O N D   O R B I T A L   A N A L Y S I S
 **************************** Espen Tangen (S101595) ***************************
  (c) Copyright 1996-2021 Board of Regents of the University of Wisconsin System
      on behalf of the Theoretical Chemistry Institute.  All rights reserved.

          Cite this program [NBO 7.0.10 (8-Feb-2021)] as:

          NBO 7.0.  E. D. Glendening, J. K. Badenhoop, A. E. Reed,
          J. E. Carpenter, J. A. Bohmann, C. M. Morales, P. Karafiloglou,
          C. R. Landis, and F. Weinhold, Theoretical Chemistry Institute,
          University of Wisconsin, Madison, WI (2018)

       /NPA    / : Natural Population Analysis
       /AOPNAO / : Print the AO to PNAO transformation
       /AONAO  / : Print the AO to NAO transformation
       /AONO   / : Print the NOs in the AO basis
       /AOMO   / : Print the MOs in the AO basis
       /BOAO   / : Print the AO bond-order matrix
       /DMAO   / : Print the AO density matrix
       /DMPNAO / : Print the PNAO density matrix
       /DMNAO  / : Print the NAO density matrix
       /DMMO   / : Print the MO density matrix
       /SAO    / : Print the AO overlap matrix
       /SPNAO  / : Print the PNAO overlap matrix
       /DETAIL / : Write details of NBO search
       /ARCHIVE/ : Write the archive file to lfn47
       /AOINFO / : Write AO information to lfn31
       /FILE   / : Set to inpGenNbo

 Filename set to inpGenNbo

 Job title: NBO-a


 MOs in the AO basis:

           AO          1       2       3       4       5       6       7       8
      ------------ ------- ------- ------- ------- ------- ------- ------- -------
   1. Li 1 (s)      0.9983 -0.1454 -0.1503  0.0000  0.0000  0.0456  0.0000  0.0000
   2. Li 1 (s)      0.0295  0.1808 -0.1399  0.0000  0.0000  0.1139  0.0000  0.0000
   3. Li 1 (px)     0.0000  0.0000  0.0000 -0.0016  0.0000  0.0000  1.7073  0.0000
   4. Li 1 (py)     0.0000  0.0000  0.0000  0.0000 -0.0016  0.0000  0.0000  1.7073
   5. Li 1 (pz)     0.0097 -0.2289  0.1545  0.0000  0.0000 -0.5896  0.0000  0.0000
   6. Li 1 (s)     -0.0155  0.1813  0.8844  0.0000  0.0000 -0.8398  0.0000  0.0000
   7. Li 1 (px)     0.0000  0.0000  0.0000  1.0013  0.0000  0.0000 -1.3828  0.0000
   8. Li 1 (py)     0.0000  0.0000  0.0000  0.0000  1.0013  0.0000  0.0000 -1.3828
   9. Li 1 (pz)    -0.0058  0.0004  0.5260  0.0000  0.0000  1.3688  0.0000  0.0000
  10.  H 2 (s)      0.0039  0.2984 -0.0565  0.0000  0.0000  0.0968  0.0000  0.0000
  11.  H 2 (s)      0.0024  0.4258 -0.0741  0.0000  0.0000  0.6850  0.0000  0.0000

           AO          9      10      11
      ------------ ------- ------- -------
   1. Li 1 (s)     -0.0404  0.1332 -0.1335
   2. Li 1 (s)     -1.6520  2.0355 -0.3229
   3. Li 1 (px)     0.0000  0.0000  0.0000
   4. Li 1 (py)     0.0000  0.0000  0.0000
   5. Li 1 (pz)    -1.2647 -1.6575  0.2619
   6. Li 1 (s)      1.8858 -0.9694 -0.3134
   7. Li 1 (px)     0.0000  0.0000  0.0000
   8. Li 1 (py)     0.0000  0.0000  0.0000
   9. Li 1 (pz)     0.6599  0.5523  0.2992
  10.  H 2 (s)      0.0124 -0.0804 -1.4014
  11.  H 2 (s)     -0.5823 -1.5013  1.8386


 NOs in the AO basis:

           AO          1       2       3       4       5       6       7       8
      ------------ ------- ------- ------- ------- ------- ------- ------- -------
   1. Li 1 (s)      1.0042  0.0961  0.0941 -0.0003  0.0000  0.0000  0.0333  0.0087
   2. Li 1 (s)     -0.0144  0.1826 -0.7302  0.0023  0.0000  0.0000  0.7758  0.7056
   3. Li 1 (px)     0.0000  0.0000 -0.0453  0.0001  1.3757 -0.1490  0.0548 -0.8134
   4. Li 1 (py)     0.0000  0.0000 -0.0031 -1.0000  0.1490  1.3757  0.0000  0.0000
   5. Li 1 (pz)     0.0638 -0.2200 -0.7132  0.0022  0.0000  0.0000 -0.5505 -0.8363
   6. Li 1 (s)     -0.0582  0.1724 -0.2880  0.0009  0.0000  0.0000 -0.7097 -0.3311
   7. Li 1 (px)     0.0000  0.0000  0.0000  0.0000 -1.6973  0.1838  0.0000  0.0000
   8. Li 1 (py)     0.0000  0.0000  0.0000  0.0000 -0.1838 -1.6973  0.0000  0.0000
   9. Li 1 (pz)    -0.0057 -0.0010  0.5786 -0.0018  0.0000  0.0000  1.2593  0.4898
  10.  H 2 (s)     -0.0671  0.2908  0.0085  0.0000  0.0000  0.0000  0.3890 -0.4704
  11.  H 2 (s)     -0.0989  0.4141  0.5089 -0.0016  0.0000  0.0000 -0.1121 -0.1981

           AO          9      10      11
      ------------ ------- ------- -------
   1. Li 1 (s)      0.0018  0.0092  0.2275
   2. Li 1 (s)     -0.9982 -0.6591  1.9863
   3. Li 1 (px)     0.0088 -0.5736  0.0650
   4. Li 1 (py)     0.0000  0.0000  0.0000
   5. Li 1 (pz)    -1.2404  1.0859 -0.7471
   6. Li 1 (s)      1.9214  0.3109 -1.2637
   7. Li 1 (px)     0.0000  0.0000  0.0000
   8. Li 1 (py)     0.0000  0.0000  0.0000
   9. Li 1 (pz)     0.4053 -0.6659 -0.4605
  10.  H 2 (s)      0.6410  0.7983  0.7499
  11.  H 2 (s)     -1.6571 -0.0042 -1.8415


 AO overlap matrix:

           AO          1       2       3       4       5       6       7       8
      ------------ ------- ------- ------- ------- ------- ------- ------- -------
   1. Li 1 (s)      1.0000  0.1397  0.0000  0.0000  0.0000  0.1972  0.0000  0.0000
   2. Li 1 (s)      0.1397  1.0000  0.0000  0.0000  0.0000  0.9100  0.0000  0.0000
   3. Li 1 (px)     0.0000  0.0000  1.0000  0.0000  0.0000  0.0000  0.8105  0.0000
   4. Li 1 (py)     0.0000  0.0000  0.0000  1.0000  0.0000  0.0000  0.0000  0.8105
   5. Li 1 (pz)     0.0000  0.0000  0.0000  0.0000  1.0000  0.0000  0.0000  0.0000
   6. Li 1 (s)      0.1972  0.9100  0.0000  0.0000  0.0000  1.0000  0.0000  0.0000
   7. Li 1 (px)     0.0000  0.0000  0.8105  0.0000  0.0000  0.0000  1.0000  0.0000
   8. Li 1 (py)     0.0000  0.0000  0.0000  0.8105  0.0000  0.0000  0.0000  1.0000
   9. Li 1 (pz)     0.0000  0.0000  0.0000  0.0000  0.8105  0.0000  0.0000  0.0000
  10.  H 2 (s)      0.0268  0.2638  0.0000  0.0000 -0.3754  0.2142  0.0000  0.0000
  11.  H 2 (s)      0.1518  0.5873  0.0000  0.0000 -0.6389  0.5505  0.0000  0.0000

           AO          9      10      11
      ------------ ------- ------- -------
   1. Li 1 (s)      0.0000  0.0268  0.1518
   2. Li 1 (s)      0.0000  0.2638  0.5873
   3. Li 1 (px)     0.0000  0.0000  0.0000
   4. Li 1 (py)     0.0000  0.0000  0.0000
   5. Li 1 (pz)     0.8105 -0.3754 -0.6389
   6. Li 1 (s)      0.0000  0.2142  0.5505
   7. Li 1 (px)     0.0000  0.0000  0.0000
   8. Li 1 (py)     0.0000  0.0000  0.0000
   9. Li 1 (pz)     1.0000 -0.2323 -0.5054
  10.  H 2 (s)     -0.2323  1.0000  0.6583
  11.  H 2 (s)     -0.5054  0.6583  1.0000


 AO bond-order matrix:

           AO          1       2       3       4       5       6       7       8
      ------------ ------- ------- ------- ------- ------- ------- ------- -------
   1. Li 1 (s)      2.0354  0.0062  0.0000  0.0000  0.0859 -0.0836  0.0000  0.0000
   2. Li 1 (s)      0.0062  0.0671  0.0000  0.0000 -0.0822  0.0646  0.0000  0.0000
   3. Li 1 (px)     0.0000  0.0000  0.0000  0.0000  0.0000  0.0000  0.0000  0.0000
   4. Li 1 (py)     0.0000  0.0000  0.0000  0.0000  0.0000  0.0000  0.0000  0.0000
   5. Li 1 (pz)     0.0859 -0.0822  0.0000  0.0000  0.1050 -0.0833  0.0000  0.0000
   6. Li 1 (s)     -0.0836  0.0646  0.0000  0.0000 -0.0833  0.0662  0.0000  0.0000
   7. Li 1 (px)     0.0000  0.0000  0.0000  0.0000  0.0000  0.0000  0.0000  0.0000
   8. Li 1 (py)     0.0000  0.0000  0.0000  0.0000  0.0000  0.0000  0.0000  0.0000
   9. Li 1 (pz)    -0.0117 -0.0002  0.0000  0.0000 -0.0003  0.0003  0.0000  0.0000
  10.  H 2 (s)     -0.0790  0.1081  0.0000  0.0000 -0.1365  0.1081  0.0000  0.0000
  11.  H 2 (s)     -0.1190  0.1541  0.0000  0.0000 -0.1949  0.1543  0.0000  0.0000

           AO          9      10      11
      ------------ ------- ------- -------
   1. Li 1 (s)     -0.0117 -0.0790 -0.1190
   2. Li 1 (s)     -0.0002  0.1081  0.1541
   3. Li 1 (px)     0.0000  0.0000  0.0000
   4. Li 1 (py)     0.0000  0.0000  0.0000
   5. Li 1 (pz)    -0.0003 -0.1365 -0.1949
   6. Li 1 (s)      0.0003  0.1081  0.1543
   7. Li 1 (px)     0.0000  0.0000  0.0000
   8. Li 1 (py)     0.0000  0.0000  0.0000
   9. Li 1 (pz)     0.0001  0.0002  0.0003
  10.  H 2 (s)      0.0002  0.1781  0.2541
  11.  H 2 (s)      0.0003  0.2541  0.3626


 AO density matrix:

           AO          1       2       3       4       5       6       7       8
      ------------ ------- ------- ------- ------- ------- ------- ------- -------
   1. Li 1 (s)      1.9995  0.2990  0.0000  0.0000  0.0184  0.4060  0.0000  0.0000
   2. Li 1 (s)      0.2990  0.9054  0.0000  0.0000 -0.8010  0.8714  0.0000  0.0000
   3. Li 1 (px)     0.0000  0.0000  0.0000  0.0000  0.0000  0.0000  0.0000  0.0000
   4. Li 1 (py)     0.0000  0.0000  0.0000  0.0000  0.0000  0.0000  0.0000  0.0000
   5. Li 1 (pz)     0.0184 -0.8010  0.0000  0.0000  0.7507 -0.7533  0.0000  0.0000
   6. Li 1 (s)      0.4060  0.8714  0.0000  0.0000 -0.7533  0.8459  0.0000  0.0000
   7. Li 1 (px)     0.0000  0.0000  0.0000  0.0000  0.0000  0.0000  0.0000  0.0000
   8. Li 1 (py)     0.0000  0.0000  0.0000  0.0000  0.0000  0.0000  0.0000  0.0000
   9. Li 1 (pz)     0.0109 -0.6146  0.0000  0.0000  0.5755 -0.5782  0.0000  0.0000
  10.  H 2 (s)      0.0513  0.9884  0.0000  0.0000 -0.9154  0.9341  0.0000  0.0000
  11.  H 2 (s)      0.3016  1.2968  0.0000  0.0000 -1.1661  1.2401  0.0000  0.0000

           AO          9      10      11
      ------------ ------- ------- -------
   1. Li 1 (s)      0.0109  0.0513  0.3016
   2. Li 1 (s)     -0.6146  0.9884  1.2968
   3. Li 1 (px)     0.0000  0.0000  0.0000
   4. Li 1 (py)     0.0000  0.0000  0.0000
   5. Li 1 (pz)     0.5755 -0.9154 -1.1661
   6. Li 1 (s)     -0.5782  0.9341  1.2401
   7. Li 1 (px)     0.0000  0.0000  0.0000
   8. Li 1 (py)     0.0000  0.0000  0.0000
   9. Li 1 (pz)     0.4412 -0.7019 -0.8945
  10.  H 2 (s)     -0.7019  1.1189  1.4340
  11.  H 2 (s)     -0.8945  1.4340  1.8658


 MO density matrix:

      MO     1       2       3       4       5       6       7       8       9
     ---- ------  ------  ------  ------  ------  ------  ------  ------  ------
   1.     2.0000  0.0000  0.0000  0.0000  0.0000  0.0000  0.0000  0.0000  0.0000
   2.     0.0000  2.0000  0.0000  0.0000  0.0000  0.0000  0.0000  0.0000  0.0000
   3.     0.0000  0.0000  0.0000  0.0000  0.0000  0.0000  0.0000  0.0000  0.0000
   4.     0.0000  0.0000  0.0000  0.0000  0.0000  0.0000  0.0000  0.0000  0.0000
   5.     0.0000  0.0000  0.0000  0.0000  0.0000  0.0000  0.0000  0.0000  0.0000
   6.     0.0000  0.0000  0.0000  0.0000  0.0000  0.0000  0.0000  0.0000  0.0000
   7.     0.0000  0.0000  0.0000  0.0000  0.0000  0.0000  0.0000  0.0000  0.0000
   8.     0.0000  0.0000  0.0000  0.0000  0.0000  0.0000  0.0000  0.0000  0.0000
   9.     0.0000  0.0000  0.0000  0.0000  0.0000  0.0000  0.0000  0.0000  0.0000
  10.     0.0000  0.0000  0.0000  0.0000  0.0000  0.0000  0.0000  0.0000  0.0000
  11.     0.0000  0.0000  0.0000  0.0000  0.0000  0.0000  0.0000  0.0000  0.0000

      MO    10      11
     ---- ------  ------
   1.     0.0000  0.0000
   2.     0.0000  0.0000
   3.     0.0000  0.0000
   4.     0.0000  0.0000
   5.     0.0000  0.0000
   6.     0.0000  0.0000
   7.     0.0000  0.0000
   8.     0.0000  0.0000
   9.     0.0000  0.0000
  10.     0.0000  0.0000
  11.     0.0000  0.0000


 NATURAL POPULATIONS:  Natural atomic orbital occupancies

  NAO Atom No lang   Type(AO)    Occupancy      Energy
 -------------------------------------------------------
   1   Li  1  s      Cor( 1s)     1.99994      -2.44378
   2   Li  1  s      Val( 2s)     0.22553       0.03649
   3   Li  1  s      Ryd( 3s)     0.00000       0.28740
   4   Li  1  px     Ryd( 2p)     0.00000       0.11512
   5   Li  1  px     Ryd( 3p)     0.00000       0.20431
   6   Li  1  py     Ryd( 2p)     0.00000       0.11512
   7   Li  1  py     Ryd( 3p)     0.00000       0.20431
   8   Li  1  pz     Ryd( 2p)     0.03179       0.31670
   9   Li  1  pz     Ryd( 3p)     0.00002       0.23622

  10    H  2  s      Val( 1s)     1.74270      -0.24370
  11    H  2  s      Ryd( 2s)     0.00001       1.23976


 Summary of Natural Population Analysis:

                                     Natural Population
             Natural    ---------------------------------------------
  Atom No    Charge        Core      Valence    Rydberg      Total
 --------------------------------------------------------------------
   Li  1    0.74272      1.99994     0.22553    0.03181     2.25728
    H  2   -0.74272      0.00000     1.74270    0.00001     1.74272
 ====================================================================
 * Total *  0.00000      1.99994     1.96824    0.03182     4.00000

                                 Natural Population
 ---------------------------------------------------------
   Core                       1.99994 ( 99.9970% of    2)
   Valence                    1.96824 ( 98.4118% of    2)
   Natural Minimal Basis      3.96818 ( 99.2044% of    4)
   Natural Rydberg Basis      0.03182 (  0.7956% of    4)
 ---------------------------------------------------------

    Atom No         Natural Electron Configuration
 ----------------------------------------------------------------------------
     Li  1      [core]2s( 0.23)2p( 0.03)
      H  2            1s( 1.74)


 PNAOs in the AO basis:

           AO          1       2       3       4       5       6       7       8
      ------------ ------- ------- ------- ------- ------- ------- ------- -------
   1. Li 1 (s)      0.9985 -0.1745 -0.1516  0.0000  0.0000  0.0000  0.0000  0.0000
   2. Li 1 (s)      0.0319  0.7822 -2.2938  0.0000  0.0000  0.0000  0.0000  0.0000
   3. Li 1 (px)     0.0000  0.0000  0.0000  1.1006 -1.3052  0.0000  0.0000  0.0000
   4. Li 1 (py)     0.0000  0.0000  0.0000  0.0000  0.0000  1.1006 -1.3052  0.0000
   5. Li 1 (pz)     0.0000  0.0000  0.0000  0.0000  0.0000  0.0000  0.0000  1.1006
   6. Li 1 (s)     -0.0161  0.2471  2.4354  0.0000  0.0000  0.0000  0.0000  0.0000
   7. Li 1 (px)     0.0000  0.0000  0.0000 -0.1275  1.7025  0.0000  0.0000  0.0000
   8. Li 1 (py)     0.0000  0.0000  0.0000  0.0000  0.0000 -0.1275  1.7025  0.0000
   9. Li 1 (pz)     0.0000  0.0000  0.0000  0.0000  0.0000  0.0000  0.0000 -0.1275
  10.  H 2 (s)      0.0000  0.0000  0.0000  0.0000  0.0000  0.0000  0.0000  0.0000
  11.  H 2 (s)      0.0000  0.0000  0.0000  0.0000  0.0000  0.0000  0.0000  0.0000

           AO          9      10      11
      ------------ ------- ------- -------
   1. Li 1 (s)      0.0000  0.0000  0.0000
   2. Li 1 (s)      0.0000  0.0000  0.0000
   3. Li 1 (px)     0.0000  0.0000  0.0000
   4. Li 1 (py)     0.0000  0.0000  0.0000
   5. Li 1 (pz)    -1.3052  0.0000  0.0000
   6. Li 1 (s)      0.0000  0.0000  0.0000
   7. Li 1 (px)     0.0000  0.0000  0.0000
   8. Li 1 (py)     0.0000  0.0000  0.0000
   9. Li 1 (pz)     1.7025  0.0000  0.0000
  10.  H 2 (s)      0.0000  0.1956  1.3140
  11.  H 2 (s)      0.0000  0.8604 -1.0122


 PNAO overlap matrix:

           NAO         1       2       3       4       5       6       7       8
      ------------ ------- ------- ------- ------- ------- ------- ------- -------
   1. Li 1( 1s )    1.0000  0.0000  0.0000  0.0000  0.0000  0.0000  0.0000  0.0000
   2. Li 1( 2s )    0.0000  1.0000  0.0000  0.0000  0.0000  0.0000  0.0000  0.0000
   3. Li 1( 3s )    0.0000  0.0000  1.0000  0.0000  0.0000  0.0000  0.0000  0.0000
   4. Li 1( 2px)    0.0000  0.0000  0.0000  1.0000  0.0000  0.0000  0.0000  0.0000
   5. Li 1( 3px)    0.0000  0.0000  0.0000  0.0000  1.0000  0.0000  0.0000  0.0000
   6. Li 1( 2py)    0.0000  0.0000  0.0000  0.0000  0.0000  1.0000  0.0000  0.0000
   7. Li 1( 3py)    0.0000  0.0000  0.0000  0.0000  0.0000  0.0000  1.0000  0.0000
   8. Li 1( 2pz)    0.0000  0.0000  0.0000  0.0000  0.0000  0.0000  0.0000  1.0000
   9. Li 1( 3pz)    0.0000  0.0000  0.0000  0.0000  0.0000  0.0000  0.0000  0.0000
  10.  H 2( 1s )    0.1451  0.5393 -0.0424  0.0000  0.0000  0.0000  0.0000 -0.6245
  11.  H 2( 2s )   -0.1217 -0.2413 -0.0854  0.0000  0.0000  0.0000  0.0000  0.1424

           NAO         9      10      11
      ------------ ------- ------- -------
   1. Li 1( 1s )    0.0000  0.1451 -0.1217
   2. Li 1( 2s )    0.0000  0.5393 -0.2413
   3. Li 1( 3s )    0.0000 -0.0424 -0.0854
   4. Li 1( 2px)    0.0000  0.0000  0.0000
   5. Li 1( 3px)    0.0000  0.0000  0.0000
   6. Li 1( 2py)    0.0000  0.0000  0.0000
   7. Li 1( 3py)    0.0000  0.0000  0.0000
   8. Li 1( 2pz)    0.0000 -0.6245  0.1424
   9. Li 1( 3pz)    1.0000 -0.0044  0.1511
  10.  H 2( 1s )   -0.0044  1.0000  0.0000
  11.  H 2( 2s )    0.1511  0.0000  1.0000


 PNAO density matrix:

           NAO         1       2       3       4       5       6       7       8
      ------------ ------- ------- ------- ------- ------- ------- ------- -------
   1. Li 1( 1s )    1.9999  0.0000  0.0000  0.0000  0.0000  0.0000  0.0000  0.0053
   2. Li 1( 2s )    0.0000  0.8867  0.0000  0.0000  0.0000  0.0000  0.0000 -0.8182
   3. Li 1( 3s )    0.0000  0.0000  0.0000  0.0000  0.0000  0.0000  0.0000  0.0000
   4. Li 1( 2px)    0.0000  0.0000  0.0000  0.0000  0.0000  0.0000  0.0000  0.0000
   5. Li 1( 3px)    0.0000  0.0000  0.0000  0.0000  0.0000  0.0000  0.0000  0.0000
   6. Li 1( 2py)    0.0000  0.0000  0.0000  0.0000  0.0000  0.0000  0.0000  0.0000
   7. Li 1( 3py)    0.0000  0.0000  0.0000  0.0000  0.0000  0.0000  0.0000  0.0000
   8. Li 1( 2pz)    0.0053 -0.8182  0.0000  0.0000  0.0000  0.0000  0.0000  0.7549
   9. Li 1( 3pz)   -0.0054  0.0000  0.0000  0.0000  0.0000  0.0000  0.0000  0.0000
  10.  H 2( 1s )    0.2908  1.2857  0.0000  0.0000  0.0000  0.0000  0.0000 -1.1855
  11.  H 2( 2s )   -0.2376  0.0238  0.0000  0.0000  0.0000  0.0000  0.0000 -0.0226

           NAO         9      10      11
      ------------ ------- ------- -------
   1. Li 1( 1s )   -0.0054  0.2908 -0.2376
   2. Li 1( 2s )    0.0000  1.2857  0.0238
   3. Li 1( 3s )    0.0000  0.0000  0.0000
   4. Li 1( 2px)    0.0000  0.0000  0.0000
   5. Li 1( 3px)    0.0000  0.0000  0.0000
   6. Li 1( 2py)    0.0000  0.0000  0.0000
   7. Li 1( 3py)    0.0000  0.0000  0.0000
   8. Li 1( 2pz)    0.0000 -1.1855 -0.0226
   9. Li 1( 3pz)    0.0000 -0.0008  0.0006
  10.  H 2( 1s )   -0.0008  1.9065  0.0000
  11.  H 2( 2s )    0.0006  0.0000  0.0289


 NAOs in the AO basis:

           AO          1       2       3       4       5       6       7       8
      ------------ ------- ------- ------- ------- ------- ------- ------- -------
   1. Li 1 (s)      0.9985 -0.1540 -0.1351  0.0000  0.0000  0.0000  0.0000 -0.1158
   2. Li 1 (s)      0.0319  0.6471 -2.4150  0.0000  0.0000  0.0000  0.0000 -0.7983
   3. Li 1 (px)     0.0000  0.0000  0.0000  0.8663 -1.4712  0.0000  0.0000  0.0000
   4. Li 1 (py)     0.0000  0.0000  0.0000  0.0000  0.0000  0.8663 -1.4712  0.0000
   5. Li 1 (pz)     0.0000  0.0030  0.0259  0.0000  0.0000  0.0000  0.0000  1.6717
   6. Li 1 (s)     -0.0161  0.5666  2.3907  0.0000  0.0000  0.0000  0.0000 -0.1992
   7. Li 1 (px)     0.0000  0.0000  0.0000  0.1596  1.6998  0.0000  0.0000  0.0000
   8. Li 1 (py)     0.0000  0.0000  0.0000  0.0000  0.0000  0.1596  1.6998  0.0000
   9. Li 1 (pz)     0.0000 -0.0005 -0.0047  0.0000  0.0000  0.0000  0.0000  0.0223
  10.  H 2 (s)      0.0000 -0.0809  0.0896  0.0000  0.0000  0.0000  0.0000 -0.2054
  11.  H 2 (s)      0.0000 -0.3949  0.0565  0.0000  0.0000  0.0000  0.0000  1.7912

           AO          9      10      11
      ------------ ------- ------- -------
   1. Li 1 (s)     -0.0110 -0.1152  0.1172
   2. Li 1 (s)      0.0051 -0.1469  0.3632
   3. Li 1 (px)     0.0000  0.0000  0.0000
   4. Li 1 (py)     0.0000  0.0000  0.0000
   5. Li 1 (pz)    -1.4030 -0.0208 -0.2749
   6. Li 1 (s)     -0.0360 -0.0366  0.1889
   7. Li 1 (px)     0.0000  0.0000  0.0000
   8. Li 1 (py)     0.0000  0.0000  0.0000
   9. Li 1 (pz)     1.7255  0.0037  0.0496
  10.  H 2 (s)     -0.2414  0.3211  1.3617
  11.  H 2 (s)      0.1574  0.8400 -1.5911


 NAO density matrix:

           NAO         1       2       3       4       5       6       7       8
      ------------ ------- ------- ------- ------- ------- ------- ------- -------
   1. Li 1( 1s )    1.9999 -0.0002  0.0005  0.0000  0.0000  0.0000  0.0000  0.0068
   2. Li 1( 2s )   -0.0002  0.2255  0.0000  0.0000  0.0000  0.0000  0.0000 -0.0846
   3. Li 1( 3s )    0.0005  0.0000  0.0000  0.0000  0.0000  0.0000  0.0000  0.0000
   4. Li 1( 2px)    0.0000  0.0000  0.0000  0.0000  0.0000  0.0000  0.0000  0.0000
   5. Li 1( 3px)    0.0000  0.0000  0.0000  0.0000  0.0000  0.0000  0.0000  0.0000
   6. Li 1( 2py)    0.0000  0.0000  0.0000  0.0000  0.0000  0.0000  0.0000  0.0000
   7. Li 1( 3py)    0.0000  0.0000  0.0000  0.0000  0.0000  0.0000  0.0000  0.0000
   8. Li 1( 2pz)    0.0068 -0.0846  0.0000  0.0000  0.0000  0.0000  0.0000  0.0318
   9. Li 1( 3pz)   -0.0069 -0.0001  0.0000  0.0000  0.0000  0.0000  0.0000  0.0000
  10.  H 2( 1s )    0.0010  0.6269  0.0000  0.0000  0.0000  0.0000  0.0000 -0.2353
  11.  H 2( 2s )    0.0049  0.0000  0.0000  0.0000  0.0000  0.0000  0.0000  0.0000

           NAO         9      10      11
      ------------ ------- ------- -------
   1. Li 1( 1s )   -0.0069  0.0010  0.0049
   2. Li 1( 2s )   -0.0001  0.6269  0.0000
   3. Li 1( 3s )    0.0000  0.0000  0.0000
   4. Li 1( 2px)    0.0000  0.0000  0.0000
   5. Li 1( 3px)    0.0000  0.0000  0.0000
   6. Li 1( 2py)    0.0000  0.0000  0.0000
   7. Li 1( 3py)    0.0000  0.0000  0.0000
   8. Li 1( 2pz)    0.0000 -0.2353  0.0000
   9. Li 1( 3pz)    0.0000 -0.0002  0.0000
  10.  H 2( 1s )   -0.0002  1.7427  0.0000
  11.  H 2( 2s )    0.0000  0.0000  0.0000


 NATURAL BOND ORBITAL ANALYSIS:

 Initiate 2-center NBO search using THRESH = 1.900 and PRJTHR = 0.300

 Search of NAO DM block for core orbitals on atom:   1
      Eigenvector ( 1) has occupancy 1.99994
            1.0000 0.0000 0.0000 0.0000 0.0000 0.0000 0.0000 0.0000
            0.0000
        1 eigenvector(s) stashed in permanent list

 Core orbitals projected from the NAO density matrix
       2.000 electrons remain (>1.900); search continues

 Search of NAO DM block for the following atom(s):   2
      Select eigenvectors with eigenvalue > 1.900
       1.743 0.000

 No NHOs identified in the 1-center search of the NAO density matrix
       2.000 electrons remain (>1.900); search continues

 Search of NAO DM block for the following atom(s):   1   2
      Select eigenvectors with eigenvalue > 1.900
       2.000 0.000 0.000 0.000 0.000 0.000 0.000 0.000 0.000 0.000 0.000
      Eigenvector ( 1) has occupancy 2.00000
            0.0000 0.3358 0.0000 0.0000 0.0000 0.0000 0.0000-0.1260
           -0.0001 0.9335 0.0000
      1 hybrid on atom 1 stashed in prospective list
      1 hybrid on atom 2 stashed in prospective list

 Stash prospective hybrids having projection expectation value > 0.300
       1.000 1.000
      0 hybrids eliminated in 1 pass
      2 hybrids moved from prospective to permanent list

 NHOs of 2-center eigenvectors projected from the NAO density matrix
       0.000 electrons remain in the fully projected matrix

 Search of NHO DM block for the following atom(s):   1
      Select eigenvectors with eigenvalue > 1.900
       2.000 0.000 0.000 0.000 0.000 0.000 0.000 0.000 0.000
      Eigenvector ( 1) has occupancy 1.99994
            1.0000 0.0000 0.0000 0.0000 0.0000 0.0000 0.0000 0.0000
            0.0000
           NBO accepted:    1. Label:CR ( 1)   1
        1 eigenvector(s) stashed in permanent list

  1-center NBOs projected from the NHO density matrix
       2.000 electrons remain (>1.900); search continues

 Search of NHO DM block for the following atom(s):   1   2
      Select eigenvectors with eigenvalue > 1.900
       2.000 0.000 0.000 0.000 0.000 0.000 0.000 0.000 0.000 0.000 0.000
      Eigenvector ( 1) has occupancy 2.00000
            0.0000 0.3587 0.0000 0.0000 0.0000 0.0000 0.0000 0.0000
            0.0000 0.9335 0.0000
      Occupancy is 2.000 after deleting minor hybrid components
            0.0000 0.3587 0.0000 0.0000 0.0000 0.0000 0.0000 0.0000
            0.0000 0.9335 0.0000
           NBO accepted:    2. Label:BD ( 1)   1   2
      Occupancy is 0.000 for antibonding component
            0.0000 0.9335 0.0000 0.0000 0.0000 0.0000 0.0000 0.0000
            0.0000-0.3587 0.0000
           NBO accepted:    3. Label:BD*( 1)   1   2
        2 eigenvector(s) stashed in permanent list

  2-center NBOs projected from the NHO density matrix
       0.000 electrons remain in the fully projected matrix

                            Occupancies       Lewis Structure    Low   High
         Max    Occ     -------------------  -----------------   occ   occ
  Cycle  Ctr   Thresh    Lewis   non-Lewis     CR  BD  nC  LP    (L)   (NL)
 ============================================================================
    1     2     1.90     3.99994   0.00006      1   1   0   0     0      0
 ----------------------------------------------------------------------------

 Structure accepted: No low occupancy Lewis orbitals

 -------------------------------------------------------
   Core                      1.99994 ( 99.997% of   2)
   Valence Lewis             2.00000 (100.000% of   2)
  ==================      =============================
   Total Lewis               3.99994 ( 99.999% of   4)
  -----------------------------------------------------
   Valence non-Lewis         0.00000 (  0.000% of   4)
   Rydberg non-Lewis         0.00006 (  0.001% of   4)
  ==================      =============================
   Total non-Lewis           0.00006 (  0.001% of   4)
 -------------------------------------------------------


     (Occupancy)   Bond orbital / Coefficients / Hybrids
 ------------------ Lewis ------------------------------------------------------
   1. (1.99994) CR ( 1)Li  1            s(100.00%)
                                         1.0000  0.0000  0.0000  0.0000  0.0000
                                         0.0000  0.0000  0.0000  0.0000
   2. (2.00000) BD ( 1)Li  1- H  2
               ( 12.86%)   0.3587*Li  1 s( 87.65%)p 0.14( 12.35%)
                                         0.0000  0.9362  0.0000  0.0000  0.0000
                                         0.0000  0.0000 -0.3514 -0.0003
               ( 87.14%)   0.9335* H  2 s(100.00%)
                                         1.0000  0.0000
 ---------------- non-Lewis ----------------------------------------------------
   3. (0.00000) BD*( 1)Li  1- H  2
               ( 87.14%)   0.9335*Li  1 s( 87.65%)p 0.14( 12.35%)
               ( 12.86%)  -0.3587* H  2 s(100.00%)
   4. (0.00004) RY ( 1)Li  1            s(  5.80%)p16.25( 94.20%)
   5. (0.00000) RY ( 2)Li  1            s(  0.00%)p 1.00(100.00%)
   6. (0.00000) RY ( 3)Li  1            s(  0.00%)p 1.00(100.00%)
   7. (0.00000) RY ( 4)Li  1            s(  0.00%)p 1.00(100.00%)
   8. (0.00000) RY ( 5)Li  1            s(  0.00%)p 1.00(100.00%)
   9. (0.00000) RY ( 6)Li  1            s( 33.96%)p 1.94( 66.04%)
  10. (0.00000) RY ( 7)Li  1            s( 72.59%)p 0.38( 27.41%)
  11. (0.00001) RY ( 1) H  2            s(100.00%)


 NHO DIRECTIONALITY AND BOND BENDING (deviation from line of nuclear centers at
                                      the position of maximum hybrid amplitude)

         [Thresholds for printing:  angular deviation  >  1.0 degree]
                                    p- or d-character  > 25.0%
                                    orbital occupancy  >  0.10e

                        Line of Centers        Hybrid 1             Hybrid 2
                        ---------------  -------------------  ------------------
           NBO            Theta   Phi    Theta   Phi    Dev   Theta   Phi    Dev
 ===============================================================================
    None exceeding thresholds


 SECOND ORDER PERTURBATION THEORY ANALYSIS OF FOCK MATRIX IN NBO BASIS

     Threshold for printing:   0.50 kcal/mol
                                                          E(2) E(NL)-E(L) F(L,NL)
      Donor (L) NBO              Acceptor (NL) NBO      kcal/mol   a.u.    a.u.
 ===============================================================================

 within unit  1
       None above threshold


 NATURAL BOND ORBITALS (Summary):

                                                     Principal Delocalizations
           NBO                 Occupancy    Energy   (geminal,vicinal,remote)
 ===============================================================================
 Molecular unit  1  (HLi)
 ------ Lewis --------------------------------------
    1. CR ( 1)Li  1             1.99994    -2.44378
    2. BD ( 1)Li  1- H  2       2.00000    -0.30460
 ------ non-Lewis ----------------------------------
    3. BD*( 1)Li  1- H  2       0.00000     0.16881
    4. RY ( 1)Li  1             0.00004     0.29574
    5. RY ( 2)Li  1             0.00000     0.11512
    6. RY ( 3)Li  1             0.00000     0.20421
    7. RY ( 4)Li  1             0.00000     0.21710
    8. RY ( 5)Li  1             0.00000     0.10244
    9. RY ( 6)Li  1             0.00000     0.20553
   10. RY ( 7)Li  1             0.00000     0.26764
   11. RY ( 1) H  2             0.00001     1.23976
          -------------------------------
                 Total Lewis    3.99994  ( 99.9985%)
           Valence non-Lewis    0.00000  (  0.0001%)
           Rydberg non-Lewis    0.00006  (  0.0014%)
          -------------------------------
               Total unit  1    4.00000  (100.0000%)
              Charge unit  1    0.00000

 $CHOOSE
   BOND S 1 2 END
 $END

 NBO analysis completed in 0.11 CPU seconds (1 wall second)
 Maximum scratch memory used by NBO was 261971 words (2.00 MB)
 Maximum scratch memory used by G16NBO was 8298 words (0.06 MB)

 Opening RunExU unformatted file "/cluster/work/users/beto93/LiH/Gau-1873854.EUF"
 Read unf file /cluster/work/users/beto93/LiH/Gau-1873854.EUF:
 Label Gaussian matrix elements                                         IVers= 2 NLab= 2 Version=ES64L-G16RevC.01
 Title NBO-a                                                           
 NAtoms=     2 NBasis=    11 NBsUse=    11 ICharg=     0 Multip=     1 NE=     4 Len12L=8 Len4L=8 IOpCl= 0 ICGU=111
 GAUSSIAN SCALARS                    NI= 1 NR= 1 NTot=       1 LenBuf=    2 NRI=1 N=    1000
 NPA CHARGES                         NI= 0 NR= 1 NTot=       2 LenBuf= 4000 NRI=1 N=       2
 Recovered energy= -7.97519253546     dipole=      0.000000000000      0.000000000000      2.246335528162
 Unable to Open any file for archive entry.
 1\1\GINC-C2-2\SP\RHF\4-31G\H1Li1\BETO93\24-Jul-2024\0\\#RHF/4-31G Pop=
 NBO7Read\\NBO-a\\0,1\Li,0,0.,0.,0.039594\H,0,0.,0.,1.550406\\Version=E
 S64L-G16RevC.01\State=1-SG\HF=-7.9751925\RMSD=2.495e-09\Dipole=0.,0.,-
 2.2463355\Quadrupole=0.3824963,0.3824963,-0.7649926,0.,0.,0.\PG=C*V [C
 *(H1Li1)]\\@
 The archive entry for this job was punched.


 TERRY FORSTER, PORTLY ATLANTA BRAVES RELIEVER,
 ANNOUNCING THAT HE WAS GOING TO A FAT FARM:
 "A WAIST IS A TERRIBLE THING TO MIND."
 Job cpu time:       0 days  0 hours  0 minutes  9.2 seconds.
 Elapsed time:       0 days  0 hours  0 minutes  3.1 seconds.
 File lengths (MBytes):  RWF=     10 Int=      0 D2E=      0 Chk=      1 Scr=      1
 Normal termination of Gaussian 16 at Wed Jul 24 13:56:59 2024.
