 Entering Gaussian System, Link 0=g16
 Initial command:
 /cluster/software/Gaussian/g16_C.01/l1.exe "/cluster/work/users/beto93/mol95/Gau-883964.inp" -scrdir="/cluster/work/users/beto93/mol95/"
 Entering Link 1 = /cluster/software/Gaussian/g16_C.01/l1.exe PID=    883965.
  
 Copyright (c) 1988-2019, Gaussian, Inc.  All Rights Reserved.
  
 This is part of the Gaussian(R) 16 program.  It is based on
 the Gaussian(R) 09 system (copyright 2009, Gaussian, Inc.),
 the Gaussian(R) 03 system (copyright 2003, Gaussian, Inc.),
 the Gaussian(R) 98 system (copyright 1998, Gaussian, Inc.),
 the Gaussian(R) 94 system (copyright 1995, Gaussian, Inc.),
 the Gaussian 92(TM) system (copyright 1992, Gaussian, Inc.),
 the Gaussian 90(TM) system (copyright 1990, Gaussian, Inc.),
 the Gaussian 88(TM) system (copyright 1988, Gaussian, Inc.),
 the Gaussian 86(TM) system (copyright 1986, Carnegie Mellon
 University), and the Gaussian 82(TM) system (copyright 1983,
 Carnegie Mellon University). Gaussian is a federally registered
 trademark of Gaussian, Inc.
  
 This software contains proprietary and confidential information,
 including trade secrets, belonging to Gaussian, Inc.
  
 This software is provided under written license and may be
 used, copied, transmitted, or stored only in accord with that
 written license.
  
 The following legend is applicable only to US Government
 contracts under FAR:
  
                    RESTRICTED RIGHTS LEGEND
  
 Use, reproduction and disclosure by the US Government is
 subject to restrictions as set forth in subparagraphs (a)
 and (c) of the Commercial Computer Software - Restricted
 Rights clause in FAR 52.227-19.
  
 Gaussian, Inc.
 340 Quinnipiac St., Bldg. 40, Wallingford CT 06492
  
  
 ---------------------------------------------------------------
 Warning -- This program may not be used in any manner that
 competes with the business of Gaussian, Inc. or will provide
 assistance to any competitor of Gaussian, Inc.  The licensee
 of this program is prohibited from giving any competitor of
 Gaussian, Inc. access to this program.  By using this program,
 the user acknowledges that Gaussian, Inc. is engaged in the
 business of creating and licensing software in the field of
 computational chemistry and represents and warrants to the
 licensee that it is not a competitor of Gaussian, Inc. and that
 it will not use this program in any manner prohibited above.
 ---------------------------------------------------------------
  

 Cite this work as:
 Gaussian 16, Revision C.01,
 M. J. Frisch, G. W. Trucks, H. B. Schlegel, G. E. Scuseria, 
 M. A. Robb, J. R. Cheeseman, G. Scalmani, V. Barone, 
 G. A. Petersson, H. Nakatsuji, X. Li, M. Caricato, A. V. Marenich, 
 J. Bloino, B. G. Janesko, R. Gomperts, B. Mennucci, H. P. Hratchian, 
 J. V. Ortiz, A. F. Izmaylov, J. L. Sonnenberg, D. Williams-Young, 
 F. Ding, F. Lipparini, F. Egidi, J. Goings, B. Peng, A. Petrone, 
 T. Henderson, D. Ranasinghe, V. G. Zakrzewski, J. Gao, N. Rega, 
 G. Zheng, W. Liang, M. Hada, M. Ehara, K. Toyota, R. Fukuda, 
 J. Hasegawa, M. Ishida, T. Nakajima, Y. Honda, O. Kitao, H. Nakai, 
 T. Vreven, K. Throssell, J. A. Montgomery, Jr., J. E. Peralta, 
 F. Ogliaro, M. J. Bearpark, J. J. Heyd, E. N. Brothers, K. N. Kudin, 
 V. N. Staroverov, T. A. Keith, R. Kobayashi, J. Normand, 
 K. Raghavachari, A. P. Rendell, J. C. Burant, S. S. Iyengar, 
 J. Tomasi, M. Cossi, J. M. Millam, M. Klene, C. Adamo, R. Cammi, 
 J. W. Ochterski, R. L. Martin, K. Morokuma, O. Farkas, 
 J. B. Foresman, and D. J. Fox, Gaussian, Inc., Wallingford CT, 2019.
 
 ******************************************
 Gaussian 16:  ES64L-G16RevC.01  3-Jul-2019
                18-Nov-2024 
 ******************************************
 %LindaWorkers=c1-56-ib
 %NProcShared=4
 Will use up to    4 processors via shared memory.
 %mem=25GB
 %chk=mol95.chk
 SetLPE:    new flags="-opt 'Tsnet.Node.lindarsharg: ssh'  -nodelist 'c1-56-ib.saga' -env GAUSS_MDEF=3355443200 -env GAUSS_EXEDIR="/cluster/software/Gaussian/g16_C.01/bsd:/cluster/software/Gaussian/g16_C.01""
 Will use up to    1 processors via Linda.
 -----------------------------------------------------------------
 #RHF/6-31G* int=nobasistransform Symmetry=None 5D 7F Pop=NBO7Read
 -----------------------------------------------------------------
 1/38=1,163=2,172=1/1;
 2/12=2,15=3,17=6,18=5,40=1/2;
 3/5=1,6=6,7=1,8=11,11=1,25=1,30=1,60=-1,116=1/1,2,3;
 4//1;
 5/5=2,38=5/2;
 6/7=2,8=2,9=2,10=2,28=1,40=2,113=1,114=1,124=2103/1,12;
 99/5=1,9=1/99;
 ---------
 mol95-NBO
 ---------
 Symbolic Z-matrix:
 Charge =  0 Multiplicity = 1
 C                     0.        0.        0.75995 
 Cl                    0.        1.4742   -0.21512 
 Cl                    0.       -1.4742   -0.21512 
 H                    -0.89459   0.        1.37713 
 H                     0.89459   0.        1.37713 
 
                          Input orientation:                          
 ---------------------------------------------------------------------
 Center     Atomic      Atomic             Coordinates (Angstroms)
 Number     Number       Type             X           Y           Z
 ---------------------------------------------------------------------
      1          6           0        0.000000    0.000000    0.759945
      2         17           0        0.000000    1.474200   -0.215115
      3         17           0        0.000000   -1.474200   -0.215115
      4          1           0       -0.894585    0.000000    1.377127
      5          1           0        0.894585    0.000000    1.377127
 ---------------------------------------------------------------------
                    Distance matrix (angstroms):
                    1          2          3          4          5
     1  C    0.000000
     2  Cl   1.767486   0.000000
     3  Cl   1.767486   2.948400   0.000000
     4  H    1.086828   2.347080   2.347080   0.000000
     5  H    1.086828   2.347080   2.347080   1.789170   0.000000
 Symmetry turned off by external request.
 Stoichiometry    CH2Cl2
 Rotational constants (GHZ):          32.6385783           3.2900930           3.0469441
 Standard basis: 6-31G(d) (5D, 7F)
    54 basis functions,   140 primitive gaussians,    57 cartesian basis functions
    21 alpha electrons       21 beta electrons
       nuclear repulsion energy       134.4162046159 Hartrees.
 NAtoms=    5 NActive=    5 NUniq=    5 SFac= 1.00D+00 NAtFMM=   60 NAOKFM=F Big=F
 Integral buffers will be    131072 words long.
 Raffenetti 1 integral format.
 Two-electron integral symmetry is turned off.
 One-electron integrals computed using PRISM.
 NBasis=    54 RedAO= T EigKep=  1.66D-02  NBF=    54
 NBsUse=    54 1.00D-06 EigRej= -1.00D+00 NBFU=    54
 ExpMin= 1.43D-01 ExpMax= 2.52D+04 ExpMxC= 3.78D+03 IAcc=3 IRadAn=         5 AccDes= 0.00D+00
 Harris functional with IExCor=  205 and IRadAn=       5 diagonalized for initial guess.
 HarFok:  IExCor=  205 AccDes= 0.00D+00 IRadAn=         5 IDoV= 1 UseB2=F ITyADJ=14
 ICtDFT=  3500011 ScaDFX=  1.000000  1.000000  1.000000  1.000000
 FoFCou: FMM=F IPFlag=           0 FMFlag=      100000 FMFlg1=           0
         NFxFlg=           0 DoJE=T BraDBF=F KetDBF=T FulRan=T
         wScrn=  0.000000 ICntrl=       500 IOpCl=  0 I1Cent=   200000004 NGrid=           0
         NMat0=    1 NMatS0=      1 NMatT0=    0 NMatD0=    1 NMtDS0=    0 NMtDT0=    0
 Symmetry not used in FoFCou.
 Keep R1 ints in memory in canonical form, NReq=1946157.
 Requested convergence on RMS density matrix=1.00D-08 within 128 cycles.
 Requested convergence on MAX density matrix=1.00D-06.
 Requested convergence on             energy=1.00D-06.
 No special actions if energy rises.
 SCF Done:  E(RHF) =  -957.981349403     A.U. after   11 cycles
            NFock= 11  Conv=0.53D-08     -V/T= 1.9997

 **********************************************************************

            Population analysis using the SCF Density.

 **********************************************************************

 Alpha  occ. eigenvalues -- -104.83093-104.83091 -11.36289 -10.57076 -10.57075
 Alpha  occ. eigenvalues --   -8.03934  -8.03933  -8.03575  -8.03575  -8.03564
 Alpha  occ. eigenvalues --   -8.03564  -1.19818  -1.09979  -0.89867  -0.68006
 Alpha  occ. eigenvalues --   -0.62026  -0.58842  -0.47404  -0.47109  -0.44935
 Alpha  occ. eigenvalues --   -0.44677
 Alpha virt. eigenvalues --    0.15331   0.21046   0.23930   0.25944   0.52557
 Alpha virt. eigenvalues --    0.58061   0.59927   0.61128   0.61332   0.64795
 Alpha virt. eigenvalues --    0.66108   0.70560   0.72409   0.72737   0.85792
 Alpha virt. eigenvalues --    1.05325   1.06861   1.08330   1.13868   1.14437
 Alpha virt. eigenvalues --    1.14457   1.15683   1.16985   1.23609   1.30161
 Alpha virt. eigenvalues --    1.34451   1.40402   1.57509   1.98665   2.02169
 Alpha virt. eigenvalues --    2.44959   2.46172   2.51586
          Condensed to atoms (all electrons):
               1          2          3          4          5
     1  C    5.340879   0.187753   0.187753   0.375270   0.375270
     2  Cl   0.187753  17.000364  -0.066670  -0.046822  -0.046822
     3  Cl   0.187753  -0.066670  17.000364  -0.046822  -0.046822
     4  H    0.375270  -0.046822  -0.046822   0.482677  -0.025570
     5  H    0.375270  -0.046822  -0.046822  -0.025570   0.482677
 Mulliken charges:
               1
     1  C   -0.466925
     2  Cl  -0.027803
     3  Cl  -0.027803
     4  H    0.261266
     5  H    0.261266
 Sum of Mulliken charges =  -0.00000
 Mulliken charges with hydrogens summed into heavy atoms:
               1
     1  C    0.055606
     2  Cl  -0.027803
     3  Cl  -0.027803
 Electronic spatial extent (au):  <R**2>=            372.6718
 Charge=             -0.0000 electrons
 Dipole moment (field-independent basis, Debye):
    X=              0.0000    Y=              0.0000    Z=              1.9800  Tot=              1.9800
 Quadrupole moment (field-independent basis, Debye-Ang):
   XX=            -31.5707   YY=            -34.7474   ZZ=            -29.9177
   XY=             -0.0000   XZ=             -0.0000   YZ=             -0.0000
 Traceless Quadrupole moment (field-independent basis, Debye-Ang):
   XX=              0.5079   YY=             -2.6688   ZZ=              2.1609
   XY=             -0.0000   XZ=             -0.0000   YZ=             -0.0000
 Octapole moment (field-independent basis, Debye-Ang**2):
  XXX=             -0.0000  YYY=              0.0000  ZZZ=              1.8727  XYY=              0.0000
  XXY=              0.0000  XXZ=              1.9399  XZZ=             -0.0000  YZZ=             -0.0000
  YYZ=             -4.1773  XYZ=             -0.0000
 Hexadecapole moment (field-independent basis, Debye-Ang**3):
 XXXX=            -40.2494 YYYY=           -355.9769 ZZZZ=            -71.2400 XXXY=             -0.0000
 XXXZ=              0.0000 YYYX=             -0.0000 YYYZ=             -0.0000 ZZZX=             -0.0000
 ZZZY=             -0.0000 XXYY=            -70.6856 XXZZ=            -16.8462 YYZZ=            -70.5286
 XXYZ=             -0.0000 YYXZ=             -0.0000 ZZXY=             -0.0000
 N-N= 1.344162046159D+02 E-N=-2.548444218366D+03  KE= 9.582777392407D+02
 Running external command "gaunbo7 R"
         input file       "/cluster/work/users/beto93/mol95/Gau-883965.EIn"
         output file      "/cluster/work/users/beto93/mol95/Gau-883965.EOu"
         message file     "/cluster/work/users/beto93/mol95/Gau-883965.EMs"
         fchk file        "/cluster/work/users/beto93/mol95/Gau-883965.EFC"
         mat. el file     "/cluster/work/users/beto93/mol95/Gau-883965.EUF"

 Writing WrtUnf unformatted file "/cluster/work/users/beto93/mol95/Gau-883965.EUF"
 Gaussian matrix elements                                         Version   2 NLab=11 Len12L=8 Len4L=8
 Write SHELL TO ATOM MAP                   from file      0 offset           0 length                  18 to matrix element file.
 Write SHELL TYPES                         from file      0 offset           0 length                  18 to matrix element file.
 Write NUMBER OF PRIMITIVES PER SHELL      from file      0 offset           0 length                  18 to matrix element file.
 Write PRIMITIVE EXPONENTS                 from file      0 offset           0 length                  53 to matrix element file.
 Write CONTRACTION COEFFICIENTS            from file      0 offset           0 length                  53 to matrix element file.
 Write P(S=P) CONTRACTION COEFFICIENTS     from file      0 offset           0 length                  53 to matrix element file.
 Write COORDINATES OF EACH SHELL           from file      0 offset           0 length                  54 to matrix element file.
 Write BONDS PER ATOM                      from file      0 offset           0 length                   5 to matrix element file.
 Write BONDED ATOMS                        from file      0 offset           0 length                   8 to matrix element file.
 Write BOND TYPES                          from file      0 offset           0 length                   8 to matrix element file.
 Write ONIOM CHARGE/MULT                   from file      0 offset           0 length                  32 to matrix element file.
 Write ONIOM ATOM LAYERS                   from file      0 offset           0 length                   5 to matrix element file.
 Write ONIOM ATOM MODIFIERS                from file      0 offset           0 length                   5 to matrix element file.
 Write ONIOM ATOM TYPES                    from file      0 offset           0 length                   5 to matrix element file.
 Write ONIOM LINK ATOMS                    from file      0 offset           0 length                   5 to matrix element file.
 Write ONIOM LINK CHARGES                  from file      0 offset           0 length                   5 to matrix element file.
 Write ONIOM LINK DISTANCES                from file      0 offset           0 length                  20 to matrix element file.
 Write SYMINF INTS                         from file      0 offset           0 length                  26 to matrix element file.
 Write ROTTR TO SO                         from file      0 offset           0 length                  12 to matrix element file.
 Write GAUSSIAN SCALARS                    from file    501 offset           0 to matrix element file.
 Write OPTIMIZATION FLAGS                  from file      0 offset           0 length                   5 to matrix element file.
 Write INTEGER ISO                         from file      0 offset           0 length                   5 to matrix element file.
 Write INTEGER SPIN                        from file      0 offset           0 length                   5 to matrix element file.
 Write REAL ZEFFECTIVE                     from file      0 offset           0 length                   5 to matrix element file.
 Write REAL QUADRUPOLEMOMENT               from file      0 offset           0 length                   5 to matrix element file.
 Write REAL GFACTOR                        from file      0 offset           0 length                   5 to matrix element file.
 Write REAL ZNUCLEAR                       from file      0 offset           0 length                   5 to matrix element file.
 Write MULLIKEN CHARGES                    from file      0 offset           0 length                   5 to matrix element file.
 Write NUCLEAR GRADIENT                    from file  10584 offset           0 length                  15 to matrix element file.
 Array NUCLEAR FORCE CONSTANTS              on  file  10585 does not exist.
 Write ELECTRIC DIPOLE MOMENT              from file      0 offset           0 length                   3 to matrix element file.
 Write NON-ADIABATIC COUPLING              from file  10810 offset           0 length                  15 to matrix element file.
 Write FINITE EM FIELD                     from file  10521 offset           0 length                  35 to matrix element file.
 Write OVERLAP                             from file  10514 offset           0 length                1485 to matrix element file.
 Write CORE HAMILTONIAN ALPHA              from file  10515 offset           0 length                1485 to matrix element file.
 Write CORE HAMILTONIAN BETA               from file  10515 offset        1485 length                1485 to matrix element file.
 Write KINETIC ENERGY                      from file  10516 offset           0 length                1485 to matrix element file.
 Write ORTHOGONAL BASIS                    from file  10685 offset           0 length                2916 to matrix element file.
 Write DIPOLE INTEGRALS                    from file  10518 offset           0 length                4455 to matrix element file.
 Array DIP VEL INTEGRALS                    on  file  10572 does not exist.
 Array R X DEL INTEGRALS                    on  file  10572 does not exist.
 Write ALPHA ORBITAL ENERGIES              from file      0 offset           0 length                  54 to matrix element file.
 Write ALPHA MO COEFFICIENTS               from file  10524 offset           0 length                2916 to matrix element file.
 Write ALPHA DENSITY MATRIX                from file      0 offset           0 length                1485 to matrix element file.
 Write ALPHA FOCK MATRIX                   from file  10536 offset           0 length                1485 to matrix element file.
 Write ENERGY-WEIGHTED DENSITY             from file  10571 offset           0 length                1485 to matrix element file.
 Write ALPHA SCF DENSITY MATRIX            from file      0 offset           0 length                1485 to matrix element file.
 No 2e integrals to process.
 Perform NBO analysis...executing G16NBO...

 *********************************** NBO 7.0 ***********************************
             N A T U R A L   A T O M I C   O R B I T A L   A N D
          N A T U R A L   B O N D   O R B I T A L   A N A L Y S I S
 **************************** Espen Tangen (S101595) ***************************
  (c) Copyright 1996-2021 Board of Regents of the University of Wisconsin System
      on behalf of the Theoretical Chemistry Institute.  All rights reserved.

          Cite this program [NBO 7.0.10 (8-Feb-2021)] as:

          NBO 7.0.  E. D. Glendening, J. K. Badenhoop, A. E. Reed,
          J. E. Carpenter, J. A. Bohmann, C. M. Morales, P. Karafiloglou,
          C. R. Landis, and F. Weinhold, Theoretical Chemistry Institute,
          University of Wisconsin, Madison, WI (2018)

       /NPA    / : Natural Population Analysis
       /AOPNAO / : Print the AO to PNAO transformation
       /AONAO  / : Print the AO to NAO transformation
       /AOMO   / : Print the MOs in the AO basis
       /BOAO   / : Print the AO bond-order matrix
       /DMAO   / : Print the AO density matrix
       /DMPNAO / : Print the PNAO density matrix
       /DMNAO  / : Print the NAO density matrix
       /DMMO   / : Print the MO density matrix
       /SAO    / : Print the AO overlap matrix
       /SPNAO  / : Print the PNAO overlap matrix
       /DETAIL / : Write details of NBO search
       /ARCHIVE/ : Write the archive file to lfn47
       /AOINFO / : Write AO information to lfn31
       /FILE   / : Set to mol95.gen*

 Filename set to mol95.gen1

 Job title: mol95-NBO


 MOs in the AO basis:

           AO          1       2       3       4       5       6       7       8
      ------------ ------- ------- ------- ------- ------- ------- ------- -------
   1.  C 1 (s)      0.0000  0.0000  0.9964  0.0000 -0.0002 -0.0001  0.0000  0.0000
   2.  C 1 (s)      0.0000 -0.0001  0.0253  0.0000  0.0004 -0.0012  0.0000 -0.0002
   3.  C 1 (px)     0.0000  0.0000  0.0000  0.0000  0.0000  0.0000  0.0000  0.0000
   4.  C 1 (py)     0.0001  0.0000  0.0000 -0.0002  0.0000  0.0000  0.0007  0.0000
   5.  C 1 (pz)     0.0000 -0.0001 -0.0009  0.0000  0.0001 -0.0004  0.0000  0.0000
   6.  C 1 (s)      0.0000  0.0000 -0.0167  0.0000 -0.0007  0.0037  0.0000  0.0004
   7.  C 1 (px)     0.0000  0.0000  0.0000  0.0000  0.0000  0.0000  0.0000  0.0000
   8.  C 1 (py)    -0.0006  0.0000  0.0000  0.0013  0.0000  0.0000  0.0005  0.0000
   9.  C 1 (pz)     0.0000  0.0002  0.0012  0.0000 -0.0003 -0.0008  0.0000 -0.0006
  10.  C 1 (d5)     0.0000  0.0000  0.0000  0.0000  0.0000  0.0000  0.0000  0.0003
  11.  C 1 (d2)     0.0000  0.0000  0.0000  0.0000  0.0000  0.0000  0.0000  0.0000
  12.  C 1 (d3)    -0.0002  0.0000  0.0000  0.0005  0.0000  0.0000 -0.0011  0.0000
  13.  C 1 (d4)     0.0000 -0.0002  0.0003  0.0000  0.0005 -0.0009  0.0000  0.0001
  14.  C 1 (d1)     0.0000  0.0000  0.0000  0.0000  0.0000  0.0000  0.0000  0.0000
  15. Cl 2 (s)      0.7047  0.7047  0.0000 -0.2028 -0.2028 -0.0010 -0.0010  0.0000
  16. Cl 2 (s)      0.0089  0.0089  0.0001  0.7291  0.7291  0.0038  0.0037 -0.0001
  17. Cl 2 (px)     0.0000  0.0000  0.0000  0.0000  0.0000  0.0000  0.0000  0.0000
  18. Cl 2 (py)    -0.0001  0.0000  0.0000 -0.0025 -0.0026  0.5892  0.5887  0.3819
  19. Cl 2 (pz)     0.0000  0.0000  0.0000  0.0018  0.0018 -0.3816 -0.3824  0.5897
  20. Cl 2 (s)     -0.0029 -0.0027 -0.0001  0.0164  0.0158 -0.0009 -0.0013  0.0003
  21. Cl 2 (px)     0.0000  0.0000  0.0000  0.0000  0.0000  0.0000  0.0000  0.0000
  22. Cl 2 (py)     0.0002  0.0001 -0.0003 -0.0009 -0.0006  0.0138  0.0137  0.0079
  23. Cl 2 (pz)     0.0000 -0.0001  0.0002  0.0004  0.0005 -0.0089 -0.0088  0.0121
  24. Cl 2 (s)      0.0020  0.0014  0.0029 -0.0058 -0.0041 -0.0009  0.0009 -0.0008
  25. Cl 2 (px)     0.0000  0.0000  0.0000  0.0000  0.0000  0.0000  0.0000  0.0000
  26. Cl 2 (py)    -0.0006 -0.0001 -0.0016  0.0015  0.0002 -0.0025 -0.0038 -0.0013
  27. Cl 2 (pz)     0.0002  0.0002  0.0009 -0.0006 -0.0004  0.0020  0.0019 -0.0028
  28. Cl 2 (d5)     0.0000  0.0000  0.0000  0.0000  0.0000  0.0001 -0.0001  0.0003
  29. Cl 2 (d2)     0.0000  0.0000  0.0000  0.0000  0.0000  0.0000  0.0000  0.0000
  30. Cl 2 (d3)     0.0000  0.0000  0.0001 -0.0002 -0.0002  0.0005  0.0005 -0.0001
  31. Cl 2 (d4)     0.0000  0.0000  0.0000 -0.0001 -0.0002  0.0005  0.0003  0.0002
  32. Cl 2 (d1)     0.0000  0.0000  0.0000  0.0000  0.0000  0.0000  0.0000  0.0000
  33. Cl 3 (s)     -0.7047  0.7047  0.0000  0.2028 -0.2028 -0.0010  0.0010  0.0000
  34. Cl 3 (s)     -0.0089  0.0089  0.0001 -0.7291  0.7291  0.0038 -0.0037 -0.0001
  35. Cl 3 (px)     0.0000  0.0000  0.0000  0.0000  0.0000  0.0000  0.0000  0.0000
  36. Cl 3 (py)    -0.0001  0.0000  0.0000 -0.0025  0.0026 -0.5892  0.5887 -0.3819
  37. Cl 3 (pz)     0.0000  0.0000  0.0000 -0.0018  0.0018 -0.3816  0.3824  0.5897
  38. Cl 3 (s)      0.0029 -0.0027 -0.0001 -0.0164  0.0158 -0.0009  0.0013  0.0003
  39. Cl 3 (px)     0.0000  0.0000  0.0000  0.0000  0.0000  0.0000  0.0000  0.0000
  40. Cl 3 (py)     0.0002 -0.0001  0.0003 -0.0009  0.0006 -0.0138  0.0137 -0.0079
  41. Cl 3 (pz)     0.0000 -0.0001  0.0002 -0.0004  0.0005 -0.0089  0.0088  0.0121
  42. Cl 3 (s)     -0.0020  0.0014  0.0029  0.0058 -0.0041 -0.0009 -0.0009 -0.0008
  43. Cl 3 (px)     0.0000  0.0000  0.0000  0.0000  0.0000  0.0000  0.0000  0.0000
  44. Cl 3 (py)    -0.0006  0.0001  0.0016  0.0015 -0.0002  0.0025 -0.0038  0.0013
  45. Cl 3 (pz)    -0.0002  0.0002  0.0009  0.0006 -0.0004  0.0020 -0.0019 -0.0028
  46. Cl 3 (d5)     0.0000  0.0000  0.0000  0.0000  0.0000  0.0001  0.0001  0.0003
  47. Cl 3 (d2)     0.0000  0.0000  0.0000  0.0000  0.0000  0.0000  0.0000  0.0000
  48. Cl 3 (d3)     0.0000  0.0000 -0.0001 -0.0002  0.0002 -0.0005  0.0005  0.0001
  49. Cl 3 (d4)     0.0000  0.0000  0.0000  0.0001 -0.0002  0.0005 -0.0003  0.0002
  50. Cl 3 (d1)     0.0000  0.0000  0.0000  0.0000  0.0000  0.0000  0.0000  0.0000
  51.  H 4 (s)      0.0000  0.0001  0.0001  0.0000 -0.0002 -0.0001  0.0000  0.0000
  52.  H 4 (s)      0.0000 -0.0003  0.0027  0.0000  0.0009 -0.0012  0.0000  0.0006
  53.  H 5 (s)      0.0000  0.0001  0.0001  0.0000 -0.0002 -0.0001  0.0000  0.0000
  54.  H 5 (s)      0.0000 -0.0003  0.0027  0.0000  0.0009 -0.0012  0.0000  0.0006

           AO          9      10      11      12      13      14      15      16
      ------------ ------- ------- ------- ------- ------- ------- ------- -------
   1.  C 1 (s)      0.0000  0.0000  0.0000 -0.1246  0.0000 -0.1499  0.0000  0.0167
   2.  C 1 (s)      0.0000  0.0000  0.0000  0.2386  0.0000  0.2978  0.0000 -0.0187
   3.  C 1 (px)     0.0000  0.0000  0.0000  0.0000  0.0000  0.0000  0.4370  0.0000
   4.  C 1 (py)    -0.0001  0.0000  0.0000  0.0000  0.1401  0.0000  0.0000  0.0000
   5.  C 1 (pz)     0.0000  0.0000  0.0000 -0.0524  0.0000  0.1432  0.0000  0.3543
   6.  C 1 (s)      0.0000  0.0000  0.0000  0.2389  0.0000  0.3703  0.0000 -0.1242
   7.  C 1 (px)     0.0000  0.0000 -0.0003  0.0000  0.0000  0.0000  0.2421  0.0000
   8.  C 1 (py)     0.0000  0.0000  0.0000  0.0000  0.0369  0.0000  0.0000  0.0000
   9.  C 1 (pz)     0.0000  0.0000  0.0000 -0.0193  0.0000  0.0433  0.0000  0.2246
  10.  C 1 (d5)     0.0000  0.0000  0.0000 -0.0004  0.0000 -0.0030  0.0000 -0.0113
  11.  C 1 (d2)     0.0000  0.0000  0.0001  0.0000  0.0000  0.0000  0.0269  0.0000
  12.  C 1 (d3)    -0.0001  0.0000  0.0000  0.0000 -0.0206  0.0000  0.0000  0.0000
  13.  C 1 (d4)     0.0000  0.0000  0.0000 -0.0080  0.0000  0.0173  0.0000  0.0246
  14.  C 1 (d1)     0.0000 -0.0002  0.0000  0.0000  0.0000  0.0000  0.0000  0.0000
  15. Cl 2 (s)      0.0000  0.0000  0.0000  0.0450  0.0567 -0.0343  0.0000  0.0117
  16. Cl 2 (s)     -0.0001  0.0000  0.0000 -0.2049 -0.2590  0.1573  0.0000 -0.0558
  17. Cl 2 (px)     0.0000  0.7026  0.7026  0.0000  0.0000  0.0000 -0.0716  0.0000
  18. Cl 2 (py)     0.3827  0.0000  0.0000  0.0337  0.0133  0.0377  0.0000 -0.1425
  19. Cl 2 (pz)     0.5892  0.0000  0.0000 -0.0198 -0.0140 -0.0357  0.0000 -0.0028
  20. Cl 2 (s)     -0.0003  0.0000  0.0000  0.4044  0.5134 -0.3171  0.0000  0.1066
  21. Cl 2 (px)     0.0000  0.0144  0.0143  0.0000  0.0000  0.0000  0.1809  0.0000
  22. Cl 2 (py)     0.0080  0.0000  0.0000 -0.0772 -0.0306 -0.0908  0.0000  0.3598
  23. Cl 2 (pz)     0.0121  0.0000  0.0000  0.0451  0.0329  0.0863  0.0000  0.0090
  24. Cl 2 (s)      0.0007  0.0000  0.0000  0.1343  0.2239 -0.2034  0.0000  0.1493
  25. Cl 2 (px)     0.0000 -0.0034 -0.0031  0.0000  0.0000  0.0000  0.0571  0.0000
  26. Cl 2 (py)    -0.0024  0.0000  0.0000  0.0013 -0.0087 -0.0062  0.0000  0.1080
  27. Cl 2 (pz)    -0.0028  0.0000  0.0000  0.0018  0.0048  0.0085  0.0000  0.0277
  28. Cl 2 (d5)     0.0002  0.0000  0.0000 -0.0018  0.0008  0.0024  0.0000  0.0156
  29. Cl 2 (d2)     0.0000  0.0002  0.0001  0.0000  0.0000  0.0000  0.0122  0.0000
  30. Cl 2 (d3)    -0.0001  0.0000  0.0000 -0.0177 -0.0119 -0.0164  0.0000  0.0185
  31. Cl 2 (d4)     0.0000  0.0000  0.0000 -0.0146 -0.0073 -0.0088  0.0000  0.0285
  32. Cl 2 (d1)     0.0000 -0.0002 -0.0002  0.0000  0.0000  0.0000 -0.0170  0.0000
  33. Cl 3 (s)      0.0000  0.0000  0.0000  0.0450 -0.0567 -0.0343  0.0000  0.0117
  34. Cl 3 (s)      0.0001  0.0000  0.0000 -0.2049  0.2590  0.1573  0.0000 -0.0558
  35. Cl 3 (px)     0.0000 -0.7026  0.7026  0.0000  0.0000  0.0000 -0.0716  0.0000
  36. Cl 3 (py)     0.3827  0.0000  0.0000 -0.0337  0.0133 -0.0377  0.0000  0.1425
  37. Cl 3 (pz)    -0.5892  0.0000  0.0000 -0.0198  0.0140 -0.0357  0.0000 -0.0028
  38. Cl 3 (s)      0.0003  0.0000  0.0000  0.4044 -0.5134 -0.3171  0.0000  0.1066
  39. Cl 3 (px)     0.0000 -0.0144  0.0143  0.0000  0.0000  0.0000  0.1809  0.0000
  40. Cl 3 (py)     0.0080  0.0000  0.0000  0.0772 -0.0306  0.0908  0.0000 -0.3598
  41. Cl 3 (pz)    -0.0121  0.0000  0.0000  0.0451 -0.0329  0.0863  0.0000  0.0090
  42. Cl 3 (s)     -0.0007  0.0000  0.0000  0.1343 -0.2239 -0.2034  0.0000  0.1493
  43. Cl 3 (px)     0.0000  0.0034 -0.0031  0.0000  0.0000  0.0000  0.0571  0.0000
  44. Cl 3 (py)    -0.0024  0.0000  0.0000 -0.0013 -0.0087  0.0062  0.0000 -0.1080
  45. Cl 3 (pz)     0.0028  0.0000  0.0000  0.0018 -0.0048  0.0085  0.0000  0.0277
  46. Cl 3 (d5)    -0.0002  0.0000  0.0000 -0.0018 -0.0008  0.0024  0.0000  0.0156
  47. Cl 3 (d2)     0.0000 -0.0002  0.0001  0.0000  0.0000  0.0000  0.0122  0.0000
  48. Cl 3 (d3)    -0.0001  0.0000  0.0000  0.0177 -0.0119  0.0164  0.0000 -0.0185
  49. Cl 3 (d4)     0.0000  0.0000  0.0000 -0.0146  0.0073 -0.0088  0.0000  0.0285
  50. Cl 3 (d1)     0.0000 -0.0002  0.0002  0.0000  0.0000  0.0000  0.0170  0.0000
  51.  H 4 (s)      0.0000  0.0000  0.0000  0.0608  0.0000  0.1518 -0.2037  0.1104
  52.  H 4 (s)      0.0000  0.0000 -0.0008 -0.0051  0.0000  0.0464 -0.1076  0.0746
  53.  H 5 (s)      0.0000  0.0000  0.0000  0.0608  0.0000  0.1518  0.2037  0.1104
  54.  H 5 (s)      0.0000  0.0000  0.0008 -0.0051  0.0000  0.0464  0.1076  0.0746

           AO         17      18      19      20      21      22      23      24
      ------------ ------- ------- ------- ------- ------- ------- ------- -------
   1.  C 1 (s)      0.0000  0.0000  0.0069  0.0000  0.0000 -0.1488  0.0000 -0.0652
   2.  C 1 (s)      0.0000  0.0000 -0.0186  0.0000  0.0000  0.1843  0.0000  0.0084
   3.  C 1 (px)     0.0000  0.0000  0.0000  0.0000 -0.1969  0.0000  0.0000  0.0000
   4.  C 1 (py)     0.3364  0.0000  0.0000 -0.0768  0.0000  0.0000  0.4442  0.0000
   5.  C 1 (pz)     0.0000  0.0000 -0.1637  0.0000  0.0000 -0.2376  0.0000  0.3133
   6.  C 1 (s)      0.0000  0.0000  0.0145  0.0000  0.0000  1.8705  0.0000  1.5834
   7.  C 1 (px)     0.0000  0.0000  0.0000  0.0000 -0.0749  0.0000  0.0000  0.0000
   8.  C 1 (py)     0.2240  0.0000  0.0000 -0.0167  0.0000  0.0000  1.2999  0.0000
   9.  C 1 (pz)     0.0000  0.0000 -0.0738  0.0000  0.0000 -0.5746  0.0000  1.1630
  10.  C 1 (d5)     0.0000  0.0000 -0.0181  0.0000  0.0000  0.0007  0.0000 -0.0034
  11.  C 1 (d2)     0.0000  0.0000  0.0000  0.0000 -0.0321  0.0000  0.0000  0.0000
  12.  C 1 (d3)    -0.0292  0.0000  0.0000  0.0234  0.0000  0.0000  0.0163  0.0000
  13.  C 1 (d4)     0.0000  0.0000 -0.0310  0.0000  0.0000  0.0070  0.0000 -0.0251
  14.  C 1 (d1)     0.0000  0.0226  0.0000  0.0000  0.0000  0.0000  0.0000  0.0000
  15. Cl 2 (s)     -0.0129  0.0000 -0.0002 -0.0009  0.0000 -0.0113 -0.0182  0.0129
  16. Cl 2 (s)      0.0612  0.0000  0.0019  0.0024  0.0000  0.0666  0.0880 -0.0415
  17. Cl 2 (px)     0.0000 -0.2005  0.0000  0.0000 -0.1845  0.0000  0.0000  0.0000
  18. Cl 2 (py)     0.1050  0.0000 -0.0356 -0.1570  0.0000 -0.0991 -0.0671  0.0360
  19. Cl 2 (pz)    -0.1294  0.0000 -0.1872 -0.1320  0.0000  0.0449  0.0722 -0.0132
  20. Cl 2 (s)     -0.1185  0.0000  0.0025 -0.0143  0.0000 -0.0699 -0.1795  0.2004
  21. Cl 2 (px)     0.0000  0.5208  0.0000  0.0000  0.4810  0.0000  0.0000  0.0000
  22. Cl 2 (py)    -0.2650  0.0000  0.0922  0.4102  0.0000  0.2564  0.1705 -0.0967
  23. Cl 2 (pz)     0.3295  0.0000  0.4863  0.3436  0.0000 -0.1129 -0.1904  0.0433
  24. Cl 2 (s)     -0.1662  0.0000 -0.0226  0.0078  0.0000 -0.5815 -0.6756  0.0423
  25. Cl 2 (px)     0.0000  0.2945  0.0000  0.0000  0.2857  0.0000  0.0000  0.0000
  26. Cl 2 (py)    -0.0728  0.0000  0.0776  0.2231  0.0000  0.6699  0.6408 -0.2362
  27. Cl 2 (pz)     0.1063  0.0000  0.2670  0.2070  0.0000 -0.3391 -0.5720 -0.0384
  28. Cl 2 (d5)     0.0059  0.0000  0.0041  0.0071  0.0000 -0.0272  0.0338  0.0438
  29. Cl 2 (d2)     0.0000  0.0071  0.0000  0.0000 -0.0027  0.0000  0.0000  0.0000
  30. Cl 2 (d3)    -0.0372  0.0000 -0.0163  0.0121  0.0000 -0.0533 -0.0691 -0.0046
  31. Cl 2 (d4)    -0.0214  0.0000 -0.0074  0.0101  0.0000 -0.0544 -0.0284  0.0133
  32. Cl 2 (d1)     0.0000 -0.0075  0.0000  0.0000 -0.0007  0.0000  0.0000  0.0000
  33. Cl 3 (s)      0.0129  0.0000 -0.0002  0.0009  0.0000 -0.0113  0.0182  0.0129
  34. Cl 3 (s)     -0.0612  0.0000  0.0019 -0.0024  0.0000  0.0666 -0.0880 -0.0415
  35. Cl 3 (px)     0.0000  0.2005  0.0000  0.0000 -0.1845  0.0000  0.0000  0.0000
  36. Cl 3 (py)     0.1050  0.0000  0.0356 -0.1570  0.0000  0.0991 -0.0671 -0.0360
  37. Cl 3 (pz)     0.1294  0.0000 -0.1872  0.1320  0.0000  0.0449 -0.0722 -0.0132
  38. Cl 3 (s)      0.1185  0.0000  0.0025  0.0143  0.0000 -0.0699  0.1795  0.2004
  39. Cl 3 (px)     0.0000 -0.5208  0.0000  0.0000  0.4810  0.0000  0.0000  0.0000
  40. Cl 3 (py)    -0.2650  0.0000 -0.0922  0.4102  0.0000 -0.2564  0.1705  0.0967
  41. Cl 3 (pz)    -0.3295  0.0000  0.4863 -0.3436  0.0000 -0.1129  0.1904  0.0433
  42. Cl 3 (s)      0.1662  0.0000 -0.0226 -0.0078  0.0000 -0.5815  0.6756  0.0423
  43. Cl 3 (px)     0.0000 -0.2945  0.0000  0.0000  0.2857  0.0000  0.0000  0.0000
  44. Cl 3 (py)    -0.0728  0.0000 -0.0776  0.2231  0.0000 -0.6699  0.6408  0.2362
  45. Cl 3 (pz)    -0.1063  0.0000  0.2670 -0.2070  0.0000 -0.3391  0.5720 -0.0384
  46. Cl 3 (d5)    -0.0059  0.0000  0.0041 -0.0071  0.0000 -0.0272 -0.0338  0.0438
  47. Cl 3 (d2)     0.0000 -0.0071  0.0000  0.0000 -0.0027  0.0000  0.0000  0.0000
  48. Cl 3 (d3)    -0.0372  0.0000  0.0163  0.0121  0.0000  0.0533 -0.0691  0.0046
  49. Cl 3 (d4)     0.0214  0.0000 -0.0074 -0.0101  0.0000 -0.0544  0.0284  0.0133
  50. Cl 3 (d1)     0.0000 -0.0075  0.0000  0.0000  0.0007  0.0000  0.0000  0.0000
  51.  H 4 (s)      0.0000  0.0000 -0.0845  0.0000  0.1314 -0.0073  0.0000 -0.0407
  52.  H 4 (s)      0.0000  0.0000 -0.0949  0.0000  0.1513 -0.3593  0.0000 -1.4350
  53.  H 5 (s)      0.0000  0.0000 -0.0845  0.0000 -0.1314 -0.0073  0.0000 -0.0407
  54.  H 5 (s)      0.0000  0.0000 -0.0949  0.0000 -0.1513 -0.3593  0.0000 -1.4350

           AO         25      26      27      28      29      30      31      32
      ------------ ------- ------- ------- ------- ------- ------- ------- -------
   1.  C 1 (s)      0.0000 -0.0060  0.0000  0.0000  0.0218  0.0000 -0.0173  0.0000
   2.  C 1 (s)      0.0000  0.0743  0.0000  0.0000 -0.2507  0.0000  0.1119  0.0000
   3.  C 1 (px)     0.3288  0.0000  0.0000  0.0000  0.0000 -0.0198  0.0000  0.0000
   4.  C 1 (py)     0.0000  0.0000 -0.2690 -0.1465  0.0000  0.0000  0.0000  0.0000
   5.  C 1 (pz)     0.0000  0.0513  0.0000  0.0000 -0.0715  0.0000  0.2513  0.0000
   6.  C 1 (s)      0.0000 -0.3858  0.0000  0.0000  0.8638  0.0000 -0.3802  0.0000
   7.  C 1 (px)     1.5442  0.0000  0.0000  0.0000  0.0000  0.0331  0.0000  0.0000
   8.  C 1 (py)     0.0000  0.0000 -0.1445  0.1381  0.0000  0.0000  0.0000  0.0000
   9.  C 1 (pz)     0.0000  0.5848  0.0000  0.0000  0.0872  0.0000 -0.2414  0.0000
  10.  C 1 (d5)     0.0000 -0.0022  0.0000  0.0000 -0.0064  0.0000  0.0191  0.0000
  11.  C 1 (d2)    -0.0217  0.0000  0.0000  0.0000  0.0000 -0.0293  0.0000  0.0000
  12.  C 1 (d3)     0.0000  0.0000  0.0232  0.1413  0.0000  0.0000  0.0000  0.0000
  13.  C 1 (d4)     0.0000  0.0305  0.0000  0.0000 -0.1012  0.0000  0.0698  0.0000
  14.  C 1 (d1)     0.0000  0.0000  0.0000  0.0000  0.0000  0.0000  0.0000 -0.0145
  15. Cl 2 (s)      0.0000 -0.0501 -0.0415 -0.0047 -0.0070  0.0000 -0.0202  0.0000
  16. Cl 2 (s)      0.0000  0.0775  0.0592 -0.0112  0.0203  0.0000  0.0170  0.0000
  17. Cl 2 (px)     0.0029  0.0000  0.0000  0.0000  0.0000  0.2107  0.0000  0.2106
  18. Cl 2 (py)     0.0000 -0.0353  0.1325 -0.0962  0.1999  0.0000  0.0490  0.0000
  19. Cl 2 (pz)     0.0000 -0.0798  0.0303  0.1608 -0.0259  0.0000  0.1729  0.0000
  20. Cl 2 (s)      0.0000 -1.0813 -0.9188 -0.1685 -0.1212  0.0000 -0.4882  0.0000
  21. Cl 2 (px)     0.0065  0.0000  0.0000  0.0000  0.0000 -0.8156  0.0000 -0.8332
  22. Cl 2 (py)     0.0000  0.1329 -0.4865  0.4158 -0.7658  0.0000 -0.1706  0.0000
  23. Cl 2 (pz)     0.0000  0.2952 -0.1404 -0.6347  0.1180  0.0000 -0.6970  0.0000
  24. Cl 2 (s)      0.0000  1.4103  1.0937  0.2663 -0.0129  0.0000  0.6359  0.0000
  25. Cl 2 (px)    -0.2581  0.0000  0.0000  0.0000  0.0000  0.8422  0.0000  0.9424
  26. Cl 2 (py)     0.0000 -0.3764  0.3498 -0.6564  0.8706  0.0000  0.0613  0.0000
  27. Cl 2 (pz)     0.0000 -0.1396  0.2991  0.6925 -0.3305  0.0000  0.9092  0.0000
  28. Cl 2 (d5)     0.0000  0.0146 -0.0192  0.0582  0.0595  0.0000 -0.0497  0.0000
  29. Cl 2 (d2)     0.0144  0.0000  0.0000  0.0000  0.0000 -0.0201  0.0000 -0.0071
  30. Cl 2 (d3)     0.0000  0.0637  0.0889  0.0820 -0.0937  0.0000  0.0933  0.0000
  31. Cl 2 (d4)     0.0000  0.0128  0.0454  0.1148  0.0082  0.0000  0.0329  0.0000
  32. Cl 2 (d1)    -0.0599  0.0000  0.0000  0.0000  0.0000 -0.0216  0.0000  0.0572
  33. Cl 3 (s)      0.0000 -0.0501  0.0415  0.0047 -0.0070  0.0000 -0.0202  0.0000
  34. Cl 3 (s)      0.0000  0.0775 -0.0592  0.0112  0.0203  0.0000  0.0170  0.0000
  35. Cl 3 (px)     0.0029  0.0000  0.0000  0.0000  0.0000  0.2107  0.0000 -0.2106
  36. Cl 3 (py)     0.0000  0.0353  0.1325 -0.0962 -0.1999  0.0000 -0.0490  0.0000
  37. Cl 3 (pz)     0.0000 -0.0798 -0.0303 -0.1608 -0.0259  0.0000  0.1729  0.0000
  38. Cl 3 (s)      0.0000 -1.0813  0.9188  0.1685 -0.1212  0.0000 -0.4882  0.0000
  39. Cl 3 (px)     0.0065  0.0000  0.0000  0.0000  0.0000 -0.8156  0.0000  0.8332
  40. Cl 3 (py)     0.0000 -0.1329 -0.4865  0.4158  0.7658  0.0000  0.1706  0.0000
  41. Cl 3 (pz)     0.0000  0.2952  0.1404  0.6347  0.1180  0.0000 -0.6970  0.0000
  42. Cl 3 (s)      0.0000  1.4103 -1.0937 -0.2663 -0.0129  0.0000  0.6359  0.0000
  43. Cl 3 (px)    -0.2581  0.0000  0.0000  0.0000  0.0000  0.8422  0.0000 -0.9424
  44. Cl 3 (py)     0.0000  0.3764  0.3498 -0.6564 -0.8706  0.0000 -0.0613  0.0000
  45. Cl 3 (pz)     0.0000 -0.1396 -0.2991 -0.6925 -0.3305  0.0000  0.9092  0.0000
  46. Cl 3 (d5)     0.0000  0.0146  0.0192 -0.0582  0.0595  0.0000 -0.0497  0.0000
  47. Cl 3 (d2)     0.0144  0.0000  0.0000  0.0000  0.0000 -0.0201  0.0000  0.0071
  48. Cl 3 (d3)     0.0000 -0.0637  0.0889  0.0820  0.0937  0.0000 -0.0933  0.0000
  49. Cl 3 (d4)     0.0000  0.0128 -0.0454 -0.1148  0.0082  0.0000  0.0329  0.0000
  50. Cl 3 (d1)     0.0599  0.0000  0.0000  0.0000  0.0000  0.0216  0.0000  0.0572
  51.  H 4 (s)      0.0692 -0.0527  0.0000  0.0000 -0.1398  0.1111  0.0333  0.0000
  52.  H 4 (s)      1.6241 -0.3552  0.0000  0.0000  0.1238  0.1513 -0.2681  0.0000
  53.  H 5 (s)     -0.0692 -0.0527  0.0000  0.0000 -0.1398 -0.1111  0.0333  0.0000
  54.  H 5 (s)     -1.6241 -0.3552  0.0000  0.0000  0.1238 -0.1513 -0.2681  0.0000

           AO         33      34      35      36      37      38      39      40
      ------------ ------- ------- ------- ------- ------- ------- ------- -------
   1.  C 1 (s)      0.0000  0.0000 -0.0279  0.0000  0.0000  0.0000  0.0253  0.0000
   2.  C 1 (s)      0.0000  0.0000  0.2548  0.0000  0.0000  0.0000 -0.6550  0.0000
   3.  C 1 (px)     0.0000 -0.6808  0.0000  0.0000  0.0000 -0.8784  0.0000  0.0000
   4.  C 1 (py)     0.3884  0.0000  0.0000 -0.9054  0.0000  0.0000  0.0000  0.0000
   5.  C 1 (pz)     0.0000  0.0000 -0.7792  0.0000  0.0000  0.0000 -0.6330  0.0000
   6.  C 1 (s)      0.0000  0.0000 -0.6044  0.0000  0.0000  0.0000  1.4256  0.0000
   7.  C 1 (px)     0.0000  1.4803  0.0000  0.0000  0.0000  1.3961  0.0000  0.0000
   8.  C 1 (py)    -0.6394  0.0000  0.0000  2.3172  0.0000  0.0000  0.0000  0.0000
   9.  C 1 (pz)     0.0000  0.0000  1.6999  0.0000  0.0000  0.0000  1.0643  0.0000
  10.  C 1 (d5)     0.0000  0.0000  0.0058  0.0000  0.0000  0.0000  0.1641  0.0000
  11.  C 1 (d2)     0.0000 -0.1289  0.0000  0.0000  0.0000  0.1776  0.0000  0.0000
  12.  C 1 (d3)    -0.0928  0.0000  0.0000  0.0016  0.0000  0.0000  0.0000  0.0000
  13.  C 1 (d4)     0.0000  0.0000 -0.0705  0.0000  0.0000  0.0000  0.1248  0.0000
  14.  C 1 (d1)     0.0000  0.0000  0.0000  0.0000 -0.2604  0.0000  0.0000  0.0003
  15. Cl 2 (s)      0.0204  0.0000 -0.0074  0.0307  0.0000  0.0000  0.0006  0.0000
  16. Cl 2 (s)     -0.0152  0.0000  0.0105 -0.0167  0.0000  0.0000 -0.0070  0.0000
  17. Cl 2 (px)     0.0000 -0.0145  0.0000  0.0000 -0.0233  0.0068  0.0000 -0.0112
  18. Cl 2 (py)     0.0783  0.0000 -0.0644  0.0878  0.0000  0.0000  0.0279  0.0000
  19. Cl 2 (pz)     0.1336  0.0000  0.0896 -0.0050  0.0000  0.0000 -0.0072  0.0000
  20. Cl 2 (s)      0.5061  0.0000 -0.1527  0.7635  0.0000  0.0000 -0.0102  0.0000
  21. Cl 2 (px)     0.0000  0.0841  0.0000  0.0000  0.0826 -0.0405  0.0000  0.0459
  22. Cl 2 (py)    -0.3760  0.0000  0.2051 -0.3211  0.0000  0.0000 -0.1119  0.0000
  23. Cl 2 (pz)    -0.5149  0.0000 -0.3120 -0.0063  0.0000  0.0000  0.0153  0.0000
  24. Cl 2 (s)     -0.4259  0.0000  0.7071 -1.9830  0.0000  0.0000  0.1584  0.0000
  25. Cl 2 (px)     0.0000 -0.4610  0.0000  0.0000 -0.0531 -0.0781  0.0000 -0.0569
  26. Cl 2 (py)     0.5749  0.0000 -0.6431  1.0496  0.0000  0.0000 -0.0037  0.0000
  27. Cl 2 (pz)     0.7144  0.0000  0.3284 -0.6167  0.0000  0.0000 -0.0292  0.0000
  28. Cl 2 (d5)    -0.1191  0.0000  0.1248  0.1330  0.0000  0.0000 -0.0604  0.0000
  29. Cl 2 (d2)     0.0000  0.1382  0.0000  0.0000 -0.4229 -0.3024  0.0000  0.5438
  30. Cl 2 (d3)    -0.0405  0.0000 -0.1214  0.0337  0.0000  0.0000  0.3620  0.0000
  31. Cl 2 (d4)    -0.2000  0.0000 -0.0427 -0.0098  0.0000  0.0000 -0.2815  0.0000
  32. Cl 2 (d1)     0.0000 -0.2171  0.0000  0.0000  0.5056 -0.0827  0.0000  0.4511
  33. Cl 3 (s)     -0.0204  0.0000 -0.0074 -0.0307  0.0000  0.0000  0.0006  0.0000
  34. Cl 3 (s)      0.0152  0.0000  0.0105  0.0167  0.0000  0.0000 -0.0070  0.0000
  35. Cl 3 (px)     0.0000 -0.0145  0.0000  0.0000  0.0233  0.0068  0.0000  0.0112
  36. Cl 3 (py)     0.0783  0.0000  0.0644  0.0878  0.0000  0.0000 -0.0279  0.0000
  37. Cl 3 (pz)    -0.1336  0.0000  0.0896  0.0050  0.0000  0.0000 -0.0072  0.0000
  38. Cl 3 (s)     -0.5061  0.0000 -0.1527 -0.7635  0.0000  0.0000 -0.0102  0.0000
  39. Cl 3 (px)     0.0000  0.0841  0.0000  0.0000 -0.0826 -0.0405  0.0000 -0.0459
  40. Cl 3 (py)    -0.3760  0.0000 -0.2051 -0.3211  0.0000  0.0000  0.1119  0.0000
  41. Cl 3 (pz)     0.5149  0.0000 -0.3120  0.0063  0.0000  0.0000  0.0153  0.0000
  42. Cl 3 (s)      0.4259  0.0000  0.7071  1.9830  0.0000  0.0000  0.1584  0.0000
  43. Cl 3 (px)     0.0000 -0.4610  0.0000  0.0000  0.0531 -0.0781  0.0000  0.0569
  44. Cl 3 (py)     0.5749  0.0000  0.6431  1.0496  0.0000  0.0000  0.0037  0.0000
  45. Cl 3 (pz)    -0.7144  0.0000  0.3284  0.6167  0.0000  0.0000 -0.0292  0.0000
  46. Cl 3 (d5)     0.1191  0.0000  0.1248 -0.1330  0.0000  0.0000 -0.0604  0.0000
  47. Cl 3 (d2)     0.0000  0.1382  0.0000  0.0000  0.4229 -0.3024  0.0000 -0.5438
  48. Cl 3 (d3)    -0.0405  0.0000  0.1214  0.0337  0.0000  0.0000 -0.3620  0.0000
  49. Cl 3 (d4)     0.2000  0.0000 -0.0427  0.0098  0.0000  0.0000 -0.2815  0.0000
  50. Cl 3 (d1)     0.0000  0.2171  0.0000  0.0000  0.5056  0.0827  0.0000  0.4511
  51.  H 4 (s)      0.0000  0.3984 -0.3138  0.0000  0.0000 -0.5781  0.4265  0.0000
  52.  H 4 (s)      0.0000  0.0881 -0.3280  0.0000  0.0000  1.2654 -0.9750  0.0000
  53.  H 5 (s)      0.0000 -0.3984 -0.3138  0.0000  0.0000  0.5781  0.4265  0.0000
  54.  H 5 (s)      0.0000 -0.0881 -0.3280  0.0000  0.0000 -1.2654 -0.9750  0.0000

           AO         41      42      43      44      45      46      47      48
      ------------ ------- ------- ------- ------- ------- ------- ------- -------
   1.  C 1 (s)      0.0127  0.0000  0.0000  0.0188  0.0000  0.0101  0.0000  0.0000
   2.  C 1 (s)     -0.3999  0.0000  0.0000  0.1103  0.0000 -1.8451  0.0000  0.0000
   3.  C 1 (px)     0.0000  0.0000 -0.4089  0.0000  0.0000  0.0000  0.0000 -0.2184
   4.  C 1 (py)     0.0000  0.2072  0.0000  0.0000 -0.3066  0.0000 -0.4285  0.0000
   5.  C 1 (pz)    -0.4886  0.0000  0.0000  0.0451  0.0000  0.2188  0.0000  0.0000
   6.  C 1 (s)      0.9187  0.0000  0.0000 -0.4040  0.0000  3.1714  0.0000  0.0000
   7.  C 1 (px)     0.0000  0.0000  0.7681  0.0000  0.0000  0.0000  0.0000  1.3791
   8.  C 1 (py)     0.0000 -0.3944  0.0000  0.0000  1.0197  0.0000 -0.4025  0.0000
   9.  C 1 (pz)     0.5178  0.0000  0.0000 -0.6257  0.0000 -0.1077  0.0000  0.0000
  10.  C 1 (d5)    -0.1271  0.0000  0.0000 -0.2294  0.0000 -0.0468  0.0000  0.0000
  11.  C 1 (d2)     0.0000  0.0000  0.1271  0.0000  0.0000  0.0000  0.0000 -0.0983
  12.  C 1 (d3)     0.0000  0.0485  0.0000  0.0000  0.0020  0.0000 -0.2263  0.0000
  13.  C 1 (d4)     0.1490  0.0000  0.0000  0.0254  0.0000 -0.0319  0.0000  0.0000
  14.  C 1 (d1)     0.0000  0.0000  0.0000  0.0000  0.0000  0.0000  0.0000  0.0000
  15. Cl 2 (s)     -0.0027 -0.0032  0.0000 -0.0007 -0.0036 -0.0076 -0.0192  0.0000
  16. Cl 2 (s)      0.0006  0.0001  0.0000  0.0006  0.0106  0.0182  0.0008  0.0000
  17. Cl 2 (px)     0.0000  0.0000  0.0145  0.0000  0.0000  0.0000  0.0000 -0.0070
  18. Cl 2 (py)     0.0043 -0.0078  0.0000  0.0014 -0.0463 -0.0418 -0.0542  0.0000
  19. Cl 2 (pz)     0.0007 -0.0102  0.0000  0.0073 -0.0178  0.0301  0.0177  0.0000
  20. Cl 2 (s)     -0.0719 -0.0847  0.0000 -0.0181 -0.0670 -0.1604 -0.5225  0.0000
  21. Cl 2 (px)     0.0000  0.0000 -0.0658  0.0000  0.0000  0.0000  0.0000  0.0506
  22. Cl 2 (py)    -0.0133  0.0282  0.0000  0.0008  0.2178  0.2234  0.2552  0.0000
  23. Cl 2 (pz)    -0.0109  0.0476  0.0000 -0.0327  0.0685 -0.1595 -0.0909  0.0000
  24. Cl 2 (s)      0.1331  0.2829  0.0000 -0.0803 -0.3552 -0.3518  0.9328  0.0000
  25. Cl 2 (px)     0.0000  0.0000  0.0093  0.0000  0.0000  0.0000  0.0000 -0.3740
  26. Cl 2 (py)    -0.0340 -0.1495  0.0000  0.0974 -0.0799  0.0963 -0.6605  0.0000
  27. Cl 2 (pz)     0.0078  0.0415  0.0000  0.0721 -0.3865 -0.0005  0.3306  0.0000
  28. Cl 2 (d5)    -0.0689  0.4397  0.0000  0.6515 -0.5179  0.0107  0.1081  0.0000
  29. Cl 2 (d2)     0.0000  0.0000  0.5274  0.0000  0.0000  0.0000  0.0000 -0.3504
  30. Cl 2 (d3)    -0.1497  0.3893  0.0000  0.0410  0.3001 -0.3510 -0.4638  0.0000
  31. Cl 2 (d4)     0.5277 -0.3729  0.0000 -0.0316 -0.3334 -0.1956 -0.4133  0.0000
  32. Cl 2 (d1)     0.0000  0.0000  0.3617  0.0000  0.0000  0.0000  0.0000  0.5909
  33. Cl 3 (s)     -0.0027  0.0032  0.0000 -0.0007  0.0036 -0.0076  0.0192  0.0000
  34. Cl 3 (s)      0.0006 -0.0001  0.0000  0.0006 -0.0106  0.0182 -0.0008  0.0000
  35. Cl 3 (px)     0.0000  0.0000  0.0145  0.0000  0.0000  0.0000  0.0000 -0.0070
  36. Cl 3 (py)    -0.0043 -0.0078  0.0000 -0.0014 -0.0463  0.0418 -0.0542  0.0000
  37. Cl 3 (pz)     0.0007  0.0102  0.0000  0.0073  0.0178  0.0301 -0.0177  0.0000
  38. Cl 3 (s)     -0.0719  0.0847  0.0000 -0.0181  0.0670 -0.1604  0.5225  0.0000
  39. Cl 3 (px)     0.0000  0.0000 -0.0658  0.0000  0.0000  0.0000  0.0000  0.0506
  40. Cl 3 (py)     0.0133  0.0282  0.0000 -0.0008  0.2178 -0.2234  0.2552  0.0000
  41. Cl 3 (pz)    -0.0109 -0.0476  0.0000 -0.0327 -0.0685 -0.1595  0.0909  0.0000
  42. Cl 3 (s)      0.1331 -0.2829  0.0000 -0.0803  0.3552 -0.3518 -0.9328  0.0000
  43. Cl 3 (px)     0.0000  0.0000  0.0093  0.0000  0.0000  0.0000  0.0000 -0.3740
  44. Cl 3 (py)     0.0340 -0.1495  0.0000 -0.0974 -0.0799 -0.0963 -0.6605  0.0000
  45. Cl 3 (pz)     0.0078 -0.0415  0.0000  0.0721  0.3865 -0.0005 -0.3306  0.0000
  46. Cl 3 (d5)    -0.0689 -0.4397  0.0000  0.6515  0.5179  0.0107 -0.1081  0.0000
  47. Cl 3 (d2)     0.0000  0.0000  0.5274  0.0000  0.0000  0.0000  0.0000 -0.3504
  48. Cl 3 (d3)     0.1497  0.3893  0.0000 -0.0410  0.3001  0.3510 -0.4638  0.0000
  49. Cl 3 (d4)     0.5277  0.3729  0.0000 -0.0316  0.3334 -0.1956  0.4133  0.0000
  50. Cl 3 (d1)     0.0000  0.0000 -0.3617  0.0000  0.0000  0.0000  0.0000 -0.5909
  51.  H 4 (s)      0.4241  0.0000 -0.2611  0.2687  0.0000  0.0542  0.0000  0.3337
  52.  H 4 (s)     -0.7212  0.0000  0.7358  0.1487  0.0000 -0.7765  0.0000  0.3744
  53.  H 5 (s)      0.4241  0.0000  0.2611  0.2687  0.0000  0.0542  0.0000 -0.3337
  54.  H 5 (s)     -0.7212  0.0000 -0.7358  0.1487  0.0000 -0.7765  0.0000 -0.3744

           AO         49      50      51      52      53      54
      ------------ ------- ------- ------- ------- ------- -------
   1.  C 1 (s)     -0.1481  0.0000  0.0094  0.0000  0.0184  0.0000
   2.  C 1 (s)     -1.5809  0.0000  0.0446  0.0000  0.3537  0.0000
   3.  C 1 (px)     0.0000  0.0000  0.0000  0.0000  0.0000  0.1198
   4.  C 1 (py)     0.0000  0.0000  0.0000 -0.0223  0.0000  0.0000
   5.  C 1 (pz)     0.1199  0.0000  0.1045  0.0000  0.0573  0.0000
   6.  C 1 (s)      4.6694  0.0000 -0.2544  0.0000 -0.8148  0.0000
   7.  C 1 (px)     0.0000  0.0000  0.0000  0.0000  0.0000  0.7004
   8.  C 1 (py)     0.0000  0.0000  0.0000  1.1011  0.0000  0.0000
   9.  C 1 (pz)    -0.7160  0.0000 -0.4554  0.0000  0.6900  0.0000
  10.  C 1 (d5)     0.0135  0.0000  0.9667  0.0000  0.0050  0.0000
  11.  C 1 (d2)     0.0000  0.0000  0.0000  0.0000  0.0000  1.1275
  12.  C 1 (d3)     0.0000  0.0000  0.0000 -1.0825  0.0000  0.0000
  13.  C 1 (d4)     0.1023  0.0000 -0.0075  0.0000  1.1069  0.0000
  14.  C 1 (d1)     0.0000  0.9817  0.0000  0.0000  0.0000  0.0000
  15. Cl 2 (s)      0.0069  0.0000 -0.0008 -0.0047  0.0073  0.0000
  16. Cl 2 (s)      0.0410  0.0000 -0.0004  0.0542 -0.0412  0.0000
  17. Cl 2 (px)     0.0000  0.0075  0.0000  0.0000  0.0000 -0.0069
  18. Cl 2 (py)    -0.0363  0.0000 -0.0110 -0.0648  0.0543  0.0000
  19. Cl 2 (pz)     0.0081  0.0000 -0.0116  0.0418 -0.0385  0.0000
  20. Cl 2 (s)      0.3124  0.0000 -0.0250  0.0510  0.0657  0.0000
  21. Cl 2 (px)     0.0000 -0.0023  0.0000  0.0000  0.0000  0.0249
  22. Cl 2 (py)     0.1627  0.0000  0.0372  0.2308 -0.2144  0.0000
  23. Cl 2 (pz)    -0.0372  0.0000  0.0190 -0.1598  0.1419  0.0000
  24. Cl 2 (s)     -1.5313  0.0000 -0.0475 -0.7804  0.4006  0.0000
  25. Cl 2 (px)     0.0000 -0.1091  0.0000  0.0000  0.0000 -0.1467
  26. Cl 2 (py)     0.8136  0.0000  0.0802  0.3397 -0.2109  0.0000
  27. Cl 2 (pz)    -0.5659  0.0000  0.0981 -0.2792  0.0666  0.0000
  28. Cl 2 (d5)     0.1252  0.0000  0.2298  0.0324  0.0094  0.0000
  29. Cl 2 (d2)     0.0000 -0.1682  0.0000  0.0000  0.0000 -0.0364
  30. Cl 2 (d3)     0.4310  0.0000 -0.1439  0.3267 -0.2394  0.0000
  31. Cl 2 (d4)     0.3169  0.0000  0.1402  0.2564 -0.1836  0.0000
  32. Cl 2 (d1)     0.0000  0.2068  0.0000  0.0000  0.0000 -0.0068
  33. Cl 3 (s)      0.0069  0.0000 -0.0008  0.0047  0.0073  0.0000
  34. Cl 3 (s)      0.0410  0.0000 -0.0004 -0.0542 -0.0412  0.0000
  35. Cl 3 (px)     0.0000 -0.0075  0.0000  0.0000  0.0000 -0.0069
  36. Cl 3 (py)     0.0363  0.0000  0.0110 -0.0648 -0.0543  0.0000
  37. Cl 3 (pz)     0.0081  0.0000 -0.0116 -0.0418 -0.0385  0.0000
  38. Cl 3 (s)      0.3124  0.0000 -0.0250 -0.0510  0.0657  0.0000
  39. Cl 3 (px)     0.0000  0.0023  0.0000  0.0000  0.0000  0.0249
  40. Cl 3 (py)    -0.1627  0.0000 -0.0372  0.2308  0.2144  0.0000
  41. Cl 3 (pz)    -0.0372  0.0000  0.0190  0.1598  0.1419  0.0000
  42. Cl 3 (s)     -1.5313  0.0000 -0.0475  0.7804  0.4006  0.0000
  43. Cl 3 (px)     0.0000  0.1091  0.0000  0.0000  0.0000 -0.1467
  44. Cl 3 (py)    -0.8136  0.0000 -0.0802  0.3397  0.2109  0.0000
  45. Cl 3 (pz)    -0.5659  0.0000  0.0981  0.2792  0.0666  0.0000
  46. Cl 3 (d5)     0.1252  0.0000  0.2298 -0.0324  0.0094  0.0000
  47. Cl 3 (d2)     0.0000  0.1682  0.0000  0.0000  0.0000 -0.0364
  48. Cl 3 (d3)    -0.4310  0.0000  0.1439  0.3267  0.2394  0.0000
  49. Cl 3 (d4)     0.3169  0.0000  0.1402 -0.2564 -0.1836  0.0000
  50. Cl 3 (d1)     0.0000  0.2068  0.0000  0.0000  0.0000  0.0068
  51.  H 4 (s)     -0.6305  0.0000  0.0957  0.0000 -0.4298  0.7412
  52.  H 4 (s)     -0.2090  0.0000  0.1488  0.0000  0.0373 -0.0007
  53.  H 5 (s)     -0.6305  0.0000  0.0957  0.0000 -0.4298 -0.7412
  54.  H 5 (s)     -0.2090  0.0000  0.1488  0.0000  0.0373  0.0007


 AO overlap matrix:

           AO          1       2       3       4       5       6       7       8
      ------------ ------- ------- ------- ------- ------- ------- ------- -------
   1.  C 1 (s)      1.0000  0.2191  0.0000  0.0000  0.0000  0.1843  0.0000  0.0000
   2.  C 1 (s)      0.2191  1.0000  0.0000  0.0000  0.0000  0.8123  0.0000  0.0000
   3.  C 1 (px)     0.0000  0.0000  1.0000  0.0000  0.0000  0.0000  0.5698  0.0000
   4.  C 1 (py)     0.0000  0.0000  0.0000  1.0000  0.0000  0.0000  0.0000  0.5698
   5.  C 1 (pz)     0.0000  0.0000  0.0000  0.0000  1.0000  0.0000  0.0000  0.0000
   6.  C 1 (s)      0.1843  0.8123  0.0000  0.0000  0.0000  1.0000  0.0000  0.0000
   7.  C 1 (px)     0.0000  0.0000  0.5698  0.0000  0.0000  0.0000  1.0000  0.0000
   8.  C 1 (py)     0.0000  0.0000  0.0000  0.5698  0.0000  0.0000  0.0000  1.0000
   9.  C 1 (pz)     0.0000  0.0000  0.0000  0.0000  0.5698  0.0000  0.0000  0.0000
  10.  C 1 (d5)     0.0000  0.0000  0.0000  0.0000  0.0000  0.0000  0.0000  0.0000
  11.  C 1 (d2)     0.0000  0.0000  0.0000  0.0000  0.0000  0.0000  0.0000  0.0000
  12.  C 1 (d3)     0.0000  0.0000  0.0000  0.0000  0.0000  0.0000  0.0000  0.0000
  13.  C 1 (d4)     0.0000  0.0000  0.0000  0.0000  0.0000  0.0000  0.0000  0.0000
  14.  C 1 (d1)     0.0000  0.0000  0.0000  0.0000  0.0000  0.0000  0.0000  0.0000
  15. Cl 2 (s)      0.0000  0.0003  0.0000  0.0007 -0.0005  0.0059  0.0000  0.0135
  16. Cl 2 (s)      0.0000  0.0040  0.0000  0.0090 -0.0060  0.0483  0.0000  0.1045
  17. Cl 2 (px)     0.0000  0.0000  0.0012  0.0000  0.0000  0.0000  0.0145  0.0000
  18. Cl 2 (py)     0.0000 -0.0038  0.0000 -0.0074  0.0057 -0.0166  0.0000 -0.0215
  19. Cl 2 (pz)     0.0000  0.0025  0.0000  0.0057 -0.0026  0.0109  0.0000  0.0238
  20. Cl 2 (s)      0.0049  0.0821  0.0000  0.1058 -0.0700  0.2323  0.0000  0.3751
  21. Cl 2 (px)     0.0000  0.0000  0.0445  0.0000  0.0000  0.0000  0.1736  0.0000
  22. Cl 2 (py)    -0.0114 -0.1255  0.0000 -0.1310  0.1161 -0.1986  0.0000 -0.1601
  23. Cl 2 (pz)     0.0075  0.0830  0.0000  0.1161 -0.0322  0.1314  0.0000  0.2207
  24. Cl 2 (s)      0.0350  0.2200  0.0000  0.1463 -0.0968  0.4200  0.0000  0.4403
  25. Cl 2 (px)     0.0000  0.0000  0.1391  0.0000  0.0000  0.0000  0.4185  0.0000
  26. Cl 2 (py)    -0.0714 -0.3615  0.0000 -0.1092  0.1642 -0.4789  0.0000 -0.0836
  27. Cl 2 (pz)     0.0472  0.2391  0.0000  0.1642  0.0304  0.3167  0.0000  0.3321
  28. Cl 2 (d5)    -0.0002 -0.0048  0.0000  0.0180  0.0403 -0.0042  0.0000  0.0503
  29. Cl 2 (d2)     0.0000  0.0000  0.0301  0.0000  0.0000  0.0000  0.0665  0.0000
  30. Cl 2 (d3)    -0.0042 -0.0875  0.0000 -0.1223  0.0553 -0.0761  0.0000 -0.0757
  31. Cl 2 (d4)    -0.0031 -0.0661  0.0000 -0.0697  0.0762 -0.0576  0.0000 -0.0069
  32. Cl 2 (d1)     0.0000  0.0000 -0.0455  0.0000  0.0000  0.0000 -0.1006  0.0000
  33. Cl 3 (s)      0.0000  0.0003  0.0000 -0.0007 -0.0005  0.0059  0.0000 -0.0135
  34. Cl 3 (s)      0.0000  0.0040  0.0000 -0.0090 -0.0060  0.0483  0.0000 -0.1045
  35. Cl 3 (px)     0.0000  0.0000  0.0012  0.0000  0.0000  0.0000  0.0145  0.0000
  36. Cl 3 (py)     0.0000  0.0038  0.0000 -0.0074 -0.0057  0.0166  0.0000 -0.0215
  37. Cl 3 (pz)     0.0000  0.0025  0.0000 -0.0057 -0.0026  0.0109  0.0000 -0.0238
  38. Cl 3 (s)      0.0049  0.0821  0.0000 -0.1058 -0.0700  0.2323  0.0000 -0.3751
  39. Cl 3 (px)     0.0000  0.0000  0.0445  0.0000  0.0000  0.0000  0.1736  0.0000
  40. Cl 3 (py)     0.0114  0.1255  0.0000 -0.1310 -0.1161  0.1986  0.0000 -0.1601
  41. Cl 3 (pz)     0.0075  0.0830  0.0000 -0.1161 -0.0322  0.1314  0.0000 -0.2207
  42. Cl 3 (s)      0.0350  0.2200  0.0000 -0.1463 -0.0968  0.4200  0.0000 -0.4403
  43. Cl 3 (px)     0.0000  0.0000  0.1391  0.0000  0.0000  0.0000  0.4185  0.0000
  44. Cl 3 (py)     0.0714  0.3615  0.0000 -0.1092 -0.1642  0.4789  0.0000 -0.0836
  45. Cl 3 (pz)     0.0472  0.2391  0.0000 -0.1642  0.0304  0.3167  0.0000 -0.3321
  46. Cl 3 (d5)    -0.0002 -0.0048  0.0000 -0.0180  0.0403 -0.0042  0.0000 -0.0503
  47. Cl 3 (d2)     0.0000  0.0000  0.0301  0.0000  0.0000  0.0000  0.0665  0.0000
  48. Cl 3 (d3)     0.0042  0.0875  0.0000 -0.1223 -0.0553  0.0761  0.0000 -0.0757
  49. Cl 3 (d4)    -0.0031 -0.0661  0.0000  0.0697  0.0762 -0.0576  0.0000  0.0069
  50. Cl 3 (d1)     0.0000  0.0000  0.0455  0.0000  0.0000  0.0000  0.1006  0.0000
  51.  H 4 (s)      0.0332  0.2757 -0.3057  0.0000  0.2109  0.3783 -0.4241  0.0000
  52.  H 4 (s)      0.0926  0.4776 -0.2188  0.0000  0.1509  0.7060 -0.4792  0.0000
  53.  H 5 (s)      0.0332  0.2757  0.3057  0.0000  0.2109  0.3783  0.4241  0.0000
  54.  H 5 (s)      0.0926  0.4776  0.2188  0.0000  0.1509  0.7060  0.4792  0.0000

           AO          9      10      11      12      13      14      15      16
      ------------ ------- ------- ------- ------- ------- ------- ------- -------
   1.  C 1 (s)      0.0000  0.0000  0.0000  0.0000  0.0000  0.0000  0.0000  0.0000
   2.  C 1 (s)      0.0000  0.0000  0.0000  0.0000  0.0000  0.0000  0.0003  0.0040
   3.  C 1 (px)     0.0000  0.0000  0.0000  0.0000  0.0000  0.0000  0.0000  0.0000
   4.  C 1 (py)     0.0000  0.0000  0.0000  0.0000  0.0000  0.0000  0.0007  0.0090
   5.  C 1 (pz)     0.5698  0.0000  0.0000  0.0000  0.0000  0.0000 -0.0005 -0.0060
   6.  C 1 (s)      0.0000  0.0000  0.0000  0.0000  0.0000  0.0000  0.0059  0.0483
   7.  C 1 (px)     0.0000  0.0000  0.0000  0.0000  0.0000  0.0000  0.0000  0.0000
   8.  C 1 (py)     0.0000  0.0000  0.0000  0.0000  0.0000  0.0000  0.0135  0.1045
   9.  C 1 (pz)     1.0000  0.0000  0.0000  0.0000  0.0000  0.0000 -0.0089 -0.0691
  10.  C 1 (d5)     0.0000  1.0000  0.0000  0.0000  0.0000  0.0000  0.0000 -0.0004
  11.  C 1 (d2)     0.0000  0.0000  1.0000  0.0000  0.0000  0.0000  0.0000  0.0000
  12.  C 1 (d3)     0.0000  0.0000  0.0000  1.0000  0.0000  0.0000 -0.0003 -0.0065
  13.  C 1 (d4)     0.0000  0.0000  0.0000  0.0000  1.0000  0.0000 -0.0002 -0.0049
  14.  C 1 (d1)     0.0000  0.0000  0.0000  0.0000  0.0000  1.0000  0.0000  0.0000
  15. Cl 2 (s)     -0.0089  0.0000  0.0000 -0.0003 -0.0002  0.0000  1.0000  0.2672
  16. Cl 2 (s)     -0.0691 -0.0004  0.0000 -0.0065 -0.0049  0.0000  0.2672  1.0000
  17. Cl 2 (px)     0.0000  0.0000 -0.0009  0.0000  0.0000  0.0013  0.0000  0.0000
  18. Cl 2 (py)     0.0238 -0.0003  0.0000  0.0074  0.0050  0.0000  0.0000  0.0000
  19. Cl 2 (pz)    -0.0013 -0.0013  0.0000 -0.0042 -0.0041  0.0000  0.0000  0.0000
  20. Cl 2 (s)     -0.2481 -0.0048  0.0000 -0.0888 -0.0671  0.0000  0.0112  0.3358
  21. Cl 2 (px)     0.0000  0.0000 -0.0375  0.0000  0.0000  0.0567  0.0000  0.0000
  22. Cl 2 (py)     0.2207 -0.0235  0.0000  0.1324  0.0717  0.0000  0.0000  0.0000
  23. Cl 2 (pz)     0.0276 -0.0494  0.0000 -0.0557 -0.0849  0.0000  0.0000  0.0000
  24. Cl 2 (s)     -0.2912 -0.0032  0.0000 -0.0591 -0.0447  0.0000  0.0341  0.2556
  25. Cl 2 (px)     0.0000  0.0000 -0.0562  0.0000  0.0000  0.0850  0.0000  0.0000
  26. Cl 2 (py)     0.3321 -0.0433  0.0000  0.0494 -0.0051  0.0000  0.0000  0.0000
  27. Cl 2 (pz)     0.1988 -0.0687  0.0000  0.0151 -0.0528  0.0000  0.0000  0.0000
  28. Cl 2 (d5)     0.0820 -0.0593  0.0000  0.0420 -0.0375  0.0000  0.0000  0.0000
  29. Cl 2 (d2)     0.0000  0.0000 -0.0217  0.0000  0.0000  0.0528  0.0000  0.0000
  30. Cl 2 (d3)    -0.0065  0.0420  0.0000  0.1084  0.1059  0.0000  0.0000  0.0000
  31. Cl 2 (d4)     0.0711 -0.0375  0.0000  0.1059  0.0534  0.0000  0.0000  0.0000
  32. Cl 2 (d1)     0.0000  0.0000  0.0528  0.0000  0.0000 -0.0666  0.0000  0.0000
  33. Cl 3 (s)     -0.0089  0.0000  0.0000  0.0003 -0.0002  0.0000  0.0000  0.0000
  34. Cl 3 (s)     -0.0691 -0.0004  0.0000  0.0065 -0.0049  0.0000  0.0000  0.0000
  35. Cl 3 (px)     0.0000  0.0000 -0.0009  0.0000  0.0000 -0.0013  0.0000  0.0000
  36. Cl 3 (py)    -0.0238  0.0003  0.0000  0.0074 -0.0050  0.0000  0.0000  0.0000
  37. Cl 3 (pz)    -0.0013 -0.0013  0.0000  0.0042 -0.0041  0.0000  0.0000  0.0000
  38. Cl 3 (s)     -0.2481 -0.0048  0.0000  0.0888 -0.0671  0.0000  0.0000  0.0000
  39. Cl 3 (px)     0.0000  0.0000 -0.0375  0.0000  0.0000 -0.0567  0.0000  0.0000
  40. Cl 3 (py)    -0.2207  0.0235  0.0000  0.1324 -0.0717  0.0000  0.0000  0.0000
  41. Cl 3 (pz)     0.0276 -0.0494  0.0000  0.0557 -0.0849  0.0000  0.0000  0.0000
  42. Cl 3 (s)     -0.2912 -0.0032  0.0000  0.0591 -0.0447  0.0000  0.0004  0.0038
  43. Cl 3 (px)     0.0000  0.0000 -0.0562  0.0000  0.0000 -0.0850  0.0000  0.0000
  44. Cl 3 (py)    -0.3321  0.0433  0.0000  0.0494  0.0051  0.0000  0.0017  0.0151
  45. Cl 3 (pz)     0.1988 -0.0687  0.0000 -0.0151 -0.0528  0.0000  0.0000  0.0000
  46. Cl 3 (d5)     0.0820 -0.0593  0.0000 -0.0420 -0.0375  0.0000  0.0000  0.0000
  47. Cl 3 (d2)     0.0000  0.0000 -0.0217  0.0000  0.0000 -0.0528  0.0000  0.0000
  48. Cl 3 (d3)     0.0065 -0.0420  0.0000  0.1084 -0.1059  0.0000  0.0000  0.0000
  49. Cl 3 (d4)     0.0711 -0.0375  0.0000 -0.1059  0.0534  0.0000  0.0000  0.0000
  50. Cl 3 (d1)     0.0000  0.0000 -0.0528  0.0000  0.0000 -0.0666  0.0000  0.0000
  51.  H 4 (s)      0.2926 -0.0055 -0.2751  0.0000  0.1994  0.0000  0.0000  0.0000
  52.  H 4 (s)      0.3306 -0.0013 -0.0651  0.0000  0.0472  0.0000  0.0016  0.0138
  53.  H 5 (s)      0.2926 -0.0055  0.2751  0.0000  0.1994  0.0000  0.0000  0.0000
  54.  H 5 (s)      0.3306 -0.0013  0.0651  0.0000  0.0472  0.0000  0.0016  0.0138

           AO         17      18      19      20      21      22      23      24
      ------------ ------- ------- ------- ------- ------- ------- ------- -------
   1.  C 1 (s)      0.0000  0.0000  0.0000  0.0049  0.0000 -0.0114  0.0075  0.0350
   2.  C 1 (s)      0.0000 -0.0038  0.0025  0.0821  0.0000 -0.1255  0.0830  0.2200
   3.  C 1 (px)     0.0012  0.0000  0.0000  0.0000  0.0445  0.0000  0.0000  0.0000
   4.  C 1 (py)     0.0000 -0.0074  0.0057  0.1058  0.0000 -0.1310  0.1161  0.1463
   5.  C 1 (pz)     0.0000  0.0057 -0.0026 -0.0700  0.0000  0.1161 -0.0322 -0.0968
   6.  C 1 (s)      0.0000 -0.0166  0.0109  0.2323  0.0000 -0.1986  0.1314  0.4200
   7.  C 1 (px)     0.0145  0.0000  0.0000  0.0000  0.1736  0.0000  0.0000  0.0000
   8.  C 1 (py)     0.0000 -0.0215  0.0238  0.3751  0.0000 -0.1601  0.2207  0.4403
   9.  C 1 (pz)     0.0000  0.0238 -0.0013 -0.2481  0.0000  0.2207  0.0276 -0.2912
  10.  C 1 (d5)     0.0000 -0.0003 -0.0013 -0.0048  0.0000 -0.0235 -0.0494 -0.0032
  11.  C 1 (d2)    -0.0009  0.0000  0.0000  0.0000 -0.0375  0.0000  0.0000  0.0000
  12.  C 1 (d3)     0.0000  0.0074 -0.0042 -0.0888  0.0000  0.1324 -0.0557 -0.0591
  13.  C 1 (d4)     0.0000  0.0050 -0.0041 -0.0671  0.0000  0.0717 -0.0849 -0.0447
  14.  C 1 (d1)     0.0013  0.0000  0.0000  0.0000  0.0567  0.0000  0.0000  0.0000
  15. Cl 2 (s)      0.0000  0.0000  0.0000  0.0112  0.0000  0.0000  0.0000  0.0341
  16. Cl 2 (s)      0.0000  0.0000  0.0000  0.3358  0.0000  0.0000  0.0000  0.2556
  17. Cl 2 (px)     1.0000  0.0000  0.0000  0.0000  0.3254  0.0000  0.0000  0.0000
  18. Cl 2 (py)     0.0000  1.0000  0.0000  0.0000  0.0000  0.3254  0.0000  0.0000
  19. Cl 2 (pz)     0.0000  0.0000  1.0000  0.0000  0.0000  0.0000  0.3254  0.0000
  20. Cl 2 (s)      0.0000  0.0000  0.0000  1.0000  0.0000  0.0000  0.0000  0.8259
  21. Cl 2 (px)     0.3254  0.0000  0.0000  0.0000  1.0000  0.0000  0.0000  0.0000
  22. Cl 2 (py)     0.0000  0.3254  0.0000  0.0000  0.0000  1.0000  0.0000  0.0000
  23. Cl 2 (pz)     0.0000  0.0000  0.3254  0.0000  0.0000  0.0000  1.0000  0.0000
  24. Cl 2 (s)      0.0000  0.0000  0.0000  0.8259  0.0000  0.0000  0.0000  1.0000
  25. Cl 2 (px)     0.0714  0.0000  0.0000  0.0000  0.6243  0.0000  0.0000  0.0000
  26. Cl 2 (py)     0.0000  0.0714  0.0000  0.0000  0.0000  0.6243  0.0000  0.0000
  27. Cl 2 (pz)     0.0000  0.0000  0.0714  0.0000  0.0000  0.0000  0.6243  0.0000
  28. Cl 2 (d5)     0.0000  0.0000  0.0000  0.0000  0.0000  0.0000  0.0000  0.0000
  29. Cl 2 (d2)     0.0000  0.0000  0.0000  0.0000  0.0000  0.0000  0.0000  0.0000
  30. Cl 2 (d3)     0.0000  0.0000  0.0000  0.0000  0.0000  0.0000  0.0000  0.0000
  31. Cl 2 (d4)     0.0000  0.0000  0.0000  0.0000  0.0000  0.0000  0.0000  0.0000
  32. Cl 2 (d1)     0.0000  0.0000  0.0000  0.0000  0.0000  0.0000  0.0000  0.0000
  33. Cl 3 (s)      0.0000  0.0000  0.0000  0.0000  0.0000  0.0000  0.0000  0.0004
  34. Cl 3 (s)      0.0000  0.0000  0.0000  0.0000  0.0000  0.0000  0.0000  0.0038
  35. Cl 3 (px)     0.0000  0.0000  0.0000  0.0000  0.0000  0.0000  0.0000  0.0000
  36. Cl 3 (py)     0.0000  0.0000  0.0000  0.0000  0.0000  0.0000  0.0000  0.0022
  37. Cl 3 (pz)     0.0000  0.0000  0.0000  0.0000  0.0000  0.0000  0.0000  0.0000
  38. Cl 3 (s)      0.0000  0.0000  0.0000  0.0017  0.0000 -0.0042  0.0000  0.0312
  39. Cl 3 (px)     0.0000  0.0000  0.0000  0.0000  0.0008  0.0000  0.0000  0.0000
  40. Cl 3 (py)     0.0000  0.0000  0.0000  0.0042  0.0000 -0.0102  0.0000  0.0446
  41. Cl 3 (pz)     0.0000  0.0000  0.0000  0.0000  0.0000  0.0000  0.0008  0.0000
  42. Cl 3 (s)      0.0000 -0.0022  0.0000  0.0312  0.0000 -0.0446  0.0000  0.1092
  43. Cl 3 (px)     0.0010  0.0000  0.0000  0.0000  0.0212  0.0000  0.0000  0.0000
  44. Cl 3 (py)     0.0000 -0.0077  0.0000  0.0975  0.0000 -0.1213  0.0000  0.2299
  45. Cl 3 (pz)     0.0000  0.0000  0.0010  0.0000  0.0000  0.0000  0.0212  0.0000
  46. Cl 3 (d5)     0.0000  0.0000  0.0000 -0.0008  0.0000  0.0023  0.0000 -0.0104
  47. Cl 3 (d2)     0.0000  0.0000  0.0000  0.0000  0.0000  0.0000  0.0000  0.0000
  48. Cl 3 (d3)     0.0000  0.0000  0.0000  0.0000  0.0000  0.0000  0.0005  0.0000
  49. Cl 3 (d4)     0.0000  0.0000  0.0000 -0.0014  0.0000  0.0040  0.0000 -0.0181
  50. Cl 3 (d1)     0.0000  0.0000  0.0000  0.0000  0.0005  0.0000  0.0000  0.0000
  51.  H 4 (s)      0.0000  0.0000  0.0000  0.0058 -0.0055 -0.0091  0.0098  0.0603
  52.  H 4 (s)     -0.0027 -0.0045  0.0049  0.0893 -0.0434 -0.0715  0.0772  0.2249
  53.  H 5 (s)      0.0000  0.0000  0.0000  0.0058  0.0055 -0.0091  0.0098  0.0603
  54.  H 5 (s)      0.0027 -0.0045  0.0049  0.0893  0.0434 -0.0715  0.0772  0.2249

           AO         25      26      27      28      29      30      31      32
      ------------ ------- ------- ------- ------- ------- ------- ------- -------
   1.  C 1 (s)      0.0000 -0.0714  0.0472 -0.0002  0.0000 -0.0042 -0.0031  0.0000
   2.  C 1 (s)      0.0000 -0.3615  0.2391 -0.0048  0.0000 -0.0875 -0.0661  0.0000
   3.  C 1 (px)     0.1391  0.0000  0.0000  0.0000  0.0301  0.0000  0.0000 -0.0455
   4.  C 1 (py)     0.0000 -0.1092  0.1642  0.0180  0.0000 -0.1223 -0.0697  0.0000
   5.  C 1 (pz)     0.0000  0.1642  0.0304  0.0403  0.0000  0.0553  0.0762  0.0000
   6.  C 1 (s)      0.0000 -0.4789  0.3167 -0.0042  0.0000 -0.0761 -0.0576  0.0000
   7.  C 1 (px)     0.4185  0.0000  0.0000  0.0000  0.0665  0.0000  0.0000 -0.1006
   8.  C 1 (py)     0.0000 -0.0836  0.3321  0.0503  0.0000 -0.0757 -0.0069  0.0000
   9.  C 1 (pz)     0.0000  0.3321  0.1988  0.0820  0.0000 -0.0065  0.0711  0.0000
  10.  C 1 (d5)     0.0000 -0.0433 -0.0687 -0.0593  0.0000  0.0420 -0.0375  0.0000
  11.  C 1 (d2)    -0.0562  0.0000  0.0000  0.0000 -0.0217  0.0000  0.0000  0.0528
  12.  C 1 (d3)     0.0000  0.0494  0.0151  0.0420  0.0000  0.1084  0.1059  0.0000
  13.  C 1 (d4)     0.0000 -0.0051 -0.0528 -0.0375  0.0000  0.1059  0.0534  0.0000
  14.  C 1 (d1)     0.0850  0.0000  0.0000  0.0000  0.0528  0.0000  0.0000 -0.0666
  15. Cl 2 (s)      0.0000  0.0000  0.0000  0.0000  0.0000  0.0000  0.0000  0.0000
  16. Cl 2 (s)      0.0000  0.0000  0.0000  0.0000  0.0000  0.0000  0.0000  0.0000
  17. Cl 2 (px)     0.0714  0.0000  0.0000  0.0000  0.0000  0.0000  0.0000  0.0000
  18. Cl 2 (py)     0.0000  0.0714  0.0000  0.0000  0.0000  0.0000  0.0000  0.0000
  19. Cl 2 (pz)     0.0000  0.0000  0.0714  0.0000  0.0000  0.0000  0.0000  0.0000
  20. Cl 2 (s)      0.0000  0.0000  0.0000  0.0000  0.0000  0.0000  0.0000  0.0000
  21. Cl 2 (px)     0.6243  0.0000  0.0000  0.0000  0.0000  0.0000  0.0000  0.0000
  22. Cl 2 (py)     0.0000  0.6243  0.0000  0.0000  0.0000  0.0000  0.0000  0.0000
  23. Cl 2 (pz)     0.0000  0.0000  0.6243  0.0000  0.0000  0.0000  0.0000  0.0000
  24. Cl 2 (s)      0.0000  0.0000  0.0000  0.0000  0.0000  0.0000  0.0000  0.0000
  25. Cl 2 (px)     1.0000  0.0000  0.0000  0.0000  0.0000  0.0000  0.0000  0.0000
  26. Cl 2 (py)     0.0000  1.0000  0.0000  0.0000  0.0000  0.0000  0.0000  0.0000
  27. Cl 2 (pz)     0.0000  0.0000  1.0000  0.0000  0.0000  0.0000  0.0000  0.0000
  28. Cl 2 (d5)     0.0000  0.0000  0.0000  1.0000  0.0000  0.0000  0.0000  0.0000
  29. Cl 2 (d2)     0.0000  0.0000  0.0000  0.0000  1.0000  0.0000  0.0000  0.0000
  30. Cl 2 (d3)     0.0000  0.0000  0.0000  0.0000  0.0000  1.0000  0.0000  0.0000
  31. Cl 2 (d4)     0.0000  0.0000  0.0000  0.0000  0.0000  0.0000  1.0000  0.0000
  32. Cl 2 (d1)     0.0000  0.0000  0.0000  0.0000  0.0000  0.0000  0.0000  1.0000
  33. Cl 3 (s)      0.0000 -0.0017  0.0000  0.0000  0.0000  0.0000  0.0000  0.0000
  34. Cl 3 (s)      0.0000 -0.0151  0.0000  0.0000  0.0000  0.0000  0.0000  0.0000
  35. Cl 3 (px)     0.0010  0.0000  0.0000  0.0000  0.0000  0.0000  0.0000  0.0000
  36. Cl 3 (py)     0.0000 -0.0077  0.0000  0.0000  0.0000  0.0000  0.0000  0.0000
  37. Cl 3 (pz)     0.0000  0.0000  0.0010  0.0000  0.0000  0.0000  0.0000  0.0000
  38. Cl 3 (s)      0.0000 -0.0975  0.0000 -0.0008  0.0000  0.0000 -0.0014  0.0000
  39. Cl 3 (px)     0.0212  0.0000  0.0000  0.0000  0.0000  0.0000  0.0000 -0.0005
  40. Cl 3 (py)     0.0000 -0.1213  0.0000 -0.0023  0.0000  0.0000 -0.0040  0.0000
  41. Cl 3 (pz)     0.0000  0.0000  0.0212  0.0000  0.0000 -0.0005  0.0000  0.0000
  42. Cl 3 (s)      0.0000 -0.2299  0.0000 -0.0104  0.0000  0.0000 -0.0181  0.0000
  43. Cl 3 (px)     0.1092  0.0000  0.0000  0.0000  0.0000  0.0000  0.0000 -0.0172
  44. Cl 3 (py)     0.0000 -0.3745  0.0000 -0.0270  0.0000  0.0000 -0.0467  0.0000
  45. Cl 3 (pz)     0.0000  0.0000  0.1092  0.0000  0.0000 -0.0172  0.0000  0.0000
  46. Cl 3 (d5)     0.0000  0.0270  0.0000  0.0003  0.0000  0.0000  0.0006  0.0000
  47. Cl 3 (d2)     0.0000  0.0000  0.0000  0.0000  0.0000  0.0000  0.0000  0.0000
  48. Cl 3 (d3)     0.0000  0.0000  0.0172  0.0000  0.0000 -0.0002  0.0000  0.0000
  49. Cl 3 (d4)     0.0000  0.0467  0.0000  0.0006  0.0000  0.0000  0.0010  0.0000
  50. Cl 3 (d1)     0.0172  0.0000  0.0000  0.0000  0.0000  0.0000  0.0000 -0.0002
  51.  H 4 (s)     -0.0638 -0.1051  0.1136  0.0013 -0.0030 -0.0049 -0.0014  0.0027
  52.  H 4 (s)     -0.1524 -0.2512  0.2713  0.0099 -0.0234 -0.0386 -0.0113  0.0217
  53.  H 5 (s)      0.0638 -0.1051  0.1136  0.0013  0.0030 -0.0049 -0.0014 -0.0027
  54.  H 5 (s)      0.1524 -0.2512  0.2713  0.0099  0.0234 -0.0386 -0.0113 -0.0217

           AO         33      34      35      36      37      38      39      40
      ------------ ------- ------- ------- ------- ------- ------- ------- -------
   1.  C 1 (s)      0.0000  0.0000  0.0000  0.0000  0.0000  0.0049  0.0000  0.0114
   2.  C 1 (s)      0.0003  0.0040  0.0000  0.0038  0.0025  0.0821  0.0000  0.1255
   3.  C 1 (px)     0.0000  0.0000  0.0012  0.0000  0.0000  0.0000  0.0445  0.0000
   4.  C 1 (py)    -0.0007 -0.0090  0.0000 -0.0074 -0.0057 -0.1058  0.0000 -0.1310
   5.  C 1 (pz)    -0.0005 -0.0060  0.0000 -0.0057 -0.0026 -0.0700  0.0000 -0.1161
   6.  C 1 (s)      0.0059  0.0483  0.0000  0.0166  0.0109  0.2323  0.0000  0.1986
   7.  C 1 (px)     0.0000  0.0000  0.0145  0.0000  0.0000  0.0000  0.1736  0.0000
   8.  C 1 (py)    -0.0135 -0.1045  0.0000 -0.0215 -0.0238 -0.3751  0.0000 -0.1601
   9.  C 1 (pz)    -0.0089 -0.0691  0.0000 -0.0238 -0.0013 -0.2481  0.0000 -0.2207
  10.  C 1 (d5)     0.0000 -0.0004  0.0000  0.0003 -0.0013 -0.0048  0.0000  0.0235
  11.  C 1 (d2)     0.0000  0.0000 -0.0009  0.0000  0.0000  0.0000 -0.0375  0.0000
  12.  C 1 (d3)     0.0003  0.0065  0.0000  0.0074  0.0042  0.0888  0.0000  0.1324
  13.  C 1 (d4)    -0.0002 -0.0049  0.0000 -0.0050 -0.0041 -0.0671  0.0000 -0.0717
  14.  C 1 (d1)     0.0000  0.0000 -0.0013  0.0000  0.0000  0.0000 -0.0567  0.0000
  15. Cl 2 (s)      0.0000  0.0000  0.0000  0.0000  0.0000  0.0000  0.0000  0.0000
  16. Cl 2 (s)      0.0000  0.0000  0.0000  0.0000  0.0000  0.0000  0.0000  0.0000
  17. Cl 2 (px)     0.0000  0.0000  0.0000  0.0000  0.0000  0.0000  0.0000  0.0000
  18. Cl 2 (py)     0.0000  0.0000  0.0000  0.0000  0.0000  0.0000  0.0000  0.0000
  19. Cl 2 (pz)     0.0000  0.0000  0.0000  0.0000  0.0000  0.0000  0.0000  0.0000
  20. Cl 2 (s)      0.0000  0.0000  0.0000  0.0000  0.0000  0.0017  0.0000  0.0042
  21. Cl 2 (px)     0.0000  0.0000  0.0000  0.0000  0.0000  0.0000  0.0008  0.0000
  22. Cl 2 (py)     0.0000  0.0000  0.0000  0.0000  0.0000 -0.0042  0.0000 -0.0102
  23. Cl 2 (pz)     0.0000  0.0000  0.0000  0.0000  0.0000  0.0000  0.0000  0.0000
  24. Cl 2 (s)      0.0004  0.0038  0.0000  0.0022  0.0000  0.0312  0.0000  0.0446
  25. Cl 2 (px)     0.0000  0.0000  0.0010  0.0000  0.0000  0.0000  0.0212  0.0000
  26. Cl 2 (py)    -0.0017 -0.0151  0.0000 -0.0077  0.0000 -0.0975  0.0000 -0.1213
  27. Cl 2 (pz)     0.0000  0.0000  0.0000  0.0000  0.0010  0.0000  0.0000  0.0000
  28. Cl 2 (d5)     0.0000  0.0000  0.0000  0.0000  0.0000 -0.0008  0.0000 -0.0023
  29. Cl 2 (d2)     0.0000  0.0000  0.0000  0.0000  0.0000  0.0000  0.0000  0.0000
  30. Cl 2 (d3)     0.0000  0.0000  0.0000  0.0000  0.0000  0.0000  0.0000  0.0000
  31. Cl 2 (d4)     0.0000  0.0000  0.0000  0.0000  0.0000 -0.0014  0.0000 -0.0040
  32. Cl 2 (d1)     0.0000  0.0000  0.0000  0.0000  0.0000  0.0000 -0.0005  0.0000
  33. Cl 3 (s)      1.0000  0.2672  0.0000  0.0000  0.0000  0.0112  0.0000  0.0000
  34. Cl 3 (s)      0.2672  1.0000  0.0000  0.0000  0.0000  0.3358  0.0000  0.0000
  35. Cl 3 (px)     0.0000  0.0000  1.0000  0.0000  0.0000  0.0000  0.3254  0.0000
  36. Cl 3 (py)     0.0000  0.0000  0.0000  1.0000  0.0000  0.0000  0.0000  0.3254
  37. Cl 3 (pz)     0.0000  0.0000  0.0000  0.0000  1.0000  0.0000  0.0000  0.0000
  38. Cl 3 (s)      0.0112  0.3358  0.0000  0.0000  0.0000  1.0000  0.0000  0.0000
  39. Cl 3 (px)     0.0000  0.0000  0.3254  0.0000  0.0000  0.0000  1.0000  0.0000
  40. Cl 3 (py)     0.0000  0.0000  0.0000  0.3254  0.0000  0.0000  0.0000  1.0000
  41. Cl 3 (pz)     0.0000  0.0000  0.0000  0.0000  0.3254  0.0000  0.0000  0.0000
  42. Cl 3 (s)      0.0341  0.2556  0.0000  0.0000  0.0000  0.8259  0.0000  0.0000
  43. Cl 3 (px)     0.0000  0.0000  0.0714  0.0000  0.0000  0.0000  0.6243  0.0000
  44. Cl 3 (py)     0.0000  0.0000  0.0000  0.0714  0.0000  0.0000  0.0000  0.6243
  45. Cl 3 (pz)     0.0000  0.0000  0.0000  0.0000  0.0714  0.0000  0.0000  0.0000
  46. Cl 3 (d5)     0.0000  0.0000  0.0000  0.0000  0.0000  0.0000  0.0000  0.0000
  47. Cl 3 (d2)     0.0000  0.0000  0.0000  0.0000  0.0000  0.0000  0.0000  0.0000
  48. Cl 3 (d3)     0.0000  0.0000  0.0000  0.0000  0.0000  0.0000  0.0000  0.0000
  49. Cl 3 (d4)     0.0000  0.0000  0.0000  0.0000  0.0000  0.0000  0.0000  0.0000
  50. Cl 3 (d1)     0.0000  0.0000  0.0000  0.0000  0.0000  0.0000  0.0000  0.0000
  51.  H 4 (s)      0.0000  0.0000  0.0000  0.0000  0.0000  0.0058 -0.0055  0.0091
  52.  H 4 (s)      0.0016  0.0138 -0.0027  0.0045  0.0049  0.0893 -0.0434  0.0715
  53.  H 5 (s)      0.0000  0.0000  0.0000  0.0000  0.0000  0.0058  0.0055  0.0091
  54.  H 5 (s)      0.0016  0.0138  0.0027  0.0045  0.0049  0.0893  0.0434  0.0715

           AO         41      42      43      44      45      46      47      48
      ------------ ------- ------- ------- ------- ------- ------- ------- -------
   1.  C 1 (s)      0.0075  0.0350  0.0000  0.0714  0.0472 -0.0002  0.0000  0.0042
   2.  C 1 (s)      0.0830  0.2200  0.0000  0.3615  0.2391 -0.0048  0.0000  0.0875
   3.  C 1 (px)     0.0000  0.0000  0.1391  0.0000  0.0000  0.0000  0.0301  0.0000
   4.  C 1 (py)    -0.1161 -0.1463  0.0000 -0.1092 -0.1642 -0.0180  0.0000 -0.1223
   5.  C 1 (pz)    -0.0322 -0.0968  0.0000 -0.1642  0.0304  0.0403  0.0000 -0.0553
   6.  C 1 (s)      0.1314  0.4200  0.0000  0.4789  0.3167 -0.0042  0.0000  0.0761
   7.  C 1 (px)     0.0000  0.0000  0.4185  0.0000  0.0000  0.0000  0.0665  0.0000
   8.  C 1 (py)    -0.2207 -0.4403  0.0000 -0.0836 -0.3321 -0.0503  0.0000 -0.0757
   9.  C 1 (pz)     0.0276 -0.2912  0.0000 -0.3321  0.1988  0.0820  0.0000  0.0065
  10.  C 1 (d5)    -0.0494 -0.0032  0.0000  0.0433 -0.0687 -0.0593  0.0000 -0.0420
  11.  C 1 (d2)     0.0000  0.0000 -0.0562  0.0000  0.0000  0.0000 -0.0217  0.0000
  12.  C 1 (d3)     0.0557  0.0591  0.0000  0.0494 -0.0151 -0.0420  0.0000  0.1084
  13.  C 1 (d4)    -0.0849 -0.0447  0.0000  0.0051 -0.0528 -0.0375  0.0000 -0.1059
  14.  C 1 (d1)     0.0000  0.0000 -0.0850  0.0000  0.0000  0.0000 -0.0528  0.0000
  15. Cl 2 (s)      0.0000  0.0004  0.0000  0.0017  0.0000  0.0000  0.0000  0.0000
  16. Cl 2 (s)      0.0000  0.0038  0.0000  0.0151  0.0000  0.0000  0.0000  0.0000
  17. Cl 2 (px)     0.0000  0.0000  0.0010  0.0000  0.0000  0.0000  0.0000  0.0000
  18. Cl 2 (py)     0.0000 -0.0022  0.0000 -0.0077  0.0000  0.0000  0.0000  0.0000
  19. Cl 2 (pz)     0.0000  0.0000  0.0000  0.0000  0.0010  0.0000  0.0000  0.0000
  20. Cl 2 (s)      0.0000  0.0312  0.0000  0.0975  0.0000 -0.0008  0.0000  0.0000
  21. Cl 2 (px)     0.0000  0.0000  0.0212  0.0000  0.0000  0.0000  0.0000  0.0000
  22. Cl 2 (py)     0.0000 -0.0446  0.0000 -0.1213  0.0000  0.0023  0.0000  0.0000
  23. Cl 2 (pz)     0.0008  0.0000  0.0000  0.0000  0.0212  0.0000  0.0000  0.0005
  24. Cl 2 (s)      0.0000  0.1092  0.0000  0.2299  0.0000 -0.0104  0.0000  0.0000
  25. Cl 2 (px)     0.0000  0.0000  0.1092  0.0000  0.0000  0.0000  0.0000  0.0000
  26. Cl 2 (py)     0.0000 -0.2299  0.0000 -0.3745  0.0000  0.0270  0.0000  0.0000
  27. Cl 2 (pz)     0.0212  0.0000  0.0000  0.0000  0.1092  0.0000  0.0000  0.0172
  28. Cl 2 (d5)     0.0000 -0.0104  0.0000 -0.0270  0.0000  0.0003  0.0000  0.0000
  29. Cl 2 (d2)     0.0000  0.0000  0.0000  0.0000  0.0000  0.0000  0.0000  0.0000
  30. Cl 2 (d3)    -0.0005  0.0000  0.0000  0.0000 -0.0172  0.0000  0.0000 -0.0002
  31. Cl 2 (d4)     0.0000 -0.0181  0.0000 -0.0467  0.0000  0.0006  0.0000  0.0000
  32. Cl 2 (d1)     0.0000  0.0000 -0.0172  0.0000  0.0000  0.0000  0.0000  0.0000
  33. Cl 3 (s)      0.0000  0.0341  0.0000  0.0000  0.0000  0.0000  0.0000  0.0000
  34. Cl 3 (s)      0.0000  0.2556  0.0000  0.0000  0.0000  0.0000  0.0000  0.0000
  35. Cl 3 (px)     0.0000  0.0000  0.0714  0.0000  0.0000  0.0000  0.0000  0.0000
  36. Cl 3 (py)     0.0000  0.0000  0.0000  0.0714  0.0000  0.0000  0.0000  0.0000
  37. Cl 3 (pz)     0.3254  0.0000  0.0000  0.0000  0.0714  0.0000  0.0000  0.0000
  38. Cl 3 (s)      0.0000  0.8259  0.0000  0.0000  0.0000  0.0000  0.0000  0.0000
  39. Cl 3 (px)     0.0000  0.0000  0.6243  0.0000  0.0000  0.0000  0.0000  0.0000
  40. Cl 3 (py)     0.0000  0.0000  0.0000  0.6243  0.0000  0.0000  0.0000  0.0000
  41. Cl 3 (pz)     1.0000  0.0000  0.0000  0.0000  0.6243  0.0000  0.0000  0.0000
  42. Cl 3 (s)      0.0000  1.0000  0.0000  0.0000  0.0000  0.0000  0.0000  0.0000
  43. Cl 3 (px)     0.0000  0.0000  1.0000  0.0000  0.0000  0.0000  0.0000  0.0000
  44. Cl 3 (py)     0.0000  0.0000  0.0000  1.0000  0.0000  0.0000  0.0000  0.0000
  45. Cl 3 (pz)     0.6243  0.0000  0.0000  0.0000  1.0000  0.0000  0.0000  0.0000
  46. Cl 3 (d5)     0.0000  0.0000  0.0000  0.0000  0.0000  1.0000  0.0000  0.0000
  47. Cl 3 (d2)     0.0000  0.0000  0.0000  0.0000  0.0000  0.0000  1.0000  0.0000
  48. Cl 3 (d3)     0.0000  0.0000  0.0000  0.0000  0.0000  0.0000  0.0000  1.0000
  49. Cl 3 (d4)     0.0000  0.0000  0.0000  0.0000  0.0000  0.0000  0.0000  0.0000
  50. Cl 3 (d1)     0.0000  0.0000  0.0000  0.0000  0.0000  0.0000  0.0000  0.0000
  51.  H 4 (s)      0.0098  0.0603 -0.0638  0.1051  0.1136  0.0013 -0.0030  0.0049
  52.  H 4 (s)      0.0772  0.2249 -0.1524  0.2512  0.2713  0.0099 -0.0234  0.0386
  53.  H 5 (s)      0.0098  0.0603  0.0638  0.1051  0.1136  0.0013  0.0030  0.0049
  54.  H 5 (s)      0.0772  0.2249  0.1524  0.2512  0.2713  0.0099  0.0234  0.0386

           AO         49      50      51      52      53      54
      ------------ ------- ------- ------- ------- ------- -------
   1.  C 1 (s)     -0.0031  0.0000  0.0332  0.0926  0.0332  0.0926
   2.  C 1 (s)     -0.0661  0.0000  0.2757  0.4776  0.2757  0.4776
   3.  C 1 (px)     0.0000  0.0455 -0.3057 -0.2188  0.3057  0.2188
   4.  C 1 (py)     0.0697  0.0000  0.0000  0.0000  0.0000  0.0000
   5.  C 1 (pz)     0.0762  0.0000  0.2109  0.1509  0.2109  0.1509
   6.  C 1 (s)     -0.0576  0.0000  0.3783  0.7060  0.3783  0.7060
   7.  C 1 (px)     0.0000  0.1006 -0.4241 -0.4792  0.4241  0.4792
   8.  C 1 (py)     0.0069  0.0000  0.0000  0.0000  0.0000  0.0000
   9.  C 1 (pz)     0.0711  0.0000  0.2926  0.3306  0.2926  0.3306
  10.  C 1 (d5)    -0.0375  0.0000 -0.0055 -0.0013 -0.0055 -0.0013
  11.  C 1 (d2)     0.0000 -0.0528 -0.2751 -0.0651  0.2751  0.0651
  12.  C 1 (d3)    -0.1059  0.0000  0.0000  0.0000  0.0000  0.0000
  13.  C 1 (d4)     0.0534  0.0000  0.1994  0.0472  0.1994  0.0472
  14.  C 1 (d1)     0.0000 -0.0666  0.0000  0.0000  0.0000  0.0000
[...]
               ( 45.85%)   0.6771* C  1 s( 21.20%)p 3.70( 78.38%)d 0.02(  0.42%)
                                         0.0000  0.4604  0.0017  0.0000  0.0000
                                         0.7050  0.0072 -0.5354 -0.0017  0.0000
                                         0.0000 -0.0542 -0.0357  0.0019
               ( 54.15%)   0.7358*Cl  2 s( 16.53%)p 5.00( 82.65%)d 0.05(  0.82%)
                                         0.0000  0.0000  0.4025 -0.0568  0.0000
                                         0.0000  0.0000  0.0000 -0.7622  0.0500
                                         0.0000  0.4920 -0.0310  0.0000  0.0000
                                        -0.0713 -0.0559 -0.0062
  19. (1.99526) BD ( 1) C  1-Cl  3
               ( 45.85%)   0.6771* C  1 s( 21.20%)p 3.70( 78.38%)d 0.02(  0.42%)
                                         0.0000  0.4604  0.0017  0.0000  0.0000
                                        -0.7050 -0.0072 -0.5354 -0.0017  0.0000
                                         0.0000  0.0542 -0.0357  0.0019
               ( 54.15%)   0.7358*Cl  3 s( 16.53%)p 5.00( 82.65%)d 0.05(  0.82%)
                                         0.0000  0.0000  0.4025 -0.0568  0.0000
                                         0.0000  0.0000  0.0000  0.7622 -0.0500
                                         0.0000  0.4920 -0.0310  0.0000  0.0000
                                         0.0713 -0.0559 -0.0062
  20. (1.99573) BD ( 1) C  1- H  4
               ( 63.56%)   0.7973* C  1 s( 28.80%)p 2.47( 71.03%)d 0.01(  0.18%)
                                         0.0000  0.5366 -0.0015 -0.7064  0.0007
                                         0.0000  0.0000  0.4596  0.0041  0.0000
                                        -0.0319  0.0000  0.0268 -0.0042
               ( 36.44%)   0.6036* H  4 s(100.00%)
                                         1.0000  0.0069
  21. (1.99573) BD ( 1) C  1- H  5
               ( 63.56%)   0.7973* C  1 s( 28.80%)p 2.47( 71.03%)d 0.01(  0.18%)
                                         0.0000  0.5366 -0.0015  0.7064 -0.0007
                                         0.0000  0.0000  0.4596  0.0041  0.0000
                                         0.0319  0.0000  0.0268 -0.0042
               ( 36.44%)   0.6036* H  5 s(100.00%)
                                         1.0000  0.0069
 ---------------- non-Lewis ----------------------------------------------------
  22. (0.03041) BD*( 1) C  1-Cl  2
               ( 54.15%)   0.7358* C  1 s( 21.20%)p 3.70( 78.38%)d 0.02(  0.42%)
                                         0.0000  0.4604  0.0017  0.0000  0.0000
                                         0.7050  0.0072 -0.5354 -0.0017  0.0000
                                         0.0000 -0.0542 -0.0357  0.0019
               ( 45.85%)  -0.6771*Cl  2 s( 16.53%)p 5.00( 82.65%)d 0.05(  0.82%)
                                         0.0000  0.0000  0.4025 -0.0568  0.0000
                                         0.0000  0.0000  0.0000 -0.7622  0.0500
                                         0.0000  0.4920 -0.0310  0.0000  0.0000
                                        -0.0713 -0.0559 -0.0062
  23. (0.03041) BD*( 1) C  1-Cl  3
               ( 54.15%)   0.7358* C  1 s( 21.20%)p 3.70( 78.38%)d 0.02(  0.42%)
                                         0.0000  0.4604  0.0017  0.0000  0.0000
                                        -0.7050 -0.0072 -0.5354 -0.0017  0.0000
                                         0.0000  0.0542 -0.0357  0.0019
               ( 45.85%)  -0.6771*Cl  3 s( 16.53%)p 5.00( 82.65%)d 0.05(  0.82%)
                                         0.0000  0.0000  0.4025 -0.0568  0.0000
                                         0.0000  0.0000  0.0000  0.7622 -0.0500
                                         0.0000  0.4920 -0.0310  0.0000  0.0000
                                         0.0713 -0.0559 -0.0062
  24. (0.02148) BD*( 1) C  1- H  4
               ( 36.44%)   0.6036* C  1 s( 28.80%)p 2.47( 71.03%)d 0.01(  0.18%)
                                         0.0000 -0.5366  0.0015  0.7064 -0.0007
                                         0.0000  0.0000 -0.4596 -0.0041  0.0000
                                         0.0319  0.0000 -0.0268  0.0042
               ( 63.56%)  -0.7973* H  4 s(100.00%)
                                        -1.0000 -0.0069
  25. (0.02148) BD*( 1) C  1- H  5
               ( 36.44%)   0.6036* C  1 s( 28.80%)p 2.47( 71.03%)d 0.01(  0.18%)
                                         0.0000 -0.5366  0.0015 -0.7064  0.0007
                                         0.0000  0.0000 -0.4596 -0.0041  0.0000
                                        -0.0319  0.0000 -0.0268  0.0042
               ( 63.56%)  -0.7973* H  5 s(100.00%)
                                        -1.0000 -0.0069
  26. (0.00403) RY ( 1) C  1            s(  0.00%)p 1.00( 78.02%)d 0.28( 21.98%)
                                         0.0000  0.0000  0.0000  0.0000  0.0000
                                        -0.0451  0.8821  0.0000  0.0000  0.0000
                                         0.0000 -0.4689  0.0000  0.0000
  27. (0.00339) RY ( 2) C  1            s(  1.06%)p44.51( 47.25%)d48.70( 51.69%)
                                         0.0000 -0.0016  0.1030  0.0000  0.0000
                                         0.0000  0.0000  0.0349 -0.6865  0.0000
                                         0.0000  0.0000 -0.5317 -0.4839
  28. (0.00226) RY ( 3) C  1            s(  0.00%)p 1.00( 61.17%)d 0.63( 38.83%)
                                         0.0000  0.0000  0.0000 -0.0273  0.7817
                                         0.0000  0.0000  0.0000  0.0000  0.0000
                                         0.6231  0.0000  0.0000  0.0000
  29. (0.00107) RY ( 4) C  1            s(  0.00%)p 0.00(  0.00%)d 1.00(100.00%)
                                         0.0000  0.0000  0.0000  0.0000  0.0000
                                         0.0000  0.0000  0.0000  0.0000  1.0000
                                         0.0000  0.0000  0.0000  0.0000
  30. (0.00060) RY ( 5) C  1            s( 39.26%)p 0.65( 25.51%)d 0.90( 35.24%)
                                         0.0000  0.0042  0.6265  0.0000  0.0000
                                         0.0000  0.0000 -0.0120 -0.5049  0.0000
                                         0.0000  0.0000  0.3139  0.5038
  31. (0.00030) RY ( 6) C  1            s(  0.00%)p 1.00( 22.57%)d 3.43( 77.43%)
                                         0.0000  0.0000  0.0000  0.0000  0.0000
                                         0.0628  0.4709  0.0000  0.0000  0.0000
                                         0.0000  0.8799  0.0000  0.0000
  32. (0.00000) RY ( 7) C  1            s( 31.63%)p 0.22(  6.91%)d 1.94( 61.46%)
  33. (0.00000) RY ( 8) C  1            s(  0.00%)p 1.00( 39.03%)d 1.56( 60.97%)
  34. (0.00000) RY ( 9) C  1            s( 28.05%)p 0.74( 20.74%)d 1.83( 51.21%)
  35. (0.00258) RY ( 1)Cl  2            s(  9.25%)p 7.77( 71.86%)d 2.04( 18.90%)
                                         0.0000  0.0000  0.0059  0.3040  0.0000
                                         0.0000  0.0000  0.0000 -0.0267 -0.6461
                                         0.0000  0.0254 -0.5475  0.0000  0.0000
                                        -0.1718  0.2292  0.3270
  36. (0.00257) RY ( 2)Cl  2            s(  0.00%)p 1.00( 73.23%)d 0.37( 26.77%)
                                         0.0000  0.0000  0.0000  0.0000  0.0000
                                        -0.0098  0.8557  0.0000  0.0000  0.0000
                                         0.0000  0.0000  0.0000  0.4005 -0.3276
                                         0.0000  0.0000  0.0000
  37. (0.00085) RY ( 3)Cl  2            s( 38.97%)p 1.43( 55.66%)d 0.14(  5.36%)
                                         0.0000  0.0000  0.0129  0.6242  0.0000
                                         0.0000  0.0000  0.0000 -0.0777 -0.3578
                                         0.0000  0.0454  0.6485  0.0000  0.0000
                                         0.1647  0.0448 -0.1566
  38. (0.00004) RY ( 4)Cl  2            s(  0.00%)p 1.00( 17.27%)d 4.79( 82.73%)
  39. (0.00003) RY ( 5)Cl  2            s( 10.61%)p 1.78( 18.91%)d 6.64( 70.48%)
  40. (0.00002) RY ( 6)Cl  2            s(  8.49%)p 0.26(  2.17%)d10.52( 89.34%)
  41. (0.00000) RY ( 7)Cl  2            s( 14.76%)p 1.91( 28.25%)d 3.86( 56.99%)
  42. (0.00000) RY ( 8)Cl  2            s(  0.00%)p 1.00(  9.51%)d 9.51( 90.49%)
  43. (0.00000) RY ( 9)Cl  2            s( 17.62%)p 1.38( 24.35%)d 3.29( 58.04%)
  44. (0.00258) RY ( 1)Cl  3            s(  9.25%)p 7.77( 71.86%)d 2.04( 18.90%)
                                         0.0000  0.0000  0.0059  0.3040  0.0000
                                         0.0000  0.0000  0.0000  0.0267  0.6461
                                         0.0000  0.0254 -0.5475  0.0000  0.0000
                                         0.1718  0.2292  0.3270
  45. (0.00257) RY ( 2)Cl  3            s(  0.00%)p 1.00( 73.23%)d 0.37( 26.77%)
                                         0.0000  0.0000  0.0000  0.0000  0.0000
                                        -0.0098  0.8557  0.0000  0.0000  0.0000
                                         0.0000  0.0000  0.0000 -0.4005 -0.3276
                                         0.0000  0.0000  0.0000
  46. (0.00085) RY ( 3)Cl  3            s( 38.97%)p 1.43( 55.66%)d 0.14(  5.36%)
                                         0.0000  0.0000  0.0129  0.6242  0.0000
                                         0.0000  0.0000  0.0000  0.0777  0.3578
                                         0.0000  0.0454  0.6485  0.0000  0.0000
                                        -0.1647  0.0448 -0.1566
  47. (0.00004) RY ( 4)Cl  3            s(  0.00%)p 1.00( 17.27%)d 4.79( 82.73%)
  48. (0.00003) RY ( 5)Cl  3            s( 10.61%)p 1.78( 18.91%)d 6.64( 70.48%)
  49. (0.00002) RY ( 6)Cl  3            s(  8.49%)p 0.26(  2.17%)d10.52( 89.34%)
  50. (0.00000) RY ( 7)Cl  3            s( 14.76%)p 1.91( 28.25%)d 3.86( 56.99%)
  51. (0.00000) RY ( 8)Cl  3            s(  0.00%)p 1.00(  9.51%)d 9.51( 90.49%)
  52. (0.00000) RY ( 9)Cl  3            s( 17.62%)p 1.38( 24.35%)d 3.29( 58.04%)
  53. (0.00261) RY ( 1) H  4            s(100.00%)
                                        -0.0069  1.0000
  54. (0.00261) RY ( 1) H  5            s(100.00%)
                                        -0.0069  1.0000


 NHO DIRECTIONALITY AND BOND BENDING (deviation from line of nuclear centers at
                                      the position of maximum hybrid amplitude)

         [Thresholds for printing:  angular deviation  >  1.0 degree]
                                    p- or d-character  > 25.0%
                                    orbital occupancy  >  0.10e

                        Line of Centers        Hybrid 1             Hybrid 2
                        ---------------  -------------------  ------------------
           NBO            Theta   Phi    Theta   Phi    Dev   Theta   Phi    Dev
 ===============================================================================
  13. LP ( 2)Cl  2          --     --     89.2  358.7   --      --     --    --
  14. LP ( 3)Cl  2          --     --     33.8   90.0   --      --     --    --
  16. LP ( 2)Cl  3          --     --     89.2    1.3   --      --     --    --
  17. LP ( 3)Cl  3          --     --     33.8  270.0   --      --     --    --
  18. BD ( 1) C  1-Cl  2  123.5   90.0   126.5   90.0   3.1     --     --    --
  19. BD ( 1) C  1-Cl  3  123.5  270.0   126.5  270.0   3.1     --     --    --
  20. BD ( 1) C  1- H  4   55.4  180.0    56.9  180.0   1.5     --     --    --
  21. BD ( 1) C  1- H  5   55.4    0.0    56.9    0.0   1.5     --     --    --


 SECOND ORDER PERTURBATION THEORY ANALYSIS OF FOCK MATRIX IN NBO BASIS

     Threshold for printing:   0.50 kcal/mol
                                                          E(2) E(NL)-E(L) F(L,NL)
      Donor (L) NBO              Acceptor (NL) NBO      kcal/mol   a.u.    a.u.
 ===============================================================================

 within unit  1
   12. LP ( 1)Cl  2            26. RY ( 1) C  1            0.74    1.87   0.033
   13. LP ( 2)Cl  2            24. BD*( 1) C  1- H  4      4.30    1.17   0.063
   13. LP ( 2)Cl  2            25. BD*( 1) C  1- H  5      4.30    1.17   0.063
   13. LP ( 2)Cl  2            29. RY ( 4) C  1            0.77    2.34   0.038
   14. LP ( 3)Cl  2            23. BD*( 1) C  1-Cl  3     12.04    0.79   0.087
   14. LP ( 3)Cl  2            24. BD*( 1) C  1- H  4      1.13    1.18   0.033
   14. LP ( 3)Cl  2            25. BD*( 1) C  1- H  5      1.13    1.18   0.033
   14. LP ( 3)Cl  2            26. RY ( 1) C  1            0.53    1.42   0.025
   14. LP ( 3)Cl  2            27. RY ( 2) C  1            0.74    1.87   0.033
   15. LP ( 1)Cl  3            26. RY ( 1) C  1            0.74    1.87   0.033
   16. LP ( 2)Cl  3            24. BD*( 1) C  1- H  4      4.30    1.17   0.063
   16. LP ( 2)Cl  3            25. BD*( 1) C  1- H  5      4.30    1.17   0.063
   16. LP ( 2)Cl  3            29. RY ( 4) C  1            0.77    2.34   0.038
   17. LP ( 3)Cl  3            22. BD*( 1) C  1-Cl  2     12.04    0.79   0.087
   17. LP ( 3)Cl  3            24. BD*( 1) C  1- H  4      1.13    1.18   0.033
   17. LP ( 3)Cl  3            25. BD*( 1) C  1- H  5      1.13    1.18   0.033
   17. LP ( 3)Cl  3            26. RY ( 1) C  1            0.53    1.42   0.025
   17. LP ( 3)Cl  3            27. RY ( 2) C  1            0.74    1.87   0.033
   18. BD ( 1) C  1-Cl  2      23. BD*( 1) C  1-Cl  3      0.64    1.14   0.024
   18. BD ( 1) C  1-Cl  2      44. RY ( 1)Cl  3            1.42    1.54   0.042
   19. BD ( 1) C  1-Cl  3      22. BD*( 1) C  1-Cl  2      0.64    1.14   0.024
   19. BD ( 1) C  1-Cl  3      35. RY ( 1)Cl  2            1.42    1.54   0.042
   20. BD ( 1) C  1- H  4      36. RY ( 2)Cl  2            1.00    1.49   0.035
   20. BD ( 1) C  1- H  4      45. RY ( 2)Cl  3            1.00    1.49   0.035
   21. BD ( 1) C  1- H  5      36. RY ( 2)Cl  2            1.00    1.49   0.035
   21. BD ( 1) C  1- H  5      45. RY ( 2)Cl  3            1.00    1.49   0.035


 NATURAL BOND ORBITALS (Summary):

                                                     Principal Delocalizations
           NBO                 Occupancy    Energy   (geminal,vicinal,remote)
 ===============================================================================
 Molecular unit  1  (CH2Cl2)
 ------ Lewis --------------------------------------
    1. CR ( 1) C  1             1.99999   -11.36283
    2. CR ( 1)Cl  2             2.00000   -96.25803
    3. CR ( 2)Cl  2             2.00000   -19.14345
    4. CR ( 3)Cl  2             2.00000    -8.03559
    5. CR ( 4)Cl  2             2.00000    -8.03826
    6. CR ( 5)Cl  2             2.00000    -8.03678
    7. CR ( 1)Cl  3             2.00000   -96.25803
    8. CR ( 2)Cl  3             2.00000   -19.14345
    9. CR ( 3)Cl  3             2.00000    -8.03559
   10. CR ( 4)Cl  3             2.00000    -8.03826
   11. CR ( 5)Cl  3             2.00000    -8.03678
   12. LP ( 1)Cl  2             1.99671    -0.92359  26(v)
   13. LP ( 2)Cl  2             1.98204    -0.46720  24(v),25(v),29(v)
   14. LP ( 3)Cl  2             1.96388    -0.47341  23(v),24(v),25(v),27(v)
                                                     26(v)
   15. LP ( 1)Cl  3             1.99671    -0.92359  26(v)
   16. LP ( 2)Cl  3             1.98204    -0.46720  24(v),25(v),29(v)
   17. LP ( 3)Cl  3             1.96388    -0.47341  22(v),24(v),25(v),27(v)
                                                     26(v)
   18. BD ( 1) C  1-Cl  2       1.99526    -0.81848  44(v),23(g)
   19. BD ( 1) C  1-Cl  3       1.99526    -0.81848  35(v),22(g)
   20. BD ( 1) C  1- H  4       1.99573    -0.74992  36(v),45(v)
   21. BD ( 1) C  1- H  5       1.99573    -0.74992  36(v),45(v)
 ------ non-Lewis ----------------------------------
   22. BD*( 1) C  1-Cl  2       0.03041     0.31724
   23. BD*( 1) C  1-Cl  3       0.03041     0.31724
   24. BD*( 1) C  1- H  4       0.02148     0.70632
   25. BD*( 1) C  1- H  5       0.02148     0.70632
   26. RY ( 1) C  1             0.00403     0.94926
   27. RY ( 2) C  1             0.00339     1.39849
   28. RY ( 3) C  1             0.00226     1.31460
   29. RY ( 4) C  1             0.00107     1.87765
   30. RY ( 5) C  1             0.00060     1.46921
   31. RY ( 6) C  1             0.00030     2.00707
   32. RY ( 7) C  1             0.00000     1.62664
   33. RY ( 8) C  1             0.00000     1.90684
   34. RY ( 9) C  1             0.00000     1.74018
   35. RY ( 1)Cl  2             0.00258     0.72403
   36. RY ( 2)Cl  2             0.00257     0.73885
   37. RY ( 3)Cl  2             0.00085     0.65969
   38. RY ( 4)Cl  2             0.00004     1.12665
   39. RY ( 5)Cl  2             0.00003     1.05611
   40. RY ( 6)Cl  2             0.00002     1.37391
   41. RY ( 7)Cl  2             0.00000     0.97160
   42. RY ( 8)Cl  2             0.00000     1.15595
   43. RY ( 9)Cl  2             0.00000     0.97945
   44. RY ( 1)Cl  3             0.00258     0.72403
   45. RY ( 2)Cl  3             0.00257     0.73885
   46. RY ( 3)Cl  3             0.00085     0.65969
   47. RY ( 4)Cl  3             0.00004     1.12665
   48. RY ( 5)Cl  3             0.00003     1.05611
   49. RY ( 6)Cl  3             0.00002     1.37391
   50. RY ( 7)Cl  3             0.00000     0.97160
   51. RY ( 8)Cl  3             0.00000     1.15595
   52. RY ( 9)Cl  3             0.00000     0.97945
   53. RY ( 1) H  4             0.00261     0.70062
   54. RY ( 1) H  5             0.00261     0.70062
          -------------------------------
                 Total Lewis   41.86722  ( 99.6839%)
           Valence non-Lewis    0.10377  (  0.2471%)
           Rydberg non-Lewis    0.02901  (  0.0691%)
          -------------------------------
               Total unit  1   42.00000  (100.0000%)
              Charge unit  1    0.00000

 $CHOOSE
   LONE 2 3 3 3 END
   BOND S 1 2 S 1 3 S 1 4 S 1 5 END
 $END

 NBO analysis completed in 0.65 CPU seconds (1 wall second)
 Maximum scratch memory used by NBO was 377644 words (2.88 MB)
 Maximum scratch memory used by G16NBO was 12891 words (0.10 MB)

 Opening RunExU unformatted file "/cluster/work/users/beto93/mol95/Gau-883965.EUF"
 Read unf file /cluster/work/users/beto93/mol95/Gau-883965.EUF:
 Label Gaussian matrix elements                                         IVers= 2 NLab= 2 Version=ES64L-G16RevC.01
 Title mol95-NBO                                                       
 NAtoms=     5 NBasis=    54 NBsUse=    54 ICharg=     0 Multip=     1 NE=    42 Len12L=8 Len4L=8 IOpCl= 0 ICGU=111
 GAUSSIAN SCALARS                    NI= 1 NR= 1 NTot=       1 LenBuf=    2 NRI=1 N=    1000
 NPA CHARGES                         NI= 0 NR= 1 NTot=       5 LenBuf= 4000 NRI=1 N=       5
 Recovered energy= -957.981349403     dipole=      0.000000000000      0.000000000000      0.778973641212
 Unable to Open any file for archive entry.
 1\1\GINC-C1-56\SP\RHF\6-31G(d)\C1H2Cl2\BETO93\18-Nov-2024\0\\#RHF/6-31
 G* int=nobasistransform Symmetry=None 5D 7F Pop=NBO7Read\\mol95-NBO\\0
 ,1\C,0,0.,0.,0.759945\Cl,0,0.,1.4742,-0.215115\Cl,0,0.,-1.4742,-0.2151
 15\H,0,-0.894585,0.,1.377127\H,0,0.894585,0.,1.377127\\Version=ES64L-G
 16RevC.01\HF=-957.9813494\RMSD=5.336e-09\Dipole=0.,0.,0.7789736\Quadru
 pole=0.3776277,-1.9841708,1.6065431,0.,0.,0.\PG=Unknown\\@
 The archive entry for this job was punched.


 REFRAIN FROM ILLUSIONS, INSIST ON WORK AND NOT WORDS,
 PATIENTLY SEEK DIVINE AND SCIENTIFIC TRUTH.
 LAST WORDS OF MARIA MENDELEEVA TO HER SON DMITRI, C. 1850
 Job cpu time:       0 days  0 hours  0 minutes  8.5 seconds.
 Elapsed time:       0 days  0 hours  0 minutes  2.8 seconds.
 File lengths (MBytes):  RWF=     10 Int=      0 D2E=      0 Chk=      1 Scr=      1
 Normal termination of Gaussian 16 at Mon Nov 18 16:40:42 2024.
