 Entering Gaussian System, Link 0=g16
 Initial command:
 /cluster/software/Gaussian/g16_C.01/l1.exe "/cluster/work/users/beto93/CH3OH/Gau-1282148.inp" -scrdir="/cluster/work/users/beto93/CH3OH/"
 Entering Link 1 = /cluster/software/Gaussian/g16_C.01/l1.exe PID=   1282156.
  
 Copyright (c) 1988-2019, Gaussian, Inc.  All Rights Reserved.
  
 This is part of the Gaussian(R) 16 program.  It is based on
 the Gaussian(R) 09 system (copyright 2009, Gaussian, Inc.),
 the Gaussian(R) 03 system (copyright 2003, Gaussian, Inc.),
 the Gaussian(R) 98 system (copyright 1998, Gaussian, Inc.),
 the Gaussian(R) 94 system (copyright 1995, Gaussian, Inc.),
 the Gaussian 92(TM) system (copyright 1992, Gaussian, Inc.),
 the Gaussian 90(TM) system (copyright 1990, Gaussian, Inc.),
 the Gaussian 88(TM) system (copyright 1988, Gaussian, Inc.),
 the Gaussian 86(TM) system (copyright 1986, Carnegie Mellon
 University), and the Gaussian 82(TM) system (copyright 1983,
 Carnegie Mellon University). Gaussian is a federally registered
 trademark of Gaussian, Inc.
  
 This software contains proprietary and confidential information,
 including trade secrets, belonging to Gaussian, Inc.
  
 This software is provided under written license and may be
 used, copied, transmitted, or stored only in accord with that
 written license.
  
 The following legend is applicable only to US Government
 contracts under FAR:
  
                    RESTRICTED RIGHTS LEGEND
  
 Use, reproduction and disclosure by the US Government is
 subject to restrictions as set forth in subparagraphs (a)
 and (c) of the Commercial Computer Software - Restricted
 Rights clause in FAR 52.227-19.
  
 Gaussian, Inc.
 340 Quinnipiac St., Bldg. 40, Wallingford CT 06492
  
  
 ---------------------------------------------------------------
 Warning -- This program may not be used in any manner that
 competes with the business of Gaussian, Inc. or will provide
 assistance to any competitor of Gaussian, Inc.  The licensee
 of this program is prohibited from giving any competitor of
 Gaussian, Inc. access to this program.  By using this program,
 the user acknowledges that Gaussian, Inc. is engaged in the
 business of creating and licensing software in the field of
 computational chemistry and represents and warrants to the
 licensee that it is not a competitor of Gaussian, Inc. and that
 it will not use this program in any manner prohibited above.
 ---------------------------------------------------------------
  

 Cite this work as:
 Gaussian 16, Revision C.01,
 M. J. Frisch, G. W. Trucks, H. B. Schlegel, G. E. Scuseria, 
 M. A. Robb, J. R. Cheeseman, G. Scalmani, V. Barone, 
 G. A. Petersson, H. Nakatsuji, X. Li, M. Caricato, A. V. Marenich, 
 J. Bloino, B. G. Janesko, R. Gomperts, B. Mennucci, H. P. Hratchian, 
 J. V. Ortiz, A. F. Izmaylov, J. L. Sonnenberg, D. Williams-Young, 
 F. Ding, F. Lipparini, F. Egidi, J. Goings, B. Peng, A. Petrone, 
 T. Henderson, D. Ranasinghe, V. G. Zakrzewski, J. Gao, N. Rega, 
 G. Zheng, W. Liang, M. Hada, M. Ehara, K. Toyota, R. Fukuda, 
 J. Hasegawa, M. Ishida, T. Nakajima, Y. Honda, O. Kitao, H. Nakai, 
 T. Vreven, K. Throssell, J. A. Montgomery, Jr., J. E. Peralta, 
 F. Ogliaro, M. J. Bearpark, J. J. Heyd, E. N. Brothers, K. N. Kudin, 
 V. N. Staroverov, T. A. Keith, R. Kobayashi, J. Normand, 
 K. Raghavachari, A. P. Rendell, J. C. Burant, S. S. Iyengar, 
 J. Tomasi, M. Cossi, J. M. Millam, M. Klene, C. Adamo, R. Cammi, 
 J. W. Ochterski, R. L. Martin, K. Morokuma, O. Farkas, 
 J. B. Foresman, and D. J. Fox, Gaussian, Inc., Wallingford CT, 2019.
 
 ******************************************
 Gaussian 16:  ES64L-G16RevC.01  3-Jul-2019
                24-Jul-2024 
 ******************************************
 %LindaWorkers=c1-30-ib
 %NProcShared=4
 Will use up to    4 processors via shared memory.
 %mem=25GB
 %chk=a.chk
 SetLPE:    new flags="-opt 'Tsnet.Node.lindarsharg: ssh'  -nodelist 'c1-30-ib.saga' -env GAUSS_MDEF=3355443200 -env GAUSS_EXEDIR="/cluster/software/Gaussian/g16_C.01/bsd:/cluster/software/Gaussian/g16_C.01""
 Will use up to    1 processors via Linda.
 ------------------------
 #RHF/6-31G* Pop=NBO7Read
 ------------------------
 1/38=1,163=2,172=1/1;
 2/12=2,17=6,18=5,40=1/2;
 3/5=1,6=6,7=1,11=1,25=1,30=1,116=1/1,2,3;
 4//1;
 5/5=2,38=5/2;
 6/7=2,8=2,9=2,10=2,28=1,40=2,113=1,114=1,124=2103/1,12;
 99/5=1,9=1/99;
 -----
 NBO-a
 -----
 Symbolic Z-matrix:
 Charge =  0 Multiplicity = 1
 C                    -0.00466   0.00807  -0.01444 
 O                    -0.69557   1.20477  -0.39396 
 H                     0.01702  -0.02947   1.07616 
 H                     1.02883  -0.00899  -0.37608 
 H                    -0.50663  -0.89548  -0.37608 
 H                    -0.68258   1.18227  -1.38474 
 
                          Input orientation:                          
 ---------------------------------------------------------------------
 Center     Atomic      Atomic             Coordinates (Angstroms)
 Number     Number       Type             X           Y           Z
 ---------------------------------------------------------------------
      1          6           0       -0.004656    0.008066   -0.014442
      2          8           0       -0.695573    1.204768   -0.393961
      3          1           0        0.017016   -0.029474    1.076161
      4          1           0        1.028828   -0.008985   -0.376080
      5          1           0       -0.506631   -0.895483   -0.376082
      6          1           0       -0.682583    1.182270   -1.384739
 ---------------------------------------------------------------------
                    Distance matrix (angstroms):
                    1          2          3          4          5
     1  C    0.000000
     2  O    1.433003   0.000000
     3  H    1.091464   2.047534   0.000000
     4  H    1.095063   2.108809   1.770081   0.000000
     5  H    1.095063   2.108808   1.770081   1.772996   0.000000
     6  H    1.927707   0.991119   2.830864   2.316335   2.316335
                    6
     6  H    0.000000
 Stoichiometry    CH4O
 Framework group  C1[X(CH4O)]
 Deg. of freedom    12
 Full point group                 C1      NOp   1
 Largest Abelian subgroup         C1      NOp   1
 Largest concise Abelian subgroup C1      NOp   1
                         Standard orientation:                         
 ---------------------------------------------------------------------
 Center     Atomic      Atomic             Coordinates (Angstroms)
 Number     Number       Type             X           Y           Z
 ---------------------------------------------------------------------
      1          6           0        0.666681   -0.016874   -0.000000
      2          8           0       -0.759100    0.126815   -0.000000
      3          1           0        1.099950    0.984911    0.000001
      4          1           0        1.032252   -0.545686   -0.886498
      5          1           0        1.032251   -0.545686    0.886498
      6          1           0       -1.091740   -0.806816   -0.000000
 ---------------------------------------------------------------------
 Rotational constants (GHZ):         125.8119119          24.5243414          23.5541269
 Standard basis: 6-31G(d) (6D, 7F)
 There are    38 symmetry adapted cartesian basis functions of A   symmetry.
 There are    38 symmetry adapted basis functions of A   symmetry.
    38 basis functions,    72 primitive gaussians,    38 cartesian basis functions
     9 alpha electrons        9 beta electrons
       nuclear repulsion energy        39.9744304770 Hartrees.
 NAtoms=    6 NActive=    6 NUniq=    6 SFac= 1.00D+00 NAtFMM=   60 NAOKFM=F Big=F
 Integral buffers will be    131072 words long.
 Raffenetti 1 integral format.
 Two-electron integral symmetry is turned on.
 One-electron integrals computed using PRISM.
 NBasis=    38 RedAO= T EigKep=  1.00D-02  NBF=    38
 NBsUse=    38 1.00D-06 EigRej= -1.00D+00 NBFU=    38
 ExpMin= 1.61D-01 ExpMax= 5.48D+03 ExpMxC= 8.25D+02 IAcc=3 IRadAn=         5 AccDes= 0.00D+00
 Harris functional with IExCor=  205 and IRadAn=       5 diagonalized for initial guess.
 HarFok:  IExCor=  205 AccDes= 0.00D+00 IRadAn=         5 IDoV= 1 UseB2=F ITyADJ=14
 ICtDFT=  3500011 ScaDFX=  1.000000  1.000000  1.000000  1.000000
 FoFCou: FMM=F IPFlag=           0 FMFlag=      100000 FMFlg1=           0
         NFxFlg=           0 DoJE=T BraDBF=F KetDBF=T FulRan=T
         wScrn=  0.000000 ICntrl=       500 IOpCl=  0 I1Cent=   200000004 NGrid=           0
         NMat0=    1 NMatS0=      1 NMatT0=    0 NMatD0=    1 NMtDS0=    0 NMtDT0=    0
 Petite list used in FoFCou.
 Keep R1 ints in memory in canonical form, NReq=1110090.
 Requested convergence on RMS density matrix=1.00D-08 within 128 cycles.
 Requested convergence on MAX density matrix=1.00D-06.
 Requested convergence on             energy=1.00D-06.
 No special actions if energy rises.
 SCF Done:  E(RHF) =  -115.031822221     A.U. after   11 cycles
            NFock= 11  Conv=0.54D-08     -V/T= 2.0031

 **********************************************************************

            Population analysis using the SCF Density.

 **********************************************************************

 Orbital symmetries:
       Occupied  (A) (A) (A) (A) (A) (A) (A) (A) (A)
       Virtual   (A) (A) (A) (A) (A) (A) (A) (A) (A) (A) (A) (A)
                 (A) (A) (A) (A) (A) (A) (A) (A) (A) (A) (A) (A)
                 (A) (A) (A) (A) (A)
 The electronic state is 1-A.
 Alpha  occ. eigenvalues --  -20.56445 -11.27287  -1.34326  -0.92032  -0.67837
 Alpha  occ. eigenvalues --   -0.61466  -0.58367  -0.50256  -0.44665
 Alpha virt. eigenvalues --    0.21842   0.27539   0.31922   0.32635   0.37512
 Alpha virt. eigenvalues --    0.76220   0.77345   0.78417   1.04184   1.12208
 Alpha virt. eigenvalues --    1.14284   1.16200   1.20467   1.25423   1.26906
 Alpha virt. eigenvalues --    1.40316   1.72466   1.77541   1.84553   2.04068
 Alpha virt. eigenvalues --    2.35995   2.43737   2.45367   2.66857   2.72917
 Alpha virt. eigenvalues --    2.75944   3.14349   4.10074   4.63636
          Condensed to atoms (all electrons):
               1          2          3          4          5          6
     1  C    4.810802   0.216061   0.399155   0.388977   0.388977  -0.029574
     2  O    0.216061   8.353842  -0.033628  -0.035208  -0.035208   0.256095
     3  H    0.399155  -0.033628   0.518775  -0.032806  -0.032806   0.005435
     4  H    0.388977  -0.035208  -0.032806   0.583069  -0.044305  -0.004504
     5  H    0.388977  -0.035208  -0.032806  -0.044305   0.583070  -0.004504
     6  H   -0.029574   0.256095   0.005435  -0.004504  -0.004504   0.346128
 Mulliken charges:
               1
     1  C   -0.174398
     2  O   -0.721953
     3  H    0.175875
     4  H    0.144777
     5  H    0.144776
     6  H    0.430924
 Sum of Mulliken charges =  -0.00000
 Mulliken charges with hydrogens summed into heavy atoms:
               1
     1  C    0.291030
     2  O   -0.291030
 Electronic spatial extent (au):  <R**2>=             84.8204
 Charge=             -0.0000 electrons
 Dipole moment (field-independent basis, Debye):
    X=              1.1097    Y=             -1.7082    Z=             -0.0000  Tot=              2.0370
 Quadrupole moment (field-independent basis, Debye-Ang):
   XX=            -12.9210   YY=            -11.8950   ZZ=            -13.7247
   XY=              2.3163   XZ=             -0.0000   YZ=              0.0000
 Traceless Quadrupole moment (field-independent basis, Debye-Ang):
   XX=             -0.0741   YY=              0.9519   ZZ=             -0.8779
   XY=              2.3163   XZ=             -0.0000   YZ=              0.0000
 Octapole moment (field-independent basis, Debye-Ang**2):
  XXX=             -3.5865  YYY=             -0.9334  ZZZ=             -0.0000  XYY=             -1.9823
  XXY=             -2.3242  XXZ=             -0.0000  XZZ=             -0.4772  YZZ=             -0.5953
  YYZ=             -0.0000  XYZ=              0.0000
 Hexadecapole moment (field-independent basis, Debye-Ang**3):
 XXXX=            -61.1522 YYYY=            -19.1466 ZZZZ=            -18.9706 XXXY=              3.6360
 XXXZ=             -0.0000 YYYX=              3.0495 YYYZ=              0.0000 ZZZX=             -0.0000
 ZZZY=              0.0000 XXYY=            -12.0862 XXZZ=            -13.8831 YYZZ=             -6.5395
 XXYZ=              0.0000 YYXZ=              0.0000 ZZXY=             -0.0877
 N-N= 3.997443047704D+01 E-N=-3.508399970437D+02  KE= 1.146810835373D+02
 Running external command "gaunbo7 R"
         input file       "/cluster/work/users/beto93/CH3OH/Gau-1282156.EIn"
         output file      "/cluster/work/users/beto93/CH3OH/Gau-1282156.EOu"
         message file     "/cluster/work/users/beto93/CH3OH/Gau-1282156.EMs"
         fchk file        "/cluster/work/users/beto93/CH3OH/Gau-1282156.EFC"
         mat. el file     "/cluster/work/users/beto93/CH3OH/Gau-1282156.EUF"

 Writing WrtUnf unformatted file "/cluster/work/users/beto93/CH3OH/Gau-1282156.EUF"
 Gaussian matrix elements                                         Version   2 NLab=11 Len12L=8 Len4L=8
 Write SHELL TO ATOM MAP                   from file      0 offset           0 length                  16 to matrix element file.
 Write SHELL TYPES                         from file      0 offset           0 length                  16 to matrix element file.
 Write NUMBER OF PRIMITIVES PER SHELL      from file      0 offset           0 length                  16 to matrix element file.
 Write PRIMITIVE EXPONENTS                 from file      0 offset           0 length                  38 to matrix element file.
 Write CONTRACTION COEFFICIENTS            from file      0 offset           0 length                  38 to matrix element file.
 Write P(S=P) CONTRACTION COEFFICIENTS     from file      0 offset           0 length                  38 to matrix element file.
 Write COORDINATES OF EACH SHELL           from file      0 offset           0 length                  48 to matrix element file.
 Write BONDS PER ATOM                      from file      0 offset           0 length                   6 to matrix element file.
 Write BONDED ATOMS                        from file      0 offset           0 length                  10 to matrix element file.
 Write BOND TYPES                          from file      0 offset           0 length                  10 to matrix element file.
 Write ONIOM CHARGE/MULT                   from file      0 offset           0 length                  32 to matrix element file.
 Write ONIOM ATOM LAYERS                   from file      0 offset           0 length                   6 to matrix element file.
 Write ONIOM ATOM MODIFIERS                from file      0 offset           0 length                   6 to matrix element file.
 Write ONIOM ATOM TYPES                    from file      0 offset           0 length                   6 to matrix element file.
 Write ONIOM LINK ATOMS                    from file      0 offset           0 length                   6 to matrix element file.
 Write ONIOM LINK CHARGES                  from file      0 offset           0 length                   6 to matrix element file.
 Write ONIOM LINK DISTANCES                from file      0 offset           0 length                  24 to matrix element file.
 Write SYMINF INTS                         from file      0 offset           0 length                  26 to matrix element file.
 Write ROTTR TO SO                         from file      0 offset           0 length                  12 to matrix element file.
 Write GAUSSIAN SCALARS                    from file    501 offset           0 to matrix element file.
 Write OPTIMIZATION FLAGS                  from file      0 offset           0 length                   6 to matrix element file.
 Write INTEGER ISO                         from file      0 offset           0 length                   6 to matrix element file.
 Write INTEGER SPIN                        from file      0 offset           0 length                   6 to matrix element file.
 Write REAL ZEFFECTIVE                     from file      0 offset           0 length                   6 to matrix element file.
 Write REAL GFACTOR                        from file      0 offset           0 length                   6 to matrix element file.
 Write REAL ZNUCLEAR                       from file      0 offset           0 length                   6 to matrix element file.
 Write MULLIKEN CHARGES                    from file      0 offset           0 length                   6 to matrix element file.
 Write NUCLEAR GRADIENT                    from file  10584 offset           0 length                  18 to matrix element file.
 Array NUCLEAR FORCE CONSTANTS              on  file  10585 does not exist.
 Write ELECTRIC DIPOLE MOMENT              from file      0 offset           0 length                   3 to matrix element file.
 Write NON-ADIABATIC COUPLING              from file  10810 offset           0 length                  18 to matrix element file.
 Write FINITE EM FIELD                     from file  10521 offset           0 length                  35 to matrix element file.
 Write OVERLAP                             from file  10514 offset           0 length                 741 to matrix element file.
 Write CORE HAMILTONIAN ALPHA              from file  10515 offset           0 length                 741 to matrix element file.
 Write CORE HAMILTONIAN BETA               from file  10515 offset         741 length                 741 to matrix element file.
 Write KINETIC ENERGY                      from file  10516 offset           0 length                 741 to matrix element file.
 Write ORTHOGONAL BASIS                    from file  10685 offset           0 length                1444 to matrix element file.
 Write DIPOLE INTEGRALS                    from file  10518 offset           0 length                2223 to matrix element file.
 Array DIP VEL INTEGRALS                    on  file  10572 does not exist.
 Array R X DEL INTEGRALS                    on  file  10572 does not exist.
 Write ALPHA ORBITAL ENERGIES              from file      0 offset           0 length                  38 to matrix element file.
 Write ALPHA MO COEFFICIENTS               from file  10524 offset           0 length                1444 to matrix element file.
 Write ALPHA DENSITY MATRIX                from file      0 offset           0 length                 741 to matrix element file.
 Write ALPHA FOCK MATRIX                   from file  10536 offset           0 length                 741 to matrix element file.
 Write ENERGY-WEIGHTED DENSITY             from file  10571 offset           0 length                 741 to matrix element file.
 Write ALPHA SCF DENSITY MATRIX            from file      0 offset           0 length                 741 to matrix element file.
 No 2e integrals to process.
 Perform NBO analysis...executing G16NBO...

 *********************************** NBO 7.0 ***********************************
             N A T U R A L   A T O M I C   O R B I T A L   A N D
          N A T U R A L   B O N D   O R B I T A L   A N A L Y S I S
 **************************** Espen Tangen (S101595) ***************************
  (c) Copyright 1996-2021 Board of Regents of the University of Wisconsin System
      on behalf of the Theoretical Chemistry Institute.  All rights reserved.

          Cite this program [NBO 7.0.10 (8-Feb-2021)] as:

          NBO 7.0.  E. D. Glendening, J. K. Badenhoop, A. E. Reed,
          J. E. Carpenter, J. A. Bohmann, C. M. Morales, P. Karafiloglou,
          C. R. Landis, and F. Weinhold, Theoretical Chemistry Institute,
          University of Wisconsin, Madison, WI (2018)

       /NPA    / : Natural Population Analysis
       /AOPNAO / : Print the AO to PNAO transformation
       /AONAO  / : Print the AO to NAO transformation
       /AONO   / : Print the NOs in the AO basis
       /AOMO   / : Print the MOs in the AO basis
       /BOAO   / : Print the AO bond-order matrix
       /DMAO   / : Print the AO density matrix
       /DMPNAO / : Print the PNAO density matrix
       /DMNAO  / : Print the NAO density matrix
       /DMMO   / : Print the MO density matrix
       /SAO    / : Print the AO overlap matrix
       /SPNAO  / : Print the PNAO overlap matrix
       /DETAIL / : Write details of NBO search
       /ARCHIVE/ : Write the archive file to lfn47
       /AOINFO / : Write AO information to lfn31
       /FILE   / : Set to inpGenNbo

 Filename set to inpGenNbo

 Job title: NBO-a


 MOs in the AO basis:

           AO          1       2       3       4       5       6       7       8
      ------------ ------- ------- ------- ------- ------- ------- ------- -------
   1.  C 1 (s)      0.0000  0.9958 -0.0691 -0.1781  0.0147  0.0000 -0.0026  0.0079
   2.  C 1 (s)      0.0002  0.0274  0.1263  0.3449 -0.0226  0.0000  0.0066 -0.0197
   3.  C 1 (px)    -0.0004 -0.0007 -0.0929  0.0803 -0.1488  0.0000 -0.3107  0.0803
   4.  C 1 (py)     0.0001  0.0000  0.0051  0.0042  0.2356  0.0000 -0.2108 -0.3237
   5.  C 1 (pz)     0.0000  0.0000  0.0000  0.0000  0.0000  0.3804  0.0000  0.0000
   6.  C 1 (s)      0.0001 -0.0120  0.0512  0.3384 -0.0629  0.0000 -0.0367  0.0021
   7.  C 1 (px)     0.0001 -0.0005 -0.0018  0.0393 -0.0433  0.0000 -0.1243  0.0167
   8.  C 1 (py)    -0.0003  0.0000 -0.0046 -0.0114  0.1121  0.0000 -0.1327 -0.1505
   9.  C 1 (pz)     0.0000  0.0000  0.0000  0.0000  0.0000  0.1759  0.0000  0.0000
  10.  C 1 (d1)     0.0001 -0.0016  0.0242 -0.0048  0.0173  0.0000  0.0284 -0.0118
  11.  C 1 (d4)    -0.0001 -0.0018 -0.0046  0.0138  0.0014  0.0000 -0.0272 -0.0126
  12.  C 1 (d6)     0.0000 -0.0018 -0.0055  0.0119 -0.0200  0.0000 -0.0032  0.0239
  13.  C 1 (d2)     0.0000  0.0000 -0.0019  0.0000 -0.0038  0.0000 -0.0137 -0.0306
  14.  C 1 (d3)     0.0000  0.0000  0.0000  0.0000  0.0000  0.0068  0.0000  0.0000
  15.  C 1 (d5)     0.0000  0.0000  0.0000  0.0000  0.0000 -0.0244  0.0000  0.0000
  16.  O 2 (s)      0.9947 -0.0001 -0.2031  0.0618 -0.0392  0.0000  0.0278 -0.0491
  17.  O 2 (s)      0.0211  0.0002  0.4583 -0.1388  0.0908  0.0000 -0.0660  0.1087
  18.  O 2 (px)     0.0007  0.0001  0.0501  0.1677  0.1984  0.0000  0.4097 -0.1610
  19.  O 2 (py)    -0.0011 -0.0001 -0.0681  0.0542  0.3746  0.0000 -0.1156  0.3684
  20.  O 2 (pz)     0.0000  0.0000  0.0000  0.0000  0.0000  0.3360  0.0000  0.0000
  21.  O 2 (s)      0.0038  0.0012  0.4355 -0.1949  0.1541  0.0000 -0.1081  0.2286
  22.  O 2 (px)    -0.0003 -0.0001  0.0286  0.0861  0.1192  0.0000  0.2836 -0.1287
  23.  O 2 (py)     0.0005  0.0002 -0.0431  0.0331  0.2333  0.0000 -0.0789  0.2845
  24.  O 2 (pz)     0.0000  0.0000  0.0000  0.0000  0.0000  0.2256  0.0000  0.0000
  25.  O 2 (d1)    -0.0042 -0.0008  0.0160  0.0166  0.0183  0.0000  0.0181 -0.0055
  26.  O 2 (d4)    -0.0040  0.0000  0.0214 -0.0147 -0.0385  0.0000 -0.0048 -0.0293
  27.  O 2 (d6)    -0.0038  0.0001 -0.0015 -0.0005  0.0057  0.0000 -0.0071  0.0087
  28.  O 2 (d2)     0.0000  0.0001  0.0032 -0.0113 -0.0032  0.0000 -0.0277  0.0047
  29.  O 2 (d3)     0.0000  0.0000  0.0000  0.0000  0.0000  0.0136  0.0000  0.0000
  30.  O 2 (d5)     0.0000  0.0000  0.0000  0.0000  0.0000 -0.0150  0.0000  0.0000
  31.  H 3 (s)      0.0000  0.0001  0.0245  0.1432  0.0707  0.0000 -0.1986 -0.2017
  32.  H 3 (s)      0.0000  0.0024  0.0063  0.0449  0.0406  0.0000 -0.1369 -0.1836
  33.  H 4 (s)      0.0000  0.0001  0.0242  0.1386 -0.1041 -0.1854  0.0010  0.1243
  34.  H 4 (s)     -0.0001  0.0024  0.0023  0.0377 -0.0623 -0.1444 -0.0026  0.1243
  35.  H 5 (s)      0.0000  0.0001  0.0242  0.1386 -0.1041  0.1854  0.0010  0.1243
  36.  H 5 (s)     -0.0001  0.0024  0.0023  0.0377 -0.0623  0.1444 -0.0026  0.1243
  37.  H 6 (s)      0.0004  0.0001  0.1165 -0.0899 -0.2127  0.0000 -0.0488 -0.1441
  38.  H 6 (s)     -0.0002  0.0004 -0.0017 -0.0240 -0.1093  0.0000 -0.0492 -0.1069

           AO          9      10      11      12      13      14      15      16
      ------------ ------- ------- ------- ------- ------- ------- ------- -------
   1.  C 1 (s)      0.0000  0.0516 -0.1413 -0.0096  0.0000  0.0601  0.0174  0.0000
   2.  C 1 (s)      0.0000 -0.0285  0.1190 -0.0008  0.0000 -0.0502 -0.2064  0.0000
   3.  C 1 (px)     0.0000 -0.1477  0.0599 -0.0683  0.0000  0.2116  0.4078  0.0000
   4.  C 1 (py)     0.0000  0.0499  0.0048 -0.3352  0.0000 -0.0546 -0.6491  0.0000
   5.  C 1 (pz)    -0.2379  0.0000  0.0000  0.0000  0.3695  0.0000  0.0000 -0.7144
   6.  C 1 (s)      0.0000 -0.9861  2.4633  0.1006  0.0000 -0.8143  0.2496  0.0000
   7.  C 1 (px)     0.0000 -0.5724  0.1962 -0.3926  0.0000  1.5244 -0.4570  0.0000
   8.  C 1 (py)     0.0000  0.1146  0.0202 -1.4464  0.0000 -0.4743  1.4146  0.0000
   9.  C 1 (pz)    -0.0985  0.0000  0.0000  0.0000  1.4822  0.0000  0.0000  1.6523
  10.  C 1 (d1)     0.0000 -0.0017 -0.0119 -0.0066  0.0000  0.0137  0.0358  0.0000
  11.  C 1 (d4)     0.0000  0.0159 -0.0006  0.0149  0.0000 -0.0109 -0.0933  0.0000
  12.  C 1 (d6)     0.0000  0.0087 -0.0072 -0.0088  0.0000 -0.0230  0.0606  0.0000
  13.  C 1 (d2)     0.0000 -0.0028 -0.0021  0.0049  0.0000 -0.0081 -0.0559  0.0000
  14.  C 1 (d3)    -0.0350  0.0000  0.0000  0.0000  0.0024  0.0000  0.0000 -0.0298
  15.  C 1 (d5)     0.0221  0.0000  0.0000  0.0000  0.0110  0.0000  0.0000  0.1079
  16.  O 2 (s)      0.0000  0.0789  0.0560  0.0081  0.0000 -0.0510  0.0019  0.0000
  17.  O 2 (s)      0.0000 -0.0588 -0.0198 -0.0072  0.0000  0.0422 -0.0141  0.0000
  18.  O 2 (px)     0.0000  0.0283 -0.0556 -0.0779  0.0000  0.3134  0.2093  0.0000
  19.  O 2 (py)     0.0000  0.2058  0.1302  0.0470  0.0000  0.1137 -0.0604  0.0000
  20.  O 2 (pz)     0.5500  0.0000  0.0000  0.0000 -0.0817  0.0000  0.0000 -0.1935
  21.  O 2 (s)      0.0000 -1.0695 -0.8435 -0.1337  0.0000  0.8294 -0.2927  0.0000
  22.  O 2 (px)     0.0000  0.0479 -0.1895 -0.1546  0.0000  0.9445 -0.0700  0.0000
  23.  O 2 (py)     0.0000  0.4813  0.2971  0.1825  0.0000  0.2726 -0.1178  0.0000
  24.  O 2 (pz)     0.4543  0.0000  0.0000  0.0000 -0.2471  0.0000  0.0000 -0.1901
  25.  O 2 (d1)     0.0000  0.0392  0.0382 -0.0026  0.0000  0.0071 -0.1003  0.0000
  26.  O 2 (d4)     0.0000  0.0257  0.0245  0.0029  0.0000 -0.0288  0.0251  0.0000
  27.  O 2 (d6)     0.0000  0.0500  0.0375  0.0009  0.0000 -0.0279  0.0146  0.0000
  28.  O 2 (d2)     0.0000  0.0029  0.0054 -0.0088  0.0000 -0.0106  0.0150  0.0000
  29.  O 2 (d3)     0.0082  0.0000  0.0000  0.0000  0.0071  0.0000  0.0000 -0.0038
  30.  O 2 (d5)    -0.0212  0.0000  0.0000  0.0000  0.0116  0.0000  0.0000  0.0173
  31.  H 3 (s)      0.0000  0.0032  0.0018  0.0628  0.0000 -0.0395 -0.4174  0.0000
  32.  H 3 (s)      0.0000  0.4134 -1.1319  1.9236  0.0000  0.2768 -0.2302  0.0000
  33.  H 4 (s)      0.1650 -0.0023 -0.0001 -0.0239  0.0310 -0.0575  0.2640  0.4351
  34.  H 4 (s)      0.1795  0.6058 -1.0915 -0.8701  1.6518 -0.3510  0.1110  0.3002
  35.  H 5 (s)     -0.1650 -0.0023 -0.0001 -0.0239 -0.0310 -0.0575  0.2640 -0.4351
  36.  H 5 (s)     -0.1795  0.6058 -1.0915 -0.8702 -1.6518 -0.3510  0.1110 -0.3002
  37.  H 6 (s)      0.0000  0.0698  0.0481 -0.0205  0.0000  0.0365  0.1614  0.0000
  38.  H 6 (s)      0.0000  1.2433  0.7154 -0.1609  0.0000  0.8842  0.0280  0.0000

           AO         17      18      19      20      21      22      23      24
      ------------ ------- ------- ------- ------- ------- ------- ------- -------
   1.  C 1 (s)     -0.0340  0.0074  0.0000 -0.0479 -0.0701  0.0436  0.0000 -0.0831
   2.  C 1 (s)      0.3704 -0.0224  0.0000 -0.3452 -0.5408 -1.3135  0.0000 -1.2800
   3.  C 1 (px)    -0.8961  0.1406  0.0000  0.0800 -0.0048 -0.4887  0.0000 -0.0211
   4.  C 1 (py)    -0.3216 -0.5097  0.0000  0.5294 -0.4663 -0.0058  0.0000  0.1130
   5.  C 1 (pz)     0.0000  0.0000 -0.8940  0.0000  0.0000  0.0000 -0.0193  0.0000
   6.  C 1 (s)     -0.3665  0.1248  0.0000  1.1820  1.4364  2.9008  0.0000  3.1147
   7.  C 1 (px)     1.2237 -0.1167  0.0000  0.0636  0.3393  0.4769  0.0000  0.4848
   8.  C 1 (py)     0.7919  0.9578  0.0000 -1.0100  0.4660 -0.0492  0.0000  0.0701
   9.  C 1 (pz)     0.0000  0.0000  1.3839  0.0000  0.0000  0.0000 -0.5193  0.0000
  10.  C 1 (d1)    -0.0341  0.1192  0.0000  0.0763 -0.0564 -0.0810  0.0000 -0.2067
  11.  C 1 (d4)    -0.0164 -0.0085  0.0000 -0.1095  0.0661 -0.0174  0.0000 -0.1533
  12.  C 1 (d6)     0.0685 -0.0599  0.0000 -0.0218 -0.1744 -0.0634  0.0000  0.0292
  13.  C 1 (d2)    -0.0068  0.1241  0.0000 -0.0662  0.0778  0.0083  0.0000  0.0334
  14.  C 1 (d3)     0.0000  0.0000  0.1418  0.0000  0.0000  0.0000  0.0119  0.0000
  15.  C 1 (d5)     0.0000  0.0000 -0.1496  0.0000  0.0000  0.0000 -0.1230  0.0000
  16.  O 2 (s)      0.0168 -0.0257  0.0000 -0.0167 -0.0046 -0.0051  0.0000  0.0001
  17.  O 2 (s)     -0.2696  0.0921  0.0000 -0.6277 -0.6844 -0.1428  0.0000  0.2580
  18.  O 2 (px)    -0.1836  0.1821  0.0000  0.2327 -0.0572  0.2937  0.0000 -0.5917
  19.  O 2 (py)     0.0129 -0.2571  0.0000 -0.5223  0.1629 -0.1035  0.0000  0.0728
  20.  O 2 (pz)     0.0000  0.0000  0.1910  0.0000  0.0000  0.0000 -0.9253  0.0000
  21.  O 2 (s)      0.7208 -0.1655  0.0000  1.1025  1.2379  0.1009  0.0000 -0.7549
  22.  O 2 (px)     0.0232 -0.3877  0.0000 -0.4560  0.1015 -0.4482  0.0000  0.5871
  23.  O 2 (py)    -0.1468 -0.2242  0.0000  0.5030 -0.0123  0.1365  0.0000 -0.2459
  24.  O 2 (pz)     0.0000  0.0000 -0.2806  0.0000  0.0000  0.0000  1.1850  0.0000
  25.  O 2 (d1)     0.0738 -0.0224  0.0000 -0.2477 -0.2899 -0.0902  0.0000  0.0178
  26.  O 2 (d4)    -0.1207 -0.1059  0.0000 -0.2430 -0.0850 -0.0414  0.0000  0.0517
  27.  O 2 (d6)    -0.1106  0.0955  0.0000 -0.1911 -0.2369 -0.0484  0.0000  0.2021
  28.  O 2 (d2)    -0.0090 -0.1305  0.0000  0.0106 -0.0191 -0.0082  0.0000 -0.0299
  29.  O 2 (d3)     0.0000  0.0000 -0.1034  0.0000  0.0000  0.0000 -0.0763  0.0000
  30.  O 2 (d5)     0.0000  0.0000  0.0214  0.0000  0.0000  0.0000 -0.0284  0.0000
  31.  H 3 (s)     -0.3236  0.3195  0.0000 -0.6318  0.2260  0.5901  0.0000 -0.4270
  32.  H 3 (s)     -0.2529 -0.8772  0.0000  0.7397 -1.1059 -1.0616  0.0000 -0.5501
  33.  H 4 (s)      0.0074 -0.2727 -0.6569 -0.1409 -0.5722  0.4727 -0.1912 -0.1067
  34.  H 4 (s)      0.0472  0.4811  1.3548 -0.5709  0.2041 -0.9534 -0.0106 -0.8252
  35.  H 5 (s)      0.0074 -0.2727  0.6569 -0.1409 -0.5722  0.4727  0.1912 -0.1067
  36.  H 5 (s)      0.0472  0.4811 -1.3548 -0.5709  0.2041 -0.9534  0.0106 -0.8252
  37.  H 6 (s)     -0.0913 -0.9220  0.0000 -0.1188  0.5583  0.0275  0.0000 -0.3911
  38.  H 6 (s)      0.3250  0.6150  0.0000 -0.2569 -0.7467 -0.1044  0.0000  0.4162

           AO         25      26      27      28      29      30      31      32
      ------------ ------- ------- ------- ------- ------- ------- ------- -------
   1.  C 1 (s)      0.0130 -0.0719  0.0000  0.0296  0.0000  0.0177  0.0002  0.0000
   2.  C 1 (s)      0.2659 -0.8726  0.0000  0.2854  0.0000 -0.1696  0.1006  0.0000
   3.  C 1 (px)    -0.0828 -0.1424  0.0000  0.1189  0.0000  0.2510 -0.0381  0.0000
   4.  C 1 (py)    -0.2422 -0.0982  0.0000 -0.0935  0.0000  0.0327  0.1421  0.0000
   5.  C 1 (pz)     0.0000  0.0000  0.1843  0.0000 -0.0305  0.0000  0.0000 -0.1480
   6.  C 1 (s)     -0.8152  3.6514  0.0000 -1.5437  0.0000 -0.4532 -0.1351  0.0000
   7.  C 1 (px)     0.3315 -0.9012  0.0000  0.4381  0.0000 -0.2027  0.2747  0.0000
   8.  C 1 (py)     0.0075  0.2108  0.0000 -0.0763  0.0000  0.3520  0.6687  0.0000
   9.  C 1 (pz)     0.0000  0.0000 -0.1327  0.0000 -0.3265  0.0000  0.0000 -0.6625
  10.  C 1 (d1)    -0.0955  0.1350  0.0000 -0.1716  0.0000  0.6654 -0.4315  0.0000
  11.  C 1 (d4)     0.1848  0.0945  0.0000  0.3266  0.0000 -0.0368  0.9456  0.0000
  12.  C 1 (d6)    -0.0944 -0.2650  0.0000 -0.1516  0.0000 -0.7245 -0.4535  0.0000
  13.  C 1 (d2)    -0.0616 -0.2965  0.0000 -0.4860  0.0000 -0.1348  0.0083  0.0000
  14.  C 1 (d3)     0.0000  0.0000  0.6381  0.0000 -0.1244  0.0000  0.0000  0.1251
  15.  C 1 (d5)     0.0000  0.0000  0.3828  0.0000  0.1822  0.0000  0.0000  0.8674
  16.  O 2 (s)      0.0181  0.0878  0.0000 -0.0574  0.0000  0.0039 -0.0334  0.0000
  17.  O 2 (s)      0.4202  1.1561  0.0000 -0.7344  0.0000 -0.5261  0.0073  0.0000
  18.  O 2 (px)    -0.4089  0.3476  0.0000 -0.1408  0.0000 -0.4032  0.1811  0.0000
  19.  O 2 (py)    -0.7940  0.0112  0.0000  0.0784  0.0000  0.1198  0.1243  0.0000
  20.  O 2 (pz)     0.0000  0.0000  0.0017  0.0000 -0.0511  0.0000  0.0000 -0.1309
  21.  O 2 (s)     -0.8775 -3.4824  0.0000  2.1400  0.0000  0.7795  0.4254  0.0000
  22.  O 2 (px)     0.8661 -1.4597  0.0000  0.6174  0.0000  0.4002 -0.1383  0.0000
  23.  O 2 (py)     1.3180  0.0772  0.0000 -0.5164  0.0000 -0.3879 -0.6047  0.0000
  24.  O 2 (pz)     0.0000  0.0000  0.1381  0.0000  0.1412  0.0000  0.0000  0.3506
  25.  O 2 (d1)     0.1311  0.5809  0.0000 -0.2253  0.0000  0.2195 -0.2800  0.0000
  26.  O 2 (d4)     0.2102  0.2908  0.0000 -0.5389  0.0000 -0.0077  0.3625  0.0000
  27.  O 2 (d6)     0.0391  0.1457  0.0000  0.1465  0.0000 -0.4605 -0.1783  0.0000
  28.  O 2 (d2)     0.0254  0.2879  0.0000  0.4449  0.0000 -0.1936 -0.3286  0.0000
  29.  O 2 (d3)     0.0000  0.0000 -0.5063  0.0000  0.2583  0.0000  0.0000  0.5537
  30.  O 2 (d5)     0.0000  0.0000  0.1659  0.0000  0.9317  0.0000  0.0000 -0.3272
  31.  H 3 (s)      0.2788 -0.2506  0.0000  0.2462  0.0000  0.0009 -0.6950  0.0000
  32.  H 3 (s)     -0.2502 -0.5181  0.0000  0.1610  0.0000 -0.0478 -0.0724  0.0000
  33.  H 4 (s)      0.0132 -0.3721  0.1291  0.0585 -0.1796  0.3836  0.1717 -0.5300
  34.  H 4 (s)      0.1357 -0.3085 -0.1523  0.1493 -0.1154  0.0610  0.0704 -0.0685
  35.  H 5 (s)      0.0132 -0.3721 -0.1291  0.0585  0.1796  0.3835  0.1717  0.5300
  36.  H 5 (s)      0.1357 -0.3085  0.1523  0.1493  0.1154  0.0610  0.0704  0.0685
  37.  H 6 (s)      0.1742  0.1358  0.0000 -0.3475  0.0000 -0.2180 -0.4165  0.0000
  38.  H 6 (s)      0.9589 -0.0899  0.0000 -0.1402  0.0000 -0.0588  0.0297  0.0000

           AO         33      34      35      36      37      38
      ------------ ------- ------- ------- ------- ------- -------
   1.  C 1 (s)      0.0152  0.0000  0.0316  0.0703 -0.0632 -0.4752
   2.  C 1 (s)      0.0436  0.0000  0.0405 -0.3763  0.5450  2.9178
   3.  C 1 (px)     0.0557  0.0000  0.2253  0.7729  0.0191  0.1222
   4.  C 1 (py)     0.0311  0.0000 -0.0773 -0.0787  0.0306 -0.0209
   5.  C 1 (pz)     0.0000  0.0585  0.0000  0.0000  0.0000  0.0000
   6.  C 1 (s)     -0.4640  0.0000 -1.0534 -1.5482 -1.0716  2.2489
   7.  C 1 (px)     0.1494  0.0000  0.4321  0.7570  0.5356  0.1439
   8.  C 1 (py)    -0.0588  0.0000 -0.0400 -0.1335 -0.1661  0.0189
   9.  C 1 (pz)     0.0000 -0.0647  0.0000  0.0000  0.0000  0.0000
  10.  C 1 (d1)     0.0599  0.0000 -0.3297 -0.8368 -0.1449 -2.0457
  11.  C 1 (d4)     0.1997  0.0000 -0.1639  0.4954 -0.2871 -1.8217
  12.  C 1 (d6)    -0.2243  0.0000  0.5401  0.4588 -0.2646 -1.8259
  13.  C 1 (d2)     0.8533  0.0000 -0.3392  0.2165 -0.0358  0.0320
  14.  C 1 (d3)     0.0000  0.8681  0.0000  0.0000  0.0000  0.0000
  15.  C 1 (d5)     0.0000 -0.5061  0.0000  0.0000  0.0000  0.0000
  16.  O 2 (s)     -0.0202  0.0000 -0.0610 -0.0670 -0.4948  0.0695
  17.  O 2 (s)     -0.1997  0.0000 -0.6227 -0.5508  0.0761 -0.0554
  18.  O 2 (px)    -0.0193  0.0000 -0.0175 -0.0148 -0.1390  0.1113
  19.  O 2 (py)    -0.0358  0.0000  0.0672 -0.0503  0.0910 -0.0205
  20.  O 2 (pz)     0.0000 -0.0404  0.0000  0.0000  0.0000  0.0000
  21.  O 2 (s)      0.6358  0.0000  1.9617  1.9948  4.4670 -0.7447
  22.  O 2 (px)     0.1964  0.0000  0.3948  1.4228  0.6001  0.0735
  23.  O 2 (py)    -0.0104  0.0000 -0.7519  0.1625 -0.3104  0.0200
  24.  O 2 (pz)     0.0000  0.2160  0.0000  0.0000  0.0000  0.0000
  25.  O 2 (d1)     0.0693  0.0000 -0.0217  1.0738 -1.4969  0.5865
  26.  O 2 (d4)     0.0468  0.0000  0.6281 -0.8715 -1.6526  0.1706
  27.  O 2 (d6)    -0.2340  0.0000 -0.9612 -0.5138 -1.7297  0.1689
  28.  O 2 (d2)     0.8036  0.0000  0.2510 -0.2912  0.0130 -0.0471
  29.  O 2 (d3)     0.0000  0.7052  0.0000  0.0000  0.0000  0.0000
  30.  O 2 (d5)     0.0000  0.0205  0.0000  0.0000  0.0000  0.0000
  31.  H 3 (s)     -0.3537  0.0000  0.3625 -0.0596  0.1455  0.1100
  32.  H 3 (s)      0.2211  0.0000 -0.0214  0.1546  0.0791 -0.5197
  33.  H 4 (s)      0.2311  0.4244 -0.1449 -0.0095  0.1057  0.1185
  34.  H 4 (s)     -0.0563 -0.2035  0.1494  0.0952  0.0035 -0.5025
  35.  H 5 (s)      0.2311 -0.4244 -0.1449 -0.0095  0.1057  0.1185
  36.  H 5 (s)     -0.0563  0.2035  0.1494  0.0952  0.0035 -0.5025
  37.  H 6 (s)     -0.3990  0.0000 -1.0530  0.3694  0.0510 -0.0060
  38.  H 6 (s)      0.0939  0.0000  0.0092  0.0781 -0.5091  0.0489


 NOs in the AO basis:

           AO          1       2       3       4       5       6       7       8
      ------------ ------- ------- ------- ------- ------- ------- ------- -------
   1.  C 1 (s)      0.7899  0.2245 -0.2504 -0.4032  0.0438  0.0669 -0.1534 -0.3143
   2.  C 1 (s)      0.0092  0.0616 -0.0613 -0.0458 -0.0232 -0.0111  0.3220  0.1501
   3.  C 1 (px)     0.0209  0.2197  0.1525  0.0735  0.0098  0.0121  0.0400  0.0059
   4.  C 1 (py)     0.1349  0.0611 -0.0529  0.3489  0.1681  0.0926  0.0485 -0.0034
   5.  C 1 (pz)     0.0570 -0.0064  0.0335  0.0097 -0.2249  0.3286 -0.0799  0.1773
   6.  C 1 (s)     -0.0181  0.0795  0.0190 -0.0404 -0.0002  0.0019  0.2999  0.1451
   7.  C 1 (px)     0.0105  0.0863  0.0307  0.0481 -0.0041  0.0000  0.0304  0.0100
   8.  C 1 (py)     0.0694  0.0486 -0.0153  0.1850  0.0802  0.0440  0.0094 -0.0098
   9.  C 1 (pz)     0.0277 -0.0026  0.0149  0.0039 -0.0984  0.1438 -0.0395  0.0872
  10.  C 1 (d1)    -0.0031 -0.0212 -0.0265  0.0002 -0.0058 -0.0039  0.0019  0.0030
  11.  C 1 (d4)     0.0063  0.0155  0.0070  0.0201  0.0099  0.0059  0.0127  0.0044
  12.  C 1 (d6)    -0.0083  0.0093  0.0132 -0.0176 -0.0092 -0.0050  0.0058  0.0040
  13.  C 1 (d2)     0.0091 -0.0041 -0.0055  0.0210  0.0183  0.0122  0.0049  0.0005
  14.  C 1 (d3)    -0.0026 -0.0010  0.0022  0.0016 -0.0188  0.0275  0.0055 -0.0107
  15.  C 1 (d5)    -0.0028  0.0006 -0.0025 -0.0009  0.0177 -0.0259  0.0036 -0.0083
  16.  O 2 (s)     -0.4468  0.4766 -0.2594 -0.3115  0.5056  0.4016 -0.1488  0.0468
  17.  O 2 (s)     -0.0505  0.0789 -0.3404  0.1388 -0.2801 -0.1648 -0.0648 -0.0057
  18.  O 2 (px)    -0.0116 -0.2513 -0.1185 -0.1349  0.0697  0.0306  0.1778  0.0944
  19.  O 2 (py)    -0.0212  0.3164  0.2072 -0.0128 -0.1912 -0.1592 -0.0456 -0.0241
  20.  O 2 (pz)     0.1407  0.0162 -0.0107 -0.0275  0.1665 -0.2439 -0.2420  0.4982
  21.  O 2 (s)     -0.0538  0.1478 -0.2792  0.1365 -0.3503 -0.2176 -0.1375 -0.0420
  22.  O 2 (px)    -0.0050 -0.1916 -0.0875 -0.0866  0.0594  0.0300  0.1002  0.0540
  23.  O 2 (py)    -0.0253  0.2240  0.1463 -0.0297 -0.1493 -0.1190 -0.0389 -0.0181
  24.  O 2 (pz)     0.1046  0.0133 -0.0117 -0.0225  0.1526 -0.2235 -0.1817  0.3727
  25.  O 2 (d1)     0.0003 -0.0089 -0.0117 -0.0010 -0.0057 -0.0050  0.0182  0.0092
  26.  O 2 (d4)     0.0037 -0.0226 -0.0269  0.0134  0.0060  0.0079 -0.0015 -0.0007
  27.  O 2 (d6)     0.0017  0.0073  0.0066  0.0027 -0.0059 -0.0047 -0.0019 -0.0016
  28.  O 2 (d2)     0.0029  0.0167  0.0015  0.0165 -0.0048 -0.0026 -0.0102 -0.0056
  29.  O 2 (d3)     0.0040  0.0003  0.0003 -0.0004  0.0000  0.0000 -0.0066  0.0139
  30.  O 2 (d5)    -0.0059 -0.0006  0.0003  0.0011 -0.0058  0.0085  0.0100 -0.0207
  31.  H 3 (s)      0.0835  0.0948 -0.0206  0.2157  0.1076  0.0645  0.1563  0.0562
  32.  H 3 (s)      0.0703  0.0351 -0.0285  0.1730  0.1011  0.0632  0.0679  0.0176
  33.  H 4 (s)     -0.0658  0.0596  0.0150 -0.1151  0.0661 -0.2314  0.1332 -0.0073
  34.  H 4 (s)     -0.0451  0.0510  0.0200 -0.0895  0.0627 -0.2260  0.0237 -0.0157
  35.  H 5 (s)     -0.0219  0.0506  0.0528 -0.1011 -0.2002  0.1577  0.0775  0.1215
  36.  H 5 (s)     -0.0231  0.0410  0.0548 -0.0737 -0.1937  0.1487  0.0034  0.0387
  37.  H 6 (s)      0.0094 -0.0935 -0.1495  0.0748  0.0315  0.0444 -0.0237 -0.0085
  38.  H 6 (s)      0.0216 -0.0397 -0.0310  0.0507  0.0646  0.0513  0.0014 -0.0036

           AO          9      10      11      12      13      14      15      16
      ------------ ------- ------- ------- ------- ------- ------- ------- -------
   1.  C 1 (s)     -0.0022  0.0579 -0.0523 -0.0149 -0.0493 -0.0029 -0.0139 -0.0230
   2.  C 1 (s)      0.0050 -0.3230  0.0799  0.1225  0.1940  0.0595  0.0766 -0.3130
   3.  C 1 (px)     0.2469  0.0911 -0.1402 -0.1250 -0.3193 -0.1431  0.0854 -0.0497
   4.  C 1 (py)    -0.1384 -0.5743 -0.7317  0.2477  0.2617  0.2130  0.0644 -0.1792
   5.  C 1 (pz)    -0.0213 -0.2000 -0.0708  0.3553 -0.2342  0.0349 -0.0173  0.1034
   6.  C 1 (s)      0.0546 -0.1772  0.0552 -0.1901 -0.2193 -0.1117 -0.0799  0.3567
   7.  C 1 (px)     0.0854 -0.3694 -0.0748 -0.0494  0.1217 -0.0412  0.1575  1.3630
   8.  C 1 (py)    -0.0528  1.8679  0.5328  0.1894  0.1683  0.1439 -0.1163  1.0023
   9.  C 1 (pz)    -0.0092  1.3360 -0.1253  0.0301 -0.5874 -0.0962  0.1141 -0.6926
  10.  C 1 (d1)    -0.0252  0.4254 -0.4980 -0.1722 -0.3325  0.0802 -0.2515 -0.0992
  11.  C 1 (d4)     0.0079  0.3213  0.0624 -0.0244 -0.1340  0.0084  0.0067  0.0214
  12.  C 1 (d6)     0.0188  0.1069 -0.2824 -0.1563 -0.1701  0.0776  0.0803  0.0771
  13.  C 1 (d2)     0.0082  0.0149  0.0269  0.0536 -0.0530 -0.2856  0.2011 -0.0835
  14.  C 1 (d3)    -0.0020 -0.0157 -0.0091 -0.0657 -0.0964  0.1129  0.1005  0.0018
  15.  C 1 (d5)     0.0017 -0.0204  0.0419  0.0835  0.2370 -0.1125 -0.2757  0.0365
  16.  O 2 (s)     -0.0824  0.0130  0.0104 -0.0393  0.0037 -0.0164  0.0188 -0.1869
  17.  O 2 (s)     -0.0212  0.2461 -0.1488  0.2125  0.0125  0.3051  0.0907 -1.1330
  18.  O 2 (px)    -0.3492  0.0079 -0.0135  0.0704 -0.4812 -0.1131  0.1171  0.0562
  19.  O 2 (py)    -0.2979  0.0534  0.2375  0.0018 -0.0812  0.8391  0.2240  0.2219
  20.  O 2 (pz)     0.0212 -0.0327  0.0410  0.7486 -0.2577 -0.0198 -0.0136  0.0033
  21.  O 2 (s)     -0.0570 -0.7117  0.0938 -0.0822  0.0669 -0.4560  0.1113  4.0324
  22.  O 2 (px)    -0.2240 -0.2276 -0.0377 -0.0665  0.3389  0.0144  0.0564  0.4266
  23.  O 2 (py)    -0.1821 -0.2995 -0.3483  0.1003 -0.2274 -0.7555 -0.1899 -0.8559
  24.  O 2 (pz)     0.0187 -0.1804 -0.0284 -0.8846  0.4835  0.0830 -0.0025  0.1166
  25.  O 2 (d1)    -0.0234 -0.0553  0.1676 -0.2332 -0.0709  0.0549  0.3258 -0.8474
  26.  O 2 (d4)     0.0390  0.1371 -0.2833 -0.0546  0.2917 -0.1973 -0.0155 -0.6120
  27.  O 2 (d6)    -0.0020  0.0384  0.0767 -0.1293 -0.0289 -0.0904  0.1851 -0.7355
  28.  O 2 (d2)     0.0146 -0.0657 -0.1068 -0.0726  0.0154 -0.0743  0.1195 -0.0124
  29.  O 2 (d3)     0.0001 -0.0728  0.0187 -0.0481  0.1009 -0.0439 -0.2179  0.0366
  30.  O 2 (d5)    -0.0008 -0.0224  0.0047 -0.0181 -0.0153  0.0019 -0.0994  0.0089
  31.  H 3 (s)      0.0021  0.0666 -0.2399 -0.1945  0.0225  0.0642 -0.1478  0.2379
  32.  H 3 (s)      0.0106 -1.3904  0.5850 -0.1236 -0.2915 -0.1258  0.0199 -1.6927
  33.  H 4 (s)      0.1028 -0.3616 -0.2224 -0.0999 -0.7038  0.0452 -0.0069  0.0049
  34.  H 4 (s)      0.0705  2.2821  0.0036  0.6128  0.5397  0.0278  0.1303 -0.6119
  35.  H 5 (s)      0.0769  0.2180 -0.3062 -0.1624  0.3748  0.1123 -0.4081 -0.1768
  36.  H 5 (s)      0.0450 -0.5745  0.5039  0.4146  0.5679 -0.0369  0.3873  0.7171
  37.  H 6 (s)      0.2228  0.0498  0.0426  0.1134 -0.3259  0.0263  0.8779 -0.3400
  38.  H 6 (s)      0.1183  0.0253 -0.0811  0.0919 -0.1098  0.3563 -1.2924 -0.4636

           AO         17      18      19      20      21      22      23      24
      ------------ ------- ------- ------- ------- ------- ------- ------- -------
   1.  C 1 (s)     -0.0014 -0.0040  0.0210  0.0069 -0.0056  0.0745 -0.0092  0.0403
   2.  C 1 (s)      0.1565  0.2518  0.0406 -0.0682 -0.1493 -0.0996  0.0056  2.5286
   3.  C 1 (px)     0.0337  0.4045  0.1437 -0.4816  0.4519 -0.1657 -0.3426  0.2383
   4.  C 1 (py)    -0.1192  0.1916 -0.3962 -0.0774 -0.1448 -0.1534 -0.0745 -0.0856
   5.  C 1 (pz)     0.6967  0.1676  0.0877 -0.1022  0.1257 -0.1533  0.6363 -0.0334
   6.  C 1 (s)     -0.2215 -0.2720 -0.2513  0.1407  0.0607 -0.2499  0.2693 -6.2020
   7.  C 1 (px)    -0.2803 -0.7141  0.9880  0.7528 -0.2361  0.1358  0.3563  0.4600
   8.  C 1 (py)     0.2801  0.7709  0.8407 -0.2117 -0.2374  0.1335 -0.3464 -0.0783
   9.  C 1 (pz)    -0.3178 -0.6384 -0.6624  0.7331 -0.8314 -0.2305 -0.9310  0.0272
  10.  C 1 (d1)    -0.4278 -0.0852 -0.4717  0.3903 -0.0378 -0.1786  0.3934 -0.3719
  11.  C 1 (d4)    -0.0965  0.1440  0.0627  0.1530 -0.0702  0.0115 -0.0552 -0.2536
  12.  C 1 (d6)    -0.2745 -0.2773  0.2857  0.1520  0.3836  0.0415 -0.0801 -0.1270
  13.  C 1 (d2)    -0.1110  0.0029  0.1122 -0.0799 -0.0978  0.2639  0.1391  0.0038
  14.  C 1 (d3)     0.1456  0.0265  0.0059 -0.0252  0.2951  0.2624  0.4409 -0.0131
  15.  C 1 (d5)    -0.1105  0.0745  0.0130 -0.1180  0.1084  0.0630  0.0221  0.0153
  16.  O 2 (s)      0.0732 -0.1083  0.0402 -0.0012  0.0769 -0.0505 -0.0776 -0.0997
  17.  O 2 (s)     -0.3029  0.3233  0.7156  0.0507 -0.4043  0.2764  0.3347 -0.7391
  18.  O 2 (px)    -0.2508  0.3274 -0.0211 -0.3472 -0.1756  0.2123  0.1383 -0.0032
  19.  O 2 (py)     0.0003  0.0549 -0.2896  0.0642 -0.0816  0.1172 -0.0186  0.0174
  20.  O 2 (pz)    -0.1014 -0.0964  0.0339  0.2825  0.2834  0.0653 -0.2970  0.0031
  21.  O 2 (s)     -0.0926  0.3216 -1.4105  0.3383  0.0335  0.0031  0.1721  3.0491
  22.  O 2 (px)     0.3041 -0.7043  0.8522 -0.0328  0.2970  0.1307 -0.3561  1.1081
  23.  O 2 (py)    -0.3393 -1.0880  0.4870 -0.7133 -0.0006 -0.0260  0.2224 -0.1679
  24.  O 2 (pz)     0.0983  0.2273  0.0758 -0.4800  0.0017  0.0792  0.5991 -0.0032
  25.  O 2 (d1)     0.4392 -0.1457  0.9106 -0.3140  0.5031 -0.5450 -0.4612 -0.2014
  26.  O 2 (d4)     0.2349 -0.0260  0.1154  0.5807 -0.1210  0.2935 -0.1108 -0.3275
  27.  O 2 (d6)     0.2310 -0.3431  0.2114  0.1141  0.3454  0.0620 -0.2359 -0.3356
  28.  O 2 (d2)     0.0091  0.0687 -0.0856  0.2456  0.0103  0.0379  0.0559  0.0073
  29.  O 2 (d3)     0.0320  0.0340  0.0397 -0.0523  0.1059 -0.0896  0.2568 -0.0003
  30.  O 2 (d5)     0.0055  0.0012  0.0072 -0.0042 -0.0034 -0.0361 -0.0329 -0.0013
  31.  H 3 (s)      0.6133 -0.7428  0.1813 -0.0997  0.0242  0.2598 -0.0764  0.3127
  32.  H 3 (s)     -0.4312  0.3229 -1.0682  0.2665  0.2351  0.0653  0.2474  1.2465
  33.  H 4 (s)      0.7332  0.2683 -0.0134  0.0996 -0.4831  0.3119 -0.2727  0.1105
  34.  H 4 (s)     -0.0045 -0.1212 -0.4688 -0.1501 -0.3788 -0.3234 -0.1826  1.3454
  35.  H 5 (s)     -0.1681  0.2062 -0.2352 -0.1117  0.3894  0.6558 -0.2263  0.1998
  36.  H 5 (s)      0.3973  0.7968  0.8883 -0.9202 -0.2360 -0.1218 -0.0397  1.2475
  37.  H 6 (s)     -0.2252 -0.7572 -0.1216 -0.8723  0.1114 -0.0452  0.0717 -0.1734
  38.  H 6 (s)     -0.2546 -0.5879  1.2770 -0.1239 -0.2935  0.2248  0.0151  0.1434

           AO         25      26      27      28      29      30      31      32
      ------------ ------- ------- ------- ------- ------- ------- ------- -------
   1.  C 1 (s)      0.0450  0.0556  0.0081 -0.0393 -0.0025 -0.0083 -0.0159 -0.0070
   2.  C 1 (s)     -0.1368 -0.3403 -0.0164  0.3498  0.1823  0.0343  0.0750  0.0454
   3.  C 1 (px)    -0.3659 -0.0179 -0.2068 -0.3063  0.0057 -0.1953  0.2871  0.0599
   4.  C 1 (py)    -0.1141 -0.0450  0.0861 -0.2906  0.0472 -0.0601  0.0247 -0.0282
   5.  C 1 (pz)     0.0196 -0.2193  0.2181  0.0682  0.0415  0.1150 -0.0331  0.0011
   6.  C 1 (s)     -0.0173  0.2729 -0.2071  0.2309 -0.0332  0.0331 -0.0483 -0.0888
   7.  C 1 (px)     0.2686 -0.3730  0.1164 -1.3193 -0.0305  0.0127 -0.1396  0.1536
   8.  C 1 (py)     0.2692 -0.7104 -0.0314  0.4664 -0.1625  0.0892 -0.1108 -0.1374
   9.  C 1 (pz)    -0.4294  0.4031  0.0320 -0.7174 -0.3811 -0.0058  0.1198  0.2941
  10.  C 1 (d1)     0.0072 -0.0724 -0.3740  0.7102 -0.1635 -0.0028 -0.1519 -0.3551
  11.  C 1 (d4)     0.1990 -0.1757  0.1211 -0.3356  1.0303  0.1617 -0.0403  0.0543
  12.  C 1 (d6)    -0.0029  0.4658  0.8869  0.1001 -0.1587 -0.0594  0.0517  0.4746
  13.  C 1 (d2)    -0.4269 -0.1909  0.4421 -0.1146  0.0953 -0.1221 -0.1178 -0.6214
  14.  C 1 (d3)    -0.1830 -0.0513 -0.2040  0.0177 -0.1552  0.0485  0.0185  0.2516
  15.  C 1 (d5)    -0.2033  0.0119 -0.0789 -0.0257  0.1920 -0.2317 -0.4746  0.4545
  16.  O 2 (s)      0.0107 -0.0889  0.0188 -0.0542 -0.0177  0.0048 -0.0220 -0.0170
  17.  O 2 (s)     -0.0860  0.1670 -0.1500  0.7069  0.2362 -0.1426  0.1321  0.1162
  18.  O 2 (px)     0.1651  0.4900  0.0335 -0.2580  0.0922 -0.0057 -0.0085  0.0850
  19.  O 2 (py)    -0.0601  0.0005  0.0285 -0.0470  0.0172 -0.2338 -0.0193 -0.0383
  20.  O 2 (pz)     0.0663  0.0776 -0.1090  0.0778  0.0090 -0.0134 -0.0359 -0.1039
  21.  O 2 (s)      0.2275  0.5239  0.2051 -1.2204 -0.1503  0.0879 -0.1338  0.0577
  22.  O 2 (px)    -0.2875 -0.8468 -0.1442 -0.8870 -0.1971 -0.1762  0.2055  0.0897
  23.  O 2 (py)    -0.0208 -0.3231  0.0332  0.1458  0.1055  0.2192  0.0085  0.0054
  24.  O 2 (pz)     0.0094 -0.1402  0.0511  0.0256  0.0489  0.0309  0.0053  0.0621
  25.  O 2 (d1)     0.1153 -0.0211  0.0934 -0.7187 -0.1097 -0.0358 -0.2523 -0.2071
  26.  O 2 (d4)     0.2481 -0.2007  0.0732 -0.0074 -0.1390  0.0584 -0.0380  0.1828
  27.  O 2 (d6)    -0.3969 -0.3545 -0.1370 -0.1611  0.1641 -0.2506  0.2562 -0.0301
  28.  O 2 (d2)    -0.2515  0.1470  0.0106  0.0733 -0.0396  0.4056 -0.1321 -0.0087
  29.  O 2 (d3)     0.2893 -0.0175  0.0001  0.0469  0.0187 -0.6496  0.3327  0.0602
  30.  O 2 (d5)    -0.0900 -0.0053 -0.0111  0.0139 -0.0005 -0.3218 -0.6349 -0.0968
  31.  H 3 (s)      0.0279  0.8500 -0.3241  0.3664 -0.0411 -0.0748  0.0133 -0.0532
  32.  H 3 (s)      0.0302  0.0365  0.2007 -0.3191 -0.2573 -0.0456  0.0613  0.1902
  33.  H 4 (s)      0.1108 -0.5111 -0.0139  0.0695 -0.2516  0.0058 -0.0546 -0.1628
  34.  H 4 (s)     -0.2613  0.4894  0.0658 -0.4513 -0.3005  0.0635  0.1379  0.0876
  35.  H 5 (s)      0.4567 -0.1746 -0.0638 -0.3594  0.0941 -0.0594 -0.3070 -0.3817
  36.  H 5 (s)     -0.0390 -0.2453 -0.3118  1.3163 -0.0062 -0.0048 -0.0066 -0.1326
  37.  H 6 (s)      0.2715 -0.3737 -0.0714  0.2486  0.2106 -0.3573 -0.1187  0.1035
  38.  H 6 (s)     -0.3051 -0.6338  0.0877 -0.3842 -0.1418  0.4320  0.2099 -0.0322

           AO         33      34      35      36      37      38
      ------------ ------- ------- ------- ------- ------- -------
   1.  C 1 (s)      0.0446 -0.0050  0.0012  0.0200 -0.1447 -0.4885
   2.  C 1 (s)     -0.1402  0.0160 -0.0241 -0.1379  0.7091  2.4997
   3.  C 1 (px)    -0.6664  0.1618 -0.0336 -0.0024  0.4105 -0.2191
   4.  C 1 (py)     0.1629 -0.0742  0.0960 -0.1440 -0.0148 -0.0364
   5.  C 1 (pz)    -0.0771  0.3035  0.0462  0.2585 -0.0703 -0.0533
   6.  C 1 (s)     -0.0078  0.0077  0.0488  0.1096 -0.4457  4.0698
   7.  C 1 (px)     0.2490  0.0258  0.0506  0.0467  0.8873 -0.1190
   8.  C 1 (py)     0.0425 -0.1753  0.0078 -0.1579 -0.5529  0.2608
   9.  C 1 (pz)     0.2889 -0.2853  0.0391 -0.6169  0.5040  0.1558
  10.  C 1 (d1)     0.2626 -0.1012  0.0827  0.2590 -0.8401 -1.5984
  11.  C 1 (d4)     0.0878 -0.0882 -0.0186 -0.2520 -0.4706 -1.7210
  12.  C 1 (d6)     0.1037  0.1448  0.0338 -0.0055 -0.4755 -1.6483
  13.  C 1 (d2)    -0.0832 -0.3522 -0.1020  0.0529  0.0869 -0.0194
  14.  C 1 (d3)     0.0746 -0.4152 -0.0151 -0.6758  0.0028 -0.0155
  15.  C 1 (d5)    -0.0535 -0.3453  0.2122  0.5416 -0.0507  0.0129
  16.  O 2 (s)     -0.0775 -0.0395 -0.0025 -0.0155 -0.4002  0.1520
  17.  O 2 (s)      0.3677  0.2210  0.0292  0.1036 -0.1727  0.3056
  18.  O 2 (px)     0.0071  0.0462 -0.0583  0.0051 -0.4112  0.2651
  19.  O 2 (py)    -0.2638 -0.0490 -0.0344  0.1483 -0.0567 -0.0080
  20.  O 2 (pz)    -0.0229 -0.0812 -0.0237 -0.0725  0.0302  0.0108
  21.  O 2 (s)      0.1075 -0.0428  0.0268 -0.0253  4.1648 -2.3890
  22.  O 2 (px)    -0.3464  0.1399 -0.0737  0.0868  1.4555 -0.8759
  23.  O 2 (py)     0.3442  0.0412 -0.0574 -0.0399 -0.0710  0.0892
  24.  O 2 (pz)    -0.0114  0.0780 -0.0006  0.0487 -0.1267 -0.0317
  25.  O 2 (d1)    -0.4621 -0.3663  0.0408 -0.0707 -0.6097  0.4468
  26.  O 2 (d4)    -0.9162  0.0050 -0.0481 -0.1402 -1.4358  0.5010
  27.  O 2 (d6)     0.4843  0.1832  0.0246  0.1190 -1.5789  0.5698
  28.  O 2 (d2)     0.0019 -0.1945 -0.8526  0.2894 -0.0328 -0.0110
  29.  O 2 (d3)     0.0366 -0.3590 -0.4439 -0.1790 -0.0276 -0.0068
  30.  O 2 (d5)     0.0185  0.5120 -0.2811 -0.3538 -0.0042 -0.0034
  31.  H 3 (s)     -0.0638  0.0530  0.0324  0.1498  0.1214  0.0393
  32.  H 3 (s)      0.0043  0.2102 -0.0036  0.1672  0.1714 -1.1139
  33.  H 4 (s)      0.2734 -0.2331 -0.0076 -0.2322  0.1841 -0.0608
  34.  H 4 (s)      0.1533 -0.0337 -0.0482 -0.3227 -0.1254 -0.6416
  35.  H 5 (s)      0.2462 -0.1668  0.0282  0.4586  0.2316  0.0946
  36.  H 5 (s)     -0.2698 -0.0449 -0.0615 -0.0954 -0.9839 -1.0221
  37.  H 6 (s)      0.4097  0.0367  0.1449  0.1654  0.1204  0.0398
  38.  H 6 (s)     -0.1016  0.0492 -0.2018 -0.1111 -0.3995  0.0696


 AO overlap matrix:

           AO          1       2       3       4       5       6       7       8
      ------------ ------- ------- ------- ------- ------- ------- ------- -------
   1.  C 1 (s)      1.0000  0.2191  0.0000  0.0000  0.0000  0.1843  0.0000  0.0000
   2.  C 1 (s)      0.2191  1.0000  0.0000  0.0000  0.0000  0.8123  0.0000  0.0000
   3.  C 1 (px)     0.0000  0.0000  1.0000  0.0000  0.0000  0.0000  0.5698  0.0000
   4.  C 1 (py)     0.0000  0.0000  0.0000  1.0000  0.0000  0.0000  0.0000  0.5698
   5.  C 1 (pz)     0.0000  0.0000  0.0000  0.0000  1.0000  0.0000  0.0000  0.0000
   6.  C 1 (s)      0.1843  0.8123  0.0000  0.0000  0.0000  1.0000  0.0000  0.0000
   7.  C 1 (px)     0.0000  0.0000  0.5698  0.0000  0.0000  0.0000  1.0000  0.0000
   8.  C 1 (py)     0.0000  0.0000  0.0000  0.5698  0.0000  0.0000  0.0000  1.0000
   9.  C 1 (pz)     0.0000  0.0000  0.0000  0.0000  0.5698  0.0000  0.0000  0.0000
  10.  C 1 (d1)     0.0791  0.7102  0.0000  0.0000  0.0000  0.6299  0.0000  0.0000
  11.  C 1 (d4)     0.0791  0.7102  0.0000  0.0000  0.0000  0.6299  0.0000  0.0000
  12.  C 1 (d6)     0.0791  0.7102  0.0000  0.0000  0.0000  0.6299  0.0000  0.0000
  13.  C 1 (d2)     0.0000  0.0000  0.0000  0.0000  0.0000  0.0000  0.0000  0.0000
  14.  C 1 (d3)     0.0000  0.0000  0.0000  0.0000  0.0000  0.0000  0.0000  0.0000
  15.  C 1 (d5)     0.0000  0.0000  0.0000  0.0000  0.0000  0.0000  0.0000  0.0000
  16.  O 2 (s)      0.0000  0.0073 -0.0177  0.0018  0.0000  0.0356 -0.0772  0.0078
  17.  O 2 (s)      0.0015  0.0847 -0.1499  0.0151  0.0000  0.2139 -0.4024  0.0406
  18.  O 2 (px)     0.0042  0.1152 -0.1806  0.0223  0.0000  0.1271 -0.1293  0.0246
  19.  O 2 (py)    -0.0004 -0.0116  0.0223  0.0383  0.0000 -0.0128  0.0246  0.1124
  20.  O 2 (pz)     0.0000  0.0000  0.0000  0.0000  0.0405  0.0000  0.0000  0.0000
  21.  O 2 (s)      0.0392  0.2590 -0.2678  0.0270  0.0000  0.4482 -0.6105  0.0615
  22.  O 2 (px)     0.1035  0.4727 -0.3270  0.0522  0.0000  0.4826 -0.2213  0.0663
  23.  O 2 (py)    -0.0104 -0.0476  0.0522  0.1860  0.0000 -0.0486  0.0663  0.4294
  24.  O 2 (pz)     0.0000  0.0000  0.0000  0.0000  0.1913  0.0000  0.0000  0.0000
  25.  O 2 (d1)     0.0328  0.2797 -0.3657  0.0535  0.0000  0.3235 -0.4165  0.0596
  26.  O 2 (d4)     0.0010  0.0724 -0.1172 -0.0049  0.0000  0.2277 -0.4163  0.0243
  27.  O 2 (d6)     0.0006  0.0703 -0.1129  0.0114  0.0000  0.2268 -0.4145  0.0418
  28.  O 2 (d2)    -0.0056 -0.0366  0.0586  0.1360  0.0000 -0.0169  0.0156  0.1483
  29.  O 2 (d3)     0.0000  0.0000  0.0000  0.0000  0.1433  0.0000  0.0000  0.0000
  30.  O 2 (d5)     0.0000  0.0000  0.0000  0.0000 -0.0144  0.0000  0.0000  0.0000
  31.  H 3 (s)      0.0325  0.2728  0.1462  0.3382  0.0000  0.3765  0.2044  0.4726
  32.  H 3 (s)      0.0920  0.4755  0.1055  0.2439  0.0000  0.7039  0.2314  0.5350
  33.  H 4 (s)      0.0320  0.2705  0.1222 -0.1768 -0.2964  0.3750  0.1718 -0.2485
  34.  H 4 (s)      0.0916  0.4738  0.0887 -0.1283 -0.2151  0.7022  0.1948 -0.2817
  35.  H 5 (s)      0.0320  0.2705  0.1222 -0.1768  0.2964  0.3750  0.1718 -0.2485
  36.  H 5 (s)      0.0916  0.4738  0.0887 -0.1283  0.2151  0.7022  0.1948 -0.2817
  37.  H 6 (s)      0.0002  0.0189 -0.0342 -0.0153  0.0000  0.1105 -0.2426 -0.1090
  38.  H 6 (s)      0.0226  0.1578 -0.1362 -0.0612  0.0000  0.3347 -0.4465 -0.2006

           AO          9      10      11      12      13      14      15      16
      ------------ ------- ------- ------- ------- ------- ------- ------- -------
   1.  C 1 (s)      0.0000  0.0791  0.0791  0.0791  0.0000  0.0000  0.0000  0.0000
   2.  C 1 (s)      0.0000  0.7102  0.7102  0.7102  0.0000  0.0000  0.0000  0.0073
   3.  C 1 (px)     0.0000  0.0000  0.0000  0.0000  0.0000  0.0000  0.0000 -0.0177
   4.  C 1 (py)     0.0000  0.0000  0.0000  0.0000  0.0000  0.0000  0.0000  0.0018
   5.  C 1 (pz)     0.5698  0.0000  0.0000  0.0000  0.0000  0.0000  0.0000  0.0000
   6.  C 1 (s)      0.0000  0.6299  0.6299  0.6299  0.0000  0.0000  0.0000  0.0356
   7.  C 1 (px)     0.0000  0.0000  0.0000  0.0000  0.0000  0.0000  0.0000 -0.0772
   8.  C 1 (py)     0.0000  0.0000  0.0000  0.0000  0.0000  0.0000  0.0000  0.0078
   9.  C 1 (pz)     1.0000  0.0000  0.0000  0.0000  0.0000  0.0000  0.0000  0.0000
  10.  C 1 (d1)     0.0000  1.0000  0.3333  0.3333  0.0000  0.0000  0.0000  0.0184
  11.  C 1 (d4)     0.0000  0.3333  1.0000  0.3333  0.0000  0.0000  0.0000  0.0004
  12.  C 1 (d6)     0.0000  0.3333  0.3333  1.0000  0.0000  0.0000  0.0000  0.0002
  13.  C 1 (d2)     0.0000  0.0000  0.0000  0.0000  1.0000  0.0000  0.0000 -0.0032
  14.  C 1 (d3)     0.0000  0.0000  0.0000  0.0000  0.0000  1.0000  0.0000  0.0000
  15.  C 1 (d5)     0.0000  0.0000  0.0000  0.0000  0.0000  0.0000  1.0000  0.0000
  16.  O 2 (s)      0.0000  0.0184  0.0004  0.0002 -0.0032  0.0000  0.0000  1.0000
  17.  O 2 (s)      0.0000  0.1890  0.0230  0.0213 -0.0293  0.0000  0.0000  0.2337
  18.  O 2 (px)     0.0000  0.2476  0.0369  0.0338 -0.0452  0.0000  0.0000  0.0000
  19.  O 2 (py)     0.0000 -0.0341  0.0054 -0.0034 -0.0731  0.0000  0.0000  0.0000
  20.  O 2 (pz)     0.1149  0.0000  0.0000  0.0000  0.0000 -0.0784  0.0079  0.0000
  21.  O 2 (s)      0.0000  0.3164  0.1607  0.1591 -0.0275  0.0000  0.0000  0.1673
  22.  O 2 (px)     0.0000  0.4376  0.3363  0.3330 -0.0379  0.0000  0.0000  0.0000
  23.  O 2 (py)     0.0000 -0.0668 -0.0112 -0.0336 -0.1889  0.0000  0.0000  0.0000
  24.  O 2 (pz)     0.4361  0.0000  0.0000  0.0000  0.0000 -0.1947  0.0196  0.0000
  25.  O 2 (d1)     0.0000  0.4455  0.1279  0.1208 -0.0865  0.0000  0.0000  0.0335
  26.  O 2 (d4)     0.0000  0.1279  0.0512  0.0188  0.0169  0.0000  0.0000  0.0335
  27.  O 2 (d6)     0.0000  0.1208  0.0188  0.0532 -0.0180  0.0000  0.0000  0.0335
  28.  O 2 (d2)     0.0000 -0.0865  0.0169 -0.0180 -0.2408  0.0000  0.0000  0.0000
  29.  O 2 (d3)     0.1514  0.0000  0.0000  0.0000  0.0000 -0.2559  0.0312  0.0000
  30.  O 2 (d5)    -0.0153  0.0000  0.0000  0.0000  0.0000  0.0312  0.0501  0.0000
  31.  H 3 (s)      0.0000  0.1704  0.4017  0.1171  0.2132  0.0000  0.0000  0.0000
  32.  H 3 (s)      0.0000  0.3635  0.4188  0.3508  0.0510  0.0000  0.0000  0.0108
  33.  H 4 (s)     -0.4166  0.1534  0.1943  0.3362 -0.0939 -0.1574  0.2276  0.0000
  34.  H 4 (s)     -0.4723  0.3585  0.3683  0.4025 -0.0226 -0.0379  0.0548  0.0094
  35.  H 5 (s)      0.4166  0.1534  0.1943  0.3362 -0.0939  0.1573 -0.2276  0.0000
  36.  H 5 (s)      0.4723  0.3585  0.3683  0.4025 -0.0226  0.0379 -0.0548  0.0094
  37.  H 6 (s)      0.0000  0.0342  0.0106  0.0046  0.0230  0.0000  0.0000  0.0304
  38.  H 6 (s)      0.0000  0.1671  0.1172  0.1046  0.0486  0.0000  0.0000  0.0665

           AO         17      18      19      20      21      22      23      24
      ------------ ------- ------- ------- ------- ------- ------- ------- -------
   1.  C 1 (s)      0.0015  0.0042 -0.0004  0.0000  0.0392  0.1035 -0.0104  0.0000
   2.  C 1 (s)      0.0847  0.1152 -0.0116  0.0000  0.2590  0.4727 -0.0476  0.0000
   3.  C 1 (px)    -0.1499 -0.1806  0.0223  0.0000 -0.2678 -0.3270  0.0522  0.0000
   4.  C 1 (py)     0.0151  0.0223  0.0383  0.0000  0.0270  0.0522  0.1860  0.0000
   5.  C 1 (pz)     0.0000  0.0000  0.0000  0.0405  0.0000  0.0000  0.0000  0.1913
   6.  C 1 (s)      0.2139  0.1271 -0.0128  0.0000  0.4482  0.4826 -0.0486  0.0000
   7.  C 1 (px)    -0.4024 -0.1293  0.0246  0.0000 -0.6105 -0.2213  0.0663  0.0000
   8.  C 1 (py)     0.0406  0.0246  0.1124  0.0000  0.0615  0.0663  0.4294  0.0000
   9.  C 1 (pz)     0.0000  0.0000  0.0000  0.1149  0.0000  0.0000  0.0000  0.4361
  10.  C 1 (d1)     0.1890  0.2476 -0.0341  0.0000  0.3164  0.4376 -0.0668  0.0000
  11.  C 1 (d4)     0.0230  0.0369  0.0054  0.0000  0.1607  0.3363 -0.0112  0.0000
  12.  C 1 (d6)     0.0213  0.0338 -0.0034  0.0000  0.1591  0.3330 -0.0336  0.0000
  13.  C 1 (d2)    -0.0293 -0.0452 -0.0731  0.0000 -0.0275 -0.0379 -0.1889  0.0000
  14.  C 1 (d3)     0.0000  0.0000  0.0000 -0.0784  0.0000  0.0000  0.0000 -0.1947
  15.  C 1 (d5)     0.0000  0.0000  0.0000  0.0079  0.0000  0.0000  0.0000  0.0196
  16.  O 2 (s)      0.2337  0.0000  0.0000  0.0000  0.1673  0.0000  0.0000  0.0000
  17.  O 2 (s)      1.0000  0.0000  0.0000  0.0000  0.7636  0.0000  0.0000  0.0000
  18.  O 2 (px)     0.0000  1.0000  0.0000  0.0000  0.0000  0.5015  0.0000  0.0000
  19.  O 2 (py)     0.0000  0.0000  1.0000  0.0000  0.0000  0.0000  0.5015  0.0000
  20.  O 2 (pz)     0.0000  0.0000  0.0000  1.0000  0.0000  0.0000  0.0000  0.5015
  21.  O 2 (s)      0.7636  0.0000  0.0000  0.0000  1.0000  0.0000  0.0000  0.0000
  22.  O 2 (px)     0.0000  0.5015  0.0000  0.0000  0.0000  1.0000  0.0000  0.0000
  23.  O 2 (py)     0.0000  0.0000  0.5015  0.0000  0.0000  0.0000  1.0000  0.0000
  24.  O 2 (pz)     0.0000  0.0000  0.0000  0.5015  0.0000  0.0000  0.0000  1.0000
  25.  O 2 (d1)     0.5471  0.0000  0.0000  0.0000  0.6990  0.0000  0.0000  0.0000
  26.  O 2 (d4)     0.5471  0.0000  0.0000  0.0000  0.6990  0.0000  0.0000  0.0000
  27.  O 2 (d6)     0.5471  0.0000  0.0000  0.0000  0.6990  0.0000  0.0000  0.0000
  28.  O 2 (d2)     0.0000  0.0000  0.0000  0.0000  0.0000  0.0000  0.0000  0.0000
  29.  O 2 (d3)     0.0000  0.0000  0.0000  0.0000  0.0000  0.0000  0.0000  0.0000
  30.  O 2 (d5)     0.0000  0.0000  0.0000  0.0000  0.0000  0.0000  0.0000  0.0000
  31.  H 3 (s)      0.0025  0.0045  0.0021  0.0000  0.0439  0.1148  0.0530  0.0000
  32.  H 3 (s)      0.0757  0.0553  0.0255  0.0000  0.2100  0.2866  0.1323  0.0000
  33.  H 4 (s)      0.0017  0.0030 -0.0011 -0.0015  0.0369  0.0927 -0.0348 -0.0459
  34.  H 4 (s)      0.0668  0.0469 -0.0176 -0.0232  0.1915  0.2520 -0.0946 -0.1247
  35.  H 5 (s)      0.0017  0.0030 -0.0011  0.0015  0.0369  0.0927 -0.0348  0.0459
  36.  H 5 (s)      0.0668  0.0469 -0.0176  0.0232  0.1915  0.2520 -0.0946  0.1247
  37.  H 6 (s)      0.2263 -0.0899 -0.2523  0.0000  0.4084 -0.1937 -0.5436  0.0000
  38.  H 6 (s)      0.3683 -0.0497 -0.1394  0.0000  0.6680 -0.1632 -0.4580  0.0000

           AO         25      26      27      28      29      30      31      32
      ------------ ------- ------- ------- ------- ------- ------- ------- -------
   1.  C 1 (s)      0.0328  0.0010  0.0006 -0.0056  0.0000  0.0000  0.0325  0.0920
   2.  C 1 (s)      0.2797  0.0724  0.0703 -0.0366  0.0000  0.0000  0.2728  0.4755
   3.  C 1 (px)    -0.3657 -0.1172 -0.1129  0.0586  0.0000  0.0000  0.1462  0.1055
   4.  C 1 (py)     0.0535 -0.0049  0.0114  0.1360  0.0000  0.0000  0.3382  0.2439
   5.  C 1 (pz)     0.0000  0.0000  0.0000  0.0000  0.1433 -0.0144  0.0000  0.0000
   6.  C 1 (s)      0.3235  0.2277  0.2268 -0.0169  0.0000  0.0000  0.3765  0.7039
   7.  C 1 (px)    -0.4165 -0.4163 -0.4145  0.0156  0.0000  0.0000  0.2044  0.2314
   8.  C 1 (py)     0.0596  0.0243  0.0418  0.1483  0.0000  0.0000  0.4726  0.5350
   9.  C 1 (pz)     0.0000  0.0000  0.0000  0.0000  0.1514 -0.0153  0.0000  0.0000
  10.  C 1 (d1)     0.4455  0.1279  0.1208 -0.0865  0.0000  0.0000  0.1704  0.3635
  11.  C 1 (d4)     0.1279  0.0512  0.0188  0.0169  0.0000  0.0000  0.4017  0.4188
  12.  C 1 (d6)     0.1208  0.0188  0.0532 -0.0180  0.0000  0.0000  0.1171  0.3508
  13.  C 1 (d2)    -0.0865  0.0169 -0.0180 -0.2408  0.0000  0.0000  0.2132  0.0510
  14.  C 1 (d3)     0.0000  0.0000  0.0000  0.0000 -0.2559  0.0312  0.0000  0.0000
  15.  C 1 (d5)     0.0000  0.0000  0.0000  0.0000  0.0312  0.0501  0.0000  0.0000
  16.  O 2 (s)      0.0335  0.0335  0.0335  0.0000  0.0000  0.0000  0.0000  0.0108
  17.  O 2 (s)      0.5471  0.5471  0.5471  0.0000  0.0000  0.0000  0.0025  0.0757
  18.  O 2 (px)     0.0000  0.0000  0.0000  0.0000  0.0000  0.0000  0.0045  0.0553
  19.  O 2 (py)     0.0000  0.0000  0.0000  0.0000  0.0000  0.0000  0.0021  0.0255
  20.  O 2 (pz)     0.0000  0.0000  0.0000  0.0000  0.0000  0.0000  0.0000  0.0000
  21.  O 2 (s)      0.6990  0.6990  0.6990  0.0000  0.0000  0.0000  0.0439  0.2100
  22.  O 2 (px)     0.0000  0.0000  0.0000  0.0000  0.0000  0.0000  0.1148  0.2866
  23.  O 2 (py)     0.0000  0.0000  0.0000  0.0000  0.0000  0.0000  0.0530  0.1323
  24.  O 2 (pz)     0.0000  0.0000  0.0000  0.0000  0.0000  0.0000  0.0000  0.0000
  25.  O 2 (d1)     1.0000  0.3333  0.3333  0.0000  0.0000  0.0000  0.0204  0.1388
  26.  O 2 (d4)     0.3333  1.0000  0.3333  0.0000  0.0000  0.0000  0.0063  0.0951
  27.  O 2 (d6)     0.3333  0.3333  1.0000  0.0000  0.0000  0.0000  0.0025  0.0832
  28.  O 2 (d2)     0.0000  0.0000  0.0000  1.0000  0.0000  0.0000  0.0143  0.0444
  29.  O 2 (d3)     0.0000  0.0000  0.0000  0.0000  1.0000  0.0000  0.0000  0.0000
  30.  O 2 (d5)     0.0000  0.0000  0.0000  0.0000  0.0000  1.0000  0.0000  0.0000
  31.  H 3 (s)      0.0204  0.0063  0.0025  0.0143  0.0000  0.0000  1.0000  0.6583
  32.  H 3 (s)      0.1388  0.0951  0.0832  0.0444  0.0000  0.0000  0.6583  1.0000
  33.  H 4 (s)      0.0138  0.0035  0.0048 -0.0078 -0.0103  0.0039  0.0192  0.1516
  34.  H 4 (s)      0.1194  0.0801  0.0849 -0.0297 -0.0392  0.0147  0.1516  0.4057
  35.  H 5 (s)      0.0138  0.0035  0.0048 -0.0078  0.0103 -0.0039  0.0192  0.1516
  36.  H 5 (s)      0.1194  0.0801  0.0849 -0.0297  0.0392 -0.0147  0.1516  0.4057
  37.  H 6 (s)      0.1963  0.4893  0.1537  0.2071  0.0000  0.0000  0.0001  0.0156
  38.  H 6 (s)      0.3960  0.4530  0.3877  0.0403  0.0000  0.0000  0.0156  0.0995

           AO         33      34      35      36      37      38
      ------------ ------- ------- ------- ------- ------- -------
   1.  C 1 (s)      0.0320  0.0916  0.0320  0.0916  0.0002  0.0226
   2.  C 1 (s)      0.2705  0.4738  0.2705  0.4738  0.0189  0.1578
   3.  C 1 (px)     0.1222  0.0887  0.1222  0.0887 -0.0342 -0.1362
   4.  C 1 (py)    -0.1768 -0.1283 -0.1768 -0.1283 -0.0153 -0.0612
   5.  C 1 (pz)    -0.2964 -0.2151  0.2964  0.2151  0.0000  0.0000
   6.  C 1 (s)      0.3750  0.7022  0.3750  0.7022  0.1105  0.3347
   7.  C 1 (px)     0.1718  0.1948  0.1718  0.1948 -0.2426 -0.4465
   8.  C 1 (py)    -0.2485 -0.2817 -0.2485 -0.2817 -0.1090 -0.2006
   9.  C 1 (pz)    -0.4166 -0.4723  0.4166  0.4723  0.0000  0.0000
  10.  C 1 (d1)     0.1534  0.3585  0.1534  0.3585  0.0342  0.1671
  11.  C 1 (d4)     0.1943  0.3683  0.1943  0.3683  0.0106  0.1172
  12.  C 1 (d6)     0.3362  0.4025  0.3362  0.4025  0.0046  0.1046
  13.  C 1 (d2)    -0.0939 -0.0226 -0.0939 -0.0226  0.0230  0.0486
  14.  C 1 (d3)    -0.1574 -0.0379  0.1573  0.0379  0.0000  0.0000
  15.  C 1 (d5)     0.2276  0.0548 -0.2276 -0.0548  0.0000  0.0000
  16.  O 2 (s)      0.0000  0.0094  0.0000  0.0094  0.0304  0.0665
  17.  O 2 (s)      0.0017  0.0668  0.0017  0.0668  0.2263  0.3683
  18.  O 2 (px)     0.0030  0.0469  0.0030  0.0469 -0.0899 -0.0497
  19.  O 2 (py)    -0.0011 -0.0176 -0.0011 -0.0176 -0.2523 -0.1394
  20.  O 2 (pz)    -0.0015 -0.0232  0.0015  0.0232  0.0000  0.0000
  21.  O 2 (s)      0.0369  0.1915  0.0369  0.1915  0.4084  0.6680
  22.  O 2 (px)     0.0927  0.2520  0.0927  0.2520 -0.1937 -0.1632
  23.  O 2 (py)    -0.0348 -0.0946 -0.0348 -0.0946 -0.5436 -0.4580
  24.  O 2 (pz)    -0.0459 -0.1247  0.0459  0.1247  0.0000  0.0000
  25.  O 2 (d1)     0.0138  0.1194  0.0138  0.1194  0.1963  0.3960
  26.  O 2 (d4)     0.0035  0.0801  0.0035  0.0801  0.4893  0.4530
  27.  O 2 (d6)     0.0048  0.0849  0.0048  0.0849  0.1537  0.3877
  28.  O 2 (d2)    -0.0078 -0.0297 -0.0078 -0.0297  0.2071  0.0403
  29.  O 2 (d3)    -0.0103 -0.0392  0.0103  0.0392  0.0000  0.0000
  30.  O 2 (d5)     0.0039  0.0147 -0.0039 -0.0147  0.0000  0.0000
  31.  H 3 (s)      0.0192  0.1516  0.0192  0.1516  0.0001  0.0156
  32.  H 3 (s)      0.1516  0.4057  0.1516  0.4057  0.0156  0.0995
  33.  H 4 (s)      1.0000  0.6583  0.0190  0.1509  0.0014  0.0535
  34.  H 4 (s)      0.6583  1.0000  0.1509  0.4045  0.0535  0.2133
  35.  H 5 (s)      0.0190  0.1509  1.0000  0.6583  0.0014  0.0535
  36.  H 5 (s)      0.1509  0.4045  0.6583  1.0000  0.0535  0.2133
  37.  H 6 (s)      0.0014  0.0535  0.0014  0.0535  1.0000  0.6583
  38.  H 6 (s)      0.0535  0.2133  0.0535  0.2133  0.6583  1.0000


 AO bond-order matrix:

           AO          1       2       3       4       5       6       7       8
      ------------ ------- ------- ------- ------- ------- ------- ------- -------
   1.  C 1 (s)      2.0567 -0.0868 -0.0186  0.0007  0.0000 -0.1531 -0.0151  0.0064
   2.  C 1 (s)     -0.0868  0.2732  0.0314  0.0035  0.0000  0.2480  0.0263 -0.0099
   3.  C 1 (px)    -0.0186  0.0314  0.2803  0.0086  0.0000  0.0868  0.0994  0.0240
   4.  C 1 (py)     0.0007  0.0035  0.0086  0.4096  0.0000 -0.0121  0.0215  0.2061
   5.  C 1 (pz)     0.0000  0.0000  0.0000  0.0000  0.4026  0.0000  0.0000  0.0000
   6.  C 1 (s)     -0.1531  0.2480  0.0868 -0.0121  0.0000  0.2452  0.0411 -0.0132
   7.  C 1 (px)    -0.0151  0.0263  0.0994  0.0215  0.0000  0.0411  0.0383  0.0174
   8.  C 1 (py)     0.0064 -0.0099  0.0240  0.2061  0.0000 -0.0132  0.0174  0.1059
   9.  C 1 (pz)     0.0000  0.0000  0.0000  0.0000  0.1807  0.0000  0.0000  0.0000
  10.  C 1 (d1)    -0.0047  0.0028 -0.0300  0.0040  0.0000 -0.0051 -0.0094 -0.0002
  11.  C 1 (d4)    -0.0078  0.0083  0.0175  0.0204  0.0000  0.0107  0.0073  0.0110
  12.  C 1 (d6)    -0.0073  0.0067  0.0147 -0.0235  0.0000  0.0104  0.0043 -0.0111
  13.  C 1 (d2)    -0.0003  0.0007  0.0051  0.0238  0.0000  0.0011  0.0027  0.0120
  14.  C 1 (d3)     0.0000  0.0000  0.0000  0.0000  0.0218  0.0000  0.0000  0.0000
  15.  C 1 (d5)     0.0000  0.0000  0.0000  0.0000 -0.0291  0.0000  0.0000  0.0000
  16.  O 2 (s)      0.0037 -0.0041  0.0334  0.0002  0.0000  0.0239  0.0006 -0.0014
  17.  O 2 (s)     -0.0089  0.0108 -0.0760  0.0038  0.0000 -0.0531 -0.0003  0.0041
  18.  O 2 (px)    -0.0652  0.1311 -0.3218  0.0270  0.0000  0.0629 -0.1114 -0.0201
  19.  O 2 (py)     0.0074 -0.0128  0.0408 -0.0135  0.0000 -0.0074  0.0131  0.0032
  20.  O 2 (pz)     0.0000  0.0000  0.0000  0.0000 -0.0061  0.0000  0.0000  0.0000
  21.  O 2 (s)      0.0202 -0.0417 -0.0541 -0.0270  0.0000 -0.0978  0.0043 -0.0051
  22.  O 2 (px)    -0.0348  0.0700 -0.2238  0.0209  0.0000  0.0248 -0.0785 -0.0120
  23.  O 2 (py)     0.0064 -0.0109  0.0386 -0.0412  0.0000 -0.0044  0.0117 -0.0127
  24.  O 2 (pz)     0.0000  0.0000  0.0000  0.0000 -0.0446  0.0000  0.0000  0.0000
  25.  O 2 (d1)    -0.0093  0.0151 -0.0179  0.0049  0.0000  0.0092 -0.0050  0.0005
  26.  O 2 (d4)     0.0007 -0.0019  0.0034  0.0030  0.0000 -0.0027  0.0023  0.0016
  27.  O 2 (d6)     0.0009 -0.0014  0.0043  0.0000  0.0000 -0.0007  0.0015  0.0006
  28.  O 2 (d2)     0.0038 -0.0074  0.0165  0.0071  0.0000 -0.0049  0.0064  0.0055
  29.  O 2 (d3)     0.0000  0.0000  0.0000  0.0000  0.0064  0.0000  0.0000  0.0000
  30.  O 2 (d5)     0.0000  0.0000  0.0000  0.0000 -0.0013  0.0000  0.0000  0.0000
  31.  H 3 (s)     -0.0543  0.1071  0.0885  0.2491  0.0000  0.1043  0.0477  0.1258
  32.  H 3 (s)     -0.0130  0.0363  0.0495  0.1962  0.0000  0.0351  0.0279  0.0996
  33.  H 4 (s)     -0.0537  0.1015  0.0681 -0.1285 -0.2195  0.1098  0.0237 -0.0644
  34.  H 4 (s)     -0.0087  0.0246  0.0457 -0.1084 -0.1952  0.0342  0.0131 -0.0516
  35.  H 5 (s)     -0.0537  0.1015  0.0681 -0.1285  0.2195  0.1098  0.0237 -0.0644
  36.  H 5 (s)     -0.0087  0.0246  0.0457 -0.1084  0.1952  0.0342  0.0131 -0.0516
  37.  H 6 (s)      0.0077 -0.0179  0.0344  0.0140  0.0000 -0.0192  0.0183  0.0096
  38.  H 6 (s)      0.0049 -0.0085  0.0424  0.0383  0.0000  0.0005  0.0162  0.0213

           AO          9      10      11      12      13      14      15      16
      ------------ ------- ------- ------- ------- ------- ------- ------- -------
   1.  C 1 (s)      0.0000 -0.0047 -0.0078 -0.0073 -0.0003  0.0000  0.0000  0.0037
   2.  C 1 (s)      0.0000  0.0028  0.0083  0.0067  0.0007  0.0000  0.0000 -0.0041
   3.  C 1 (px)     0.0000 -0.0300  0.0175  0.0147  0.0051  0.0000  0.0000  0.0334
   4.  C 1 (py)     0.0000  0.0040  0.0204 -0.0235  0.0238  0.0000  0.0000  0.0002
   5.  C 1 (pz)     0.1807  0.0000  0.0000  0.0000  0.0000  0.0218 -0.0291  0.0000
   6.  C 1 (s)      0.0000 -0.0051  0.0107  0.0104  0.0011  0.0000  0.0000  0.0239
   7.  C 1 (px)     0.0000 -0.0094  0.0073  0.0043  0.0027  0.0000  0.0000  0.0006
   8.  C 1 (py)     0.0000 -0.0002  0.0110 -0.0111  0.0120  0.0000  0.0000 -0.0014
   9.  C 1 (pz)     0.0813  0.0000  0.0000  0.0000  0.0000  0.0093 -0.0129  0.0000
  10.  C 1 (d1)     0.0000  0.0037 -0.0015 -0.0018 -0.0003  0.0000  0.0000 -0.0089
  11.  C 1 (d4)     0.0000 -0.0015  0.0022 -0.0001  0.0015  0.0000  0.0000  0.0031
  12.  C 1 (d6)     0.0000 -0.0018 -0.0001  0.0023 -0.0012  0.0000  0.0000  0.0027
  13.  C 1 (d2)     0.0000 -0.0003  0.0015 -0.0012  0.0023  0.0000  0.0000  0.0033
  14.  C 1 (d3)     0.0093  0.0000  0.0000  0.0000  0.0000  0.0025 -0.0019  0.0000
  15.  C 1 (d5)    -0.0129  0.0000  0.0000  0.0000  0.0000 -0.0019  0.0022  0.0000
  16.  O 2 (s)      0.0000 -0.0089  0.0031  0.0027  0.0033  0.0000  0.0000  2.0784
  17.  O 2 (s)      0.0000  0.0204 -0.0070 -0.0064 -0.0073  0.0000  0.0000 -0.1828
  18.  O 2 (px)     0.0000  0.0347 -0.0135 -0.0148 -0.0031  0.0000  0.0000  0.0248
  19.  O 2 (py)     0.0000 -0.0061  0.0002  0.0054 -0.0220  0.0000  0.0000 -0.0398
  20.  O 2 (pz)     0.0099  0.0000  0.0000  0.0000  0.0000 -0.0340  0.0079  0.0000
  21.  O 2 (s)      0.0000  0.0168 -0.0088 -0.0040 -0.0139  0.0000  0.0000 -0.2340
  22.  O 2 (px)     0.0000  0.0238 -0.0097 -0.0110 -0.0009  0.0000  0.0000  0.0174
  23.  O 2 (py)     0.0000 -0.0055 -0.0009  0.0060 -0.0169  0.0000  0.0000 -0.0279
  24.  O 2 (pz)    -0.0101  0.0000  0.0000  0.0000  0.0000 -0.0288  0.0091  0.0000
  25.  O 2 (d1)     0.0000  0.0024 -0.0005 -0.0009 -0.0004  0.0000  0.0000 -0.0126
  26.  O 2 (d4)     0.0000  0.0003  0.0003 -0.0004  0.0021  0.0000  0.0000 -0.0129
  27.  O 2 (d6)     0.0000 -0.0005  0.0002  0.0002 -0.0004  0.0000  0.0000 -0.0087
  28.  O 2 (d2)     0.0000 -0.0015  0.0010  0.0002  0.0005  0.0000  0.0000 -0.0045
  29.  O 2 (d3)     0.0032  0.0000  0.0000  0.0000  0.0000 -0.0004 -0.0003  0.0000
  30.  O 2 (d5)    -0.0011  0.0000  0.0000  0.0000  0.0000  0.0013 -0.0002  0.0000
  31.  H 3 (s)      0.0000 -0.0043  0.0198 -0.0081  0.0172  0.0000  0.0000  0.0110
  32.  H 3 (s)      0.0000 -0.0022  0.0133 -0.0085  0.0147  0.0000  0.0000  0.0102
  33.  H 4 (s)     -0.0977 -0.0066  0.0001  0.0131 -0.0070 -0.0141  0.0163  0.0032
  34.  H 4 (s)     -0.0861 -0.0055 -0.0022  0.0093 -0.0071 -0.0145  0.0150 -0.0040
  35.  H 5 (s)      0.0977 -0.0066  0.0001  0.0131 -0.0070  0.0141 -0.0163  0.0032
  36.  H 5 (s)      0.0861 -0.0055 -0.0022  0.0093 -0.0071  0.0145 -0.0150 -0.0040
  37.  H 6 (s)      0.0000 -0.0002  0.0021 -0.0015  0.0113  0.0000  0.0000 -0.0295
  38.  H 6 (s)      0.0000 -0.0039  0.0044 -0.0010  0.0087  0.0000  0.0000  0.0137

           AO         17      18      19      20      21      22      23      24
      ------------ ------- ------- ------- ------- ------- ------- ------- -------
   1.  C 1 (s)     -0.0089 -0.0652  0.0074  0.0000  0.0202 -0.0348  0.0064  0.0000
   2.  C 1 (s)      0.0108  0.1311 -0.0128  0.0000 -0.0417  0.0700 -0.0109  0.0000
   3.  C 1 (px)    -0.0760 -0.3218  0.0408  0.0000 -0.0541 -0.2238  0.0386  0.0000
   4.  C 1 (py)     0.0038  0.0270 -0.0135  0.0000 -0.0270  0.0209 -0.0412  0.0000
   5.  C 1 (pz)     0.0000  0.0000  0.0000 -0.0061  0.0000  0.0000  0.0000 -0.0446
   6.  C 1 (s)     -0.0531  0.0629 -0.0074  0.0000 -0.0978  0.0248 -0.0044  0.0000
   7.  C 1 (px)    -0.0003 -0.1114  0.0131  0.0000  0.0043 -0.0785  0.0117  0.0000
   8.  C 1 (py)     0.0041 -0.0201  0.0032  0.0000 -0.0051 -0.0120 -0.0127  0.0000
   9.  C 1 (pz)     0.0000  0.0000  0.0000  0.0099  0.0000  0.0000  0.0000 -0.0101
  10.  C 1 (d1)     0.0204  0.0347 -0.0061  0.0000  0.0168  0.0238 -0.0055  0.0000
  11.  C 1 (d4)    -0.0070 -0.0135  0.0002  0.0000 -0.0088 -0.0097 -0.0009  0.0000
  12.  C 1 (d6)    -0.0064 -0.0148  0.0054  0.0000 -0.0040 -0.0110  0.0060  0.0000
  13.  C 1 (d2)    -0.0073 -0.0031 -0.0220  0.0000 -0.0139 -0.0009 -0.0169  0.0000
  14.  C 1 (d3)     0.0000  0.0000  0.0000 -0.0340  0.0000  0.0000  0.0000 -0.0288
  15.  C 1 (d5)     0.0000  0.0000  0.0000  0.0079  0.0000  0.0000  0.0000  0.0091
  16.  O 2 (s)     -0.1828  0.0248 -0.0398  0.0000 -0.2340  0.0174 -0.0279  0.0000
  17.  O 2 (s)      0.5084 -0.0537  0.0859  0.0000  0.5454 -0.0415  0.0659  0.0000
  18.  O 2 (px)    -0.0537  0.5276 -0.0533  0.0000 -0.1228  0.3529 -0.0569  0.0000
  19.  O 2 (py)     0.0859 -0.0533  0.5939  0.0000  0.2284 -0.0656  0.4121  0.0000
  20.  O 2 (pz)     0.0000  0.0000  0.0000  0.8307  0.0000  0.0000  0.0000  0.6513
  21.  O 2 (s)      0.5454 -0.1228  0.2284  0.0000  0.6307 -0.0921  0.1686  0.0000
  22.  O 2 (px)    -0.0415  0.3529 -0.0656  0.0000 -0.0921  0.2389 -0.0591  0.0000
  23.  O 2 (py)     0.0659 -0.0569  0.4121  0.0000  0.1686 -0.0591  0.2890  0.0000
  24.  O 2 (pz)     0.0000  0.0000  0.0000  0.6513  0.0000  0.0000  0.0000  0.5146
  25.  O 2 (d1)     0.0096  0.0310  0.0051  0.0000  0.0066  0.0198  0.0023  0.0000
  26.  O 2 (d4)     0.0107 -0.0126 -0.0538  0.0000  0.0001 -0.0057 -0.0367  0.0000
  27.  O 2 (d6)     0.0024 -0.0067  0.0124  0.0000  0.0061 -0.0051  0.0088  0.0000
  28.  O 2 (d2)     0.0102 -0.0290  0.0058  0.0000  0.0144 -0.0195  0.0045  0.0000
  29.  O 2 (d3)     0.0000  0.0000  0.0000  0.0182  0.0000  0.0000  0.0000  0.0136
  30.  O 2 (d5)     0.0000  0.0000  0.0000 -0.0333  0.0000  0.0000  0.0000 -0.0260
  31.  H 3 (s)     -0.0221 -0.0193 -0.0375  0.0000 -0.0620 -0.0179 -0.0431  0.0000
  32.  H 3 (s)     -0.0211 -0.0212 -0.0692  0.0000 -0.0538 -0.0126 -0.0615  0.0000
  33.  H 4 (s)     -0.0083 -0.0316  0.0250  0.0569 -0.0084 -0.0310  0.0290  0.0663
  34.  H 4 (s)      0.0077 -0.0540  0.0493  0.1005  0.0255 -0.0417  0.0444  0.0980
  35.  H 5 (s)     -0.0083 -0.0316  0.0250 -0.0569 -0.0084 -0.0310  0.0290 -0.0663
  36.  H 5 (s)      0.0077 -0.0540  0.0493 -0.1005  0.0255 -0.0417  0.0444 -0.0980
  37.  H 6 (s)      0.0683 -0.0965 -0.2798  0.0000  0.0156 -0.0501 -0.1895  0.0000
  38.  H 6 (s)     -0.0315 -0.0575 -0.1517  0.0000 -0.0641 -0.0307 -0.1055  0.0000

           AO         25      26      27      28      29      30      31      32
      ------------ ------- ------- ------- ------- ------- ------- ------- -------
   1.  C 1 (s)     -0.0093  0.0007  0.0009  0.0038  0.0000  0.0000 -0.0543 -0.0130
   2.  C 1 (s)      0.0151 -0.0019 -0.0014 -0.0074  0.0000  0.0000  0.1071  0.0363
   3.  C 1 (px)    -0.0179  0.0034  0.0043  0.0165  0.0000  0.0000  0.0885  0.0495
   4.  C 1 (py)     0.0049  0.0030  0.0000  0.0071  0.0000  0.0000  0.2491  0.1962
   5.  C 1 (pz)     0.0000  0.0000  0.0000  0.0000  0.0064 -0.0013  0.0000  0.0000
   6.  C 1 (s)      0.0092 -0.0027 -0.0007 -0.0049  0.0000  0.0000  0.1043  0.0351
   7.  C 1 (px)    -0.0050  0.0023  0.0015  0.0064  0.0000  0.0000  0.0477  0.0279
   8.  C 1 (py)     0.0005  0.0016  0.0006  0.0055  0.0000  0.0000  0.1258  0.0996
   9.  C 1 (pz)     0.0000  0.0000  0.0000  0.0000  0.0032 -0.0011  0.0000  0.0000
  10.  C 1 (d1)     0.0024  0.0003 -0.0005 -0.0015  0.0000  0.0000 -0.0043 -0.0022
  11.  C 1 (d4)    -0.0005  0.0003  0.0002  0.0010  0.0000  0.0000  0.0198  0.0133
  12.  C 1 (d6)    -0.0009 -0.0004  0.0002  0.0002  0.0000  0.0000 -0.0081 -0.0085
  13.  C 1 (d2)    -0.0004  0.0021 -0.0004  0.0005  0.0000  0.0000  0.0172  0.0147
  14.  C 1 (d3)     0.0000  0.0000  0.0000  0.0000 -0.0004  0.0013  0.0000  0.0000
  15.  C 1 (d5)     0.0000  0.0000  0.0000  0.0000 -0.0003 -0.0002  0.0000  0.0000
[...]
            0.0000 0.0000 0.0000 0.0000 0.0000 0.0000 0.0000 0.7697
            0.0000
           NBO accepted:   12. Label:BD*( 1)   1   5
        2 eigenvector(s) stashed in permanent list

 Search of NHO DM block for the following atom(s):   2   6
      Select eigenvectors with eigenvalue > 1.900
       1.991 0.005 0.000 0.000 0.000 0.000 0.000 0.000 0.000 0.000 0.000 0.000
       0.000 0.000 0.000 0.000 0.000
      Eigenvector ( 1) has occupancy 1.99103
            0.0000 0.0000 0.0000 0.8607 0.0000 0.0000 0.0000 0.0000
            0.0000 0.0000 0.0000 0.0000 0.0000 0.0000 0.0000 0.5091
            0.0000
      Occupancy is 1.991 after deleting minor hybrid components
            0.0000 0.0000 0.0000 0.8607 0.0000 0.0000 0.0000 0.0000
            0.0000 0.0000 0.0000 0.0000 0.0000 0.0000 0.0000 0.5091
            0.0000
           NBO accepted:   13. Label:BD ( 1)   2   6
      Occupancy is 0.005 for antibonding component
            0.0000 0.0000 0.0000-0.5091 0.0000 0.0000 0.0000 0.0000
            0.0000 0.0000 0.0000 0.0000 0.0000 0.0000 0.0000 0.8607
            0.0000
           NBO accepted:   14. Label:BD*( 1)   2   6
        2 eigenvector(s) stashed in permanent list

  2-center NBOs projected from the NHO density matrix
       0.012 electrons remain in the fully projected matrix

                            Occupancies       Lewis Structure    Low   High
         Max    Occ     -------------------  -----------------   occ   occ
  Cycle  Ctr   Thresh    Lewis   non-Lewis     CR  BD  nC  LP    (L)   (NL)
 ============================================================================
    3     2     1.90    17.94355   0.05645      2   5   0   2     0      0
 ----------------------------------------------------------------------------

 Structure accepted: No low occupancy Lewis orbitals

 -------------------------------------------------------
   Core                      3.99999 (100.000% of   4)
   Valence Lewis            13.94356 ( 99.597% of  14)
  ==================      =============================
   Total Lewis              17.94355 ( 99.686% of  18)
  -----------------------------------------------------
   Valence non-Lewis         0.04456 (  0.248% of  18)
   Rydberg non-Lewis         0.01189 (  0.066% of  18)
  ==================      =============================
   Total non-Lewis           0.05645 (  0.314% of  18)
 -------------------------------------------------------


     (Occupancy)   Bond orbital / Coefficients / Hybrids
 ------------------ Lewis ------------------------------------------------------
   1. (2.00000) CR ( 1) C  1            s(100.00%)
                                         1.0000  0.0000  0.0000  0.0000  0.0000
                                         0.0000  0.0000  0.0000  0.0000  0.0000
                                         0.0000  0.0000  0.0000  0.0000  0.0000
   2. (2.00000) CR ( 1) O  2            s(100.00%)
                                         1.0000  0.0000  0.0000  0.0000  0.0000
                                         0.0000  0.0000  0.0000  0.0000  0.0000
                                         0.0000  0.0000  0.0000  0.0000  0.0000
   3. (1.98930) LP ( 1) O  2            s( 52.34%)p 0.91( 47.60%)d 0.00(  0.06%)
                                         0.0000  0.7234  0.0082  0.0000 -0.4034
                                        -0.0015  0.5596 -0.0035  0.0000  0.0000
                                         0.0210  0.0000  0.0000  0.0065  0.0118
   4. (1.97461) LP ( 2) O  2            s(  0.00%)p 1.00( 99.90%)d 0.00(  0.10%)
                                         0.0000  0.0000  0.0000  0.0000  0.0000
                                         0.0000  0.0000  0.0000  0.9995 -0.0073
                                         0.0000  0.0186 -0.0263  0.0000  0.0000
   5. (1.99901) BD ( 1) C  1- O  2
               ( 32.49%)   0.5700* C  1 s( 21.29%)p 3.68( 78.35%)d 0.02(  0.36%)
                                         0.0000  0.4594 -0.0436  0.0024 -0.8817
                                        -0.0478  0.0590  0.0175  0.0000  0.0000
                                        -0.0053  0.0000  0.0000  0.0512 -0.0303
               ( 67.51%)   0.8216* O  2 s( 28.70%)p 2.48( 71.08%)d 0.01(  0.22%)
                                         0.0000  0.5357 -0.0050 -0.0018  0.8385
                                        -0.0009 -0.0868  0.0111  0.0000  0.0000
                                        -0.0225  0.0000  0.0000  0.0307 -0.0273
   6. (1.99344) BD ( 1) C  1- H  3
               ( 60.21%)   0.7760* C  1 s( 25.98%)p 2.84( 73.84%)d 0.01(  0.19%)
                                         0.0000  0.5097  0.0033 -0.0002  0.3178
                                        -0.0072  0.7982 -0.0118  0.0000  0.0000
                                         0.0273  0.0000  0.0000 -0.0275 -0.0189
               ( 39.79%)   0.6308* H  3 s(100.00%)
                                         1.0000  0.0016
   7. (1.99809) BD ( 1) C  1- H  4
               ( 59.25%)   0.7697* C  1 s( 26.44%)p 2.77( 73.36%)d 0.01(  0.20%)
                                         0.0000  0.5141  0.0100 -0.0005  0.2379
                                         0.0059 -0.4222  0.0077 -0.7062  0.0053
                                        -0.0118 -0.0211  0.0295 -0.0078  0.0209
               ( 40.75%)   0.6384* H  4 s(100.00%)
                                         1.0000  0.0027
   8. (1.99809) BD ( 1) C  1- H  5
               ( 59.25%)   0.7697* C  1 s( 26.44%)p 2.77( 73.36%)d 0.01(  0.20%)
                                         0.0000  0.5141  0.0100 -0.0005  0.2379
                                         0.0059 -0.4222  0.0077  0.7062 -0.0053
                                        -0.0118  0.0211 -0.0295 -0.0078  0.0209
               ( 40.75%)   0.6384* H  5 s(100.00%)
                                         1.0000  0.0027
   9. (1.99103) BD ( 1) O  2- H  6
               ( 74.08%)   0.8607* O  2 s( 18.93%)p 4.27( 80.79%)d 0.01(  0.28%)
                                         0.0000  0.4349 -0.0132  0.0021 -0.3619
                                        -0.0271 -0.8223 -0.0038  0.0000  0.0000
                                         0.0111  0.0000  0.0000 -0.0445 -0.0270
               ( 25.92%)   0.5091* H  6 s(100.00%)
                                         1.0000 -0.0029
 ---------------- non-Lewis ----------------------------------------------------
  10. (0.00045) BD*( 1) C  1- O  2
               ( 67.51%)   0.8216* C  1 s( 21.29%)p 3.68( 78.35%)d 0.02(  0.36%)
                                         0.0000  0.4594 -0.0436  0.0024 -0.8817
                                        -0.0478  0.0590  0.0175  0.0000  0.0000
                                        -0.0053  0.0000  0.0000  0.0512 -0.0303
               ( 32.49%)  -0.5700* O  2 s( 28.70%)p 2.48( 71.08%)d 0.01(  0.22%)
                                         0.0000  0.5357 -0.0050 -0.0018  0.8385
                                        -0.0009 -0.0868  0.0111  0.0000  0.0000
                                        -0.0225  0.0000  0.0000  0.0307 -0.0273
  11. (0.00980) BD*( 1) C  1- H  3
               ( 39.79%)   0.6308* C  1 s( 25.98%)p 2.84( 73.84%)d 0.01(  0.19%)
                                         0.0000 -0.5097 -0.0033  0.0002 -0.3178
                                         0.0072 -0.7982  0.0118  0.0000  0.0000
                                        -0.0273  0.0000  0.0000  0.0275  0.0189
               ( 60.21%)  -0.7760* H  3 s(100.00%)
                                        -1.0000 -0.0016
  12. (0.01490) BD*( 1) C  1- H  4
               ( 40.75%)   0.6384* C  1 s( 26.44%)p 2.77( 73.36%)d 0.01(  0.20%)
                                         0.0000 -0.5141 -0.0100  0.0005 -0.2379
                                        -0.0059  0.4222 -0.0077  0.7062 -0.0053
                                         0.0118  0.0211 -0.0295  0.0078 -0.0209
               ( 59.25%)  -0.7697* H  4 s(100.00%)
                                        -1.0000 -0.0027
  13. (0.01490) BD*( 1) C  1- H  5
               ( 40.75%)   0.6384* C  1 s( 26.44%)p 2.77( 73.36%)d 0.01(  0.20%)
                                         0.0000 -0.5141 -0.0100  0.0005 -0.2379
                                        -0.0059  0.4222 -0.0077 -0.7062  0.0053
                                         0.0118 -0.0211  0.0295  0.0078 -0.0209
               ( 59.25%)  -0.7697* H  5 s(100.00%)
                                        -1.0000 -0.0027
  14. (0.00451) BD*( 1) O  2- H  6
               ( 25.92%)   0.5091* O  2 s( 18.93%)p 4.27( 80.79%)d 0.01(  0.28%)
                                         0.0000 -0.4349  0.0132 -0.0021  0.3619
                                         0.0271  0.8223  0.0038  0.0000  0.0000
                                        -0.0111  0.0000  0.0000  0.0445  0.0270
               ( 74.08%)  -0.8607* H  6 s(100.00%)
                                        -1.0000  0.0029
  15. (0.00195) RY ( 1) C  1            s( 12.41%)p 6.35( 78.79%)d 0.71(  8.80%)
                                         0.0000  0.0225  0.3285  0.1250 -0.0698
                                         0.7457  0.0116 -0.4762  0.0000  0.0000
                                        -0.1442  0.0000  0.0000 -0.2300  0.1196
  16. (0.00148) RY ( 2) C  1            s(  0.00%)p 1.00(  1.66%)d59.36( 98.34%)
                                         0.0000  0.0000  0.0000  0.0000  0.0000
                                         0.0000  0.0000  0.0000 -0.0397 -0.1224
                                         0.0000  0.9618 -0.2416  0.0000  0.0000
  17. (0.00091) RY ( 3) C  1            s(  2.96%)p 2.85(  8.45%)d29.89( 88.58%)
                                         0.0000 -0.0024  0.1721 -0.0029  0.0136
                                        -0.0162  0.0418  0.2869  0.0000  0.0000
                                        -0.8993  0.0000  0.0000  0.2356  0.1472
  18. (0.00000) RY ( 4) C  1            s( 92.02%)p 0.03(  2.86%)d 0.06(  5.12%)
  19. (0.00000) RY ( 5) C  1            s(  0.14%)p99.99( 47.47%)d99.99( 52.38%)
  20. (0.00000) RY ( 6) C  1            s( 47.41%)p 0.44( 20.65%)d 0.67( 31.95%)
  21. (0.00000) RY ( 7) C  1            s( 10.24%)p 8.17( 83.66%)d 0.60(  6.10%)
  22. (0.00000) RY ( 8) C  1            s( 25.02%)p 1.04( 26.14%)d 1.95( 48.84%)
  23. (0.00000) RY ( 9) C  1            s(  8.44%)p 3.40( 28.72%)d 7.45( 62.85%)
  24. (0.00000) RY (10) C  1            s(  1.22%)p 2.20(  2.68%)d78.79( 96.10%)
  25. (0.00191) RY ( 1) O  2            s(  0.00%)p 1.00( 98.74%)d 0.01(  1.26%)
                                         0.0000  0.0000  0.0000  0.0000  0.0000
                                         0.0000  0.0000  0.0000  0.0042  0.9937
                                         0.0000  0.1021 -0.0466  0.0000  0.0000
  26. (0.00126) RY ( 2) O  2            s( 11.38%)p 7.23( 82.26%)d 0.56(  6.35%)
                                         0.0000  0.0061  0.3372  0.0115  0.0047
                                         0.0280 -0.0083 -0.9065  0.0000  0.0000
                                        -0.2370  0.0000  0.0000  0.0251  0.0820
  27. (0.00027) RY ( 3) O  2            s( 50.50%)p 0.77( 38.87%)d 0.21( 10.63%)
                                         0.0000 -0.0078  0.6993  0.1260 -0.0130
                                        -0.5569 -0.0032  0.2799  0.0000  0.0000
                                        -0.1580  0.0000  0.0000  0.2483 -0.1402
  28. (0.00000) RY ( 4) O  2            s(  2.40%)p 3.71(  8.90%)d36.97( 88.70%)
  29. (0.00000) RY ( 5) O  2            s(  2.74%)p 3.44(  9.43%)d32.06( 87.83%)
  30. (0.00000) RY ( 6) O  2            s( 10.51%)p 3.38( 35.57%)d 5.13( 53.93%)
  31. (0.00000) RY ( 7) O  2            s( 29.06%)p 0.36( 10.47%)d 2.08( 60.47%)
  32. (0.00000) RY ( 8) O  2            s( 88.90%)p 0.07(  6.54%)d 0.05(  4.56%)
  33. (0.00000) RY ( 9) O  2            s(  4.53%)p 2.11(  9.55%)d18.97( 85.92%)
  34. (0.00000) RY (10) O  2            s(  0.00%)p 1.00(  0.31%)d99.99( 99.69%)
  35. (0.00066) RY ( 1) H  3            s(100.00%)
                                        -0.0016  1.0000
  36. (0.00105) RY ( 1) H  4            s(100.00%)
                                        -0.0027  1.0000
  37. (0.00105) RY ( 1) H  5            s(100.00%)
                                        -0.0027  1.0000
  38. (0.00135) RY ( 1) H  6            s(100.00%)
                                         0.0029  1.0000


 NHO DIRECTIONALITY AND BOND BENDING (deviation from line of nuclear centers at
                                      the position of maximum hybrid amplitude)

         [Thresholds for printing:  angular deviation  >  1.0 degree]
                                    p- or d-character  > 25.0%
                                    orbital occupancy  >  0.10e

                        Line of Centers        Hybrid 1             Hybrid 2
                        ---------------  -------------------  ------------------
           NBO            Theta   Phi    Theta   Phi    Dev   Theta   Phi    Dev
 ===============================================================================
   3. LP ( 1) O  2          --     --     90.0  124.7   --      --     --    --
   4. LP ( 2) O  2          --     --      0.4  300.3   --      --     --    --
   5. BD ( 1) C  1- O  2   90.0  174.2    90.0  175.6   1.4     --     --    --
   6. BD ( 1) C  1- H  3   90.0   66.6    90.0   67.8   1.2     --     --    --
   7. BD ( 1) C  1- H  4  144.1  304.7   145.0  301.6   2.0     --     --    --
   8. BD ( 1) C  1- H  5   35.9  304.7    35.0  301.6   2.0     --     --    --
   9. BD ( 1) O  2- H  6   90.0  250.4    90.0  246.4   4.0     --     --    --


 SECOND ORDER PERTURBATION THEORY ANALYSIS OF FOCK MATRIX IN NBO BASIS

     Threshold for printing:   0.50 kcal/mol
                                                          E(2) E(NL)-E(L) F(L,NL)
      Donor (L) NBO              Acceptor (NL) NBO      kcal/mol   a.u.    a.u.
 ===============================================================================

 within unit  1
    3. LP ( 1) O  2            11. BD*( 1) C  1- H  3      1.75    1.51   0.046
    3. LP ( 1) O  2            12. BD*( 1) C  1- H  4      1.35    1.49   0.040
    3. LP ( 1) O  2            13. BD*( 1) C  1- H  5      1.35    1.49   0.040
    3. LP ( 1) O  2            15. RY ( 1) C  1            1.51    1.76   0.046
    4. LP ( 2) O  2            12. BD*( 1) C  1- H  4      7.47    1.19   0.084
    4. LP ( 2) O  2            13. BD*( 1) C  1- H  5      7.47    1.19   0.084
    4. LP ( 2) O  2            16. RY ( 2) C  1            1.74    2.79   0.062
    6. BD ( 1) C  1- H  3      14. BD*( 1) O  2- H  6      2.69    1.34   0.054
    6. BD ( 1) C  1- H  3      26. RY ( 2) O  2            1.38    2.08   0.048
    7. BD ( 1) C  1- H  4      25. RY ( 1) O  2            1.06    1.93   0.040
    8. BD ( 1) C  1- H  5      25. RY ( 1) O  2            1.06    1.93   0.040
    9. BD ( 1) O  2- H  6      11. BD*( 1) C  1- H  3      4.16    1.58   0.072
    9. BD ( 1) O  2- H  6      15. RY ( 1) C  1            0.95    1.83   0.037
    9. BD ( 1) O  2- H  6      17. RY ( 3) C  1            0.78    3.12   0.044


 NATURAL BOND ORBITALS (Summary):

                                                     Principal Delocalizations
           NBO                 Occupancy    Energy   (geminal,vicinal,remote)
 ===============================================================================
 Molecular unit  1  (CH4O)
 ------ Lewis --------------------------------------
    1. CR ( 1) C  1             2.00000   -11.27283
    2. CR ( 1) O  2             2.00000   -20.56435
    3. LP ( 1) O  2             1.98930    -0.77988  11(v),15(v),12(v),13(v)
    4. LP ( 2) O  2             1.97461    -0.48179  12(v),13(v),16(v)
    5. BD ( 1) C  1- O  2       1.99901    -0.93612
    6. BD ( 1) C  1- H  3       1.99344    -0.66521  14(v),26(v)
    7. BD ( 1) C  1- H  4       1.99809    -0.67114  25(v)
    8. BD ( 1) C  1- H  5       1.99809    -0.67114  25(v)
    9. BD ( 1) O  2- H  6       1.99103    -0.84946  11(v),15(v),17(v)
 ------ non-Lewis ----------------------------------
   10. BD*( 1) C  1- O  2       0.00045     0.55555
   11. BD*( 1) C  1- H  3       0.00980     0.72682
   12. BD*( 1) C  1- H  4       0.01490     0.70940
   13. BD*( 1) C  1- H  5       0.01490     0.70940
   14. BD*( 1) O  2- H  6       0.00451     0.67840
   15. RY ( 1) C  1             0.00195     0.98066
   16. RY ( 2) C  1             0.00148     2.31029
   17. RY ( 3) C  1             0.00091     2.27098
   18. RY ( 4) C  1             0.00000     2.42080
   19. RY ( 5) C  1             0.00000     1.62615
   20. RY ( 6) C  1             0.00000     2.51958
   21. RY ( 7) C  1             0.00000     1.24453
   22. RY ( 8) C  1             0.00000     2.25395
   23. RY ( 9) C  1             0.00000     1.87846
   24. RY (10) C  1             0.00000     2.33256
   25. RY ( 1) O  2             0.00191     1.25865
   26. RY ( 2) O  2             0.00126     1.41091
   27. RY ( 3) O  2             0.00027     2.05479
   28. RY ( 4) O  2             0.00000     2.23349
   29. RY ( 5) O  2             0.00000     2.32683
   30. RY ( 6) O  2             0.00000     1.87064
   31. RY ( 7) O  2             0.00000     2.20074
   32. RY ( 8) O  2             0.00000     3.87449
   33. RY ( 9) O  2             0.00000     2.34433
   34. RY (10) O  2             0.00000     2.06531
   35. RY ( 1) H  3             0.00066     0.79530
   36. RY ( 1) H  4             0.00105     0.79958
   37. RY ( 1) H  5             0.00105     0.79958
   38. RY ( 1) H  6             0.00135     0.82218
          -------------------------------
                 Total Lewis   17.94355  ( 99.6864%)
           Valence non-Lewis    0.04456  (  0.2475%)
           Rydberg non-Lewis    0.01189  (  0.0661%)
          -------------------------------
               Total unit  1   18.00000  (100.0000%)
              Charge unit  1    0.00000

 $CHOOSE
   LONE 2 2 END
   BOND S 1 2 S 1 3 S 1 4 S 1 5 S 2 6 END
 $END

 NBO analysis completed in 0.63 CPU seconds (1 wall second)
 Maximum scratch memory used by NBO was 334644 words (2.55 MB)
 Maximum scratch memory used by G16NBO was 10551 words (0.08 MB)

 Opening RunExU unformatted file "/cluster/work/users/beto93/CH3OH/Gau-1282156.EUF"
 Read unf file /cluster/work/users/beto93/CH3OH/Gau-1282156.EUF:
 Label Gaussian matrix elements                                         IVers= 2 NLab= 2 Version=ES64L-G16RevC.01
 Title NBO-a                                                           
 NAtoms=     6 NBasis=    38 NBsUse=    38 ICharg=     0 Multip=     1 NE=    18 Len12L=8 Len4L=8 IOpCl= 0 ICGU=111
 GAUSSIAN SCALARS                    NI= 1 NR= 1 NTot=       1 LenBuf=    2 NRI=1 N=    1000
 NPA CHARGES                         NI= 0 NR= 1 NTot=       6 LenBuf= 4000 NRI=1 N=       6
 Recovered energy= -115.031822221     dipole=      0.436573699848     -0.672065449447     -0.000000277784
 Unable to Open any file for archive entry.
 1\1\GINC-C1-30\SP\RHF\6-31G(d)\C1H4O1\BETO93\24-Jul-2024\0\\#RHF/6-31G
 * Pop=NBO7Read\\NBO-a\\0,1\C,0,-0.004656,0.008066,-0.014442\O,0,-0.695
 573,1.204768,-0.393961\H,0,0.017016,-0.029474,1.076161\H,0,1.028828,-0
 .008985,-0.37608\H,0,-0.506631,-0.895483,-0.376082\H,0,-0.682583,1.182
 27,-1.384739\\Version=ES64L-G16RevC.01\State=1-A\HF=-115.0318222\RMSD=
 5.431e-09\Dipole=0.3246735,-0.5623491,-0.4697011\Quadrupole=-0.7678582
 ,-0.9982485,1.7661068,0.1995237,0.5094674,-0.8824261\PG=C01 [X(C1H4O1)
 ]\\@
 The archive entry for this job was punched.


 DO YOU KNOW THAT THE LETTERS IN "EPISCOPAL", WHEN
 REARRANGED, SPELL "PEPSI COLA"?
 Job cpu time:       0 days  0 hours  0 minutes 19.7 seconds.
 Elapsed time:       0 days  0 hours  0 minutes  6.5 seconds.
 File lengths (MBytes):  RWF=     10 Int=      0 D2E=      0 Chk=      1 Scr=      1
 Normal termination of Gaussian 16 at Wed Jul 24 12:08:06 2024.
