 Entering Gaussian System, Link 0=g16
 Initial command:
 /cluster/software/Gaussian/g16_C.01/l1.exe "/cluster/work/users/beto93/mol128/Gau-2836229.inp" -scrdir="/cluster/work/users/beto93/mol128/"
 Entering Link 1 = /cluster/software/Gaussian/g16_C.01/l1.exe PID=   2836235.
  
 Copyright (c) 1988-2019, Gaussian, Inc.  All Rights Reserved.
  
 This is part of the Gaussian(R) 16 program.  It is based on
 the Gaussian(R) 09 system (copyright 2009, Gaussian, Inc.),
 the Gaussian(R) 03 system (copyright 2003, Gaussian, Inc.),
 the Gaussian(R) 98 system (copyright 1998, Gaussian, Inc.),
 the Gaussian(R) 94 system (copyright 1995, Gaussian, Inc.),
 the Gaussian 92(TM) system (copyright 1992, Gaussian, Inc.),
 the Gaussian 90(TM) system (copyright 1990, Gaussian, Inc.),
 the Gaussian 88(TM) system (copyright 1988, Gaussian, Inc.),
 the Gaussian 86(TM) system (copyright 1986, Carnegie Mellon
 University), and the Gaussian 82(TM) system (copyright 1983,
 Carnegie Mellon University). Gaussian is a federally registered
 trademark of Gaussian, Inc.
  
 This software contains proprietary and confidential information,
 including trade secrets, belonging to Gaussian, Inc.
  
 This software is provided under written license and may be
 used, copied, transmitted, or stored only in accord with that
 written license.
  
 The following legend is applicable only to US Government
 contracts under FAR:
  
                    RESTRICTED RIGHTS LEGEND
  
 Use, reproduction and disclosure by the US Government is
 subject to restrictions as set forth in subparagraphs (a)
 and (c) of the Commercial Computer Software - Restricted
 Rights clause in FAR 52.227-19.
  
 Gaussian, Inc.
 340 Quinnipiac St., Bldg. 40, Wallingford CT 06492
  
  
 ---------------------------------------------------------------
 Warning -- This program may not be used in any manner that
 competes with the business of Gaussian, Inc. or will provide
 assistance to any competitor of Gaussian, Inc.  The licensee
 of this program is prohibited from giving any competitor of
 Gaussian, Inc. access to this program.  By using this program,
 the user acknowledges that Gaussian, Inc. is engaged in the
 business of creating and licensing software in the field of
 computational chemistry and represents and warrants to the
 licensee that it is not a competitor of Gaussian, Inc. and that
 it will not use this program in any manner prohibited above.
 ---------------------------------------------------------------
  

 Cite this work as:
 Gaussian 16, Revision C.01,
 M. J. Frisch, G. W. Trucks, H. B. Schlegel, G. E. Scuseria, 
 M. A. Robb, J. R. Cheeseman, G. Scalmani, V. Barone, 
 G. A. Petersson, H. Nakatsuji, X. Li, M. Caricato, A. V. Marenich, 
 J. Bloino, B. G. Janesko, R. Gomperts, B. Mennucci, H. P. Hratchian, 
 J. V. Ortiz, A. F. Izmaylov, J. L. Sonnenberg, D. Williams-Young, 
 F. Ding, F. Lipparini, F. Egidi, J. Goings, B. Peng, A. Petrone, 
 T. Henderson, D. Ranasinghe, V. G. Zakrzewski, J. Gao, N. Rega, 
 G. Zheng, W. Liang, M. Hada, M. Ehara, K. Toyota, R. Fukuda, 
 J. Hasegawa, M. Ishida, T. Nakajima, Y. Honda, O. Kitao, H. Nakai, 
 T. Vreven, K. Throssell, J. A. Montgomery, Jr., J. E. Peralta, 
 F. Ogliaro, M. J. Bearpark, J. J. Heyd, E. N. Brothers, K. N. Kudin, 
 V. N. Staroverov, T. A. Keith, R. Kobayashi, J. Normand, 
 K. Raghavachari, A. P. Rendell, J. C. Burant, S. S. Iyengar, 
 J. Tomasi, M. Cossi, J. M. Millam, M. Klene, C. Adamo, R. Cammi, 
 J. W. Ochterski, R. L. Martin, K. Morokuma, O. Farkas, 
 J. B. Foresman, and D. J. Fox, Gaussian, Inc., Wallingford CT, 2019.
 
 ******************************************
 Gaussian 16:  ES64L-G16RevC.01  3-Jul-2019
                18-Nov-2024 
 ******************************************
 %LindaWorkers=c1-33-ib
 %NProcShared=4
 Will use up to    4 processors via shared memory.
 %mem=25GB
 %chk=mol128.chk
 SetLPE:    new flags="-opt 'Tsnet.Node.lindarsharg: ssh'  -nodelist 'c1-33-ib.saga' -env GAUSS_MDEF=3355443200 -env GAUSS_EXEDIR="/cluster/software/Gaussian/g16_C.01/bsd:/cluster/software/Gaussian/g16_C.01""
 Will use up to    1 processors via Linda.
 -----------------------------------------------------------------
 #RHF/6-31G* int=nobasistransform Symmetry=None 5D 7F Pop=NBO7Read
 -----------------------------------------------------------------
 1/38=1,163=2,172=1/1;
 2/12=2,15=3,17=6,18=5,40=1/2;
 3/5=1,6=6,7=1,8=11,11=1,25=1,30=1,60=-1,116=1/1,2,3;
 4//1;
 5/5=2,38=5/2;
 6/7=2,8=2,9=2,10=2,28=1,40=2,113=1,114=1,124=2103/1,12;
 99/5=1,9=1/99;
 ----------
 mol128-NBO
 ----------
 Symbolic Z-matrix:
 Charge =  0 Multiplicity = 1
 O                     0.02719   1.36369  -0.16752 
 C                    -0.00093   0.03646   0.37013 
 H                     0.85947   1.77565   0.12131 
 H                     0.00737   0.08215   1.47051 
 C                    -1.31328  -0.56351  -0.08898 
 C                     1.20072  -0.76448  -0.10492 
 H                    -1.33401  -0.60725  -1.18101 
 H                     1.20284  -0.80782  -1.19719 
 H                    -2.14781   0.05499   0.24768 
 H                     2.13646  -0.29932   0.22316 
 H                    -1.43871  -1.57428   0.30834 
 H                     1.17774  -1.78444   0.28997 
 
                          Input orientation:                          
 ---------------------------------------------------------------------
 Center     Atomic      Atomic             Coordinates (Angstroms)
 Number     Number       Type             X           Y           Z
 ---------------------------------------------------------------------
      1          8           0        0.027191    1.363691   -0.167516
      2          6           0       -0.000926    0.036459    0.370128
      3          1           0        0.859465    1.775647    0.121307
      4          1           0        0.007371    0.082145    1.470506
      5          6           0       -1.313275   -0.563514   -0.088979
      6          6           0        1.200721   -0.764480   -0.104920
      7          1           0       -1.334005   -0.607253   -1.181009
      8          1           0        1.202843   -0.807817   -1.197189
      9          1           0       -2.147812    0.054993    0.247676
     10          1           0        2.136462   -0.299324    0.223164
     11          1           0       -1.438709   -1.574275    0.308340
     12          1           0        1.177736   -1.784436    0.289967
 ---------------------------------------------------------------------
                    Distance matrix (angstroms):
                    1          2          3          4          5
     1  O    0.000000
     2  C    1.432270   0.000000
     3  H    0.972526   1.956262   0.000000
     4  H    2.079872   1.101357   2.326876   0.000000
     5  C    2.348859   1.514268   3.199483   2.143123   0.000000
     6  C    2.431091   1.520240   2.572913   2.150076   2.522066
     7  H    2.600893   2.144176   3.490781   3.050425   1.093102
     8  H    2.675412   2.149033   2.920724   3.055779   2.760193
     9  H    2.572103   2.150455   3.467035   2.478077   1.091943
    10  H    2.714272   2.168589   2.438565   2.496880   3.473890
    11  H    3.317672   2.159977   4.066763   2.487067   1.093268
    12  H    3.382861   2.170559   3.578258   2.499510   2.799890
                    6          7          8          9         10
     6  C    0.000000
     7  H    2.758174   0.000000
     8  H    1.093130   2.544815   0.000000
     9  H    3.465333   1.772567   3.749529   0.000000
    10  H    1.095272   3.756416   1.774151   4.298970   0.000000
    11  H    2.791620   1.778835   3.135582   1.777926   3.796657
    12  H    1.093972   3.139805   1.779339   3.800600   1.768948
                   11         12
    11  H    0.000000
    12  H    2.624936   0.000000
 Symmetry turned off by external request.
 Stoichiometry    C3H8O
 Rotational constants (GHZ):           8.7184134           8.0868855           4.8043717
 Standard basis: 6-31G(d) (5D, 7F)
    72 basis functions,   144 primitive gaussians,    76 cartesian basis functions
    17 alpha electrons       17 beta electrons
       nuclear repulsion energy       134.9642292841 Hartrees.
 NAtoms=   12 NActive=   12 NUniq=   12 SFac= 1.00D+00 NAtFMM=   60 NAOKFM=F Big=F
 Integral buffers will be    131072 words long.
 Raffenetti 1 integral format.
 Two-electron integral symmetry is turned off.
 One-electron integrals computed using PRISM.
 NBasis=    72 RedAO= T EigKep=  5.03D-03  NBF=    72
 NBsUse=    72 1.00D-06 EigRej= -1.00D+00 NBFU=    72
 ExpMin= 1.61D-01 ExpMax= 5.48D+03 ExpMxC= 8.25D+02 IAcc=3 IRadAn=         5 AccDes= 0.00D+00
 Harris functional with IExCor=  205 and IRadAn=       5 diagonalized for initial guess.
 HarFok:  IExCor=  205 AccDes= 0.00D+00 IRadAn=         5 IDoV= 1 UseB2=F ITyADJ=14
 ICtDFT=  3500011 ScaDFX=  1.000000  1.000000  1.000000  1.000000
 FoFCou: FMM=F IPFlag=           0 FMFlag=      100000 FMFlg1=           0
         NFxFlg=           0 DoJE=T BraDBF=F KetDBF=T FulRan=T
         wScrn=  0.000000 ICntrl=       500 IOpCl=  0 I1Cent=   200000004 NGrid=           0
         NMat0=    1 NMatS0=      1 NMatT0=    0 NMatD0=    1 NMtDS0=    0 NMtDT0=    0
 Symmetry not used in FoFCou.
 Keep R1 ints in memory in canonical form, NReq=4319457.
 Requested convergence on RMS density matrix=1.00D-08 within 128 cycles.
 Requested convergence on MAX density matrix=1.00D-06.
 Requested convergence on             energy=1.00D-06.
 No special actions if energy rises.
 SCF Done:  E(RHF) =  -193.112345303     A.U. after   12 cycles
            NFock= 12  Conv=0.47D-08     -V/T= 2.0003

 **********************************************************************

            Population analysis using the SCF Density.

 **********************************************************************

 Alpha  occ. eigenvalues --  -20.55055 -11.27612 -11.21391 -11.20621  -1.34825
 Alpha  occ. eigenvalues --   -1.04201  -0.93832  -0.79463  -0.69025  -0.62460
 Alpha  occ. eigenvalues --   -0.60226  -0.54479  -0.53227  -0.52337  -0.50761
 Alpha  occ. eigenvalues --   -0.47024  -0.43204
 Alpha virt. eigenvalues --    0.21478   0.26800   0.29299   0.29448   0.30888
 Alpha virt. eigenvalues --    0.32063   0.35116   0.35229   0.39737   0.42416
 Alpha virt. eigenvalues --    0.44444   0.71332   0.72606   0.79280   0.80016
 Alpha virt. eigenvalues --    0.81064   0.90846   0.96349   0.96482   0.99446
 Alpha virt. eigenvalues --    1.09464   1.14679   1.15928   1.17288   1.18458
 Alpha virt. eigenvalues --    1.19161   1.20900   1.23411   1.25544   1.31951
 Alpha virt. eigenvalues --    1.34442   1.46045   1.63476   1.68022   1.73571
 Alpha virt. eigenvalues --    1.78094   2.02706   2.05054   2.06732   2.12579
 Alpha virt. eigenvalues --    2.16020   2.27702   2.30965   2.38197   2.45289
 Alpha virt. eigenvalues --    2.51514   2.57501   2.59076   2.62444   2.75206
 Alpha virt. eigenvalues --    2.85927   2.88956   2.91747   3.06785   3.23716
          Condensed to atoms (all electrons):
               1          2          3          4          5          6
     1  O    8.461027   0.207660   0.258476  -0.039769  -0.060957  -0.053038
     2  C    0.207660   4.715052  -0.029721   0.412293   0.357610   0.354282
     3  H    0.258476  -0.029721   0.325807  -0.003258   0.006654  -0.003286
     4  H   -0.039769   0.412293  -0.003258   0.599002  -0.052379  -0.061937
     5  C   -0.060957   0.357610   0.006654  -0.052379   5.156859  -0.066729
     6  C   -0.053038   0.354282  -0.003286  -0.061937  -0.066729   5.200287
     7  H    0.001221  -0.035095  -0.000179   0.004906   0.383769  -0.006433
     8  H    0.001529  -0.034691  -0.000393   0.004936  -0.005791   0.382008
     9  H    0.000930  -0.033324  -0.000173  -0.004025   0.389685   0.004997
    10  H   -0.000459  -0.036514   0.003244  -0.003746   0.004968   0.386983
    11  H    0.002805  -0.036551  -0.000196  -0.000132   0.380414  -0.001608
    12  H    0.003193  -0.031477  -0.000017   0.001238  -0.002382   0.372578
               7          8          9         10         11         12
     1  O    0.001221   0.001529   0.000930  -0.000459   0.002805   0.003193
     2  C   -0.035095  -0.034691  -0.033324  -0.036514  -0.036551  -0.031477
     3  H   -0.000179  -0.000393  -0.000173   0.003244  -0.000196  -0.000017
     4  H    0.004906   0.004936  -0.004025  -0.003746  -0.000132   0.001238
     5  C    0.383769  -0.005791   0.389685   0.004968   0.380414  -0.002382
     6  C   -0.006433   0.382008   0.004997   0.386983  -0.001608   0.372578
     7  H    0.525749   0.003605  -0.025605  -0.000083  -0.025731   0.000441
     8  H    0.003605   0.522869  -0.000094  -0.027999   0.000335  -0.023737
     9  H   -0.025605  -0.000094   0.510715  -0.000113  -0.024914  -0.000122
    10  H   -0.000083  -0.027999  -0.000113   0.547267  -0.000086  -0.026405
    11  H   -0.025731   0.000335  -0.024914  -0.000086   0.548707   0.000782
    12  H    0.000441  -0.023737  -0.000122  -0.026405   0.000782   0.541875
 Mulliken charges:
               1
     1  O   -0.782619
     2  C    0.190475
     3  H    0.443041
     4  H    0.142873
     5  C   -0.491722
     6  C   -0.508104
     7  H    0.173436
     8  H    0.177422
     9  H    0.182045
    10  H    0.152943
    11  H    0.156176
    12  H    0.164034
 Sum of Mulliken charges =   0.00000
 Mulliken charges with hydrogens summed into heavy atoms:
               1
     1  O   -0.339578
     2  C    0.333348
     5  C    0.019935
     6  C   -0.013705
 Electronic spatial extent (au):  <R**2>=            317.1365
 Charge=             -0.0000 electrons
 Dipole moment (field-independent basis, Debye):
    X=              1.2657    Y=             -0.8091    Z=              0.9778  Tot=              1.7924
 Quadrupole moment (field-independent basis, Debye-Ang):
   XX=            -25.4540   YY=            -27.1248   ZZ=            -26.7436
   XY=              2.8520   XZ=              0.3123   YZ=              1.2571
 Traceless Quadrupole moment (field-independent basis, Debye-Ang):
   XX=              0.9868   YY=             -0.6840   ZZ=             -0.3028
   XY=              2.8520   XZ=              0.3123   YZ=              1.2571
 Octapole moment (field-independent basis, Debye-Ang**2):
  XXX=              1.5045  YYY=              7.0242  ZZZ=             -0.9221  XYY=              5.7382
  XXY=              6.0079  XXZ=              0.7252  XZZ=              0.1782  YZZ=              1.4777
  YYZ=              2.5528  XYZ=              0.5077
 Hexadecapole moment (field-independent basis, Debye-Ang**3):
 XXXX=           -199.8383 YYYY=           -148.2002 ZZZZ=            -53.1895 XXXY=              3.8992
 XXXZ=              0.3004 YYYX=             12.6397 YYYZ=              0.0062 ZZZX=              0.2248
 ZZZY=              0.9455 XXYY=            -56.0402 XXZZ=            -43.2226 YYZZ=            -36.3600
 XXYZ=              0.5065 YYXZ=              0.7642 ZZXY=              0.6850
 N-N= 1.349642292841D+02 E-N=-7.226188833682D+02  KE= 1.930605792148D+02
 Running external command "gaunbo7 R"
         input file       "/cluster/work/users/beto93/mol128/Gau-2836235.EIn"
         output file      "/cluster/work/users/beto93/mol128/Gau-2836235.EOu"
         message file     "/cluster/work/users/beto93/mol128/Gau-2836235.EMs"
         fchk file        "/cluster/work/users/beto93/mol128/Gau-2836235.EFC"
         mat. el file     "/cluster/work/users/beto93/mol128/Gau-2836235.EUF"

 Writing WrtUnf unformatted file "/cluster/work/users/beto93/mol128/Gau-2836235.EUF"
 Gaussian matrix elements                                         Version   2 NLab=11 Len12L=8 Len4L=8
 Write SHELL TO ATOM MAP                   from file      0 offset           0 length                  32 to matrix element file.
 Write SHELL TYPES                         from file      0 offset           0 length                  32 to matrix element file.
 Write NUMBER OF PRIMITIVES PER SHELL      from file      0 offset           0 length                  32 to matrix element file.
 Write PRIMITIVE EXPONENTS                 from file      0 offset           0 length                  76 to matrix element file.
 Write CONTRACTION COEFFICIENTS            from file      0 offset           0 length                  76 to matrix element file.
 Write P(S=P) CONTRACTION COEFFICIENTS     from file      0 offset           0 length                  76 to matrix element file.
 Write COORDINATES OF EACH SHELL           from file      0 offset           0 length                  96 to matrix element file.
 Write BONDS PER ATOM                      from file      0 offset           0 length                  12 to matrix element file.
 Write BONDED ATOMS                        from file      0 offset           0 length                  22 to matrix element file.
 Write BOND TYPES                          from file      0 offset           0 length                  22 to matrix element file.
 Write ONIOM CHARGE/MULT                   from file      0 offset           0 length                  32 to matrix element file.
 Write ONIOM ATOM LAYERS                   from file      0 offset           0 length                  12 to matrix element file.
 Write ONIOM ATOM MODIFIERS                from file      0 offset           0 length                  12 to matrix element file.
 Write ONIOM ATOM TYPES                    from file      0 offset           0 length                  12 to matrix element file.
 Write ONIOM LINK ATOMS                    from file      0 offset           0 length                  12 to matrix element file.
 Write ONIOM LINK CHARGES                  from file      0 offset           0 length                  12 to matrix element file.
 Write ONIOM LINK DISTANCES                from file      0 offset           0 length                  48 to matrix element file.
 Write SYMINF INTS                         from file      0 offset           0 length                  26 to matrix element file.
 Write ROTTR TO SO                         from file      0 offset           0 length                  12 to matrix element file.
 Write GAUSSIAN SCALARS                    from file    501 offset           0 to matrix element file.
 Write OPTIMIZATION FLAGS                  from file      0 offset           0 length                  12 to matrix element file.
 Write INTEGER ISO                         from file      0 offset           0 length                  12 to matrix element file.
 Write INTEGER SPIN                        from file      0 offset           0 length                  12 to matrix element file.
 Write REAL ZEFFECTIVE                     from file      0 offset           0 length                  12 to matrix element file.
 Write REAL GFACTOR                        from file      0 offset           0 length                  12 to matrix element file.
 Write REAL ZNUCLEAR                       from file      0 offset           0 length                  12 to matrix element file.
 Write MULLIKEN CHARGES                    from file      0 offset           0 length                  12 to matrix element file.
 Write NUCLEAR GRADIENT                    from file  10584 offset           0 length                  36 to matrix element file.
 Array NUCLEAR FORCE CONSTANTS              on  file  10585 does not exist.
 Write ELECTRIC DIPOLE MOMENT              from file      0 offset           0 length                   3 to matrix element file.
 Write NON-ADIABATIC COUPLING              from file  10810 offset           0 length                  36 to matrix element file.
 Write FINITE EM FIELD                     from file  10521 offset           0 length                  35 to matrix element file.
 Write OVERLAP                             from file  10514 offset           0 length                2628 to matrix element file.
 Write CORE HAMILTONIAN ALPHA              from file  10515 offset           0 length                2628 to matrix element file.
 Write CORE HAMILTONIAN BETA               from file  10515 offset        2628 length                2628 to matrix element file.
 Write KINETIC ENERGY                      from file  10516 offset           0 length                2628 to matrix element file.
 Write ORTHOGONAL BASIS                    from file  10685 offset           0 length                5184 to matrix element file.
 Write DIPOLE INTEGRALS                    from file  10518 offset           0 length                7884 to matrix element file.
 Array DIP VEL INTEGRALS                    on  file  10572 does not exist.
 Array R X DEL INTEGRALS                    on  file  10572 does not exist.
 Write ALPHA ORBITAL ENERGIES              from file      0 offset           0 length                  72 to matrix element file.
 Write ALPHA MO COEFFICIENTS               from file  10524 offset           0 length                5184 to matrix element file.
 Write ALPHA DENSITY MATRIX                from file      0 offset           0 length                2628 to matrix element file.
 Write ALPHA FOCK MATRIX                   from file  10536 offset           0 length                2628 to matrix element file.
 Write ENERGY-WEIGHTED DENSITY             from file  10571 offset           0 length                2628 to matrix element file.
 Write ALPHA SCF DENSITY MATRIX            from file      0 offset           0 length                2628 to matrix element file.
 No 2e integrals to process.
 Perform NBO analysis...executing G16NBO...

 *********************************** NBO 7.0 ***********************************
             N A T U R A L   A T O M I C   O R B I T A L   A N D
          N A T U R A L   B O N D   O R B I T A L   A N A L Y S I S
 **************************** Espen Tangen (S101595) ***************************
  (c) Copyright 1996-2021 Board of Regents of the University of Wisconsin System
      on behalf of the Theoretical Chemistry Institute.  All rights reserved.

          Cite this program [NBO 7.0.10 (8-Feb-2021)] as:

          NBO 7.0.  E. D. Glendening, J. K. Badenhoop, A. E. Reed,
          J. E. Carpenter, J. A. Bohmann, C. M. Morales, P. Karafiloglou,
          C. R. Landis, and F. Weinhold, Theoretical Chemistry Institute,
          University of Wisconsin, Madison, WI (2018)

       /NPA    / : Natural Population Analysis
       /AOPNAO / : Print the AO to PNAO transformation
       /AONAO  / : Print the AO to NAO transformation
       /AOMO   / : Print the MOs in the AO basis
       /BOAO   / : Print the AO bond-order matrix
       /DMAO   / : Print the AO density matrix
       /DMPNAO / : Print the PNAO density matrix
       /DMNAO  / : Print the NAO density matrix
       /DMMO   / : Print the MO density matrix
       /SAO    / : Print the AO overlap matrix
       /SPNAO  / : Print the PNAO overlap matrix
       /DETAIL / : Write details of NBO search
       /ARCHIVE/ : Write the archive file to lfn47
       /AOINFO / : Write AO information to lfn31
       /FILE   / : Set to mol128.gen*

 Filename set to mol128.gen1

 Job title: mol128-NBO


 MOs in the AO basis:

           AO          1       2       3       4       5       6       7       8
      ------------ ------- ------- ------- ------- ------- ------- ------- -------
   1.  O 1 (s)      0.9959 -0.0001  0.0000  0.0000 -0.2041  0.0610  0.0031  0.0315
   2.  O 1 (s)      0.0228  0.0001 -0.0002 -0.0002  0.4430 -0.1353 -0.0079 -0.0725
   3.  O 1 (px)     0.0011  0.0000 -0.0001  0.0001  0.0551 -0.0416  0.0526 -0.0849
   4.  O 1 (py)    -0.0008 -0.0001  0.0001  0.0001 -0.0403 -0.0828  0.0123 -0.1928
   5.  O 1 (pz)     0.0009  0.0001  0.0000  0.0000  0.0459  0.0015 -0.0013  0.0786
   6.  O 1 (s)     -0.0113  0.0017  0.0004  0.0003  0.4827 -0.1776 -0.0077 -0.1061
   7.  O 1 (px)    -0.0012 -0.0001  0.0002 -0.0004  0.0361 -0.0237  0.0243 -0.0511
   8.  O 1 (py)     0.0026 -0.0003 -0.0002 -0.0004 -0.0337 -0.0362  0.0049 -0.1126
   9.  O 1 (pz)    -0.0017 -0.0002  0.0000 -0.0001  0.0328 -0.0011 -0.0009  0.0433
  10.  O 1 (d5)     0.0003  0.0002 -0.0001 -0.0001 -0.0087  0.0009 -0.0011  0.0035
  11.  O 1 (d2)    -0.0001  0.0000 -0.0001  0.0001  0.0085 -0.0037  0.0024 -0.0027
  12.  O 1 (d3)     0.0003  0.0005  0.0000  0.0000 -0.0046 -0.0059  0.0009 -0.0136
  13.  O 1 (d4)     0.0003  0.0005  0.0000  0.0000 -0.0003 -0.0089  0.0030 -0.0152
  14.  O 1 (d1)    -0.0002 -0.0001 -0.0001  0.0001  0.0076 -0.0059 -0.0020 -0.0094
  15.  C 2 (s)     -0.0001  0.9963 -0.0050 -0.0046 -0.0731 -0.1217  0.0055 -0.1239
  16.  C 2 (s)     -0.0008  0.0261 -0.0003 -0.0003  0.1440  0.2375 -0.0110  0.2467
  17.  C 2 (px)     0.0001  0.0001  0.0000  0.0000  0.0047 -0.0091  0.1651  0.0028
  18.  C 2 (py)     0.0006  0.0006  0.0000  0.0000  0.0823 -0.0948 -0.0168  0.0656
  19.  C 2 (pz)    -0.0001 -0.0004  0.0000  0.0000 -0.0352 -0.0143  0.0007  0.0952
  20.  C 2 (s)      0.0069 -0.0196  0.0029  0.0028  0.0252  0.1960 -0.0130  0.2740
  21.  C 2 (px)    -0.0001  0.0001  0.0017 -0.0017  0.0078  0.0017  0.0383  0.0133
  22.  C 2 (py)     0.0024  0.0014 -0.0008 -0.0007 -0.0103 -0.0235  0.0002  0.0024
  23.  C 2 (pz)    -0.0017  0.0014 -0.0001  0.0000  0.0140  0.0011  0.0036  0.0473
  24.  C 2 (d5)    -0.0001  0.0000  0.0002  0.0002 -0.0052 -0.0003 -0.0001  0.0120
  25.  C 2 (d2)     0.0000  0.0000  0.0002 -0.0002 -0.0005  0.0011 -0.0107  0.0007
  26.  C 2 (d3)    -0.0001 -0.0001 -0.0001  0.0000 -0.0110  0.0078  0.0015 -0.0047
  27.  C 2 (d4)    -0.0001 -0.0001 -0.0001 -0.0002 -0.0140  0.0118 -0.0017 -0.0060
  28.  C 2 (d1)     0.0001  0.0000  0.0002 -0.0002  0.0017 -0.0023 -0.0137 -0.0021
  29.  H 3 (s)      0.0005  0.0000 -0.0001  0.0001  0.1168 -0.0665  0.0226 -0.0931
  30.  H 3 (s)      0.0015  0.0004  0.0000  0.0003 -0.0093 -0.0096  0.0061 -0.0383
  31.  H 4 (s)     -0.0003  0.0001 -0.0002 -0.0002  0.0265  0.0696 -0.0032  0.1458
  32.  H 4 (s)     -0.0003  0.0028  0.0000  0.0000 -0.0005  0.0085 -0.0027  0.0606
  33.  C 5 (s)      0.0000  0.0044 -0.0015  0.9962 -0.0172 -0.1109  0.1365  0.0804
  34.  C 5 (s)     -0.0001 -0.0003 -0.0005  0.0260  0.0327  0.2117 -0.2586 -0.1498
  35.  C 5 (px)    -0.0002  0.0001 -0.0002  0.0002  0.0193  0.0533  0.0118  0.1079
  36.  C 5 (py)    -0.0002  0.0000  0.0000  0.0000  0.0149  0.0123 -0.0102  0.0702
  37.  C 5 (pz)     0.0000  0.0000  0.0000  0.0000  0.0038  0.0156 -0.0046  0.0621
  38.  C 5 (s)     -0.0014  0.0050  0.0013 -0.0179  0.0329  0.1809 -0.2633 -0.1898
  39.  C 5 (px)    -0.0005  0.0023  0.0008 -0.0008  0.0073  0.0049  0.0066  0.0314
  40.  C 5 (py)    -0.0003  0.0011 -0.0003 -0.0002  0.0068 -0.0053  0.0042  0.0223
  41.  C 5 (pz)     0.0000  0.0005 -0.0003 -0.0001  0.0003  0.0043 -0.0009  0.0217
  42.  C 5 (d5)     0.0000  0.0001  0.0000  0.0000 -0.0019 -0.0017 -0.0012 -0.0058
  43.  C 5 (d2)     0.0000 -0.0002  0.0000  0.0000  0.0012  0.0025  0.0016  0.0082
  44.  C 5 (d3)    -0.0001 -0.0001  0.0000  0.0000  0.0012  0.0006  0.0000  0.0048
  45.  C 5 (d4)    -0.0001 -0.0001  0.0000  0.0000  0.0019  0.0035  0.0025  0.0081
  46.  C 5 (d1)    -0.0001 -0.0002  0.0000  0.0000  0.0035  0.0023  0.0019  0.0089
  47.  C 6 (s)      0.0000  0.0048  0.9962  0.0014 -0.0170 -0.1140 -0.1411  0.0638
  48.  C 6 (s)     -0.0002 -0.0004  0.0260 -0.0005  0.0340  0.2174  0.2656 -0.1177
  49.  C 6 (px)     0.0001 -0.0001 -0.0001  0.0002 -0.0160 -0.0485  0.0219 -0.0896
  50.  C 6 (py)    -0.0002  0.0000  0.0000  0.0000  0.0172  0.0190  0.0028  0.0742
  51.  C 6 (pz)     0.0000  0.0000  0.0000  0.0000  0.0041  0.0160  0.0027  0.0619
  52.  C 6 (s)     -0.0007  0.0051 -0.0178  0.0013  0.0204  0.1857  0.2829 -0.1664
  53.  C 6 (px)     0.0004 -0.0020  0.0006 -0.0009 -0.0044 -0.0038  0.0052 -0.0229
  54.  C 6 (py)    -0.0002  0.0015 -0.0002 -0.0002  0.0056 -0.0025 -0.0010  0.0187
  55.  C 6 (pz)     0.0001  0.0005 -0.0001 -0.0004 -0.0032  0.0026 -0.0002  0.0168
  56.  C 6 (d5)     0.0000  0.0001  0.0000  0.0000 -0.0018 -0.0017  0.0013 -0.0052
  57.  C 6 (d2)    -0.0001  0.0002  0.0000  0.0000 -0.0010 -0.0022  0.0021 -0.0066
  58.  C 6 (d3)    -0.0001 -0.0001  0.0000  0.0000  0.0014  0.0010 -0.0006  0.0053
  59.  C 6 (d4)     0.0000  0.0000  0.0000  0.0000  0.0008  0.0023 -0.0020  0.0040
  60.  C 6 (d1)     0.0001  0.0002  0.0000  0.0000 -0.0037 -0.0033  0.0032 -0.0101
  61.  H 7 (s)      0.0000 -0.0003 -0.0001  0.0001  0.0068  0.0630 -0.0901 -0.0963
  62.  H 7 (s)      0.0000  0.0001 -0.0004  0.0033  0.0007  0.0099 -0.0204 -0.0413
  63.  H 8 (s)      0.0000 -0.0003  0.0001 -0.0001  0.0072  0.0652  0.0943 -0.0832
  64.  H 8 (s)      0.0000  0.0000  0.0032 -0.0004 -0.0005  0.0097  0.0207 -0.0384
  65.  H 9 (s)      0.0000 -0.0002  0.0000  0.0000  0.0068  0.0582 -0.0997 -0.0738
  66.  H 9 (s)      0.0000  0.0001  0.0005  0.0030  0.0009  0.0070 -0.0256 -0.0318
  67.  H10 (s)      0.0000 -0.0002  0.0000  0.0000  0.0068  0.0609  0.1061 -0.0641
  68.  H10 (s)     -0.0004  0.0000  0.0030  0.0005  0.0050  0.0085  0.0313 -0.0299
  69.  H11 (s)      0.0000 -0.0002 -0.0001  0.0000  0.0048  0.0656 -0.0903 -0.0906
  70.  H11 (s)      0.0003  0.0002 -0.0003  0.0031 -0.0024  0.0075 -0.0191 -0.0444
  71.  H12 (s)     -0.0001 -0.0002  0.0000 -0.0001  0.0052  0.0683  0.0954 -0.0727
  72.  H12 (s)      0.0003  0.0002  0.0032 -0.0003 -0.0011  0.0098  0.0228 -0.0358

           AO          9      10      11      12      13      14      15      16
      ------------ ------- ------- ------- ------- ------- ------- ------- -------
   1.  O 1 (s)      0.0246  0.0228  0.0357 -0.0217 -0.0253  0.0073 -0.0114 -0.0285
   2.  O 1 (s)     -0.0618 -0.0564 -0.0846  0.0511  0.0580 -0.0210  0.0323  0.0696
   3.  O 1 (px)     0.2461  0.2605  0.1622 -0.0912 -0.0822 -0.0327 -0.2005 -0.2172
   4.  O 1 (py)     0.2540 -0.0284 -0.1953 -0.0494 -0.0780 -0.1798  0.2295  0.0921
   5.  O 1 (pz)     0.1333 -0.1102  0.1087 -0.1408 -0.1883  0.3242  0.0570 -0.1258
   6.  O 1 (s)     -0.0870 -0.0813 -0.1383  0.0924  0.1156 -0.0211  0.0305  0.1228
   7.  O 1 (px)     0.1519  0.1750  0.1102 -0.0652 -0.0636 -0.0263 -0.1541 -0.1726
   8.  O 1 (py)     0.1517 -0.0258 -0.1364 -0.0346 -0.0613 -0.1344  0.1796  0.0840
   9.  O 1 (pz)     0.0851 -0.0715  0.0740 -0.1030 -0.1400  0.2418  0.0391 -0.1053
  10.  O 1 (d5)     0.0007 -0.0123 -0.0024 -0.0017 -0.0036  0.0097  0.0102  0.0069
  11.  O 1 (d2)     0.0163  0.0059  0.0087 -0.0074 -0.0111  0.0096 -0.0040 -0.0107
  12.  O 1 (d3)     0.0067  0.0045 -0.0096  0.0004 -0.0002 -0.0143  0.0060  0.0029
  13.  O 1 (d4)     0.0219  0.0092  0.0005 -0.0060 -0.0071 -0.0085 -0.0008 -0.0062
  14.  O 1 (d1)     0.0099 -0.0047 -0.0122 -0.0044 -0.0055 -0.0076  0.0119 -0.0033
  15.  C 2 (s)     -0.0142 -0.0294  0.0051  0.0065  0.0076  0.0145 -0.0030  0.0071
  16.  C 2 (s)      0.0247  0.0623 -0.0082 -0.0138 -0.0140 -0.0302  0.0015 -0.0257
  17.  C 2 (px)     0.0597  0.1276  0.1402  0.1201  0.0206  0.0419 -0.1045  0.3015
  18.  C 2 (py)    -0.1071 -0.1367  0.1759 -0.0164 -0.0081  0.2139 -0.0670 -0.0126
  19.  C 2 (pz)     0.2415 -0.1714 -0.0063 -0.0269 -0.0352  0.0241  0.1138  0.1683
  20.  C 2 (s)      0.0533  0.0666 -0.0497 -0.0186 -0.0305 -0.0704  0.0459  0.0291
  21.  C 2 (px)     0.0438  0.0617  0.0894  0.0425  0.0017  0.0431 -0.0634  0.1280
  22.  C 2 (py)    -0.0289 -0.0623  0.0745 -0.0086 -0.0168  0.0992 -0.0121  0.0083
  23.  C 2 (pz)     0.1029 -0.0695  0.0142 -0.0224 -0.0237  0.0380  0.0554  0.0747
  24.  C 2 (d5)     0.0119 -0.0042 -0.0017 -0.0030 -0.0038 -0.0039  0.0123  0.0194
  25.  C 2 (d2)    -0.0031 -0.0061 -0.0054  0.0060 -0.0074 -0.0008  0.0073 -0.0095
  26.  C 2 (d3)     0.0134  0.0059 -0.0089 -0.0071 -0.0088 -0.0054  0.0126  0.0022
  27.  C 2 (d4)     0.0086  0.0046 -0.0029 -0.0018  0.0001 -0.0293  0.0081 -0.0019
  28.  C 2 (d1)     0.0056  0.0045  0.0021 -0.0086  0.0031  0.0021  0.0025 -0.0238
  29.  H 3 (s)      0.1855  0.0857  0.0251 -0.0696 -0.0793 -0.0223 -0.0167 -0.0981
  30.  H 3 (s)      0.0883  0.0420  0.0062 -0.0408 -0.0463 -0.0306  0.0032 -0.0756
  31.  H 4 (s)      0.1434 -0.0748 -0.0034 -0.0234 -0.0302  0.0010  0.0794  0.1181
  32.  H 4 (s)      0.0855 -0.0617 -0.0063 -0.0188 -0.0273  0.0020  0.0770  0.1248
  33.  C 5 (s)     -0.0131  0.0007 -0.0170 -0.0006  0.0026  0.0050 -0.0025  0.0244
  34.  C 5 (s)      0.0185 -0.0030  0.0262 -0.0012 -0.0067 -0.0123  0.0039 -0.0473
  35.  C 5 (px)    -0.0423  0.1351 -0.1881  0.0042 -0.0063 -0.0075  0.1908 -0.2805
  36.  C 5 (py)    -0.0932 -0.1090  0.0354 -0.1024 -0.2501 -0.2752 -0.0848 -0.0735
  37.  C 5 (pz)     0.0923 -0.1128 -0.0729 -0.1674  0.2865 -0.0926 -0.1547 -0.0988
  38.  C 5 (s)      0.0538  0.0063  0.0978 -0.0003 -0.0163  0.0138 -0.0069 -0.1083
  39.  C 5 (px)    -0.0104  0.0634 -0.0755  0.0095 -0.0005  0.0200  0.1132 -0.1603
  40.  C 5 (py)    -0.0331 -0.0535  0.0158 -0.0500 -0.1252 -0.1552 -0.0540 -0.0222
  41.  C 5 (pz)     0.0415 -0.0540 -0.0242 -0.0955  0.1592 -0.0499 -0.1027 -0.0617
  42.  C 5 (d5)    -0.0035  0.0068  0.0053  0.0128 -0.0228  0.0078  0.0167  0.0081
  43.  C 5 (d2)     0.0021  0.0030 -0.0082  0.0008 -0.0011  0.0011  0.0105 -0.0090
  44.  C 5 (d3)    -0.0032 -0.0061  0.0030 -0.0053 -0.0165 -0.0117 -0.0021 -0.0015
  45.  C 5 (d4)    -0.0048  0.0015 -0.0018 -0.0052 -0.0172 -0.0187 -0.0026 -0.0061
  46.  C 5 (d1)    -0.0027  0.0089 -0.0090  0.0027  0.0057  0.0091  0.0134 -0.0161
  47.  C 6 (s)      0.0130  0.0206  0.0015  0.0026  0.0000  0.0050  0.0045 -0.0144
  48.  C 6 (s)     -0.0231 -0.0344 -0.0009 -0.0043 -0.0009 -0.0058 -0.0066  0.0283
  49.  C 6 (px)    -0.0113 -0.2263  0.1532  0.0373  0.0623 -0.0022  0.1611 -0.2100
  50.  C 6 (py)    -0.0006  0.1333  0.2478  0.0006  0.1320 -0.1585  0.1786  0.0661
  51.  C 6 (pz)     0.1200 -0.0562 -0.0030  0.3685 -0.0147 -0.0716 -0.1030 -0.0762
  52.  C 6 (s)     -0.0527 -0.0761 -0.0114 -0.0129  0.0008 -0.0175 -0.0168  0.0494
  53.  C 6 (px)    -0.0029 -0.0974  0.0740  0.0257  0.0395 -0.0096  0.0950 -0.1199
  54.  C 6 (py)    -0.0052  0.0648  0.1252  0.0072  0.0874 -0.1007  0.0952  0.0275
  55.  C 6 (pz)     0.0479 -0.0370 -0.0085  0.2128 -0.0087 -0.0453 -0.0520 -0.0387
  56.  C 6 (d5)    -0.0062  0.0021 -0.0015 -0.0300 -0.0006  0.0059  0.0086  0.0139
  57.  C 6 (d2)    -0.0043 -0.0074  0.0074  0.0024  0.0028 -0.0003  0.0059 -0.0117
  58.  C 6 (d3)     0.0016  0.0054  0.0131 -0.0030  0.0059 -0.0063  0.0119  0.0060
  59.  C 6 (d4)    -0.0001  0.0067  0.0127 -0.0016  0.0091 -0.0131  0.0188 -0.0034
  60.  C 6 (d1)     0.0011 -0.0149  0.0062  0.0028  0.0036 -0.0011  0.0113 -0.0130
  61.  H 7 (s)     -0.0407  0.0682  0.0604  0.1099 -0.1885  0.0654  0.1120  0.0579
  62.  H 7 (s)     -0.0295  0.0441  0.0388  0.0843 -0.1466  0.0502  0.0950  0.0739
  63.  H 8 (s)     -0.0789  0.0134 -0.0050 -0.2464  0.0028  0.0500  0.0668  0.0742
  64.  H 8 (s)     -0.0485  0.0107 -0.0070 -0.1873  0.0016  0.0367  0.0641  0.0796
  65.  H 9 (s)      0.0138 -0.1224  0.1005 -0.0744 -0.0354 -0.1272 -0.1644  0.0815
  66.  H 9 (s)      0.0037 -0.0883  0.0648 -0.0535 -0.0260 -0.0989 -0.1260  0.0902
  67.  H10 (s)      0.0064 -0.1120  0.1493  0.0942  0.0719 -0.0699  0.1295 -0.1211
  68.  H10 (s)      0.0125 -0.0748  0.1229  0.0727  0.0550 -0.0583  0.1130 -0.1358
  69.  H11 (s)      0.0805  0.0244 -0.0113  0.0248  0.2283  0.1524 -0.0014  0.0205
  70.  H11 (s)      0.0525  0.0135 -0.0220  0.0268  0.2009  0.1339 -0.0041  0.0382
  71.  H12 (s)      0.0149 -0.1032 -0.1502  0.0879 -0.0857  0.0857 -0.1548 -0.0475
  72.  H12 (s)      0.0125 -0.0679 -0.1117  0.0777 -0.0602  0.0768 -0.1433 -0.0525

           AO         17      18      19      20      21      22      23      24
      ------------ ------- ------- ------- ------- ------- ------- ------- -------
   1.  O 1 (s)      0.0004 -0.0504  0.0471 -0.0220 -0.0100  0.0248  0.0007 -0.0040
   2.  O 1 (s)      0.0019  0.0822 -0.0570  0.0485  0.0485 -0.0267 -0.0101 -0.0007
   3.  O 1 (px)    -0.2156  0.1455 -0.1330  0.0630 -0.0534 -0.0337  0.0184  0.0560
   4.  O 1 (py)     0.1733  0.0437 -0.0078 -0.0374 -0.0925 -0.0832  0.0352 -0.0143
   5.  O 1 (pz)     0.3869  0.0313 -0.1087  0.0180 -0.0122 -0.0395 -0.0412  0.0073
   6.  O 1 (s)     -0.0175  0.5834 -0.6581  0.1852 -0.0738 -0.4132  0.0729  0.1222
   7.  O 1 (px)    -0.1807  0.3377 -0.3033  0.1230 -0.1427 -0.1098  0.0377  0.0599
   8.  O 1 (py)     0.1513  0.1534 -0.0525  0.0100 -0.1558 -0.1192  0.0201 -0.0314
   9.  O 1 (pz)     0.3247  0.0662 -0.1937  0.1053 -0.0633 -0.1240 -0.1209  0.0412
  10.  O 1 (d5)     0.0134 -0.0030 -0.0015  0.0010  0.0043  0.0006 -0.0066 -0.0031
  11.  O 1 (d2)     0.0082  0.0072 -0.0087  0.0033 -0.0026 -0.0040 -0.0024  0.0059
  12.  O 1 (d3)     0.0011 -0.0010 -0.0028  0.0033 -0.0038 -0.0009 -0.0033 -0.0001
  13.  O 1 (d4)    -0.0049  0.0077 -0.0108  0.0042 -0.0030 -0.0012  0.0003  0.0025
  14.  O 1 (d1)     0.0075  0.0016  0.0017 -0.0014 -0.0027  0.0008 -0.0020  0.0126
  15.  C 2 (s)     -0.0049 -0.0340 -0.0178  0.0515 -0.0193 -0.0139 -0.0868 -0.0054
  16.  C 2 (s)      0.0179  0.0006  0.0568 -0.0358 -0.0008  0.0108  0.0574  0.0000
  17.  C 2 (px)     0.1117  0.0051  0.0011 -0.0189  0.0244 -0.0873 -0.0040 -0.0073
  18.  C 2 (py)    -0.1070 -0.0512  0.0994 -0.0668 -0.0748  0.0212 -0.0259 -0.0279
  19.  C 2 (pz)    -0.2231  0.1183 -0.0079 -0.1543  0.0928  0.0654  0.1536 -0.0042
  20.  C 2 (s)     -0.0036  0.7636  0.1248 -0.9389  0.4807  0.2727  1.7201  0.1584
  21.  C 2 (px)     0.0454 -0.0298  0.0722 -0.1238  0.3367 -0.5545 -0.0930  0.3026
  22.  C 2 (py)    -0.0124 -0.0805  0.2353  0.1237  0.0157  0.1816 -0.2305 -0.2441
  23.  C 2 (pz)    -0.1070  0.2636  0.1513 -0.5993  0.2432  0.1385  1.0059  0.0205
  24.  C 2 (d5)    -0.0342 -0.0040  0.0062  0.0078 -0.0051 -0.0050  0.0080  0.0015
  25.  C 2 (d2)    -0.0030 -0.0030  0.0044 -0.0028  0.0042 -0.0031 -0.0026  0.0217
  26.  C 2 (d3)     0.0129 -0.0037  0.0071  0.0055 -0.0031 -0.0048  0.0085 -0.0023
  27.  C 2 (d4)     0.0008 -0.0022  0.0081 -0.0206 -0.0169 -0.0035 -0.0021 -0.0009
  28.  C 2 (d1)    -0.0159  0.0035 -0.0037  0.0032 -0.0015 -0.0022  0.0025 -0.0114
  29.  H 3 (s)      0.0031 -0.0509  0.0434 -0.0184 -0.0048  0.0484 -0.0037  0.0348
  30.  H 3 (s)      0.0021 -0.9696  0.8938 -0.3220  0.2643  0.6245 -0.0804 -0.0896
  31.  H 4 (s)     -0.1840  0.0108  0.0316  0.0475 -0.0164 -0.0196  0.0201  0.0046
  32.  H 4 (s)     -0.2019 -0.6080 -0.1325  1.2861 -0.5880 -0.4533 -1.5529 -0.0093
  33.  C 5 (s)     -0.0041 -0.0480 -0.0763  0.0154 -0.0388  0.0903  0.0586  0.0119
  34.  C 5 (s)      0.0072  0.0405  0.0400 -0.0291  0.0003 -0.0438 -0.0328 -0.0063
  35.  C 5 (px)    -0.0163 -0.0371 -0.0791  0.0709 -0.0531  0.0465  0.0312  0.0165
  36.  C 5 (py)     0.0316 -0.0483 -0.0315 -0.1079 -0.1448 -0.0283  0.0051  0.1908
  37.  C 5 (pz)     0.0800  0.0051 -0.0773 -0.1102  0.0697  0.1111 -0.0983 -0.1736
  38.  C 5 (s)      0.0298  0.6739  1.5052 -0.1692  0.9443 -1.7306 -1.0467 -0.1729
  39.  C 5 (px)     0.0001 -0.2566 -0.3021  0.3419 -0.0437 -0.0142  0.0687  0.0128
  40.  C 5 (py)     0.0083 -0.2197  0.0067 -0.5381 -0.5625 -0.2113 -0.0256  0.9234
  41.  C 5 (pz)     0.0413 -0.0109 -0.3896 -0.2402  0.1997  0.4305 -0.7855 -0.8386
  42.  C 5 (d5)    -0.0128  0.0064 -0.0056 -0.0041 -0.0058  0.0048 -0.0047 -0.0118
  43.  C 5 (d2)    -0.0047  0.0069 -0.0004 -0.0060  0.0000  0.0027  0.0076 -0.0002
  44.  C 5 (d3)    -0.0008  0.0026 -0.0018  0.0016  0.0027  0.0010  0.0053 -0.0063
  45.  C 5 (d4)     0.0046  0.0036 -0.0073  0.0095  0.0072 -0.0054  0.0044 -0.0024
  46.  C 5 (d1)    -0.0049 -0.0015  0.0101 -0.0080 -0.0065  0.0047 -0.0053  0.0023
  47.  C 6 (s)     -0.0276 -0.0644 -0.0557 -0.0352  0.0631 -0.0887  0.0324 -0.0002
  48.  C 6 (s)      0.0564  0.0422  0.0391 -0.0027 -0.0317  0.0445 -0.0223  0.0077
  49.  C 6 (px)    -0.1570  0.1019  0.0036 -0.0453 -0.1241  0.0389 -0.0315  0.0077
  50.  C 6 (py)     0.1563 -0.0364 -0.0660 -0.1080 -0.1699 -0.1260  0.0013 -0.1487
  51.  C 6 (pz)     0.1017  0.0112 -0.0881 -0.1244  0.0837  0.0748 -0.1484  0.1174
  52.  C 6 (s)      0.1341  1.0578  1.0409  0.8216 -1.1907  1.7769 -0.5211 -0.1212
  53.  C 6 (px)    -0.1050  0.4638  0.0562 -0.3402 -0.4360 -0.0676 -0.1488  0.0845
  54.  C 6 (py)     0.0558 -0.1854 -0.1742 -0.4844 -0.8197 -0.3720  0.0264 -0.7595
  55.  C 6 (pz)     0.0700 -0.0160 -0.3990 -0.3270  0.2940  0.2483 -1.0617  0.5725
  56.  C 6 (d5)    -0.0104  0.0026 -0.0019 -0.0081  0.0039 -0.0035 -0.0092  0.0128
  57.  C 6 (d2)    -0.0029 -0.0038 -0.0023  0.0076 -0.0024  0.0010 -0.0071 -0.0019
  58.  C 6 (d3)     0.0047  0.0023  0.0002 -0.0007  0.0053  0.0006  0.0057  0.0060
  59.  C 6 (d4)     0.0093  0.0056 -0.0123  0.0144  0.0051  0.0000  0.0053  0.0079
  60.  C 6 (d1)    -0.0071 -0.0009 -0.0055  0.0043  0.0033  0.0022  0.0030  0.0019
  61.  H 7 (s)     -0.0666  0.0277 -0.0236 -0.0121 -0.0235  0.0239 -0.0220 -0.0521
  62.  H 7 (s)     -0.0952 -0.1967 -1.0295 -0.4307 -0.0572  1.2682 -0.3758 -1.0092
  63.  H 8 (s)     -0.0602  0.0138 -0.0087 -0.0302  0.0183 -0.0202 -0.0461  0.0562
  64.  H 8 (s)     -0.0973 -0.3376 -0.8767 -0.9316  0.8693 -0.3367 -0.9377  0.7962
  65.  H 9 (s)      0.0533 -0.0059 -0.0316  0.0362  0.0377 -0.0355  0.0252  0.0053
  66.  H 9 (s)      0.0750 -0.3566 -0.7327  0.9765  0.0112  0.5302  0.7965 -0.1807
  67.  H10 (s)      0.0054  0.0066 -0.0412  0.0564  0.0101  0.0215  0.0351  0.0023
  68.  H10 (s)      0.0000 -0.7442 -0.2811  0.5936  1.2519 -0.4719  0.7840  0.1420
  69.  H11 (s)      0.0037 -0.0170  0.0462 -0.0305 -0.0257  0.0100 -0.0189  0.0510
  70.  H11 (s)     -0.0037 -0.5934 -0.3675 -0.3452 -1.1892  0.2455  0.6464  1.5852
  71.  H12 (s)     -0.0525 -0.0205  0.0483 -0.0351 -0.0306  0.0026 -0.0076 -0.0699
  72.  H12 (s)     -0.0861 -0.6339 -0.3550 -0.7041 -0.7306 -1.2912  0.6077 -1.2155

           AO         25      26      27      28      29      30      31      32
      ------------ ------- ------- ------- ------- ------- ------- ------- -------
   1.  O 1 (s)      0.0215 -0.0113  0.0522 -0.0260  0.0031 -0.0055 -0.0087  0.0085
   2.  O 1 (s)     -0.0299  0.0157 -0.0464  0.0262  0.0234  0.0282 -0.0262 -0.1195
   3.  O 1 (px)    -0.0273 -0.0735  0.0318 -0.0803 -0.0282 -0.0111 -0.1467  0.0310
   4.  O 1 (py)     0.0055 -0.1055  0.2454 -0.1121 -0.0495  0.0466  0.1704  0.0930
   5.  O 1 (pz)    -0.0456  0.0816 -0.0651  0.0403  0.0162 -0.0034  0.0767  0.1996
   6.  O 1 (s)     -0.3374  0.1866 -0.9985  0.5113 -0.1991  0.0406  0.3971  0.3611
   7.  O 1 (px)    -0.0963 -0.1435  0.0304 -0.3447 -0.0029 -0.1853  0.0956 -0.0130
   8.  O 1 (py)     0.0712 -0.2631  0.8477 -0.4284  0.0282 -0.0211 -0.0575 -0.1566
   9.  O 1 (pz)    -0.1188  0.2417 -0.1700  0.1416 -0.0619 -0.0001  0.0810  0.0621
  10.  O 1 (d5)     0.0009 -0.0029  0.0079  0.0012  0.0102  0.0011 -0.0101 -0.0144
  11.  O 1 (d2)    -0.0039  0.0002  0.0039  0.0128  0.0012  0.0192 -0.0126  0.0103
  12.  O 1 (d3)     0.0016 -0.0023  0.0095 -0.0056  0.0227 -0.0040 -0.0245  0.0371
  13.  O 1 (d4)     0.0011 -0.0135  0.0002 -0.0055 -0.0137 -0.0104 -0.0518  0.0205
  14.  O 1 (d1)    -0.0044  0.0038  0.0063 -0.0067  0.0026  0.0104 -0.0569  0.0108
  15.  C 2 (s)     -0.0125 -0.0685 -0.1169  0.0420 -0.0057 -0.0023 -0.0179  0.0040
  16.  C 2 (s)      0.0130  0.0189  0.0860 -0.0436  0.0736  0.0315  0.1502 -0.0887
  17.  C 2 (px)     0.0636 -0.0614  0.1625  0.3092  0.0502 -0.3999  0.1074 -0.0318
  18.  C 2 (py)     0.0464 -0.2475  0.1151 -0.1323 -0.1136  0.0221  0.2686 -0.1055
  19.  C 2 (pz)     0.0213 -0.1551 -0.2085  0.0480 -0.0556 -0.0398 -0.0335  0.1338
  20.  C 2 (s)      0.1614  1.9026  2.3214 -0.7742 -0.3492 -0.0901 -0.4247 -0.2805
  21.  C 2 (px)     0.0927 -0.5054  0.8946  2.0879 -0.0876  0.9595 -0.2006  0.0439
  22.  C 2 (py)     0.3765 -1.7165  0.7892 -0.8319  0.4761  0.0191 -0.6706 -0.5642
  23.  C 2 (pz)     0.1233 -0.8988 -1.3176  0.4222  0.2119  0.0778 -0.0120 -0.0410
  24.  C 2 (d5)    -0.0002 -0.0003  0.0018 -0.0031  0.0398  0.0037  0.0309  0.0750
  25.  C 2 (d2)     0.0130  0.0004  0.0014  0.0056 -0.0074  0.0699  0.0284 -0.0003
  26.  C 2 (d3)     0.0013 -0.0083  0.0158 -0.0084 -0.0055  0.0000  0.0044  0.0048
  27.  C 2 (d4)    -0.0001 -0.0032  0.0125 -0.0037 -0.0448  0.0123  0.0048 -0.0165
  28.  C 2 (d1)     0.0080 -0.0030  0.0030  0.0061 -0.0063  0.0692  0.0787 -0.0068
  29.  H 3 (s)      0.0065  0.0311 -0.0168  0.0155  0.0095  0.0086 -0.2705  0.1309
  30.  H 3 (s)      0.2277  0.5794 -0.4153  0.2896  0.1243 -0.0829  0.1302 -0.1982
  31.  H 4 (s)     -0.0033  0.0106  0.0314 -0.0314  0.1545  0.0002  0.0491  0.3205
  32.  H 4 (s)     -0.2724  0.5693  0.3934 -0.0517 -0.0856 -0.0104  0.0233 -0.0735
  33.  C 5 (s)     -0.0075  0.0542  0.0209 -0.0392  0.0035  0.0018 -0.0026  0.0081
  34.  C 5 (s)      0.0228  0.0129  0.0333 -0.0293 -0.1453  0.0533  0.0891 -0.0440
  35.  C 5 (px)     0.1967 -0.0784  0.0459  0.1006 -0.4259  0.2595  0.1254 -0.1228
  36.  C 5 (py)    -0.1640 -0.0813  0.0206  0.0216  0.2022  0.1215  0.2299 -0.4291
  37.  C 5 (pz)    -0.0993 -0.0633  0.0906  0.0793  0.1494  0.4091 -0.2226  0.2287
  38.  C 5 (s)      0.0149 -1.4657 -0.4814  1.1249  0.4607  0.4291 -0.2880 -0.1194
  39.  C 5 (px)     0.9068 -1.3638 -0.2626  1.0630  0.5818 -0.3243 -0.2739  0.1156
  40.  C 5 (py)    -0.7731 -0.3645 -0.2114  1.0321 -0.4302 -0.0774 -0.3233  1.0146
  41.  C 5 (pz)    -0.5618 -0.3269  0.5913  0.6520 -0.3170 -0.5077  0.4200 -0.5955
  42.  C 5 (d5)    -0.0062 -0.0006 -0.0096  0.0076 -0.0506 -0.0699  0.0329 -0.0555
  43.  C 5 (d2)    -0.0039  0.0101 -0.0153 -0.0033 -0.0278  0.0199 -0.0289 -0.0067
  44.  C 5 (d3)     0.0016 -0.0073 -0.0044 -0.0186  0.0277  0.0026  0.0149 -0.0647
  45.  C 5 (d4)    -0.0058  0.0151  0.0035  0.0008  0.0382  0.0356  0.0487 -0.0398
  46.  C 5 (d1)    -0.0008  0.0077  0.0159 -0.0202 -0.0451  0.0150 -0.0200  0.0080
  47.  C 6 (s)      0.0095  0.0390  0.0552  0.0214  0.0046  0.0014  0.0145  0.0063
  48.  C 6 (s)     -0.0371  0.0155  0.0346 -0.0022 -0.1142 -0.0985 -0.1831 -0.0220
  49.  C 6 (px)     0.1773  0.0784  0.0130  0.1317  0.3798  0.3449  0.2967  0.0093
  50.  C 6 (py)     0.0661  0.0014 -0.0523 -0.0496  0.1904 -0.0766 -0.5516 -0.3420
  51.  C 6 (pz)     0.1279 -0.0192 -0.0062 -0.1208  0.2355 -0.3858  0.1211  0.1281
  52.  C 6 (s)      0.1266 -1.0363 -1.2981 -0.7042  0.5156 -0.2500  0.0791 -0.2308
  53.  C 6 (px)     0.6363  1.2729  0.7768  0.8618 -0.5428 -0.4945 -0.3064  0.0946
  54.  C 6 (py)     0.2862  0.0056 -1.2379 -0.6346 -0.3802 -0.0743  1.0196  0.8159
  55.  C 6 (pz)     0.5762 -0.0478 -0.0840 -0.8794 -0.4216  0.4605 -0.3457 -0.4299
  56.  C 6 (d5)    -0.0004  0.0006 -0.0162  0.0033 -0.0668  0.0539 -0.0425 -0.0352
  57.  C 6 (d2)    -0.0002 -0.0121  0.0088 -0.0169  0.0246  0.0299 -0.0140  0.0059
  58.  C 6 (d3)     0.0028 -0.0103  0.0079  0.0155  0.0256  0.0060 -0.0428 -0.0554
  59.  C 6 (d4)    -0.0004  0.0149 -0.0064  0.0009  0.0590 -0.0136 -0.0592 -0.0204
  60.  C 6 (d1)    -0.0028 -0.0093 -0.0299 -0.0033  0.0247  0.0279  0.0070  0.0053
  61.  H 7 (s)     -0.0341 -0.0114 -0.0383  0.0584 -0.2127 -0.3119  0.1357 -0.2530
  62.  H 7 (s)     -0.7676 -0.0275  0.6452  0.5162 -0.0712  0.1144  0.0565 -0.0501
  63.  H 8 (s)      0.0066 -0.0028 -0.0740 -0.0096 -0.2802  0.2591 -0.1336 -0.1767
  64.  H 8 (s)      0.7875  0.2043  0.1052 -0.7398 -0.0372 -0.1062  0.0244 -0.0639
  65.  H 9 (s)      0.0339 -0.0420 -0.0209  0.0494  0.3436  0.0762  0.1109 -0.0164
  66.  H 9 (s)      1.6391 -0.0502 -0.0586 -0.0385 -0.1834 -0.0844 -0.1065 -0.0619
  67.  H10 (s)     -0.0288 -0.0386 -0.0471 -0.0441  0.3626  0.0124 -0.0238  0.0053
  68.  H10 (s)     -1.2073 -0.5866  0.2897 -0.2009 -0.2096  0.0767  0.0268 -0.0538
  69.  H11 (s)      0.0214 -0.0508  0.0494  0.0241 -0.1325 -0.0385 -0.2624  0.4220
  70.  H11 (s)     -0.5074 -0.1049 -0.0482  0.2803 -0.0572 -0.0441  0.0646  0.2486
  71.  H12 (s)      0.0041 -0.0351  0.0110 -0.0654 -0.1491 -0.0308  0.3712  0.3102
  72.  H12 (s)      0.1557  0.2779 -0.4380 -0.0983 -0.0428 -0.0171  0.0443  0.2732

           AO         33      34      35      36      37      38      39      40
      ------------ ------- ------- ------- ------- ------- ------- ------- -------
   1.  O 1 (s)     -0.0301  0.0129  0.0016 -0.0029 -0.0080 -0.0027  0.0246 -0.0104
   2.  O 1 (s)      0.1673  0.0412 -0.1096  0.0444  0.0434  0.0385 -0.1991  0.0792
   3.  O 1 (px)    -0.0303  0.0054  0.1232 -0.0800 -0.1125 -0.3970 -0.2367  0.0743
   4.  O 1 (py)    -0.1499 -0.1139  0.1426  0.0922  0.0586  0.1682  0.2283 -0.0026
   5.  O 1 (pz)     0.0175  0.0264 -0.1524 -0.0214 -0.0010 -0.2569 -0.0735  0.0399
   6.  O 1 (s)     -0.3692 -0.8396  0.6512 -0.0126  0.0059  0.2018  0.2428 -0.0172
   7.  O 1 (px)     0.0037  0.0406 -0.0279 -0.2977  0.1530  0.0779  0.0763  0.0929
   8.  O 1 (py)    -0.0327  0.3867 -0.3183 -0.0918 -0.0301 -0.5940 -0.3198 -0.0087
   9.  O 1 (pz)    -0.0719 -0.0689 -0.0681  0.0214  0.0007  0.1291  0.1149  0.0017
  10.  O 1 (d5)     0.0450  0.0327 -0.0388 -0.0049  0.0050 -0.0911 -0.0116  0.0092
  11.  O 1 (d2)     0.0000  0.0054 -0.0090  0.0109 -0.0232  0.0555  0.0373 -0.0172
  12.  O 1 (d3)     0.0531  0.0677 -0.0174  0.0010 -0.0015  0.0361 -0.0107 -0.0116
  13.  O 1 (d4)     0.0801  0.0683 -0.0246  0.0091 -0.0031  0.0319  0.0679 -0.0212
  14.  O 1 (d1)    -0.0436 -0.0248 -0.0095  0.0551  0.0005  0.0782  0.0492  0.0061
  15.  C 2 (s)      0.0562 -0.0528 -0.0225 -0.0052 -0.0038  0.0162 -0.0294 -0.0010
  16.  C 2 (s)     -0.3743  0.0638  0.4179  0.0184  0.0414 -0.1305  0.2501  0.2478
  17.  C 2 (px)    -0.0491  0.0638 -0.0562 -0.9235 -0.3690  0.2261  0.0871  0.0523
  18.  C 2 (py)    -0.6824 -0.7271 -0.2159  0.0011 -0.0454 -0.0532  0.1016 -0.0253
  19.  C 2 (pz)     0.0890  0.1914 -0.7927  0.0248 -0.0328 -0.4407  0.6275  0.0873
  20.  C 2 (s)      0.5723 -0.1324 -1.4833 -0.1701 -0.1549 -0.2427 -0.9908 -0.4433
  21.  C 2 (px)     0.1157 -0.1998  0.1562  2.8870 -0.0504 -0.4491 -0.1272 -0.4690
  22.  C 2 (py)     1.0233  1.6330  0.2251 -0.0140  0.1531  0.1360 -0.1451 -0.0075
  23.  C 2 (pz)     0.3002 -0.9450  2.5289 -0.1351  0.0930  0.9455 -0.8791 -0.1596
  24.  C 2 (d5)    -0.0663  0.0534 -0.0460  0.0263  0.0026  0.1059 -0.0888 -0.0196
  25.  C 2 (d2)     0.0127  0.0028 -0.0116 -0.0120 -0.0415  0.0347  0.0199 -0.0192
  26.  C 2 (d3)     0.0021 -0.0427 -0.0127  0.0107  0.0072  0.0077  0.0095 -0.0209
  27.  C 2 (d4)     0.0099 -0.0849  0.0123  0.0049 -0.0098  0.1004  0.0570  0.0149
  28.  C 2 (d1)     0.0283  0.0265  0.0049 -0.0528 -0.0647 -0.0381 -0.0250  0.0015
  29.  H 3 (s)     -0.0934  0.0494 -0.0833  0.1755 -0.0700  0.7543  0.4772 -0.1260
  30.  H 3 (s)     -0.1288 -0.2589 -0.0914 -0.2335 -0.0696 -0.4265 -0.4195  0.1092
  31.  H 4 (s)     -0.0583 -0.0078 -0.3917  0.0527 -0.0175  0.3937 -0.5899 -0.0633
  32.  H 4 (s)     -0.0363  0.0705 -0.7391 -0.0139 -0.0291 -0.8713  1.2578  0.2856
  33.  C 5 (s)     -0.0178  0.0211  0.0140  0.0172  0.0363 -0.0027 -0.0257  0.0199
  34.  C 5 (s)      0.1278 -0.0976 -0.1806 -0.2630  0.0290 -0.1890 -0.2226  0.0604
  35.  C 5 (px)     0.3655 -0.3012 -0.2855 -0.1032 -0.5136  0.1081 -0.1472  0.1010
  36.  C 5 (py)     0.2946 -0.0774 -0.2633 -0.2029  0.2583  0.2579 -0.0700 -0.3234
  37.  C 5 (pz)     0.1840 -0.3974  0.1614 -0.4133  0.1484 -0.0901  0.1966 -0.1943
  38.  C 5 (s)      0.2657 -0.0100  0.9610  1.5697 -0.5638  0.4627  0.5548 -0.5111
  39.  C 5 (px)    -0.3430  0.2666  0.7339  0.4242  1.3639  0.0559  0.0060 -0.2220
  40.  C 5 (py)    -0.5070 -0.2362  0.7435  0.7894 -0.8341 -0.5567 -0.1042  0.4160
  41.  C 5 (pz)    -0.3422  1.0135 -0.7189  1.3438 -0.4799  0.1095 -0.2862  0.1180
  42.  C 5 (d5)     0.0003  0.0164 -0.0213  0.0035 -0.0256 -0.0167  0.0295 -0.0717
  43.  C 5 (d2)     0.0228 -0.0087  0.0852  0.0223 -0.0014 -0.0465  0.0200 -0.0228
  44.  C 5 (d3)     0.0233  0.0023  0.0134 -0.0063  0.0760  0.0096  0.0401  0.0483
  45.  C 5 (d4)     0.0250  0.0524  0.0098  0.0720 -0.0140 -0.0363  0.0077  0.0229
  46.  C 5 (d1)    -0.0013  0.0147  0.0384  0.0896 -0.0194  0.0163  0.0194 -0.0847
  47.  C 6 (s)     -0.0097  0.0323  0.0136 -0.0107 -0.0309  0.0139 -0.0170 -0.0074
  48.  C 6 (s)      0.0247 -0.1739 -0.1773  0.1892 -0.0793 -0.0554 -0.1488  0.1460
  49.  C 6 (px)    -0.1460  0.3561  0.2301  0.0071 -0.4884  0.0659  0.1646  0.4179
  50.  C 6 (py)     0.0046 -0.2157 -0.2547  0.2481 -0.2060  0.1052 -0.2200  0.5373
  51.  C 6 (pz)     0.3477 -0.4593  0.2179  0.2506 -0.1815 -0.0732  0.2398  0.2709
  52.  C 6 (s)      0.2809  0.2340  0.8182 -1.4003  0.7351  0.3723  0.3807  0.0720
  53.  C 6 (px)     0.0090 -0.5327 -0.7091  0.1144  1.3312 -0.3230 -0.0460 -0.6767
  54.  C 6 (py)     0.0288  0.0546  0.7056 -1.0124  0.6431  0.1320  0.2525 -0.5935
  55.  C 6 (pz)    -0.7428  1.1937 -0.8678 -0.9195  0.5243  0.1729 -0.3595 -0.2418
  56.  C 6 (d5)    -0.0312  0.0079 -0.0213 -0.0112  0.0194 -0.0116  0.0413  0.0825
  57.  C 6 (d2)    -0.0361  0.0038 -0.0719  0.0434 -0.0202 -0.0066 -0.0354 -0.0728
  58.  C 6 (d3)     0.0016 -0.0004  0.0379  0.0000 -0.0689 -0.0237  0.0353 -0.0719
  59.  C 6 (d4)    -0.0287  0.0414  0.0064 -0.0431  0.0097 -0.0403  0.0115 -0.1022
  60.  C 6 (d1)     0.0022 -0.0470 -0.0210  0.0864 -0.0360 -0.0437 -0.0277 -0.1062
  61.  H 7 (s)     -0.0791  0.1488  0.0463  0.1689  0.0778 -0.0240 -0.0708 -0.2073
  62.  H 7 (s)     -0.2032  0.3551 -0.3500  0.4268 -0.0506  0.0952 -0.4337  0.4010
  63.  H 8 (s)     -0.1953  0.1753  0.0388 -0.1590 -0.0710  0.0799  0.0041  0.2877
  64.  H 8 (s)     -0.2340  0.4502 -0.4019 -0.2328  0.0767  0.1339 -0.4910 -0.4786
  65.  H 9 (s)     -0.0693  0.0026 -0.1452 -0.0922  0.4397  0.0291 -0.2210  0.4750
  66.  H 9 (s)     -0.0190 -0.0991  0.1316 -0.1878  0.8141  0.0557  0.0964 -0.6595
  67.  H10 (s)     -0.1191  0.0327 -0.0469  0.0836 -0.4480 -0.0925 -0.2402 -0.7045
  68.  H10 (s)      0.0969 -0.0094  0.1900  0.2455 -0.7766  0.2554  0.1560  1.3149
  69.  H11 (s)     -0.1297 -0.0284  0.0362 -0.0439  0.0616  0.0632 -0.3296 -0.0648
  70.  H11 (s)      0.0406 -0.0929  0.3493  0.0280 -0.0124 -0.5113  0.0581  0.3967
  71.  H12 (s)      0.1623  0.0305  0.0023  0.0635 -0.0458  0.2379 -0.2989  0.3517
  72.  H12 (s)      0.0460 -0.0801  0.3802 -0.2232  0.0003 -0.2219  0.3171 -0.6504

           AO         41      42      43      44      45      46      47      48
      ------------ ------- ------- ------- ------- ------- ------- ------- -------
   1.  O 1 (s)      0.0225 -0.0004  0.0187  0.0214  0.0186 -0.0018 -0.0088 -0.0559
   2.  O 1 (s)     -0.0529  0.0182 -0.2033 -0.1280 -0.2070  0.0154  0.0347  0.4831
   3.  O 1 (px)    -0.1217  0.0305  0.0512  0.0856  0.0675 -0.0068  0.3783 -0.2129
   4.  O 1 (py)    -0.1765  0.0195  0.0929 -0.0787  0.0440  0.1184 -0.0061  0.6301
   5.  O 1 (pz)    -0.0723  0.0372  0.1105  0.3994  0.0390  0.1028 -0.7368 -0.0150
   6.  O 1 (s)     -0.3136 -0.0890  0.0980 -0.2810  0.1575 -0.0720 -0.0396 -0.4141
   7.  O 1 (px)     0.1188 -0.0971 -0.0059 -0.0848 -0.0389  0.1037 -0.4559  0.5371
   8.  O 1 (py)     0.4499  0.0234 -0.0667  0.3445  0.0128 -0.0854  0.0794 -0.9342
   9.  O 1 (pz)    -0.0070 -0.0579 -0.2577 -0.4979 -0.0730 -0.1330  1.1097  0.1760
  10.  O 1 (d5)    -0.0011  0.0070  0.0162 -0.0247 -0.0009  0.0149 -0.0078  0.0725
  11.  O 1 (d2)     0.0214 -0.0112  0.0002 -0.0046 -0.0002 -0.0268  0.0079 -0.0851
  12.  O 1 (d3)     0.0234  0.0045  0.0075  0.0534  0.0095 -0.0011  0.1037  0.0109
  13.  O 1 (d4)     0.0211 -0.0003  0.0513  0.0118  0.0203  0.0090 -0.0310 -0.0141
  14.  O 1 (d1)     0.0133  0.0036 -0.0111 -0.0197 -0.0179  0.0077 -0.0612 -0.0539
  15.  C 2 (s)     -0.0032  0.0024  0.0007  0.0023 -0.0208 -0.0055 -0.0230  0.0059
  16.  C 2 (s)     -0.1107 -0.0862 -0.8599 -0.7699 -0.3929 -0.1582 -0.6418 -0.0884
  17.  C 2 (px)    -0.0205 -0.0295  0.0282 -0.0334 -0.0088  0.0212 -0.0341  0.0508
  18.  C 2 (py)    -0.0370 -0.0245  0.0922  0.0676  0.0584 -0.0274  0.1249 -0.1273
  19.  C 2 (pz)    -0.1238 -0.0562 -0.2585 -0.2141  0.0533 -0.0186  0.1724  0.0297
  20.  C 2 (s)      0.7213  0.2015  1.4404  1.7675  0.1768  0.0334  1.2884 -0.4929
  21.  C 2 (px)     0.0054  0.1277 -0.1535  0.1139 -0.0227 -0.1141  0.2055 -0.7618
  22.  C 2 (py)     0.3750  0.1163  0.0671  0.2754  0.0480  0.1870 -0.8386 -0.0305
  23.  C 2 (pz)    -0.1927  0.0407  0.8820  0.0767  0.1821  0.1436 -0.8982 -0.0382
  24.  C 2 (d5)     0.0224  0.0139  0.0158  0.0759  0.0070  0.0107  0.1182  0.0759
  25.  C 2 (d2)    -0.0076  0.1063 -0.0128 -0.0101 -0.0001 -0.0402 -0.0114 -0.0438
  26.  C 2 (d3)     0.0313  0.0079  0.0534 -0.0869 -0.0171  0.0138  0.0232  0.0986
  27.  C 2 (d4)    -0.0782 -0.0235 -0.0199  0.0090 -0.0370 -0.0205  0.0101  0.0551
  28.  C 2 (d1)     0.0212 -0.0625  0.0151  0.0059  0.0270 -0.0344  0.0232  0.0260
  29.  H 3 (s)      0.2016 -0.0310  0.0233 -0.0039 -0.0411 -0.1141 -0.1618 -0.5500
  30.  H 3 (s)     -0.3474  0.0095 -0.1006 -0.0982 -0.0127  0.0463  0.1936  0.7796
  31.  H 4 (s)      0.2215  0.0836 -0.0325  0.4238 -0.2310 -0.0274  0.1320  0.1846
  32.  H 4 (s)     -0.1735 -0.1610 -1.0049 -0.8233 -0.0535 -0.1221  0.0132 -0.1419
  33.  C 5 (s)      0.0109  0.0019 -0.0489 -0.0190  0.0021  0.0367 -0.0053  0.0069
  34.  C 5 (s)      0.1035 -0.0219 -0.0183 -0.0974 -1.0099 -1.3936 -0.2018  0.3551
  35.  C 5 (px)     0.2621  0.1065  0.0699 -0.2975  0.0938  0.4268 -0.1072 -0.0140
  36.  C 5 (py)    -0.6186  0.2486 -0.3289  0.1395  0.0254  0.0329 -0.0040 -0.2514
  37.  C 5 (pz)     0.2396 -0.5329 -0.3873  0.2839 -0.0709  0.1341  0.0737  0.0814
  38.  C 5 (s)     -0.3663  0.0916  0.1603  0.0569  1.9407  2.7741 -0.0891 -1.1087
  39.  C 5 (px)    -0.2956 -0.1060 -0.2986  0.1832 -0.2394 -0.7241 -0.3345 -0.1810
  40.  C 5 (py)     0.7553 -0.4716  0.2989 -0.4381 -0.0507 -0.0118 -0.0017  0.4718
  41.  C 5 (pz)    -0.1831  0.9343  0.2869 -0.2324  0.0206 -0.2039  0.0754 -0.1908
  42.  C 5 (d5)     0.0545 -0.1259 -0.0798  0.1175 -0.0204  0.0511  0.0247  0.0238
  43.  C 5 (d2)    -0.0562 -0.0517 -0.0109 -0.0246 -0.0120 -0.0355 -0.0568  0.0011
  44.  C 5 (d3)     0.0946 -0.0422  0.0457 -0.0117 -0.0044 -0.0193 -0.0520 -0.0241
  45.  C 5 (d4)     0.1168 -0.0451  0.0261  0.0074 -0.0120 -0.0402  0.0185  0.0131
  46.  C 5 (d1)    -0.0864  0.0159 -0.0528  0.0581 -0.0499 -0.0452 -0.0071  0.0021
  47.  C 6 (s)      0.0127 -0.0041 -0.0524 -0.0165  0.0193 -0.0323 -0.0120 -0.0115
  48.  C 6 (s)      0.0352  0.0407 -0.0627 -0.2171 -1.6541  0.4800  0.0266 -0.4701
  49.  C 6 (px)    -0.2498 -0.0543 -0.0389  0.2401 -0.2745  0.2611  0.1087 -0.0208
  50.  C 6 (py)    -0.2716 -0.4104 -0.0927  0.0623  0.2005 -0.1117 -0.1138  0.1461
  51.  C 6 (pz)     0.2253  0.5269 -0.3604  0.2597  0.0497 -0.1072  0.0952  0.0103
  52.  C 6 (s)     -0.1790 -0.0912  0.4410  0.2060  3.2914 -0.8431 -0.7865  1.5409
  53.  C 6 (px)     0.2602  0.0897  0.1799 -0.0876  0.5310 -0.5042  0.4569 -0.1755
  54.  C 6 (py)     0.3172  0.5992  0.0410 -0.3578 -0.2733  0.0757  0.1435 -0.4346
  55.  C 6 (pz)    -0.1141 -0.8237  0.3476 -0.2479 -0.1236  0.2018 -0.1022  0.4113
  56.  C 6 (d5)     0.0568  0.1378 -0.0640  0.1101  0.0211 -0.0328  0.0301  0.0175
  57.  C 6 (d2)     0.0516 -0.0083 -0.0054  0.0302  0.0193 -0.0019  0.0287  0.0993
  58.  C 6 (d3)     0.0190  0.0715 -0.0004 -0.0205 -0.0383  0.0323 -0.0845  0.0268
  59.  C 6 (d4)     0.0606  0.0868 -0.0003 -0.0191 -0.0267  0.0356  0.0198  0.0224
  60.  C 6 (d1)     0.0074  0.0071  0.0024 -0.0411  0.0601 -0.0319  0.0077 -0.0612
  61.  H 7 (s)      0.3088 -0.4397 -0.6059  0.2841 -0.0653  0.4531  0.0377  0.0559
  62.  H 7 (s)     -0.2501  1.0923  0.5829 -0.5594 -0.2947 -1.0807 -0.0730  0.0402
  63.  H 8 (s)      0.3361  0.4901 -0.5488  0.2651  0.2263 -0.3296 -0.0278  0.1276
  64.  H 8 (s)     -0.2573 -1.0554  0.5247 -0.5795 -0.9223  0.5958 -0.0148 -0.1668
  65.  H 9 (s)      0.5336  0.1322  0.0309 -0.4643  0.1320  0.3541 -0.1116 -0.0788
  66.  H 9 (s)     -0.7987 -0.2074 -0.6122  0.6328 -0.7082 -1.0981 -0.1037  0.0552
  67.  H10 (s)      0.2586  0.0064 -0.2141 -0.4195  0.2078 -0.2163 -0.2257  0.0743
  68.  H10 (s)     -0.3367 -0.0683 -0.2289  0.4698 -1.0287  0.4414  0.0103 -0.2732
  69.  H11 (s)     -0.5321  0.3664 -0.4612 -0.2596  0.0520  0.3532 -0.0725 -0.0503
  70.  H11 (s)      1.1583 -0.9255  0.2874 -0.0414 -0.4876 -0.8359 -0.0628  0.5654
  71.  H12 (s)     -0.1869 -0.5525 -0.2662 -0.2045  0.3115 -0.3738 -0.0676 -0.2384
  72.  H12 (s)      0.5085  1.1727 -0.1064 -0.1079 -1.0482  0.4767  0.2014 -0.4460

           AO         49      50      51      52      53      54      55      56
      ------------ ------- ------- ------- ------- ------- ------- ------- -------
   1.  O 1 (s)     -0.0228 -0.0182 -0.0067 -0.0329  0.0073 -0.0079 -0.0054 -0.0091
   2.  O 1 (s)      0.3316  0.2238  0.0530  0.6405 -0.1349  0.9703  0.5245  0.4512
   3.  O 1 (px)     0.6240  0.0991 -0.0797 -0.2542 -0.1870  0.0335  0.1202  0.0899
   4.  O 1 (py)     0.3761 -0.1547 -0.0740 -0.3139  0.0224 -0.0272 -0.0182 -0.1117
   5.  O 1 (pz)     0.2017 -0.0053 -0.0027 -0.0484 -0.0264  0.0872  0.0530  0.0141
   6.  O 1 (s)     -0.3090  0.0087  0.0815 -0.6884 -0.1710 -2.3222 -1.2475 -1.0239
   7.  O 1 (px)    -1.1408 -0.1045  0.0300  0.5954  0.5380 -0.1932 -0.2036 -0.2931
   8.  O 1 (py)    -0.9194  0.0362  0.0630  0.6862  0.4058  0.6621  0.2769  0.4513
   9.  O 1 (pz)    -0.2440  0.1394  0.0953  0.0632  0.1111 -0.4973 -0.2691 -0.0975
  10.  O 1 (d5)    -0.0323 -0.2623 -0.1439 -0.0847  0.0552  0.0062  0.0015 -0.2644
  11.  O 1 (d2)     0.0725 -0.1123  0.1230 -0.0673 -0.1076  0.5286  0.0342 -0.3466
  12.  O 1 (d3)    -0.0136  0.1079  0.0842 -0.1337  0.2876 -0.0207 -0.0502 -0.3039
  13.  O 1 (d4)     0.0221 -0.0791 -0.0535 -0.1341 -0.2092 -0.2699 -0.0365  0.2918
  14.  O 1 (d1)     0.0410  0.0054 -0.2005  0.1965  0.1647  0.0450  0.2291  0.1036
  15.  C 2 (s)      0.0325  0.0662  0.0248  0.0623 -0.0820 -0.0847 -0.0555 -0.0769
  16.  C 2 (s)      0.6185  0.8754  0.3206  0.6904 -1.1142 -0.9294 -0.6149 -1.0400
  17.  C 2 (px)     0.0954 -0.0340 -0.0268  0.0473  0.0169  0.0281  0.1567 -0.1231
  18.  C 2 (py)    -0.0589 -0.0412 -0.0147 -0.0365 -0.0153  0.0383  0.0498  0.1182
  19.  C 2 (pz)     0.0288  0.0658  0.0373  0.0069  0.0524 -0.0002 -0.0073  0.0227
  20.  C 2 (s)     -2.0241 -3.1227 -1.1378 -2.7098  3.8987  3.7943  2.4777  3.8060
  21.  C 2 (px)     0.7614 -0.7629  0.5537  0.7188  0.4762 -0.3845 -1.1246  0.7511
  22.  C 2 (py)     0.0432  0.5665  0.1071  0.9737 -0.4968  0.5021  0.0788 -0.6594
  23.  C 2 (pz)     0.2139  0.1190 -0.0054  0.1494 -0.4581 -0.2367 -0.1212 -0.3951
  24.  C 2 (d5)     0.0245  0.0506  0.0229  0.0278  0.0269  0.0172 -0.0088 -0.1115
  25.  C 2 (d2)     0.0541  0.0905 -0.4086  0.0998  0.1149 -0.0173  0.1260 -0.0944
  26.  C 2 (d3)     0.0074 -0.2806 -0.1696  0.0349 -0.3171 -0.1356 -0.0120  0.0550
  27.  C 2 (d4)     0.0876  0.2209  0.1784 -0.1821  0.1975 -0.1317 -0.0099  0.0694
  28.  C 2 (d1)    -0.0865 -0.0618  0.2457 -0.1223 -0.1949  0.0928  0.1721 -0.2531
  29.  H 3 (s)      0.0979  0.0139 -0.0173 -0.2393 -0.3112  0.2176  0.1517  0.0766
  30.  H 3 (s)      0.8243  0.0788 -0.0184 -0.2294 -0.2234  0.1131  0.1573  0.0435
  31.  H 4 (s)      0.1432  0.2414  0.0887  0.2230 -0.3398 -0.4101 -0.2551 -0.2707
  32.  H 4 (s)      0.1510  0.2937  0.1449  0.1011 -0.1963 -0.3240 -0.2069 -0.2032
  33.  C 5 (s)     -0.0373  0.0147 -0.0410 -0.1067 -0.0008  0.0396  0.0423  0.0227
  34.  C 5 (s)     -0.5805  0.4015 -0.6903 -1.3481 -0.1936  0.4686  0.2166  0.3381
  35.  C 5 (px)    -0.0105  0.2387 -0.0608 -0.0917 -0.1562  0.0155 -0.1886 -0.0149
  36.  C 5 (py)     0.0996 -0.1296  0.0150 -0.1153 -0.1121 -0.0745  0.0293  0.0030
  37.  C 5 (pz)     0.0134 -0.0221 -0.1101  0.0586  0.0283 -0.0390  0.0098  0.0037
  38.  C 5 (s)      2.2197 -0.3820  2.0169  4.2044 -0.4749 -2.0073 -1.8125 -1.3761
  39.  C 5 (px)     0.6921 -0.1618  0.5200  0.9344 -0.1059 -0.6707 -0.2466 -0.5225
  40.  C 5 (py)    -0.5056  0.2998  0.1521  0.6731 -0.1760 -0.1253 -0.6262 -0.0288
  41.  C 5 (pz)     0.3159  0.2387 -0.0125  0.1403 -0.3357 -0.1984 -0.4216 -0.0816
  42.  C 5 (d5)    -0.0148 -0.0268  0.0236 -0.0153  0.0287  0.0810 -0.0086  0.0114
  43.  C 5 (d2)    -0.0892 -0.0497  0.3351 -0.0800 -0.0841 -0.0253  0.0090 -0.0878
  44.  C 5 (d3)     0.1300  0.1656  0.0954 -0.0640  0.1209  0.1997 -0.4067  0.1702
  45.  C 5 (d4)    -0.0200 -0.0929 -0.0949  0.0695 -0.1909 -0.1481  0.3971 -0.1643
  46.  C 5 (d1)     0.0962  0.1188 -0.1397  0.0186  0.0852  0.0475 -0.1107 -0.0086
  47.  C 6 (s)      0.0332 -0.0875  0.0147 -0.0067  0.0785 -0.0064 -0.0070  0.0530
  48.  C 6 (s)      0.5024 -1.2674  0.3994  0.0231  0.9358 -0.1882  0.0239  0.0946
  49.  C 6 (px)    -0.2461  0.0422 -0.1554 -0.1334 -0.0255  0.1265 -0.0845  0.2504
  50.  C 6 (py)    -0.0612 -0.0622 -0.0711 -0.0530 -0.0219 -0.0690 -0.0843 -0.1542
  51.  C 6 (pz)    -0.0410 -0.0535  0.0646 -0.0263 -0.0705  0.0403 -0.0023  0.0085
  52.  C 6 (s)     -0.9241  4.0050 -0.7765  0.5241 -3.4503 -0.1458  0.0426 -2.0551
  53.  C 6 (px)     0.4228 -0.9193  0.2206  0.0830  0.7555  0.0086  0.3683  0.4094
  54.  C 6 (py)     0.2952  0.3877 -0.0119  0.4421 -0.5324 -0.2048  0.3689 -0.2534
  55.  C 6 (pz)     0.0666  0.1821  0.1357  0.2450 -0.2585 -0.2950  0.0401 -0.5875
  56.  C 6 (d5)    -0.0092 -0.0145 -0.0389 -0.0030  0.0594  0.0526  0.0404 -0.0736
  57.  C 6 (d2)    -0.0501 -0.0712  0.3035 -0.0349 -0.1139  0.0336  0.2317  0.3215
  58.  C 6 (d3)     0.0364  0.2190  0.0813 -0.0250  0.1635 -0.2517  0.4189 -0.0055
  59.  C 6 (d4)     0.0046 -0.1401 -0.1354  0.0891 -0.1610  0.1490 -0.4201  0.0799
  60.  C 6 (d1)     0.0083  0.0063 -0.1894 -0.0010  0.0857  0.0913  0.0004 -0.3351
  61.  H 7 (s)     -0.0706  0.0948 -0.3417 -0.4389 -0.0798  0.0797  0.1288  0.0583
  62.  H 7 (s)     -0.1770  0.2374 -0.1913 -0.4083 -0.1818  0.0995 -0.0648  0.1194
  63.  H 8 (s)      0.1491 -0.4633  0.1721 -0.0087  0.2254 -0.0999 -0.0661  0.1338
  64.  H 8 (s)      0.2117 -0.3524  0.1622  0.0998  0.2527 -0.1765  0.0260 -0.1391
  65.  H 9 (s)      0.0260  0.1256 -0.0903 -0.5037  0.0865  0.1298  0.1758  0.0393
  66.  H 9 (s)     -0.0039 -0.2591 -0.1135 -0.3476  0.1541 -0.0001  0.2826  0.0620
  67.  H10 (s)      0.2155 -0.2250  0.1020 -0.1357  0.3702 -0.0165 -0.0621  0.1972
  68.  H10 (s)     -0.3483 -0.2800 -0.0612 -0.2886  0.2557  0.0539 -0.2192  0.1320
  69.  H11 (s)     -0.4304  0.0199 -0.0739 -0.3879 -0.1094  0.1937  0.1432  0.0912
  70.  H11 (s)     -0.4091  0.2454 -0.2106 -0.0946  0.0317  0.2229 -0.0269  0.1182
  71.  H12 (s)      0.2041 -0.3984 -0.0689  0.0628  0.2940 -0.0678 -0.0022  0.2357
  72.  H12 (s)      0.2760 -0.3364  0.1744  0.1826  0.2085  0.0452  0.1952  0.1706

           AO         57      58      59      60      61      62      63      64
      ------------ ------- ------- ------- ------- ------- ------- ------- -------
   1.  O 1 (s)     -0.0099  0.0228 -0.0009  0.0028 -0.0213 -0.0054  0.0019  0.0099
   2.  O 1 (s)      0.0382  0.2044 -0.1369 -0.3621  0.3743  0.2485  0.0655 -0.0137
   3.  O 1 (px)    -0.1800  0.0017 -0.0007 -0.0096 -0.0093  0.0086  0.0572  0.0227
   4.  O 1 (py)    -0.0790  0.2417  0.0167  0.0645 -0.2094 -0.0798  0.0035  0.0717
   5.  O 1 (pz)    -0.0305  0.0265 -0.0002  0.0441  0.1840  0.1155 -0.0112 -0.0793
   6.  O 1 (s)      0.0559 -1.2618  0.3010  1.1024 -0.3821 -0.3244 -0.2203 -0.0489
   7.  O 1 (px)     0.4681 -0.0571  0.0777 -0.0039 -0.0259 -0.1753 -0.2520 -0.1135
   8.  O 1 (py)     0.1587  0.2173 -0.0683 -0.5070  0.1537  0.0421  0.0168 -0.0351
   9.  O 1 (pz)     0.1415 -0.2848  0.0625 -0.1251 -0.3987 -0.2843  0.0156  0.1392
  10.  O 1 (d5)    -0.1884 -0.5901 -0.0887 -0.0030 -0.1321 -0.1043  0.1229  0.1497
  11.  O 1 (d2)     0.1455 -0.2229 -0.1667 -0.0725 -0.0897 -0.2597 -0.3209 -0.1101
  12.  O 1 (d3)    -0.2399 -0.0419  0.0030  0.0153  0.4343  0.3354 -0.0743 -0.0974
  13.  O 1 (d4)     0.2682  0.0688  0.0711 -0.0307 -0.0058 -0.0180 -0.0102  0.0159
  14.  O 1 (d1)    -0.4281 -0.1484  0.1618 -0.0503 -0.0566 -0.1009  0.3812  0.0119
  15.  C 2 (s)     -0.0191 -0.0453  0.0064  0.0215  0.0141 -0.0412 -0.0038  0.0017
  16.  C 2 (s)     -0.3457 -0.4357  0.0452  0.7467  0.0060  0.1226 -0.0434  0.0211
  17.  C 2 (px)     0.1289 -0.0105  0.3120 -0.0251  0.0195  0.0397  0.1430  0.0164
  18.  C 2 (py)     0.0403 -0.1169 -0.0465 -0.1950  0.3032  0.0974 -0.0459  0.0256
  19.  C 2 (pz)     0.0122  0.0589  0.0041 -0.1351 -0.0162 -0.0622  0.0078 -0.0677
  20.  C 2 (s)      1.0893  1.9342 -0.2516 -1.8857 -0.2106  0.8869  0.1663 -0.1535
  21.  C 2 (px)    -0.6894  0.0594  0.0603  0.0760  0.0754  0.2135  0.6149  0.2366
  22.  C 2 (py)    -0.5159  0.9720 -0.0389  0.0710  0.3533 -0.3382  0.0251 -0.1776
  23.  C 2 (pz)    -0.1697 -0.6241  0.0485  1.8936  1.0195  0.3294 -0.2386 -0.1481
  24.  C 2 (d5)    -0.0902 -0.0592 -0.0141  0.4239  0.1855  0.3559 -0.0670 -0.1592
  25.  C 2 (d2)     0.0564 -0.0527  0.5221 -0.0418 -0.0410 -0.0331 -0.3065 -0.0502
  26.  C 2 (d3)     0.0336 -0.3129 -0.0467 -0.2680  0.1948  0.4139 -0.0479 -0.1134
  27.  C 2 (d4)     0.1623 -0.2361  0.0613 -0.0599  0.3828 -0.1770  0.0301 -0.0567
  28.  C 2 (d1)     0.2633  0.0541  0.1928  0.0035 -0.0024  0.0970  0.2334  0.0305
  29.  H 3 (s)     -0.1607  0.0765 -0.1464  0.0375  0.0551  0.2345  0.0770  0.1091
  30.  H 3 (s)      0.0028  0.0091  0.0066 -0.0475  0.0096  0.0107  0.0526  0.0194
  31.  H 4 (s)     -0.0187 -0.0707  0.0221 -0.5449 -0.3734 -0.4693  0.0850  0.2086
  32.  H 4 (s)     -0.0209  0.0369  0.0080 -0.3594 -0.3624 -0.0566  0.0419  0.0777
  33.  C 5 (s)      0.0163  0.0046  0.0098 -0.0222 -0.0008  0.0008 -0.0041 -0.0034
  34.  C 5 (s)     -0.3284  0.1894 -0.2332  0.1135 -0.1318  0.0914 -0.0459 -0.0692
  35.  C 5 (px)    -0.2477  0.0205 -0.0985  0.1819  0.0197 -0.0332  0.0194 -0.0045
  36.  C 5 (py)    -0.1468  0.0429 -0.0612  0.0578 -0.0274  0.0862  0.0637  0.0615
  37.  C 5 (pz)     0.0227  0.0020 -0.0272  0.0566 -0.0326  0.0310 -0.0637 -0.0916
  38.  C 5 (s)     -0.4058 -0.5777  0.3117  0.8912  0.5335 -0.2257  0.3346  0.2274
  39.  C 5 (px)    -0.0266 -0.1148  0.2274  0.3650  0.4274 -0.2050  0.1473  0.0016
  40.  C 5 (py)     0.2317 -0.5276  0.0771  0.1225  0.0904  0.2384  0.2127  0.3348
  41.  C 5 (pz)    -0.5110  0.0902  0.3220 -0.5398 -0.2592 -0.1295  0.0306 -0.1746
  42.  C 5 (d5)    -0.0949  0.0615 -0.2430  0.1614  0.0761  0.0042  0.2220  0.5634
  43.  C 5 (d2)    -0.4063  0.1309  0.4334 -0.4977  0.1132 -0.1397 -0.0399  0.0161
  44.  C 5 (d3)     0.1491 -0.2684  0.1777 -0.2514 -0.2096  0.4171  0.2748  0.4095
  45.  C 5 (d4)     0.1257  0.0684 -0.0193 -0.0007  0.4289 -0.0078  0.2252  0.3645
  46.  C 5 (d1)     0.4123 -0.2528  0.1551  0.1381  0.2026 -0.2925  0.1629 -0.0937
  47.  C 6 (s)      0.0119  0.0141 -0.0095 -0.0217  0.0005  0.0080  0.0072  0.0010
  48.  C 6 (s)      0.3743  0.3885  0.2627  0.1127 -0.0738  0.2074  0.0310 -0.0080
  49.  C 6 (px)    -0.0746 -0.0692 -0.1012 -0.1628 -0.0377  0.0380  0.0150 -0.0017
  50.  C 6 (py)     0.0924  0.0887  0.0948  0.0780 -0.0224  0.0654 -0.1245  0.0019
  51.  C 6 (pz)    -0.0153 -0.0260  0.0285  0.0546 -0.0153  0.0527  0.0816 -0.0967
  52.  C 6 (s)     -0.7853 -0.9550 -0.2511  0.8100  0.3910 -0.6835 -0.4387 -0.1645
  53.  C 6 (px)     0.3272  0.1615  0.1409 -0.3349 -0.3817  0.4029  0.1595  0.0008
  54.  C 6 (py)    -0.1018 -0.6115 -0.1531  0.1948  0.0563  0.0200 -0.4495  0.0523
  55.  C 6 (pz)     0.1849  0.2430 -0.2997 -0.5520 -0.1954 -0.1560  0.1566 -0.3227
  56.  C 6 (d5)     0.0214  0.0840  0.2176  0.1546  0.0309 -0.0629 -0.4003  0.7011
  57.  C 6 (d2)    -0.0789 -0.3039  0.4052  0.4311 -0.2361  0.1851 -0.1291 -0.0660
  58.  C 6 (d3)     0.1111 -0.1573 -0.3208 -0.3035 -0.2467  0.2567 -0.4743  0.1469
  59.  C 6 (d4)    -0.1067  0.0932  0.0930 -0.0464  0.3052  0.0761 -0.4072  0.1089
  60.  C 6 (d1)     0.1697  0.2857  0.1118 -0.1435 -0.2588  0.4412  0.2193 -0.1004
  61.  H 7 (s)     -0.0024 -0.0016  0.2351 -0.2538 -0.1172 -0.0108 -0.2279 -0.4455
  62.  H 7 (s)     -0.2629  0.0850  0.0477 -0.1558 -0.1012  0.0120  0.0968  0.0139
  63.  H 8 (s)      0.0691  0.0564 -0.2209 -0.2541 -0.0486  0.0902  0.3912 -0.5269
  64.  H 8 (s)      0.2157  0.2185 -0.0262 -0.1529 -0.0790  0.0091 -0.0832  0.0221
  65.  H 9 (s)      0.0581  0.0699  0.1055  0.0334  0.1975 -0.3379  0.0054 -0.0922
  66.  H 9 (s)     -0.0145  0.0970 -0.0808  0.0389  0.0049  0.0452 -0.0174 -0.0493
  67.  H10 (s)     -0.0024  0.0988 -0.0765  0.0353  0.2088 -0.3580  0.0969  0.2010
  68.  H10 (s)      0.0591  0.1028  0.1048  0.0475  0.0184  0.0714 -0.0277 -0.0277
  69.  H11 (s)      0.1456 -0.0798 -0.0183 -0.1126  0.1294  0.2623  0.3021  0.5171
  70.  H11 (s)      0.1618 -0.0735 -0.0502  0.0646 -0.0142  0.0481 -0.0794 -0.0336
  71.  H12 (s)      0.0394 -0.0347 -0.0134 -0.0971  0.0489  0.1845 -0.5817  0.2794
  72.  H12 (s)     -0.0075 -0.0978  0.0160  0.0802 -0.0152  0.0634  0.0702  0.0275

           AO         65      66      67      68      69      70      71      72
      ------------ ------- ------- ------- ------- ------- ------- ------- -------
   1.  O 1 (s)     -0.0041 -0.0096 -0.0206  0.0048 -0.0034 -0.0182  0.0071 -0.0381
   2.  O 1 (s)      0.1478  0.4722 -0.5142  0.2541  0.1161 -0.4617  0.1788 -0.6266
   3.  O 1 (px)    -0.0193 -0.0016 -0.0722  0.0079  0.0050  0.0085  0.0326  0.0610
   4.  O 1 (py)    -0.0487 -0.2041 -0.0075 -0.0538 -0.0508  0.0061  0.0002  0.0070
   5.  O 1 (pz)     0.0306  0.0123 -0.0238 -0.0072  0.0370 -0.0185  0.0016  0.0338
   6.  O 1 (s)     -0.2944 -1.0461  1.3667 -0.7216 -0.2606  1.3109 -0.5021  1.9245
   7.  O 1 (px)     0.0140 -0.0547  0.7759 -0.1121  0.0510  0.0884 -0.1716 -0.3232
   8.  O 1 (py)     0.1120  0.5966 -0.0474  0.4100  0.2291 -0.3281  0.1718 -1.4219
   9.  O 1 (pz)    -0.0626  0.0297  0.4042  0.0202 -0.1531  0.3097 -0.0921  0.3888
  10.  O 1 (d5)     0.0367  0.2853 -0.3387  0.3823 -0.1693 -0.3031  0.1219 -0.2297
  11.  O 1 (d2)     0.0251 -0.0532  0.5615 -0.0635  0.0727  0.1303 -0.1800 -0.1273
  12.  O 1 (d3)    -0.0095 -0.2507 -0.0447 -0.1627  0.4443 -0.0991  0.0441 -0.6516
  13.  O 1 (d4)     0.0437  0.3762  0.3929  0.2015  0.1005  0.0560  0.1249 -0.9045
  14.  O 1 (d1)    -0.0851 -0.1079  0.3421  0.1182  0.1732  0.6726  0.2393 -0.0693
  15.  C 2 (s)     -0.0142 -0.0693  0.0101 -0.0329 -0.0715  0.0419 -0.0038  0.0427
  16.  C 2 (s)     -0.0073 -0.0405  0.2305 -0.0095  0.1308  0.0758  0.0228 -0.2141
  17.  C 2 (px)    -0.0806  0.0099 -0.0947  0.0607 -0.0315  0.1073 -0.3890 -0.0893
  18.  C 2 (py)     0.0206  0.0572 -0.0621  0.0774 -0.0397 -0.1288  0.1539 -0.7363
  19.  C 2 (pz)    -0.0045 -0.0959  0.0050 -0.0753 -0.2164  0.1060 -0.0221  0.2071
  20.  C 2 (s)      0.3854  1.8218 -0.6691  0.8635  1.5559 -1.1877  0.1651 -1.2211
  21.  C 2 (px)     0.2564 -0.0018 -0.6727  0.3850 -0.0251  0.5918 -0.7759 -0.1921
  22.  C 2 (py)     0.0227 -0.0546 -0.3561  0.2157 -0.2868 -0.3916  0.2386 -0.9054
  23.  C 2 (pz)    -0.1294 -1.0143 -0.0127 -0.4939 -0.1844  0.2224 -0.0856  0.4274
  24.  C 2 (d5)     0.1212  0.3574  0.1963 -0.0729 -0.8233  0.3228  0.0225  0.1375
  25.  C 2 (d2)     0.0219  0.0351  0.3140 -0.3055 -0.0896 -0.5875  0.3504  0.1063
  26.  C 2 (d3)     0.0516  0.0953 -0.0052 -0.4977  0.3112  0.2471 -0.1696  0.5857
  27.  C 2 (d4)     0.0388  0.2419  0.2662  0.4738  0.2024 -0.0460 -0.0009  0.8372
  28.  C 2 (d1)    -0.0352 -0.0648 -0.1131 -0.0386  0.0623  0.1855  0.9998  0.1037
  29.  H 3 (s)      0.0267  0.1031 -1.0579  0.0851 -0.2279 -0.6157  0.1027  0.3202
  30.  H 3 (s)      0.0372  0.0006  0.0288 -0.0747  0.0821  0.0507  0.0481  0.1661
  31.  H 4 (s)     -0.1035 -0.1933 -0.0470  0.0751  0.3110 -0.1020 -0.0097 -0.0174
  32.  H 4 (s)      0.0347  0.3569  0.1595  0.0641 -0.1929  0.1222  0.0096  0.0426
  33.  C 5 (s)      0.0013  0.0108  0.0121 -0.0024  0.0293 -0.0150  0.0402  0.0299
  34.  C 5 (s)     -0.0370 -0.0091  0.1130 -0.0289  0.0364  0.1226  0.0488  0.0765
  35.  C 5 (px)    -0.0551 -0.0823 -0.0491 -0.0208 -0.1846  0.1508 -0.2021 -0.1108
  36.  C 5 (py)     0.0240 -0.1156  0.0044 -0.0194 -0.0824  0.1156 -0.0916 -0.0166
  37.  C 5 (pz)     0.0777 -0.0207 -0.0294  0.0098 -0.0897  0.0439 -0.0827 -0.0547
  38.  C 5 (s)      0.1269 -0.6465 -0.5768  0.0219 -0.7510  0.4410 -0.8158 -0.3487
  39.  C 5 (px)    -0.3037 -0.2954 -0.2617 -0.0532 -0.3756  0.2767 -0.5383 -0.1638
  40.  C 5 (py)     0.2537 -0.3686  0.0453  0.0098 -0.2249  0.1017 -0.1997 -0.1503
  41.  C 5 (pz)     0.3019  0.0094 -0.2000  0.1892 -0.1521  0.2062 -0.0824 -0.0797
  42.  C 5 (d5)    -0.5544  0.3521  0.3216 -0.3660  0.1532 -0.3180  0.1302  0.1336
  43.  C 5 (d2)    -0.1730  0.2909 -0.0466 -0.1665 -0.3703  0.0473 -0.2953 -0.1419
  44.  C 5 (d3)     0.2043 -0.2375  0.1408 -0.0652 -0.2541 -0.0114 -0.0804 -0.0706
  45.  C 5 (d4)     0.0725 -0.4658  0.1647  0.2278 -0.3533 -0.1150 -0.4192 -0.0911
  46.  C 5 (d1)    -0.4712 -0.0257 -0.4108 -0.3172 -0.1852  0.3839 -0.2725 -0.2384
  47.  C 6 (s)      0.0026  0.0169 -0.0060  0.0135  0.0262  0.0054 -0.0484  0.0039
  48.  C 6 (s)      0.0552  0.0499  0.0251 -0.0121 -0.0156 -0.0009 -0.0581 -0.0133
  49.  C 6 (px)    -0.0356  0.0743 -0.0262  0.0900  0.1677  0.0232 -0.2227  0.0225
  50.  C 6 (py)    -0.0665 -0.1014  0.0692 -0.0861 -0.1100 -0.0013  0.1399  0.0053
  51.  C 6 (pz)    -0.0326 -0.0159  0.0245 -0.0258 -0.0928 -0.0051  0.1066 -0.0121
  52.  C 6 (s)     -0.3570 -0.7753  0.3597 -0.5020 -0.6227 -0.1318  0.8952  0.1479
  53.  C 6 (px)    -0.2286  0.4129 -0.1638  0.2781  0.2851  0.0298 -0.5251 -0.0444
  54.  C 6 (py)    -0.3930 -0.3111  0.0226 -0.0965 -0.2590 -0.0202  0.3044  0.0418
  55.  C 6 (pz)    -0.1710  0.0462  0.2240 -0.0329 -0.1850 -0.1694  0.1448 -0.0757
  56.  C 6 (d5)     0.3523  0.2648 -0.2600  0.0219  0.3009  0.4132 -0.1741  0.0375
  57.  C 6 (d2)    -0.2766 -0.1872  0.0128  0.1378  0.2457 -0.1540 -0.3464  0.0324
  58.  C 6 (d3)    -0.3179 -0.0633 -0.0373  0.0027 -0.2253  0.1802  0.1917 -0.0532
  59.  C 6 (d4)    -0.4677 -0.2604  0.0016  0.4888 -0.1456  0.1006  0.3262  0.0596
  60.  C 6 (d1)    -0.2871  0.3121 -0.0056  0.4578  0.2792  0.0716 -0.4693  0.0878
  61.  H 7 (s)      0.4496 -0.1747 -0.1996  0.2321 -0.0534  0.1837  0.0194 -0.0177
  62.  H 7 (s)     -0.0909  0.0606  0.0862 -0.0292  0.0129  0.0343  0.0176  0.0518
  63.  H 8 (s)     -0.2575 -0.0868  0.1718  0.0070 -0.1650 -0.2467  0.0039 -0.0269
  64.  H 8 (s)      0.0942  0.0571  0.0246  0.0094  0.0283  0.0507 -0.0274 -0.0038
  65.  H 9 (s)     -0.5677  0.3203 -0.1736 -0.2771  0.0095  0.0973 -0.0575 -0.0186
  66.  H 9 (s)     -0.0360 -0.0576  0.0676  0.0587  0.0619  0.0442 -0.0870  0.0817
  67.  H10 (s)      0.5871  0.1035 -0.0623 -0.3128  0.0258  0.0639  0.0643 -0.0153
  68.  H10 (s)      0.0172 -0.0597  0.0740  0.0566  0.0323 -0.0264  0.0406  0.0450
  69.  H11 (s)      0.0787 -0.2754  0.2890 -0.0023 -0.1668 -0.1574 -0.0858  0.0030
  70.  H11 (s)     -0.0333  0.0109 -0.0316  0.0225  0.0498  0.0140  0.0287 -0.1076
  71.  H12 (s)     -0.3329 -0.1137 -0.1066  0.2152 -0.0638  0.1954  0.0970  0.0046
  72.  H12 (s)      0.0466 -0.0010 -0.0534 -0.0159 -0.0017 -0.0945 -0.0101 -0.0690


 AO overlap matrix:

           AO          1       2       3       4       5       6       7       8
      ------------ ------- ------- ------- ------- ------- ------- ------- -------
   1.  O 1 (s)      1.0000  0.2337  0.0000  0.0000  0.0000  0.1673  0.0000  0.0000
   2.  O 1 (s)      0.2337  1.0000  0.0000  0.0000  0.0000  0.7636  0.0000  0.0000
   3.  O 1 (px)     0.0000  0.0000  1.0000  0.0000  0.0000  0.0000  0.5015  0.0000
   4.  O 1 (py)     0.0000  0.0000  0.0000  1.0000  0.0000  0.0000  0.0000  0.5015
   5.  O 1 (pz)     0.0000  0.0000  0.0000  0.0000  1.0000  0.0000  0.0000  0.0000
   6.  O 1 (s)      0.1673  0.7636  0.0000  0.0000  0.0000  1.0000  0.0000  0.0000
   7.  O 1 (px)     0.0000  0.0000  0.5015  0.0000  0.0000  0.0000  1.0000  0.0000
   8.  O 1 (py)     0.0000  0.0000  0.0000  0.5015  0.0000  0.0000  0.0000  1.0000
   9.  O 1 (pz)     0.0000  0.0000  0.0000  0.0000  0.5015  0.0000  0.0000  0.0000
  10.  O 1 (d5)     0.0000  0.0000  0.0000  0.0000  0.0000  0.0000  0.0000  0.0000
  11.  O 1 (d2)     0.0000  0.0000  0.0000  0.0000  0.0000  0.0000  0.0000  0.0000
  12.  O 1 (d3)     0.0000  0.0000  0.0000  0.0000  0.0000  0.0000  0.0000  0.0000
  13.  O 1 (d4)     0.0000  0.0000  0.0000  0.0000  0.0000  0.0000  0.0000  0.0000
  14.  O 1 (d1)     0.0000  0.0000  0.0000  0.0000  0.0000  0.0000  0.0000  0.0000
  15.  C 2 (s)      0.0000  0.0015 -0.0001 -0.0039  0.0016  0.0392 -0.0020 -0.0965
  16.  C 2 (s)      0.0073  0.0850 -0.0023 -0.1076  0.0436  0.2593 -0.0093 -0.4406
[...]
                                        -0.0276  0.6838 -0.0140 -0.5461  0.1982
                                        -0.0503 -0.0353  0.0493  0.1730
  39. (0.00227) RY ( 2) C  2            s( 17.44%)p 3.23( 56.25%)d 1.51( 26.31%)
                                         0.0000 -0.0087  0.4175  0.0104 -0.3724
                                        -0.0182  0.2565  0.0546  0.5955  0.1479
                                        -0.0600 -0.0407 -0.0714 -0.4805
  40. (0.00158) RY ( 3) C  2            s(  5.38%)p 2.80( 15.08%)d14.79( 79.54%)
                                         0.0000 -0.0017  0.2319 -0.0135  0.0547
                                         0.0144 -0.0533  0.0211 -0.3796 -0.3503
                                         0.0827  0.6354 -0.1600 -0.4863
  41. (0.00089) RY ( 4) C  2            s(  5.04%)p15.21( 76.63%)d 3.64( 18.33%)
                                         0.0000 -0.0090  0.2243 -0.0034  0.7177
                                         0.0129  0.4782  0.0134  0.1489 -0.1584
                                         0.1101 -0.0488  0.3775 -0.0350
  42. (0.00088) RY ( 5) C  2            s(  0.27%)p19.68(  5.28%)d99.99( 94.45%)
                                         0.0000  0.0046  0.0516  0.0285 -0.0052
                                         0.0456 -0.2229 -0.0063 -0.0123  0.6403
                                         0.0202  0.4399  0.5834 -0.0167
  43. (0.00064) RY ( 6) C  2            s(  3.06%)p 6.91( 21.16%)d24.74( 75.78%)
                                         0.0000  0.0022  0.1750  0.0138  0.4323
                                        -0.0410 -0.0358  0.0131 -0.1462  0.5990
                                         0.0622 -0.1020 -0.6114 -0.1039
  44. (0.00016) RY ( 7) C  2            s(  0.04%)p75.36(  2.65%)d99.99( 97.31%)
                                         0.0000 -0.0015  0.0187  0.0276 -0.1548
                                        -0.0025 -0.0023 -0.0035  0.0420  0.0063
                                         0.9829 -0.0404 -0.0126  0.0719
  45. (0.00010) RY ( 8) C  2            s( 28.53%)p 0.20(  5.60%)d 2.31( 65.87%)
                                         0.0000 -0.0003  0.5341 -0.0061 -0.0175
                                         0.0018 -0.0717 -0.0136  0.2243 -0.1091
                                        -0.0600  0.3593 -0.1994  0.6887
  46. (0.00000) RY ( 9) C  2            s( 37.46%)p 0.76( 28.62%)d 0.91( 33.92%)
  47. (0.00134) RY ( 1) H  3            s(100.00%)
                                         0.0029  1.0000
  48. (0.00240) RY ( 1) H  4            s(100.00%)
                                        -0.0047  1.0000
  49. (0.00288) RY ( 1) C  5            s(  3.18%)p29.08( 92.45%)d 1.38(  4.37%)
                                         0.0000  0.0080  0.1781  0.0155  0.5657
                                        -0.0176 -0.7515 -0.0094 -0.1975 -0.1423
                                        -0.0696 -0.0016  0.1169 -0.0706
  50. (0.00220) RY ( 2) C  5            s(  4.32%)p20.93( 90.45%)d 1.21(  5.23%)
                                         0.0000  0.0041  0.2078 -0.0025  0.3249
                                        -0.0003  0.5106 -0.0219 -0.7334  0.0045
                                        -0.0933 -0.0706 -0.0169 -0.1957
  51. (0.00052) RY ( 3) C  5            s( 64.73%)p 0.36( 23.56%)d 0.18( 11.72%)
                                         0.0000  0.0026  0.8045 -0.0166  0.2080
                                         0.0001  0.1901  0.0057  0.3948 -0.0471
                                         0.0289 -0.0389 -0.2391  0.2354
  52. (0.00011) RY ( 4) C  5            s( 10.97%)p 5.92( 65.00%)d 2.19( 24.03%)
                                         0.0000 -0.0115  0.3310  0.0216 -0.6266
                                         0.0291 -0.3535  0.0010 -0.3620  0.1153
                                        -0.2123 -0.2094 -0.3690 -0.0439
  53. (0.00003) RY ( 5) C  5            s(  5.96%)p 1.99( 11.86%)d13.80( 82.19%)
  54. (0.00001) RY ( 6) C  5            s(  0.84%)p 4.89(  4.13%)d99.99( 95.03%)
  55. (0.00001) RY ( 7) C  5            s(  2.86%)p 1.96(  5.61%)d32.00( 91.53%)
  56. (0.00001) RY ( 8) C  5            s(  6.84%)p 0.80(  5.46%)d12.83( 87.70%)
  57. (0.00000) RY ( 9) C  5            s(  0.31%)p 6.88(  2.14%)d99.99( 97.55%)
  58. (0.00275) RY ( 1) C  6            s(  6.19%)p14.35( 88.89%)d 0.79(  4.92%)
                                         0.0000  0.0089  0.2487 -0.0168 -0.7233
                                        -0.0123 -0.4856 -0.0124 -0.3596  0.0874
                                         0.0859 -0.0353  0.1362 -0.1199
  59. (0.00147) RY ( 2) C  6            s(  0.23%)p99.99( 92.31%)d33.09(  7.46%)
                                         0.0000 -0.0012  0.0475 -0.0045  0.0207
                                        -0.0048 -0.6203  0.0203  0.7331  0.0442
                                        -0.0775  0.0710  0.0053  0.2482
  60. (0.00037) RY ( 3) C  6            s( 69.41%)p 0.28( 19.63%)d 0.16( 10.95%)
                                         0.0000  0.0028  0.8331  0.0198 -0.1328
                                         0.0017  0.3552 -0.0013  0.2284 -0.0173
                                         0.0751 -0.0137 -0.3048  0.1022
  61. (0.00013) RY ( 4) C  6            s(  0.00%)p 1.00( 25.43%)d 2.93( 74.56%)
                                         0.0000  0.0067  0.0012  0.0057 -0.2677
                                        -0.0394  0.3813  0.0071  0.1889  0.2203
                                        -0.2109  0.3821  0.6868  0.1869
  62. (0.00005) RY ( 5) C  6            s( 17.05%)p 3.57( 60.88%)d 1.29( 22.07%)
  63. (0.00001) RY ( 6) C  6            s(  3.45%)p 1.67(  5.75%)d26.35( 90.81%)
  64. (0.00000) RY ( 7) C  6            s(  3.65%)p 0.72(  2.65%)d25.64( 93.70%)
  65. (0.00000) RY ( 8) C  6            s(  0.01%)p99.99(  1.23%)d99.99( 98.76%)
  66. (0.00000) RY ( 9) C  6            s(  0.02%)p99.99(  3.87%)d99.99( 96.11%)
  67. (0.00150) RY ( 1) H  7            s(100.00%)
                                        -0.0013  1.0000
  68. (0.00162) RY ( 1) H  8            s(100.00%)
                                        -0.0014  1.0000
  69. (0.00105) RY ( 1) H  9            s(100.00%)
                                        -0.0003  1.0000
  70. (0.00102) RY ( 1) H 10            s(100.00%)
                                        -0.0002  1.0000
  71. (0.00081) RY ( 1) H 11            s(100.00%)
                                         0.0005  1.0000
  72. (0.00099) RY ( 1) H 12            s(100.00%)
                                        -0.0002  1.0000


 NHO DIRECTIONALITY AND BOND BENDING (deviation from line of nuclear centers at
                                      the position of maximum hybrid amplitude)

         [Thresholds for printing:  angular deviation  >  1.0 degree]
                                    p- or d-character  > 25.0%
                                    orbital occupancy  >  0.10e

                        Line of Centers        Hybrid 1             Hybrid 2
                        ---------------  -------------------  ------------------
           NBO            Theta   Phi    Theta   Phi    Dev   Theta   Phi    Dev
 ===============================================================================
   5. LP ( 1) O  1          --     --    126.9  146.4   --      --     --    --
   6. LP ( 2) O  1          --     --     35.7  142.5   --      --     --    --
   7. BD ( 1) O  1- C  2   68.0  268.8    66.4  269.9   1.8   111.4   87.2   1.6
   8. BD ( 1) O  1- H  3   72.7   26.3    74.6   29.7   3.7     --     --    --
   9. BD ( 1) C  2- H  4    2.4   79.7     4.3   82.5   1.9     --     --    --
  11. BD ( 1) C  2- C  6  108.2  326.3     --     --    --     70.9  145.7   1.1


 SECOND ORDER PERTURBATION THEORY ANALYSIS OF FOCK MATRIX IN NBO BASIS

     Threshold for printing:   0.50 kcal/mol
                                                          E(2) E(NL)-E(L) F(L,NL)
      Donor (L) NBO              Acceptor (NL) NBO      kcal/mol   a.u.    a.u.
 ===============================================================================

 within unit  1
    5. LP ( 1) O  1            20. BD*( 1) C  2- H  4      1.49    1.48   0.042
    5. LP ( 1) O  1            21. BD*( 1) C  2- C  5      1.48    1.42   0.041
    5. LP ( 1) O  1            22. BD*( 1) C  2- C  6      1.37    1.41   0.039
    5. LP ( 1) O  1            25. BD*( 1) C  5- H 11      0.65    1.47   0.028
    5. LP ( 1) O  1            38. RY ( 1) C  2            1.91    1.83   0.053
    6. LP ( 2) O  1            20. BD*( 1) C  2- H  4      7.61    1.20   0.085
    6. LP ( 2) O  1            22. BD*( 1) C  2- C  6      6.99    1.14   0.080
    6. LP ( 2) O  1            28. BD*( 1) C  6- H 12      0.98    1.19   0.031
    6. LP ( 2) O  1            40. RY ( 3) C  2            1.34    2.54   0.052
    7. BD ( 1) O  1- C  2      25. BD*( 1) C  5- H 11      1.78    1.67   0.049
    7. BD ( 1) O  1- C  2      28. BD*( 1) C  6- H 12      1.48    1.66   0.044
    8. BD ( 1) O  1- H  3      21. BD*( 1) C  2- C  5      3.60    1.54   0.066
    8. BD ( 1) O  1- H  3      38. RY ( 1) C  2            0.82    1.95   0.036
    8. BD ( 1) O  1- H  3      42. RY ( 5) C  2            0.73    3.33   0.044
    9. BD ( 1) C  2- H  4      23. BD*( 1) C  5- H  7      3.60    1.37   0.063
    9. BD ( 1) C  2- H  4      26. BD*( 1) C  6- H  8      3.62    1.37   0.063
    9. BD ( 1) C  2- H  4      29. RY ( 1) O  1            1.03    2.00   0.040
    9. BD ( 1) C  2- H  4      50. RY ( 2) C  5            0.86    1.68   0.034
    9. BD ( 1) C  2- H  4      59. RY ( 2) C  6            0.93    1.68   0.035
   10. BD ( 1) C  2- C  5      19. BD*( 1) O  1- H  3      2.43    1.45   0.053
   10. BD ( 1) C  2- C  5      20. BD*( 1) C  2- H  4      0.53    1.45   0.025
   10. BD ( 1) C  2- C  5      22. BD*( 1) C  2- C  6      0.65    1.38   0.027
   10. BD ( 1) C  2- C  5      23. BD*( 1) C  5- H  7      0.53    1.45   0.025
   10. BD ( 1) C  2- C  5      24. BD*( 1) C  5- H  9      0.63    1.46   0.027
   10. BD ( 1) C  2- C  5      27. BD*( 1) C  6- H 10      2.16    1.43   0.050
   10. BD ( 1) C  2- C  5      30. RY ( 2) O  1            1.52    2.24   0.052
   10. BD ( 1) C  2- C  5      48. RY ( 1) H  4            0.77    1.52   0.031
   10. BD ( 1) C  2- C  5      58. RY ( 1) C  6            2.15    1.79   0.055
   10. BD ( 1) C  2- C  5      67. RY ( 1) H  7            0.51    1.57   0.025
   10. BD ( 1) C  2- C  5      69. RY ( 1) H  9            0.54    1.56   0.026
   10. BD ( 1) C  2- C  5      71. RY ( 1) H 11            0.55    1.56   0.026
   11. BD ( 1) C  2- C  6      21. BD*( 1) C  2- C  5      0.72    1.40   0.028
   11. BD ( 1) C  2- C  6      24. BD*( 1) C  5- H  9      2.03    1.46   0.049
   11. BD ( 1) C  2- C  6      26. BD*( 1) C  6- H  8      0.55    1.45   0.025
   11. BD ( 1) C  2- C  6      27. BD*( 1) C  6- H 10      0.58    1.44   0.026
   11. BD ( 1) C  2- C  6      28. BD*( 1) C  6- H 12      0.59    1.44   0.026
   11. BD ( 1) C  2- C  6      29. RY ( 1) O  1            1.02    2.08   0.041
   11. BD ( 1) C  2- C  6      48. RY ( 1) H  4            0.71    1.52   0.029
   11. BD ( 1) C  2- C  6      49. RY ( 1) C  5            1.94    1.77   0.052
   11. BD ( 1) C  2- C  6      68. RY ( 1) H  8            0.52    1.57   0.025
   11. BD ( 1) C  2- C  6      72. RY ( 1) H 12            0.51    1.56   0.025
   12. BD ( 1) C  5- H  7      18. BD*( 1) O  1- C  2      0.81    1.20   0.028
   12. BD ( 1) C  5- H  7      20. BD*( 1) C  2- H  4      3.52    1.36   0.062
   12. BD ( 1) C  5- H  7      39. RY ( 2) C  2            0.51    2.17   0.030
   13. BD ( 1) C  5- H  9      18. BD*( 1) O  1- C  2      0.94    1.20   0.030
   13. BD ( 1) C  5- H  9      22. BD*( 1) C  2- C  6      3.91    1.29   0.063
   14. BD ( 1) C  5- H 11      18. BD*( 1) O  1- C  2      4.99    1.21   0.069
   14. BD ( 1) C  5- H 11      38. RY ( 1) C  2            0.55    1.72   0.028
   15. BD ( 1) C  6- H  8      18. BD*( 1) O  1- C  2      0.72    1.21   0.026
   15. BD ( 1) C  6- H  8      20. BD*( 1) C  2- H  4      3.44    1.37   0.061
   15. BD ( 1) C  6- H  8      38. RY ( 1) C  2            1.04    1.72   0.038
   16. BD ( 1) C  6- H 10      18. BD*( 1) O  1- C  2      0.70    1.21   0.026
   16. BD ( 1) C  6- H 10      21. BD*( 1) C  2- C  5      3.66    1.32   0.062
   16. BD ( 1) C  6- H 10      41. RY ( 4) C  2            0.53    1.81   0.028
   17. BD ( 1) C  6- H 12      18. BD*( 1) O  1- C  2      5.62    1.21   0.074


 NATURAL BOND ORBITALS (Summary):

                                                     Principal Delocalizations
           NBO                 Occupancy    Energy   (geminal,vicinal,remote)
 ===============================================================================
 Molecular unit  1  (C3H8O)
 ------ Lewis --------------------------------------
    1. CR ( 1) O  1             1.99999   -20.55030
    2. CR ( 1) C  2             1.99999   -11.27605
    3. CR ( 1) C  5             1.99999   -11.20615
    4. CR ( 1) C  6             1.99999   -11.21384
    5. LP ( 1) O  1             1.98700    -0.74776  38(v),20(v),21(v),22(v)
                                                     25(r)
    6. LP ( 2) O  1             1.97308    -0.47610  20(v),22(v),40(v),28(r)
    7. BD ( 1) O  1- C  2       1.99378    -0.94513  25(v),28(v)
    8. BD ( 1) O  1- H  3       1.99122    -0.86324  21(v),38(v),42(v)
    9. BD ( 1) C  2- H  4       1.98268    -0.64647  26(v),23(v),29(v),59(v)
                                                     50(v)
   10. BD ( 1) C  2- C  5       1.98543    -0.71991  19(v),27(v),58(v),30(v)
                                                     48(v),22(g),24(g),71(v)
                                                     69(v),23(g),20(g),67(v)
   11. BD ( 1) C  2- C  6       1.99018    -0.72555  24(v),49(v),29(v),21(g)
                                                     48(v),28(g),27(g),26(g)
                                                     68(v),72(v)
   12. BD ( 1) C  5- H  7       1.99075    -0.63150  20(v),18(v),39(v)
   13. BD ( 1) C  5- H  9       1.99028    -0.63156  22(v),18(v)
   14. BD ( 1) C  5- H 11       1.98875    -0.63682  18(v),38(v)
   15. BD ( 1) C  6- H  8       1.99105    -0.63882  20(v),38(v),18(v)
   16. BD ( 1) C  6- H 10       1.99079    -0.64353  21(v),18(v),41(v)
   17. BD ( 1) C  6- H 12       1.98841    -0.64334  18(v)
 ------ non-Lewis ----------------------------------
   18. BD*( 1) O  1- C  2       0.02291     0.56975
   19. BD*( 1) O  1- H  3       0.00497     0.73197
   20. BD*( 1) C  2- H  4       0.02627     0.72766
   21. BD*( 1) C  2- C  5       0.01474     0.67208
   22. BD*( 1) C  2- C  6       0.01940     0.66192
   23. BD*( 1) C  5- H  7       0.00701     0.72711
   24. BD*( 1) C  5- H  9       0.00445     0.73908
   25. BD*( 1) C  5- H 11       0.00363     0.72457
   26. BD*( 1) C  6- H  8       0.00701     0.72134
   27. BD*( 1) C  6- H 10       0.00474     0.71215
   28. BD*( 1) C  6- H 12       0.00503     0.71791
   29. RY ( 1) O  1             0.00234     1.34955
   30. RY ( 2) O  1             0.00182     1.52078
   31. RY ( 3) O  1             0.00045     1.76394
   32. RY ( 4) O  1             0.00001     2.04967
   33. RY ( 5) O  1             0.00001     2.09334
   34. RY ( 6) O  1             0.00000     2.14037
   35. RY ( 7) O  1             0.00000     2.32472
   36. RY ( 8) O  1             0.00000     2.30389
   37. RY ( 9) O  1             0.00000     2.69501
   38. RY ( 1) C  2             0.00408     1.08279
   39. RY ( 2) C  2             0.00227     1.53773
   40. RY ( 3) C  2             0.00158     2.06482
   41. RY ( 4) C  2             0.00089     1.17118
   42. RY ( 5) C  2             0.00088     2.46738
   43. RY ( 6) C  2             0.00064     2.17331
   44. RY ( 7) C  2             0.00016     2.26909
   45. RY ( 8) C  2             0.00010     2.11823
   46. RY ( 9) C  2             0.00000     1.60670
   47. RY ( 1) H  3             0.00134     0.83891
   48. RY ( 1) H  4             0.00240     0.79776
   49. RY ( 1) C  5             0.00288     1.04820
   50. RY ( 2) C  5             0.00220     1.03516
   51. RY ( 3) C  5             0.00052     1.46551
   52. RY ( 4) C  5             0.00011     1.21885
   53. RY ( 5) C  5             0.00003     2.19770
   54. RY ( 6) C  5             0.00001     2.18080
   55. RY ( 7) C  5             0.00001     2.13084
   56. RY ( 8) C  5             0.00001     2.13014
   57. RY ( 9) C  5             0.00000     2.44732
   58. RY ( 1) C  6             0.00275     1.06731
   59. RY ( 2) C  6             0.00147     1.03236
   60. RY ( 3) C  6             0.00037     1.44213
   61. RY ( 4) C  6             0.00013     1.97900
   62. RY ( 5) C  6             0.00005     1.23778
   63. RY ( 6) C  6             0.00001     2.20391
   64. RY ( 7) C  6             0.00000     2.18502
   65. RY ( 8) C  6             0.00000     2.18457
   66. RY ( 9) C  6             0.00000     2.41838
   67. RY ( 1) H  7             0.00150     0.85329
   68. RY ( 1) H  8             0.00162     0.84437
   69. RY ( 1) H  9             0.00105     0.83775
   70. RY ( 1) H 10             0.00102     0.83400
   71. RY ( 1) H 11             0.00081     0.84425
   72. RY ( 1) H 12             0.00099     0.83417
          -------------------------------
                 Total Lewis   33.84335  ( 99.5393%)
           Valence non-Lewis    0.12016  (  0.3534%)
           Rydberg non-Lewis    0.03650  (  0.1073%)
          -------------------------------
               Total unit  1   34.00000  (100.0000%)
              Charge unit  1    0.00000

 $CHOOSE
   LONE 1 2 END
   BOND S 1 2 S 1 3 S 2 4 S 2 5 S 2 6 S 5 7 S 5 9 S 5 11 S 6 8 S 6 10 S 6 12
        END
 $END

 NBO analysis completed in 0.97 CPU seconds (1 wall second)
 Maximum scratch memory used by NBO was 356789 words (2.72 MB)
 Maximum scratch memory used by G16NBO was 16524 words (0.13 MB)

 Opening RunExU unformatted file "/cluster/work/users/beto93/mol128/Gau-2836235.EUF"
 Read unf file /cluster/work/users/beto93/mol128/Gau-2836235.EUF:
 Label Gaussian matrix elements                                         IVers= 2 NLab= 2 Version=ES64L-G16RevC.01
 Title mol128-NBO                                                      
 NAtoms=    12 NBasis=    72 NBsUse=    72 ICharg=     0 Multip=     1 NE=    34 Len12L=8 Len4L=8 IOpCl= 0 ICGU=111
 GAUSSIAN SCALARS                    NI= 1 NR= 1 NTot=       1 LenBuf=    2 NRI=1 N=    1000
 NPA CHARGES                         NI= 0 NR= 1 NTot=      12 LenBuf= 4000 NRI=1 N=      12
 Recovered energy= -193.112345303     dipole=      0.497983477273     -0.318324846761      0.384679238863
 Unable to Open any file for archive entry.
 1\1\GINC-C1-33\SP\RHF\6-31G(d)\C3H8O1\BETO93\18-Nov-2024\0\\#RHF/6-31G
 * int=nobasistransform Symmetry=None 5D 7F Pop=NBO7Read\\mol128-NBO\\0
 ,1\O,0,0.027191,1.363691,-0.167516\C,0,-0.000926,0.036459,0.370128\H,0
 ,0.859465,1.775647,0.121307\H,0,0.007371,0.082145,1.470506\C,0,-1.3132
 75,-0.563514,-0.088979\C,0,1.200721,-0.76448,-0.10492\H,0,-1.334005,-0
 .607253,-1.181009\H,0,1.202843,-0.807817,-1.197189\H,0,-2.147812,0.054
 993,0.247676\H,0,2.136462,-0.299324,0.223164\H,0,-1.438709,-1.574275,0
 .30834\H,0,1.177736,-1.784436,0.289967\\Version=ES64L-G16RevC.01\HF=-1
 93.1123453\RMSD=4.669e-09\Dipole=0.4979835,-0.3183248,0.3846792\Quadru
 pole=0.733661,-0.5085504,-0.2251106,2.1204276,0.2322199,0.9346104\PG=U
 nknown\\@
 The archive entry for this job was punched.


 Mondays are the potholes in the road of life.
                                -- Tom Wilson
 Job cpu time:       0 days  0 hours  0 minutes 10.4 seconds.
 Elapsed time:       0 days  0 hours  0 minutes  3.3 seconds.
 File lengths (MBytes):  RWF=     15 Int=      0 D2E=      0 Chk=      2 Scr=      1
 Normal termination of Gaussian 16 at Mon Nov 18 16:41:12 2024.
