 Entering Gaussian System, Link 0=g16
 Initial command:
 /cluster/software/Gaussian/g16_C.01/l1.exe "/cluster/work/users/beto93/mol44/Gau-2204129.inp" -scrdir="/cluster/work/users/beto93/mol44/"
 Entering Link 1 = /cluster/software/Gaussian/g16_C.01/l1.exe PID=   2204134.
  
 Copyright (c) 1988-2019, Gaussian, Inc.  All Rights Reserved.
  
 This is part of the Gaussian(R) 16 program.  It is based on
 the Gaussian(R) 09 system (copyright 2009, Gaussian, Inc.),
 the Gaussian(R) 03 system (copyright 2003, Gaussian, Inc.),
 the Gaussian(R) 98 system (copyright 1998, Gaussian, Inc.),
 the Gaussian(R) 94 system (copyright 1995, Gaussian, Inc.),
 the Gaussian 92(TM) system (copyright 1992, Gaussian, Inc.),
 the Gaussian 90(TM) system (copyright 1990, Gaussian, Inc.),
 the Gaussian 88(TM) system (copyright 1988, Gaussian, Inc.),
 the Gaussian 86(TM) system (copyright 1986, Carnegie Mellon
 University), and the Gaussian 82(TM) system (copyright 1983,
 Carnegie Mellon University). Gaussian is a federally registered
 trademark of Gaussian, Inc.
  
 This software contains proprietary and confidential information,
 including trade secrets, belonging to Gaussian, Inc.
  
 This software is provided under written license and may be
 used, copied, transmitted, or stored only in accord with that
 written license.
  
 The following legend is applicable only to US Government
 contracts under FAR:
  
                    RESTRICTED RIGHTS LEGEND
  
 Use, reproduction and disclosure by the US Government is
 subject to restrictions as set forth in subparagraphs (a)
 and (c) of the Commercial Computer Software - Restricted
 Rights clause in FAR 52.227-19.
  
 Gaussian, Inc.
 340 Quinnipiac St., Bldg. 40, Wallingford CT 06492
  
  
 ---------------------------------------------------------------
 Warning -- This program may not be used in any manner that
 competes with the business of Gaussian, Inc. or will provide
 assistance to any competitor of Gaussian, Inc.  The licensee
 of this program is prohibited from giving any competitor of
 Gaussian, Inc. access to this program.  By using this program,
 the user acknowledges that Gaussian, Inc. is engaged in the
 business of creating and licensing software in the field of
 computational chemistry and represents and warrants to the
 licensee that it is not a competitor of Gaussian, Inc. and that
 it will not use this program in any manner prohibited above.
 ---------------------------------------------------------------
  

 Cite this work as:
 Gaussian 16, Revision C.01,
 M. J. Frisch, G. W. Trucks, H. B. Schlegel, G. E. Scuseria, 
 M. A. Robb, J. R. Cheeseman, G. Scalmani, V. Barone, 
 G. A. Petersson, H. Nakatsuji, X. Li, M. Caricato, A. V. Marenich, 
 J. Bloino, B. G. Janesko, R. Gomperts, B. Mennucci, H. P. Hratchian, 
 J. V. Ortiz, A. F. Izmaylov, J. L. Sonnenberg, D. Williams-Young, 
 F. Ding, F. Lipparini, F. Egidi, J. Goings, B. Peng, A. Petrone, 
 T. Henderson, D. Ranasinghe, V. G. Zakrzewski, J. Gao, N. Rega, 
 G. Zheng, W. Liang, M. Hada, M. Ehara, K. Toyota, R. Fukuda, 
 J. Hasegawa, M. Ishida, T. Nakajima, Y. Honda, O. Kitao, H. Nakai, 
 T. Vreven, K. Throssell, J. A. Montgomery, Jr., J. E. Peralta, 
 F. Ogliaro, M. J. Bearpark, J. J. Heyd, E. N. Brothers, K. N. Kudin, 
 V. N. Staroverov, T. A. Keith, R. Kobayashi, J. Normand, 
 K. Raghavachari, A. P. Rendell, J. C. Burant, S. S. Iyengar, 
 J. Tomasi, M. Cossi, J. M. Millam, M. Klene, C. Adamo, R. Cammi, 
 J. W. Ochterski, R. L. Martin, K. Morokuma, O. Farkas, 
 J. B. Foresman, and D. J. Fox, Gaussian, Inc., Wallingford CT, 2019.
 
 ******************************************
 Gaussian 16:  ES64L-G16RevC.01  3-Jul-2019
                18-Nov-2024 
 ******************************************
 %LindaWorkers=c2-23-ib
 %NProcShared=4
 Will use up to    4 processors via shared memory.
 %mem=25GB
 %chk=mol44.chk
 SetLPE:    new flags="-opt 'Tsnet.Node.lindarsharg: ssh'  -nodelist 'c2-23-ib.saga' -env GAUSS_MDEF=3355443200 -env GAUSS_EXEDIR="/cluster/software/Gaussian/g16_C.01/bsd:/cluster/software/Gaussian/g16_C.01""
 Will use up to    1 processors via Linda.
 -----------------------------------------------------------------
 #RHF/STO-3G int=nobasistransform Symmetry=None 5D 7F Pop=NBO7Read
 -----------------------------------------------------------------
 1/38=1,163=2,172=1/1;
 2/12=2,15=3,17=6,18=5,40=1/2;
 3/6=3,8=11,11=1,25=1,30=1,60=-1,116=1/1,2,3;
 4//1;
 5/5=2,38=5/2;
 6/7=2,8=2,9=2,10=2,28=1,40=2,113=1,114=1,124=2103/1,12;
 99/5=1,9=1/99;
 ---------
 mol44-NBO
 ---------
 Symbolic Z-matrix:
 Charge =  0 Multiplicity = 1
 Na                    0.        0.       -1.45166 
 Cl                    0.        0.        0.93931 
 
                          Input orientation:                          
 ---------------------------------------------------------------------
 Center     Atomic      Atomic             Coordinates (Angstroms)
 Number     Number       Type             X           Y           Z
 ---------------------------------------------------------------------
      1         11           0        0.000000    0.000000   -1.451660
      2         17           0        0.000000    0.000000    0.939310
 ---------------------------------------------------------------------
 Symmetry turned off by external request.
 Stoichiometry    ClNa
 Rotational constants (GHZ):           0.0000000           6.3733974           6.3733974
 Standard basis: STO-3G (5D, 7F)
    18 basis functions,    54 primitive gaussians,    18 cartesian basis functions
    14 alpha electrons       14 beta electrons
       nuclear repulsion energy        41.3874446112 Hartrees.
 NAtoms=    2 NActive=    2 NUniq=    2 SFac= 1.00D+00 NAtFMM=   60 NAOKFM=F Big=F
 Integral buffers will be    131072 words long.
 Raffenetti 1 integral format.
 Two-electron integral symmetry is turned off.
 One-electron integrals computed using PRISM.
 NBasis=    18 RedAO= T EigKep=  4.11D-01  NBF=    18
 NBsUse=    18 1.00D-06 EigRej= -1.00D+00 NBFU=    18
 ExpMin= 1.61D-01 ExpMax= 6.01D+02 ExpMxC= 6.01D+02 IAcc=3 IRadAn=         5 AccDes= 0.00D+00
 Harris functional with IExCor=  205 and IRadAn=       5 diagonalized for initial guess.
 HarFok:  IExCor=  205 AccDes= 0.00D+00 IRadAn=         5 IDoV= 1 UseB2=F ITyADJ=14
 ICtDFT=  3500011 ScaDFX=  1.000000  1.000000  1.000000  1.000000
 FoFCou: FMM=F IPFlag=           0 FMFlag=      100000 FMFlg1=           0
         NFxFlg=           0 DoJE=T BraDBF=F KetDBF=T FulRan=T
         wScrn=  0.000000 ICntrl=       500 IOpCl=  0 I1Cent=   200000004 NGrid=           0
         NMat0=    1 NMatS0=      1 NMatT0=    0 NMatD0=    1 NMtDS0=    0 NMtDT0=    0
 Symmetry not used in FoFCou.
 Keep R1 ints in memory in canonical form, NReq=818497.
 Requested convergence on RMS density matrix=1.00D-08 within 128 cycles.
 Requested convergence on MAX density matrix=1.00D-06.
 Requested convergence on             energy=1.00D-06.
 No special actions if energy rises.
 SCF Done:  E(RHF) =  -614.522307566     A.U. after    8 cycles
            NFock=  8  Conv=0.34D-08     -V/T= 2.0178

 **********************************************************************

            Population analysis using the SCF Density.

 **********************************************************************

 Alpha  occ. eigenvalues -- -103.32089 -40.29408 -10.03769  -7.47931  -7.47777
 Alpha  occ. eigenvalues --   -7.47777  -2.84400  -1.49866  -1.49866  -1.49752
 Alpha  occ. eigenvalues --   -0.77072  -0.21340  -0.19724  -0.19724
 Alpha virt. eigenvalues --    0.38058   0.66686   0.66686   0.80889
          Condensed to atoms (all electrons):
               1          2
     1  Na  10.096421   0.094503
     2  Cl   0.094503  17.714572
 Mulliken charges:
               1
     1  Na   0.809075
     2  Cl  -0.809075
 Sum of Mulliken charges =  -0.00000
 Mulliken charges with hydrogens summed into heavy atoms:
               1
     1  Na   0.809075
     2  Cl  -0.809075
 Electronic spatial extent (au):  <R**2>=            166.8820
 Charge=             -0.0000 electrons
 Dipole moment (field-independent basis, Debye):
    X=             -0.0000    Y=             -0.0000    Z=             -9.9916  Tot=              9.9916
 Quadrupole moment (field-independent basis, Debye-Ang):
   XX=            -15.7894   YY=            -15.7894   ZZ=             -9.4985
   XY=             -0.0000   XZ=             -0.0000   YZ=              0.0000
 Traceless Quadrupole moment (field-independent basis, Debye-Ang):
   XX=             -2.0970   YY=             -2.0970   ZZ=              4.1939
   XY=             -0.0000   XZ=             -0.0000   YZ=              0.0000
 Octapole moment (field-independent basis, Debye-Ang**2):
  XXX=             -0.0000  YYY=             -0.0000  ZZZ=            -37.9399  XYY=             -0.0000
  XXY=             -0.0000  XXZ=             -6.9801  XZZ=              0.0000  YZZ=             -0.0000
  YYZ=             -6.9801  XYZ=              0.0000
 Hexadecapole moment (field-independent basis, Debye-Ang**3):
 XXXX=            -11.8068 YYYY=            -11.8068 ZZZZ=            -97.9043 XXXY=             -0.0000
 XXXZ=             -0.0000 YYYX=             -0.0000 YYYZ=              0.0000 ZZZX=             -0.0000
 ZZZY=              0.0000 XXYY=             -3.9356 XXZZ=            -21.4493 YYZZ=            -21.4493
 XXYZ=              0.0000 YYXZ=             -0.0000 ZZXY=             -0.0000
 N-N= 4.138744461120D+01 E-N=-1.545989704455D+03  KE= 6.037800913905D+02
 Running external command "gaunbo7 R"
         input file       "/cluster/work/users/beto93/mol44/Gau-2204134.EIn"
         output file      "/cluster/work/users/beto93/mol44/Gau-2204134.EOu"
         message file     "/cluster/work/users/beto93/mol44/Gau-2204134.EMs"
         fchk file        "/cluster/work/users/beto93/mol44/Gau-2204134.EFC"
         mat. el file     "/cluster/work/users/beto93/mol44/Gau-2204134.EUF"

 Writing WrtUnf unformatted file "/cluster/work/users/beto93/mol44/Gau-2204134.EUF"
 Gaussian matrix elements                                         Version   2 NLab=11 Len12L=8 Len4L=8
 Write SHELL TO ATOM MAP                   from file      0 offset           0 length                   6 to matrix element file.
 Write SHELL TYPES                         from file      0 offset           0 length                   6 to matrix element file.
 Write NUMBER OF PRIMITIVES PER SHELL      from file      0 offset           0 length                   6 to matrix element file.
 Write PRIMITIVE EXPONENTS                 from file      0 offset           0 length                  18 to matrix element file.
 Write CONTRACTION COEFFICIENTS            from file      0 offset           0 length                  18 to matrix element file.
 Write P(S=P) CONTRACTION COEFFICIENTS     from file      0 offset           0 length                  18 to matrix element file.
 Write COORDINATES OF EACH SHELL           from file      0 offset           0 length                  18 to matrix element file.
 Write BONDS PER ATOM                      from file      0 offset           0 length                   2 to matrix element file.
 Write BONDED ATOMS                        from file      0 offset           0 length                   2 to matrix element file.
 Write BOND TYPES                          from file      0 offset           0 length                   2 to matrix element file.
 Write ONIOM CHARGE/MULT                   from file      0 offset           0 length                  32 to matrix element file.
 Write ONIOM ATOM LAYERS                   from file      0 offset           0 length                   2 to matrix element file.
 Write ONIOM ATOM MODIFIERS                from file      0 offset           0 length                   2 to matrix element file.
 Write ONIOM ATOM TYPES                    from file      0 offset           0 length                   2 to matrix element file.
 Write ONIOM LINK ATOMS                    from file      0 offset           0 length                   2 to matrix element file.
 Write ONIOM LINK CHARGES                  from file      0 offset           0 length                   2 to matrix element file.
 Write ONIOM LINK DISTANCES                from file      0 offset           0 length                   8 to matrix element file.
 Write SYMINF INTS                         from file      0 offset           0 length                  26 to matrix element file.
 Write ROTTR TO SO                         from file      0 offset           0 length                  12 to matrix element file.
 Write GAUSSIAN SCALARS                    from file    501 offset           0 to matrix element file.
 Write OPTIMIZATION FLAGS                  from file      0 offset           0 length                   2 to matrix element file.
 Write INTEGER ISO                         from file      0 offset           0 length                   2 to matrix element file.
 Write INTEGER SPIN                        from file      0 offset           0 length                   2 to matrix element file.
 Write REAL ZEFFECTIVE                     from file      0 offset           0 length                   2 to matrix element file.
 Write REAL QUADRUPOLEMOMENT               from file      0 offset           0 length                   2 to matrix element file.
 Write REAL GFACTOR                        from file      0 offset           0 length                   2 to matrix element file.
 Write REAL ZNUCLEAR                       from file      0 offset           0 length                   2 to matrix element file.
 Write MULLIKEN CHARGES                    from file      0 offset           0 length                   2 to matrix element file.
 Write NUCLEAR GRADIENT                    from file  10584 offset           0 length                   6 to matrix element file.
 Array NUCLEAR FORCE CONSTANTS              on  file  10585 does not exist.
 Write ELECTRIC DIPOLE MOMENT              from file      0 offset           0 length                   3 to matrix element file.
 Write NON-ADIABATIC COUPLING              from file  10810 offset           0 length                   6 to matrix element file.
 Write FINITE EM FIELD                     from file  10521 offset           0 length                  35 to matrix element file.
 Write OVERLAP                             from file  10514 offset           0 length                 171 to matrix element file.
 Write CORE HAMILTONIAN ALPHA              from file  10515 offset           0 length                 171 to matrix element file.
 Write CORE HAMILTONIAN BETA               from file  10515 offset         171 length                 171 to matrix element file.
 Write KINETIC ENERGY                      from file  10516 offset           0 length                 171 to matrix element file.
 Write ORTHOGONAL BASIS                    from file  10685 offset           0 length                 324 to matrix element file.
 Write DIPOLE INTEGRALS                    from file  10518 offset           0 length                 513 to matrix element file.
 Array DIP VEL INTEGRALS                    on  file  10572 does not exist.
 Array R X DEL INTEGRALS                    on  file  10572 does not exist.
 Write ALPHA ORBITAL ENERGIES              from file      0 offset           0 length                  18 to matrix element file.
 Write ALPHA MO COEFFICIENTS               from file  10524 offset           0 length                 324 to matrix element file.
 Write ALPHA DENSITY MATRIX                from file      0 offset           0 length                 171 to matrix element file.
 Write ALPHA FOCK MATRIX                   from file  10536 offset           0 length                 171 to matrix element file.
 Write ENERGY-WEIGHTED DENSITY             from file  10571 offset           0 length                 171 to matrix element file.
 Write ALPHA SCF DENSITY MATRIX            from file      0 offset           0 length                 171 to matrix element file.
 No 2e integrals to process.
 Perform NBO analysis...executing G16NBO...

 *********************************** NBO 7.0 ***********************************
             N A T U R A L   A T O M I C   O R B I T A L   A N D
          N A T U R A L   B O N D   O R B I T A L   A N A L Y S I S
 **************************** Espen Tangen (S101595) ***************************
  (c) Copyright 1996-2021 Board of Regents of the University of Wisconsin System
      on behalf of the Theoretical Chemistry Institute.  All rights reserved.

          Cite this program [NBO 7.0.10 (8-Feb-2021)] as:

          NBO 7.0.  E. D. Glendening, J. K. Badenhoop, A. E. Reed,
          J. E. Carpenter, J. A. Bohmann, C. M. Morales, P. Karafiloglou,
          C. R. Landis, and F. Weinhold, Theoretical Chemistry Institute,
          University of Wisconsin, Madison, WI (2018)

       /NPA    / : Natural Population Analysis
       /AOPNAO / : Print the AO to PNAO transformation
       /AONAO  / : Print the AO to NAO transformation
       /AOMO   / : Print the MOs in the AO basis
       /BOAO   / : Print the AO bond-order matrix
       /DMAO   / : Print the AO density matrix
       /DMPNAO / : Print the PNAO density matrix
       /DMNAO  / : Print the NAO density matrix
       /DMMO   / : Print the MO density matrix
       /SAO    / : Print the AO overlap matrix
       /SPNAO  / : Print the PNAO overlap matrix
       /DETAIL / : Write details of NBO search
       /ARCHIVE/ : Write the archive file to lfn47
       /AOINFO / : Write AO information to lfn31
       /FILE   / : Set to mol44.gen*

 Filename set to mol44.gen1

 Job title: mol44-NBO


 MOs in the AO basis:

           AO          1       2       3       4       5       6       7       8
      ------------ ------- ------- ------- ------- ------- ------- ------- -------
   1. Na 1 (s)      0.0000  0.9936 -0.0004  0.0004  0.0000  0.0000 -0.2997  0.0000
   2. Na 1 (s)     -0.0001  0.0226  0.0014 -0.0017  0.0000  0.0000  1.0038  0.0000
   3. Na 1 (px)     0.0000  0.0000  0.0000  0.0000  0.0007 -0.0001  0.0000  0.8993
   4. Na 1 (py)     0.0000  0.0000  0.0000  0.0000  0.0001  0.0007  0.0000 -0.1050
   5. Na 1 (pz)    -0.0001  0.0000  0.0020 -0.0024  0.0000  0.0000 -0.0161  0.0000
   6. Na 1 (s)      0.0002 -0.0062 -0.0044  0.0059  0.0000  0.0000  0.0727  0.0000
   7. Na 1 (px)     0.0000  0.0000  0.0000  0.0000 -0.0019  0.0002  0.0000  0.1766
   8. Na 1 (py)     0.0000  0.0000  0.0000  0.0000 -0.0002 -0.0019  0.0000 -0.0206
   9. Na 1 (pz)     0.0003 -0.0003 -0.0058  0.0077  0.0000  0.0000 -0.0046  0.0000
  10. Cl 2 (s)      0.9945  0.0000 -0.3771 -0.0021  0.0000  0.0000  0.0000  0.0000
  11. Cl 2 (s)      0.0158 -0.0001  1.0535  0.0059  0.0000  0.0000 -0.0001  0.0000
  12. Cl 2 (px)     0.0000  0.0000  0.0000  0.0000  0.9857 -0.0889  0.0000  0.0002
  13. Cl 2 (py)     0.0000  0.0000  0.0000  0.0000  0.0889  0.9857  0.0000  0.0000
  14. Cl 2 (pz)     0.0000  0.0001 -0.0046  0.9891  0.0000  0.0000 -0.0001  0.0000
  15. Cl 2 (s)     -0.0017  0.0007  0.0435 -0.0025  0.0000  0.0000 -0.0026  0.0000
  16. Cl 2 (px)     0.0000  0.0000  0.0000  0.0000  0.0406 -0.0037  0.0000 -0.0020
  17. Cl 2 (py)     0.0000  0.0000  0.0000  0.0000  0.0037  0.0406  0.0000  0.0002
  18. Cl 2 (pz)     0.0001 -0.0008 -0.0025  0.0438  0.0000  0.0000  0.0020  0.0000

           AO          9      10      11      12      13      14      15      16
      ------------ ------- ------- ------- ------- ------- ------- ------- -------
   1. Na 1 (s)      0.0000 -0.0066  0.0095 -0.0319  0.0000  0.0000  0.1428  0.0000
   2. Na 1 (s)      0.0000  0.0233 -0.0382  0.1300  0.0000  0.0000 -0.5757  0.0000
   3. Na 1 (px)     0.1050  0.0000  0.0000  0.0000 -0.0192 -0.0340  0.0000  0.0548
   4. Na 1 (py)     0.8993  0.0000  0.0000  0.0000 -0.0340  0.0192  0.0000 -0.6690
   5. Na 1 (pz)     0.0000  0.9050 -0.0546  0.1083  0.0000  0.0000  0.2027  0.0000
   6. Na 1 (s)      0.0000 -0.0067  0.0308 -0.1860  0.0000  0.0000  1.0846  0.0000
   7. Na 1 (px)     0.0206  0.0000  0.0000  0.0000  0.0225  0.0398  0.0000 -0.0910
   8. Na 1 (py)     0.1766  0.0000  0.0000  0.0000  0.0398 -0.0225  0.0000  1.1109
   9. Na 1 (pz)     0.0000  0.1781  0.0073 -0.0952  0.0000  0.0000 -0.2932  0.0000
  10. Cl 2 (s)      0.0000  0.0011  0.0885  0.0084  0.0000  0.0000 -0.0066  0.0000
  11. Cl 2 (s)      0.0000 -0.0045 -0.2905 -0.0269  0.0000  0.0000  0.0204  0.0000
  12. Cl 2 (px)     0.0000  0.0000  0.0000  0.0000 -0.1366 -0.2417  0.0000 -0.0022
  13. Cl 2 (py)     0.0002  0.0000  0.0000  0.0000 -0.2417  0.1366  0.0000  0.0265
  14. Cl 2 (pz)     0.0000  0.0020  0.0170 -0.2628  0.0000  0.0000 -0.0607  0.0000
  15. Cl 2 (s)      0.0000  0.0012  1.0180  0.1123  0.0000  0.0000 -0.0968  0.0000
  16. Cl 2 (px)    -0.0002  0.0000  0.0000  0.0000  0.5037  0.8914  0.0000  0.0088
  17. Cl 2 (py)    -0.0020  0.0000  0.0000  0.0000  0.8914 -0.5037  0.0000 -0.1070
  18. Cl 2 (pz)     0.0000  0.0001 -0.0597  0.9587  0.0000  0.0000  0.2398  0.0000

           AO         17      18
      ------------ ------- -------
   1. Na 1 (s)      0.0000  0.0423
   2. Na 1 (s)      0.0000 -0.1709
   3. Na 1 (px)    -0.6690  0.0000
   4. Na 1 (py)    -0.0548  0.0000
   5. Na 1 (pz)     0.0000 -0.6467
   6. Na 1 (s)      0.0000  0.3573
   7. Na 1 (px)     1.1109  0.0000
   8. Na 1 (py)     0.0910  0.0000
   9. Na 1 (pz)     0.0000  1.1375
  10. Cl 2 (s)      0.0000 -0.0154
  11. Cl 2 (s)      0.0000  0.0447
  12. Cl 2 (px)     0.0265  0.0000
  13. Cl 2 (py)     0.0022  0.0000
  14. Cl 2 (pz)     0.0000 -0.1004
  15. Cl 2 (s)      0.0000 -0.2685
  16. Cl 2 (px)    -0.1070  0.0000
  17. Cl 2 (py)    -0.0088  0.0000
  18. Cl 2 (pz)     0.0000  0.4293


 AO overlap matrix:

           AO          1       2       3       4       5       6       7       8
      ------------ ------- ------- ------- ------- ------- ------- ------- -------
   1. Na 1 (s)      1.0000  0.2785  0.0000  0.0000  0.0000  0.0223  0.0000  0.0000
   2. Na 1 (s)      0.2785  1.0000  0.0000  0.0000  0.0000  0.4495  0.0000  0.0000
   3. Na 1 (px)     0.0000  0.0000  1.0000  0.0000  0.0000  0.0000  0.4618  0.0000
   4. Na 1 (py)     0.0000  0.0000  0.0000  1.0000  0.0000  0.0000  0.0000  0.4618
   5. Na 1 (pz)     0.0000  0.0000  0.0000  0.0000  1.0000  0.0000  0.0000  0.0000
   6. Na 1 (s)      0.0223  0.4495  0.0000  0.0000  0.0000  1.0000  0.0000  0.0000
   7. Na 1 (px)     0.0000  0.0000  0.4618  0.0000  0.0000  0.0000  1.0000  0.0000
   8. Na 1 (py)     0.0000  0.0000  0.0000  0.4618  0.0000  0.0000  0.0000  1.0000
   9. Na 1 (pz)     0.0000  0.0000  0.0000  0.0000  0.4618  0.0000  0.0000  0.0000
  10. Cl 2 (s)      0.0000  0.0000  0.0000  0.0000  0.0000  0.0013  0.0000  0.0000
  11. Cl 2 (s)      0.0000  0.0000  0.0000  0.0000  0.0000  0.0100  0.0000  0.0000
  12. Cl 2 (px)     0.0000  0.0000  0.0000  0.0000  0.0000  0.0000  0.0015  0.0000
  13. Cl 2 (py)     0.0000  0.0000  0.0000  0.0000  0.0000  0.0000  0.0000  0.0015
  14. Cl 2 (pz)     0.0000  0.0000  0.0000  0.0000  0.0000 -0.0052  0.0000  0.0000
  15. Cl 2 (s)      0.0008  0.0121  0.0000  0.0000  0.0136  0.1286  0.0000  0.0000
  16. Cl 2 (px)     0.0000  0.0000  0.0033  0.0000  0.0000  0.0000  0.0562  0.0000
  17. Cl 2 (py)     0.0000  0.0000  0.0000  0.0033  0.0000  0.0000  0.0000  0.0562
  18. Cl 2 (pz)    -0.0017 -0.0230  0.0000  0.0000 -0.0237 -0.1601  0.0000  0.0000

           AO          9      10      11      12      13      14      15      16
      ------------ ------- ------- ------- ------- ------- ------- ------- -------
   1. Na 1 (s)      0.0000  0.0000  0.0000  0.0000  0.0000  0.0000  0.0008  0.0000
   2. Na 1 (s)      0.0000  0.0000  0.0000  0.0000  0.0000  0.0000  0.0121  0.0000
   3. Na 1 (px)     0.0000  0.0000  0.0000  0.0000  0.0000  0.0000  0.0000  0.0033
   4. Na 1 (py)     0.0000  0.0000  0.0000  0.0000  0.0000  0.0000  0.0000  0.0000
   5. Na 1 (pz)     0.4618  0.0000  0.0000  0.0000  0.0000  0.0000  0.0136  0.0000
   6. Na 1 (s)      0.0000  0.0013  0.0100  0.0000  0.0000 -0.0052  0.1286  0.0000
   7. Na 1 (px)     0.0000  0.0000  0.0000  0.0015  0.0000  0.0000  0.0000  0.0562
   8. Na 1 (py)     0.0000  0.0000  0.0000  0.0000  0.0015  0.0000  0.0000  0.0000
   9. Na 1 (pz)     1.0000  0.0024  0.0185  0.0000  0.0000 -0.0086  0.1885  0.0000
  10. Cl 2 (s)      0.0024  1.0000  0.3438  0.0000  0.0000  0.0000  0.0133  0.0000
  11. Cl 2 (s)      0.0185  0.3438  1.0000  0.0000  0.0000  0.0000  0.2185  0.0000
  12. Cl 2 (px)     0.0000  0.0000  0.0000  1.0000  0.0000  0.0000  0.0000  0.2326
  13. Cl 2 (py)     0.0000  0.0000  0.0000  0.0000  1.0000  0.0000  0.0000  0.0000
  14. Cl 2 (pz)    -0.0086  0.0000  0.0000  0.0000  0.0000  1.0000  0.0000  0.0000
  15. Cl 2 (s)      0.1885  0.0133  0.2185  0.0000  0.0000  0.0000  1.0000  0.0000
  16. Cl 2 (px)     0.0000  0.0000  0.0000  0.2326  0.0000  0.0000  0.0000  1.0000
  17. Cl 2 (py)     0.0000  0.0000  0.0000  0.0000  0.2326  0.0000  0.0000  0.0000
  18. Cl 2 (pz)    -0.2192  0.0000  0.0000  0.0000  0.0000  0.2326  0.0000  0.0000

           AO         17      18
      ------------ ------- -------
   1. Na 1 (s)      0.0000 -0.0017
   2. Na 1 (s)      0.0000 -0.0230
   3. Na 1 (px)     0.0000  0.0000
   4. Na 1 (py)     0.0033  0.0000
   5. Na 1 (pz)     0.0000 -0.0237
   6. Na 1 (s)      0.0000 -0.1601
   7. Na 1 (px)     0.0000  0.0000
   8. Na 1 (py)     0.0562  0.0000
   9. Na 1 (pz)     0.0000 -0.2192
  10. Cl 2 (s)      0.0000  0.0000
  11. Cl 2 (s)      0.0000  0.0000
  12. Cl 2 (px)     0.0000  0.0000
  13. Cl 2 (py)     0.2326  0.0000
  14. Cl 2 (pz)     0.0000  0.2326
  15. Cl 2 (s)      0.0000  0.0000
  16. Cl 2 (px)     0.0000  0.0000
  17. Cl 2 (py)     1.0000  0.0000
  18. Cl 2 (pz)     0.0000  1.0000


 AO bond-order matrix:

           AO          1       2       3       4       5       6       7       8
      ------------ ------- ------- ------- ------- ------- ------- ------- -------
   1. Na 1 (s)      2.1566 -0.5661  0.0000  0.0000 -0.0103 -0.0433  0.0000  0.0000
   2. Na 1 (s)     -0.5661  2.0542  0.0000  0.0000  0.0422  0.0947  0.0000  0.0000
   3. Na 1 (px)     0.0000  0.0000  1.6425  0.0000  0.0000  0.0000  0.3184  0.0000
   4. Na 1 (py)     0.0000  0.0000  0.0000  1.6425  0.0000  0.0000  0.0000  0.3184
   5. Na 1 (pz)    -0.0103  0.0422  0.0000  0.0000  1.6679 -0.0581  0.0000  0.0000
   6. Na 1 (s)     -0.0433  0.0947  0.0000  0.0000 -0.0581  0.0819  0.0000  0.0000
   7. Na 1 (px)     0.0000  0.0000  0.3184  0.0000  0.0000  0.0000  0.0674  0.0000
   8. Na 1 (py)     0.0000  0.0000  0.0000  0.3184  0.0000  0.0000  0.0000  0.0674
   9. Na 1 (pz)     0.0061 -0.0264  0.0000  0.0000  0.3010  0.0330  0.0000  0.0000
  10. Cl 2 (s)      0.0015 -0.0058  0.0000  0.0000 -0.0075  0.0060  0.0000  0.0000
  11. Cl 2 (s)     -0.0046  0.0178  0.0000  0.0000  0.0219 -0.0170  0.0000  0.0000
  12. Cl 2 (px)     0.0000  0.0000  0.0234  0.0000  0.0000  0.0000 -0.0291  0.0000
  13. Cl 2 (py)     0.0000  0.0000  0.0000  0.0234  0.0000  0.0000  0.0000 -0.0291
  14. Cl 2 (pz)     0.0183 -0.0731  0.0000  0.0000 -0.0600  0.1105  0.0000  0.0000
  15. Cl 2 (s)      0.0151 -0.0535  0.0000  0.0000 -0.0842  0.0201  0.0000  0.0000
  16. Cl 2 (px)     0.0000  0.0000 -0.0835  0.0000  0.0000  0.0000  0.0928  0.0000
  17. Cl 2 (py)     0.0000  0.0000  0.0000 -0.0835  0.0000  0.0000  0.0000  0.0928
  18. Cl 2 (pz)    -0.0650  0.2575  0.0000  0.0000  0.2142 -0.3595  0.0000  0.0000

           AO          9      10      11      12      13      14      15      16
      ------------ ------- ------- ------- ------- ------- ------- ------- -------
   1. Na 1 (s)      0.0061  0.0015 -0.0046  0.0000  0.0000  0.0183  0.0151  0.0000
   2. Na 1 (s)     -0.0264 -0.0058  0.0178  0.0000  0.0000 -0.0731 -0.0535  0.0000
   3. Na 1 (px)     0.0000  0.0000  0.0000  0.0234  0.0000  0.0000  0.0000 -0.0835
   4. Na 1 (py)     0.0000  0.0000  0.0000  0.0000  0.0234  0.0000  0.0000  0.0000
   5. Na 1 (pz)     0.3010 -0.0075  0.0219  0.0000  0.0000 -0.0600 -0.0842  0.0000
   6. Na 1 (s)      0.0330  0.0060 -0.0170  0.0000  0.0000  0.1105  0.0201  0.0000
   7. Na 1 (px)     0.0000  0.0000  0.0000 -0.0291  0.0000  0.0000  0.0000  0.0928
   8. Na 1 (py)     0.0000  0.0000  0.0000  0.0000 -0.0291  0.0000  0.0000  0.0000
   9. Na 1 (pz)     0.0819  0.0050 -0.0128  0.0000  0.0000  0.0663 -0.0067  0.0000
  10. Cl 2 (s)      0.0050  2.2783 -0.8151  0.0000  0.0000 -0.0022  0.1459  0.0000
  11. Cl 2 (s)     -0.0128 -0.8151  2.3906  0.0000  0.0000  0.0063 -0.5061  0.0000
  12. Cl 2 (px)     0.0000  0.0000  0.0000  2.1133  0.0000  0.0000  0.0000 -0.4878
  13. Cl 2 (py)     0.0000  0.0000  0.0000  0.0000  2.1133  0.0000  0.0000  0.0000
  14. Cl 2 (pz)     0.0663 -0.0022  0.0063  0.0000  0.0000  2.0952 -0.0297  0.0000
  15. Cl 2 (s)     -0.0067  0.1459 -0.5061  0.0000  0.0000 -0.0297  2.1017  0.0000
  16. Cl 2 (px)     0.0000  0.0000  0.0000 -0.4878  0.0000  0.0000  0.0000  2.0998
  17. Cl 2 (py)     0.0000  0.0000  0.0000  0.0000 -0.4878  0.0000  0.0000  0.0000
  18. Cl 2 (pz)    -0.1827  0.0075 -0.0218  0.0000  0.0000 -0.4192  0.0933  0.0000

           AO         17      18
      ------------ ------- -------
   1. Na 1 (s)      0.0000 -0.0650
   2. Na 1 (s)      0.0000  0.2575
   3. Na 1 (px)     0.0000  0.0000
   4. Na 1 (py)    -0.0835  0.0000
   5. Na 1 (pz)     0.0000  0.2142
   6. Na 1 (s)      0.0000 -0.3595
   7. Na 1 (px)     0.0000  0.0000
   8. Na 1 (py)     0.0928  0.0000
   9. Na 1 (pz)     0.0000 -0.1827
  10. Cl 2 (s)      0.0000  0.0075
  11. Cl 2 (s)      0.0000 -0.0218
  12. Cl 2 (px)     0.0000  0.0000
  13. Cl 2 (py)    -0.4878  0.0000
  14. Cl 2 (pz)     0.0000 -0.4192
  15. Cl 2 (s)      0.0000  0.0933
  16. Cl 2 (px)     0.0000  0.0000
  17. Cl 2 (py)     2.0998  0.0000
  18. Cl 2 (pz)     0.0000  1.8492


 AO density matrix:

           AO          1       2       3       4       5       6       7       8
      ------------ ------- ------- ------- ------- ------- ------- ------- -------
   1. Na 1 (s)      1.9999  0.5577  0.0000  0.0000 -0.0003  0.0344  0.0000  0.0000
   2. Na 1 (s)      0.5577  1.9936  0.0000  0.0000  0.0035  0.9890  0.0000  0.0000
   3. Na 1 (px)     0.0000  0.0000  1.9507  0.0000  0.0000  0.0000  1.1742  0.0000
   4. Na 1 (py)     0.0000  0.0000  0.0000  1.9507  0.0000  0.0000  0.0000  1.1742
   5. Na 1 (pz)    -0.0003  0.0035  0.0000  0.0000  1.9562 -0.0454  0.0000  0.0000
   6. Na 1 (s)      0.0344  0.9890  0.0000  0.0000 -0.0454  0.7232  0.0000  0.0000
   7. Na 1 (px)     0.0000  0.0000  1.1742  0.0000  0.0000  0.0000  0.7243  0.0000
   8. Na 1 (py)     0.0000  0.0000  0.0000  1.1742  0.0000  0.0000  0.0000  0.7243
   9. Na 1 (pz)     0.0010 -0.0135  0.0000  0.0000  1.1442  0.1705  0.0000  0.0000
  10. Cl 2 (s)      0.0000  0.0000  0.0000  0.0000 -0.0001  0.0029  0.0000  0.0000
  11. Cl 2 (s)      0.0000  0.0004  0.0000  0.0000  0.0012  0.0143  0.0000  0.0000
  12. Cl 2 (px)     0.0000  0.0000  0.0010  0.0000  0.0000  0.0000 -0.0023  0.0000
  13. Cl 2 (py)     0.0000  0.0000  0.0000  0.0010  0.0000  0.0000  0.0000 -0.0023
  14. Cl 2 (pz)     0.0001 -0.0012  0.0000  0.0000 -0.0023  0.0065  0.0000  0.0000
  15. Cl 2 (s)      0.0017  0.0226  0.0000  0.0000  0.0261  0.2798  0.0000  0.0000
  16. Cl 2 (px)     0.0000  0.0000 -0.0062  0.0000  0.0000  0.0000  0.1774  0.0000
  17. Cl 2 (py)     0.0000  0.0000  0.0000 -0.0062  0.0000  0.0000  0.0000  0.1774
  18. Cl 2 (pz)    -0.0054 -0.0295  0.0000  0.0000 -0.0304 -0.5566  0.0000  0.0000

           AO          9      10      11      12      13      14      15      16
      ------------ ------- ------- ------- ------- ------- ------- ------- -------
   1. Na 1 (s)      0.0010  0.0000  0.0000  0.0000  0.0000  0.0001  0.0017  0.0000
   2. Na 1 (s)     -0.0135  0.0000  0.0004  0.0000  0.0000 -0.0012  0.0226  0.0000
   3. Na 1 (px)     0.0000  0.0000  0.0000  0.0010  0.0000  0.0000  0.0000 -0.0062
   4. Na 1 (py)     0.0000  0.0000  0.0000  0.0000  0.0010  0.0000  0.0000  0.0000
   5. Na 1 (pz)     1.1442 -0.0001  0.0012  0.0000  0.0000 -0.0023  0.0261  0.0000
   6. Na 1 (s)      0.1705  0.0029  0.0143  0.0000  0.0000  0.0065  0.2798  0.0000
   7. Na 1 (px)     0.0000  0.0000  0.0000 -0.0023  0.0000  0.0000  0.0000  0.1774
   8. Na 1 (py)     0.0000  0.0000  0.0000  0.0000 -0.0023  0.0000  0.0000  0.0000
   9. Na 1 (pz)     0.8863  0.0052  0.0308  0.0000  0.0000 -0.0046  0.3834  0.0000
  10. Cl 2 (s)      0.0052  2.0000  0.6876  0.0000  0.0000  0.0000  0.0265  0.0000
  11. Cl 2 (s)      0.0308  0.6876  1.9999  0.0000  0.0000  0.0002  0.4371  0.0000
  12. Cl 2 (px)     0.0000  0.0000  0.0000  2.0000  0.0000  0.0000  0.0000  0.4654
  13. Cl 2 (py)     0.0000  0.0000  0.0000  0.0000  2.0000  0.0000  0.0000  0.0000
  14. Cl 2 (pz)    -0.0046  0.0000  0.0002  0.0000  0.0000  1.9996 -0.0004  0.0000
  15. Cl 2 (s)      0.3834  0.0265  0.4371  0.0000  0.0000 -0.0004  1.9995  0.0000
  16. Cl 2 (px)     0.0000  0.0000  0.0000  0.4654  0.0000  0.0000  0.0000  1.9967
  17. Cl 2 (py)     0.0000  0.0000  0.0000  0.0000  0.4654  0.0000  0.0000  0.0000
  18. Cl 2 (pz)    -0.5364  0.0001 -0.0019  0.0000  0.0000  0.4701  0.0053  0.0000

           AO         17      18
      ------------ ------- -------
   1. Na 1 (s)      0.0000 -0.0054
   2. Na 1 (s)      0.0000 -0.0295
   3. Na 1 (px)     0.0000  0.0000
   4. Na 1 (py)    -0.0062  0.0000
   5. Na 1 (pz)     0.0000 -0.0304
   6. Na 1 (s)      0.0000 -0.5566
   7. Na 1 (px)     0.0000  0.0000
   8. Na 1 (py)     0.1774  0.0000
   9. Na 1 (pz)     0.0000 -0.5364
  10. Cl 2 (s)      0.0000  0.0001
  11. Cl 2 (s)      0.0000 -0.0019
  12. Cl 2 (px)     0.0000  0.0000
  13. Cl 2 (py)     0.4654  0.0000
  14. Cl 2 (pz)     0.0000  0.4701
  15. Cl 2 (s)      0.0000  0.0053
  16. Cl 2 (px)     0.0000  0.0000
  17. Cl 2 (py)     1.9967  0.0000
  18. Cl 2 (pz)     0.0000  1.9408


 MO density matrix:

      MO     1       2       3       4       5       6       7       8       9
     ---- ------  ------  ------  ------  ------  ------  ------  ------  ------
   1.     2.0000  0.0000  0.0000  0.0000  0.0000  0.0000  0.0000  0.0000  0.0000
   2.     0.0000  2.0000  0.0000  0.0000  0.0000  0.0000  0.0000  0.0000  0.0000
   3.     0.0000  0.0000  2.0000  0.0000  0.0000  0.0000  0.0000  0.0000  0.0000
   4.     0.0000  0.0000  0.0000  2.0000  0.0000  0.0000  0.0000  0.0000  0.0000
   5.     0.0000  0.0000  0.0000  0.0000  2.0000  0.0000  0.0000  0.0000  0.0000
   6.     0.0000  0.0000  0.0000  0.0000  0.0000  2.0000  0.0000  0.0000  0.0000
   7.     0.0000  0.0000  0.0000  0.0000  0.0000  0.0000  2.0000  0.0000  0.0000
   8.     0.0000  0.0000  0.0000  0.0000  0.0000  0.0000  0.0000  2.0000  0.0000
   9.     0.0000  0.0000  0.0000  0.0000  0.0000  0.0000  0.0000  0.0000  2.0000
  10.     0.0000  0.0000  0.0000  0.0000  0.0000  0.0000  0.0000  0.0000  0.0000
  11.     0.0000  0.0000  0.0000  0.0000  0.0000  0.0000  0.0000  0.0000  0.0000
  12.     0.0000  0.0000  0.0000  0.0000  0.0000  0.0000  0.0000  0.0000  0.0000
  13.     0.0000  0.0000  0.0000  0.0000  0.0000  0.0000  0.0000  0.0000  0.0000
  14.     0.0000  0.0000  0.0000  0.0000  0.0000  0.0000  0.0000  0.0000  0.0000
  15.     0.0000  0.0000  0.0000  0.0000  0.0000  0.0000  0.0000  0.0000  0.0000
  16.     0.0000  0.0000  0.0000  0.0000  0.0000  0.0000  0.0000  0.0000  0.0000
  17.     0.0000  0.0000  0.0000  0.0000  0.0000  0.0000  0.0000  0.0000  0.0000
  18.     0.0000  0.0000  0.0000  0.0000  0.0000  0.0000  0.0000  0.0000  0.0000

      MO    10      11      12      13      14      15      16      17      18
     ---- ------  ------  ------  ------  ------  ------  ------  ------  ------
   1.     0.0000  0.0000  0.0000  0.0000  0.0000  0.0000  0.0000  0.0000  0.0000
   2.     0.0000  0.0000  0.0000  0.0000  0.0000  0.0000  0.0000  0.0000  0.0000
   3.     0.0000  0.0000  0.0000  0.0000  0.0000  0.0000  0.0000  0.0000  0.0000
   4.     0.0000  0.0000  0.0000  0.0000  0.0000  0.0000  0.0000  0.0000  0.0000
   5.     0.0000  0.0000  0.0000  0.0000  0.0000  0.0000  0.0000  0.0000  0.0000
   6.     0.0000  0.0000  0.0000  0.0000  0.0000  0.0000  0.0000  0.0000  0.0000
   7.     0.0000  0.0000  0.0000  0.0000  0.0000  0.0000  0.0000  0.0000  0.0000
   8.     0.0000  0.0000  0.0000  0.0000  0.0000  0.0000  0.0000  0.0000  0.0000
   9.     0.0000  0.0000  0.0000  0.0000  0.0000  0.0000  0.0000  0.0000  0.0000
  10.     2.0000  0.0000  0.0000  0.0000  0.0000  0.0000  0.0000  0.0000  0.0000
  11.     0.0000  2.0000  0.0000  0.0000  0.0000  0.0000  0.0000  0.0000  0.0000
  12.     0.0000  0.0000  2.0000  0.0000  0.0000  0.0000  0.0000  0.0000  0.0000
  13.     0.0000  0.0000  0.0000  2.0000  0.0000  0.0000  0.0000  0.0000  0.0000
  14.     0.0000  0.0000  0.0000  0.0000  2.0000  0.0000  0.0000  0.0000  0.0000
  15.     0.0000  0.0000  0.0000  0.0000  0.0000  0.0000  0.0000  0.0000  0.0000
  16.     0.0000  0.0000  0.0000  0.0000  0.0000  0.0000  0.0000  0.0000  0.0000
  17.     0.0000  0.0000  0.0000  0.0000  0.0000  0.0000  0.0000  0.0000  0.0000
  18.     0.0000  0.0000  0.0000  0.0000  0.0000  0.0000  0.0000  0.0000  0.0000


 NATURAL POPULATIONS:  Natural atomic orbital occupancies

  NAO Atom No lang   Type(AO)    Occupancy      Energy
 -------------------------------------------------------
   1   Na  1  s      Cor( 1s)     2.00000     -36.69419
   2   Na  1  s      Cor( 2s)     2.00000      -6.44341
   3   Na  1  s      Val( 3s)     0.06475       0.38315
   4   Na  1  px     Cor( 2p)     2.00000      -1.49866
   5   Na  1  px     Ryd( 3p)     0.00367       0.66525
   6   Na  1  py     Cor( 2p)     2.00000      -1.49866
   7   Na  1  py     Ryd( 3p)     0.00367       0.66525
   8   Na  1  pz     Cor( 2p)     1.99991      -1.49813
   9   Na  1  pz     Ryd( 3p)     0.01625       0.77242

  10   Cl  2  s      Cor( 1s)     2.00000    -103.09158
  11   Cl  2  s      Cor( 2s)     1.99999      -9.50305
  12   Cl  2  s      Val( 3s)     1.99793      -1.52944
  13   Cl  2  px     Cor( 2p)     2.00000      -7.46666
  14   Cl  2  px     Val( 3p)     1.99633      -0.20675
  15   Cl  2  py     Cor( 2p)     2.00000      -7.46666
  16   Cl  2  py     Val( 3p)     1.99633      -0.20675
  17   Cl  2  pz     Cor( 2p)     1.99998      -7.46823
  18   Cl  2  pz     Val( 3p)     1.92119      -0.19564


 Summary of Natural Population Analysis:

                                     Natural Population
             Natural    ---------------------------------------------
  Atom No    Charge        Core      Valence    Rydberg      Total
 --------------------------------------------------------------------
   Na  1    0.91175      9.99991     0.06475    0.02359    10.08825
   Cl  2   -0.91175      9.99997     7.91178    0.00000    17.91175
 ====================================================================
 * Total *  0.00000     19.99987     7.97654    0.02359    28.00000

                                 Natural Population
 ---------------------------------------------------------
   Core                      19.99987 ( 99.9994% of   20)
   Valence                    7.97654 ( 99.7067% of    8)
   Natural Minimal Basis     27.97641 ( 99.9157% of   28)
   Natural Rydberg Basis      0.02359 (  0.0843% of   28)
 ---------------------------------------------------------

    Atom No         Natural Electron Configuration
 ----------------------------------------------------------------------------
     Na  1      [core]3s( 0.06)3p( 0.02)
     Cl  2      [core]3s( 2.00)3p( 5.91)


 PNAOs in the AO basis:

           AO          1       2       3       4       5       6       7       8
      ------------ ------- ------- ------- ------- ------- ------- ------- -------
   1. Na 1 (s)      1.0376  0.0232  0.1511  0.0000  0.0000  0.0000  0.0000  0.0000
   2. Na 1 (s)     -0.2896  0.9613 -0.6082  0.0000  0.0000  0.0000  0.0000  0.0000
   3. Na 1 (px)     0.0000  0.0000  0.0000  0.9051 -0.6722  0.0000  0.0000  0.0000
   4. Na 1 (py)     0.0000  0.0000  0.0000  0.0000  0.0000  0.9051 -0.6722  0.0000
   5. Na 1 (pz)     0.0000  0.0000  0.0000  0.0000  0.0000  0.0000  0.0000  0.9051
   6. Na 1 (s)     -0.0287  0.0676  1.1252  0.0000  0.0000  0.0000  0.0000  0.0000
   7. Na 1 (px)     0.0000  0.0000  0.0000  0.1783  1.1132  0.0000  0.0000  0.0000
   8. Na 1 (py)     0.0000  0.0000  0.0000  0.0000  0.0000  0.1783  1.1132  0.0000
   9. Na 1 (pz)     0.0000  0.0000  0.0000  0.0000  0.0000  0.0000  0.0000  0.1783
  10. Cl 2 (s)      0.0000  0.0000  0.0000  0.0000  0.0000  0.0000  0.0000  0.0000
  11. Cl 2 (s)      0.0000  0.0000  0.0000  0.0000  0.0000  0.0000  0.0000  0.0000
  12. Cl 2 (px)     0.0000  0.0000  0.0000  0.0000  0.0000  0.0000  0.0000  0.0000
  13. Cl 2 (py)     0.0000  0.0000  0.0000  0.0000  0.0000  0.0000  0.0000  0.0000
  14. Cl 2 (pz)     0.0000  0.0000  0.0000  0.0000  0.0000  0.0000  0.0000  0.0000
  15. Cl 2 (s)      0.0000  0.0000  0.0000  0.0000  0.0000  0.0000  0.0000  0.0000
  16. Cl 2 (px)     0.0000  0.0000  0.0000  0.0000  0.0000  0.0000  0.0000  0.0000
  17. Cl 2 (py)     0.0000  0.0000  0.0000  0.0000  0.0000  0.0000  0.0000  0.0000
  18. Cl 2 (pz)     0.0000  0.0000  0.0000  0.0000  0.0000  0.0000  0.0000  0.0000

           AO          9      10      11      12      13      14      15      16
      ------------ ------- ------- ------- ------- ------- ------- ------- -------
   1. Na 1 (s)      0.0000  0.0000  0.0000  0.0000  0.0000  0.0000  0.0000  0.0000
   2. Na 1 (s)      0.0000  0.0000  0.0000  0.0000  0.0000  0.0000  0.0000  0.0000
   3. Na 1 (px)     0.0000  0.0000  0.0000  0.0000  0.0000  0.0000  0.0000  0.0000
   4. Na 1 (py)     0.0000  0.0000  0.0000  0.0000  0.0000  0.0000  0.0000  0.0000
   5. Na 1 (pz)    -0.6722  0.0000  0.0000  0.0000  0.0000  0.0000  0.0000  0.0000
   6. Na 1 (s)      0.0000  0.0000  0.0000  0.0000  0.0000  0.0000  0.0000  0.0000
   7. Na 1 (px)     0.0000  0.0000  0.0000  0.0000  0.0000  0.0000  0.0000  0.0000
   8. Na 1 (py)     0.0000  0.0000  0.0000  0.0000  0.0000  0.0000  0.0000  0.0000
   9. Na 1 (pz)     1.1132  0.0000  0.0000  0.0000  0.0000  0.0000  0.0000  0.0000
  10. Cl 2 (s)      0.0000  0.9746 -0.3833  0.2059  0.0000  0.0000  0.0000  0.0000
  11. Cl 2 (s)      0.0000  0.0678  0.9253 -0.5791  0.0000  0.0000  0.0000  0.0000
  12. Cl 2 (px)     0.0000  0.0000  0.0000  0.0000  0.9781 -0.3169  0.0000  0.0000
  13. Cl 2 (py)     0.0000  0.0000  0.0000  0.0000  0.0000  0.0000  0.9781 -0.3169
  14. Cl 2 (pz)     0.0000  0.0000  0.0000  0.0000  0.0000  0.0000  0.0000  0.0000
  15. Cl 2 (s)      0.0000  0.0010  0.3317  0.9721  0.0000  0.0000  0.0000  0.0000
  16. Cl 2 (px)     0.0000  0.0000  0.0000  0.0000  0.0807  1.0250  0.0000  0.0000
  17. Cl 2 (py)     0.0000  0.0000  0.0000  0.0000  0.0000  0.0000  0.0807  1.0250
  18. Cl 2 (pz)     0.0000  0.0000  0.0000  0.0000  0.0000  0.0000  0.0000  0.0000

           AO         17      18
      ------------ ------- -------
   1. Na 1 (s)      0.0000  0.0000
   2. Na 1 (s)      0.0000  0.0000
   3. Na 1 (px)     0.0000  0.0000
   4. Na 1 (py)     0.0000  0.0000
   5. Na 1 (pz)     0.0000  0.0000
   6. Na 1 (s)      0.0000  0.0000
   7. Na 1 (px)     0.0000  0.0000
   8. Na 1 (py)     0.0000  0.0000
   9. Na 1 (pz)     0.0000  0.0000
  10. Cl 2 (s)      0.0000  0.0000
  11. Cl 2 (s)      0.0000  0.0000
  12. Cl 2 (px)     0.0000  0.0000
  13. Cl 2 (py)     0.0000  0.0000
  14. Cl 2 (pz)     0.9781 -0.3169
  15. Cl 2 (s)      0.0000  0.0000
  16. Cl 2 (px)     0.0000  0.0000
  17. Cl 2 (py)     0.0000  0.0000
  18. Cl 2 (pz)     0.0807  1.0250


 PNAO overlap matrix:

           NAO         1       2       3       4       5       6       7       8
      ------------ ------- ------- ------- ------- ------- ------- ------- -------
   1. Na 1( 1s )    1.0000  0.0000  0.0000  0.0000  0.0000  0.0000  0.0000  0.0000
   2. Na 1( 2s )    0.0000  1.0000  0.0000  0.0000  0.0000  0.0000  0.0000  0.0000
   3. Na 1( 3s )    0.0000  0.0000  1.0000  0.0000  0.0000  0.0000  0.0000  0.0000
   4. Na 1( 2px)    0.0000  0.0000  0.0000  1.0000  0.0000  0.0000  0.0000  0.0000
   5. Na 1( 3px)    0.0000  0.0000  0.0000  0.0000  1.0000  0.0000  0.0000  0.0000
   6. Na 1( 2py)    0.0000  0.0000  0.0000  0.0000  0.0000  1.0000  0.0000  0.0000
   7. Na 1( 3py)    0.0000  0.0000  0.0000  0.0000  0.0000  0.0000  1.0000  0.0000
   8. Na 1( 2pz)    0.0000  0.0000  0.0000  0.0000  0.0000  0.0000  0.0000  1.0000
   9. Na 1( 3pz)    0.0000  0.0000  0.0000  0.0000  0.0000  0.0000  0.0000  0.0000
  10. Cl 2( 1s )   -0.0001  0.0001  0.0023  0.0000  0.0000  0.0000  0.0000  0.0007
  11. Cl 2( 2s )   -0.0024  0.0073  0.0554  0.0000  0.0000  0.0000  0.0000  0.0181
  12. Cl 2( 3s )   -0.0060  0.0194  0.1274  0.0000  0.0000  0.0000  0.0000  0.0428
  13. Cl 2( 2px)    0.0000  0.0000  0.0000  0.0013  0.0065  0.0000  0.0000  0.0000
  14. Cl 2( 3px)    0.0000  0.0000  0.0000  0.0132  0.0613  0.0000  0.0000  0.0000
  15. Cl 2( 2py)    0.0000  0.0000  0.0000  0.0000  0.0000  0.0013  0.0065  0.0000
  16. Cl 2( 3py)    0.0000  0.0000  0.0000  0.0000  0.0000  0.0132  0.0613  0.0000
  17. Cl 2( 2pz)    0.0009 -0.0030 -0.0192  0.0000  0.0000  0.0000  0.0000 -0.0064
  18. Cl 2( 3pz)    0.0096 -0.0337 -0.1687  0.0000  0.0000  0.0000  0.0000 -0.0616

           NAO         9      10      11      12      13      14      15      16
      ------------ ------- ------- ------- ------- ------- ------- ------- -------
   1. Na 1( 1s )    0.0000 -0.0001 -0.0024 -0.0060  0.0000  0.0000  0.0000  0.0000
   2. Na 1( 2s )    0.0000  0.0001  0.0073  0.0194  0.0000  0.0000  0.0000  0.0000
   3. Na 1( 3s )    0.0000  0.0023  0.0554  0.1274  0.0000  0.0000  0.0000  0.0000
   4. Na 1( 2px)    0.0000  0.0000  0.0000  0.0000  0.0013  0.0132  0.0000  0.0000
   5. Na 1( 3px)    0.0000  0.0000  0.0000  0.0000  0.0065  0.0613  0.0000  0.0000
   6. Na 1( 2py)    0.0000  0.0000  0.0000  0.0000  0.0000  0.0000  0.0013  0.0132
   7. Na 1( 3py)    0.0000  0.0000  0.0000  0.0000  0.0000  0.0000  0.0065  0.0613
   8. Na 1( 2pz)    0.0000  0.0007  0.0181  0.0428  0.0000  0.0000  0.0000  0.0000
   9. Na 1( 3pz)    1.0000  0.0042  0.0846  0.1838  0.0000  0.0000  0.0000  0.0000
  10. Cl 2( 1s )    0.0042  1.0000  0.0000  0.0000  0.0000  0.0000  0.0000  0.0000
  11. Cl 2( 2s )    0.0846  0.0000  1.0000  0.0000  0.0000  0.0000  0.0000  0.0000
  12. Cl 2( 3s )    0.1838  0.0000  0.0000  1.0000  0.0000  0.0000  0.0000  0.0000
  13. Cl 2( 2px)    0.0000  0.0000  0.0000  0.0000  1.0000  0.0000  0.0000  0.0000
  14. Cl 2( 3px)    0.0000  0.0000  0.0000  0.0000  0.0000  1.0000  0.0000  0.0000
  15. Cl 2( 2py)    0.0000  0.0000  0.0000  0.0000  0.0000  0.0000  1.0000  0.0000
  16. Cl 2( 3py)    0.0000  0.0000  0.0000  0.0000  0.0000  0.0000  0.0000  1.0000
  17. Cl 2( 2pz)   -0.0278  0.0000  0.0000  0.0000  0.0000  0.0000  0.0000  0.0000
  18. Cl 2( 3pz)   -0.2307  0.0000  0.0000  0.0000  0.0000  0.0000  0.0000  0.0000

           NAO        17      18
      ------------ ------- -------
   1. Na 1( 1s )    0.0009  0.0096
   2. Na 1( 2s )   -0.0030 -0.0337
   3. Na 1( 3s )   -0.0192 -0.1687
   4. Na 1( 2px)    0.0000  0.0000
   5. Na 1( 3px)    0.0000  0.0000
   6. Na 1( 2py)    0.0000  0.0000
   7. Na 1( 3py)    0.0000  0.0000
   8. Na 1( 2pz)   -0.0064 -0.0616
   9. Na 1( 3pz)   -0.0278 -0.2307
  10. Cl 2( 1s )    0.0000  0.0000
  11. Cl 2( 2s )    0.0000  0.0000
  12. Cl 2( 3s )    0.0000  0.0000
  13. Cl 2( 2px)    0.0000  0.0000
  14. Cl 2( 3px)    0.0000  0.0000
  15. Cl 2( 2py)    0.0000  0.0000
  16. Cl 2( 3py)    0.0000  0.0000
  17. Cl 2( 2pz)    1.0000  0.0000
  18. Cl 2( 3pz)    0.0000  1.0000


 PNAO density matrix:

           NAO         1       2       3       4       5       6       7       8
      ------------ ------- ------- ------- ------- ------- ------- ------- -------
   1. Na 1( 1s )    2.0000  0.0000  0.0000  0.0000  0.0000  0.0000  0.0000  0.0000
   2. Na 1( 2s )    0.0000  2.0000  0.0000  0.0000  0.0000  0.0000  0.0000  0.0000
   3. Na 1( 3s )    0.0000  0.0000  0.2543  0.0000  0.0000  0.0000  0.0000 -0.0125
   4. Na 1( 2px)    0.0000  0.0000  0.0000  2.0000 -0.0007  0.0000  0.0000  0.0000
   5. Na 1( 3px)    0.0000  0.0000  0.0000 -0.0007  0.0217  0.0000  0.0000  0.0000
   6. Na 1( 2py)    0.0000  0.0000  0.0000  0.0000  0.0000  2.0000 -0.0007  0.0000
   7. Na 1( 3py)    0.0000  0.0000  0.0000  0.0000  0.0000 -0.0007  0.0217  0.0000
   8. Na 1( 2pz)    0.0000  0.0000 -0.0125  0.0000  0.0000  0.0000  0.0000  1.9999
   9. Na 1( 3pz)    0.0000 -0.0017  0.2587  0.0000  0.0000  0.0000  0.0000  0.0015
  10. Cl 2( 1s )   -0.0001  0.0003  0.0046  0.0000  0.0000  0.0000  0.0000  0.0014
  11. Cl 2( 2s )   -0.0047  0.0147  0.1133  0.0000  0.0000  0.0000  0.0000  0.0362
  12. Cl 2( 3s )   -0.0121  0.0388  0.2844  0.0000  0.0000  0.0000  0.0000  0.0859
  13. Cl 2( 2px)    0.0000  0.0000  0.0000  0.0026  0.0131  0.0000  0.0000  0.0000
  14. Cl 2( 3px)    0.0000  0.0000  0.0000  0.0265  0.2077  0.0000  0.0000  0.0000
  15. Cl 2( 2py)    0.0000  0.0000  0.0000  0.0000  0.0000  0.0026  0.0131  0.0000
  16. Cl 2( 3py)    0.0000  0.0000  0.0000  0.0000  0.0000  0.0265  0.2077  0.0000
  17. Cl 2( 2pz)    0.0018 -0.0060 -0.0413  0.0000  0.0000  0.0000  0.0000 -0.0128
  18. Cl 2( 3pz)    0.0193 -0.0675 -0.6270  0.0000  0.0000  0.0000  0.0000 -0.1253

           NAO         9      10      11      12      13      14      15      16
      ------------ ------- ------- ------- ------- ------- ------- ------- -------
   1. Na 1( 1s )    0.0000 -0.0001 -0.0047 -0.0121  0.0000  0.0000  0.0000  0.0000
   2. Na 1( 2s )   -0.0017  0.0003  0.0147  0.0388  0.0000  0.0000  0.0000  0.0000
   3. Na 1( 3s )    0.2587  0.0046  0.1133  0.2844  0.0000  0.0000  0.0000  0.0000
   4. Na 1( 2px)    0.0000  0.0000  0.0000  0.0000  0.0026  0.0265  0.0000  0.0000
   5. Na 1( 3px)    0.0000  0.0000  0.0000  0.0000  0.0131  0.2077  0.0000  0.0000
   6. Na 1( 2py)    0.0000  0.0000  0.0000  0.0000  0.0000  0.0000  0.0026  0.0265
   7. Na 1( 3py)    0.0000  0.0000  0.0000  0.0000  0.0000  0.0000  0.0131  0.2077
   8. Na 1( 2pz)    0.0015  0.0014  0.0362  0.0859  0.0000  0.0000  0.0000  0.0000
   9. Na 1( 3pz)    0.2697  0.0084  0.1645  0.3797  0.0000  0.0000  0.0000  0.0000
  10. Cl 2( 1s )    0.0084  2.0000  0.0000  0.0000  0.0000  0.0000  0.0000  0.0000
  11. Cl 2( 2s )    0.1645  0.0000  2.0000  0.0000  0.0000  0.0000  0.0000  0.0000
  12. Cl 2( 3s )    0.3797  0.0000  0.0000  1.9993  0.0000  0.0000  0.0000  0.0000
  13. Cl 2( 2px)    0.0000  0.0000  0.0000  0.0000  2.0000  0.0000  0.0000  0.0000
  14. Cl 2( 3px)    0.0000  0.0000  0.0000  0.0000  0.0000  1.9963  0.0000  0.0000
  15. Cl 2( 2py)    0.0000  0.0000  0.0000  0.0000  0.0000  0.0000  2.0000  0.0000
  16. Cl 2( 3py)    0.0000  0.0000  0.0000  0.0000  0.0000  0.0000  0.0000  1.9963
  17. Cl 2( 2pz)   -0.0501  0.0000  0.0000  0.0000  0.0000  0.0000  0.0000  0.0000
  18. Cl 2( 3pz)   -0.5900  0.0000  0.0000  0.0066  0.0000  0.0000  0.0000  0.0000

           NAO        17      18
      ------------ ------- -------
   1. Na 1( 1s )    0.0018  0.0193
   2. Na 1( 2s )   -0.0060 -0.0675
   3. Na 1( 3s )   -0.0413 -0.6270
   4. Na 1( 2px)    0.0000  0.0000
   5. Na 1( 3px)    0.0000  0.0000
   6. Na 1( 2py)    0.0000  0.0000
   7. Na 1( 3py)    0.0000  0.0000
   8. Na 1( 2pz)   -0.0128 -0.1253
   9. Na 1( 3pz)   -0.0501 -0.5900
  10. Cl 2( 1s )    0.0000  0.0000
  11. Cl 2( 2s )    0.0000  0.0000
  12. Cl 2( 3s )    0.0000  0.0066
  13. Cl 2( 2px)    0.0000  0.0000
  14. Cl 2( 3px)    0.0000  0.0000
  15. Cl 2( 2py)    0.0000  0.0000
  16. Cl 2( 3py)    0.0000  0.0000
  17. Cl 2( 2pz)    2.0000  0.0000
  18. Cl 2( 3pz)    0.0000  1.9346


 NAOs in the AO basis:

           AO          1       2       3       4       5       6       7       8
      ------------ ------- ------- ------- ------- ------- ------- ------- -------
   1. Na 1 (s)      1.0376  0.0231  0.1526  0.0000  0.0000  0.0000  0.0000  0.0000
   2. Na 1 (s)     -0.2896  0.9613 -0.6150  0.0000  0.0000  0.0000  0.0000  0.0001
   3. Na 1 (px)     0.0000  0.0000  0.0000  0.9051 -0.6727  0.0000  0.0000  0.0000
   4. Na 1 (py)     0.0000  0.0000  0.0000  0.0000  0.0000  0.9051 -0.6727  0.0000
   5. Na 1 (pz)     0.0000  0.0001  0.0142  0.0000  0.0000  0.0000  0.0000  0.9052
   6. Na 1 (s)     -0.0287  0.0676  1.1538  0.0000  0.0000  0.0000  0.0000  0.0000
   7. Na 1 (px)     0.0000  0.0000  0.0000  0.1783  1.1155  0.0000  0.0000  0.0000
   8. Na 1 (py)     0.0000  0.0000  0.0000  0.0000  0.0000  0.1783  1.1155  0.0000
   9. Na 1 (pz)     0.0000  0.0000  0.0028  0.0000  0.0000  0.0000  0.0000  0.1783
  10. Cl 2 (s)     -0.0004  0.0013 -0.0045  0.0000  0.0000  0.0000  0.0000  0.0031
  11. Cl 2 (s)      0.0011 -0.0034  0.0146  0.0000  0.0000  0.0000  0.0000 -0.0084
  12. Cl 2 (px)     0.0000  0.0000  0.0000 -0.0006  0.0131  0.0000  0.0000  0.0000
  13. Cl 2 (py)     0.0000  0.0000  0.0000  0.0000  0.0000 -0.0006  0.0131  0.0000
  14. Cl 2 (pz)    -0.0004  0.0015 -0.0297  0.0000  0.0000  0.0000  0.0000  0.0031
  15. Cl 2 (s)      0.0004 -0.0012 -0.1326  0.0000  0.0000  0.0000  0.0000 -0.0030
  16. Cl 2 (px)     0.0000  0.0000  0.0000 -0.0001 -0.0635  0.0000  0.0000  0.0000
  17. Cl 2 (py)     0.0000  0.0000  0.0000  0.0000  0.0000 -0.0001 -0.0635  0.0000
  18. Cl 2 (pz)     0.0000  0.0001  0.1603  0.0000  0.0000  0.0000  0.0000  0.0003

           AO          9      10      11      12      13      14      15      16
      ------------ ------- ------- ------- ------- ------- ------- ------- -------
   1. Na 1 (s)      0.0076  0.0000  0.0011  0.0036  0.0000  0.0000  0.0000  0.0000
   2. Na 1 (s)     -0.0318 -0.0001 -0.0039 -0.0116  0.0000  0.0000  0.0000  0.0000
   3. Na 1 (px)     0.0000  0.0000  0.0000  0.0000 -0.0006 -0.0120  0.0000  0.0000
   4. Na 1 (py)     0.0000  0.0000  0.0000  0.0000  0.0000  0.0000 -0.0006 -0.0120
   5. Na 1 (pz)    -0.6847 -0.0003 -0.0082 -0.0391  0.0000  0.0000  0.0000  0.0000
   6. Na 1 (s)      0.0859  0.0000 -0.0003 -0.0182  0.0000  0.0000  0.0000  0.0000
   7. Na 1 (px)     0.0000  0.0000  0.0000  0.0000 -0.0001 -0.0024  0.0000  0.0000
   8. Na 1 (py)     0.0000  0.0000  0.0000  0.0000  0.0000  0.0000 -0.0001 -0.0024
   9. Na 1 (pz)     1.1785 -0.0001 -0.0016 -0.0077  0.0000  0.0000  0.0000  0.0000
  10. Cl 2 (s)     -0.0107  0.9746 -0.3834  0.2059  0.0000  0.0000  0.0000  0.0000
  11. Cl 2 (s)      0.0314  0.0678  0.9254 -0.5791  0.0000  0.0000  0.0000  0.0000
  12. Cl 2 (px)     0.0000  0.0000  0.0000  0.0000  0.9781 -0.3170  0.0000  0.0000
  13. Cl 2 (py)     0.0000  0.0000  0.0000  0.0000  0.0000  0.0000  0.9781 -0.3170
  14. Cl 2 (pz)    -0.0515  0.0000 -0.0001  0.0007  0.0000  0.0000  0.0000  0.0000
  15. Cl 2 (s)     -0.2303  0.0010  0.3317  0.9755  0.0000  0.0000  0.0000  0.0000
  16. Cl 2 (px)     0.0000  0.0000  0.0000  0.0000  0.0807  1.0251  0.0000  0.0000
  17. Cl 2 (py)     0.0000  0.0000  0.0000  0.0000  0.0000  0.0000  0.0807  1.0251
  18. Cl 2 (pz)     0.2670  0.0000  0.0000 -0.0042  0.0000  0.0000  0.0000  0.0000

           AO         17      18
      ------------ ------- -------
   1. Na 1 (s)     -0.0004 -0.0063
   2. Na 1 (s)      0.0016  0.0233
   3. Na 1 (px)     0.0000  0.0000
   4. Na 1 (py)     0.0000  0.0000
   5. Na 1 (pz)     0.0029  0.0563
   6. Na 1 (s)      0.0001  0.0250
   7. Na 1 (px)     0.0000  0.0000
   8. Na 1 (py)     0.0000  0.0000
   9. Na 1 (pz)     0.0006  0.0111
  10. Cl 2 (s)      0.0000  0.0000
  11. Cl 2 (s)      0.0000  0.0001
  12. Cl 2 (px)     0.0000  0.0000
  13. Cl 2 (py)     0.0000  0.0000
  14. Cl 2 (pz)     0.9781 -0.3179
  15. Cl 2 (s)      0.0000 -0.0048
  16. Cl 2 (px)     0.0000  0.0000
  17. Cl 2 (py)     0.0000  0.0000
  18. Cl 2 (pz)     0.0808  1.0310


 NAO density matrix:

           NAO         1       2       3       4       5       6       7       8
      ------------ ------- ------- ------- ------- ------- ------- ------- -------
   1. Na 1( 1s )    2.0000  0.0000  0.0000  0.0000  0.0000  0.0000  0.0000  0.0000
   2. Na 1( 2s )    0.0000  2.0000  0.0000  0.0000  0.0000  0.0000  0.0000  0.0000
   3. Na 1( 3s )    0.0000  0.0000  0.0648  0.0000  0.0000  0.0000  0.0000 -0.0132
   4. Na 1( 2px)    0.0000  0.0000  0.0000  2.0000 -0.0008  0.0000  0.0000  0.0000
   5. Na 1( 3px)    0.0000  0.0000  0.0000 -0.0008  0.0037  0.0000  0.0000  0.0000
   6. Na 1( 2py)    0.0000  0.0000  0.0000  0.0000  0.0000  2.0000 -0.0008  0.0000
   7. Na 1( 3py)    0.0000  0.0000  0.0000  0.0000  0.0000 -0.0008  0.0037  0.0000
   8. Na 1( 2pz)    0.0000  0.0000 -0.0132  0.0000  0.0000  0.0000  0.0000  1.9999
   9. Na 1( 3pz)    0.0000 -0.0019  0.0323  0.0000  0.0000  0.0000  0.0000  0.0001
  10. Cl 2( 1s )    0.0000  0.0000  0.0000  0.0000  0.0000  0.0000  0.0000  0.0000
  11. Cl 2( 2s )    0.0000  0.0000  0.0026  0.0000  0.0000  0.0000  0.0000  0.0000
  12. Cl 2( 3s )    0.0000  0.0000  0.0608  0.0000  0.0000  0.0000  0.0000  0.0004
  13. Cl 2( 2px)    0.0000  0.0000  0.0000  0.0000  0.0001  0.0000  0.0000  0.0000
  14. Cl 2( 3px)    0.0000  0.0000  0.0000  0.0000  0.0856  0.0000  0.0000  0.0000
  15. Cl 2( 2py)    0.0000  0.0000  0.0000  0.0000  0.0000  0.0000  0.0001  0.0000
  16. Cl 2( 3py)    0.0000  0.0000  0.0000  0.0000  0.0000  0.0000  0.0856  0.0000
  17. Cl 2( 2pz)    0.0000  0.0000 -0.0031  0.0000  0.0000  0.0000  0.0000  0.0000
  18. Cl 2( 3pz)    0.0000 -0.0002 -0.3470  0.0000  0.0000  0.0000  0.0000 -0.0024

           NAO         9      10      11      12      13      14      15      16
      ------------ ------- ------- ------- ------- ------- ------- ------- -------
   1. Na 1( 1s )    0.0000  0.0000  0.0000  0.0000  0.0000  0.0000  0.0000  0.0000
   2. Na 1( 2s )   -0.0019  0.0000  0.0000  0.0000  0.0000  0.0000  0.0000  0.0000
   3. Na 1( 3s )    0.0323  0.0000  0.0026  0.0608  0.0000  0.0000  0.0000  0.0000
   4. Na 1( 2px)    0.0000  0.0000  0.0000  0.0000  0.0000  0.0000  0.0000  0.0000
   5. Na 1( 3px)    0.0000  0.0000  0.0000  0.0000  0.0001  0.0856  0.0000  0.0000
   6. Na 1( 2py)    0.0000  0.0000  0.0000  0.0000  0.0000  0.0000  0.0000  0.0000
   7. Na 1( 3py)    0.0000  0.0000  0.0000  0.0000  0.0000  0.0000  0.0001  0.0856
   8. Na 1( 2pz)    0.0001  0.0000  0.0000  0.0004  0.0000  0.0000  0.0000  0.0000
   9. Na 1( 3pz)    0.0163  0.0000 -0.0047  0.0167  0.0000  0.0000  0.0000  0.0000
  10. Cl 2( 1s )    0.0000  2.0000  0.0000  0.0000  0.0000  0.0000  0.0000  0.0000
  11. Cl 2( 2s )   -0.0047  0.0000  2.0000  0.0000  0.0000  0.0000  0.0000  0.0000
  12. Cl 2( 3s )    0.0167  0.0000  0.0000  1.9979  0.0000  0.0000  0.0000  0.0000
  13. Cl 2( 2px)    0.0000  0.0000  0.0000  0.0000  2.0000  0.0000  0.0000  0.0000
  14. Cl 2( 3px)    0.0000  0.0000  0.0000  0.0000  0.0000  1.9963  0.0000  0.0000
  15. Cl 2( 2py)    0.0000  0.0000  0.0000  0.0000  0.0000  0.0000  2.0000  0.0000
  16. Cl 2( 3py)    0.0000  0.0000  0.0000  0.0000  0.0000  0.0000  0.0000  1.9963
  17. Cl 2( 2pz)    0.0055  0.0000  0.0000  0.0000  0.0000  0.0000  0.0000  0.0000
  18. Cl 2( 3pz)   -0.1757  0.0000  0.0000  0.0125  0.0000  0.0000  0.0000  0.0000

           NAO        17      18
      ------------ ------- -------
   1. Na 1( 1s )    0.0000  0.0000
   2. Na 1( 2s )    0.0000 -0.0002
   3. Na 1( 3s )   -0.0031 -0.3470
   4. Na 1( 2px)    0.0000  0.0000
   5. Na 1( 3px)    0.0000  0.0000
   6. Na 1( 2py)    0.0000  0.0000
   7. Na 1( 3py)    0.0000  0.0000
   8. Na 1( 2pz)    0.0000 -0.0024
   9. Na 1( 3pz)    0.0055 -0.1757
  10. Cl 2( 1s )    0.0000  0.0000
  11. Cl 2( 2s )    0.0000  0.0000
  12. Cl 2( 3s )    0.0000  0.0125
  13. Cl 2( 2px)    0.0000  0.0000
  14. Cl 2( 3px)    0.0000  0.0000
  15. Cl 2( 2py)    0.0000  0.0000
  16. Cl 2( 3py)    0.0000  0.0000
  17. Cl 2( 2pz)    2.0000 -0.0001
  18. Cl 2( 3pz)   -0.0001  1.9212


 NATURAL BOND ORBITAL ANALYSIS:

 Initiate 2-center NBO search using THRESH = 1.900 and PRJTHR = 0.300

 Search of NAO DM block for core orbitals on atom:   1
      Eigenvector ( 1) has occupancy 2.00000
            1.0000 0.0000 0.0000 0.0000 0.0000 0.0000 0.0000 0.0000
            0.0000
      Eigenvector ( 2) has occupancy 2.00000
            0.0000 1.0000 0.0000 0.0000 0.0000 0.0000 0.0000 0.0000
            0.0000
      Eigenvector ( 3) has occupancy 2.00000
            0.0000 0.0000 0.0000 1.0000 0.0000 0.0000 0.0000 0.0000
            0.0000
      Eigenvector ( 4) has occupancy 2.00000
            0.0000 0.0000 0.0000 0.0000 0.0000 1.0000 0.0000 0.0000
            0.0000
      Eigenvector ( 5) has occupancy 1.99991
            0.0000 0.0000 0.0000 0.0000 0.0000 0.0000 0.0000 1.0000
            0.0000
        5 eigenvector(s) stashed in permanent list

 Search of NAO DM block for core orbitals on atom:   2
      Eigenvector ( 1) has occupancy 2.00000
            1.0000 0.0000 0.0000 0.0000 0.0000 0.0000 0.0000 0.0000
            0.0000
      Eigenvector ( 2) has occupancy 1.99999
            0.0000 1.0000 0.0000 0.0000 0.0000 0.0000 0.0000 0.0000
            0.0000
      Eigenvector ( 3) has occupancy 2.00000
            0.0000 0.0000 0.0000 1.0000 0.0000 0.0000 0.0000 0.0000
            0.0000
      Eigenvector ( 4) has occupancy 2.00000
            0.0000 0.0000 0.0000 0.0000 0.0000 1.0000 0.0000 0.0000
            0.0000
      Eigenvector ( 5) has occupancy 1.99998
            0.0000 0.0000 0.0000 0.0000 0.0000 0.0000 0.0000 1.0000
            0.0000
        5 eigenvector(s) stashed in permanent list

 Core orbitals projected from the NAO density matrix
       8.000 electrons remain (>1.900); search continues

 Search of NAO DM block for the following atom(s):   2
      Select eigenvectors with eigenvalue > 1.900
       2.000 1.996 1.996 1.919 0.000 0.000 0.000 0.000 0.000
      Eigenvector ( 1) has occupancy 1.99992
            0.0000 0.0000 0.9876 0.0000 0.0000 0.0000 0.0000 0.0000
            0.1570
      Eigenvector ( 2) has occupancy 1.99633
            0.0000 0.0000 0.0000 0.0000 0.0327 0.0000 0.9995 0.0000
            0.0000
      Eigenvector ( 3) has occupancy 1.99633
            0.0000 0.0000 0.0000 0.0000 0.9995 0.0000-0.0327 0.0000
            0.0000
      Eigenvector ( 4) has occupancy 1.91920
            0.0000 0.0000-0.1570 0.0000 0.0000 0.0000 0.0000 0.0000
            0.9876
      4 hybrids on atom 2 stashed in prospective list

 Stash prospective hybrids having projection expectation value > 0.300
       1.000 1.000 1.000 1.000
      0 hybrids eliminated in 1 pass
      4 hybrids moved from prospective to permanent list

 NHOs of 1-center eigenvectors projected from the NAO density matrix
       0.088 electrons remain in the fully projected matrix

 Search of NHO DM block for the following atom(s):   1
      Select eigenvectors with eigenvalue > 1.900
       2.000 2.000 2.000 2.000 2.000 0.081 0.004 0.004 0.000
      Eigenvector ( 1) has occupancy 2.00000
            1.0000 0.0000 0.0000 0.0000 0.0000 0.0000 0.0000 0.0000
            0.0000
           NBO accepted:    1. Label:CR ( 1)   1
      Eigenvector ( 2) has occupancy 2.00000
            0.0000 0.0000 1.0000 0.0000 0.0000 0.0000 0.0000 0.0000
            0.0000
           NBO accepted:    2. Label:CR ( 2)   1
      Eigenvector ( 3) has occupancy 2.00000
            0.0000 0.0000 0.0000 1.0000 0.0000 0.0000 0.0000 0.0000
            0.0000
           NBO accepted:    3. Label:CR ( 3)   1
      Eigenvector ( 4) has occupancy 2.00000
            0.0000 1.0000 0.0000 0.0000 0.0000 0.0000 0.0000 0.0000
            0.0000
           NBO accepted:    4. Label:CR ( 4)   1
      Eigenvector ( 5) has occupancy 1.99991
            0.0000 0.0000 0.0000 0.0000 1.0000 0.0000 0.0000 0.0000
            0.0000
           NBO accepted:    5. Label:CR ( 5)   1
        5 eigenvector(s) stashed in permanent list

 Search of NHO DM block for the following atom(s):   2
      Select eigenvectors with eigenvalue > 1.900
       2.000 2.000 2.000 2.000 2.000 2.000 1.996 1.996 1.919
      Eigenvector ( 1) has occupancy 2.00000
            1.0000 0.0000 0.0000 0.0000 0.0000 0.0000 0.0000 0.0000
            0.0000
           NBO accepted:    6. Label:CR ( 1)   2
      Eigenvector ( 2) has occupancy 2.00000
            0.0000 0.0000 1.0000 0.0000 0.0000 0.0000 0.0000 0.0000
            0.0000
           NBO accepted:    7. Label:CR ( 2)   2
      Eigenvector ( 3) has occupancy 2.00000
            0.0000 0.0000 0.0000 1.0000 0.0000 0.0000 0.0000 0.0000
            0.0000
           NBO accepted:    8. Label:CR ( 3)   2
      Eigenvector ( 4) has occupancy 1.99999
            0.0000 1.0000 0.0000 0.0000 0.0000 0.0000 0.0000 0.0000
            0.0000
           NBO accepted:    9. Label:CR ( 4)   2
      Eigenvector ( 5) has occupancy 1.99998
            0.0000 0.0000 0.0000 0.0000 1.0000 0.0000 0.0000 0.0000
            0.0000
           NBO accepted:   10. Label:CR ( 5)   2
      Eigenvector ( 6) has occupancy 1.99992
            0.0000 0.0000 0.0000 0.0000 0.0000 1.0000 0.0000 0.0000
            0.0000
           NBO accepted:   11. Label:LP ( 1)   2
      Eigenvector ( 7) has occupancy 1.99633
            0.0000 0.0000 0.0000 0.0000 0.0000 0.0000 1.0000 0.0000
            0.0000
           NBO accepted:   12. Label:LP ( 2)   2
      Eigenvector ( 8) has occupancy 1.99633
            0.0000 0.0000 0.0000 0.0000 0.0000 0.0000 0.0000 1.0000
            0.0000
           NBO accepted:   13. Label:LP ( 3)   2
      Eigenvector ( 9) has occupancy 1.91920
            0.0000 0.0000 0.0000 0.0000 0.0000 0.0000 0.0000 0.0000
            1.0000
           NBO accepted:   14. Label:LP ( 4)   2
        9 eigenvector(s) stashed in permanent list

  1-center NBOs projected from the NHO density matrix
       0.088 electrons remain in the fully projected matrix

                            Occupancies       Lewis Structure    Low   High
         Max    Occ     -------------------  -----------------   occ   occ
  Cycle  Ctr   Thresh    Lewis   non-Lewis     CR  BD  nC  LP    (L)   (NL)
 ============================================================================
    1     2     1.90    27.91166   0.08834     10   0   0   4     0      0
 ----------------------------------------------------------------------------

 Structure accepted: No low occupancy Lewis orbitals

 -------------------------------------------------------
   Core                     19.99987 ( 99.999% of  20)
   Valence Lewis             7.91178 ( 98.897% of   8)
  ==================      =============================
   Total Lewis              27.91166 ( 99.684% of  28)
  -----------------------------------------------------
   Valence non-Lewis         0.08087 (  0.289% of  28)
   Rydberg non-Lewis         0.00747 (  0.027% of  28)
  ==================      =============================
   Total non-Lewis           0.08834 (  0.316% of  28)
 -------------------------------------------------------


     (Occupancy)   Bond orbital / Coefficients / Hybrids
 ------------------ Lewis ------------------------------------------------------
   1. (2.00000) CR ( 1)Na  1            s(100.00%)
                                         1.0000  0.0000  0.0000  0.0000  0.0000
                                         0.0000  0.0000  0.0000  0.0000
   2. (2.00000) CR ( 2)Na  1            s(100.00%)
                                         0.0000  1.0000  0.0000  0.0000  0.0000
                                         0.0000  0.0000  0.0000  0.0000
   3. (2.00000) CR ( 3)Na  1            s(  0.00%)p 1.00(100.00%)
                                         0.0000  0.0000  0.0000  1.0000  0.0000
                                         0.0000  0.0000  0.0000  0.0000
   4. (2.00000) CR ( 4)Na  1            s(  0.00%)p 1.00(100.00%)
                                         0.0000  0.0000  0.0000  0.0000  0.0000
                                         1.0000  0.0000  0.0000  0.0000
   5. (1.99991) CR ( 5)Na  1            s(  0.00%)p 1.00(100.00%)
                                         0.0000  0.0000  0.0000  0.0000  0.0000
                                         0.0000  0.0000  1.0000  0.0000
   6. (2.00000) CR ( 1)Cl  2            s(100.00%)
                                         1.0000  0.0000  0.0000  0.0000  0.0000
                                         0.0000  0.0000  0.0000  0.0000
   7. (1.99999) CR ( 2)Cl  2            s(100.00%)
                                         0.0000  1.0000  0.0000  0.0000  0.0000
                                         0.0000  0.0000  0.0000  0.0000
   8. (2.00000) CR ( 3)Cl  2            s(  0.00%)p 1.00(100.00%)
                                         0.0000  0.0000  0.0000  1.0000  0.0000
                                         0.0000  0.0000  0.0000  0.0000
   9. (2.00000) CR ( 4)Cl  2            s(  0.00%)p 1.00(100.00%)
                                         0.0000  0.0000  0.0000  0.0000  0.0000
                                         1.0000  0.0000  0.0000  0.0000
  10. (1.99998) CR ( 5)Cl  2            s(  0.00%)p 1.00(100.00%)
                                         0.0000  0.0000  0.0000  0.0000  0.0000
                                         0.0000  0.0000  1.0000  0.0000
  11. (1.99992) LP ( 1)Cl  2            s( 97.54%)p 0.03(  2.46%)
                                         0.0000  0.0000  0.9876  0.0000  0.0000
                                         0.0000  0.0000  0.0000  0.1570
  12. (1.99633) LP ( 2)Cl  2            s(  0.00%)p 1.00(100.00%)
                                         0.0000  0.0000  0.0000  0.0000  0.0327
                                         0.0000  0.9995  0.0000  0.0000
  13. (1.99633) LP ( 3)Cl  2            s(  0.00%)p 1.00(100.00%)
                                         0.0000  0.0000  0.0000  0.0000  0.9995
                                         0.0000 -0.0327  0.0000  0.0000
  14. (1.91920) LP ( 4)Cl  2            s(  2.46%)p39.59( 97.54%)
                                         0.0000  0.0000  0.1570  0.0000  0.0000
                                         0.0000  0.0000  0.0000 -0.9876
 ---------------- non-Lewis ----------------------------------------------------
  15. (0.08087) LV ( 1)Na  1            s( 80.03%)p 0.25( 19.97%)
                                         0.0000  0.0000  0.8946  0.0000  0.0000
                                         0.0000  0.0000  0.0000  0.4469
  16. (0.00367) RY ( 1)Na  1            s(  0.00%)p 1.00(100.00%)
                                         0.0000  0.0000  0.0000  0.0000  0.3456
                                         0.0000  0.9384  0.0000  0.0000
  17. (0.00367) RY ( 2)Na  1            s(  0.00%)p 1.00(100.00%)
                                         0.0000  0.0000  0.0000  0.0000  0.9384
                                         0.0000 -0.3456  0.0000  0.0000
  18. (0.00013) RY ( 3)Na  1            s( 19.97%)p 4.01( 80.03%)
                                         0.0000  0.0000  0.4469  0.0000  0.0000
                                         0.0000  0.0000  0.0000 -0.8946


 NHO DIRECTIONALITY AND BOND BENDING (deviation from line of nuclear centers at
                                      the position of maximum hybrid amplitude)

         [Thresholds for printing:  angular deviation  >  1.0 degree]
                                    p- or d-character  > 25.0%
                                    orbital occupancy  >  0.10e

                        Line of Centers        Hybrid 1             Hybrid 2
                        ---------------  -------------------  ------------------
           NBO            Theta   Phi    Theta   Phi    Dev   Theta   Phi    Dev
 ===============================================================================
  12. LP ( 2)Cl  2          --     --     90.0  268.1   --      --     --    --
  13. LP ( 3)Cl  2          --     --     90.0  358.1   --      --     --    --


 SECOND ORDER PERTURBATION THEORY ANALYSIS OF FOCK MATRIX IN NBO BASIS

     Threshold for printing:   0.50 kcal/mol
    (Intermolecular threshold: 0.05 kcal/mol)
                                                          E(2) E(NL)-E(L) F(L,NL)
      Donor (L) NBO              Acceptor (NL) NBO      kcal/mol   a.u.    a.u.
 ===============================================================================

 within unit  1
       None above threshold

 from unit  1 to unit  2
       None above threshold

 from unit  2 to unit  1
    7. CR ( 2)Cl  2            15. LV ( 1)Na  1            0.77   10.03   0.078
   10. CR ( 5)Cl  2            15. LV ( 1)Na  1            0.48    8.00   0.055
   10. CR ( 5)Cl  2            18. RY ( 3)Na  1            0.10    8.09   0.026
   11. LP ( 1)Cl  2            15. LV ( 1)Na  1            1.31    2.02   0.046
   12. LP ( 2)Cl  2            16. RY ( 1)Na  1            1.82    0.87   0.036
   12. LP ( 2)Cl  2            17. RY ( 2)Na  1            0.20    0.87   0.012
   13. LP ( 3)Cl  2            16. RY ( 1)Na  1            0.20    0.87   0.012
   13. LP ( 3)Cl  2            17. RY ( 2)Na  1            1.82    0.87   0.036
   14. LP ( 4)Cl  2            15. LV ( 1)Na  1           44.11    0.77   0.164
   14. LP ( 4)Cl  2            18. RY ( 3)Na  1            2.71    0.86   0.043

 within unit  2
       None above threshold


 NATURAL BOND ORBITALS (Summary):

                                                     Principal Delocalizations
           NBO                 Occupancy    Energy   (geminal,vicinal,remote)
 ===============================================================================
 Molecular unit  1  (Na)
 ------ Lewis --------------------------------------
    1. CR ( 1)Na  1             2.00000   -36.69419
    2. CR ( 2)Na  1             2.00000    -6.44341
    3. CR ( 3)Na  1             2.00000    -1.49866
    4. CR ( 4)Na  1             2.00000    -1.49866
    5. CR ( 5)Na  1             1.99991    -1.49813
 ------ non-Lewis ----------------------------------
   15. LV ( 1)Na  1             0.08087     0.52992
   16. RY ( 1)Na  1             0.00367     0.66525
   17. RY ( 2)Na  1             0.00367     0.66525
   18. RY ( 3)Na  1             0.00013     0.62565
          -------------------------------
                 Total Lewis    9.99991  ( 99.1243%)
           Valence non-Lewis    0.08087  (  0.8017%)
           Rydberg non-Lewis    0.00747  (  0.0740%)
          -------------------------------
               Total unit  1   10.08825  (100.0000%)
              Charge unit  1    0.91175

 Molecular unit  2  (Cl)
 ------ Lewis --------------------------------------
    6. CR ( 1)Cl  2             2.00000  -103.09158
    7. CR ( 2)Cl  2             1.99999    -9.50305  15(r)
    8. CR ( 3)Cl  2             2.00000    -7.46666
    9. CR ( 4)Cl  2             2.00000    -7.46666
   10. CR ( 5)Cl  2             1.99998    -7.46823  15(r),18(r)
   11. LP ( 1)Cl  2             1.99992    -1.48835  15(r)
   12. LP ( 2)Cl  2             1.99633    -0.20675  16(r),17(r)
   13. LP ( 3)Cl  2             1.99633    -0.20675  17(r),16(r)
   14. LP ( 4)Cl  2             1.91920    -0.23674  15(r),18(r)
          -------------------------------
                 Total Lewis   17.91175  (100.0000%)
           Valence non-Lewis    0.00000  (  0.0000%)
           Rydberg non-Lewis    0.00000  (  0.0000%)
          -------------------------------
               Total unit  2   17.91175  (100.0000%)
              Charge unit  2   -0.91175

 $CHOOSE
   LONE 2 4 END
 $END

 NBO analysis completed in 0.17 CPU seconds (1 wall second)
 Maximum scratch memory used by NBO was 263934 words (2.01 MB)
 Maximum scratch memory used by G16NBO was 8661 words (0.07 MB)

 Opening RunExU unformatted file "/cluster/work/users/beto93/mol44/Gau-2204134.EUF"
 Read unf file /cluster/work/users/beto93/mol44/Gau-2204134.EUF:
 Label Gaussian matrix elements                                         IVers= 2 NLab= 2 Version=ES64L-G16RevC.01
 Title mol44-NBO                                                       
 NAtoms=     2 NBasis=    18 NBsUse=    18 ICharg=     0 Multip=     1 NE=    28 Len12L=8 Len4L=8 IOpCl= 0 ICGU=111
 GAUSSIAN SCALARS                    NI= 1 NR= 1 NTot=       1 LenBuf=    2 NRI=1 N=    1000
 NPA CHARGES                         NI= 0 NR= 1 NTot=       2 LenBuf= 4000 NRI=1 N=       2
 Recovered energy= -614.522307566     dipole=     -0.000000000000     -0.000000000000     -3.930991194470
 Unable to Open any file for archive entry.
 1\1\GINC-C2-23\SP\RHF\STO-3G\Cl1Na1\BETO93\18-Nov-2024\0\\#RHF/STO-3G 
 int=nobasistransform Symmetry=None 5D 7F Pop=NBO7Read\\mol44-NBO\\0,1\
 Na,0,0.,0.,-1.45166\Cl,0,0.,0.,0.93931\\Version=ES64L-G16RevC.01\HF=-6
 14.5223076\RMSD=3.400e-09\Dipole=0.,0.,-3.9309912\Quadrupole=-1.559044
 ,-1.559044,3.118088,0.,0.,0.\PG=Unknown\\@
 The archive entry for this job was punched.


 SACRED COWS MAKE GREAT HAMBURGERS -- ROBERT REISNER
 Job cpu time:       0 days  0 hours  0 minutes  6.8 seconds.
 Elapsed time:       0 days  0 hours  0 minutes  2.3 seconds.
 File lengths (MBytes):  RWF=     10 Int=      0 D2E=      0 Chk=      1 Scr=      1
 Normal termination of Gaussian 16 at Mon Nov 18 15:41:31 2024.
