 Entering Gaussian System, Link 0=g16
 Initial command:
 /cluster/software/Gaussian/g16_C.01/l1.exe "/cluster/work/users/beto93/mol64/Gau-2207582.inp" -scrdir="/cluster/work/users/beto93/mol64/"
 Entering Link 1 = /cluster/software/Gaussian/g16_C.01/l1.exe PID=   2207587.
  
 Copyright (c) 1988-2019, Gaussian, Inc.  All Rights Reserved.
  
 This is part of the Gaussian(R) 16 program.  It is based on
 the Gaussian(R) 09 system (copyright 2009, Gaussian, Inc.),
 the Gaussian(R) 03 system (copyright 2003, Gaussian, Inc.),
 the Gaussian(R) 98 system (copyright 1998, Gaussian, Inc.),
 the Gaussian(R) 94 system (copyright 1995, Gaussian, Inc.),
 the Gaussian 92(TM) system (copyright 1992, Gaussian, Inc.),
 the Gaussian 90(TM) system (copyright 1990, Gaussian, Inc.),
 the Gaussian 88(TM) system (copyright 1988, Gaussian, Inc.),
 the Gaussian 86(TM) system (copyright 1986, Carnegie Mellon
 University), and the Gaussian 82(TM) system (copyright 1983,
 Carnegie Mellon University). Gaussian is a federally registered
 trademark of Gaussian, Inc.
  
 This software contains proprietary and confidential information,
 including trade secrets, belonging to Gaussian, Inc.
  
 This software is provided under written license and may be
 used, copied, transmitted, or stored only in accord with that
 written license.
  
 The following legend is applicable only to US Government
 contracts under FAR:
  
                    RESTRICTED RIGHTS LEGEND
  
 Use, reproduction and disclosure by the US Government is
 subject to restrictions as set forth in subparagraphs (a)
 and (c) of the Commercial Computer Software - Restricted
 Rights clause in FAR 52.227-19.
  
 Gaussian, Inc.
 340 Quinnipiac St., Bldg. 40, Wallingford CT 06492
  
  
 ---------------------------------------------------------------
 Warning -- This program may not be used in any manner that
 competes with the business of Gaussian, Inc. or will provide
 assistance to any competitor of Gaussian, Inc.  The licensee
 of this program is prohibited from giving any competitor of
 Gaussian, Inc. access to this program.  By using this program,
 the user acknowledges that Gaussian, Inc. is engaged in the
 business of creating and licensing software in the field of
 computational chemistry and represents and warrants to the
 licensee that it is not a competitor of Gaussian, Inc. and that
 it will not use this program in any manner prohibited above.
 ---------------------------------------------------------------
  

 Cite this work as:
 Gaussian 16, Revision C.01,
 M. J. Frisch, G. W. Trucks, H. B. Schlegel, G. E. Scuseria, 
 M. A. Robb, J. R. Cheeseman, G. Scalmani, V. Barone, 
 G. A. Petersson, H. Nakatsuji, X. Li, M. Caricato, A. V. Marenich, 
 J. Bloino, B. G. Janesko, R. Gomperts, B. Mennucci, H. P. Hratchian, 
 J. V. Ortiz, A. F. Izmaylov, J. L. Sonnenberg, D. Williams-Young, 
 F. Ding, F. Lipparini, F. Egidi, J. Goings, B. Peng, A. Petrone, 
 T. Henderson, D. Ranasinghe, V. G. Zakrzewski, J. Gao, N. Rega, 
 G. Zheng, W. Liang, M. Hada, M. Ehara, K. Toyota, R. Fukuda, 
 J. Hasegawa, M. Ishida, T. Nakajima, Y. Honda, O. Kitao, H. Nakai, 
 T. Vreven, K. Throssell, J. A. Montgomery, Jr., J. E. Peralta, 
 F. Ogliaro, M. J. Bearpark, J. J. Heyd, E. N. Brothers, K. N. Kudin, 
 V. N. Staroverov, T. A. Keith, R. Kobayashi, J. Normand, 
 K. Raghavachari, A. P. Rendell, J. C. Burant, S. S. Iyengar, 
 J. Tomasi, M. Cossi, J. M. Millam, M. Klene, C. Adamo, R. Cammi, 
 J. W. Ochterski, R. L. Martin, K. Morokuma, O. Farkas, 
 J. B. Foresman, and D. J. Fox, Gaussian, Inc., Wallingford CT, 2019.
 
 ******************************************
 Gaussian 16:  ES64L-G16RevC.01  3-Jul-2019
                18-Nov-2024 
 ******************************************
 %LindaWorkers=c2-23-ib
 %NProcShared=4
 Will use up to    4 processors via shared memory.
 %mem=25GB
 %chk=mol64.chk
 SetLPE:    new flags="-opt 'Tsnet.Node.lindarsharg: ssh'  -nodelist 'c2-23-ib.saga' -env GAUSS_MDEF=3355443200 -env GAUSS_EXEDIR="/cluster/software/Gaussian/g16_C.01/bsd:/cluster/software/Gaussian/g16_C.01""
 Will use up to    1 processors via Linda.
 -----------------------------------------------------------------
 #RHF/6-31G* int=nobasistransform Symmetry=None 5D 7F Pop=NBO7Read
 -----------------------------------------------------------------
 1/38=1,163=2,172=1/1;
 2/12=2,15=3,17=6,18=5,40=1/2;
 3/5=1,6=6,7=1,8=11,11=1,25=1,30=1,60=-1,116=1/1,2,3;
 4//1;
 5/5=2,38=5/2;
 6/7=2,8=2,9=2,10=2,28=1,40=2,113=1,114=1,124=2103/1,12;
 99/5=1,9=1/99;
 ---------
 mol64-NBO
 ---------
 Symbolic Z-matrix:
 Charge =  0 Multiplicity = 1
 Si                    0.        0.        0. 
 F                     0.91281   0.91281   0.91281 
 F                    -0.91281  -0.91281   0.91281 
 F                    -0.91281   0.91281  -0.91281 
 F                     0.91281  -0.91281  -0.91281 
 
                          Input orientation:                          
 ---------------------------------------------------------------------
 Center     Atomic      Atomic             Coordinates (Angstroms)
 Number     Number       Type             X           Y           Z
 ---------------------------------------------------------------------
      1         14           0        0.000000    0.000000    0.000000
      2          9           0        0.912806    0.912806    0.912806
      3          9           0       -0.912806   -0.912806    0.912806
      4          9           0       -0.912806    0.912806   -0.912806
      5          9           0        0.912806   -0.912806   -0.912806
 ---------------------------------------------------------------------
                    Distance matrix (angstroms):
                    1          2          3          4          5
     1  Si   0.000000
     2  F    1.581026   0.000000
     3  F    1.581026   2.581805   0.000000
     4  F    1.581026   2.581805   2.581805   0.000000
     5  F    1.581026   2.581805   2.581805   2.581805   0.000000
 Symmetry turned off by external request.
 Stoichiometry    F4Si
 Rotational constants (GHZ):           3.9907373           3.9907373           3.9907373
 Standard basis: 6-31G(d) (5D, 7F)
    74 basis functions,   164 primitive gaussians,    79 cartesian basis functions
    25 alpha electrons       25 beta electrons
       nuclear repulsion energy       268.3037688405 Hartrees.
 NAtoms=    5 NActive=    5 NUniq=    5 SFac= 1.00D+00 NAtFMM=   60 NAOKFM=F Big=F
 Integral buffers will be    131072 words long.
 Raffenetti 1 integral format.
 Two-electron integral symmetry is turned off.
 One-electron integrals computed using PRISM.
 NBasis=    74 RedAO= T EigKep=  3.16D-02  NBF=    74
 NBsUse=    74 1.00D-06 EigRej= -1.00D+00 NBFU=    74
 ExpMin= 7.78D-02 ExpMax= 1.61D+04 ExpMxC= 2.43D+03 IAcc=3 IRadAn=         5 AccDes= 0.00D+00
 Harris functional with IExCor=  205 and IRadAn=       5 diagonalized for initial guess.
 HarFok:  IExCor=  205 AccDes= 0.00D+00 IRadAn=         5 IDoV= 1 UseB2=F ITyADJ=14
 ICtDFT=  3500011 ScaDFX=  1.000000  1.000000  1.000000  1.000000
 FoFCou: FMM=F IPFlag=           0 FMFlag=      100000 FMFlg1=           0
         NFxFlg=           0 DoJE=T BraDBF=F KetDBF=T FulRan=T
         wScrn=  0.000000 ICntrl=       500 IOpCl=  0 I1Cent=   200000004 NGrid=           0
         NMat0=    1 NMatS0=      1 NMatT0=    0 NMatD0=    1 NMtDS0=    0 NMtDT0=    0
 Symmetry not used in FoFCou.
 Keep R1 ints in memory in canonical form, NReq=4698447.
 Requested convergence on RMS density matrix=1.00D-08 within 128 cycles.
 Requested convergence on MAX density matrix=1.00D-06.
 Requested convergence on             energy=1.00D-06.
 No special actions if energy rises.
 SCF Done:  E(RHF) =  -686.939927665     A.U. after    9 cycles
            NFock=  9  Conv=0.26D-08     -V/T= 2.0008

 **********************************************************************

            Population analysis using the SCF Density.

 **********************************************************************

 Alpha  occ. eigenvalues --  -68.96281 -26.33965 -26.33965 -26.33965 -26.33965
 Alpha  occ. eigenvalues --   -6.29900  -4.40840  -4.40840  -4.40840  -1.66357
 Alpha  occ. eigenvalues --   -1.62790  -1.62790  -1.62790  -0.85232  -0.77187
 Alpha  occ. eigenvalues --   -0.77187  -0.77187  -0.71939  -0.71939  -0.70194
 Alpha  occ. eigenvalues --   -0.70194  -0.70194  -0.67182  -0.67182  -0.67182
 Alpha virt. eigenvalues --    0.15782   0.22361   0.22361   0.22361   0.43804
 Alpha virt. eigenvalues --    0.47153   0.47153   0.47153   0.80203   0.80203
 Alpha virt. eigenvalues --    1.15172   1.15172   1.15172   1.47896   1.47896
 Alpha virt. eigenvalues --    1.52668   1.52668   1.52668   1.55162   1.55162
 Alpha virt. eigenvalues --    1.55162   1.55549   1.69270   1.69270   1.69270
 Alpha virt. eigenvalues --    2.01087   2.01087   2.01087   2.03180   2.03180
 Alpha virt. eigenvalues --    2.03180   2.07156   2.07156   2.07156   2.07211
 Alpha virt. eigenvalues --    2.07211   2.08969   2.08969   2.08969   2.17910
 Alpha virt. eigenvalues --    2.43126   2.43126   2.43126   2.64086   2.64086
 Alpha virt. eigenvalues --    3.08562   3.38895   3.38895   3.38895
          Condensed to atoms (all electrons):
               1          2          3          4          5
     1  Si  10.802870   0.297779   0.297779   0.297779   0.297779
     2  F    0.297779   9.222317  -0.006197  -0.006197  -0.006197
     3  F    0.297779  -0.006197   9.222317  -0.006197  -0.006197
     4  F    0.297779  -0.006197  -0.006197   9.222317  -0.006197
     5  F    0.297779  -0.006197  -0.006197  -0.006197   9.222317
 Mulliken charges:
               1
     1  Si   2.006016
     2  F   -0.501504
     3  F   -0.501504
     4  F   -0.501504
     5  F   -0.501504
 Sum of Mulliken charges =  -0.00000
 Mulliken charges with hydrogens summed into heavy atoms:
               1
     1  Si   2.006016
     2  F   -0.501504
     3  F   -0.501504
     4  F   -0.501504
     5  F   -0.501504
 Electronic spatial extent (au):  <R**2>=            393.6413
 Charge=             -0.0000 electrons
 Dipole moment (field-independent basis, Debye):
    X=             -0.0000    Y=             -0.0000    Z=             -0.0000  Tot=              0.0000
 Quadrupole moment (field-independent basis, Debye-Ang):
   XX=            -32.4114   YY=            -32.4114   ZZ=            -32.4114
   XY=             -0.0000   XZ=             -0.0000   YZ=             -0.0000
 Traceless Quadrupole moment (field-independent basis, Debye-Ang):
   XX=              0.0000   YY=              0.0000   ZZ=             -0.0000
   XY=             -0.0000   XZ=             -0.0000   YZ=             -0.0000
 Octapole moment (field-independent basis, Debye-Ang**2):
  XXX=              0.0000  YYY=             -0.0000  ZZZ=              0.0000  XYY=             -0.0000
  XXY=             -0.0000  XXZ=             -0.0000  XZZ=             -0.0000  YZZ=             -0.0000
  YYZ=              0.0000  XYZ=             -4.8485
 Hexadecapole moment (field-independent basis, Debye-Ang**3):
 XXXX=           -120.4296 YYYY=           -120.4296 ZZZZ=           -120.4296 XXXY=             -0.0000
 XXXZ=             -0.0000 YYYX=              0.0000 YYYZ=              0.0000 ZZZX=             -0.0000
 ZZZY=             -0.0000 XXYY=            -42.0951 XXZZ=            -42.0951 YYZZ=            -42.0951
 XXYZ=             -0.0000 YYXZ=             -0.0000 ZZXY=             -0.0000
 N-N= 2.683037688405D+02 E-N=-2.178665157510D+03  KE= 6.864195678811D+02
 Running external command "gaunbo7 R"
         input file       "/cluster/work/users/beto93/mol64/Gau-2207587.EIn"
         output file      "/cluster/work/users/beto93/mol64/Gau-2207587.EOu"
         message file     "/cluster/work/users/beto93/mol64/Gau-2207587.EMs"
         fchk file        "/cluster/work/users/beto93/mol64/Gau-2207587.EFC"
         mat. el file     "/cluster/work/users/beto93/mol64/Gau-2207587.EUF"

 Writing WrtUnf unformatted file "/cluster/work/users/beto93/mol64/Gau-2207587.EUF"
 Gaussian matrix elements                                         Version   2 NLab=11 Len12L=8 Len4L=8
 Write SHELL TO ATOM MAP                   from file      0 offset           0 length                  21 to matrix element file.
 Write SHELL TYPES                         from file      0 offset           0 length                  21 to matrix element file.
 Write NUMBER OF PRIMITIVES PER SHELL      from file      0 offset           0 length                  21 to matrix element file.
 Write PRIMITIVE EXPONENTS                 from file      0 offset           0 length                  61 to matrix element file.
 Write CONTRACTION COEFFICIENTS            from file      0 offset           0 length                  61 to matrix element file.
 Write P(S=P) CONTRACTION COEFFICIENTS     from file      0 offset           0 length                  61 to matrix element file.
 Write COORDINATES OF EACH SHELL           from file      0 offset           0 length                  63 to matrix element file.
 Write BONDS PER ATOM                      from file      0 offset           0 length                   5 to matrix element file.
 Write BONDED ATOMS                        from file      0 offset           0 length                   8 to matrix element file.
 Write BOND TYPES                          from file      0 offset           0 length                   8 to matrix element file.
 Write ONIOM CHARGE/MULT                   from file      0 offset           0 length                  32 to matrix element file.
 Write ONIOM ATOM LAYERS                   from file      0 offset           0 length                   5 to matrix element file.
 Write ONIOM ATOM MODIFIERS                from file      0 offset           0 length                   5 to matrix element file.
 Write ONIOM ATOM TYPES                    from file      0 offset           0 length                   5 to matrix element file.
 Write ONIOM LINK ATOMS                    from file      0 offset           0 length                   5 to matrix element file.
 Write ONIOM LINK CHARGES                  from file      0 offset           0 length                   5 to matrix element file.
 Write ONIOM LINK DISTANCES                from file      0 offset           0 length                  20 to matrix element file.
 Write SYMINF INTS                         from file      0 offset           0 length                  26 to matrix element file.
 Write ROTTR TO SO                         from file      0 offset           0 length                  12 to matrix element file.
 Write GAUSSIAN SCALARS                    from file    501 offset           0 to matrix element file.
 Write OPTIMIZATION FLAGS                  from file      0 offset           0 length                   5 to matrix element file.
 Write INTEGER ISO                         from file      0 offset           0 length                   5 to matrix element file.
 Write INTEGER SPIN                        from file      0 offset           0 length                   5 to matrix element file.
 Write REAL ZEFFECTIVE                     from file      0 offset           0 length                   5 to matrix element file.
 Write REAL GFACTOR                        from file      0 offset           0 length                   5 to matrix element file.
 Write REAL ZNUCLEAR                       from file      0 offset           0 length                   5 to matrix element file.
 Write MULLIKEN CHARGES                    from file      0 offset           0 length                   5 to matrix element file.
 Write NUCLEAR GRADIENT                    from file  10584 offset           0 length                  15 to matrix element file.
 Array NUCLEAR FORCE CONSTANTS              on  file  10585 does not exist.
 Write ELECTRIC DIPOLE MOMENT              from file      0 offset           0 length                   3 to matrix element file.
 Write NON-ADIABATIC COUPLING              from file  10810 offset           0 length                  15 to matrix element file.
 Write FINITE EM FIELD                     from file  10521 offset           0 length                  35 to matrix element file.
 Write OVERLAP                             from file  10514 offset           0 length                2775 to matrix element file.
 Write CORE HAMILTONIAN ALPHA              from file  10515 offset           0 length                2775 to matrix element file.
 Write CORE HAMILTONIAN BETA               from file  10515 offset        2775 length                2775 to matrix element file.
 Write KINETIC ENERGY                      from file  10516 offset           0 length                2775 to matrix element file.
 Write ORTHOGONAL BASIS                    from file  10685 offset           0 length                5476 to matrix element file.
 Write DIPOLE INTEGRALS                    from file  10518 offset           0 length                8325 to matrix element file.
 Array DIP VEL INTEGRALS                    on  file  10572 does not exist.
 Array R X DEL INTEGRALS                    on  file  10572 does not exist.
 Write ALPHA ORBITAL ENERGIES              from file      0 offset           0 length                  74 to matrix element file.
 Write ALPHA MO COEFFICIENTS               from file  10524 offset           0 length                5476 to matrix element file.
 Write ALPHA DENSITY MATRIX                from file      0 offset           0 length                2775 to matrix element file.
 Write ALPHA FOCK MATRIX                   from file  10536 offset           0 length                2775 to matrix element file.
 Write ENERGY-WEIGHTED DENSITY             from file  10571 offset           0 length                2775 to matrix element file.
 Write ALPHA SCF DENSITY MATRIX            from file      0 offset           0 length                2775 to matrix element file.
 No 2e integrals to process.
 Perform NBO analysis...executing G16NBO...

 *********************************** NBO 7.0 ***********************************
             N A T U R A L   A T O M I C   O R B I T A L   A N D
          N A T U R A L   B O N D   O R B I T A L   A N A L Y S I S
 **************************** Espen Tangen (S101595) ***************************
  (c) Copyright 1996-2021 Board of Regents of the University of Wisconsin System
      on behalf of the Theoretical Chemistry Institute.  All rights reserved.

          Cite this program [NBO 7.0.10 (8-Feb-2021)] as:

          NBO 7.0.  E. D. Glendening, J. K. Badenhoop, A. E. Reed,
          J. E. Carpenter, J. A. Bohmann, C. M. Morales, P. Karafiloglou,
          C. R. Landis, and F. Weinhold, Theoretical Chemistry Institute,
          University of Wisconsin, Madison, WI (2018)

       /NPA    / : Natural Population Analysis
       /AOPNAO / : Print the AO to PNAO transformation
       /AONAO  / : Print the AO to NAO transformation
       /AOMO   / : Print the MOs in the AO basis
       /BOAO   / : Print the AO bond-order matrix
       /DMAO   / : Print the AO density matrix
       /DMPNAO / : Print the PNAO density matrix
       /DMNAO  / : Print the NAO density matrix
       /DMMO   / : Print the MO density matrix
       /SAO    / : Print the AO overlap matrix
       /SPNAO  / : Print the PNAO overlap matrix
       /DETAIL / : Write details of NBO search
       /ARCHIVE/ : Write the archive file to lfn47
       /AOINFO / : Write AO information to lfn31
       /FILE   / : Set to mol64.gen*

 Filename set to mol64.gen1

 Job title: mol64-NBO


 MOs in the AO basis:

           AO          1       2       3       4       5       6       7       8
      ------------ ------- ------- ------- ------- ------- ------- ------- -------
   1. Si 1 (s)      0.9971  0.0001  0.0000  0.0000  0.0000 -0.2698  0.0000  0.0000
   2. Si 1 (s)      0.0109 -0.0001  0.0000  0.0000  0.0000  1.0300  0.0000  0.0000
   3. Si 1 (px)     0.0000  0.0000 -0.0002  0.0001 -0.0001  0.0000  0.5196 -0.0275
   4. Si 1 (py)     0.0000  0.0000  0.0000 -0.0002 -0.0002  0.0000 -0.5755  0.7183
   5. Si 1 (pz)     0.0000  0.0000  0.0001  0.0002 -0.0001  0.0000  0.6225  0.6870
   6. Si 1 (s)     -0.0057  0.0032  0.0000  0.0000  0.0000  0.0123  0.0000  0.0000
   7. Si 1 (px)     0.0000  0.0000  0.0028 -0.0014  0.0015  0.0000  0.0094 -0.0005
   8. Si 1 (py)     0.0000  0.0000 -0.0003  0.0021  0.0027  0.0000 -0.0104  0.0130
   9. Si 1 (pz)     0.0000  0.0000 -0.0020 -0.0023  0.0016  0.0000  0.0112  0.0124
  10. Si 1 (s)      0.0014  0.0023  0.0000  0.0000  0.0000 -0.0032  0.0000  0.0000
  11. Si 1 (px)     0.0000  0.0000  0.0007 -0.0003  0.0004  0.0000 -0.0019  0.0001
  12. Si 1 (py)     0.0000  0.0000 -0.0001  0.0005  0.0007  0.0000  0.0022 -0.0027
  13. Si 1 (pz)     0.0000  0.0000 -0.0005 -0.0006  0.0004  0.0000 -0.0023 -0.0026
  14. Si 1 (d5)     0.0000  0.0000  0.0000  0.0000  0.0000  0.0000  0.0000  0.0000
  15. Si 1 (d2)     0.0000  0.0000 -0.0001  0.0010  0.0012  0.0000  0.0003 -0.0004
  16. Si 1 (d3)     0.0000  0.0000  0.0012 -0.0006  0.0007  0.0000 -0.0003  0.0000
  17. Si 1 (d4)     0.0000  0.0000  0.0000  0.0000  0.0000  0.0000  0.0000  0.0000
  18. Si 1 (d1)     0.0000  0.0000 -0.0009 -0.0010  0.0007  0.0000 -0.0003 -0.0003
  19.  F 2 (s)      0.0000  0.4978  0.0675 -0.2273  0.8289 -0.0004 -0.0005 -0.0013
  20.  F 2 (s)     -0.0004  0.0113  0.0015 -0.0051  0.0185  0.0005  0.0007  0.0017
  21.  F 2 (px)     0.0001 -0.0004  0.0000  0.0001 -0.0006 -0.0006 -0.0005 -0.0020
  22.  F 2 (py)     0.0001 -0.0004 -0.0001  0.0002 -0.0005 -0.0006 -0.0012 -0.0015
  23.  F 2 (pz)     0.0001 -0.0004 -0.0001  0.0001 -0.0006 -0.0006 -0.0004 -0.0015
  24.  F 2 (s)      0.0011 -0.0043 -0.0006  0.0019 -0.0068  0.0005  0.0008  0.0019
  25.  F 2 (px)    -0.0006  0.0008 -0.0003 -0.0003  0.0015 -0.0001 -0.0005 -0.0008
  26.  F 2 (py)    -0.0006  0.0008  0.0002 -0.0008  0.0013 -0.0001 -0.0001 -0.0011
  27.  F 2 (pz)    -0.0006  0.0008  0.0004 -0.0001  0.0014 -0.0001 -0.0005 -0.0010
  28.  F 2 (d5)     0.0000  0.0000 -0.0001 -0.0001  0.0000  0.0000 -0.0001 -0.0001
  29.  F 2 (d2)     0.0002 -0.0002  0.0000  0.0000 -0.0005  0.0004  0.0004  0.0012
  30.  F 2 (d3)     0.0002 -0.0002 -0.0001  0.0001 -0.0004  0.0004  0.0005  0.0011
  31.  F 2 (d4)     0.0000  0.0000  0.0001 -0.0001  0.0000  0.0000 -0.0001  0.0001
  32.  F 2 (d1)     0.0002 -0.0002  0.0000  0.0002 -0.0004  0.0004  0.0006  0.0012
  33.  F 3 (s)      0.0000  0.4978 -0.6476 -0.4362 -0.3658 -0.0004 -0.0006  0.0000
  34.  F 3 (s)     -0.0004  0.0113 -0.0145 -0.0097 -0.0082  0.0005  0.0009  0.0000
  35.  F 3 (px)    -0.0001  0.0004 -0.0004 -0.0004 -0.0002  0.0006  0.0013  0.0000
  36.  F 3 (py)    -0.0001  0.0004 -0.0005 -0.0003 -0.0002  0.0006  0.0006  0.0005
  37.  F 3 (pz)     0.0001 -0.0004  0.0004  0.0003  0.0003 -0.0006 -0.0006  0.0004
  38.  F 3 (s)      0.0011 -0.0043  0.0053  0.0036  0.0030  0.0005  0.0009  0.0000
  39.  F 3 (px)     0.0006 -0.0008  0.0009  0.0011  0.0005  0.0001  0.0002  0.0000
  40.  F 3 (py)     0.0006 -0.0008  0.0014  0.0006  0.0003  0.0001  0.0006 -0.0002
  41.  F 3 (pz)    -0.0006  0.0008 -0.0010 -0.0005 -0.0010 -0.0001 -0.0006 -0.0002
  42.  F 3 (d5)     0.0000  0.0000  0.0000  0.0000  0.0001  0.0000 -0.0001 -0.0002
  43.  F 3 (d2)    -0.0002  0.0002 -0.0003 -0.0003 -0.0002 -0.0004 -0.0006  0.0001
  44.  F 3 (d3)    -0.0002  0.0002 -0.0004 -0.0002 -0.0002 -0.0004 -0.0005  0.0000
  45.  F 3 (d4)     0.0000  0.0000 -0.0001  0.0001  0.0000  0.0000  0.0001 -0.0001
  46.  F 3 (d1)     0.0002 -0.0002  0.0004  0.0003  0.0001  0.0004  0.0006  0.0001
  47.  F 4 (s)      0.0000  0.4978 -0.1566  0.8461 -0.0542 -0.0004  0.0016 -0.0001
  48.  F 4 (s)     -0.0004  0.0113 -0.0035  0.0189 -0.0012  0.0005 -0.0022  0.0001
  49.  F 4 (px)    -0.0001  0.0004  0.0000  0.0006  0.0000  0.0006 -0.0021  0.0001
  50.  F 4 (py)     0.0001 -0.0004  0.0001 -0.0006  0.0001 -0.0006  0.0021  0.0004
  51.  F 4 (pz)    -0.0001  0.0004 -0.0002  0.0006  0.0000  0.0006 -0.0021  0.0005
  52.  F 4 (s)      0.0011 -0.0043  0.0013 -0.0070  0.0004  0.0005 -0.0023  0.0001
  53.  F 4 (px)     0.0006 -0.0008 -0.0001 -0.0015 -0.0001  0.0001 -0.0012  0.0000
  54.  F 4 (py)    -0.0006  0.0008 -0.0003  0.0014 -0.0005 -0.0001  0.0012 -0.0003
  55.  F 4 (pz)     0.0006 -0.0008  0.0006 -0.0014 -0.0001  0.0001 -0.0012 -0.0002
  56.  F 4 (d5)     0.0000  0.0000  0.0001  0.0000  0.0000  0.0000  0.0000  0.0002
  57.  F 4 (d2)     0.0002 -0.0002  0.0001 -0.0005 -0.0001  0.0004 -0.0015  0.0001
  58.  F 4 (d3)    -0.0002  0.0002 -0.0002  0.0004 -0.0001 -0.0004  0.0015 -0.0001
  59.  F 4 (d4)     0.0000  0.0000  0.0000  0.0000 -0.0001  0.0000  0.0000  0.0001
  60.  F 4 (d1)    -0.0002  0.0002  0.0000  0.0005 -0.0001 -0.0004  0.0015  0.0000
  61.  F 5 (s)      0.0000  0.4978  0.7367 -0.1827 -0.4090 -0.0004 -0.0005  0.0014
  62.  F 5 (s)     -0.0004  0.0113  0.0164 -0.0041 -0.0091  0.0005  0.0006 -0.0018
  63.  F 5 (px)     0.0001 -0.0004 -0.0005  0.0001  0.0004 -0.0006 -0.0003  0.0020
  64.  F 5 (py)    -0.0001  0.0004  0.0005 -0.0001 -0.0002  0.0006  0.0003 -0.0016
  65.  F 5 (pz)    -0.0001  0.0004  0.0005 -0.0002 -0.0003  0.0006  0.0011 -0.0016
  66.  F 5 (s)      0.0011 -0.0043 -0.0061  0.0015  0.0034  0.0005  0.0006 -0.0020
  67.  F 5 (px)    -0.0006  0.0008  0.0011 -0.0002 -0.0010 -0.0001 -0.0005  0.0008
  68.  F 5 (py)     0.0006 -0.0008 -0.0014  0.0001  0.0004  0.0001  0.0005 -0.0011
  69.  F 5 (pz)     0.0006 -0.0008 -0.0012  0.0007  0.0006  0.0001  0.0001 -0.0011
  70.  F 5 (d5)     0.0000  0.0000  0.0000  0.0001  0.0000  0.0000  0.0002  0.0000
  71.  F 5 (d2)    -0.0002  0.0002  0.0004 -0.0001 -0.0003 -0.0004 -0.0005  0.0013
  72.  F 5 (d3)     0.0002 -0.0002 -0.0004  0.0001  0.0001  0.0004  0.0005 -0.0012
  73.  F 5 (d4)     0.0000  0.0000  0.0000  0.0000  0.0001  0.0000  0.0000 -0.0001
  74.  F 5 (d1)    -0.0002  0.0002  0.0004  0.0000 -0.0002 -0.0004 -0.0003  0.0013

           AO          9      10      11      12      13      14      15      16
      ------------ ------- ------- ------- ------- ------- ------- ------- -------
   1. Si 1 (s)      0.0000  0.0214  0.0000  0.0000  0.0000  0.0416  0.0000  0.0000
   2. Si 1 (s)      0.0000 -0.1070  0.0000  0.0000  0.0000 -0.1946  0.0000  0.0000
   3. Si 1 (px)     0.8473  0.0000 -0.0018  0.0656  0.0066  0.0000 -0.0036  0.1189
   4. Si 1 (py)     0.3762  0.0000  0.0477  0.0058 -0.0452  0.0000  0.0931  0.0366
   5. Si 1 (pz)    -0.3595  0.0000  0.0456 -0.0035  0.0476  0.0000  0.0890 -0.0336
   6. Si 1 (s)      0.0000  0.1035  0.0000  0.0000  0.0000  0.3816  0.0000  0.0000
   7. Si 1 (px)     0.0153  0.0000  0.0019 -0.0672 -0.0067  0.0000  0.0073 -0.2444
   8. Si 1 (py)     0.0068  0.0000 -0.0488 -0.0060  0.0463  0.0000 -0.1913 -0.0753
   9. Si 1 (pz)    -0.0065  0.0000 -0.0467  0.0036 -0.0487  0.0000 -0.1830  0.0690
  10. Si 1 (s)      0.0000 -0.0238  0.0000  0.0000  0.0000 -0.0495  0.0000  0.0000
  11. Si 1 (px)    -0.0032  0.0000 -0.0004  0.0130  0.0013  0.0000 -0.0002  0.0065
  12. Si 1 (py)    -0.0014  0.0000  0.0094  0.0012 -0.0089  0.0000  0.0051  0.0020
  13. Si 1 (pz)     0.0013  0.0000  0.0090 -0.0007  0.0094  0.0000  0.0049 -0.0018
  14. Si 1 (d5)     0.0000  0.0000  0.0000  0.0000  0.0000  0.0000  0.0000  0.0000
  15. Si 1 (d2)    -0.0002  0.0000 -0.0245 -0.0030  0.0233  0.0000 -0.0267 -0.0105
  16. Si 1 (d3)    -0.0004  0.0000  0.0009 -0.0338 -0.0034  0.0000  0.0010 -0.0341
  17. Si 1 (d4)     0.0000  0.0000  0.0000  0.0000  0.0000  0.0000  0.0000  0.0000
  18. Si 1 (d1)     0.0002  0.0000 -0.0235  0.0018 -0.0245  0.0000 -0.0255  0.0096
  19.  F 2 (s)     -0.0008 -0.1137  0.1631  0.1213  0.0158  0.0341 -0.0263 -0.0180
  20.  F 2 (s)      0.0011  0.2377 -0.3492 -0.2596 -0.0339 -0.0876  0.0612  0.0418
  21.  F 2 (px)    -0.0007 -0.0199  0.0233  0.0137  0.0019 -0.1538  0.2968 -0.0038
  22.  F 2 (py)    -0.0010 -0.0199  0.0206  0.0170  0.0048 -0.1538  0.1323  0.1362
  23.  F 2 (pz)    -0.0015 -0.0199  0.0207  0.0175 -0.0004 -0.1538  0.1392  0.2558
  24.  F 2 (s)      0.0012  0.2747 -0.3782 -0.2812 -0.0367 -0.0990  0.1143  0.0781
  25.  F 2 (px)    -0.0008 -0.0216  0.0206  0.0129  0.0018 -0.1038  0.1966 -0.0105
  26.  F 2 (py)    -0.0006 -0.0216  0.0188  0.0150  0.0036 -0.1038  0.0813  0.0877
  27.  F 2 (pz)    -0.0004 -0.0216  0.0189  0.0154  0.0003 -0.1038  0.0861  0.1714
  28.  F 2 (d5)     0.0002  0.0000  0.0003 -0.0005  0.0009  0.0000  0.0030 -0.0074
  29.  F 2 (d2)     0.0008  0.0071 -0.0069 -0.0049 -0.0003  0.0106 -0.0116 -0.0064
  30.  F 2 (d3)     0.0008  0.0071 -0.0066 -0.0054 -0.0007  0.0106 -0.0063 -0.0110
  31.  F 2 (d4)    -0.0001  0.0000 -0.0006  0.0007  0.0006  0.0000 -0.0056  0.0048
  32.  F 2 (d1)     0.0007  0.0071 -0.0069 -0.0049 -0.0010  0.0106 -0.0114 -0.0026
  33.  F 3 (s)      0.0015 -0.1137 -0.0005 -0.1337  0.1538  0.0341  0.0001  0.0279
  34.  F 3 (s)     -0.0020  0.2377  0.0010  0.2863 -0.3294 -0.0876 -0.0002 -0.0648
  35.  F 3 (px)    -0.0017  0.0199  0.0002  0.0154 -0.0223  0.1538  0.0069  0.1055
  36.  F 3 (py)    -0.0020  0.0199 -0.0026  0.0187 -0.0194  0.1538 -0.1577  0.2455
  37.  F 3 (pz)     0.0020 -0.0199 -0.0026 -0.0189  0.0193 -0.1538 -0.1524 -0.2508
  38.  F 3 (s)     -0.0022  0.2747  0.0010  0.3101 -0.3568 -0.0990 -0.0003 -0.1210
  39.  F 3 (px)    -0.0012  0.0216  0.0001  0.0145 -0.0196  0.1038  0.0048  0.0619
  40.  F 3 (py)    -0.0011  0.0216 -0.0016  0.0166 -0.0177  0.1038 -0.1105  0.1600
  41.  F 3 (pz)     0.0010 -0.0216 -0.0017 -0.0167  0.0177 -0.1038 -0.1068 -0.1637
  42.  F 3 (d5)     0.0000  0.0000  0.0009  0.0004  0.0004  0.0000  0.0089  0.0030
  43.  F 3 (d2)     0.0014 -0.0071 -0.0004 -0.0054  0.0065 -0.0106 -0.0052 -0.0089
  44.  F 3 (d3)     0.0014 -0.0071  0.0000 -0.0059  0.0061 -0.0106  0.0002 -0.0134
  45.  F 3 (d4)     0.0001  0.0000  0.0006 -0.0007 -0.0006  0.0000  0.0056 -0.0048
  46.  F 3 (d1)    -0.0014  0.0071 -0.0003  0.0054 -0.0066  0.0106 -0.0049  0.0087
  47.  F 4 (s)      0.0001 -0.1137  0.0070 -0.1004 -0.1772  0.0341 -0.0011  0.0072
  48.  F 4 (s)     -0.0001  0.2377 -0.0149  0.2150  0.3795 -0.0876  0.0026 -0.0167
  49.  F 4 (px)     0.0004  0.0199 -0.0009  0.0107  0.0249  0.1538 -0.0063 -0.1232
  50.  F 4 (py)     0.0004 -0.0199 -0.0016 -0.0146 -0.0228 -0.1538 -0.1461 -0.1417
  51.  F 4 (pz)    -0.0004  0.0199 -0.0035  0.0145  0.0226  0.1538 -0.1640  0.1364
  52.  F 4 (s)     -0.0002  0.2747 -0.0161  0.2329  0.4111 -0.0990  0.0049 -0.0311
  53.  F 4 (px)    -0.0004  0.0216 -0.0008  0.0103  0.0220  0.1038 -0.0040 -0.0894
  54.  F 4 (py)    -0.0001 -0.0216 -0.0008 -0.0128 -0.0207 -0.1038 -0.1029 -0.0962
  55.  F 4 (pz)     0.0001  0.0216 -0.0025  0.0127  0.0206  0.1038 -0.1144  0.0925
  56.  F 4 (d5)    -0.0001  0.0000 -0.0009  0.0004 -0.0003  0.0000 -0.0092  0.0050
  57.  F 4 (d2)     0.0000  0.0071 -0.0006  0.0040  0.0075  0.0106 -0.0054 -0.0003
  58.  F 4 (d3)     0.0002 -0.0071  0.0003 -0.0045 -0.0072 -0.0106  0.0005 -0.0083
  59.  F 4 (d4)     0.0002  0.0000 -0.0005 -0.0008  0.0004  0.0000 -0.0052 -0.0090
  60.  F 4 (d1)     0.0000 -0.0071 -0.0001 -0.0040 -0.0075 -0.0106 -0.0046  0.0001
  61.  F 5 (s)     -0.0008 -0.1137 -0.1696  0.1128  0.0076  0.0341  0.0274 -0.0171
  62.  F 5 (s)      0.0010  0.2377  0.3631 -0.2416 -0.0162 -0.0876 -0.0636  0.0397
  63.  F 5 (px)    -0.0006 -0.0199 -0.0241  0.0125  0.0007 -0.1538 -0.2963 -0.0139
  64.  F 5 (py)     0.0014  0.0199  0.0215 -0.0164  0.0014  0.1538  0.1439 -0.2510
  65.  F 5 (pz)     0.0010  0.0199  0.0217 -0.0159 -0.0037  0.1538  0.1508 -0.1314
  66.  F 5 (s)      0.0011  0.2747  0.3933 -0.2617 -0.0175 -0.0990 -0.1188  0.0741
  67.  F 5 (px)    -0.0008 -0.0216 -0.0212  0.0119  0.0007 -0.1038 -0.1958 -0.0171
  68.  F 5 (py)     0.0004  0.0216  0.0196 -0.0144  0.0006  0.1038  0.0890 -0.1685
  69.  F 5 (pz)     0.0006  0.0216  0.0197 -0.0141 -0.0026  0.1038  0.0938 -0.0847
  70.  F 5 (d5)     0.0000  0.0000 -0.0003 -0.0003 -0.0010  0.0000 -0.0027 -0.0005
  71.  F 5 (d2)    -0.0006 -0.0071 -0.0072  0.0045  0.0006 -0.0106 -0.0119  0.0022
  72.  F 5 (d3)     0.0008  0.0071  0.0068 -0.0050 -0.0004  0.0106  0.0069 -0.0108
  73.  F 5 (d4)    -0.0002  0.0000  0.0005  0.0008 -0.0004  0.0000  0.0052  0.0090
  74.  F 5 (d1)    -0.0007 -0.0071 -0.0072  0.0046  0.0000 -0.0106 -0.0116  0.0060

           AO         17      18      19      20      21      22      23      24
      ------------ ------- ------- ------- ------- ------- ------- ------- -------
   1. Si 1 (s)      0.0000  0.0000  0.0000  0.0000  0.0000  0.0000  0.0000  0.0000
   2. Si 1 (s)      0.0000  0.0000  0.0000  0.0000  0.0000  0.0000  0.0000  0.0000
   3. Si 1 (px)    -0.0496  0.0000  0.0000 -0.0008  0.0214  0.0221  0.0000  0.0000
   4. Si 1 (py)     0.0812  0.0000  0.0000  0.0222 -0.0148  0.0152  0.0000  0.0000
   5. Si 1 (pz)    -0.0869  0.0000  0.0000  0.0212  0.0164 -0.0150  0.0000  0.0000
   6. Si 1 (s)      0.0000  0.0000  0.0000  0.0000  0.0000  0.0000  0.0000  0.0000
   7. Si 1 (px)     0.1019  0.0000  0.0000  0.0016 -0.0403 -0.0416  0.0000  0.0000
   8. Si 1 (py)    -0.1669  0.0000  0.0000 -0.0419  0.0279 -0.0287  0.0000  0.0000
   9. Si 1 (pz)     0.1786  0.0000  0.0000 -0.0400 -0.0308  0.0284  0.0000  0.0000
  10. Si 1 (s)      0.0000  0.0000  0.0000  0.0000  0.0000  0.0000  0.0000  0.0000
  11. Si 1 (px)    -0.0027  0.0000  0.0000 -0.0025  0.0630  0.0649  0.0000  0.0000
  12. Si 1 (py)     0.0045  0.0000  0.0000  0.0653 -0.0436  0.0448  0.0000  0.0000
  13. Si 1 (pz)    -0.0048  0.0000  0.0000  0.0625  0.0481 -0.0443  0.0000  0.0000
  14. Si 1 (d5)     0.0000  0.0752 -0.0378  0.0000  0.0000  0.0000  0.0000  0.0000
  15. Si 1 (d2)    -0.0233  0.0000  0.0000 -0.0723  0.0482 -0.0496  0.0000  0.0000
  16. Si 1 (d3)     0.0142  0.0000  0.0000  0.0028 -0.0696 -0.0718  0.0000  0.0000
  17. Si 1 (d4)     0.0000  0.0378  0.0752  0.0000  0.0000  0.0000  0.0000  0.0000
  18. Si 1 (d1)     0.0249  0.0000  0.0000 -0.0691 -0.0532  0.0489  0.0000  0.0000
  19.  F 2 (s)      0.0082  0.0000  0.0000 -0.0084 -0.0045 -0.0044  0.0000  0.0000
  20.  F 2 (s)     -0.0189  0.0000  0.0000  0.0258  0.0139  0.0135  0.0000  0.0000
  21.  F 2 (px)    -0.0056 -0.0149  0.2575  0.0046  0.2243  0.2309  0.2208 -0.1568
  22.  F 2 (py)    -0.2282 -0.2156 -0.1416  0.2387 -0.1434  0.1616 -0.2284 -0.1747
  23.  F 2 (pz)     0.0580  0.2305 -0.1159  0.2289  0.1732 -0.1458  0.0077  0.3315
  24.  F 2 (s)     -0.0354  0.0000  0.0000  0.0178  0.0096  0.0093  0.0000  0.0000
  25.  F 2 (px)    -0.0004 -0.0112  0.1934 -0.0062  0.1555  0.1603  0.1652 -0.1173
  26.  F 2 (py)    -0.1564 -0.1619 -0.1064  0.1614 -0.1078  0.1107 -0.1709 -0.1307
  27.  F 2 (pz)     0.0442  0.1731 -0.0870  0.1544  0.1189 -0.1094  0.0057  0.2480
  28.  F 2 (d5)    -0.0069 -0.0105  0.0053 -0.0034 -0.0042  0.0107 -0.0004 -0.0181
  29.  F 2 (d2)    -0.0025 -0.0067 -0.0044 -0.0043 -0.0092 -0.0013 -0.0062 -0.0047
  30.  F 2 (d3)     0.0047 -0.0005  0.0081 -0.0103  0.0001  0.0004  0.0060 -0.0042
  31.  F 2 (d4)    -0.0076 -0.0053 -0.0105  0.0064 -0.0100 -0.0019 -0.0142 -0.0006
  32.  F 2 (d1)     0.0068  0.0072 -0.0036 -0.0046 -0.0012 -0.0091  0.0002  0.0089
  33.  F 3 (s)      0.0175  0.0000  0.0000  0.0000 -0.0019  0.0103  0.0000  0.0000
  34.  F 3 (s)     -0.0406  0.0000  0.0000 -0.0001  0.0059 -0.0316  0.0000  0.0000
  35.  F 3 (px)     0.2774  0.0149 -0.2575 -0.0086  0.2142  0.2403  0.0912 -0.1892
  36.  F 3 (py)     0.0547  0.2156  0.1416  0.2255 -0.1536  0.1709 -0.0988 -0.1423
  37.  F 3 (pz)    -0.0451  0.2305 -0.1159  0.2156  0.1691 -0.1690 -0.0077 -0.3315
  38.  F 3 (s)     -0.0759  0.0000  0.0000  0.0000  0.0041 -0.0219  0.0000  0.0000
  39.  F 3 (px)     0.1868  0.0112 -0.1934 -0.0062  0.1555  0.1603  0.0682 -0.1415
  40.  F 3 (py)     0.0308  0.1619  0.1064  0.1614 -0.1078  0.1107 -0.0740 -0.1065
  41.  F 3 (pz)    -0.0240  0.1731 -0.0870  0.1544  0.1189 -0.1093 -0.0057 -0.2480
  42.  F 3 (d5)    -0.0047 -0.0105  0.0053 -0.0102 -0.0062 -0.0011  0.0004  0.0181
  43.  F 3 (d2)    -0.0088  0.0067  0.0044  0.0057 -0.0015 -0.0084 -0.0027 -0.0038
  44.  F 3 (d3)    -0.0015  0.0005 -0.0081 -0.0002  0.0078 -0.0067  0.0025 -0.0051
  45.  F 3 (d4)     0.0076 -0.0053 -0.0105 -0.0064  0.0100  0.0019  0.0060 -0.0015
  46.  F 3 (d1)     0.0091  0.0072 -0.0036  0.0055  0.0019  0.0085 -0.0002 -0.0089
  47.  F 4 (s)     -0.0321  0.0000  0.0000 -0.0004  0.0103 -0.0016  0.0000  0.0000
  48.  F 4 (s)      0.0746  0.0000  0.0000  0.0011 -0.0318  0.0050  0.0000  0.0000
  49.  F 4 (px)    -0.2701  0.0149 -0.2575 -0.0092  0.2336  0.2215 -0.0912  0.1892
  50.  F 4 (py)     0.2162 -0.2156 -0.1416  0.2261 -0.1669  0.1572  0.2284  0.1747
  51.  F 4 (pz)    -0.2065 -0.2305  0.1159  0.2151  0.1824 -0.1553  0.3196 -0.0145
  52.  F 4 (s)      0.1393  0.0000  0.0000  0.0008 -0.0220  0.0034  0.0000  0.0000
  53.  F 4 (px)    -0.1753  0.0112 -0.1934 -0.0062  0.1555  0.1604 -0.0682  0.1415
  54.  F 4 (py)     0.1376 -0.1619 -0.1064  0.1614 -0.1077  0.1107  0.1709  0.1307
  55.  F 4 (pz)    -0.1308 -0.1731  0.0870  0.1544  0.1189 -0.1093  0.2392 -0.0108
  56.  F 4 (d5)     0.0014 -0.0105  0.0053  0.0104 -0.0006 -0.0059  0.0175 -0.0008
  57.  F 4 (d2)    -0.0124 -0.0067 -0.0044  0.0053  0.0086  0.0020  0.0062  0.0047
  58.  F 4 (d3)     0.0106  0.0005 -0.0081  0.0002 -0.0069  0.0076 -0.0025  0.0051
  59.  F 4 (d4)    -0.0018 -0.0053 -0.0105  0.0059  0.0018  0.0103  0.0043  0.0115
  60.  F 4 (d1)     0.0127 -0.0072  0.0036  0.0059 -0.0082 -0.0019  0.0086 -0.0004
  61.  F 5 (s)      0.0065  0.0000  0.0000  0.0087 -0.0039 -0.0043  0.0000  0.0000
  62.  F 5 (s)     -0.0150  0.0000  0.0000 -0.0268  0.0120  0.0132  0.0000  0.0000
  63.  F 5 (px)     0.0129 -0.0149  0.2575 -0.0224  0.2234  0.2308 -0.2208  0.1568
  64.  F 5 (py)    -0.0668  0.2156  0.1416  0.2393 -0.1567  0.1479  0.0988  0.1423
  65.  F 5 (pz)     0.2194 -0.2305  0.1159  0.2294  0.1599 -0.1596 -0.3196  0.0145
  66.  F 5 (s)     -0.0281  0.0000  0.0000 -0.0185  0.0083  0.0091  0.0000  0.0000
  67.  F 5 (px)     0.0119 -0.0112  0.1934 -0.0061  0.1555  0.1603 -0.1652  0.1173
  68.  F 5 (py)    -0.0496  0.1619  0.1064  0.1614 -0.1078  0.1107  0.0740  0.1065
  69.  F 5 (pz)     0.1510 -0.1731  0.0870  0.1544  0.1189 -0.1093 -0.2392  0.0108
  70.  F 5 (d5)     0.0102 -0.0105  0.0053  0.0031  0.0110 -0.0037 -0.0175  0.0008
  71.  F 5 (d2)    -0.0061  0.0067  0.0044 -0.0047  0.0009  0.0091  0.0027  0.0038
  72.  F 5 (d3)     0.0043 -0.0005  0.0081  0.0102  0.0008  0.0005 -0.0060  0.0042
  73.  F 5 (d4)     0.0018 -0.0053 -0.0105 -0.0059 -0.0018 -0.0103  0.0038 -0.0094
  74.  F 5 (d1)     0.0032 -0.0072  0.0036 -0.0050  0.0089  0.0013 -0.0086  0.0004

           AO         25      26      27      28      29      30      31      32
      ------------ ------- ------- ------- ------- ------- ------- ------- -------
   1. Si 1 (s)      0.0000  0.0232  0.0000  0.0000  0.0000  0.0882  0.0000  0.0000
   2. Si 1 (s)      0.0000 -0.2207  0.0000  0.0000  0.0000 -0.1518  0.0000  0.0000
   3. Si 1 (px)     0.0000  0.0000  0.0019 -0.0368 -0.0573  0.0000  0.0085 -0.1414
   4. Si 1 (py)     0.0000  0.0000 -0.0492  0.0389 -0.0266  0.0000 -0.2213  0.1850
   5. Si 1 (pz)     0.0000  0.0000 -0.0471 -0.0421  0.0255  0.0000 -0.2117 -0.1991
   6. Si 1 (s)      0.0000 -0.1149  0.0000  0.0000  0.0000  2.1674  0.0000  0.0000
   7. Si 1 (px)     0.0000  0.0000 -0.0020  0.0384  0.0597  0.0000 -0.0393  0.6573
   8. Si 1 (py)     0.0000  0.0000  0.0513 -0.0405  0.0277  0.0000  1.0287 -0.8599
   9. Si 1 (pz)     0.0000  0.0000  0.0491  0.0439 -0.0266  0.0000  0.9839  0.9253
  10. Si 1 (s)      0.0000  1.6496  0.0000  0.0000  0.0000 -1.4672  0.0000  0.0000
  11. Si 1 (px)     0.0000  0.0000 -0.0354  0.6932  1.0785  0.0000  0.0248 -0.4140
  12. Si 1 (py)     0.0000  0.0000  0.9265 -0.7319  0.5009  0.0000 -0.6479  0.5416
  13. Si 1 (pz)     0.0000  0.0000  0.8862  0.7929 -0.4806  0.0000 -0.6197 -0.5828
  14. Si 1 (d5)     0.0000  0.0000  0.0000  0.0000  0.0000  0.0000  0.0000  0.0000
  15. Si 1 (d2)     0.0000  0.0000 -0.0582  0.0460 -0.0315  0.0000 -0.2155  0.1801
  16. Si 1 (d3)     0.0000  0.0000  0.0022 -0.0436 -0.0678  0.0000  0.0082 -0.1377
  17. Si 1 (d4)     0.0000  0.0000  0.0000  0.0000  0.0000  0.0000  0.0000  0.0000
  18. Si 1 (d1)     0.0000  0.0000 -0.0557 -0.0498  0.0302  0.0000 -0.2061 -0.1938
  19.  F 2 (s)      0.0000  0.0469  0.0387  0.0164  0.0239  0.0174  0.0120  0.0044
  20.  F 2 (s)      0.0000 -0.0866 -0.0605 -0.0257 -0.0374 -0.0611 -0.0498 -0.0182
  21.  F 2 (px)     0.1931  0.0699  0.0961 -0.0477 -0.0781  0.1228  0.1463  0.0037
  22.  F 2 (py)    -0.1671  0.0699 -0.0241  0.1303 -0.0059  0.1228  0.0669  0.1164
  23.  F 2 (pz)    -0.0260  0.0699 -0.0191 -0.0602  0.1167  0.1228  0.0703 -0.0163
  24.  F 2 (s)      0.0000 -0.3963 -0.4103 -0.1741 -0.2537 -0.0070 -0.0175 -0.0064
  25.  F 2 (px)     0.1445  0.0918  0.1111 -0.0609 -0.0992  0.1413  0.1462  0.0264
  26.  F 2 (py)    -0.1250  0.0918 -0.0357  0.1565 -0.0111  0.1413  0.1031  0.0877
  27.  F 2 (pz)    -0.0194  0.0918 -0.0296 -0.0762  0.1387  0.1413  0.1049  0.0156
  28.  F 2 (d5)     0.0014  0.0000 -0.0013 -0.0023  0.0036  0.0000 -0.0097 -0.0204
  29.  F 2 (d2)    -0.0045 -0.0044  0.0024  0.0016  0.0015  0.0021  0.0088 -0.0090
  30.  F 2 (d3)     0.0052 -0.0044  0.0029  0.0009  0.0012  0.0021 -0.0018  0.0060
  31.  F 2 (d4)    -0.0114  0.0000  0.0024 -0.0035 -0.0014  0.0000  0.0183 -0.0261
  32.  F 2 (d1)    -0.0007 -0.0044  0.0024  0.0008  0.0020  0.0021  0.0083  0.0086
  33.  F 3 (s)      0.0000  0.0469 -0.0001  0.0181 -0.0449  0.0174  0.0000  0.0069
  34.  F 3 (s)      0.0000 -0.0866  0.0002 -0.0283  0.0702 -0.0611  0.0001 -0.0285
  35.  F 3 (px)    -0.2579 -0.0699  0.0047 -0.1295 -0.0285 -0.1228  0.0033 -0.1308
  36.  F 3 (py)     0.2839 -0.0699 -0.1155  0.0485  0.0436 -0.1228 -0.0761 -0.0181
  37.  F 3 (pz)     0.0260  0.0699 -0.1110 -0.0562 -0.0462  0.1228 -0.0735  0.0132
  38.  F 3 (s)      0.0000 -0.3963  0.0011 -0.1920  0.4756 -0.0070  0.0000 -0.0100
  39.  F 3 (px)    -0.1930 -0.0918  0.0057 -0.1552 -0.0421 -0.1413  0.0020 -0.1092
  40.  F 3 (py)     0.2124 -0.0918 -0.1411  0.0622  0.0460 -0.1413 -0.0411 -0.0479
  41.  F 3 (pz)     0.0194  0.0918 -0.1355 -0.0716 -0.0492  0.1413 -0.0401  0.0453
  42.  F 3 (d5)    -0.0014  0.0000 -0.0038 -0.0022 -0.0009  0.0000 -0.0293 -0.0163
  43.  F 3 (d2)     0.0077  0.0044 -0.0004 -0.0010  0.0031 -0.0021  0.0101 -0.0077
  44.  F 3 (d3)    -0.0070  0.0044  0.0000 -0.0017  0.0028 -0.0021 -0.0004  0.0073
  45.  F 3 (d4)    -0.0171  0.0000 -0.0024  0.0035  0.0014  0.0000 -0.0183  0.0261
  46.  F 3 (d1)     0.0007 -0.0044 -0.0004  0.0010 -0.0031  0.0021  0.0097  0.0083
  47.  F 4 (s)      0.0000  0.0469  0.0017 -0.0483 -0.0021  0.0174  0.0005 -0.0149
  48.  F 4 (s)      0.0000 -0.0866 -0.0026  0.0756  0.0033 -0.0611 -0.0021  0.0616
  49.  F 4 (px)     0.2579 -0.0699  0.0005  0.0278 -0.1297 -0.1228 -0.0032  0.1287
  50.  F 4 (py)     0.1671  0.0699 -0.1118 -0.0229 -0.0676  0.1228 -0.0703 -0.1136
  51.  F 4 (pz)    -0.0908 -0.0699 -0.1146  0.0153  0.0650 -0.1228 -0.0792  0.1087
  52.  F 4 (s)      0.0000 -0.3963 -0.0175  0.5121  0.0224 -0.0070 -0.0007  0.0217
  53.  F 4 (px)     0.1930 -0.0918  0.0009  0.0261 -0.1588 -0.1413 -0.0046  0.1524
  54.  F 4 (py)     0.1250  0.0918 -0.1369 -0.0202 -0.0822  0.1413 -0.0354 -0.1443
  55.  F 4 (pz)    -0.0680 -0.0918 -0.1397  0.0109  0.0791 -0.1413 -0.0459  0.1416
  56.  F 4 (d5)    -0.0050  0.0000  0.0039  0.0002 -0.0022  0.0000  0.0301  0.0033
  57.  F 4 (d2)     0.0045 -0.0044 -0.0003 -0.0032 -0.0004  0.0021  0.0101 -0.0068
  58.  F 4 (d3)     0.0070  0.0044 -0.0001  0.0032 -0.0004 -0.0021 -0.0003  0.0048
  59.  F 4 (d4)     0.0134  0.0000  0.0022 -0.0001  0.0039  0.0000  0.0170 -0.0035
  60.  F 4 (d1)    -0.0025  0.0044 -0.0006  0.0032  0.0004 -0.0021  0.0098  0.0074
  61.  F 5 (s)      0.0000  0.0469 -0.0403  0.0138  0.0231  0.0174 -0.0125  0.0036
  62.  F 5 (s)      0.0000 -0.0866  0.0630 -0.0215 -0.0360 -0.0611  0.0518 -0.0149
  63.  F 5 (px)    -0.1931  0.0699 -0.0909 -0.0540 -0.0802  0.1228 -0.1462 -0.0058
  64.  F 5 (py)    -0.2839 -0.0699 -0.0204  0.0588 -0.1171 -0.1228  0.0727  0.0209
  65.  F 5 (pz)     0.0908 -0.0699 -0.0154 -0.1316  0.0055 -0.1228  0.0760 -0.1118
  66.  F 5 (s)      0.0000 -0.3963  0.4267 -0.1460 -0.2443 -0.0070  0.0182 -0.0053
  67.  F 5 (px)    -0.1445  0.0918 -0.1045 -0.0682 -0.1017  0.1413 -0.1488  0.0168
  68.  F 5 (py)    -0.2124 -0.0918 -0.0315  0.0741 -0.1394 -0.1413  0.1088 -0.0087
  69.  F 5 (pz)     0.0680 -0.0918 -0.0253 -0.1586  0.0104 -0.1413  0.1106 -0.0807
  70.  F 5 (d5)     0.0050  0.0000  0.0012  0.0043 -0.0005  0.0000  0.0089  0.0334
  71.  F 5 (d2)    -0.0077  0.0044  0.0025 -0.0007 -0.0020 -0.0021  0.0087 -0.0081
  72.  F 5 (d3)    -0.0052 -0.0044 -0.0030  0.0007  0.0012  0.0021  0.0010  0.0061
  73.  F 5 (d4)     0.0151  0.0000 -0.0022  0.0001 -0.0039  0.0000 -0.0170  0.0035
  74.  F 5 (d1)     0.0025  0.0044  0.0026 -0.0014 -0.0015 -0.0021  0.0083  0.0095

           AO         33      34      35      36      37      38      39      40
      ------------ ------- ------- ------- ------- ------- ------- ------- -------
   1. Si 1 (s)      0.0000  0.0000  0.0000  0.0000  0.0000  0.0000  0.0000  0.0000
   2. Si 1 (s)      0.0000  0.0000  0.0000  0.0000  0.0000  0.0000  0.0000  0.0000
   3. Si 1 (px)    -0.2716  0.0000  0.0000  0.0837 -0.1745  0.0053  0.0000  0.0000
   4. Si 1 (py)    -0.1032  0.0000  0.0000  0.1223  0.0544 -0.1399  0.0000  0.0000
   5. Si 1 (pz)     0.0970  0.0000  0.0000 -0.1246 -0.0638 -0.1338  0.0000  0.0000
   6. Si 1 (s)      0.0000  0.0000  0.0000  0.0000  0.0000  0.0000  0.0000  0.0000
   7. Si 1 (px)     1.2626  0.0000  0.0000 -0.5439  1.1340 -0.0348  0.0000  0.0000
   8. Si 1 (py)     0.4797  0.0000  0.0000 -0.7950 -0.3534  0.9089  0.0000  0.0000
   9. Si 1 (pz)    -0.4511  0.0000  0.0000  0.8094  0.4149  0.8693  0.0000  0.0000
  10. Si 1 (s)      0.0000  0.0000  0.0000  0.0000  0.0000  0.0000  0.0000  0.0000
  11. Si 1 (px)    -0.7952  0.0000  0.0000  0.0896 -0.1869  0.0057  0.0000  0.0000
  12. Si 1 (py)    -0.3021  0.0000  0.0000  0.1310  0.0582 -0.1498  0.0000  0.0000
  13. Si 1 (pz)     0.2841  0.0000  0.0000 -0.1334 -0.0684 -0.1433  0.0000  0.0000
  14. Si 1 (d5)     0.0000  0.8786 -0.2834  0.0000  0.0000  0.0000  0.3157  0.2674
  15. Si 1 (d2)    -0.1005  0.0000  0.0000 -0.7818 -0.3476  0.8939  0.0000  0.0000
  16. Si 1 (d3)    -0.2645  0.0000  0.0000 -0.5349  1.1153 -0.0342  0.0000  0.0000
  17. Si 1 (d4)     0.0000  0.2834  0.8786  0.0000  0.0000  0.0000 -0.2674  0.3157
  18. Si 1 (d1)     0.0945  0.0000  0.0000  0.7960  0.4080  0.8549  0.0000  0.0000
  19.  F 2 (s)      0.0079  0.0000  0.0000 -0.0197  0.0445  0.0649  0.0000  0.0000
  20.  F 2 (s)     -0.0326  0.0000  0.0000  0.0694 -0.1566 -0.2285  0.0000  0.0000
  21.  F 2 (px)     0.0000  0.0323 -0.1504 -0.0373  0.0795  0.0328 -0.3377  0.1211
  22.  F 2 (py)     0.0582  0.1141  0.1031 -0.0496  0.0062  0.0792  0.0640 -0.3530
  23.  F 2 (pz)     0.1274 -0.1464  0.0472  0.0294  0.0441  0.0773  0.2737  0.2319
  24.  F 2 (s)     -0.0115  0.0000  0.0000  0.1334 -0.3013 -0.4394  0.0000  0.0000
  25.  F 2 (px)     0.0436  0.0059 -0.0274 -0.1104  0.2513  0.4038  0.4306 -0.1544
  26.  F 2 (py)     0.0752  0.0208  0.0188 -0.1049  0.2841  0.3830 -0.0815  0.4501
  27.  F 2 (pz)     0.1128 -0.0266  0.0086 -0.1402  0.2672  0.3838 -0.3490 -0.2957
  28.  F 2 (d5)     0.0262 -0.0347  0.0112  0.0513  0.0009  0.0150 -0.0521 -0.0442
  29.  F 2 (d2)     0.0038 -0.0348 -0.0315 -0.0231 -0.0255  0.0143  0.0067 -0.0371
  30.  F 2 (d3)     0.0116 -0.0099  0.0459 -0.0140  0.0283 -0.0198 -0.0355  0.0127
  31.  F 2 (d4)    -0.0134 -0.0112 -0.0347  0.0075  0.0447 -0.0283  0.0442 -0.0521
  32.  F 2 (d1)    -0.0053  0.0447 -0.0144  0.0349  0.0023  0.0129  0.0288  0.0244
  33.  F 3 (s)     -0.0134  0.0000  0.0000  0.0800 -0.0136 -0.0002  0.0000  0.0000
  34.  F 3 (s)      0.0553  0.0000  0.0000 -0.2815  0.0479  0.0006  0.0000  0.0000
  35.  F 3 (px)     0.0656 -0.0323  0.1504 -0.0693  0.0631 -0.0016  0.3377 -0.1211
  36.  F 3 (py)     0.1238 -0.1141 -0.1031 -0.0816 -0.0102  0.0449 -0.0640  0.3530
  37.  F 3 (pz)    -0.1259 -0.1464  0.0472  0.0824  0.0132  0.0427  0.2737  0.2319
  38.  F 3 (s)      0.0195  0.0000  0.0000 -0.5414  0.0922  0.0012  0.0000  0.0000
  39.  F 3 (px)     0.1097 -0.0059  0.0274 -0.4846  0.0595  0.0019 -0.4306  0.1544
  40.  F 3 (py)     0.1413 -0.0208 -0.0188 -0.4790  0.0923 -0.0189  0.0815 -0.4501
  41.  F 3 (pz)    -0.1425 -0.0266  0.0086  0.4787 -0.0937 -0.0203 -0.3490 -0.2957
  42.  F 3 (d5)    -0.0083 -0.0347  0.0112  0.0049  0.0279  0.0453 -0.0521 -0.0442
  43.  F 3 (d2)     0.0032  0.0348  0.0315 -0.0059 -0.0167  0.0328 -0.0067  0.0371
  44.  F 3 (d3)     0.0109  0.0099 -0.0459  0.0032  0.0371 -0.0013  0.0355 -0.0127
  45.  F 3 (d4)     0.0134 -0.0112 -0.0347 -0.0075 -0.0447  0.0283  0.0442 -0.0521
  46.  F 3 (d1)    -0.0029  0.0447 -0.0144  0.0064  0.0189  0.0315  0.0288  0.0244
  47.  F 4 (s)     -0.0020  0.0000  0.0000 -0.0395 -0.0709  0.0028  0.0000  0.0000
  48.  F 4 (s)      0.0084  0.0000  0.0000  0.1390  0.2493 -0.0097  0.0000  0.0000
  49.  F 4 (px)    -0.0697 -0.0323  0.1504 -0.0058  0.0935 -0.0032  0.3377 -0.1211
  50.  F 4 (py)    -0.0598  0.1141  0.1031 -0.0601 -0.0550  0.0462  0.0640 -0.3530
  51.  F 4 (pz)     0.0576  0.1464 -0.0472  0.0608  0.0581  0.0413 -0.2737 -0.2319
  52.  F 4 (s)      0.0029  0.0000  0.0000  0.2673  0.4794 -0.0187  0.0000  0.0000
  53.  F 4 (px)    -0.0267 -0.0059  0.0274  0.2571  0.4147 -0.0164 -0.4306  0.1544
  54.  F 4 (py)    -0.0437  0.0208  0.0188 -0.2276 -0.4319 -0.0029 -0.0815  0.4501
  55.  F 4 (pz)     0.0425  0.0266 -0.0086  0.2273  0.4306 -0.0363  0.3490  0.2957
  56.  F 4 (d5)    -0.0167 -0.0347  0.0112 -0.0237  0.0114 -0.0465 -0.0521 -0.0442
  57.  F 4 (d2)     0.0050 -0.0348 -0.0315 -0.0175  0.0075  0.0321  0.0067 -0.0371
  58.  F 4 (d3)     0.0122  0.0099 -0.0459 -0.0310  0.0208 -0.0005  0.0355 -0.0127
  59.  F 4 (d4)     0.0299 -0.0112 -0.0347  0.0402 -0.0234 -0.0262  0.0442 -0.0521
  60.  F 4 (d1)    -0.0047 -0.0447  0.0144  0.0180 -0.0052  0.0322 -0.0288 -0.0244
  61.  F 5 (s)      0.0075  0.0000  0.0000 -0.0208  0.0399 -0.0675  0.0000  0.0000
  62.  F 5 (s)     -0.0311  0.0000  0.0000  0.0732 -0.1405  0.2376  0.0000  0.0000
  63.  F 5 (px)    -0.0042  0.0323 -0.1504 -0.0378  0.0771 -0.0376 -0.3377  0.1211
  64.  F 5 (py)    -0.1253 -0.1141 -0.1031 -0.0281 -0.0386  0.0806 -0.0640  0.3530
  65.  F 5 (pz)    -0.0562  0.1464 -0.0472  0.0509 -0.0008  0.0787 -0.2737 -0.2319
  66.  F 5 (s)     -0.0109  0.0000  0.0000  0.1407 -0.2703  0.4569  0.0000  0.0000
  67.  F 5 (px)     0.0394  0.0059 -0.0274 -0.1171  0.2229 -0.4183  0.4306 -0.1544
  68.  F 5 (py)    -0.1098 -0.0208 -0.0188  0.1466 -0.2401  0.3990  0.0815 -0.4501
  69.  F 5 (pz)    -0.0722  0.0266 -0.0086  0.1112 -0.2571  0.3999  0.3490  0.2957
  70.  F 5 (d5)    -0.0012 -0.0347  0.0112 -0.0324 -0.0402 -0.0138 -0.0521 -0.0442
  71.  F 5 (d2)     0.0056  0.0348  0.0315 -0.0347 -0.0014  0.0136 -0.0067  0.0371
  72.  F 5 (d3)     0.0116 -0.0099  0.0459 -0.0137  0.0296  0.0180 -0.0355  0.0127
  73.  F 5 (d4)    -0.0299 -0.0112 -0.0347 -0.0402  0.0234  0.0262  0.0442 -0.0521
  74.  F 5 (d1)    -0.0036 -0.0447  0.0144  0.0233  0.0264  0.0121 -0.0288 -0.0244

           AO         41      42      43      44      45      46      47      48
      ------------ ------- ------- ------- ------- ------- ------- ------- -------
   1. Si 1 (s)      0.0000  0.0000  0.0000  0.0000  0.0000  0.0000  0.0171  0.0000
   2. Si 1 (s)      0.0000  0.0000  0.0000  0.0000  0.0000  0.0000  0.0836  0.0000
   3. Si 1 (px)     0.0009 -0.0077  0.0023  0.0000  0.0000  0.0000  0.0000  0.0060
   4. Si 1 (py)    -0.0060  0.0009  0.0054  0.0000  0.0000  0.0000  0.0000  0.0023
   5. Si 1 (pz)    -0.0054 -0.0023 -0.0056  0.0000  0.0000  0.0000  0.0000 -0.0021
   6. Si 1 (s)      0.0000  0.0000  0.0000  0.0000  0.0000  0.0000  0.9629  0.0000
   7. Si 1 (px)    -0.0370  0.3129 -0.0928  0.0000  0.0000  0.0000  0.0000  0.3012
   8. Si 1 (py)     0.2415 -0.0366 -0.2197  0.0000  0.0000  0.0000  0.0000  0.1143
   9. Si 1 (pz)     0.2196  0.0929  0.2259  0.0000  0.0000  0.0000  0.0000 -0.1074
  10. Si 1 (s)      0.0000  0.0000  0.0000  0.0000  0.0000  0.0000 -0.3421  0.0000
  11. Si 1 (px)    -0.0025  0.0211 -0.0063  0.0000  0.0000  0.0000  0.0000 -0.3940
  12. Si 1 (py)     0.0163 -0.0025 -0.0148  0.0000  0.0000  0.0000  0.0000 -0.1495
  13. Si 1 (pz)     0.0148  0.0063  0.0153  0.0000  0.0000  0.0000  0.0000  0.1405
  14. Si 1 (d5)     0.0000  0.0000  0.0000  0.0000  0.0000  0.0000  0.0000  0.0000
  15. Si 1 (d2)    -0.1720  0.0261  0.1565  0.0000  0.0000  0.0000  0.0000  0.0436
  16. Si 1 (d3)     0.0263 -0.2229  0.0661  0.0000  0.0000  0.0000  0.0000  0.1149
  17. Si 1 (d4)     0.0000  0.0000  0.0000  0.0000  0.0000  0.0000  0.0000  0.0000
  18. Si 1 (d1)    -0.1564 -0.0662 -0.1609  0.0000  0.0000  0.0000  0.0000 -0.0410
  19.  F 2 (s)      0.0267  0.0232 -0.0054  0.0000  0.0000  0.0000  0.0248 -0.0026
  20.  F 2 (s)     -0.2943 -0.2562  0.0600  0.0000  0.0000  0.0000 -0.2090  0.0496
  21.  F 2 (px)    -0.4350  0.0086 -0.0239 -0.0752 -0.4622  0.0820 -0.2413 -0.4012
  22.  F 2 (py)    -0.1224 -0.3836 -0.1663  0.0057  0.1644 -0.4460 -0.2413 -0.1906
  23.  F 2 (pz)    -0.1470 -0.2383  0.3338  0.0695  0.2977  0.3640 -0.2413  0.0592
  24.  F 2 (s)      0.2478  0.2157 -0.0505  0.0000  0.0000  0.0000  0.1115 -0.0518
  25.  F 2 (px)     0.5299 -0.0489  0.0402  0.0869  0.5343 -0.0947  0.3638  0.5546
  26.  F 2 (py)     0.1182  0.4678  0.2279 -0.0066 -0.1901  0.5156  0.3638  0.2806
  27.  F 2 (pz)     0.1506  0.2764 -0.4309 -0.0803 -0.3442 -0.4208  0.3638 -0.0444
  28.  F 2 (d5)    -0.0270  0.0104 -0.0881 -0.0017 -0.0071 -0.0087  0.0000 -0.0142
  29.  F 2 (d2)     0.0053  0.0024 -0.0026  0.0005  0.0145 -0.0394  0.0653  0.0533
  30.  F 2 (d3)     0.0028  0.0056 -0.0015 -0.0066 -0.0409  0.0072  0.0653  0.0224
  31.  F 2 (d4)     0.0556 -0.0697 -0.0253  0.0011  0.0087 -0.0073  0.0000  0.0073
  32.  F 2 (d1)     0.0051  0.0036  0.0014  0.0061  0.0263  0.0322  0.0653  0.0899
  33.  F 3 (s)      0.0009 -0.0115  0.0338  0.0000  0.0000  0.0000  0.0248  0.0043
  34.  F 3 (s)     -0.0105  0.1273 -0.3736  0.0000  0.0000  0.0000 -0.2090 -0.0842
  35.  F 3 (px)    -0.0275  0.1810  0.3954  0.3608 -0.1100 -0.2893  0.2413 -0.4443
  36.  F 3 (py)     0.2850 -0.2112  0.2529 -0.4303 -0.1877 -0.0747  0.2413 -0.2337
  37.  F 3 (pz)     0.2325  0.2745 -0.2459 -0.0695 -0.2977 -0.3640 -0.2413  0.2260
  38.  F 3 (s)      0.0088 -0.1072  0.3145  0.0000  0.0000  0.0000  0.1115  0.0879
  39.  F 3 (px)     0.0378 -0.2571 -0.4661 -0.4171  0.1272  0.3344 -0.3638  0.6335
  40.  F 3 (py)    -0.3739  0.2596 -0.2785  0.4974  0.2170  0.0864 -0.3638  0.3595
  41.  F 3 (pz)    -0.3078 -0.3429  0.2692  0.0803  0.3442  0.4208  0.3638 -0.3495
  42.  F 3 (d5)    -0.0742 -0.0533 -0.0161  0.0017  0.0071  0.0087  0.0000  0.0045
  43.  F 3 (d2)     0.0021  0.0010 -0.0060 -0.0380 -0.0166 -0.0066 -0.0653  0.1036
  44.  F 3 (d3)    -0.0004  0.0042 -0.0048  0.0319 -0.0097 -0.0256 -0.0653  0.0728
  45.  F 3 (d4)    -0.0556  0.0697  0.0253  0.0109  0.0011 -0.0030  0.0000 -0.0073
  46.  F 3 (d1)     0.0021 -0.0005  0.0060 -0.0061 -0.0263 -0.0322  0.0653 -0.1047
  47.  F 4 (s)      0.0037 -0.0278 -0.0222  0.0000  0.0000  0.0000  0.0248  0.0007
  48.  F 4 (s)     -0.0409  0.3070  0.2448  0.0000  0.0000  0.0000 -0.2090 -0.0128
  49.  F 4 (px)     0.0131 -0.0592 -0.4314 -0.3608  0.1100  0.2893  0.2413 -0.3553
  50.  F 4 (py)     0.2164  0.3694  0.0808 -0.0057 -0.1644  0.4460 -0.2413 -0.1128
  51.  F 4 (pz)     0.3011 -0.3062 -0.0738  0.3551 -0.2744  0.1567  0.2413  0.1051
  52.  F 4 (s)      0.0344 -0.2585 -0.2061  0.0000  0.0000  0.0000  0.1115  0.0134
  53.  F 4 (px)    -0.0113  0.0331  0.5325  0.4171 -0.1272 -0.3344 -0.3638  0.4707
  54.  F 4 (py)    -0.2911 -0.4417 -0.0706  0.0066  0.1901 -0.5156  0.3638  0.1383
  55.  F 4 (pz)    -0.3906  0.3584  0.0613 -0.4105  0.3173 -0.1812 -0.3638 -0.1283
  56.  F 4 (d5)     0.0827 -0.0189  0.0374  0.0085 -0.0066  0.0038  0.0000  0.0091
  57.  F 4 (d2)     0.0026 -0.0036 -0.0046 -0.0005 -0.0145  0.0394  0.0653 -0.0375
  58.  F 4 (d3)    -0.0008  0.0061  0.0018 -0.0319  0.0097  0.0256 -0.0653 -0.0311
  59.  F 4 (d4)     0.0408  0.0552 -0.0623 -0.0051 -0.0008  0.0102  0.0000 -0.0162
  60.  F 4 (d1)     0.0015  0.0041  0.0047  0.0314 -0.0243  0.0139 -0.0653  0.0363
  61.  F 5 (s)     -0.0313  0.0161 -0.0062  0.0000  0.0000  0.0000  0.0248 -0.0024
  62.  F 5 (s)      0.3456 -0.1781  0.0687  0.0000  0.0000  0.0000 -0.2090  0.0474
  63.  F 5 (px)     0.4206  0.1132 -0.0122  0.0752  0.4622 -0.0820 -0.2413 -0.3985
  64.  F 5 (py)    -0.1910  0.1970 -0.3384  0.4303  0.1877  0.0747  0.2413 -0.0697
  65.  F 5 (pz)    -0.2156  0.3423  0.1617 -0.3551  0.2744 -0.1567  0.2413  0.1801
  66.  F 5 (s)     -0.2910  0.1499 -0.0579  0.0000  0.0000  0.0000  0.1115 -0.0495
  67.  F 5 (px)    -0.5034 -0.1751  0.0262 -0.0869 -0.5343  0.0947  0.3638  0.5496
  68.  F 5 (py)     0.2010 -0.2334  0.4357 -0.4974 -0.2170 -0.0864 -0.3638  0.0594
  69.  F 5 (pz)     0.2334 -0.4249 -0.2231  0.4105 -0.3173  0.1812 -0.3638 -0.2655
  70.  F 5 (d5)     0.0185  0.0617  0.0667 -0.0085  0.0066 -0.0038  0.0000  0.0006
  71.  F 5 (d2)     0.0059 -0.0022 -0.0012  0.0380  0.0166  0.0066 -0.0653 -0.0878
  72.  F 5 (d3)    -0.0040  0.0047 -0.0016  0.0066  0.0409 -0.0072  0.0653  0.0192
  73.  F 5 (d4)    -0.0408 -0.0552  0.0623 -0.0070 -0.0090  0.0001  0.0000  0.0162
  74.  F 5 (d1)     0.0057 -0.0011  0.0028 -0.0314  0.0243 -0.0139 -0.0653 -0.0512

           AO         49      50      51      52      53      54      55      56
      ------------ ------- ------- ------- ------- ------- ------- ------- -------
   1. Si 1 (s)      0.0000  0.0000  0.0000  0.0000  0.0000  0.0000  0.0000  0.0000
   2. Si 1 (s)      0.0000  0.0000  0.0000  0.0000  0.0000  0.0000  0.0000  0.0000
   3. Si 1 (px)    -0.0002  0.0031 -0.0181  0.0010 -0.0150  0.0000  0.0000  0.0000
   4. Si 1 (py)     0.0049 -0.0041  0.0102 -0.0165 -0.0134  0.0000  0.0000  0.0000
   5. Si 1 (pz)     0.0047  0.0044 -0.0111 -0.0168  0.0122  0.0000  0.0000  0.0000
   6. Si 1 (s)      0.0000  0.0000  0.0000  0.0000  0.0000  0.0000  0.0000  0.0000
   7. Si 1 (px)    -0.0100  0.1565  0.0947 -0.0053  0.0785  0.0000  0.0000  0.0000
   8. Si 1 (py)     0.2461 -0.2042 -0.0533  0.0861  0.0700  0.0000  0.0000  0.0000
   9. Si 1 (pz)     0.2338  0.2216  0.0579  0.0878 -0.0640  0.0000  0.0000  0.0000
  10. Si 1 (s)      0.0000  0.0000  0.0000  0.0000  0.0000  0.0000  0.0000  0.0000
  11. Si 1 (px)     0.0130 -0.2047  0.4719 -0.0262  0.3914  0.0000  0.0000  0.0000
  12. Si 1 (py)    -0.3219  0.2671 -0.2655  0.4293  0.3489  0.0000  0.0000  0.0000
  13. Si 1 (pz)    -0.3058 -0.2899  0.2888  0.4377 -0.3188  0.0000  0.0000  0.0000
  14. Si 1 (d5)     0.0000  0.0000  0.0000  0.0000  0.0000  0.0000  0.0000  0.0000
  15. Si 1 (d2)     0.0939 -0.0779 -0.0593  0.0959  0.0779  0.0000  0.0000  0.0000
  16. Si 1 (d3)    -0.0038  0.0597  0.1054 -0.0059  0.0874  0.0000  0.0000  0.0000
  17. Si 1 (d4)     0.0000  0.0000  0.0000  0.0000  0.0000  0.0000  0.0000  0.0000
  18. Si 1 (d1)     0.0892  0.0846  0.0645  0.0977 -0.0712  0.0000  0.0000  0.0000
  19.  F 2 (s)     -0.0039 -0.0014 -0.0264 -0.0448 -0.0224  0.0000  0.0000  0.0000
  20.  F 2 (s)      0.0757  0.0280  0.4646  0.7889  0.3955  0.0000  0.0000  0.0000
  21.  F 2 (px)    -0.0831 -0.2113  0.0918 -0.0767  0.0753 -0.0239 -0.0178  0.0246
  22.  F 2 (py)    -0.3716  0.1952 -0.1155  0.0514  0.0633  0.0087 -0.0165 -0.0339
  23.  F 2 (pz)    -0.3578 -0.2846  0.0404  0.0537 -0.1244  0.0153  0.0343  0.0093
  24.  F 2 (s)     -0.0790 -0.0292 -0.6260 -1.0630 -0.5329  0.0000  0.0000  0.0000
  25.  F 2 (px)     0.1579  0.2933 -0.1193  0.2034 -0.0965  0.0194  0.0144 -0.0199
  26.  F 2 (py)     0.5332 -0.2355  0.2424 -0.0201 -0.0756 -0.0070  0.0134  0.0275
  27.  F 2 (pz)     0.5153  0.3887 -0.0294 -0.0242  0.2519 -0.0124 -0.0278 -0.0075
  28.  F 2 (d5)     0.0052  0.0111 -0.0407 -0.0518  0.1512  0.2340  0.5252  0.1422
  29.  F 2 (d2)     0.0694  0.0744  0.1328  0.2256  0.1131 -0.0293  0.0557  0.1144
  30.  F 2 (d3)     0.1117  0.0149  0.1329  0.2255  0.1131  0.0809  0.0601 -0.0831
  31.  F 2 (d4)    -0.0100  0.0141 -0.1402  0.0866 -0.0081 -0.2884 -0.0116  0.5172
  32.  F 2 (d1)     0.0715  0.0042  0.1328  0.2256  0.1130 -0.0516 -0.1158 -0.0314
  33.  F 3 (s)      0.0000 -0.0022 -0.0044 -0.0018  0.0564  0.0000  0.0000  0.0000
  34.  F 3 (s)     -0.0004  0.0434  0.0773  0.0324 -0.9938  0.0000  0.0000  0.0000
  35.  F 3 (px)     0.0108 -0.1223  0.1394 -0.0045  0.0227  0.0224 -0.0315 -0.0010
  36.  F 3 (py)    -0.2777  0.2842 -0.0678  0.1235  0.0108 -0.0377 -0.0028 -0.0083
  37.  F 3 (pz)    -0.2630 -0.3038  0.0744  0.1202 -0.0023 -0.0153 -0.0343 -0.0093
  38.  F 3 (s)      0.0004 -0.0453 -0.1041 -0.0437  1.3390  0.0000  0.0000  0.0000
  39.  F 3 (px)    -0.0138  0.1305 -0.2501  0.0050  0.0480 -0.0181  0.0255  0.0008
  40.  F 3 (py)     0.3615 -0.3982  0.1116 -0.2184  0.0688  0.0305  0.0023  0.0067
  41.  F 3 (pz)     0.3419  0.4237 -0.1230 -0.2068 -0.0836  0.0124  0.0278  0.0075
  42.  F 3 (d5)     0.0159  0.0089 -0.0860 -0.1403 -0.0113 -0.2340 -0.5252 -0.1422
  43.  F 3 (d2)    -0.0401 -0.0294 -0.0221 -0.0092  0.2841  0.1272  0.0094  0.0280
  44.  F 3 (d3)     0.0022 -0.0889 -0.0220 -0.0093  0.2841 -0.0756  0.1064  0.0034
  45.  F 3 (d4)     0.0100 -0.0141  0.1402 -0.0866  0.0081 -0.5311  0.2541 -0.0644
  46.  F 3 (d1)    -0.0391  0.0265  0.0221  0.0093 -0.2841  0.0516  0.1158  0.0314
  47.  F 4 (s)     -0.0002  0.0048  0.0547 -0.0010 -0.0147  0.0000  0.0000  0.0000
  48.  F 4 (s)      0.0036 -0.0938 -0.9628  0.0168  0.2593  0.0000  0.0000  0.0000
  49.  F 4 (px)     0.0157 -0.2933  0.0481 -0.0059  0.1328 -0.0224  0.0315  0.0010
  50.  F 4 (py)    -0.2817  0.3470  0.0100  0.1192  0.0753 -0.0087  0.0165  0.0339
  51.  F 4 (pz)    -0.2590 -0.3666 -0.0034  0.1245 -0.0668  0.0137 -0.0150  0.0329
  52.  F 4 (s)     -0.0037  0.0979  1.2974 -0.0227 -0.3494  0.0000  0.0000  0.0000
  53.  F 4 (px)    -0.0228  0.4432  0.0010  0.0088 -0.2546  0.0181 -0.0255 -0.0008
  54.  F 4 (py)     0.3689 -0.5132 -0.1023 -0.2065 -0.1085  0.0070 -0.0134 -0.0275
  55.  F 4 (pz)     0.3345  0.5387  0.0909 -0.2187  0.0938 -0.0111  0.0122 -0.0266
  56.  F 4 (d5)    -0.0163 -0.0019 -0.0176  0.1461 -0.0747 -0.2102  0.2301 -0.5037
  57.  F 4 (d2)    -0.0354 -0.1027 -0.2753  0.0049  0.0742  0.0293 -0.0557 -0.1144
  58.  F 4 (d3)    -0.0036  0.1106  0.2753 -0.0048 -0.0741  0.0756 -0.1064 -0.0034
  59.  F 4 (d4)    -0.0092  0.0019  0.0392  0.0766  0.1407  0.2747 -0.4245 -0.3085
  60.  F 4 (d1)    -0.0438  0.0998  0.2753 -0.0048 -0.0742 -0.0464  0.0507 -0.1111
  61.  F 5 (s)      0.0041 -0.0012 -0.0239  0.0476 -0.0192  0.0000  0.0000  0.0000
  62.  F 5 (s)     -0.0789  0.0224  0.4210 -0.8381  0.3390  0.0000  0.0000  0.0000
  63.  F 5 (px)     0.1096 -0.2043  0.0957  0.0663  0.0802  0.0239  0.0178 -0.0246
  64.  F 5 (py)    -0.3756  0.2580 -0.0377  0.0471  0.1279  0.0377  0.0028  0.0083
  65.  F 5 (pz)    -0.3618 -0.2218  0.1182  0.0494 -0.0598 -0.0137  0.0150 -0.0329
  66.  F 5 (s)      0.0823 -0.0234 -0.5672  1.1293 -0.4568  0.0000  0.0000  0.0000
  67.  F 5 (px)    -0.1945  0.2805 -0.1298 -0.1895 -0.1101 -0.0194 -0.0144  0.0199
  68.  F 5 (py)     0.5406 -0.3504  0.0286 -0.0082 -0.2530 -0.0305 -0.0023 -0.0067
  69.  F 5 (pz)     0.5226  0.2738 -0.2433 -0.0123  0.0745  0.0111 -0.0122  0.0266
  70.  F 5 (d5)    -0.0048 -0.0181  0.1443  0.0461 -0.0653  0.2102 -0.2301  0.5037
  71.  F 5 (d2)     0.0741  0.0011 -0.1204  0.2396 -0.0969 -0.1272 -0.0094 -0.0280
  72.  F 5 (d3)    -0.1131  0.0068  0.1204 -0.2396  0.0970 -0.0809 -0.0601  0.0831
  73.  F 5 (d4)     0.0092 -0.0019 -0.0392 -0.0766 -0.1407  0.5448  0.1820 -0.1443
  74.  F 5 (d1)     0.0761 -0.0692 -0.1203  0.2396 -0.0969  0.0464 -0.0507  0.1111

           AO         57      58      59      60      61      62      63      64
      ------------ ------- ------- ------- ------- ------- ------- ------- -------
   1. Si 1 (s)      0.0000  0.0000  0.0000  0.0000  0.0000  0.0000  0.0000  0.0000
   2. Si 1 (s)      0.0000  0.0000  0.0000  0.0000  0.0000  0.0000  0.0000  0.0000
   3. Si 1 (px)    -0.0065 -0.0002  0.0222  0.0000  0.0000  0.0000  0.0000  0.0000
   4. Si 1 (py)     0.0162  0.0157  0.0049  0.0000  0.0000  0.0000  0.0000  0.0000
   5. Si 1 (pz)    -0.0151  0.0169 -0.0043  0.0000  0.0000  0.0000  0.0000  0.0000
   6. Si 1 (s)      0.0000  0.0000  0.0000  0.0000  0.0000  0.0000  0.0000  0.0000
   7. Si 1 (px)    -0.0151 -0.0005  0.0513  0.0000  0.0000  0.0000  0.0000  0.0000
   8. Si 1 (py)     0.0375  0.0364  0.0114  0.0000  0.0000  0.0000  0.0000  0.0000
   9. Si 1 (pz)    -0.0350  0.0392 -0.0099  0.0000  0.0000  0.0000  0.0000  0.0000
  10. Si 1 (s)      0.0000  0.0000  0.0000  0.0000  0.0000  0.0000  0.0000  0.0000
  11. Si 1 (px)    -0.0089 -0.0003  0.0303  0.0000  0.0000  0.0000  0.0000  0.0000
  12. Si 1 (py)     0.0221  0.0215  0.0067  0.0000  0.0000  0.0000  0.0000  0.0000
  13. Si 1 (pz)    -0.0207  0.0231 -0.0058  0.0000  0.0000  0.0000  0.0000  0.0000
  14. Si 1 (d5)     0.0000  0.0000  0.0000  0.0111  0.0008  0.0000  0.0000  0.0000
  15. Si 1 (d2)     0.0307  0.0298  0.0093  0.0000  0.0000  0.0000  0.0000  0.0000
  16. Si 1 (d3)    -0.0123 -0.0004  0.0421  0.0000  0.0000  0.0000  0.0000  0.0000
  17. Si 1 (d4)     0.0000  0.0000  0.0000 -0.0008  0.0111  0.0000  0.0000  0.0000
  18. Si 1 (d1)    -0.0287  0.0321 -0.0081  0.0000  0.0000  0.0000  0.0000  0.0000
  19.  F 2 (s)      0.0023 -0.0135 -0.0095  0.0000  0.0000  0.0000  0.0000  0.0000
  20.  F 2 (s)     -0.0349  0.2082  0.1467  0.0000  0.0000  0.0000  0.0000  0.0000
  21.  F 2 (px)     0.0129 -0.0547 -0.0514 -0.0121  0.0180 -0.0145 -0.0427  0.0121
  22.  F 2 (py)    -0.0002 -0.0639 -0.0414 -0.0095 -0.0194 -0.0111  0.0174 -0.0419
  23.  F 2 (pz)     0.0179 -0.0646 -0.0361  0.0216  0.0015  0.0256  0.0253  0.0298
  24.  F 2 (s)      0.0417 -0.2492 -0.1755  0.0000  0.0000  0.0000  0.0000  0.0000
  25.  F 2 (px)    -0.0169  0.0893  0.0695  0.0143 -0.0213  0.0169  0.0497 -0.0141
  26.  F 2 (py)    -0.0102  0.0940  0.0644  0.0113  0.0230  0.0129 -0.0202  0.0488
  27.  F 2 (pz)    -0.0194  0.0944  0.0617 -0.0256 -0.0017 -0.0297 -0.0294 -0.0347
  28.  F 2 (d5)    -0.1007  0.0463 -0.0897  0.3601  0.0244 -0.0869 -0.0861 -0.1013
  29.  F 2 (d2)     0.4585  0.0787 -0.0985 -0.1243 -0.2535  0.1143 -0.1797  0.4330
  30.  F 2 (d3)    -0.1101 -0.3207  0.3334 -0.1573  0.2344  0.1499  0.4412 -0.1253
  31.  F 2 (d4)    -0.0991 -0.0696  0.0753 -0.0244  0.3601  0.0068  0.1180 -0.1061
  32.  F 2 (d1)    -0.3262  0.1092 -0.3284  0.2817  0.0191 -0.2642 -0.2615 -0.3077
  33.  F 3 (s)      0.0104 -0.0006  0.0131  0.0000  0.0000  0.0000  0.0000  0.0000
  34.  F 3 (s)     -0.1595  0.0093 -0.2014  0.0000  0.0000  0.0000  0.0000  0.0000
  35.  F 3 (px)    -0.0382  0.0026 -0.0658  0.0121 -0.0180 -0.0441  0.0123 -0.0093
  36.  F 3 (py)    -0.0514 -0.0066 -0.0558  0.0095  0.0194  0.0185 -0.0377 -0.0205
  37.  F 3 (pz)     0.0507 -0.0122  0.0555  0.0216  0.0015 -0.0256 -0.0253 -0.0298
  38.  F 3 (s)      0.1909 -0.0112  0.2410  0.0000  0.0000  0.0000  0.0000  0.0000
  39.  F 3 (px)     0.0665 -0.0041  0.0930 -0.0143  0.0213  0.0513 -0.0144  0.0108
  40.  F 3 (py)     0.0733  0.0006  0.0879 -0.0113 -0.0230 -0.0215  0.0438  0.0239
  41.  F 3 (pz)    -0.0729  0.0090 -0.0877 -0.0256 -0.0017  0.0297  0.0294  0.0347
  42.  F 3 (d5)    -0.0518  0.1243  0.0468  0.3601  0.0244  0.0869  0.0861  0.1013
  43.  F 3 (d2)     0.1646  0.4077 -0.1813  0.1243  0.2535 -0.1913  0.3890  0.2120
  44.  F 3 (d3)    -0.4040  0.0082  0.2507  0.1573 -0.2344  0.4555 -0.1275  0.0957
  45.  F 3 (d4)     0.0991  0.0696 -0.0753 -0.0244  0.3601 -0.1229  0.0981  0.0221
  46.  F 3 (d1)    -0.1377  0.4099  0.1978  0.2817  0.0191  0.2642  0.2615  0.3077
  47.  F 4 (s)     -0.0158  0.0004  0.0054  0.0000  0.0000  0.0000  0.0000  0.0000
  48.  F 4 (s)      0.2431 -0.0063 -0.0835  0.0000  0.0000  0.0000  0.0000  0.0000
  49.  F 4 (px)     0.0677 -0.0015 -0.0348  0.0121 -0.0180  0.0441 -0.0123  0.0093
  50.  F 4 (py)    -0.0733 -0.0074  0.0191 -0.0095 -0.0194  0.0111 -0.0174  0.0419
  51.  F 4 (pz)     0.0727 -0.0114 -0.0195 -0.0216 -0.0015 -0.0330 -0.0051  0.0327
  52.  F 4 (s)     -0.2909  0.0075  0.0999  0.0000  0.0000  0.0000  0.0000  0.0000
  53.  F 4 (px)    -0.1062  0.0026  0.0424 -0.0143  0.0213 -0.0513  0.0144 -0.0108
  54.  F 4 (py)     0.1091  0.0019 -0.0344  0.0113  0.0230 -0.0129  0.0202 -0.0488
  55.  F 4 (pz)    -0.1088  0.0077  0.0346  0.0256  0.0017  0.0384  0.0059 -0.0380
  56.  F 4 (d5)     0.0190 -0.1255  0.0649  0.3601  0.0244 -0.1123 -0.0172  0.1110
  57.  F 4 (d2)     0.0383  0.4031  0.2494 -0.1243 -0.2535 -0.1143  0.1797 -0.4330
  58.  F 4 (d3)     0.2047 -0.0154  0.4290  0.1573 -0.2344 -0.4555  0.1275 -0.0957
  59.  F 4 (d4)    -0.0423 -0.0675 -0.1182 -0.0244  0.3601  0.1083 -0.0584  0.1005
  60.  F 4 (d1)    -0.0114  0.4145 -0.2328 -0.2817 -0.0191  0.3411  0.0522 -0.3373
  61.  F 5 (s)      0.0032  0.0137 -0.0090  0.0000  0.0000  0.0000  0.0000  0.0000
  62.  F 5 (s)     -0.0487 -0.2113  0.1382  0.0000  0.0000  0.0000  0.0000  0.0000
  63.  F 5 (px)     0.0166  0.0557 -0.0492 -0.0121  0.0180  0.0145  0.0427 -0.0121
  64.  F 5 (py)    -0.0222 -0.0647  0.0335  0.0095  0.0194 -0.0185  0.0377  0.0205
  65.  F 5 (pz)    -0.0041 -0.0654  0.0388 -0.0216 -0.0015  0.0330  0.0051 -0.0327
  66.  F 5 (s)      0.0582  0.2528 -0.1653  0.0000  0.0000  0.0000  0.0000  0.0000
  67.  F 5 (px)    -0.0228 -0.0907  0.0659  0.0143 -0.0213 -0.0169 -0.0497  0.0141
  68.  F 5 (py)     0.0257  0.0953 -0.0578 -0.0113 -0.0230  0.0215 -0.0438 -0.0239
  69.  F 5 (pz)     0.0164  0.0957 -0.0606  0.0256  0.0017 -0.0384 -0.0059  0.0380
  70.  F 5 (d5)     0.1334 -0.0451 -0.0220  0.3601  0.0244  0.1123  0.0172 -0.1110
  71.  F 5 (d2)     0.3322  0.0742  0.3321  0.1243  0.2535  0.1913 -0.3890 -0.2120
  72.  F 5 (d3)    -0.0892  0.3135  0.3463 -0.1573  0.2344 -0.1499 -0.4412  0.1253
  73.  F 5 (d4)     0.0423  0.0675  0.1182 -0.0244  0.3601  0.0079 -0.1578 -0.0165
  74.  F 5 (d1)    -0.4525  0.1046  0.1023 -0.2817 -0.0191 -0.3411 -0.0522  0.3373

           AO         65      66      67      68      69      70      71      72
      ------------ ------- ------- ------- ------- ------- ------- ------- -------
   1. Si 1 (s)     -0.0017  0.0000  0.0000  0.0000  0.0000  0.0000  0.0593  0.0000
   2. Si 1 (s)     -0.0693  0.0000  0.0000  0.0000  0.0000  0.0000 -0.0049  0.0000
   3. Si 1 (px)     0.0000  0.0609  0.0014 -0.0017  0.0000  0.0000  0.0000 -0.1208
   4. Si 1 (py)     0.0000  0.0003  0.0421  0.0440  0.0000  0.0000  0.0000  0.2074
   5. Si 1 (pz)     0.0000  0.0022 -0.0440  0.0421  0.0000  0.0000  0.0000 -0.0841
   6. Si 1 (s)     -0.3712  0.0000  0.0000  0.0000  0.0000  0.0000  2.4386  0.0000
   7. Si 1 (px)     0.0000 -0.1356 -0.0031  0.0038  0.0000  0.0000  0.0000  1.2712
   8. Si 1 (py)     0.0000 -0.0006 -0.0938 -0.0980  0.0000  0.0000  0.0000 -2.1829
   9. Si 1 (pz)     0.0000 -0.0048  0.0980 -0.0937  0.0000  0.0000  0.0000  0.8854
  10. Si 1 (s)      1.1162  0.0000  0.0000  0.0000  0.0000  0.0000  0.0075  0.0000
  11. Si 1 (px)     0.0000 -0.1708 -0.0039  0.0047  0.0000  0.0000  0.0000 -0.0840
  12. Si 1 (py)     0.0000 -0.0007 -0.1181 -0.1235  0.0000  0.0000  0.0000  0.1443
  13. Si 1 (pz)     0.0000 -0.0061  0.1234 -0.1181  0.0000  0.0000  0.0000 -0.0585
  14. Si 1 (d5)     0.0000  0.0000  0.0000  0.0000  0.7361 -0.4227  0.0000  0.0000
  15. Si 1 (d2)     0.0000  0.0029  0.4578  0.4784  0.0000  0.0000  0.0000 -1.0948
  16. Si 1 (d3)     0.0000  0.6617  0.0150 -0.0183  0.0000  0.0000  0.0000  0.6375
  17. Si 1 (d4)     0.0000  0.0000  0.0000  0.0000  0.4227  0.7361  0.0000  0.0000
  18. Si 1 (d1)     0.0000  0.0235 -0.4782  0.4574  0.0000  0.0000  0.0000  0.4441
  19.  F 2 (s)     -0.0324  0.0075 -0.0001  0.0099  0.0000  0.0000 -0.0139  0.0000
  20.  F 2 (s)      0.6051 -0.0480  0.0004 -0.0640  0.0000  0.0000  0.6740 -0.0065
  21.  F 2 (px)    -0.0003 -0.0883 -0.0039  0.0853 -0.0002  0.0684 -0.1437  0.0375
  22.  F 2 (py)    -0.0003  0.0603 -0.1037 -0.0266 -0.0591 -0.0343 -0.1437 -0.0611
  23.  F 2 (pz)    -0.0003  0.0556  0.1073 -0.0219  0.0593 -0.0340 -0.1437  0.0265
  24.  F 2 (s)     -0.8313 -0.0105  0.0001 -0.0140  0.0000  0.0000 -1.1631  0.0144
  25.  F 2 (px)     0.0295  0.2617  0.0072 -0.0638  0.0004 -0.1941  0.4670 -0.1161
  26.  F 2 (py)     0.0295 -0.0402  0.2101  0.1638  0.1679  0.0975  0.4670  0.1812
  27.  F 2 (pz)     0.0295 -0.0308 -0.2188  0.1542 -0.1683  0.0967  0.4670 -0.0829
  28.  F 2 (d5)     0.0000  0.2316  0.5358 -0.1705  0.3443 -0.1977  0.0000  0.0341
  29.  F 2 (d2)     0.2108 -0.1610  0.1135 -0.0982  0.2864  0.1662 -0.2663  0.1435
  30.  F 2 (d3)     0.2108  0.0006  0.0049 -0.2200  0.0008 -0.3312 -0.2663 -0.0792
  31.  F 2 (d4)     0.0000 -0.4279  0.2876  0.3226  0.1977  0.3443  0.0000  0.0761
  32.  F 2 (d1)     0.2108 -0.1559 -0.1160 -0.1034 -0.2872  0.1649 -0.2663 -0.0543
  33.  F 3 (s)     -0.0324 -0.0069 -0.0103  0.0000  0.0000  0.0000 -0.0139  0.0013
  34.  F 3 (s)      0.6051  0.0447  0.0663  0.0002  0.0000  0.0000  0.6740  0.4442
  35.  F 3 (px)     0.0003 -0.0924  0.0808  0.0044  0.0002 -0.0684  0.1437  0.1189
  36.  F 3 (py)     0.0003  0.0561 -0.0190 -0.1076  0.0591  0.0343  0.1437  0.0203
  37.  F 3 (pz)    -0.0003 -0.0620  0.0236 -0.1034  0.0593 -0.0340 -0.1437 -0.0573
  38.  F 3 (s)     -0.8313  0.0097  0.0145  0.0000  0.0000  0.0000 -1.1631 -0.9858
  39.  F 3 (px)    -0.0295  0.2645 -0.0506 -0.0086 -0.0004  0.1941 -0.4670 -0.5650
  40.  F 3 (py)    -0.0295 -0.0374  0.1523  0.2191 -0.1679 -0.0975 -0.4670 -0.2677
  41.  F 3 (pz)     0.0295  0.0495 -0.1617  0.2098 -0.1683  0.0967  0.4670  0.3794
  42.  F 3 (d5)     0.0000 -0.2668  0.1813 -0.5155  0.3443 -0.1977  0.0000  0.0109
  43.  F 3 (d2)    -0.2108 -0.1499 -0.1111  0.1167 -0.2864 -0.1662  0.2663  0.3322
  44.  F 3 (d3)    -0.2108  0.0117 -0.2197 -0.0051 -0.0008  0.3312  0.2663  0.1095
  45.  F 3 (d4)     0.0000  0.4279 -0.2876 -0.3226  0.1977  0.3443  0.0000 -0.0761
  46.  F 3 (d1)     0.2108  0.1564  0.1062  0.1128 -0.2872  0.1649 -0.2663 -0.2486
  47.  F 4 (s)     -0.0324 -0.0074  0.0100  0.0004  0.0000  0.0000 -0.0139 -0.0032
  48.  F 4 (s)      0.6051  0.0476 -0.0643 -0.0027  0.0000  0.0000  0.6740 -1.0727
  49.  F 4 (px)     0.0003 -0.0888 -0.0849  0.0007  0.0002 -0.0684  0.1437 -0.1632
  50.  F 4 (py)    -0.0003 -0.0610 -0.0217 -0.1044 -0.0591 -0.0343 -0.1437  0.1371
  51.  F 4 (pz)     0.0003  0.0551  0.0263 -0.1066 -0.0593  0.0340  0.1437 -0.1742
  52.  F 4 (s)     -0.8313  0.0104 -0.0140 -0.0006  0.0000  0.0000 -1.1631  2.3804
  53.  F 4 (px)    -0.0295  0.2620  0.0625 -0.0060 -0.0004  0.1941 -0.4670  0.9907
  54.  F 4 (py)     0.0295  0.0425  0.1542  0.2168  0.1679  0.0975  0.4670 -0.9122
  55.  F 4 (pz)    -0.0295 -0.0304 -0.1635  0.2120  0.1683 -0.0967 -0.4670  1.0239
  56.  F 4 (d5)     0.0000 -0.2294 -0.1925  0.5293  0.3443 -0.1977  0.0000  0.0214
  57.  F 4 (d2)     0.2108  0.1610 -0.1041  0.1081  0.2864  0.1662 -0.2663  0.6031
  58.  F 4 (d3)    -0.2108  0.0020  0.2200  0.0047 -0.0008  0.3312  0.2663 -0.5443
  59.  F 4 (d4)     0.0000  0.4316  0.3070  0.2988  0.1977  0.3443  0.0000  0.0201
  60.  F 4 (d1)    -0.2108 -0.1545  0.0991  0.1214  0.2872 -0.1649  0.2663 -0.5195
  61.  F 5 (s)     -0.0324  0.0069  0.0004 -0.0103  0.0000  0.0000 -0.0139  0.0019
  62.  F 5 (s)      0.6051 -0.0443 -0.0025  0.0666  0.0000  0.0000  0.6740  0.6350
  63.  F 5 (px)    -0.0003 -0.0930 -0.0003 -0.0803 -0.0002  0.0684 -0.1437 -0.0818
  64.  F 5 (py)     0.0003 -0.0569 -0.1063 -0.0234  0.0591  0.0343  0.1437  0.0557
  65.  F 5 (pz)     0.0003 -0.0615  0.1047 -0.0187 -0.0593  0.0340  0.1437  0.1433
  66.  F 5 (s)     -0.8313 -0.0097 -0.0005  0.0145  0.0000  0.0000 -1.1631 -1.4090
  67.  F 5 (px)     0.0295  0.2649  0.0047  0.0492  0.0004 -0.1941  0.4670  0.5417
  68.  F 5 (py)    -0.0295  0.0397  0.2119  0.1616 -0.1679 -0.0975 -0.4670 -0.4633
  69.  F 5 (pz)    -0.0295  0.0492 -0.2170  0.1520  0.1683 -0.0967 -0.4670 -0.7274
  70.  F 5 (d5)     0.0000  0.2647 -0.5246  0.1568  0.3443 -0.1977  0.0000 -0.0665
  71.  F 5 (d2)    -0.2108  0.1500  0.1206 -0.1068 -0.2864 -0.1662  0.2663  0.4144
  72.  F 5 (d3)     0.2108  0.0130 -0.0046  0.2197  0.0008 -0.3312 -0.2663 -0.3557
  73.  F 5 (d4)     0.0000 -0.4316 -0.3070 -0.2988  0.1977  0.3443  0.0000 -0.0201
  74.  F 5 (d1)    -0.2108  0.1550 -0.1090 -0.1120  0.2872 -0.1649  0.2663  0.2166

           AO         73      74
      ------------ ------- -------
   1. Si 1 (s)      0.0000  0.0000
   2. Si 1 (s)      0.0000  0.0000
   3. Si 1 (px)    -0.0199 -0.2229
   4. Si 1 (py)    -0.1052 -0.1030
   5. Si 1 (pz)    -0.2307  0.0662
   6. Si 1 (s)      0.0000  0.0000
   7. Si 1 (px)     0.2094  2.3463
   8. Si 1 (py)     1.1069  1.0839
   9. Si 1 (pz)     2.4281 -0.6964
  10. Si 1 (s)      0.0000  0.0000
  11. Si 1 (px)    -0.0138 -0.1551
  12. Si 1 (py)    -0.0731 -0.0716
  13. Si 1 (pz)    -0.1605  0.0460
  14. Si 1 (d5)     0.0000  0.0000
  15. Si 1 (d2)     0.5551  0.5436
  16. Si 1 (d3)     0.1050  1.1767
  17. Si 1 (d4)     0.0000  0.0000
  18. Si 1 (d1)     1.2178 -0.3493
  19.  F 2 (s)      0.0028  0.0020
  20.  F 2 (s)      0.9256  0.6758
  21.  F 2 (px)    -0.1661 -0.0587
  22.  F 2 (py)    -0.1405 -0.0947
  23.  F 2 (pz)    -0.1028 -0.1455
  24.  F 2 (s)     -2.0540 -1.4996
  25.  F 2 (px)     0.9312  0.4911
  26.  F 2 (py)     0.8540  0.5997
  27.  F 2 (pz)     0.7402  0.7530
  28.  F 2 (d5)     0.0451 -0.0614
  29.  F 2 (d2)    -0.4703 -0.3612
  30.  F 2 (d3)    -0.4125 -0.4426
  31.  F 2 (d4)    -0.0198  0.0278
  32.  F 2 (d1)    -0.5555 -0.2464
  33.  F 3 (s)      0.0008 -0.0031
  34.  F 3 (s)      0.2749 -1.0201
  35.  F 3 (px)     0.0571 -0.1227
  36.  F 3 (py)     0.0827 -0.1587
  37.  F 3 (pz)     0.0182  0.1698
  38.  F 3 (s)     -0.6099  2.2636
  39.  F 3 (px)    -0.2999  0.8442
  40.  F 3 (py)    -0.3771  0.9528
  41.  F 3 (pz)     0.0729 -0.9862
  42.  F 3 (d5)     0.0786  0.0259
  43.  F 3 (d2)     0.0471 -0.5096
  44.  F 3 (d3)     0.1050 -0.5910
  45.  F 3 (d4)     0.0198 -0.0278
  46.  F 3 (d1)    -0.2750  0.4846
  47.  F 4 (s)     -0.0011 -0.0004
  48.  F 4 (s)     -0.3784 -0.1399
  49.  F 4 (px)    -0.0644  0.0410
  50.  F 4 (py)     0.1020  0.0570
  51.  F 4 (pz)    -0.0010 -0.0459
  52.  F 4 (s)      0.8396  0.3105
  53.  F 4 (px)     0.3700 -0.0585
  54.  F 4 (py)    -0.4833 -0.2368
  55.  F 4 (pz)     0.1790  0.2034
  56.  F 4 (d5)    -0.0732  0.0338
  57.  F 4 (d2)     0.0917 -0.0096
  58.  F 4 (d3)    -0.1766 -0.2116
  59.  F 4 (d4)    -0.0290 -0.0756
  60.  F 4 (d1)    -0.3197 -0.0154
  61.  F 5 (s)     -0.0025  0.0015
  62.  F 5 (s)     -0.8221  0.4842
  63.  F 5 (px)     0.1588 -0.0230
  64.  F 5 (py)    -0.1213  0.1210
  65.  F 5 (pz)    -0.0835  0.0701
  66.  F 5 (s)      1.8242 -1.0745
  67.  F 5 (px)    -0.8611  0.2946
  68.  F 5 (py)     0.7478 -0.5899
  69.  F 5 (pz)     0.6341 -0.4366
  70.  F 5 (d5)    -0.0504  0.0017
  71.  F 5 (d2)    -0.4257  0.1388
  72.  F 5 (d3)     0.3408 -0.3600
  73.  F 5 (d4)     0.0290  0.0756
  74.  F 5 (d1)    -0.5109  0.2536


 AO overlap matrix:

           AO          1       2       3       4       5       6       7       8
      ------------ ------- ------- ------- ------- ------- ------- ------- -------
   1. Si 1 (s)      1.0000  0.2523  0.0000  0.0000  0.0000  0.0039  0.0000  0.0000
   2. Si 1 (s)      0.2523  1.0000  0.0000  0.0000  0.0000  0.2816  0.0000  0.0000
   3. Si 1 (px)     0.0000  0.0000  1.0000  0.0000  0.0000  0.0000  0.2800  0.0000
   4. Si 1 (py)     0.0000  0.0000  0.0000  1.0000  0.0000  0.0000  0.0000  0.2800
   5. Si 1 (pz)     0.0000  0.0000  0.0000  0.0000  1.0000  0.0000  0.0000  0.0000
   6. Si 1 (s)      0.0039  0.2816  0.0000  0.0000  0.0000  1.0000  0.0000  0.0000
   7. Si 1 (px)     0.0000  0.0000  0.2800  0.0000  0.0000  0.0000  1.0000  0.0000
   8. Si 1 (py)     0.0000  0.0000  0.0000  0.2800  0.0000  0.0000  0.0000  1.0000
   9. Si 1 (pz)     0.0000  0.0000  0.0000  0.0000  0.2800  0.0000  0.0000  0.0000
[...]
                                         0.7932  0.0000  0.0000
  33. (0.01138) RY ( 4)Si  1            s(  0.00%)p 0.00(  0.00%)d 1.00(100.00%)
                                         0.0000  0.0000  0.0000  0.0000  0.0000
                                         0.0000  0.0000  0.0000  0.0000  0.0000
                                         0.0000  0.0000  0.0000  0.0000  0.0000
                                         0.0000 -0.5151  0.8571
  34. (0.01138) RY ( 5)Si  1            s(  0.00%)p 0.00(  0.00%)d 1.00(100.00%)
                                         0.0000  0.0000  0.0000  0.0000  0.0000
                                         0.0000  0.0000  0.0000  0.0000  0.0000
                                         0.0000  0.0000  0.0000  0.0000  0.0000
                                         0.0000  0.8571  0.5151
  35. (0.00019) RY ( 6)Si  1            s(  0.00%)p 1.00( 74.68%)d 0.34( 25.32%)
                                         0.0000  0.0000  0.0000  0.0000  0.0000
                                         0.0031 -0.1047  0.0000 -0.0248  0.8332
                                         0.0000 -0.0060  0.2024  0.1179  0.4854
                                        -0.0610  0.0000  0.0000
  36. (0.00019) RY ( 7)Si  1            s(  0.00%)p 1.00( 74.68%)d 0.34( 25.32%)
                                         0.0000  0.0000  0.0000  0.0000  0.0000
                                        -0.0250  0.8374  0.0000 -0.0017  0.0555
                                         0.0000 -0.0061  0.2046  0.1192  0.0323
                                         0.4878  0.0000  0.0000
  37. (0.00019) RY ( 8)Si  1            s(  0.00%)p 1.00( 74.68%)d 0.34( 25.32%)
                                         0.0000  0.0000  0.0000  0.0000  0.0000
                                         0.0055 -0.1844  0.0000  0.0066 -0.2210
                                         0.0000 -0.0243  0.8144  0.4744 -0.1288
                                        -0.1074  0.0000  0.0000
  38. (0.00001) RY ( 9)Si  1            s(100.00%)
  39. (0.00019) RY ( 1) F  2            s( 92.84%)p 0.07(  6.62%)d 0.01(  0.54%)
                                         0.0000  0.0044  0.9635 -0.0021  0.1486
                                        -0.0021  0.1486 -0.0021  0.1486 -0.0424
                                        -0.0424 -0.0424  0.0000  0.0000
  40. (0.00008) RY ( 2) F  2            s(  0.00%)p 1.00( 98.33%)d 0.02(  1.67%)
  41. (0.00008) RY ( 3) F  2            s(  0.00%)p 1.00( 98.33%)d 0.02(  1.67%)
  42. (0.00004) RY ( 4) F  2            s(  0.00%)p 1.00(  0.13%)d99.99( 99.87%)
  43. (0.00004) RY ( 5) F  2            s(  0.00%)p 1.00(  0.13%)d99.99( 99.87%)
  44. (0.00001) RY ( 6) F  2            s(  0.20%)p91.03( 17.98%)d99.99( 81.83%)
  45. (0.00000) RY ( 7) F  2            s(  7.01%)p10.80( 75.72%)d 2.46( 17.27%)
  46. (0.00000) RY ( 8) F  2            s(  0.00%)p 1.00(  1.69%)d58.20( 98.31%)
  47. (0.00000) RY ( 9) F  2            s(  0.00%)p 1.00(  1.69%)d58.20( 98.31%)
  48. (0.00019) RY ( 1) F  3            s( 92.84%)p 0.07(  6.62%)d 0.01(  0.54%)
                                         0.0000  0.0044  0.9635  0.0021 -0.1486
                                         0.0021 -0.1486 -0.0021  0.1486 -0.0424
                                         0.0424  0.0424  0.0000  0.0000
  49. (0.00008) RY ( 2) F  3            s(  0.00%)p 1.00( 98.33%)d 0.02(  1.67%)
  50. (0.00008) RY ( 3) F  3            s(  0.00%)p 1.00( 98.33%)d 0.02(  1.67%)
  51. (0.00004) RY ( 4) F  3            s(  0.00%)p 1.00(  0.13%)d99.99( 99.87%)
  52. (0.00004) RY ( 5) F  3            s(  0.00%)p 1.00(  0.13%)d99.99( 99.87%)
  53. (0.00001) RY ( 6) F  3            s(  0.20%)p91.03( 17.98%)d99.99( 81.83%)
  54. (0.00000) RY ( 7) F  3            s(  7.01%)p10.80( 75.72%)d 2.46( 17.27%)
  55. (0.00000) RY ( 8) F  3            s(  0.00%)p 1.00(  1.69%)d58.20( 98.31%)
  56. (0.00000) RY ( 9) F  3            s(  0.00%)p 1.00(  1.69%)d58.20( 98.31%)
  57. (0.00019) RY ( 1) F  4            s( 92.84%)p 0.07(  6.62%)d 0.01(  0.54%)
                                         0.0000  0.0044  0.9635  0.0021 -0.1486
                                        -0.0021  0.1486  0.0021 -0.1486  0.0424
                                        -0.0424  0.0424  0.0000  0.0000
  58. (0.00008) RY ( 2) F  4            s(  0.00%)p 1.00( 98.33%)d 0.02(  1.67%)
  59. (0.00008) RY ( 3) F  4            s(  0.00%)p 1.00( 98.33%)d 0.02(  1.67%)
  60. (0.00004) RY ( 4) F  4            s(  0.00%)p 1.00(  0.13%)d99.99( 99.87%)
  61. (0.00004) RY ( 5) F  4            s(  0.00%)p 1.00(  0.13%)d99.99( 99.87%)
  62. (0.00001) RY ( 6) F  4            s(  0.20%)p91.03( 17.98%)d99.99( 81.83%)
  63. (0.00000) RY ( 7) F  4            s(  7.01%)p10.80( 75.72%)d 2.46( 17.27%)
  64. (0.00000) RY ( 8) F  4            s(  0.00%)p 1.00(  1.69%)d58.20( 98.31%)
  65. (0.00000) RY ( 9) F  4            s(  0.00%)p 1.00(  1.69%)d58.20( 98.31%)
  66. (0.00019) RY ( 1) F  5            s( 92.84%)p 0.07(  6.62%)d 0.01(  0.54%)
                                         0.0000  0.0044  0.9635 -0.0021  0.1486
                                         0.0021 -0.1486  0.0021 -0.1486  0.0424
                                         0.0424 -0.0424  0.0000  0.0000
  67. (0.00008) RY ( 2) F  5            s(  0.00%)p 1.00( 98.33%)d 0.02(  1.67%)
  68. (0.00008) RY ( 3) F  5            s(  0.00%)p 1.00( 98.33%)d 0.02(  1.67%)
  69. (0.00004) RY ( 4) F  5            s(  0.00%)p 1.00(  0.13%)d99.99( 99.87%)
  70. (0.00004) RY ( 5) F  5            s(  0.00%)p 1.00(  0.13%)d99.99( 99.87%)
  71. (0.00001) RY ( 6) F  5            s(  0.20%)p91.03( 17.98%)d99.99( 81.83%)
  72. (0.00000) RY ( 7) F  5            s(  7.01%)p10.80( 75.72%)d 2.46( 17.27%)
  73. (0.00000) RY ( 8) F  5            s(  0.00%)p 1.00(  1.69%)d58.20( 98.31%)
  74. (0.00000) RY ( 9) F  5            s(  0.00%)p 1.00(  1.69%)d58.20( 98.31%)


 NHO DIRECTIONALITY AND BOND BENDING (deviation from line of nuclear centers at
                                      the position of maximum hybrid amplitude)

         [Thresholds for printing:  angular deviation  >  1.0 degree]
                                    p- or d-character  > 25.0%
                                    orbital occupancy  >  0.10e

                        Line of Centers        Hybrid 1             Hybrid 2
                        ---------------  -------------------  ------------------
           NBO            Theta   Phi    Theta   Phi    Dev   Theta   Phi    Dev
 ===============================================================================
  10. LP ( 1) F  2          --     --     54.7   45.0   --      --     --    --
  11. LP ( 2) F  2          --     --    133.1   94.2   --      --     --    --
  12. LP ( 3) F  2          --     --     63.4  156.2   --      --     --    --
  13. LP ( 1) F  3          --     --     54.7  225.0   --      --     --    --
  14. LP ( 2) F  3          --     --     74.4  123.2   --      --     --    --
  15. LP ( 3) F  3          --     --     40.0   13.7   --      --     --    --
  16. LP ( 1) F  4          --     --    125.3  135.0   --      --     --    --
  17. LP ( 2) F  4          --     --     61.0   67.6   --      --     --    --
  18. LP ( 3) F  4          --     --    131.0    6.4   --      --     --    --
  19. LP ( 1) F  5          --     --    125.3  315.0   --      --     --    --
  20. LP ( 2) F  5          --     --    121.1   70.7   --      --     --    --
  21. LP ( 3) F  5          --     --    128.8  189.8   --      --     --    --


 SECOND ORDER PERTURBATION THEORY ANALYSIS OF FOCK MATRIX IN NBO BASIS

     Threshold for printing:   0.50 kcal/mol
                                                          E(2) E(NL)-E(L) F(L,NL)
      Donor (L) NBO              Acceptor (NL) NBO      kcal/mol   a.u.    a.u.
 ===============================================================================

 within unit  1
   10. LP ( 1) F  2            30. RY ( 1)Si  1            0.94    2.19   0.040
   11. LP ( 2) F  2            27. BD*( 1)Si  1- F  3      8.41    1.16   0.088
   11. LP ( 2) F  2            28. BD*( 1)Si  1- F  4      9.71    1.16   0.095
   11. LP ( 2) F  2            31. RY ( 2)Si  1            2.36    1.62   0.055
   11. LP ( 2) F  2            33. RY ( 4)Si  1            0.53    1.63   0.026
   11. LP ( 2) F  2            34. RY ( 5)Si  1            2.36    1.63   0.055
   12. LP ( 3) F  2            27. BD*( 1)Si  1- F  3      3.70    1.16   0.058
   12. LP ( 3) F  2            28. BD*( 1)Si  1- F  4      2.40    1.16   0.047
   12. LP ( 3) F  2            29. BD*( 1)Si  1- F  5     12.06    1.16   0.105
   12. LP ( 3) F  2            32. RY ( 3)Si  1            2.14    1.62   0.053
   12. LP ( 3) F  2            33. RY ( 4)Si  1            2.36    1.63   0.055
   12. LP ( 3) F  2            34. RY ( 5)Si  1            0.53    1.63   0.026
   13. LP ( 1) F  3            31. RY ( 2)Si  1            0.53    2.19   0.030
   14. LP ( 2) F  3            26. BD*( 1)Si  1- F  2      1.35    1.16   0.035
   14. LP ( 2) F  3            28. BD*( 1)Si  1- F  4      5.10    1.16   0.069
   14. LP ( 2) F  3            29. BD*( 1)Si  1- F  5     11.70    1.16   0.104
   14. LP ( 2) F  3            30. RY ( 1)Si  1            0.72    1.62   0.031
   14. LP ( 2) F  3            31. RY ( 2)Si  1            0.65    1.62   0.029
   14. LP ( 2) F  3            32. RY ( 3)Si  1            1.03    1.62   0.036
   14. LP ( 2) F  3            34. RY ( 5)Si  1            2.78    1.63   0.060
   15. LP ( 3) F  3            26. BD*( 1)Si  1- F  2     10.75    1.16   0.100
   15. LP ( 3) F  3            28. BD*( 1)Si  1- F  4      7.00    1.16   0.080
   15. LP ( 3) F  3            30. RY ( 1)Si  1            1.63    1.62   0.046
   15. LP ( 3) F  3            31. RY ( 2)Si  1            0.52    1.62   0.026
   15. LP ( 3) F  3            33. RY ( 4)Si  1            2.78    1.63   0.060
   16. LP ( 1) F  4            31. RY ( 2)Si  1            0.82    2.19   0.038
   17. LP ( 2) F  4            26. BD*( 1)Si  1- F  2     11.97    1.16   0.105
   17. LP ( 2) F  4            27. BD*( 1)Si  1- F  3      1.98    1.16   0.043
   17. LP ( 2) F  4            29. BD*( 1)Si  1- F  5      4.21    1.16   0.062
   17. LP ( 2) F  4            30. RY ( 1)Si  1            2.21    1.62   0.053
   17. LP ( 2) F  4            34. RY ( 5)Si  1            2.87    1.63   0.061
   18. LP ( 3) F  4            27. BD*( 1)Si  1- F  3     10.13    1.16   0.097
   18. LP ( 3) F  4            29. BD*( 1)Si  1- F  5      7.89    1.16   0.085
   18. LP ( 3) F  4            32. RY ( 3)Si  1            1.99    1.62   0.051
   18. LP ( 3) F  4            33. RY ( 4)Si  1            2.87    1.63   0.061
   19. LP ( 1) F  5            32. RY ( 3)Si  1            0.63    2.19   0.033
   20. LP ( 2) F  5            26. BD*( 1)Si  1- F  2      1.48    1.16   0.037
   20. LP ( 2) F  5            27. BD*( 1)Si  1- F  3     11.77    1.16   0.104
   20. LP ( 2) F  5            28. BD*( 1)Si  1- F  4      4.90    1.16   0.067
   20. LP ( 2) F  5            31. RY ( 2)Si  1            1.93    1.62   0.050
   20. LP ( 2) F  5            34. RY ( 5)Si  1            2.83    1.63   0.061
   21. LP ( 3) F  5            26. BD*( 1)Si  1- F  2     10.62    1.16   0.099
   21. LP ( 3) F  5            28. BD*( 1)Si  1- F  4      7.20    1.16   0.081
   21. LP ( 3) F  5            30. RY ( 1)Si  1            1.39    1.62   0.042
   21. LP ( 3) F  5            32. RY ( 3)Si  1            0.61    1.62   0.028
   21. LP ( 3) F  5            33. RY ( 4)Si  1            2.83    1.63   0.061
   22. BD ( 1)Si  1- F  2      27. BD*( 1)Si  1- F  3      3.04    1.63   0.063
   22. BD ( 1)Si  1- F  2      28. BD*( 1)Si  1- F  4      3.04    1.63   0.063
   22. BD ( 1)Si  1- F  2      29. BD*( 1)Si  1- F  5      3.04    1.63   0.063
   23. BD ( 1)Si  1- F  3      26. BD*( 1)Si  1- F  2      3.04    1.63   0.063
   23. BD ( 1)Si  1- F  3      28. BD*( 1)Si  1- F  4      3.04    1.63   0.063
   23. BD ( 1)Si  1- F  3      29. BD*( 1)Si  1- F  5      3.04    1.63   0.063
   24. BD ( 1)Si  1- F  4      26. BD*( 1)Si  1- F  2      3.04    1.63   0.063
   24. BD ( 1)Si  1- F  4      27. BD*( 1)Si  1- F  3      3.04    1.63   0.063
   24. BD ( 1)Si  1- F  4      29. BD*( 1)Si  1- F  5      3.04    1.63   0.063
   25. BD ( 1)Si  1- F  5      26. BD*( 1)Si  1- F  2      3.04    1.63   0.063
   25. BD ( 1)Si  1- F  5      27. BD*( 1)Si  1- F  3      3.04    1.63   0.063
   25. BD ( 1)Si  1- F  5      28. BD*( 1)Si  1- F  4      3.04    1.63   0.063


 NATURAL BOND ORBITALS (Summary):

                                                     Principal Delocalizations
           NBO                 Occupancy    Energy   (geminal,vicinal,remote)
 ===============================================================================
 Molecular unit  1  (F4Si)
 ------ Lewis --------------------------------------
    1. CR ( 1)Si  1             2.00000   -68.32849
    2. CR ( 2)Si  1             2.00000    -6.93312
    3. CR ( 3)Si  1             1.99999    -4.40816
    4. CR ( 4)Si  1             1.99999    -4.40816
    5. CR ( 5)Si  1             1.99999    -4.40816
    6. CR ( 1) F  2             2.00000   -26.33913
    7. CR ( 1) F  3             2.00000   -26.33913
    8. CR ( 1) F  4             2.00000   -26.33913
    9. CR ( 1) F  5             2.00000   -26.33913
   10. LP ( 1) F  2             1.99579    -1.24836  30(v)
   11. LP ( 2) F  2             1.96051    -0.68216  28(v),27(v),31(v),34(v)
                                                     33(v)
   12. LP ( 3) F  2             1.96051    -0.68216  29(v),27(v),28(v),33(v)
                                                     32(v),34(v)
   13. LP ( 1) F  3             1.99579    -1.24836  31(v)
   14. LP ( 2) F  3             1.96051    -0.68216  29(v),28(v),34(v),26(v)
                                                     32(v),30(v),31(v)
   15. LP ( 3) F  3             1.96051    -0.68216  26(v),28(v),33(v),30(v)
                                                     31(v)
   16. LP ( 1) F  4             1.99579    -1.24836  31(v)
   17. LP ( 2) F  4             1.96051    -0.68216  26(v),29(v),34(v),30(v)
                                                     27(v)
   18. LP ( 3) F  4             1.96051    -0.68216  27(v),29(v),33(v),32(v)
   19. LP ( 1) F  5             1.99579    -1.24836  32(v)
   20. LP ( 2) F  5             1.96051    -0.68216  27(v),28(v),34(v),31(v)
                                                     26(v)
   21. LP ( 3) F  5             1.96051    -0.68216  26(v),28(v),33(v),30(v)
                                                     32(v)
   22. BD ( 1)Si  1- F  2       1.98761    -1.15227  27(g),28(g),29(g)
   23. BD ( 1)Si  1- F  3       1.98761    -1.15227  26(g),28(g),29(g)
   24. BD ( 1)Si  1- F  4       1.98761    -1.15227  26(g),27(g),29(g)
   25. BD ( 1)Si  1- F  5       1.98761    -1.15227  26(g),27(g),28(g)
 ------ non-Lewis ----------------------------------
   26. BD*( 1)Si  1- F  2       0.07312     0.47390
   27. BD*( 1)Si  1- F  3       0.07312     0.47390
   28. BD*( 1)Si  1- F  4       0.07312     0.47390
   29. BD*( 1)Si  1- F  5       0.07312     0.47390
   30. RY ( 1)Si  1             0.02160     0.93942
   31. RY ( 2)Si  1             0.02160     0.93942
   32. RY ( 3)Si  1             0.02160     0.93942
   33. RY ( 4)Si  1             0.01138     0.94345
   34. RY ( 5)Si  1             0.01138     0.94345
   35. RY ( 6)Si  1             0.00019     0.52477
   36. RY ( 7)Si  1             0.00019     0.52477
   37. RY ( 8)Si  1             0.00019     0.52477
   38. RY ( 9)Si  1             0.00001     0.40064
   39. RY ( 1) F  2             0.00019     2.84589
   40. RY ( 2) F  2             0.00008     1.58304
   41. RY ( 3) F  2             0.00008     1.58304
   42. RY ( 4) F  2             0.00004     2.17014
   43. RY ( 5) F  2             0.00004     2.17014
   44. RY ( 6) F  2             0.00001     1.99966
   45. RY ( 7) F  2             0.00000     1.93404
   46. RY ( 8) F  2             0.00000     2.17400
   47. RY ( 9) F  2             0.00000     2.17400
   48. RY ( 1) F  3             0.00019     2.84589
   49. RY ( 2) F  3             0.00008     1.58304
   50. RY ( 3) F  3             0.00008     1.58304
   51. RY ( 4) F  3             0.00004     2.17014
   52. RY ( 5) F  3             0.00004     2.17014
   53. RY ( 6) F  3             0.00001     1.99966
   54. RY ( 7) F  3             0.00000     1.93404
   55. RY ( 8) F  3             0.00000     2.17400
   56. RY ( 9) F  3             0.00000     2.17400
   57. RY ( 1) F  4             0.00019     2.84589
   58. RY ( 2) F  4             0.00008     1.58304
   59. RY ( 3) F  4             0.00008     1.58304
   60. RY ( 4) F  4             0.00004     2.17014
   61. RY ( 5) F  4             0.00004     2.17014
   62. RY ( 6) F  4             0.00001     1.99966
   63. RY ( 7) F  4             0.00000     1.93404
   64. RY ( 8) F  4             0.00000     2.17400
   65. RY ( 9) F  4             0.00000     2.17400
   66. RY ( 1) F  5             0.00019     2.84589
   67. RY ( 2) F  5             0.00008     1.58304
   68. RY ( 3) F  5             0.00008     1.58304
   69. RY ( 4) F  5             0.00004     2.17014
   70. RY ( 5) F  5             0.00004     2.17014
   71. RY ( 6) F  5             0.00001     1.99966
   72. RY ( 7) F  5             0.00000     1.93404
   73. RY ( 8) F  5             0.00000     2.17400
   74. RY ( 9) F  5             0.00000     2.17400
          -------------------------------
                 Total Lewis   49.61764  ( 99.2353%)
           Valence non-Lewis    0.29248  (  0.5850%)
           Rydberg non-Lewis    0.08988  (  0.1798%)
          -------------------------------
               Total unit  1   50.00000  (100.0000%)
              Charge unit  1    0.00000

 $CHOOSE
   LONE 2 3 3 3 4 3 5 3 END
   BOND S 1 2 S 1 3 S 1 4 S 1 5 END
 $END

 NBO analysis completed in 1.31 CPU seconds (2 wall seconds)
 Maximum scratch memory used by NBO was 399284 words (3.05 MB)
 Maximum scratch memory used by G16NBO was 16871 words (0.13 MB)

 Opening RunExU unformatted file "/cluster/work/users/beto93/mol64/Gau-2207587.EUF"
 Read unf file /cluster/work/users/beto93/mol64/Gau-2207587.EUF:
 Label Gaussian matrix elements                                         IVers= 2 NLab= 2 Version=ES64L-G16RevC.01
 Title mol64-NBO                                                       
 NAtoms=     5 NBasis=    74 NBsUse=    74 ICharg=     0 Multip=     1 NE=    50 Len12L=8 Len4L=8 IOpCl= 0 ICGU=111
 GAUSSIAN SCALARS                    NI= 1 NR= 1 NTot=       1 LenBuf=    2 NRI=1 N=    1000
 NPA CHARGES                         NI= 0 NR= 1 NTot=       5 LenBuf= 4000 NRI=1 N=       5
 Recovered energy= -686.939927665     dipole=     -0.000000000000     -0.000000000000     -0.000000000000
 Unable to Open any file for archive entry.
 1\1\GINC-C2-23\SP\RHF\6-31G(d)\F4Si1\BETO93\18-Nov-2024\0\\#RHF/6-31G*
  int=nobasistransform Symmetry=None 5D 7F Pop=NBO7Read\\mol64-NBO\\0,1
 \Si,0,0.,0.,0.\F,0,0.912806,0.912806,0.912806\F,0,-0.912806,-0.912806,
 0.912806\F,0,-0.912806,0.912806,-0.912806\F,0,0.912806,-0.912806,-0.91
 2806\\Version=ES64L-G16RevC.01\HF=-686.9399277\RMSD=2.586e-09\Dipole=0
 .,0.,0.\Quadrupole=0.,0.,0.,0.,0.,0.\PG=Unknown\\@
 The archive entry for this job was punched.


 WE HAVE LEARNED THAT NOTHING IS SIMPLE AND
 RATIONAL EXCEPT WHAT WE OURSELVES HAVE INVENTED;
 THAT GOD THINKS IN TERMS NEITHER OF EUCLID OR RIEMANN; THAT SCIENCE HAS "EXPLAINED" NOTHING;
 THAT THE MORE WE KNOW THE MORE FANTASTIC THE WORLD BECOMES
 AND THE PROFOUNDER THE SURROUNDING DARKNESS.
   --  ALDOUS HUXLEY
 Job cpu time:       0 days  0 hours  0 minutes 12.0 seconds.
 Elapsed time:       0 days  0 hours  0 minutes  3.9 seconds.
 File lengths (MBytes):  RWF=     15 Int=      0 D2E=      0 Chk=      2 Scr=      1
 Normal termination of Gaussian 16 at Mon Nov 18 16:40:44 2024.
