 Entering Gaussian System, Link 0=g16
 Initial command:
 /cluster/software/Gaussian/g16_C.01/l1.exe "/cluster/work/users/beto93/mol49/Gau-944009.inp" -scrdir="/cluster/work/users/beto93/mol49/"
 Entering Link 1 = /cluster/software/Gaussian/g16_C.01/l1.exe PID=    944014.
  
 Copyright (c) 1988-2019, Gaussian, Inc.  All Rights Reserved.
  
 This is part of the Gaussian(R) 16 program.  It is based on
 the Gaussian(R) 09 system (copyright 2009, Gaussian, Inc.),
 the Gaussian(R) 03 system (copyright 2003, Gaussian, Inc.),
 the Gaussian(R) 98 system (copyright 1998, Gaussian, Inc.),
 the Gaussian(R) 94 system (copyright 1995, Gaussian, Inc.),
 the Gaussian 92(TM) system (copyright 1992, Gaussian, Inc.),
 the Gaussian 90(TM) system (copyright 1990, Gaussian, Inc.),
 the Gaussian 88(TM) system (copyright 1988, Gaussian, Inc.),
 the Gaussian 86(TM) system (copyright 1986, Carnegie Mellon
 University), and the Gaussian 82(TM) system (copyright 1983,
 Carnegie Mellon University). Gaussian is a federally registered
 trademark of Gaussian, Inc.
  
 This software contains proprietary and confidential information,
 including trade secrets, belonging to Gaussian, Inc.
  
 This software is provided under written license and may be
 used, copied, transmitted, or stored only in accord with that
 written license.
  
 The following legend is applicable only to US Government
 contracts under FAR:
  
                    RESTRICTED RIGHTS LEGEND
  
 Use, reproduction and disclosure by the US Government is
 subject to restrictions as set forth in subparagraphs (a)
 and (c) of the Commercial Computer Software - Restricted
 Rights clause in FAR 52.227-19.
  
 Gaussian, Inc.
 340 Quinnipiac St., Bldg. 40, Wallingford CT 06492
  
  
 ---------------------------------------------------------------
 Warning -- This program may not be used in any manner that
 competes with the business of Gaussian, Inc. or will provide
 assistance to any competitor of Gaussian, Inc.  The licensee
 of this program is prohibited from giving any competitor of
 Gaussian, Inc. access to this program.  By using this program,
 the user acknowledges that Gaussian, Inc. is engaged in the
 business of creating and licensing software in the field of
 computational chemistry and represents and warrants to the
 licensee that it is not a competitor of Gaussian, Inc. and that
 it will not use this program in any manner prohibited above.
 ---------------------------------------------------------------
  

 Cite this work as:
 Gaussian 16, Revision C.01,
 M. J. Frisch, G. W. Trucks, H. B. Schlegel, G. E. Scuseria, 
 M. A. Robb, J. R. Cheeseman, G. Scalmani, V. Barone, 
 G. A. Petersson, H. Nakatsuji, X. Li, M. Caricato, A. V. Marenich, 
 J. Bloino, B. G. Janesko, R. Gomperts, B. Mennucci, H. P. Hratchian, 
 J. V. Ortiz, A. F. Izmaylov, J. L. Sonnenberg, D. Williams-Young, 
 F. Ding, F. Lipparini, F. Egidi, J. Goings, B. Peng, A. Petrone, 
 T. Henderson, D. Ranasinghe, V. G. Zakrzewski, J. Gao, N. Rega, 
 G. Zheng, W. Liang, M. Hada, M. Ehara, K. Toyota, R. Fukuda, 
 J. Hasegawa, M. Ishida, T. Nakajima, Y. Honda, O. Kitao, H. Nakai, 
 T. Vreven, K. Throssell, J. A. Montgomery, Jr., J. E. Peralta, 
 F. Ogliaro, M. J. Bearpark, J. J. Heyd, E. N. Brothers, K. N. Kudin, 
 V. N. Staroverov, T. A. Keith, R. Kobayashi, J. Normand, 
 K. Raghavachari, A. P. Rendell, J. C. Burant, S. S. Iyengar, 
 J. Tomasi, M. Cossi, J. M. Millam, M. Klene, C. Adamo, R. Cammi, 
 J. W. Ochterski, R. L. Martin, K. Morokuma, O. Farkas, 
 J. B. Foresman, and D. J. Fox, Gaussian, Inc., Wallingford CT, 2019.
 
 ******************************************
 Gaussian 16:  ES64L-G16RevC.01  3-Jul-2019
                18-Nov-2024 
 ******************************************
 %LindaWorkers=c2-28-ib
 %NProcShared=4
 Will use up to    4 processors via shared memory.
 %mem=25GB
 %chk=mol49.chk
 SetLPE:    new flags="-opt 'Tsnet.Node.lindarsharg: ssh'  -nodelist 'c2-28-ib.saga' -env GAUSS_MDEF=3355443200 -env GAUSS_EXEDIR="/cluster/software/Gaussian/g16_C.01/bsd:/cluster/software/Gaussian/g16_C.01""
 Will use up to    1 processors via Linda.
 -----------------------------------------------------------------
 #RHF/STO-3G int=nobasistransform Symmetry=None 5D 7F Pop=NBO7Read
 -----------------------------------------------------------------
 1/38=1,163=2,172=1/1;
 2/12=2,15=3,17=6,18=5,40=1/2;
 3/6=3,8=11,11=1,25=1,30=1,60=-1,116=1/1,2,3;
 4//1;
 5/5=2,38=5/2;
 6/7=2,8=2,9=2,10=2,28=1,40=2,113=1,114=1,124=2103/1,12;
 99/5=1,9=1/99;
 ---------
 mol49-NBO
 ---------
 Symbolic Z-matrix:
 Charge =  0 Multiplicity = 1
 F                     0.        0.       -1.08479 
 Cl                    0.        0.        0.5743 
 
                          Input orientation:                          
 ---------------------------------------------------------------------
 Center     Atomic      Atomic             Coordinates (Angstroms)
 Number     Number       Type             X           Y           Z
 ---------------------------------------------------------------------
      1          9           0        0.000000    0.000000   -1.084794
      2         17           0        0.000000    0.000000    0.574302
 ---------------------------------------------------------------------
 Symmetry turned off by external request.
 Stoichiometry    ClF
 Rotational constants (GHZ):           0.0000000          14.9144079          14.9144079
 Standard basis: STO-3G (5D, 7F)
    14 basis functions,    42 primitive gaussians,    14 cartesian basis functions
    13 alpha electrons       13 beta electrons
       nuclear repulsion energy        48.8001377080 Hartrees.
 NAtoms=    2 NActive=    2 NUniq=    2 SFac= 1.00D+00 NAtFMM=   60 NAOKFM=F Big=F
 Integral buffers will be    131072 words long.
 Raffenetti 1 integral format.
 Two-electron integral symmetry is turned off.
 One-electron integrals computed using PRISM.
 NBasis=    14 RedAO= T EigKep=  5.21D-01  NBF=    14
 NBsUse=    14 1.00D-06 EigRej= -1.00D+00 NBFU=    14
 ExpMin= 2.33D-01 ExpMax= 6.01D+02 ExpMxC= 6.01D+02 IAcc=3 IRadAn=         5 AccDes= 0.00D+00
 Harris functional with IExCor=  205 and IRadAn=       5 diagonalized for initial guess.
 HarFok:  IExCor=  205 AccDes= 0.00D+00 IRadAn=         5 IDoV= 1 UseB2=F ITyADJ=14
 ICtDFT=  3500011 ScaDFX=  1.000000  1.000000  1.000000  1.000000
 FoFCou: FMM=F IPFlag=           0 FMFlag=      100000 FMFlg1=           0
         NFxFlg=           0 DoJE=T BraDBF=F KetDBF=T FulRan=T
         wScrn=  0.000000 ICntrl=       500 IOpCl=  0 I1Cent=   200000004 NGrid=           0
         NMat0=    1 NMatS0=      1 NMatT0=    0 NMatD0=    1 NMtDS0=    0 NMtDT0=    0
 Symmetry not used in FoFCou.
 Keep R1 ints in memory in canonical form, NReq=808570.
 Requested convergence on RMS density matrix=1.00D-08 within 128 cycles.
 Requested convergence on MAX density matrix=1.00D-06.
 Requested convergence on             energy=1.00D-06.
 No special actions if energy rises.
 SCF Done:  E(RHF) =  -552.531984968     A.U. after    6 cycles
            NFock=  6  Conv=0.15D-08     -V/T= 2.0173

 **********************************************************************

            Population analysis using the SCF Density.

 **********************************************************************

 Alpha  occ. eigenvalues -- -103.77385 -26.07195 -10.45175  -7.89675  -7.88993
 Alpha  occ. eigenvalues --   -7.88993  -1.56021  -0.99726  -0.60748  -0.60748
 Alpha  occ. eigenvalues --   -0.54891  -0.41538  -0.41538
 Alpha virt. eigenvalues --    0.24110
          Condensed to atoms (all electrons):
               1          2
     1  F    8.907095   0.104138
     2  Cl   0.104138  16.884629
 Mulliken charges:
               1
     1  F   -0.011233
     2  Cl   0.011233
 Sum of Mulliken charges =  -0.00000
 Mulliken charges with hydrogens summed into heavy atoms:
               1
     1  F   -0.011233
     2  Cl   0.011233
 Electronic spatial extent (au):  <R**2>=             92.1111
 Charge=             -0.0000 electrons
 Dipole moment (field-independent basis, Debye):
    X=              0.0000    Y=             -0.0000    Z=             -0.5454  Tot=              0.5454
 Quadrupole moment (field-independent basis, Debye-Ang):
   XX=            -15.5625   YY=            -15.5625   ZZ=            -14.9652
   XY=             -0.0000   XZ=              0.0000   YZ=             -0.0000
 Traceless Quadrupole moment (field-independent basis, Debye-Ang):
   XX=             -0.1991   YY=             -0.1991   ZZ=              0.3982
   XY=             -0.0000   XZ=              0.0000   YZ=             -0.0000
 Octapole moment (field-independent basis, Debye-Ang**2):
  XXX=              0.0000  YYY=             -0.0000  ZZZ=             -6.4218  XYY=              0.0000
  XXY=             -0.0000  XXZ=             -2.6696  XZZ=              0.0000  YZZ=             -0.0000
  YYZ=             -2.6696  XYZ=             -0.0000
 Hexadecapole moment (field-independent basis, Debye-Ang**3):
 XXXX=            -11.1512 YYYY=            -11.1512 ZZZZ=            -55.9057 XXXY=             -0.0000
 XXXZ=              0.0000 YYYX=             -0.0000 YYYZ=             -0.0000 ZZZX=             -0.0000
 ZZZY=              0.0000 XXYY=             -3.7171 XXZZ=            -12.0812 YYZZ=            -12.0812
 XXYZ=             -0.0000 YYXZ=              0.0000 ZZXY=             -0.0000
 N-N= 4.880013770798D+01 E-N=-1.407570161303D+03  KE= 5.431584247791D+02
 Running external command "gaunbo7 R"
         input file       "/cluster/work/users/beto93/mol49/Gau-944014.EIn"
         output file      "/cluster/work/users/beto93/mol49/Gau-944014.EOu"
         message file     "/cluster/work/users/beto93/mol49/Gau-944014.EMs"
         fchk file        "/cluster/work/users/beto93/mol49/Gau-944014.EFC"
         mat. el file     "/cluster/work/users/beto93/mol49/Gau-944014.EUF"

 Writing WrtUnf unformatted file "/cluster/work/users/beto93/mol49/Gau-944014.EUF"
 Gaussian matrix elements                                         Version   2 NLab=11 Len12L=8 Len4L=8
 Write SHELL TO ATOM MAP                   from file      0 offset           0 length                   5 to matrix element file.
 Write SHELL TYPES                         from file      0 offset           0 length                   5 to matrix element file.
 Write NUMBER OF PRIMITIVES PER SHELL      from file      0 offset           0 length                   5 to matrix element file.
 Write PRIMITIVE EXPONENTS                 from file      0 offset           0 length                  15 to matrix element file.
 Write CONTRACTION COEFFICIENTS            from file      0 offset           0 length                  15 to matrix element file.
 Write P(S=P) CONTRACTION COEFFICIENTS     from file      0 offset           0 length                  15 to matrix element file.
 Write COORDINATES OF EACH SHELL           from file      0 offset           0 length                  15 to matrix element file.
 Write BONDS PER ATOM                      from file      0 offset           0 length                   2 to matrix element file.
 Write BONDED ATOMS                        from file      0 offset           0 length                   2 to matrix element file.
 Write BOND TYPES                          from file      0 offset           0 length                   2 to matrix element file.
 Write ONIOM CHARGE/MULT                   from file      0 offset           0 length                  32 to matrix element file.
 Write ONIOM ATOM LAYERS                   from file      0 offset           0 length                   2 to matrix element file.
 Write ONIOM ATOM MODIFIERS                from file      0 offset           0 length                   2 to matrix element file.
 Write ONIOM ATOM TYPES                    from file      0 offset           0 length                   2 to matrix element file.
 Write ONIOM LINK ATOMS                    from file      0 offset           0 length                   2 to matrix element file.
 Write ONIOM LINK CHARGES                  from file      0 offset           0 length                   2 to matrix element file.
 Write ONIOM LINK DISTANCES                from file      0 offset           0 length                   8 to matrix element file.
 Write SYMINF INTS                         from file      0 offset           0 length                  26 to matrix element file.
 Write ROTTR TO SO                         from file      0 offset           0 length                  12 to matrix element file.
 Write GAUSSIAN SCALARS                    from file    501 offset           0 to matrix element file.
 Write OPTIMIZATION FLAGS                  from file      0 offset           0 length                   2 to matrix element file.
 Write INTEGER ISO                         from file      0 offset           0 length                   2 to matrix element file.
 Write INTEGER SPIN                        from file      0 offset           0 length                   2 to matrix element file.
 Write REAL ZEFFECTIVE                     from file      0 offset           0 length                   2 to matrix element file.
 Write REAL QUADRUPOLEMOMENT               from file      0 offset           0 length                   2 to matrix element file.
 Write REAL GFACTOR                        from file      0 offset           0 length                   2 to matrix element file.
 Write REAL ZNUCLEAR                       from file      0 offset           0 length                   2 to matrix element file.
 Write MULLIKEN CHARGES                    from file      0 offset           0 length                   2 to matrix element file.
 Write NUCLEAR GRADIENT                    from file  10584 offset           0 length                   6 to matrix element file.
 Array NUCLEAR FORCE CONSTANTS              on  file  10585 does not exist.
 Write ELECTRIC DIPOLE MOMENT              from file      0 offset           0 length                   3 to matrix element file.
 Write NON-ADIABATIC COUPLING              from file  10810 offset           0 length                   6 to matrix element file.
 Write FINITE EM FIELD                     from file  10521 offset           0 length                  35 to matrix element file.
 Write OVERLAP                             from file  10514 offset           0 length                 105 to matrix element file.
 Write CORE HAMILTONIAN ALPHA              from file  10515 offset           0 length                 105 to matrix element file.
 Write CORE HAMILTONIAN BETA               from file  10515 offset         105 length                 105 to matrix element file.
 Write KINETIC ENERGY                      from file  10516 offset           0 length                 105 to matrix element file.
 Write ORTHOGONAL BASIS                    from file  10685 offset           0 length                 196 to matrix element file.
 Write DIPOLE INTEGRALS                    from file  10518 offset           0 length                 315 to matrix element file.
 Array DIP VEL INTEGRALS                    on  file  10572 does not exist.
 Array R X DEL INTEGRALS                    on  file  10572 does not exist.
 Write ALPHA ORBITAL ENERGIES              from file      0 offset           0 length                  14 to matrix element file.
 Write ALPHA MO COEFFICIENTS               from file  10524 offset           0 length                 196 to matrix element file.
 Write ALPHA DENSITY MATRIX                from file      0 offset           0 length                 105 to matrix element file.
 Write ALPHA FOCK MATRIX                   from file  10536 offset           0 length                 105 to matrix element file.
 Write ENERGY-WEIGHTED DENSITY             from file  10571 offset           0 length                 105 to matrix element file.
 Write ALPHA SCF DENSITY MATRIX            from file      0 offset           0 length                 105 to matrix element file.
 No 2e integrals to process.
 Perform NBO analysis...executing G16NBO...

 *********************************** NBO 7.0 ***********************************
             N A T U R A L   A T O M I C   O R B I T A L   A N D
          N A T U R A L   B O N D   O R B I T A L   A N A L Y S I S
 **************************** Espen Tangen (S101595) ***************************
  (c) Copyright 1996-2021 Board of Regents of the University of Wisconsin System
      on behalf of the Theoretical Chemistry Institute.  All rights reserved.

          Cite this program [NBO 7.0.10 (8-Feb-2021)] as:

          NBO 7.0.  E. D. Glendening, J. K. Badenhoop, A. E. Reed,
          J. E. Carpenter, J. A. Bohmann, C. M. Morales, P. Karafiloglou,
          C. R. Landis, and F. Weinhold, Theoretical Chemistry Institute,
          University of Wisconsin, Madison, WI (2018)

       /NPA    / : Natural Population Analysis
       /AOPNAO / : Print the AO to PNAO transformation
       /AONAO  / : Print the AO to NAO transformation
       /AOMO   / : Print the MOs in the AO basis
       /BOAO   / : Print the AO bond-order matrix
       /DMAO   / : Print the AO density matrix
       /DMPNAO / : Print the PNAO density matrix
       /DMNAO  / : Print the NAO density matrix
       /DMMO   / : Print the MO density matrix
       /SAO    / : Print the AO overlap matrix
       /SPNAO  / : Print the PNAO overlap matrix
       /DETAIL / : Write details of NBO search
       /ARCHIVE/ : Write the archive file to lfn47
       /AOINFO / : Write AO information to lfn31
       /FILE   / : Set to mol49.gen*

 Filename set to mol49.gen1

 Job title: mol49-NBO


 MOs in the AO basis:

           AO          1       2       3       4       5       6       7       8
      ------------ ------- ------- ------- ------- ------- ------- ------- -------
   1.  F 1 (s)      0.0000  0.9950  0.0008 -0.0011  0.0000  0.0000 -0.2489  0.0794
   2.  F 1 (s)      0.0003  0.0207 -0.0056  0.0081  0.0000  0.0000  0.9518 -0.3638
   3.  F 1 (px)     0.0000  0.0000  0.0000  0.0000  0.0010 -0.0015  0.0000  0.0000
   4.  F 1 (py)     0.0000  0.0000  0.0000  0.0000 -0.0015 -0.0010  0.0000  0.0000
   5.  F 1 (pz)     0.0002  0.0016 -0.0037  0.0051  0.0000  0.0000  0.0641  0.1878
   6. Cl 2 (s)      0.9945 -0.0001 -0.3772 -0.0043  0.0000  0.0000  0.0178  0.0836
   7. Cl 2 (s)      0.0157  0.0003  1.0539  0.0124  0.0000  0.0000 -0.0592 -0.2750
   8. Cl 2 (px)     0.0000  0.0000  0.0000  0.0000 -0.5622  0.8153  0.0000  0.0000
   9. Cl 2 (py)     0.0000  0.0000  0.0000  0.0000  0.8153  0.5622  0.0000  0.0000
  10. Cl 2 (pz)    -0.0001 -0.0005 -0.0103  0.9890  0.0000  0.0000  0.0357  0.0080
  11. Cl 2 (s)     -0.0017 -0.0022  0.0418 -0.0026  0.0000  0.0000  0.1783  0.9702
  12. Cl 2 (px)     0.0000  0.0000  0.0000  0.0000 -0.0220  0.0319  0.0000  0.0000
  13. Cl 2 (py)     0.0000  0.0000  0.0000  0.0000  0.0319  0.0220  0.0000  0.0000
  14. Cl 2 (pz)     0.0001  0.0030 -0.0032  0.0437  0.0000  0.0000 -0.0990 -0.0270

           AO          9      10      11      12      13      14
      ------------ ------- ------- ------- ------- ------- -------
   1.  F 1 (s)      0.0000  0.0000 -0.0425  0.0000  0.0000 -0.0514
   2.  F 1 (s)      0.0000  0.0000  0.2137  0.0000  0.0000  0.2895
   3.  F 1 (px)     0.3794  0.8171  0.0000 -0.2531 -0.3598  0.0000
   4.  F 1 (py)     0.8171 -0.3794  0.0000 -0.3598  0.2531  0.0000
   5.  F 1 (pz)     0.0000  0.0000 -0.6170  0.0000  0.0000  0.8174
   6. Cl 2 (s)      0.0000  0.0000  0.0206  0.0000  0.0000 -0.0191
   7. Cl 2 (s)      0.0000  0.0000 -0.0671  0.0000  0.0000  0.0611
   8. Cl 2 (px)    -0.0445 -0.0959  0.0000 -0.1473 -0.2095  0.0000
   9. Cl 2 (py)    -0.0959  0.0445  0.0000 -0.2095  0.1473  0.0000
  10. Cl 2 (pz)     0.0000  0.0000 -0.1897  0.0000  0.0000 -0.2169
  11. Cl 2 (s)      0.0000  0.0000  0.2679  0.0000  0.0000 -0.2694
  12. Cl 2 (px)     0.1624  0.3497  0.0000  0.5495  0.7813  0.0000
  13. Cl 2 (py)     0.3497 -0.1624  0.0000  0.7813 -0.5495  0.0000
  14. Cl 2 (pz)     0.0000  0.0000  0.6730  0.0000  0.0000  0.8538


 AO overlap matrix:

           AO          1       2       3       4       5       6       7       8
      ------------ ------- ------- ------- ------- ------- ------- ------- -------
   1.  F 1 (s)      1.0000  0.2380  0.0000  0.0000  0.0000  0.0000  0.0000  0.0000
   2.  F 1 (s)      0.2380  1.0000  0.0000  0.0000  0.0000  0.0005  0.0055  0.0000
   3.  F 1 (px)     0.0000  0.0000  1.0000  0.0000  0.0000  0.0000  0.0000  0.0014
   4.  F 1 (py)     0.0000  0.0000  0.0000  1.0000  0.0000  0.0000  0.0000  0.0000
   5.  F 1 (pz)     0.0000  0.0000  0.0000  0.0000  1.0000  0.0012  0.0118  0.0000
   6. Cl 2 (s)      0.0000  0.0005  0.0000  0.0000  0.0012  1.0000  0.3438  0.0000
   7. Cl 2 (s)      0.0000  0.0055  0.0000  0.0000  0.0118  0.3438  1.0000  0.0000
   8. Cl 2 (px)     0.0000  0.0000  0.0014  0.0000  0.0000  0.0000  0.0000  1.0000
   9. Cl 2 (py)     0.0000  0.0000  0.0000  0.0014  0.0000  0.0000  0.0000  0.0000
  10. Cl 2 (pz)     0.0000 -0.0053  0.0000  0.0000 -0.0103  0.0000  0.0000  0.0000
  11. Cl 2 (s)      0.0122  0.1571  0.0000  0.0000  0.1563  0.0133  0.2185  0.0000
  12. Cl 2 (px)     0.0000  0.0000  0.0689  0.0000  0.0000  0.0000  0.0000  0.2326
  13. Cl 2 (py)     0.0000  0.0000  0.0000  0.0689  0.0000  0.0000  0.0000  0.0000
  14. Cl 2 (pz)    -0.0208 -0.2366  0.0000  0.0000 -0.2176  0.0000  0.0000  0.0000

           AO          9      10      11      12      13      14
      ------------ ------- ------- ------- ------- ------- -------
   1.  F 1 (s)      0.0000  0.0000  0.0122  0.0000  0.0000 -0.0208
   2.  F 1 (s)      0.0000 -0.0053  0.1571  0.0000  0.0000 -0.2366
   3.  F 1 (px)     0.0000  0.0000  0.0000  0.0689  0.0000  0.0000
   4.  F 1 (py)     0.0014  0.0000  0.0000  0.0000  0.0689  0.0000
   5.  F 1 (pz)     0.0000 -0.0103  0.1563  0.0000  0.0000 -0.2176
   6. Cl 2 (s)      0.0000  0.0000  0.0133  0.0000  0.0000  0.0000
   7. Cl 2 (s)      0.0000  0.0000  0.2185  0.0000  0.0000  0.0000
   8. Cl 2 (px)     0.0000  0.0000  0.0000  0.2326  0.0000  0.0000
   9. Cl 2 (py)     1.0000  0.0000  0.0000  0.0000  0.2326  0.0000
  10. Cl 2 (pz)     0.0000  1.0000  0.0000  0.0000  0.0000  0.2326
  11. Cl 2 (s)      0.0000  0.0000  1.0000  0.0000  0.0000  0.0000
  12. Cl 2 (px)     0.0000  0.0000  0.0000  1.0000  0.0000  0.0000
  13. Cl 2 (py)     0.2326  0.0000  0.0000  0.0000  1.0000  0.0000
  14. Cl 2 (pz)     0.0000  0.2326  0.0000  0.0000  0.0000  1.0000


 AO bond-order matrix:

           AO          1       2       3       4       5       6       7       8
      ------------ ------- ------- ------- ------- ------- ------- ------- -------
   1.  F 1 (s)      2.1201 -0.5085  0.0000  0.0000  0.0535  0.0017 -0.0061  0.0000
   2.  F 1 (s)     -0.5085  2.1689  0.0000  0.0000 -0.2780 -0.0134  0.0472  0.0000
   3.  F 1 (px)     0.0000  0.0000  2.0100  0.0000  0.0000  0.0000  0.0000  0.0312
   4.  F 1 (py)     0.0000  0.0000  0.0000  2.0100  0.0000  0.0000  0.0000  0.0000
   5.  F 1 (pz)     0.0535 -0.2780  0.0000  0.0000  0.8402  0.0114 -0.0358  0.0000
   6. Cl 2 (s)      0.0017 -0.0134  0.0000  0.0000  0.0114  2.2781 -0.8147  0.0000
   7. Cl 2 (s)     -0.0061  0.0472  0.0000  0.0000 -0.0358 -0.8147  2.3892  0.0000
   8. Cl 2 (px)     0.0000  0.0000  0.0312  0.0000  0.0000  0.0000  0.0000  2.1149
   9. Cl 2 (py)     0.0000  0.0000  0.0000  0.0312  0.0000  0.0000  0.0000  0.0000
  10. Cl 2 (pz)    -0.0036 -0.0027  0.0000  0.0000  0.2519 -0.0062  0.0195  0.0000
  11. Cl 2 (s)      0.0383 -0.2527  0.0000  0.0000  0.0563  0.1449 -0.5027  0.0000
  12. Cl 2 (px)     0.0000  0.0000 -0.1458  0.0000  0.0000  0.0000  0.0000 -0.4940
  13. Cl 2 (py)     0.0000  0.0000  0.0000 -0.1458  0.0000  0.0000  0.0000  0.0000
  14. Cl 2 (pz)    -0.0064  0.1197  0.0000  0.0000 -0.8528  0.0220 -0.0695  0.0000

           AO          9      10      11      12      13      14
      ------------ ------- ------- ------- ------- ------- -------
   1.  F 1 (s)      0.0000 -0.0036  0.0383  0.0000  0.0000 -0.0064
   2.  F 1 (s)      0.0000 -0.0027 -0.2527  0.0000  0.0000  0.1197
   3.  F 1 (px)     0.0000  0.0000  0.0000 -0.1458  0.0000  0.0000
   4.  F 1 (py)     0.0312  0.0000  0.0000  0.0000 -0.1458  0.0000
   5.  F 1 (pz)     0.0000  0.2519  0.0563  0.0000  0.0000 -0.8528
   6. Cl 2 (s)      0.0000 -0.0062  0.1449  0.0000  0.0000  0.0220
   7. Cl 2 (s)      0.0000  0.0195 -0.5027  0.0000  0.0000 -0.0695
   8. Cl 2 (px)     0.0000  0.0000  0.0000 -0.4940  0.0000  0.0000
   9. Cl 2 (py)     2.1149  0.0000  0.0000  0.0000 -0.4940  0.0000
  10. Cl 2 (pz)     0.0000  2.0313 -0.0794  0.0000  0.0000 -0.1762
  11. Cl 2 (s)      0.0000 -0.0794  2.0932  0.0000  0.0000  0.2725
  12. Cl 2 (px)     0.0000  0.0000  0.0000  2.1250  0.0000  0.0000
  13. Cl 2 (py)    -0.4940  0.0000  0.0000  0.0000  2.1250  0.0000
  14. Cl 2 (pz)     0.0000 -0.1762  0.2725  0.0000  0.0000  0.9307


 AO density matrix:

           AO          1       2       3       4       5       6       7       8
      ------------ ------- ------- ------- ------- ------- ------- ------- -------
   1.  F 1 (s)      2.0000  0.4762  0.0000  0.0000  0.0042  0.0000  0.0000  0.0000
   2.  F 1 (s)      0.4762  1.9976  0.0000  0.0000 -0.0407  0.0011  0.0105  0.0000
   3.  F 1 (px)     0.0000  0.0000  2.0000  0.0000  0.0000  0.0000  0.0000  0.0027
   4.  F 1 (py)     0.0000  0.0000  0.0000  2.0000  0.0000  0.0000  0.0000  0.0000
   5.  F 1 (pz)     0.0042 -0.0407  0.0000  0.0000  1.2980  0.0030  0.0154  0.0000
   6. Cl 2 (s)      0.0000  0.0011  0.0000  0.0000  0.0030  2.0000  0.6876  0.0000
   7. Cl 2 (s)      0.0000  0.0105  0.0000  0.0000  0.0154  0.6876  1.9999  0.0000
   8. Cl 2 (px)     0.0000  0.0000  0.0027  0.0000  0.0000  0.0000  0.0000  2.0000
   9. Cl 2 (py)     0.0000  0.0000  0.0000  0.0027  0.0000  0.0000  0.0000  0.0000
  10. Cl 2 (pz)    -0.0002 -0.0087  0.0000  0.0000  0.0129  0.0000  0.0004  0.0000
  11. Cl 2 (s)      0.0239  0.3199  0.0000  0.0000  0.4118  0.0265  0.4381  0.0000
  12. Cl 2 (px)     0.0000  0.0000  0.1379  0.0000  0.0000  0.0000  0.0000  0.4652
  13. Cl 2 (py)     0.0000  0.0000  0.0000  0.1379  0.0000  0.0000  0.0000  0.0000
  14. Cl 2 (pz)    -0.0377 -0.5116  0.0000  0.0000 -1.0964  0.0005 -0.0077  0.0000

           AO          9      10      11      12      13      14
      ------------ ------- ------- ------- ------- ------- -------
   1.  F 1 (s)      0.0000 -0.0002  0.0239  0.0000  0.0000 -0.0377
   2.  F 1 (s)      0.0000 -0.0087  0.3199  0.0000  0.0000 -0.5116
   3.  F 1 (px)     0.0000  0.0000  0.0000  0.1379  0.0000  0.0000
   4.  F 1 (py)     0.0027  0.0000  0.0000  0.0000  0.1379  0.0000
   5.  F 1 (pz)     0.0000  0.0129  0.4118  0.0000  0.0000 -1.0964
   6. Cl 2 (s)      0.0000  0.0000  0.0265  0.0000  0.0000  0.0005
   7. Cl 2 (s)      0.0000  0.0004  0.4381  0.0000  0.0000 -0.0077
   8. Cl 2 (px)     0.0000  0.0000  0.0000  0.4652  0.0000  0.0000
   9. Cl 2 (py)     2.0000  0.0000  0.0000  0.0000  0.4652  0.0000
  10. Cl 2 (pz)     0.0000  1.9984 -0.0047  0.0000  0.0000  0.4968
  11. Cl 2 (s)      0.0000 -0.0047  1.9860  0.0000  0.0000  0.0935
  12. Cl 2 (px)     0.0000  0.0000  0.0000  2.0000  0.0000  0.0000
  13. Cl 2 (py)     0.4652  0.0000  0.0000  0.0000  2.0000  0.0000
  14. Cl 2 (pz)     0.0000  0.4968  0.0935  0.0000  0.0000  1.3771


 MO density matrix:

      MO     1       2       3       4       5       6       7       8       9
     ---- ------  ------  ------  ------  ------  ------  ------  ------  ------
   1.     2.0000  0.0000  0.0000  0.0000  0.0000  0.0000  0.0000  0.0000  0.0000
   2.     0.0000  2.0000  0.0000  0.0000  0.0000  0.0000  0.0000  0.0000  0.0000
   3.     0.0000  0.0000  2.0000  0.0000  0.0000  0.0000  0.0000  0.0000  0.0000
   4.     0.0000  0.0000  0.0000  2.0000  0.0000  0.0000  0.0000  0.0000  0.0000
   5.     0.0000  0.0000  0.0000  0.0000  2.0000  0.0000  0.0000  0.0000  0.0000
   6.     0.0000  0.0000  0.0000  0.0000  0.0000  2.0000  0.0000  0.0000  0.0000
   7.     0.0000  0.0000  0.0000  0.0000  0.0000  0.0000  2.0000  0.0000  0.0000
   8.     0.0000  0.0000  0.0000  0.0000  0.0000  0.0000  0.0000  2.0000  0.0000
   9.     0.0000  0.0000  0.0000  0.0000  0.0000  0.0000  0.0000  0.0000  2.0000
  10.     0.0000  0.0000  0.0000  0.0000  0.0000  0.0000  0.0000  0.0000  0.0000
  11.     0.0000  0.0000  0.0000  0.0000  0.0000  0.0000  0.0000  0.0000  0.0000
  12.     0.0000  0.0000  0.0000  0.0000  0.0000  0.0000  0.0000  0.0000  0.0000
  13.     0.0000  0.0000  0.0000  0.0000  0.0000  0.0000  0.0000  0.0000  0.0000
  14.     0.0000  0.0000  0.0000  0.0000  0.0000  0.0000  0.0000  0.0000  0.0000

      MO    10      11      12      13      14
     ---- ------  ------  ------  ------  ------
   1.     0.0000  0.0000  0.0000  0.0000  0.0000
   2.     0.0000  0.0000  0.0000  0.0000  0.0000
   3.     0.0000  0.0000  0.0000  0.0000  0.0000
   4.     0.0000  0.0000  0.0000  0.0000  0.0000
   5.     0.0000  0.0000  0.0000  0.0000  0.0000
   6.     0.0000  0.0000  0.0000  0.0000  0.0000
   7.     0.0000  0.0000  0.0000  0.0000  0.0000
   8.     0.0000  0.0000  0.0000  0.0000  0.0000
   9.     0.0000  0.0000  0.0000  0.0000  0.0000
  10.     2.0000  0.0000  0.0000  0.0000  0.0000
  11.     0.0000  2.0000  0.0000  0.0000  0.0000
  12.     0.0000  0.0000  2.0000  0.0000  0.0000
  13.     0.0000  0.0000  0.0000  2.0000  0.0000
  14.     0.0000  0.0000  0.0000  0.0000  0.0000


 NATURAL POPULATIONS:  Natural atomic orbital occupancies

  NAO Atom No lang   Type(AO)    Occupancy      Energy
 -------------------------------------------------------
   1    F  1  s      Cor( 1s)     2.00000     -25.92018
   2    F  1  s      Val( 2s)     1.96241      -1.61152
   3    F  1  px     Val( 2p)     2.00000      -0.57571
   4    F  1  py     Val( 2p)     2.00000      -0.57571
   5    F  1  pz     Val( 2p)     1.03995      -0.20770

   6   Cl  2  s      Cor( 2s)     2.00000     -10.45732
   7   Cl  2  s      Cor( 1s)     2.00000    -103.74726
   8   Cl  2  s      Val( 3s)     1.94946      -0.99937
   9   Cl  2  px     Cor( 2p)     2.00000      -7.88897
  10   Cl  2  px     Val( 3p)     2.00000      -0.44811
  11   Cl  2  py     Cor( 2p)     2.00000      -7.88897
  12   Cl  2  py     Val( 3p)     2.00000      -0.44811
  13   Cl  2  pz     Cor( 2p)     2.00000      -7.89597
  14   Cl  2  pz     Val( 3p)     1.04817      -0.22026


 Summary of Natural Population Analysis:

                                     Natural Population
             Natural    ---------------------------------------------
  Atom No    Charge        Core      Valence    Rydberg      Total
 --------------------------------------------------------------------
    F  1   -0.00236      2.00000     7.00236    0.00000     9.00236
   Cl  2    0.00236     10.00000     6.99764    0.00000    16.99764
 ====================================================================
 * Total *  0.00000     12.00000    14.00000    0.00000    26.00000

                                 Natural Population
 ---------------------------------------------------------
   Core                      12.00000 (100.0000% of   12)
   Valence                   14.00000 (100.0000% of   14)
   Natural Minimal Basis     26.00000 (100.0000% of   26)
   Natural Rydberg Basis      0.00000 (  0.0000% of   26)
 ---------------------------------------------------------

    Atom No         Natural Electron Configuration
 ----------------------------------------------------------------------------
      F  1      [core]2s( 1.96)2p( 5.04)
     Cl  2      [core]3s( 1.95)3p( 5.05)


 PNAOs in the AO basis:

           AO          1       2       3       4       5       6       7       8
      ------------ ------- ------- ------- ------- ------- ------- ------- -------
   1.  F 1 (s)      0.9713 -0.3415  0.0000  0.0000  0.0000  0.0000  0.0000  0.0000
   2.  F 1 (s)      0.1005  1.0247  0.0000  0.0000  0.0000  0.0000  0.0000  0.0000
   3.  F 1 (px)     0.0000  0.0000  1.0000  0.0000  0.0000  0.0000  0.0000  0.0000
   4.  F 1 (py)     0.0000  0.0000  0.0000  1.0000  0.0000  0.0000  0.0000  0.0000
   5.  F 1 (pz)     0.0000  0.0000  0.0000  0.0000  1.0000  0.0000  0.0000  0.0000
   6. Cl 2 (s)      0.0000  0.0000  0.0000  0.0000  0.0000 -0.3562  1.0003  0.1081
   7. Cl 2 (s)      0.0000  0.0000  0.0000  0.0000  0.0000  1.0399 -0.0008 -0.3388
   8. Cl 2 (px)     0.0000  0.0000  0.0000  0.0000  0.0000  0.0000  0.0000  0.0000
   9. Cl 2 (py)     0.0000  0.0000  0.0000  0.0000  0.0000  0.0000  0.0000  0.0000
  10. Cl 2 (pz)     0.0000  0.0000  0.0000  0.0000  0.0000  0.0000  0.0000  0.0000
  11. Cl 2 (s)      0.0000  0.0000  0.0000  0.0000  0.0000  0.0874 -0.0055  1.0234
  12. Cl 2 (px)     0.0000  0.0000  0.0000  0.0000  0.0000  0.0000  0.0000  0.0000
  13. Cl 2 (py)     0.0000  0.0000  0.0000  0.0000  0.0000  0.0000  0.0000  0.0000
  14. Cl 2 (pz)     0.0000  0.0000  0.0000  0.0000  0.0000  0.0000  0.0000  0.0000

           AO          9      10      11      12      13      14
      ------------ ------- ------- ------- ------- ------- -------
   1.  F 1 (s)      0.0000  0.0000  0.0000  0.0000  0.0000  0.0000
   2.  F 1 (s)      0.0000  0.0000  0.0000  0.0000  0.0000  0.0000
   3.  F 1 (px)     0.0000  0.0000  0.0000  0.0000  0.0000  0.0000
   4.  F 1 (py)     0.0000  0.0000  0.0000  0.0000  0.0000  0.0000
   5.  F 1 (pz)     0.0000  0.0000  0.0000  0.0000  0.0000  0.0000
   6. Cl 2 (s)      0.0000  0.0000  0.0000  0.0000  0.0000  0.0000
   7. Cl 2 (s)      0.0000  0.0000  0.0000  0.0000  0.0000  0.0000
   8. Cl 2 (px)     0.9871 -0.2876  0.0000  0.0000  0.0000  0.0000
   9. Cl 2 (py)     0.0000  0.0000  0.9871 -0.2876  0.0000  0.0000
  10. Cl 2 (pz)     0.0000  0.0000  0.0000  0.0000  0.9871 -0.2876
  11. Cl 2 (s)      0.0000  0.0000  0.0000  0.0000  0.0000  0.0000
  12. Cl 2 (px)     0.0501  1.0270  0.0000  0.0000  0.0000  0.0000
  13. Cl 2 (py)     0.0000  0.0000  0.0501  1.0270  0.0000  0.0000
  14. Cl 2 (pz)     0.0000  0.0000  0.0000  0.0000  0.0501  1.0270


 PNAO overlap matrix:

           NAO         1       2       3       4       5       6       7       8
      ------------ ------- ------- ------- ------- ------- ------- ------- -------
   1.  F 1( 1s )    1.0000  0.0000  0.0000  0.0000  0.0000  0.0030 -0.0001  0.0281
   2.  F 1( 2s )    0.0000  1.0000  0.0000  0.0000  0.0000  0.0193 -0.0003  0.1586
   3.  F 1( 2px)    0.0000  0.0000  1.0000  0.0000  0.0000  0.0000  0.0000  0.0000
   4.  F 1( 2py)    0.0000  0.0000  0.0000  1.0000  0.0000  0.0000  0.0000  0.0000
   5.  F 1( 2pz)    0.0000  0.0000  0.0000  0.0000  1.0000  0.0254  0.0004  0.1561
   6. Cl 2( 2s )    0.0030  0.0193  0.0000  0.0000  0.0254  1.0000  0.0000  0.0000
   7. Cl 2( 1s )   -0.0001 -0.0003  0.0000  0.0000  0.0004  0.0000  1.0000  0.0000
   8. Cl 2( 3s )    0.0281  0.1586  0.0000  0.0000  0.1561  0.0000  0.0000  1.0000
   9. Cl 2( 2px)    0.0000  0.0000  0.0048  0.0000  0.0000  0.0000  0.0000  0.0000
  10. Cl 2( 3px)    0.0000  0.0000  0.0704  0.0000  0.0000  0.0000  0.0000  0.0000
  11. Cl 2( 2py)    0.0000  0.0000  0.0000  0.0048  0.0000  0.0000  0.0000  0.0000
  12. Cl 2( 3py)    0.0000  0.0000  0.0000  0.0704  0.0000  0.0000  0.0000  0.0000
  13. Cl 2( 2pz)   -0.0027 -0.0172  0.0000  0.0000 -0.0211  0.0000  0.0000  0.0000
  14. Cl 2( 3pz)   -0.0451 -0.2401  0.0000  0.0000 -0.2205  0.0000  0.0000  0.0000

           NAO         9      10      11      12      13      14
      ------------ ------- ------- ------- ------- ------- -------
   1.  F 1( 1s )    0.0000  0.0000  0.0000  0.0000 -0.0027 -0.0451
   2.  F 1( 2s )    0.0000  0.0000  0.0000  0.0000 -0.0172 -0.2401
   3.  F 1( 2px)    0.0048  0.0704  0.0000  0.0000  0.0000  0.0000
   4.  F 1( 2py)    0.0000  0.0000  0.0048  0.0704  0.0000  0.0000
   5.  F 1( 2pz)    0.0000  0.0000  0.0000  0.0000 -0.0211 -0.2205
   6. Cl 2( 2s )    0.0000  0.0000  0.0000  0.0000  0.0000  0.0000
   7. Cl 2( 1s )    0.0000  0.0000  0.0000  0.0000  0.0000  0.0000
   8. Cl 2( 3s )    0.0000  0.0000  0.0000  0.0000  0.0000  0.0000
   9. Cl 2( 2px)    1.0000  0.0000  0.0000  0.0000  0.0000  0.0000
  10. Cl 2( 3px)    0.0000  1.0000  0.0000  0.0000  0.0000  0.0000
  11. Cl 2( 2py)    0.0000  0.0000  1.0000  0.0000  0.0000  0.0000
  12. Cl 2( 3py)    0.0000  0.0000  0.0000  1.0000  0.0000  0.0000
  13. Cl 2( 2pz)    0.0000  0.0000  0.0000  0.0000  1.0000  0.0000
  14. Cl 2( 3pz)    0.0000  0.0000  0.0000  0.0000  0.0000  1.0000


 PNAO density matrix:

           NAO         1       2       3       4       5       6       7       8
      ------------ ------- ------- ------- ------- ------- ------- ------- -------
   1.  F 1( 1s )    2.0000  0.0000  0.0000  0.0000  0.0000  0.0059 -0.0002  0.0563
   2.  F 1( 2s )    0.0000  1.9973  0.0000  0.0000 -0.0432  0.0387 -0.0007  0.3236
   3.  F 1( 2px)    0.0000  0.0000  2.0000  0.0000  0.0000  0.0000  0.0000  0.0000
   4.  F 1( 2py)    0.0000  0.0000  0.0000  2.0000  0.0000  0.0000  0.0000  0.0000
   5.  F 1( 2pz)    0.0000 -0.0432  0.0000  0.0000  1.2980  0.0509  0.0008  0.4166
   6. Cl 2( 2s )    0.0059  0.0387  0.0000  0.0000  0.0509  2.0000  0.0000  0.0000
   7. Cl 2( 1s )   -0.0002 -0.0007  0.0000  0.0000  0.0008  0.0000  2.0000  0.0000
   8. Cl 2( 3s )    0.0563  0.3236  0.0000  0.0000  0.4166  0.0000  0.0000  1.9845
   9. Cl 2( 2px)    0.0000  0.0000  0.0096  0.0000  0.0000  0.0000  0.0000  0.0000
  10. Cl 2( 3px)    0.0000  0.0000  0.1408  0.0000  0.0000  0.0000  0.0000  0.0000
  11. Cl 2( 2py)    0.0000  0.0000  0.0000  0.0096  0.0000  0.0000  0.0000  0.0000
  12. Cl 2( 3py)    0.0000  0.0000  0.0000  0.1408  0.0000  0.0000  0.0000  0.0000
  13. Cl 2( 2pz)   -0.0055 -0.0344  0.0000  0.0000 -0.0422  0.0000  0.0000  0.0000
  14. Cl 2( 3pz)   -0.0901 -0.5226  0.0000  0.0000 -1.1297  0.0000  0.0000  0.1024

           NAO         9      10      11      12      13      14
      ------------ ------- ------- ------- ------- ------- -------
   1.  F 1( 1s )    0.0000  0.0000  0.0000  0.0000 -0.0055 -0.0901
   2.  F 1( 2s )    0.0000  0.0000  0.0000  0.0000 -0.0344 -0.5226
   3.  F 1( 2px)    0.0096  0.1408  0.0000  0.0000  0.0000  0.0000
   4.  F 1( 2py)    0.0000  0.0000  0.0096  0.1408  0.0000  0.0000
   5.  F 1( 2pz)    0.0000  0.0000  0.0000  0.0000 -0.0422 -1.1297
   6. Cl 2( 2s )    0.0000  0.0000  0.0000  0.0000  0.0000  0.0000
   7. Cl 2( 1s )    0.0000  0.0000  0.0000  0.0000  0.0000  0.0000
   8. Cl 2( 3s )    0.0000  0.0000  0.0000  0.0000  0.0000  0.1024
   9. Cl 2( 2px)    2.0000  0.0000  0.0000  0.0000  0.0000  0.0000
  10. Cl 2( 3px)    0.0000  2.0000  0.0000  0.0000  0.0000  0.0000
  11. Cl 2( 2py)    0.0000  0.0000  2.0000  0.0000  0.0000  0.0000
  12. Cl 2( 3py)    0.0000  0.0000  0.0000  2.0000  0.0000  0.0000
  13. Cl 2( 2pz)    0.0000  0.0000  0.0000  0.0000  2.0000  0.0000
  14. Cl 2( 3pz)    0.0000  0.0000  0.0000  0.0000  0.0000  1.3242


 NAOs in the AO basis:

           AO          1       2       3       4       5       6       7       8
      ------------ ------- ------- ------- ------- ------- ------- ------- -------
   1.  F 1 (s)      0.9713 -0.3453  0.0000  0.0000 -0.0040 -0.0014  0.0000  0.0010
   2.  F 1 (s)      0.1005  1.0609  0.0000  0.0000  0.0371 -0.0001  0.0000 -0.0938
   3.  F 1 (px)     0.0000  0.0000  1.0019  0.0000  0.0000  0.0000  0.0000  0.0000
   4.  F 1 (py)     0.0000  0.0000  0.0000  1.0019  0.0000  0.0000  0.0000  0.0000
   5.  F 1 (pz)     0.0000  0.0313  0.0000  0.0000  1.0322  0.0000  0.0000 -0.0818
   6. Cl 2 (s)      0.0006 -0.0018  0.0000  0.0000 -0.0007 -0.3562  1.0003  0.1089
   7. Cl 2 (s)     -0.0015  0.0082  0.0000  0.0000  0.0031  1.0399 -0.0008 -0.3420
   8. Cl 2 (px)     0.0000  0.0000  0.0054  0.0000  0.0000  0.0000  0.0000  0.0000
   9. Cl 2 (py)     0.0000  0.0000  0.0000  0.0054  0.0000  0.0000  0.0000  0.0000
  10. Cl 2 (pz)     0.0014 -0.0180  0.0000  0.0000 -0.0135  0.0000  0.0000  0.0053
  11. Cl 2 (s)     -0.0001 -0.0919  0.0000  0.0000 -0.0964  0.0874 -0.0055  1.0453
  12. Cl 2 (px)     0.0000  0.0000 -0.0366  0.0000  0.0000  0.0000  0.0000  0.0000
  13. Cl 2 (py)     0.0000  0.0000  0.0000 -0.0366  0.0000  0.0000  0.0000  0.0000
  14. Cl 2 (pz)     0.0001  0.1301  0.0000  0.0000  0.1282  0.0000  0.0000 -0.0308

           AO          9      10      11      12      13      14
      ------------ ------- ------- ------- ------- ------- -------
   1.  F 1 (s)      0.0000  0.0000  0.0000  0.0000  0.0013 -0.0016
   2.  F 1 (s)      0.0000  0.0000  0.0000  0.0000  0.0001  0.1499
   3.  F 1 (px)     0.0000 -0.0352  0.0000  0.0000  0.0000  0.0000
   4.  F 1 (py)     0.0000  0.0000  0.0000 -0.0352  0.0000  0.0000
   5.  F 1 (pz)     0.0000  0.0000  0.0000  0.0000  0.0000  0.1232
   6. Cl 2 (s)      0.0000  0.0000  0.0000  0.0000  0.0000 -0.0015
   7. Cl 2 (s)      0.0000  0.0000  0.0000  0.0000  0.0000  0.0051
   8. Cl 2 (px)     0.9871 -0.2880  0.0000  0.0000  0.0000  0.0000
   9. Cl 2 (py)     0.0000  0.0000  0.9871 -0.2880  0.0000  0.0000
  10. Cl 2 (pz)     0.0000  0.0000  0.0000  0.0000  0.9872 -0.2961
  11. Cl 2 (s)      0.0000  0.0000  0.0000  0.0000  0.0000 -0.0347
  12. Cl 2 (px)     0.0501  1.0289  0.0000  0.0000  0.0000  0.0000
  13. Cl 2 (py)     0.0000  0.0000  0.0501  1.0289  0.0000  0.0000
  14. Cl 2 (pz)     0.0000  0.0000  0.0000  0.0000  0.0501  1.0759


 NAO density matrix:

           NAO         1       2       3       4       5       6       7       8
      ------------ ------- ------- ------- ------- ------- ------- ------- -------
   1.  F 1( 1s )    2.0000  0.0000  0.0000  0.0000  0.0000  0.0000  0.0000  0.0000
   2.  F 1( 2s )    0.0000  1.9624  0.0000  0.0000 -0.1900  0.0000  0.0000  0.0436
   3.  F 1( 2px)    0.0000  0.0000  2.0000  0.0000  0.0000  0.0000  0.0000  0.0000
   4.  F 1( 2py)    0.0000  0.0000  0.0000  2.0000  0.0000  0.0000  0.0000  0.0000
   5.  F 1( 2pz)    0.0000 -0.1900  0.0000  0.0000  1.0400  0.0000  0.0000  0.2203
   6. Cl 2( 2s )    0.0000  0.0000  0.0000  0.0000  0.0000  2.0000  0.0000  0.0000
   7. Cl 2( 1s )    0.0000  0.0000  0.0000  0.0000  0.0000  0.0000  2.0000  0.0000
   8. Cl 2( 3s )    0.0000  0.0436  0.0000  0.0000  0.2203  0.0000  0.0000  1.9495
   9. Cl 2( 2px)    0.0000  0.0000  0.0000  0.0000  0.0000  0.0000  0.0000  0.0000
  10. Cl 2( 3px)    0.0000  0.0000  0.0000  0.0000  0.0000  0.0000  0.0000  0.0000
  11. Cl 2( 2py)    0.0000  0.0000  0.0000  0.0000  0.0000  0.0000  0.0000  0.0000
  12. Cl 2( 3py)    0.0000  0.0000  0.0000  0.0000  0.0000  0.0000  0.0000  0.0000
  13. Cl 2( 2pz)    0.0000  0.0000  0.0000  0.0000  0.0000  0.0000  0.0000  0.0000
  14. Cl 2( 3pz)    0.0000 -0.1892  0.0000  0.0000 -0.9559  0.0000  0.0000  0.2193

           NAO         9      10      11      12      13      14
      ------------ ------- ------- ------- ------- ------- -------
   1.  F 1( 1s )    0.0000  0.0000  0.0000  0.0000  0.0000  0.0000
   2.  F 1( 2s )    0.0000  0.0000  0.0000  0.0000  0.0000 -0.1892
   3.  F 1( 2px)    0.0000  0.0000  0.0000  0.0000  0.0000  0.0000
   4.  F 1( 2py)    0.0000  0.0000  0.0000  0.0000  0.0000  0.0000
   5.  F 1( 2pz)    0.0000  0.0000  0.0000  0.0000  0.0000 -0.9559
   6. Cl 2( 2s )    0.0000  0.0000  0.0000  0.0000  0.0000  0.0000
   7. Cl 2( 1s )    0.0000  0.0000  0.0000  0.0000  0.0000  0.0000
   8. Cl 2( 3s )    0.0000  0.0000  0.0000  0.0000  0.0000  0.2193
   9. Cl 2( 2px)    2.0000  0.0000  0.0000  0.0000  0.0000  0.0000
  10. Cl 2( 3px)    0.0000  2.0000  0.0000  0.0000  0.0000  0.0000
  11. Cl 2( 2py)    0.0000  0.0000  2.0000  0.0000  0.0000  0.0000
  12. Cl 2( 3py)    0.0000  0.0000  0.0000  2.0000  0.0000  0.0000
  13. Cl 2( 2pz)    0.0000  0.0000  0.0000  0.0000  2.0000  0.0000
  14. Cl 2( 3pz)    0.0000  0.0000  0.0000  0.0000  0.0000  1.0482


 NATURAL BOND ORBITAL ANALYSIS:

 Initiate 2-center NBO search using THRESH = 1.900 and PRJTHR = 0.300

 Search of NAO DM block for core orbitals on atom:   1
      Eigenvector ( 1) has occupancy 2.00000
            1.0000 0.0000 0.0000 0.0000 0.0000
        1 eigenvector(s) stashed in permanent list

 Search of NAO DM block for core orbitals on atom:   2
      Eigenvector ( 1) has occupancy 2.00000
            1.0000 0.0000 0.0000 0.0000 0.0000 0.0000 0.0000 0.0000
            0.0000
      Eigenvector ( 2) has occupancy 2.00000
            0.0000 1.0000 0.0000 0.0000 0.0000 0.0000 0.0000 0.0000
            0.0000
      Eigenvector ( 3) has occupancy 2.00000
            0.0000 0.0000 0.0000 1.0000 0.0000 0.0000 0.0000 0.0000
            0.0000
      Eigenvector ( 4) has occupancy 2.00000
            0.0000 0.0000 0.0000 0.0000 0.0000 1.0000 0.0000 0.0000
            0.0000
      Eigenvector ( 5) has occupancy 2.00000
            0.0000 0.0000 0.0000 0.0000 0.0000 0.0000 0.0000 1.0000
            0.0000
        5 eigenvector(s) stashed in permanent list

 Core orbitals projected from the NAO density matrix
      14.000 electrons remain (>1.900); search continues

 Search of NAO DM block for the following atom(s):   1
      Select eigenvectors with eigenvalue > 1.900
       2.000 2.000 2.000 1.002 0.000
      Eigenvector ( 1) has occupancy 2.00000
            0.0000 0.1927 0.9301-0.3103-0.0381
      Eigenvector ( 2) has occupancy 2.00000
            0.0000 0.9616-0.1783 0.0860-0.1903
      Eigenvector ( 3) has occupancy 2.00000
            0.0000-0.0242 0.3210 0.9468 0.0048
      3 hybrids on atom 1 stashed in prospective list

 Search of NAO DM block for the following atom(s):   2
      Select eigenvectors with eigenvalue > 1.900
       2.000 2.000 2.000 0.998 0.000 0.000 0.000 0.000 0.000
      Eigenvector ( 1) has occupancy 2.00000
            0.0000 0.0000 0.3600 0.0000 0.7800 0.0000-0.5051 0.0000
            0.0830
      Eigenvector ( 2) has occupancy 2.00000
            0.0000 0.0000 0.9055 0.0000-0.3096 0.0000 0.2015 0.0000
            0.2087
      Eigenvector ( 3) has occupancy 2.00000
            0.0000 0.0000-0.0008 0.0000 0.5439 0.0000 0.8392 0.0000
           -0.0002
      3 hybrids on atom 2 stashed in prospective list

 Stash prospective hybrids having projection expectation value > 0.300
       1.000 1.000 1.000 1.000 1.000 1.000
      0 hybrids eliminated in 1 pass
      6 hybrids moved from prospective to permanent list

 NHOs of 1-center eigenvectors projected from the NAO density matrix
       2.000 electrons remain (>1.900); search continues

 Search of NAO DM block for the following atom(s):   1   2
      Select eigenvectors with eigenvalue > 1.900
       2.000 0.000 0.000 0.000 0.000 0.000 0.000 0.000 0.000 0.000 0.000 0.000
       0.000 0.000
      Eigenvector ( 1) has occupancy 2.00000
            0.0000 0.1374 0.0000 0.0000 0.6945 0.0000 0.0000 0.1586
            0.0000 0.0000 0.0000 0.0000 0.0000-0.6882
      1 hybrid on atom 1 stashed in prospective list
      1 hybrid on atom 2 stashed in prospective list

 Stash prospective hybrids having projection expectation value > 0.300
       1.000 1.000
      0 hybrids eliminated in 1 pass
      2 hybrids moved from prospective to permanent list

 NHOs of 2-center eigenvectors projected from the NAO density matrix
       0.000 electrons remain in the fully projected matrix

 Search of NHO DM block for the following atom(s):   1
      Select eigenvectors with eigenvalue > 1.900
       2.000 2.000 2.000 2.000 0.000
      Eigenvector ( 1) has occupancy 2.00000
            1.0000 0.0000 0.0000 0.0000 0.0000
           NBO accepted:    1. Label:CR ( 1)   1
      Eigenvector ( 2) has occupancy 2.00000
            0.0000 1.0000 0.0000 0.0000 0.0000
           NBO accepted:    2. Label:LP ( 1)   1
      Eigenvector ( 3) has occupancy 2.00000
            0.0000 0.0000 1.0000 0.0000 0.0000
           NBO accepted:    3. Label:LP ( 2)   1
      Eigenvector ( 4) has occupancy 2.00000
            0.0000 0.0000 0.0000 1.0000 0.0000
           NBO accepted:    4. Label:LP ( 3)   1
        4 eigenvector(s) stashed in permanent list

 Search of NHO DM block for the following atom(s):   2
      Select eigenvectors with eigenvalue > 1.900
       2.000 2.000 2.000 2.000 2.000 2.000 2.000 2.000 0.000
      Eigenvector ( 1) has occupancy 2.00000
            1.0000 0.0000 0.0000 0.0000 0.0000 0.0000 0.0000 0.0000
            0.0000
           NBO accepted:    5. Label:CR ( 1)   2
      Eigenvector ( 2) has occupancy 2.00000
            0.0000 1.0000 0.0000 0.0000 0.0000 0.0000 0.0000 0.0000
            0.0000
           NBO accepted:    6. Label:CR ( 2)   2
      Eigenvector ( 3) has occupancy 2.00000
            0.0000 0.0000 1.0000 0.0000 0.0000 0.0000 0.0000 0.0000
            0.0000
           NBO accepted:    7. Label:CR ( 3)   2
      Eigenvector ( 4) has occupancy 2.00000
            0.0000 0.0000 0.0000 1.0000 0.0000 0.0000 0.0000 0.0000
            0.0000
           NBO accepted:    8. Label:CR ( 4)   2
      Eigenvector ( 5) has occupancy 2.00000
            0.0000 0.0000 0.0000 0.0000 1.0000 0.0000 0.0000 0.0000
            0.0000
           NBO accepted:    9. Label:CR ( 5)   2
      Eigenvector ( 6) has occupancy 2.00000
            0.0000 0.0000 0.0000 0.0000 0.0000 1.0000 0.0000 0.0000
            0.0000
           NBO accepted:   10. Label:LP ( 1)   2
      Eigenvector ( 7) has occupancy 2.00000
            0.0000 0.0000 0.0000 0.0000 0.0000 0.0000 1.0000 0.0000
            0.0000
           NBO accepted:   11. Label:LP ( 2)   2
      Eigenvector ( 8) has occupancy 2.00000
            0.0000 0.0000 0.0000 0.0000 0.0000 0.0000 0.0000 1.0000
            0.0000
           NBO accepted:   12. Label:LP ( 3)   2
        8 eigenvector(s) stashed in permanent list

  1-center NBOs projected from the NHO density matrix
       2.000 electrons remain (>1.900); search continues

 Search of NHO DM block for the following atom(s):   1   2
      Select eigenvectors with eigenvalue > 1.900
       2.000 0.000 0.000 0.000 0.000 0.000 0.000 0.000 0.000 0.000 0.000 0.000
       0.000 0.000
      Eigenvector ( 1) has occupancy 2.00000
            0.0000 0.0000 0.0000 0.0000 0.7079 0.0000 0.0000 0.0000
            0.0000 0.0000 0.0000 0.0000 0.0000 0.7063
      Occupancy is 2.000 after deleting minor hybrid components
            0.0000 0.0000 0.0000 0.0000 0.7079 0.0000 0.0000 0.0000
            0.0000 0.0000 0.0000 0.0000 0.0000 0.7063
           NBO accepted:   13. Label:BD ( 1)   1   2
      Occupancy is 0.000 for antibonding component
            0.0000 0.0000 0.0000 0.0000-0.7063 0.0000 0.0000 0.0000
            0.0000 0.0000 0.0000 0.0000 0.0000 0.7079
           NBO accepted:   14. Label:BD*( 1)   1   2
        2 eigenvector(s) stashed in permanent list

  2-center NBOs projected from the NHO density matrix
       0.000 electrons remain in the fully projected matrix

                            Occupancies       Lewis Structure    Low   High
         Max    Occ     -------------------  -----------------   occ   occ
  Cycle  Ctr   Thresh    Lewis   non-Lewis     CR  BD  nC  LP    (L)   (NL)
 ============================================================================
    1     2     1.90    26.00000   0.00000      6   1   0   6     0      0
 ----------------------------------------------------------------------------

 Structure accepted: No low occupancy Lewis orbitals

 -------------------------------------------------------
   Core                     12.00000 (100.000% of  12)
   Valence Lewis            14.00000 (100.000% of  14)
  ==================      =============================
   Total Lewis              26.00000 (100.000% of  26)
  -----------------------------------------------------
   Valence non-Lewis         0.00000 (  0.000% of  26)
   Rydberg non-Lewis         0.00000 (  0.000% of  26)
  ==================      =============================
   Total non-Lewis           0.00000 (  0.000% of  26)
 -------------------------------------------------------


     (Occupancy)   Bond orbital / Coefficients / Hybrids
 ------------------ Lewis ------------------------------------------------------
   1. (2.00000) CR ( 1) F  1            s(100.00%)
                                         1.0000  0.0000  0.0000  0.0000  0.0000
   2. (2.00000) CR ( 1)Cl  2            s(100.00%)
                                         1.0000  0.0000  0.0000  0.0000  0.0000
                                         0.0000  0.0000  0.0000  0.0000
   3. (2.00000) CR ( 2)Cl  2            s(100.00%)
                                         0.0000  1.0000  0.0000  0.0000  0.0000
                                         0.0000  0.0000  0.0000  0.0000
   4. (2.00000) CR ( 3)Cl  2            s(  0.00%)p 1.00(100.00%)
                                         0.0000  0.0000  0.0000  1.0000  0.0000
                                         0.0000  0.0000  0.0000  0.0000
   5. (2.00000) CR ( 4)Cl  2            s(  0.00%)p 1.00(100.00%)
                                         0.0000  0.0000  0.0000  0.0000  0.0000
                                         1.0000  0.0000  0.0000  0.0000
   6. (2.00000) CR ( 5)Cl  2            s(  0.00%)p 1.00(100.00%)
                                         0.0000  0.0000  0.0000  0.0000  0.0000
                                         0.0000  0.0000  1.0000  0.0000
   7. (2.00000) LP ( 1) F  1            s(  3.71%)p25.93( 96.29%)
                                         0.0000  0.1927  0.9301 -0.3103 -0.0381
   8. (2.00000) LP ( 2) F  1            s( 92.46%)p 0.08(  7.54%)
                                         0.0000  0.9616 -0.1783  0.0860 -0.1903
   9. (2.00000) LP ( 3) F  1            s(  0.06%)p99.99( 99.94%)
                                         0.0000  0.0242 -0.3210 -0.9468 -0.0048
  10. (2.00000) LP ( 1)Cl  2            s( 12.96%)p 6.72( 87.04%)
                                         0.0000  0.0000  0.3600  0.0000  0.7800
                                         0.0000 -0.5051  0.0000  0.0830
  11. (2.00000) LP ( 2)Cl  2            s( 82.00%)p 0.22( 18.00%)
                                         0.0000  0.0000  0.9055  0.0000 -0.3096
                                         0.0000  0.2015  0.0000  0.2087
  12. (2.00000) LP ( 3)Cl  2            s(  0.00%)p 1.00(100.00%)
                                         0.0000  0.0000  0.0008  0.0000 -0.5439
                                         0.0000 -0.8392  0.0000  0.0002
  13. (2.00000) BD ( 1) F  1-Cl  2
               ( 50.12%)   0.7079* F  1 s(  3.77%)p25.54( 96.23%)
                                         0.0000  0.1941  0.0000  0.0000  0.9810
               ( 49.88%)   0.7063*Cl  2 s(  5.04%)p18.83( 94.96%)
                                         0.0000  0.0000  0.2245  0.0000  0.0000
                                         0.0000  0.0000  0.0000 -0.9745
 ---------------- non-Lewis ----------------------------------------------------
  14. (0.00000) BD*( 1) F  1-Cl  2
               ( 49.88%)   0.7063* F  1 s(  3.77%)p25.54( 96.23%)
               ( 50.12%)  -0.7079*Cl  2 s(  5.04%)p18.83( 94.96%)


 NHO DIRECTIONALITY AND BOND BENDING (deviation from line of nuclear centers at
                                      the position of maximum hybrid amplitude)

         [Thresholds for printing:  angular deviation  >  1.0 degree]
                                    p- or d-character  > 25.0%
                                    orbital occupancy  >  0.10e

                        Line of Centers        Hybrid 1             Hybrid 2
                        ---------------  -------------------  ------------------
           NBO            Theta   Phi    Theta   Phi    Dev   Theta   Phi    Dev
 ===============================================================================
   7. LP ( 1) F  1          --     --     92.0  341.6   --      --     --    --
   9. LP ( 3) F  1          --     --     90.3  251.3   --      --     --    --
  10. LP ( 1)Cl  2          --     --     85.3  327.1   --      --     --    --
  12. LP ( 3)Cl  2          --     --     90.0  237.1   --      --     --    --


 SECOND ORDER PERTURBATION THEORY ANALYSIS OF FOCK MATRIX IN NBO BASIS

     Threshold for printing:   0.50 kcal/mol
                                                          E(2) E(NL)-E(L) F(L,NL)
      Donor (L) NBO              Acceptor (NL) NBO      kcal/mol   a.u.    a.u.
 ===============================================================================

 within unit  1
       None above threshold


 NATURAL BOND ORBITALS (Summary):

                                                     Principal Delocalizations
           NBO                 Occupancy    Energy   (geminal,vicinal,remote)
 ===============================================================================
 Molecular unit  1  (FCl)
 ------ Lewis --------------------------------------
    1. CR ( 1) F  1             2.00000   -25.92018
    2. CR ( 1)Cl  2             2.00000   -10.45732
    3. CR ( 2)Cl  2             2.00000  -103.74726
    4. CR ( 3)Cl  2             2.00000    -7.88897
    5. CR ( 4)Cl  2             2.00000    -7.88897
    6. CR ( 5)Cl  2             2.00000    -7.89597
    7. LP ( 1) F  1             2.00000    -0.61415
    8. LP ( 2) F  1             2.00000    -1.53301
    9. LP ( 3) F  1             2.00000    -0.57631
   10. LP ( 1)Cl  2             2.00000    -0.51999
   11. LP ( 2)Cl  2             2.00000    -0.90288
   12. LP ( 3)Cl  2             2.00000    -0.44811
   13. BD ( 1) F  1-Cl  2       2.00000    -0.73313
 ------ non-Lewis ----------------------------------
   14. BD*( 1) F  1-Cl  2       0.00000     0.24110
          -------------------------------
                 Total Lewis   26.00000  (100.0000%)
           Valence non-Lewis    0.00000  (  0.0000%)
           Rydberg non-Lewis    0.00000  (  0.0000%)
          -------------------------------
               Total unit  1   26.00000  (100.0000%)
              Charge unit  1    0.00000

 $CHOOSE
   LONE 1 3 2 3 END
   BOND S 1 2 END
 $END

 NBO analysis completed in 0.13 CPU seconds (0 wall seconds)
 Maximum scratch memory used by NBO was 262718 words (2.00 MB)
 Maximum scratch memory used by G16NBO was 8436 words (0.06 MB)

 Opening RunExU unformatted file "/cluster/work/users/beto93/mol49/Gau-944014.EUF"
 Read unf file /cluster/work/users/beto93/mol49/Gau-944014.EUF:
 Label Gaussian matrix elements                                         IVers= 2 NLab= 2 Version=ES64L-G16RevC.01
 Title mol49-NBO                                                       
 NAtoms=     2 NBasis=    14 NBsUse=    14 ICharg=     0 Multip=     1 NE=    26 Len12L=8 Len4L=8 IOpCl= 0 ICGU=111
 GAUSSIAN SCALARS                    NI= 1 NR= 1 NTot=       1 LenBuf=    2 NRI=1 N=    1000
 NPA CHARGES                         NI= 0 NR= 1 NTot=       2 LenBuf= 4000 NRI=1 N=       2
 Recovered energy= -552.531984968     dipole=      0.000000000000     -0.000000000000     -0.214583750221
 Unable to Open any file for archive entry.
 1\1\GINC-C2-28\SP\RHF\STO-3G\Cl1F1\BETO93\18-Nov-2024\0\\#RHF/STO-3G i
 nt=nobasistransform Symmetry=None 5D 7F Pop=NBO7Read\\mol49-NBO\\0,1\F
 ,0,0.,0.,-1.084794\Cl,0,0.,0.,0.574302\\Version=ES64L-G16RevC.01\HF=-5
 52.531985\RMSD=1.466e-09\Dipole=0.,0.,-0.2145838\Quadrupole=-0.1480364
 ,-0.1480364,0.2960728,0.,0.,0.\PG=Unknown\\@
 The archive entry for this job was punched.


 EXPERIENCE IS A WONDERFUL THING.  IT ENABLES
 YOU TO RECOGNIZE A MISTAKE WHEN YOU MAKE IT AGAIN.
           - BACK OF A SUGAR PACKET
 Job cpu time:       0 days  0 hours  0 minutes 14.7 seconds.
 Elapsed time:       0 days  0 hours  0 minutes  5.2 seconds.
 File lengths (MBytes):  RWF=     10 Int=      0 D2E=      0 Chk=      1 Scr=      1
 Normal termination of Gaussian 16 at Mon Nov 18 15:41:22 2024.
