 Entering Gaussian System, Link 0=g16
 Initial command:
 /cluster/software/Gaussian/g16_C.01/l1.exe "/cluster/work/users/beto93/LiCH3/Gau-1553519.inp" -scrdir="/cluster/work/users/beto93/LiCH3/"
 Entering Link 1 = /cluster/software/Gaussian/g16_C.01/l1.exe PID=   1553522.
  
 Copyright (c) 1988-2019, Gaussian, Inc.  All Rights Reserved.
  
 This is part of the Gaussian(R) 16 program.  It is based on
 the Gaussian(R) 09 system (copyright 2009, Gaussian, Inc.),
 the Gaussian(R) 03 system (copyright 2003, Gaussian, Inc.),
 the Gaussian(R) 98 system (copyright 1998, Gaussian, Inc.),
 the Gaussian(R) 94 system (copyright 1995, Gaussian, Inc.),
 the Gaussian 92(TM) system (copyright 1992, Gaussian, Inc.),
 the Gaussian 90(TM) system (copyright 1990, Gaussian, Inc.),
 the Gaussian 88(TM) system (copyright 1988, Gaussian, Inc.),
 the Gaussian 86(TM) system (copyright 1986, Carnegie Mellon
 University), and the Gaussian 82(TM) system (copyright 1983,
 Carnegie Mellon University). Gaussian is a federally registered
 trademark of Gaussian, Inc.
  
 This software contains proprietary and confidential information,
 including trade secrets, belonging to Gaussian, Inc.
  
 This software is provided under written license and may be
 used, copied, transmitted, or stored only in accord with that
 written license.
  
 The following legend is applicable only to US Government
 contracts under FAR:
  
                    RESTRICTED RIGHTS LEGEND
  
 Use, reproduction and disclosure by the US Government is
 subject to restrictions as set forth in subparagraphs (a)
 and (c) of the Commercial Computer Software - Restricted
 Rights clause in FAR 52.227-19.
  
 Gaussian, Inc.
 340 Quinnipiac St., Bldg. 40, Wallingford CT 06492
  
  
 ---------------------------------------------------------------
 Warning -- This program may not be used in any manner that
 competes with the business of Gaussian, Inc. or will provide
 assistance to any competitor of Gaussian, Inc.  The licensee
 of this program is prohibited from giving any competitor of
 Gaussian, Inc. access to this program.  By using this program,
 the user acknowledges that Gaussian, Inc. is engaged in the
 business of creating and licensing software in the field of
 computational chemistry and represents and warrants to the
 licensee that it is not a competitor of Gaussian, Inc. and that
 it will not use this program in any manner prohibited above.
 ---------------------------------------------------------------
  

 Cite this work as:
 Gaussian 16, Revision C.01,
 M. J. Frisch, G. W. Trucks, H. B. Schlegel, G. E. Scuseria, 
 M. A. Robb, J. R. Cheeseman, G. Scalmani, V. Barone, 
 G. A. Petersson, H. Nakatsuji, X. Li, M. Caricato, A. V. Marenich, 
 J. Bloino, B. G. Janesko, R. Gomperts, B. Mennucci, H. P. Hratchian, 
 J. V. Ortiz, A. F. Izmaylov, J. L. Sonnenberg, D. Williams-Young, 
 F. Ding, F. Lipparini, F. Egidi, J. Goings, B. Peng, A. Petrone, 
 T. Henderson, D. Ranasinghe, V. G. Zakrzewski, J. Gao, N. Rega, 
 G. Zheng, W. Liang, M. Hada, M. Ehara, K. Toyota, R. Fukuda, 
 J. Hasegawa, M. Ishida, T. Nakajima, Y. Honda, O. Kitao, H. Nakai, 
 T. Vreven, K. Throssell, J. A. Montgomery, Jr., J. E. Peralta, 
 F. Ogliaro, M. J. Bearpark, J. J. Heyd, E. N. Brothers, K. N. Kudin, 
 V. N. Staroverov, T. A. Keith, R. Kobayashi, J. Normand, 
 K. Raghavachari, A. P. Rendell, J. C. Burant, S. S. Iyengar, 
 J. Tomasi, M. Cossi, J. M. Millam, M. Klene, C. Adamo, R. Cammi, 
 J. W. Ochterski, R. L. Martin, K. Morokuma, O. Farkas, 
 J. B. Foresman, and D. J. Fox, Gaussian, Inc., Wallingford CT, 2019.
 
 ******************************************
 Gaussian 16:  ES64L-G16RevC.01  3-Jul-2019
                24-Jul-2024 
 ******************************************
 %LindaWorkers=c1-1-ib
 %NProcShared=4
 Will use up to    4 processors via shared memory.
 %mem=25GB
 %chk=LiCH3.chk
 SetLPE:    new flags="-opt 'Tsnet.Node.lindarsharg: ssh'  -nodelist 'c1-1-ib.saga' -env GAUSS_MDEF=3355443200 -env GAUSS_EXEDIR="/cluster/software/Gaussian/g16_C.01/bsd:/cluster/software/Gaussian/g16_C.01""
 Will use up to    1 processors via Linda.
 ----------------------------------------------------
 #OPT=VeryTight INT=UltraFine RHF/STO-3G Pop=NBO7Read
 ----------------------------------------------------
 1/7=1,18=20,19=15,38=1,163=2/1,3;
 2/9=110,12=2,17=6,18=5,40=1/2;
 3/6=3,11=1,25=1,30=1,71=1,75=-5,116=1/1,2,3;
 4//1;
 5/5=2,38=5/2;
 6/7=2,8=2,9=2,10=2,28=1,40=2,113=1,114=1,124=2103/1,12;
 7//1,2,3,16;
 1/7=1,18=20,19=15/3(2);
 2/9=110/2;
 99//99;
 2/9=110/2;
 3/6=3,11=1,25=1,30=1,71=1,75=-5,116=1/1,2,3;
 4/5=5,16=3,69=1/1;
 5/5=2,38=5/2;
 7//1,2,3,16;
 1/7=1,18=20,19=15/3(-5);
 2/9=110/2;
 6/7=2,8=2,9=2,10=2,19=2,28=1,40=2,113=1,114=1,124=2103/1,12;
 99/9=1/99;
 ---------
 NBO-LiCH3
 ---------
 Symbolic Z-matrix:
 Charge =  0 Multiplicity = 1
 C                     0.        0.        0. 
 Li                    0.        0.        2.009 
 H                     0.99984   0.       -0.41619 
 H                    -0.49992   0.86589  -0.41619 
 H                    -0.49992  -0.86589  -0.41619 
 

 GradGradGradGradGradGradGradGradGradGradGradGradGradGradGradGradGradGrad
 Berny optimization.
 Initialization pass.
                           ----------------------------
                           !    Initial Parameters    !
                           ! (Angstroms and Degrees)  !
 --------------------------                            --------------------------
 ! Name  Definition              Value          Derivative Info.                !
 --------------------------------------------------------------------------------
 ! R1    R(1,2)                  2.009          estimate D2E/DX2                !
 ! R2    R(1,3)                  1.083          estimate D2E/DX2                !
 ! R3    R(1,4)                  1.083          estimate D2E/DX2                !
 ! R4    R(1,5)                  1.083          estimate D2E/DX2                !
 ! A1    A(2,1,3)              112.6            estimate D2E/DX2                !
 ! A2    A(2,1,4)              112.6            estimate D2E/DX2                !
 ! A3    A(2,1,5)              112.6            estimate D2E/DX2                !
 ! A4    A(3,1,4)              106.1692         estimate D2E/DX2                !
 ! A5    A(3,1,5)              106.1692         estimate D2E/DX2                !
 ! A6    A(4,1,5)              106.1694         estimate D2E/DX2                !
 ! D1    D(2,1,4,3)            123.6484         estimate D2E/DX2                !
 ! D2    D(2,1,5,3)           -123.6484         estimate D2E/DX2                !
 ! D3    D(2,1,5,4)            123.6486         estimate D2E/DX2                !
 ! D4    D(3,1,5,4)           -112.703          estimate D2E/DX2                !
 --------------------------------------------------------------------------------
 Trust Radius=3.00D-01 FncErr=1.00D-07 GrdErr=1.00D-07 EigMax=2.50D+02 EigMin=1.00D-04
 Number of steps in this run=     24 maximum allowed number of steps=    100.
 GradGradGradGradGradGradGradGradGradGradGradGradGradGradGradGradGradGrad

                          Input orientation:                          
 ---------------------------------------------------------------------
 Center     Atomic      Atomic             Coordinates (Angstroms)
 Number     Number       Type             X           Y           Z
 ---------------------------------------------------------------------
      1          6           0        0.000000    0.000000    0.000000
      2          3           0        0.000000    0.000000    2.009000
      3          1           0        0.999837    0.000000   -0.416192
      4          1           0       -0.499917    0.865885   -0.416192
      5          1           0       -0.499917   -0.865885   -0.416192
 ---------------------------------------------------------------------
                    Distance matrix (angstroms):
                    1          2          3          4          5
     1  C    0.000000
     2  Li   2.009000   0.000000
     3  H    1.083000   2.623210   0.000000
     4  H    1.083000   2.623210   1.731768   0.000000
     5  H    1.083000   2.623210   1.731768   1.731770   0.000000
 This structure is nearly, but not quite of a higher symmetry.
 Consider Symm=Loose if the higher symmetry is desired.
 Stoichiometry    CH3Li
 Framework group  CS[SG(CHLi),X(H2)]
 Deg. of freedom     6
 Full point group                 CS      NOp   2
 Largest Abelian subgroup         CS      NOp   2
 Largest concise Abelian subgroup CS      NOp   2
                         Standard orientation:                         
 ---------------------------------------------------------------------
 Center     Atomic      Atomic             Coordinates (Angstroms)
 Number     Number       Type             X           Y           Z
 ---------------------------------------------------------------------
      1          6           0       -0.000000    0.398202   -0.000000
      2          3           0       -0.000000   -1.610798    0.000000
      3          1           0        0.999837    0.814394    0.000000
      4          1           0       -0.499917    0.814394    0.865885
      5          1           0       -0.499917    0.814394   -0.865885
 ---------------------------------------------------------------------
 Rotational constants (GHZ):         167.2062271          22.0927132          22.0927078
 Standard basis: STO-3G (5D, 7F)
 There are    10 symmetry adapted cartesian basis functions of A'  symmetry.
 There are     3 symmetry adapted cartesian basis functions of A"  symmetry.
 There are    10 symmetry adapted basis functions of A'  symmetry.
 There are     3 symmetry adapted basis functions of A"  symmetry.
    13 basis functions,    39 primitive gaussians,    13 cartesian basis functions
     6 alpha electrons        6 beta electrons
       nuclear repulsion energy        16.2687170475 Hartrees.
 NAtoms=    5 NActive=    5 NUniq=    4 SFac= 1.56D+00 NAtFMM=   60 NAOKFM=F Big=F
 Integral buffers will be    131072 words long.
 Raffenetti 1 integral format.
 Two-electron integral symmetry is turned on.
 One-electron integrals computed using PRISM.
 NBasis=    13 RedAO= T EigKep=  2.35D-01  NBF=    10     3
 NBsUse=    13 1.00D-06 EigRej= -1.00D+00 NBFU=    10     3
 ExpMin= 4.81D-02 ExpMax= 7.16D+01 ExpMxC= 7.16D+01 IAcc=3 IRadAn=         5 AccDes= 0.00D+00
 Harris functional with IExCor=  205 and IRadAn=       5 diagonalized for initial guess.
 HarFok:  IExCor=  205 AccDes= 0.00D+00 IRadAn=         5 IDoV= 1 UseB2=F ITyADJ=14
 ICtDFT=  3500011 ScaDFX=  1.000000  1.000000  1.000000  1.000000
 FoFCou: FMM=F IPFlag=           0 FMFlag=      100000 FMFlg1=           0
         NFxFlg=           0 DoJE=T BraDBF=F KetDBF=T FulRan=T
         wScrn=  0.000000 ICntrl=       500 IOpCl=  0 I1Cent=   200000004 NGrid=           0
         NMat0=    1 NMatS0=      1 NMatT0=    0 NMatD0=    1 NMtDS0=    0 NMtDT0=    0
 Petite list used in FoFCou.
 Initial guess orbital symmetries:
       Occupied  (A') (A') (A') (A") (A') (A')
       Virtual   (A') (A") (A') (A') (A') (A") (A')
 The electronic state of the initial guess is 1-A'.
 Keep R1 ints in memory in symmetry-blocked form, NReq=809723.
 Requested convergence on RMS density matrix=1.00D-08 within 128 cycles.
 Requested convergence on MAX density matrix=1.00D-06.
 Requested convergence on             energy=1.00D-06.
 No special actions if energy rises.
 SCF Done:  E(RHF) =  -46.4215876247     A.U. after   10 cycles
            NFock= 10  Conv=0.51D-08     -V/T= 2.0017

 **********************************************************************

            Population analysis using the SCF Density.

 **********************************************************************

 Orbital symmetries:
       Occupied  (A') (A') (A') (A") (A') (A')
       Virtual   (A') (A") (A') (A') (A') (A") (A')
 The electronic state is 1-A'.
 Alpha  occ. eigenvalues --  -10.91973  -2.33280  -0.79993  -0.43285  -0.43285
 Alpha  occ. eigenvalues --   -0.23957
 Alpha virt. eigenvalues --    0.08534   0.18412   0.18412   0.44856   0.80013
 Alpha virt. eigenvalues --    0.80013   0.88242
          Condensed to atoms (all electrons):
               1          2          3          4          5
     1  C    4.769663   0.314211   0.385815   0.385815   0.385815
     2  Li   0.314211   2.636806  -0.036299  -0.036299  -0.036299
     3  H    0.385815  -0.036299   0.667739  -0.022534  -0.022534
     4  H    0.385815  -0.036299  -0.022534   0.667739  -0.022534
     5  H    0.385815  -0.036299  -0.022534  -0.022534   0.667739
 Mulliken charges:
               1
     1  C   -0.241318
     2  Li   0.157880
     3  H    0.027813
     4  H    0.027813
     5  H    0.027813
 Sum of Mulliken charges =  -0.00000
 Mulliken charges with hydrogens summed into heavy atoms:
               1
     1  C   -0.157880
     2  Li   0.157880
 Electronic spatial extent (au):  <R**2>=             65.6707
 Charge=             -0.0000 electrons
 Dipole moment (field-independent basis, Debye):
    X=              0.0000    Y=             -4.2665    Z=             -0.0000  Tot=              4.2665
 Quadrupole moment (field-independent basis, Debye-Ang):
   XX=            -11.2410   YY=              0.0725   ZZ=            -11.2410
   XY=              0.0000   XZ=             -0.0000   YZ=             -0.0000
 Traceless Quadrupole moment (field-independent basis, Debye-Ang):
   XX=             -3.7712   YY=              7.5424   ZZ=             -3.7712
   XY=              0.0000   XZ=             -0.0000   YZ=             -0.0000
 Octapole moment (field-independent basis, Debye-Ang**2):
  XXX=              0.2891  YYY=            -23.1251  ZZZ=              0.0000  XYY=             -0.0000
  XXY=              0.1371  XXZ=              0.0000  XZZ=             -0.2891  YZZ=              0.1371
  YYZ=             -0.0000  XYZ=              0.0000
 Hexadecapole moment (field-independent basis, Debye-Ang**3):
 XXXX=            -23.8113 YYYY=             -7.0716 ZZZZ=            -23.8113 XXXY=              0.3385
 XXXZ=              0.0000 YYYX=              0.0000 YYYZ=             -0.0000 ZZZX=              0.0000
 ZZZY=              0.0000 XXYY=            -11.2553 XXZZ=             -7.9371 YYZZ=            -11.2553
 XXYZ=              0.0000 YYXZ=             -0.0000 ZZXY=             -0.3385
 N-N= 1.626871704753D+01 E-N=-1.414084681941D+02  KE= 4.634333005265D+01
 Symmetry A'   KE= 4.446341262330D+01
 Symmetry A"   KE= 1.879917429349D+00
 Running external command "gaunbo7 R"
         input file       "/cluster/work/users/beto93/LiCH3/Gau-1553522.EIn"
         output file      "/cluster/work/users/beto93/LiCH3/Gau-1553522.EOu"
         message file     "/cluster/work/users/beto93/LiCH3/Gau-1553522.EMs"
         fchk file        "/cluster/work/users/beto93/LiCH3/Gau-1553522.EFC"
         mat. el file     "/cluster/work/users/beto93/LiCH3/Gau-1553522.EUF"

 Writing WrtUnf unformatted file "/cluster/work/users/beto93/LiCH3/Gau-1553522.EUF"
 Gaussian matrix elements                                         Version   2 NLab=11 Len12L=8 Len4L=8
 Write SHELL TO ATOM MAP                   from file      0 offset           0 length                   7 to matrix element file.
 Write SHELL TYPES                         from file      0 offset           0 length                   7 to matrix element file.
 Write NUMBER OF PRIMITIVES PER SHELL      from file      0 offset           0 length                   7 to matrix element file.
 Write PRIMITIVE EXPONENTS                 from file      0 offset           0 length                  21 to matrix element file.
 Write CONTRACTION COEFFICIENTS            from file      0 offset           0 length                  21 to matrix element file.
 Write P(S=P) CONTRACTION COEFFICIENTS     from file      0 offset           0 length                  21 to matrix element file.
 Write COORDINATES OF EACH SHELL           from file      0 offset           0 length                  21 to matrix element file.
 Write BONDS PER ATOM                      from file      0 offset           0 length                   5 to matrix element file.
 Write BONDED ATOMS                        from file      0 offset           0 length                   8 to matrix element file.
 Write BOND TYPES                          from file      0 offset           0 length                   8 to matrix element file.
 Write ONIOM CHARGE/MULT                   from file      0 offset           0 length                  32 to matrix element file.
 Write ONIOM ATOM LAYERS                   from file      0 offset           0 length                   5 to matrix element file.
 Write ONIOM ATOM MODIFIERS                from file      0 offset           0 length                   5 to matrix element file.
 Write ONIOM ATOM TYPES                    from file      0 offset           0 length                   5 to matrix element file.
 Write ONIOM LINK ATOMS                    from file      0 offset           0 length                   5 to matrix element file.
 Write ONIOM LINK CHARGES                  from file      0 offset           0 length                   5 to matrix element file.
 Write ONIOM LINK DISTANCES                from file      0 offset           0 length                  20 to matrix element file.
 Write SYMINF INTS                         from file      0 offset           0 length                  26 to matrix element file.
 Write ROTTR TO SO                         from file      0 offset           0 length                  12 to matrix element file.
 Write GAUSSIAN SCALARS                    from file    501 offset           0 to matrix element file.
 Write OPTIMIZATION FLAGS                  from file      0 offset           0 length                   5 to matrix element file.
 Write INTEGER ISO                         from file      0 offset           0 length                   5 to matrix element file.
 Write INTEGER SPIN                        from file      0 offset           0 length                   5 to matrix element file.
 Write REAL ZEFFECTIVE                     from file      0 offset           0 length                   5 to matrix element file.
 Write REAL QUADRUPOLEMOMENT               from file      0 offset           0 length                   5 to matrix element file.
 Write REAL GFACTOR                        from file      0 offset           0 length                   5 to matrix element file.
 Write REAL ZNUCLEAR                       from file      0 offset           0 length                   5 to matrix element file.
 Write MULLIKEN CHARGES                    from file      0 offset           0 length                   5 to matrix element file.
 Write NUCLEAR GRADIENT                    from file  10584 offset           0 length                  15 to matrix element file.
 Array NUCLEAR FORCE CONSTANTS              on  file  10585 does not exist.
 Write ELECTRIC DIPOLE MOMENT              from file      0 offset           0 length                   3 to matrix element file.
 Write NON-ADIABATIC COUPLING              from file  10810 offset           0 length                  15 to matrix element file.
 Write RED INT COORD DIMS                  from file      0 offset           0 length                   4 to matrix element file.
 Write RED INT COORD ATOMS                 from file      0 offset           0 length                  56 to matrix element file.
 Write RED INT COORD VALS                  from file      0 offset           0 length                  14 to matrix element file.
 Write RED INT COORD IFLAGS                from file      0 offset           0 length                  14 to matrix element file.
 Write RED INT COORD RFLAGS                from file      0 offset           0 length                  14 to matrix element file.
 Write RED INT COORD CONSTRAINT            from file      0 offset           0 length                  28 to matrix element file.
 Write FINITE EM FIELD                     from file  10521 offset           0 length                  35 to matrix element file.
 Write OVERLAP                             from file  10514 offset           0 length                  91 to matrix element file.
 Write CORE HAMILTONIAN ALPHA              from file  10515 offset           0 length                  91 to matrix element file.
 Write CORE HAMILTONIAN BETA               from file  10515 offset          91 length                  91 to matrix element file.
 Write KINETIC ENERGY                      from file  10516 offset           0 length                  91 to matrix element file.
 Write ORTHOGONAL BASIS                    from file  10685 offset           0 length                 169 to matrix element file.
 Write DIPOLE INTEGRALS                    from file  10518 offset           0 length                 273 to matrix element file.
 Array DIP VEL INTEGRALS                    on  file  10572 does not exist.
 Array R X DEL INTEGRALS                    on  file  10572 does not exist.
 Write ALPHA ORBITAL ENERGIES              from file      0 offset           0 length                  13 to matrix element file.
 Write ALPHA MO COEFFICIENTS               from file  10524 offset           0 length                 169 to matrix element file.
 Write ALPHA DENSITY MATRIX                from file      0 offset           0 length                  91 to matrix element file.
 Write ALPHA FOCK MATRIX                   from file  10536 offset           0 length                  91 to matrix element file.
 Write ENERGY-WEIGHTED DENSITY             from file  10571 offset           0 length                  91 to matrix element file.
 Write ALPHA SCF DENSITY MATRIX            from file      0 offset           0 length                  91 to matrix element file.
 No 2e integrals to process.
 Perform NBO analysis...executing G16NBO...

 *********************************** NBO 7.0 ***********************************
             N A T U R A L   A T O M I C   O R B I T A L   A N D
          N A T U R A L   B O N D   O R B I T A L   A N A L Y S I S
 **************************** Espen Tangen (S101595) ***************************
  (c) Copyright 1996-2021 Board of Regents of the University of Wisconsin System
      on behalf of the Theoretical Chemistry Institute.  All rights reserved.

          Cite this program [NBO 7.0.10 (8-Feb-2021)] as:

          NBO 7.0.  E. D. Glendening, J. K. Badenhoop, A. E. Reed,
          J. E. Carpenter, J. A. Bohmann, C. M. Morales, P. Karafiloglou,
          C. R. Landis, and F. Weinhold, Theoretical Chemistry Institute,
          University of Wisconsin, Madison, WI (2018)

       /NPA    / : Natural Population Analysis
       /AOPNAO / : Print the AO to PNAO transformation
       /AONAO  / : Print the AO to NAO transformation
       /AONO   / : Print the NOs in the AO basis
       /AOMO   / : Print the MOs in the AO basis
       /BOAO   / : Print the AO bond-order matrix
       /DMAO   / : Print the AO density matrix
       /DMPNAO / : Print the PNAO density matrix
       /DMNAO  / : Print the NAO density matrix
       /DMMO   / : Print the MO density matrix
       /SAO    / : Print the AO overlap matrix
       /SPNAO  / : Print the PNAO overlap matrix
       /DETAIL / : Write details of NBO search
       /ARCHIVE/ : Write the archive file to lfn47
       /AOINFO / : Write AO information to lfn31
       /FILE   / : Set to LiCH3

 Filename set to LiCH3

 Job title: NBO-LiCH3


 MOs in the AO basis:

           AO          1       2       3       4       5       6       7       8
      ------------ ------- ------- ------- ------- ------- ------- ------- -------
   1.  C 1 (s)      0.9921 -0.0015 -0.2151  0.0000  0.0000  0.0472  0.0278  0.0000
   2.  C 1 (s)      0.0371  0.0033  0.6127  0.0000  0.0000 -0.1545 -0.0911  0.0000
   3.  C 1 (px)     0.0000  0.0000  0.0000  0.0000  0.5395  0.0000  0.0000  0.0000
   4.  C 1 (py)     0.0023 -0.0044  0.1059  0.0000  0.0000  0.6395  0.1791  0.0000
   5.  C 1 (pz)     0.0000  0.0000  0.0000  0.5395  0.0000  0.0000  0.0000 -0.0936
   6. Li 2 (s)      0.0001  0.9909 -0.0302  0.0000  0.0000  0.1705 -0.2057  0.0000
   7. Li 2 (s)     -0.0038  0.0340  0.0323  0.0000  0.0000 -0.4828  0.7895  0.0000
   8. Li 2 (px)     0.0000  0.0000  0.0000  0.0000  0.0622  0.0000  0.0000  0.0000
   9. Li 2 (py)    -0.0048 -0.0050  0.0236  0.0000  0.0000 -0.2945 -0.6066  0.0000
  10. Li 2 (pz)     0.0000  0.0000  0.0000  0.0622  0.0000  0.0000  0.0000  1.0115
  11.  H 3 (s)     -0.0063 -0.0020  0.2168  0.0000  0.5136  0.1518  0.0326  0.0000
  12.  H 4 (s)     -0.0063 -0.0020  0.2168  0.4448 -0.2568  0.1518  0.0326 -0.1329
  13.  H 5 (s)     -0.0063 -0.0020  0.2168 -0.4448 -0.2568  0.1518  0.0326  0.1329

           AO          9      10      11      12      13
      ------------ ------- ------- ------- ------- -------
   1.  C 1 (s)      0.0000 -0.1648  0.0000  0.0000 -0.1797
   2.  C 1 (s)      0.0000  1.0182  0.0000  0.0000  1.1617
   3.  C 1 (px)    -0.0936  0.0000  1.1159  0.0000  0.0000
   4.  C 1 (py)     0.0000 -0.5704  0.0000  0.0000  0.8023
   5.  C 1 (pz)     0.0000  0.0000  0.0000  1.1159  0.0000
   6. Li 2 (s)      0.0000  0.1072  0.0000  0.0000 -0.0402
   7. Li 2 (s)      0.0000 -0.6535  0.0000  0.0000  0.2454
   8. Li 2 (px)     1.0115  0.0000 -0.0692  0.0000  0.0000
   9. Li 2 (py)     0.0000 -0.9755  0.0000  0.0000  0.3000
  10. Li 2 (pz)     0.0000  0.0000  0.0000 -0.0692  0.0000
  11.  H 3 (s)     -0.1535 -0.0959 -0.9798  0.0000 -0.7724
  12.  H 4 (s)      0.0767 -0.0959  0.4899 -0.8486 -0.7724
  13.  H 5 (s)      0.0767 -0.0959  0.4899  0.8486 -0.7724


 NOs in the AO basis:

           AO          1       2       3       4       5       6       7       8
      ------------ ------- ------- ------- ------- ------- ------- ------- -------
   1.  C 1 (s)      0.8784 -0.1783  0.2765  0.3055 -0.2396  0.0461  0.0199  0.0009
   2.  C 1 (s)      0.1123 -0.0099  0.0451 -0.6099  0.1175 -0.0161 -0.1911 -0.0067
   3.  C 1 (px)    -0.1911 -0.1644  0.4729 -0.0044 -0.0276  0.0553 -0.1766  0.0029
   4.  C 1 (py)    -0.0829  0.2057 -0.0121 -0.0809 -0.5899  0.1278 -0.0622 -0.0534
   5.  C 1 (pz)    -0.0155  0.0020  0.0493 -0.0068 -0.1110 -0.5253  0.1503 -0.1358
   6. Li 2 (s)     -0.1333 -0.8241 -0.3712 -0.0517 -0.4143  0.0541  0.1470  0.0030
   7. Li 2 (s)      0.0677 -0.1735  0.0028 -0.0531  0.4348 -0.0936 -0.5177 -0.0250
   8. Li 2 (px)    -0.0220 -0.0190  0.0545 -0.0005 -0.0032  0.0064 -0.4478 -0.3793
   9. Li 2 (py)     0.0421 -0.0824  0.0107 -0.0341  0.2724 -0.0577  0.6860 -0.0614
  10. Li 2 (pz)    -0.0018  0.0002  0.0057 -0.0008 -0.0128 -0.0606 -0.1764  0.9365
  11.  H 3 (s)     -0.1904 -0.0911  0.4553 -0.2139 -0.1697  0.0866  0.2905  0.1143
  12.  H 4 (s)      0.0699  0.1453 -0.1794 -0.2132 -0.2218 -0.4255 -0.1837 -0.1003
  13.  H 5 (s)      0.0954  0.1420 -0.2607 -0.2021 -0.0388  0.4408 -0.0230  0.0698

           AO          9      10      11      12      13
      ------------ ------- ------- ------- ------- -------
   1.  C 1 (s)     -0.0170 -0.0778 -0.0079 -0.0446  0.2268
   2.  C 1 (s)      0.1406  0.4369  0.0570  0.2789 -1.4375
   3.  C 1 (px)     0.1073  0.2241  0.1948  1.0144  0.3066
   4.  C 1 (py)    -0.0236 -0.8406 -0.0760  0.3200 -0.4232
   5.  C 1 (pz)     0.6229  0.0755 -0.8981  0.1018  0.0486
   6. Li 2 (s)     -0.0711  0.1660 -0.0119  0.0082 -0.0314
   7. Li 2 (s)      0.2297 -0.8754  0.0144  0.0320  0.1467
   8. Li 2 (px)    -0.6598  0.0886 -0.4798 -0.0995 -0.0147
   9. Li 2 (py)    -0.4399 -0.7580 -0.2005  0.3407  0.1039
  10. Li 2 (pz)    -0.2934 -0.0028 -0.1799  0.0361 -0.0106
  11.  H 3 (s)      0.0566 -0.0143 -0.0364 -1.1403  0.4336
  12.  H 4 (s)     -0.4536  0.2591  0.7866  0.0969  0.8035
  13.  H 5 (s)      0.3903  0.3747 -0.6749  0.2689  0.8744


 AO overlap matrix:

           AO          1       2       3       4       5       6       7       8
      ------------ ------- ------- ------- ------- ------- ------- ------- -------
   1.  C 1 (s)      1.0000  0.2484  0.0000  0.0000  0.0000  0.0000  0.0343  0.0000
   2.  C 1 (s)      0.2484  1.0000  0.0000  0.0000  0.0000  0.0276  0.3188  0.0000
   3.  C 1 (px)     0.0000  0.0000  1.0000  0.0000  0.0000  0.0000  0.0000  0.1690
   4.  C 1 (py)     0.0000  0.0000  0.0000  1.0000  0.0000 -0.0489 -0.1833  0.0000
   5.  C 1 (pz)     0.0000  0.0000  0.0000  0.0000  1.0000  0.0000  0.0000  0.0000
   6. Li 2 (s)      0.0000  0.0276  0.0000 -0.0489  0.0000  1.0000  0.2411  0.0000
   7. Li 2 (s)      0.0343  0.3188  0.0000 -0.1833  0.0000  0.2411  1.0000  0.0000
   8. Li 2 (px)     0.0000  0.0000  0.1690  0.0000  0.0000  0.0000  0.0000  1.0000
   9. Li 2 (py)     0.0600  0.4597  0.0000 -0.2200  0.0000  0.0000  0.0000  0.0000
  10. Li 2 (pz)     0.0000  0.0000  0.0000  0.0000  0.1690  0.0000  0.0000  0.0000
  11.  H 3 (s)      0.0633  0.4948  0.4336  0.1805  0.0000  0.0059  0.1767  0.1021
  12.  H 4 (s)      0.0633  0.4948 -0.2168  0.1805  0.3755  0.0059  0.1767 -0.0511
  13.  H 5 (s)      0.0633  0.4948 -0.2168  0.1805 -0.3755  0.0059  0.1767 -0.0511

           AO          9      10      11      12      13
      ------------ ------- ------- ------- ------- -------
   1.  C 1 (s)      0.0600  0.0000  0.0633  0.0633  0.0633
   2.  C 1 (s)      0.4597  0.0000  0.4948  0.4948  0.4948
   3.  C 1 (px)     0.0000  0.0000  0.4336 -0.2168 -0.2168
   4.  C 1 (py)    -0.2200  0.0000  0.1805  0.1805  0.1805
   5.  C 1 (pz)     0.0000  0.1690  0.0000  0.3755 -0.3755
   6. Li 2 (s)      0.0000  0.0000  0.0059  0.0059  0.0059
   7. Li 2 (s)      0.0000  0.0000  0.1767  0.1767  0.1767
   8. Li 2 (px)     0.0000  0.0000  0.1021 -0.0511 -0.0511
   9. Li 2 (py)     1.0000  0.0000  0.2477  0.2477  0.2477
  10. Li 2 (pz)     0.0000  1.0000  0.0000  0.0884 -0.0884
  11.  H 3 (s)      0.2477  0.0000  1.0000  0.1823  0.1823
  12.  H 4 (s)      0.2477  0.0884  0.1823  1.0000  0.1823
  13.  H 5 (s)      0.2477 -0.0884  0.1823  0.1823  1.0000


 AO bond-order matrix:

           AO          1       2       3       4       5       6       7       8
      ------------ ------- ------- ------- ------- ------- ------- ------- -------
   1.  C 1 (s)      2.0654 -0.2046  0.0000  0.0195  0.0000  0.0264 -0.0670  0.0000
   2.  C 1 (s)     -0.2046  0.8015  0.0000 -0.0677  0.0000 -0.0831  0.1888  0.0000
   3.  C 1 (px)     0.0000  0.0000  0.5820  0.0000  0.0000  0.0000  0.0000  0.0671
   4.  C 1 (py)     0.0195 -0.0677  0.0000  0.8403  0.0000  0.2029 -0.6109  0.0000
   5.  C 1 (pz)     0.0000  0.0000  0.0000  0.0000  0.5820  0.0000  0.0000  0.0000
   6. Li 2 (s)      0.0264 -0.0831  0.0000  0.2029  0.0000  2.0238 -0.0991  0.0000
   7. Li 2 (s)     -0.0670  0.1888  0.0000 -0.6109  0.0000 -0.0991  0.4706  0.0000
   8. Li 2 (px)     0.0000  0.0000  0.0671  0.0000  0.0000  0.0000  0.0000  0.0077
   9. Li 2 (py)    -0.0474  0.1195  0.0000 -0.3717  0.0000 -0.1117  0.2856  0.0000
  10. Li 2 (pz)     0.0000  0.0000  0.0000  0.0000  0.0671  0.0000  0.0000  0.0000
  11.  H 3 (s)     -0.0915  0.2183  0.5541  0.2400  0.0000  0.0348 -0.1326  0.0639
  12.  H 4 (s)     -0.0915  0.2183 -0.2771  0.2400  0.4799  0.0348 -0.1326 -0.0320
  13.  H 5 (s)     -0.0915  0.2183 -0.2771  0.2400 -0.4799  0.0348 -0.1326 -0.0320

           AO          9      10      11      12      13
      ------------ ------- ------- ------- ------- -------
   1.  C 1 (s)     -0.0474  0.0000 -0.0915 -0.0915 -0.0915
   2.  C 1 (s)      0.1195  0.0000  0.2183  0.2183  0.2183
   3.  C 1 (px)     0.0000  0.0000  0.5541 -0.2771 -0.2771
   4.  C 1 (py)    -0.3717  0.0000  0.2400  0.2400  0.2400
   5.  C 1 (pz)     0.0000  0.0671  0.0000  0.4799 -0.4799
   6. Li 2 (s)     -0.1117  0.0000  0.0348  0.0348  0.0348
   7. Li 2 (s)      0.2856  0.0000 -0.1326 -0.1326 -0.1326
   8. Li 2 (px)     0.0000  0.0000  0.0639 -0.0320 -0.0320
   9. Li 2 (py)     0.1747  0.0000 -0.0791 -0.0791 -0.0791
  10. Li 2 (pz)     0.0000  0.0077  0.0000  0.0553 -0.0553
  11.  H 3 (s)     -0.0791  0.0000  0.6677 -0.1236 -0.1236
  12.  H 4 (s)     -0.0791  0.0553 -0.1236  0.6677 -0.1236
  13.  H 5 (s)     -0.0791 -0.0553 -0.1236 -0.1236  0.6677


 AO density matrix:

           AO          1       2       3       4       5       6       7       8
      ------------ ------- ------- ------- ------- ------- ------- ------- -------
   1.  C 1 (s)      1.9995  0.5053  0.0000 -0.0010  0.0000  0.0002  0.0611  0.0000
   2.  C 1 (s)      0.5053  1.8561  0.0000  0.0309  0.0000  0.0508  0.8094  0.0000
   3.  C 1 (px)     0.0000  0.0000  1.5630  0.0000  0.0000  0.0000  0.0000  0.4103
   4.  C 1 (py)    -0.0010  0.0309  0.0000  1.6002  0.0000 -0.0844 -0.8123  0.0000
   5.  C 1 (pz)     0.0000  0.0000  0.0000  0.0000  1.5630  0.0000  0.0000  0.0000
   6. Li 2 (s)      0.0002  0.0508  0.0000 -0.0844  0.0000  1.9986  0.5207  0.0000
   7. Li 2 (s)      0.0611  0.8094  0.0000 -0.8123  0.0000  0.5207  0.8968  0.0000
   8. Li 2 (px)     0.0000  0.0000  0.4103  0.0000  0.0000  0.0000  0.0000  0.1077
   9. Li 2 (py)     0.1141  0.9693  0.0000 -0.4927  0.0000 -0.0305  0.6794  0.0000
  10. Li 2 (pz)     0.0000  0.0000  0.0000  0.0000  0.4103  0.0000  0.0000  0.0000
  11.  H 3 (s)      0.1191  1.1124  1.1674  0.4213  0.0000  0.0128  0.2937  0.3064
  12.  H 4 (s)      0.1191  1.1124 -0.5837  0.4213  1.0110  0.0128  0.2937 -0.1532
  13.  H 5 (s)      0.1191  1.1124 -0.5837  0.4213 -1.0110  0.0128  0.2937 -0.1532

           AO          9      10      11      12      13
      ------------ ------- ------- ------- ------- -------
   1.  C 1 (s)      0.1141  0.0000  0.1191  0.1191  0.1191
   2.  C 1 (s)      0.9693  0.0000  1.1124  1.1124  1.1124
   3.  C 1 (px)     0.0000  0.0000  1.1674 -0.5837 -0.5837
   4.  C 1 (py)    -0.4927  0.0000  0.4213  0.4213  0.4213
   5.  C 1 (pz)     0.0000  0.4103  0.0000  1.0110 -1.0110
   6. Li 2 (s)     -0.0305  0.0000  0.0128  0.0128  0.0128
   7. Li 2 (s)      0.6794  0.0000  0.2937  0.2937  0.2937
   8. Li 2 (px)     0.0000  0.0000  0.3064 -0.1532 -0.1532
   9. Li 2 (py)     0.6842  0.0000  0.4675  0.4675  0.4675
  10. Li 2 (pz)     0.0000  0.1077  0.0000  0.2654 -0.2654
  11.  H 3 (s)      0.4675  0.0000  1.6576  0.3498  0.3498
  12.  H 4 (s)      0.4675  0.2654  0.3498  1.6576  0.3498
  13.  H 5 (s)      0.4675 -0.2654  0.3498  0.3498  1.6576


 MO density matrix:

      MO     1       2       3       4       5       6       7       8       9
     ---- ------  ------  ------  ------  ------  ------  ------  ------  ------
   1.     2.0000  0.0000  0.0000  0.0000  0.0000  0.0000  0.0000  0.0000  0.0000
   2.     0.0000  2.0000  0.0000  0.0000  0.0000  0.0000  0.0000  0.0000  0.0000
   3.     0.0000  0.0000  2.0000  0.0000  0.0000  0.0000  0.0000  0.0000  0.0000
   4.     0.0000  0.0000  0.0000  2.0000  0.0000  0.0000  0.0000  0.0000  0.0000
   5.     0.0000  0.0000  0.0000  0.0000  2.0000  0.0000  0.0000  0.0000  0.0000
   6.     0.0000  0.0000  0.0000  0.0000  0.0000  2.0000  0.0000  0.0000  0.0000
   7.     0.0000  0.0000  0.0000  0.0000  0.0000  0.0000  0.0000  0.0000  0.0000
   8.     0.0000  0.0000  0.0000  0.0000  0.0000  0.0000  0.0000  0.0000  0.0000
   9.     0.0000  0.0000  0.0000  0.0000  0.0000  0.0000  0.0000  0.0000  0.0000
  10.     0.0000  0.0000  0.0000  0.0000  0.0000  0.0000  0.0000  0.0000  0.0000
  11.     0.0000  0.0000  0.0000  0.0000  0.0000  0.0000  0.0000  0.0000  0.0000
  12.     0.0000  0.0000  0.0000  0.0000  0.0000  0.0000  0.0000  0.0000  0.0000
  13.     0.0000  0.0000  0.0000  0.0000  0.0000  0.0000  0.0000  0.0000  0.0000

      MO    10      11      12      13
     ---- ------  ------  ------  ------
   1.     0.0000  0.0000  0.0000  0.0000
   2.     0.0000  0.0000  0.0000  0.0000
   3.     0.0000  0.0000  0.0000  0.0000
   4.     0.0000  0.0000  0.0000  0.0000
   5.     0.0000  0.0000  0.0000  0.0000
   6.     0.0000  0.0000  0.0000  0.0000
   7.     0.0000  0.0000  0.0000  0.0000
   8.     0.0000  0.0000  0.0000  0.0000
   9.     0.0000  0.0000  0.0000  0.0000
  10.     0.0000  0.0000  0.0000  0.0000
  11.     0.0000  0.0000  0.0000  0.0000
  12.     0.0000  0.0000  0.0000  0.0000
  13.     0.0000  0.0000  0.0000  0.0000


 NATURAL POPULATIONS:  Natural atomic orbital occupancies

  NAO Atom No lang   Type(AO)    Occupancy      Energy
 -------------------------------------------------------
   1    C  1  s      Cor( 1s)     1.99999     -10.90739
   2    C  1  s      Val( 2s)     1.16143      -0.13771
   3    C  1  px     Val( 2p)     0.98992       0.18984
   4    C  1  py     Val( 2p)     1.36930       0.02268
   5    C  1  pz     Val( 2p)     0.98992       0.18984

   6   Li  2  s      Cor( 1s)     1.99995      -2.33268
   7   Li  2  s      Val( 2s)     0.40315       0.06633
   8   Li  2  px     Ryd( 2p)     0.00750       0.18467
   9   Li  2  py     Ryd( 2p)     0.11672       0.34480
  10   Li  2  pz     Ryd( 2p)     0.00750       0.18467

  11    H  3  s      Val( 1s)     0.98487       0.14069

  12    H  4  s      Val( 1s)     0.98487       0.14069

  13    H  5  s      Val( 1s)     0.98487       0.14069


 Summary of Natural Population Analysis:

                                     Natural Population
             Natural    ---------------------------------------------
  Atom No    Charge        Core      Valence    Rydberg      Total
 --------------------------------------------------------------------
    C  1   -0.51056      1.99999     4.51057    0.00000     6.51056
   Li  2    0.46518      1.99995     0.40315    0.13173     2.53482
    H  3    0.01513      0.00000     0.98487    0.00000     0.98487
    H  4    0.01513      0.00000     0.98487    0.00000     0.98487
    H  5    0.01513      0.00000     0.98487    0.00000     0.98487
 ====================================================================
 * Total *  0.00000      3.99994     7.86834    0.13173    12.00000

                                 Natural Population
 ---------------------------------------------------------
   Core                       3.99994 ( 99.9984% of    4)
   Valence                    7.86834 ( 98.3542% of    8)
   Natural Minimal Basis     11.86827 ( 98.9023% of   12)
   Natural Rydberg Basis      0.13173 (  1.0977% of   12)
 ---------------------------------------------------------

    Atom No         Natural Electron Configuration
 ----------------------------------------------------------------------------
      C  1      [core]2s( 1.16)2p( 3.35)
     Li  2      [core]2s( 0.40)2p( 0.13)
      H  3            1s( 0.98)
      H  4            1s( 0.98)
      H  5            1s( 0.98)


 PNAOs in the AO basis:

           AO          1       2       3       4       5       6       7       8
      ------------ ------- ------- ------- ------- ------- ------- ------- -------
   1.  C 1 (s)      0.9839 -0.3126  0.0000  0.0000  0.0000  0.0000  0.0000  0.0000
   2.  C 1 (s)      0.0585  1.0307  0.0000  0.0000  0.0000  0.0000  0.0000  0.0000
   3.  C 1 (px)     0.0000  0.0000  1.0000  0.0000  0.0000  0.0000  0.0000  0.0000
   4.  C 1 (py)     0.0000  0.0000  0.0000  1.0000  0.0000  0.0000  0.0000  0.0000
   5.  C 1 (pz)     0.0000  0.0000  0.0000  0.0000  1.0000  0.0000  0.0000  0.0000
   6. Li 2 (s)      0.0000  0.0000  0.0000  0.0000  0.0000  0.9911 -0.2818  0.0000
   7. Li 2 (s)      0.0000  0.0000  0.0000  0.0000  0.0000  0.0345  1.0298  0.0000
   8. Li 2 (px)     0.0000  0.0000  0.0000  0.0000  0.0000  0.0000  0.0000  1.0000
   9. Li 2 (py)     0.0000  0.0000  0.0000  0.0000  0.0000  0.0000  0.0000  0.0000
  10. Li 2 (pz)     0.0000  0.0000  0.0000  0.0000  0.0000  0.0000  0.0000  0.0000
  11.  H 3 (s)      0.0000  0.0000  0.0000  0.0000  0.0000  0.0000  0.0000  0.0000
  12.  H 4 (s)      0.0000  0.0000  0.0000  0.0000  0.0000  0.0000  0.0000  0.0000
  13.  H 5 (s)      0.0000  0.0000  0.0000  0.0000  0.0000  0.0000  0.0000  0.0000

           AO          9      10      11      12      13
      ------------ ------- ------- ------- ------- -------
   1.  C 1 (s)      0.0000  0.0000  0.0000  0.0000  0.0000
   2.  C 1 (s)      0.0000  0.0000  0.0000  0.0000  0.0000
   3.  C 1 (px)     0.0000  0.0000  0.0000  0.0000  0.0000
   4.  C 1 (py)     0.0000  0.0000  0.0000  0.0000  0.0000
   5.  C 1 (pz)     0.0000  0.0000  0.0000  0.0000  0.0000
   6. Li 2 (s)      0.0000  0.0000  0.0000  0.0000  0.0000
   7. Li 2 (s)      0.0000  0.0000  0.0000  0.0000  0.0000
   8. Li 2 (px)     0.0000  0.0000  0.0000  0.0000  0.0000
   9. Li 2 (py)     1.0000  0.0000  0.0000  0.0000  0.0000
  10. Li 2 (pz)     0.0000  1.0000  0.0000  0.0000  0.0000
  11.  H 3 (s)      0.0000  0.0000  1.0000  0.0000  0.0000
  12.  H 4 (s)      0.0000  0.0000  0.0000  1.0000  0.0000
  13.  H 5 (s)      0.0000  0.0000  0.0000  0.0000  1.0000


 PNAO overlap matrix:

           NAO         1       2       3       4       5       6       7       8
      ------------ ------- ------- ------- ------- ------- ------- ------- -------
   1.  C 1( 1s )    1.0000  0.0000  0.0000  0.0000  0.0000  0.0034  0.0535  0.0000
   2.  C 1( 2s )    0.0000  1.0000  0.0000  0.0000  0.0000  0.0391  0.3194  0.0000
   3.  C 1( 2px)    0.0000  0.0000  1.0000  0.0000  0.0000  0.0000  0.0000  0.1690
   4.  C 1( 2py)    0.0000  0.0000  0.0000  1.0000  0.0000 -0.0548 -0.1750  0.0000
   5.  C 1( 2pz)    0.0000  0.0000  0.0000  0.0000  1.0000  0.0000  0.0000  0.0000
   6. Li 2( 1s )    0.0034  0.0391  0.0000 -0.0548  0.0000  1.0000  0.0000  0.0000
   7. Li 2( 2s )    0.0535  0.3194  0.0000 -0.1750  0.0000  0.0000  1.0000  0.0000
   8. Li 2( 2px)    0.0000  0.0000  0.1690  0.0000  0.0000  0.0000  0.0000  1.0000
   9. Li 2( 2py)    0.0860  0.4551  0.0000 -0.2200  0.0000  0.0000  0.0000  0.0000
  10. Li 2( 2pz)    0.0000  0.0000  0.0000  0.0000  0.1690  0.0000  0.0000  0.0000
  11.  H 3( 1s )    0.0912  0.4902  0.4336  0.1805  0.0000  0.0119  0.1803  0.1021
  12.  H 4( 1s )    0.0912  0.4902 -0.2168  0.1805  0.3755  0.0119  0.1803 -0.0511
  13.  H 5( 1s )    0.0912  0.4902 -0.2168  0.1805 -0.3755  0.0119  0.1803 -0.0511

           NAO         9      10      11      12      13
      ------------ ------- ------- ------- ------- -------
   1.  C 1( 1s )    0.0860  0.0000  0.0912  0.0912  0.0912
   2.  C 1( 2s )    0.4551  0.0000  0.4902  0.4902  0.4902
   3.  C 1( 2px)    0.0000  0.0000  0.4336 -0.2168 -0.2168
   4.  C 1( 2py)   -0.2200  0.0000  0.1805  0.1805  0.1805
   5.  C 1( 2pz)    0.0000  0.1690  0.0000  0.3755 -0.3755
   6. Li 2( 1s )    0.0000  0.0000  0.0119  0.0119  0.0119
   7. Li 2( 2s )    0.0000  0.0000  0.1803  0.1803  0.1803
   8. Li 2( 2px)    0.0000  0.0000  0.1021 -0.0511 -0.0511
   9. Li 2( 2py)    1.0000  0.0000  0.2477  0.2477  0.2477
  10. Li 2( 2pz)    0.0000  1.0000  0.0000  0.0884 -0.0884
  11.  H 3( 1s )    0.2477  0.0000  1.0000  0.1823  0.1823
  12.  H 4( 1s )    0.2477  0.0884  0.1823  1.0000  0.1823
  13.  H 5( 1s )    0.2477 -0.0884  0.1823  0.1823  1.0000


 PNAO density matrix:

           NAO         1       2       3       4       5       6       7       8
      ------------ ------- ------- ------- ------- ------- ------- ------- -------
   1.  C 1( 1s )    2.0000  0.0000  0.0000  0.0008  0.0000  0.0068  0.1097  0.0000
   2.  C 1( 2s )    0.0000  1.8416  0.0000  0.0322  0.0000  0.0800  0.8247  0.0000
   3.  C 1( 2px)    0.0000  0.0000  1.5630  0.0000  0.0000  0.0000  0.0000  0.4103
   4.  C 1( 2py)    0.0008  0.0322  0.0000  1.6002  0.0000 -0.1116 -0.8127  0.0000
   5.  C 1( 2pz)    0.0000  0.0000  0.0000  0.0000  1.5630  0.0000  0.0000  0.0000
   6. Li 2( 1s )    0.0068  0.0800  0.0000 -0.1116  0.0000  1.9999  0.0000  0.0000
   7. Li 2( 2s )    0.1097  0.8247  0.0000 -0.8127  0.0000  0.0000  0.8076  0.0000
   8. Li 2( 2px)    0.0000  0.0000  0.4103  0.0000  0.0000  0.0000  0.0000  0.1077
   9. Li 2( 2py)    0.1689  0.9633  0.0000 -0.4927  0.0000 -0.0068  0.7082  0.0000
  10. Li 2( 2pz)    0.0000  0.0000  0.0000  0.0000  0.4103  0.0000  0.0000  0.0000
  11.  H 3( 1s )    0.1823  1.1093  1.1674  0.4213  0.0000  0.0228  0.2989  0.3064
  12.  H 4( 1s )    0.1823  1.1093 -0.5837  0.4213  1.0110  0.0228  0.2989 -0.1532
  13.  H 5( 1s )    0.1823  1.1093 -0.5837  0.4213 -1.0110  0.0228  0.2989 -0.1532

           NAO         9      10      11      12      13
      ------------ ------- ------- ------- ------- -------
   1.  C 1( 1s )    0.1689  0.0000  0.1823  0.1823  0.1823
   2.  C 1( 2s )    0.9633  0.0000  1.1093  1.1093  1.1093
   3.  C 1( 2px)    0.0000  0.0000  1.1674 -0.5837 -0.5837
   4.  C 1( 2py)   -0.4927  0.0000  0.4213  0.4213  0.4213
   5.  C 1( 2pz)    0.0000  0.4103  0.0000  1.0110 -1.0110
   6. Li 2( 1s )   -0.0068  0.0000  0.0228  0.0228  0.0228
   7. Li 2( 2s )    0.7082  0.0000  0.2989  0.2989  0.2989
   8. Li 2( 2px)    0.0000  0.0000  0.3064 -0.1532 -0.1532
   9. Li 2( 2py)    0.6842  0.0000  0.4675  0.4675  0.4675
  10. Li 2( 2pz)    0.0000  0.1077  0.0000  0.2654 -0.2654
  11.  H 3( 1s )    0.4675  0.0000  1.6576  0.3498  0.3498
  12.  H 4( 1s )    0.4675  0.2654  0.3498  1.6576  0.3498
  13.  H 5( 1s )    0.4675 -0.2654  0.3498  0.3498  1.6576


 NAOs in the AO basis:

           AO          1       2       3       4       5       6       7       8
      ------------ ------- ------- ------- ------- ------- ------- ------- -------
   1.  C 1 (s)      0.9839 -0.3488  0.0000 -0.0130  0.0000 -0.0017  0.0111  0.0000
   2.  C 1 (s)      0.0585  1.4568  0.0000  0.1551  0.0000 -0.0001 -0.1605  0.0000
   3.  C 1 (px)     0.0000  0.0000  1.1720  0.0000  0.0000  0.0000  0.0000 -0.1362
   4.  C 1 (py)     0.0000  0.1271  0.0000  1.0752  0.0000  0.0000  0.1617  0.0000
   5.  C 1 (pz)     0.0000  0.0000  0.0000  0.0000  1.1720  0.0000  0.0000  0.0000
   6. Li 2 (s)     -0.0017 -0.0175  0.0000  0.0342  0.0000  0.9911 -0.2863  0.0000
   7. Li 2 (s)     -0.0001 -0.0706  0.0000  0.0874  0.0000  0.0345  1.1108  0.0000
   8. Li 2 (px)     0.0000  0.0000  0.0000  0.0000  0.0000  0.0000  0.0000  1.0158
   9. Li 2 (py)     0.0000  0.0000  0.0000  0.0000  0.0000  0.0000  0.0000  0.0000
  10. Li 2 (pz)     0.0000  0.0000  0.0000  0.0000  0.0000  0.0000  0.0000  0.0000
  11.  H 3 (s)      0.0000 -0.3259 -0.3358 -0.1413  0.0000  0.0000 -0.0738 -0.0546
  12.  H 4 (s)      0.0000 -0.3259  0.1679 -0.1413 -0.2908  0.0000 -0.0738  0.0273
  13.  H 5 (s)      0.0000 -0.3259  0.1679 -0.1413  0.2908  0.0000 -0.0738  0.0273

           AO          9      10      11      12      13
      ------------ ------- ------- ------- ------- -------
   1.  C 1 (s)      0.0542  0.0000  0.0031  0.0031  0.0031
   2.  C 1 (s)     -0.4329  0.0000 -0.3797 -0.3797 -0.3797
   3.  C 1 (px)     0.0000  0.0000 -0.3192  0.1596  0.1596
   4.  C 1 (py)     0.4108  0.0000 -0.1343 -0.1343 -0.1343
   5.  C 1 (pz)     0.0000 -0.1362  0.0000 -0.2764  0.2764
   6. Li 2 (s)     -0.0390  0.0000  0.0025  0.0025  0.0025
   7. Li 2 (s)      0.3065  0.0000 -0.0373 -0.0373 -0.0373
   8. Li 2 (px)     0.0000  0.0000  0.0000  0.0000  0.0000
   9. Li 2 (py)     1.2234  0.0000  0.0000  0.0000  0.0000
  10. Li 2 (pz)     0.0000  1.0158  0.0000  0.0000  0.0000
  11.  H 3 (s)     -0.1615  0.0000  1.2846 -0.0183 -0.0183
  12.  H 4 (s)     -0.1615 -0.0473 -0.0183  1.2846 -0.0183
  13.  H 5 (s)     -0.1615  0.0473 -0.0183 -0.0183  1.2846


 NAO density matrix:

           NAO         1       2       3       4       5       6       7       8
      ------------ ------- ------- ------- ------- ------- ------- ------- -------
   1.  C 1( 1s )    2.0000  0.0001  0.0000  0.0012  0.0000  0.0000  0.0032  0.0000
   2.  C 1( 2s )    0.0001  1.1614  0.0000 -0.1934  0.0000  0.0032  0.3509  0.0000
   3.  C 1( 2px)    0.0000  0.0000  0.9899  0.0000  0.0000  0.0000  0.0000  0.0862
   4.  C 1( 2py)    0.0012 -0.1934  0.0000  1.3693  0.0000 -0.0014 -0.6887  0.0000
   5.  C 1( 2pz)    0.0000  0.0000  0.0000  0.0000  0.9899  0.0000  0.0000  0.0000
   6. Li 2( 1s )    0.0000  0.0032  0.0000 -0.0014  0.0000  1.9999 -0.0004  0.0000
   7. Li 2( 2s )    0.0032  0.3509  0.0000 -0.6887  0.0000 -0.0004  0.4031  0.0000
   8. Li 2( 2px)    0.0000  0.0000  0.0862  0.0000  0.0000  0.0000  0.0000  0.0075
   9. Li 2( 2py)   -0.0024  0.1429  0.0000 -0.3878  0.0000 -0.0093  0.2148  0.0000
  10. Li 2( 2pz)    0.0000  0.0000  0.0000  0.0000  0.0862  0.0000  0.0000  0.0000
  11.  H 3( 1s )   -0.0004  0.5141  0.8134  0.2592  0.0000 -0.0017 -0.0072  0.0708
  12.  H 4( 1s )   -0.0004  0.5141 -0.4067  0.2592  0.7044 -0.0017 -0.0072 -0.0354
  13.  H 5( 1s )   -0.0004  0.5141 -0.4067  0.2592 -0.7044 -0.0017 -0.0072 -0.0354

           NAO         9      10      11      12      13
      ------------ ------- ------- ------- ------- -------
   1.  C 1( 1s )   -0.0024  0.0000 -0.0004 -0.0004 -0.0004
   2.  C 1( 2s )    0.1429  0.0000  0.5141  0.5141  0.5141
   3.  C 1( 2px)    0.0000  0.0000  0.8134 -0.4067 -0.4067
   4.  C 1( 2py)   -0.3878  0.0000  0.2592  0.2592  0.2592
   5.  C 1( 2pz)    0.0000  0.0862  0.0000  0.7044 -0.7044
   6. Li 2( 1s )   -0.0093  0.0000 -0.0017 -0.0017 -0.0017
   7. Li 2( 2s )    0.2148  0.0000 -0.0072 -0.0072 -0.0072
   8. Li 2( 2px)    0.0000  0.0000  0.0708 -0.0354 -0.0354
   9. Li 2( 2py)    0.1167  0.0000 -0.0306 -0.0306 -0.0306
  10. Li 2( 2pz)    0.0000  0.0075  0.0000  0.0613 -0.0613
  11.  H 3( 1s )   -0.0306  0.0000  0.9849 -0.0177 -0.0177
  12.  H 4( 1s )   -0.0306  0.0613 -0.0177  0.9849 -0.0177
  13.  H 5( 1s )   -0.0306 -0.0613 -0.0177 -0.0177  0.9849


 NATURAL BOND ORBITAL ANALYSIS:

 Initiate 2-center NBO search using THRESH = 1.900 and PRJTHR = 0.300

 Search of NAO DM block for core orbitals on atom:   1
      Eigenvector ( 1) has occupancy 1.99999
            1.0000 0.0000 0.0000 0.0000 0.0000
        1 eigenvector(s) stashed in permanent list

 Search of NAO DM block for core orbitals on atom:   2
      Eigenvector ( 1) has occupancy 1.99995
            1.0000 0.0000 0.0000 0.0000 0.0000
        1 eigenvector(s) stashed in permanent list

 Core orbitals projected from the NAO density matrix
       8.000 electrons remain (>1.900); search continues

 Search of NAO DM block for the following atom(s):   1
      Select eigenvectors with eigenvalue > 1.900
       1.485 1.046 0.990 0.990 0.000

 No NHOs identified in the 1-center search of the NAO density matrix
       8.000 electrons remain (>1.900); search continues

 Search of NAO DM block for the following atom(s):   1   2
      Select eigenvectors with eigenvalue > 1.900
       2.000 1.051 0.997 0.997 0.000 0.000 0.000 0.000 0.000 0.000
      Eigenvector ( 1) has occupancy 2.00000
            0.0000-0.4039 0.0000 0.7606 0.0000 0.0000-0.4489 0.0000
           -0.2384 0.0000
      1 hybrid on atom 1 stashed in prospective list
      1 hybrid on atom 2 stashed in prospective list

 Search of NAO DM block for the following atom(s):   1   3
      Select eigenvectors with eigenvalue > 1.900
       1.994 1.484 1.027 0.990 0.000 0.000
      Eigenvector ( 1) has occupancy 1.99449
            0.0000 0.3940 0.5685 0.1691 0.0000 0.7021
      1 hybrid on atom 1 stashed in prospective list
      1 hybrid on atom 3 stashed in prospective list

 Search of NAO DM block for the following atom(s):   1   4
      Select eigenvectors with eigenvalue > 1.900
       1.994 1.484 1.027 0.990 0.000 0.000
      Eigenvector ( 1) has occupancy 1.99449
            0.0000 0.3940-0.2842 0.1691 0.4923 0.7021
      1 hybrid on atom 1 stashed in prospective list
      1 hybrid on atom 4 stashed in prospective list

 Search of NAO DM block for the following atom(s):   1   5
      Select eigenvectors with eigenvalue > 1.900
       1.994 1.484 1.027 0.990 0.000 0.000
      Eigenvector ( 1) has occupancy 1.99449
            0.0000 0.3940-0.2842 0.1691-0.4923 0.7021
      1 hybrid on atom 1 stashed in prospective list
      1 hybrid on atom 5 stashed in prospective list

 Stash prospective hybrids having projection expectation value > 0.300
       0.994 0.994 0.994 0.994 0.994 0.994 0.993 0.993
      0 hybrids eliminated in 1 pass
      8 hybrids moved from prospective to permanent list

 NHOs of 2-center eigenvectors projected from the NAO density matrix
       0.017 electrons remain in the fully projected matrix

 Search of NHO DM block for the following atom(s):   1
      Select eigenvectors with eigenvalue > 1.900
       2.000 0.000 0.000 0.000 0.000
      Eigenvector ( 1) has occupancy 1.99999
            1.0000 0.0000 0.0000 0.0000 0.0000
           NBO accepted:    1. Label:CR ( 1)   1
        1 eigenvector(s) stashed in permanent list

 Search of NHO DM block for the following atom(s):   2
      Select eigenvectors with eigenvalue > 1.900
       2.000 0.008 0.008 0.002 0.000
      Eigenvector ( 1) has occupancy 1.99995
            1.0000 0.0000 0.0000 0.0000 0.0000
           NBO accepted:    2. Label:CR ( 1)   2
        1 eigenvector(s) stashed in permanent list

  1-center NBOs projected from the NHO density matrix
       8.000 electrons remain (>1.900); search continues

 Search of NHO DM block for the following atom(s):   1   2
      Select eigenvectors with eigenvalue > 1.900
       1.999 0.001 0.000 0.000 0.000 0.000 0.000 0.000 0.000 0.000
      Eigenvector ( 1) has occupancy 1.99917
            0.0000 0.0000 0.0000 0.0000 0.8609 0.0000 0.5088 0.0000
            0.0000 0.0000
      Occupancy is 1.999 after deleting minor hybrid components
            0.0000 0.0000 0.0000 0.0000 0.8609 0.0000 0.5088 0.0000
            0.0000 0.0000
           NBO accepted:    3. Label:BD ( 1)   1   2
      Occupancy is 0.001 for antibonding component
            0.0000 0.0000 0.0000 0.0000-0.5088 0.0000 0.8609 0.0000
            0.0000 0.0000
           NBO accepted:    4. Label:BD*( 1)   1   2
        2 eigenvector(s) stashed in permanent list

 Search of NHO DM block for the following atom(s):   1   3
      Select eigenvectors with eigenvalue > 1.900
       1.994 0.001 0.000 0.000 0.000 0.000
      Eigenvector ( 1) has occupancy 1.99385
            0.0000 0.7115 0.0000 0.0000 0.0000 0.7027
      Occupancy is 1.994 after deleting minor hybrid components
            0.0000 0.7115 0.0000 0.0000 0.0000 0.7027
           NBO accepted:    5. Label:BD ( 1)   1   3
      Occupancy is 0.001 for antibonding component
            0.0000-0.7027 0.0000 0.0000 0.0000 0.7115
           NBO accepted:    6. Label:BD*( 1)   1   3
        2 eigenvector(s) stashed in permanent list

 Search of NHO DM block for the following atom(s):   1   4
      Select eigenvectors with eigenvalue > 1.900
       1.994 0.001 0.000 0.000 0.000 0.000
      Eigenvector ( 1) has occupancy 1.99385
            0.0000 0.0000 0.7115 0.0000 0.0000 0.7027
      Occupancy is 1.994 after deleting minor hybrid components
            0.0000 0.0000 0.7115 0.0000 0.0000 0.7027
           NBO accepted:    7. Label:BD ( 1)   1   4
      Occupancy is 0.001 for antibonding component
            0.0000 0.0000-0.7027 0.0000 0.0000 0.7115
           NBO accepted:    8. Label:BD*( 1)   1   4
        2 eigenvector(s) stashed in permanent list

 Search of NHO DM block for the following atom(s):   1   5
      Select eigenvectors with eigenvalue > 1.900
       1.994 0.001 0.000 0.000 0.000 0.000
      Eigenvector ( 1) has occupancy 1.99385
            0.0000 0.0000 0.0000 0.7115 0.0000 0.7027
      Occupancy is 1.994 after deleting minor hybrid components
            0.0000 0.0000 0.0000 0.7115 0.0000 0.7027
           NBO accepted:    9. Label:BD ( 1)   1   5
      Occupancy is 0.001 for antibonding component
            0.0000 0.0000 0.0000-0.7027 0.0000 0.7115
           NBO accepted:   10. Label:BD*( 1)   1   5
        2 eigenvector(s) stashed in permanent list

  2-center NBOs projected from the NHO density matrix
       0.017 electrons remain in the fully projected matrix

                            Occupancies       Lewis Structure    Low   High
         Max    Occ     -------------------  -----------------   occ   occ
  Cycle  Ctr   Thresh    Lewis   non-Lewis     CR  BD  nC  LP    (L)   (NL)
 ============================================================================
    1     2     1.90    11.98066   0.01934      2   4   0   0     0      0
 ----------------------------------------------------------------------------

 Structure accepted: No low occupancy Lewis orbitals

 -------------------------------------------------------
   Core                      3.99994 ( 99.998% of   4)
   Valence Lewis             7.98073 ( 99.759% of   8)
  ==================      =============================
   Total Lewis              11.98066 ( 99.839% of  12)
  -----------------------------------------------------
   Valence non-Lewis         0.00252 (  0.021% of  12)
   Rydberg non-Lewis         0.01681 (  0.140% of  12)
  ==================      =============================
   Total non-Lewis           0.01934 (  0.161% of  12)
 -------------------------------------------------------


     (Occupancy)   Bond orbital / Coefficients / Hybrids
 ------------------ Lewis ------------------------------------------------------
   1. (1.99999) CR ( 1) C  1            s(100.00%)
                                         1.0000  0.0000  0.0000  0.0000  0.0000
   2. (1.99995) CR ( 1)Li  2            s(100.00%)
                                         1.0000  0.0000  0.0000  0.0000  0.0000
   3. (1.99917) BD ( 1) C  1-Li  2
               ( 74.11%)   0.8609* C  1 s( 19.21%)p 4.20( 80.79%)
                                         0.0000  0.4383  0.0000 -0.8988  0.0000
               ( 25.89%)   0.5088*Li  2 s( 77.99%)p 0.28( 22.01%)
                                         0.0000  0.8831  0.0000  0.4691  0.0000
   4. (1.99385) BD ( 1) C  1- H  3
               ( 50.62%)   0.7115* C  1 s( 26.93%)p 2.71( 73.07%)
                                         0.0000  0.5189  0.8165  0.2531  0.0000
               ( 49.38%)   0.7027* H  3 s(100.00%)
                                         1.0000
   5. (1.99385) BD ( 1) C  1- H  4
               ( 50.62%)   0.7115* C  1 s( 26.93%)p 2.71( 73.07%)
                                         0.0000  0.5189 -0.4082  0.2531  0.7071
               ( 49.38%)   0.7027* H  4 s(100.00%)
                                         1.0000
   6. (1.99385) BD ( 1) C  1- H  5
               ( 50.62%)   0.7115* C  1 s( 26.93%)p 2.71( 73.07%)
                                         0.0000  0.5189 -0.4082  0.2531 -0.7071
               ( 49.38%)   0.7027* H  5 s(100.00%)
                                         1.0000
 ---------------- non-Lewis ----------------------------------------------------
   7. (0.00063) BD*( 1) C  1-Li  2
               ( 25.89%)   0.5088* C  1 s( 19.21%)p 4.20( 80.79%)
                                         0.0000 -0.4383  0.0000  0.8988  0.0000
               ( 74.11%)  -0.8609*Li  2 s( 77.99%)p 0.28( 22.01%)
                                         0.0000 -0.8831  0.0000 -0.4691  0.0000
   8. (0.00063) BD*( 1) C  1- H  3
               ( 49.38%)   0.7027* C  1 s( 26.93%)p 2.71( 73.07%)
                                         0.0000 -0.5189 -0.8165 -0.2531  0.0000
               ( 50.62%)  -0.7115* H  3 s(100.00%)
                                        -1.0000
   9. (0.00063) BD*( 1) C  1- H  4
               ( 49.38%)   0.7027* C  1 s( 26.93%)p 2.71( 73.07%)
                                         0.0000 -0.5189  0.4082 -0.2531 -0.7071
               ( 50.62%)  -0.7115* H  4 s(100.00%)
                                        -1.0000
  10. (0.00063) BD*( 1) C  1- H  5
               ( 49.38%)   0.7027* C  1 s( 26.93%)p 2.71( 73.07%)
                                         0.0000 -0.5189  0.4082 -0.2531  0.7071
               ( 50.62%)  -0.7115* H  5 s(100.00%)
                                        -1.0000
  11. (0.00750) RY ( 1)Li  2            s(  0.00%)p 1.00(100.00%)
                                         0.0000  0.0000  0.0000  0.0000  1.0000
  12. (0.00750) RY ( 2)Li  2            s(  0.00%)p 1.00(100.00%)
                                         0.0000  0.0000  1.0000  0.0000  0.0000
  13. (0.00180) RY ( 3)Li  2            s( 22.01%)p 3.54( 77.99%)
                                         0.0000  0.4691  0.0000 -0.8831  0.0000


 NHO DIRECTIONALITY AND BOND BENDING (deviation from line of nuclear centers at
                                      the position of maximum hybrid amplitude)

         [Thresholds for printing:  angular deviation  >  1.0 degree]
                                    p- or d-character  > 25.0%
                                    orbital occupancy  >  0.10e

                        Line of Centers        Hybrid 1             Hybrid 2
                        ---------------  -------------------  ------------------
           NBO            Theta   Phi    Theta   Phi    Dev   Theta   Phi    Dev
 ===============================================================================
   4. BD ( 1) C  1- H  3   90.0   22.6    90.0   18.6   4.0     --     --    --
   5. BD ( 1) C  1- H  4   36.9  140.2    34.8  146.0   4.0     --     --    --
   6. BD ( 1) C  1- H  5  143.1  140.2   145.2  146.0   4.0     --     --    --


 SECOND ORDER PERTURBATION THEORY ANALYSIS OF FOCK MATRIX IN NBO BASIS

     Threshold for printing:   0.50 kcal/mol
                                                          E(2) E(NL)-E(L) F(L,NL)
      Donor (L) NBO              Acceptor (NL) NBO      kcal/mol   a.u.    a.u.
 ===============================================================================

 within unit  1
    4. BD ( 1) C  1- H  3      12. RY ( 2)Li  2            1.68    0.73   0.031
    4. BD ( 1) C  1- H  3      13. RY ( 3)Li  2            0.53    0.76   0.018
    5. BD ( 1) C  1- H  4      11. RY ( 1)Li  2            1.26    0.73   0.027
    5. BD ( 1) C  1- H  4      13. RY ( 3)Li  2            0.53    0.76   0.018
    6. BD ( 1) C  1- H  5      11. RY ( 1)Li  2            1.26    0.73   0.027
    6. BD ( 1) C  1- H  5      13. RY ( 3)Li  2            0.53    0.76   0.018


 NATURAL BOND ORBITALS (Summary):

                                                     Principal Delocalizations
           NBO                 Occupancy    Energy   (geminal,vicinal,remote)
 ===============================================================================
 Molecular unit  1  (CH3Li)
 ------ Lewis --------------------------------------
    1. CR ( 1) C  1             1.99999   -10.90739
    2. CR ( 1)Li  2             1.99995    -2.33268
    3. BD ( 1) C  1-Li  2       1.99917    -0.26804
    4. BD ( 1) C  1- H  3       1.99385    -0.54739  12(v),13(v)
    5. BD ( 1) C  1- H  4       1.99385    -0.54739  11(v),13(v)
    6. BD ( 1) C  1- H  5       1.99385    -0.54739  11(v),13(v)
 ------ non-Lewis ----------------------------------
    7. BD*( 1) C  1-Li  2       0.00063     0.36022
    8. BD*( 1) C  1- H  3       0.00063     0.81140
    9. BD*( 1) C  1- H  4       0.00063     0.81140
   10. BD*( 1) C  1- H  5       0.00063     0.81140
   11. RY ( 1)Li  2             0.00750     0.18467
   12. RY ( 2)Li  2             0.00750     0.18467
   13. RY ( 3)Li  2             0.00180     0.21360
          -------------------------------
                 Total Lewis   11.98066  ( 99.8389%)
           Valence non-Lewis    0.00252  (  0.0210%)
           Rydberg non-Lewis    0.01681  (  0.1401%)
          -------------------------------
               Total unit  1   12.00000  (100.0000%)
              Charge unit  1    0.00000

 $CHOOSE
   BOND S 1 2 S 1 3 S 1 4 S 1 5 END
 $END

 NBO analysis completed in 0.13 CPU seconds (1 wall second)
 Maximum scratch memory used by NBO was 222354 words (1.70 MB)
 Maximum scratch memory used by G16NBO was 8427 words (0.06 MB)

 Opening RunExU unformatted file "/cluster/work/users/beto93/LiCH3/Gau-1553522.EUF"
 Read unf file /cluster/work/users/beto93/LiCH3/Gau-1553522.EUF:
 Label Gaussian matrix elements                                         IVers= 2 NLab= 2 Version=ES64L-G16RevC.01
 Title NBO-LiCH3                                                       
 NAtoms=     5 NBasis=    13 NBsUse=    13 ICharg=     0 Multip=     1 NE=    12 Len12L=8 Len4L=8 IOpCl= 0 ICGU=111
 GAUSSIAN SCALARS                    NI= 1 NR= 1 NTot=       1 LenBuf=    2 NRI=1 N=    1000
 NPA CHARGES                         NI= 0 NR= 1 NTot=       5 LenBuf= 4000 NRI=1 N=       5
 Recovered energy= -46.4215876247     dipole=      0.000000051080     -1.678577760070     -0.000000000000
 Calling FoFJK, ICntrl=      2127 FMM=F ISym2X=1 I1Cent= 0 IOpClX= 0 NMat=1 NMatS=1 NMatT=0.
 ***** Axes restored to original set *****
 -------------------------------------------------------------------
 Center     Atomic                   Forces (Hartrees/Bohr)
 Number     Number              X              Y              Z
 -------------------------------------------------------------------
      1        6           0.000000468   -0.000000000   -0.000222488
      2        3           0.000000006   -0.000000000   -0.000100124
      3        1          -0.000231516    0.000000000    0.000107677
      4        1           0.000115521   -0.000200754    0.000107467
      5        1           0.000115521    0.000200754    0.000107467
 -------------------------------------------------------------------
 Cartesian Forces:  Max     0.000231516 RMS     0.000130413

 GradGradGradGradGradGradGradGradGradGradGradGradGradGradGradGradGradGrad
 Berny optimization.
 FormGI is forming the generalized inverse of G from B-inverse, IUseBI=4.
 Internal  Forces:  Max     0.000255132 RMS     0.000121181
 Search for a local minimum.
 Step number   1 out of a maximum of   24
 All quantities printed in internal units (Hartrees-Bohrs-Radians)
 Mixed Optimization -- En-DIIS/RFO-DIIS
 Second derivative matrix not updated -- first step.
 The second derivative matrix:
                          R1        R2        R3        R4        A1
           R1           0.08698
           R2           0.00000   0.35634
           R3           0.00000   0.00000   0.35634
           R4           0.00000   0.00000   0.00000   0.35634
           A1           0.00000   0.00000   0.00000   0.00000   0.16000
           A2           0.00000   0.00000   0.00000   0.00000   0.00000
           A3           0.00000   0.00000   0.00000   0.00000   0.00000
           A4           0.00000   0.00000   0.00000   0.00000   0.00000
           A5           0.00000   0.00000   0.00000   0.00000   0.00000
           A6           0.00000   0.00000   0.00000   0.00000   0.00000
           D1           0.00000   0.00000   0.00000   0.00000   0.00000
           D2           0.00000   0.00000   0.00000   0.00000   0.00000
           D3           0.00000   0.00000   0.00000   0.00000   0.00000
           D4           0.00000   0.00000   0.00000   0.00000   0.00000
                          A2        A3        A4        A5        A6
           A2           0.16000
           A3           0.00000   0.16000
           A4           0.00000   0.00000   0.16000
           A5           0.00000   0.00000   0.00000   0.16000
           A6           0.00000   0.00000   0.00000   0.00000   0.16000
           D1           0.00000   0.00000   0.00000   0.00000   0.00000
           D2           0.00000   0.00000   0.00000   0.00000   0.00000
           D3           0.00000   0.00000   0.00000   0.00000   0.00000
           D4           0.00000   0.00000   0.00000   0.00000   0.00000
                          D1        D2        D3        D4
           D1           0.00327
           D2           0.00000   0.00327
           D3           0.00000   0.00000   0.00327
           D4           0.00000   0.00000   0.00000   0.00327
 ITU=  0
     Eigenvalues ---    0.05024   0.06388   0.08202   0.08698   0.16000
     Eigenvalues ---    0.16000   0.35634   0.35634   0.35634
 RFO step:  Lambda=-6.66864491D-07 EMin= 5.02405311D-02
 Linear search not attempted -- first point.
 Iteration  1 RMS(Cart)=  0.00045546 RMS(Int)=  0.00000002
 Iteration  2 RMS(Cart)=  0.00000001 RMS(Int)=  0.00000000
 ClnCor:  largest displacement from symmetrization is 1.91D-06 for atom     5.
 Variable       Old X    -DE/DX   Delta X   Delta X   Delta X     New X
                                 (Linear)    (Quad)   (Total)
    R1        3.79646  -0.00010   0.00000  -0.00115  -0.00115   3.79531
    R2        2.04657  -0.00026   0.00000  -0.00072  -0.00072   2.04586
    R3        2.04657  -0.00026   0.00000  -0.00072  -0.00072   2.04586
    R4        2.04657  -0.00026   0.00000  -0.00072  -0.00072   2.04586
    A1        1.96524  -0.00000   0.00000  -0.00006  -0.00006   1.96518
    A2        1.96524  -0.00000   0.00000  -0.00006  -0.00006   1.96518
    A3        1.96524  -0.00001   0.00000  -0.00006  -0.00006   1.96518
    A4        1.85300   0.00000   0.00000   0.00006   0.00006   1.85307
    A5        1.85300   0.00001   0.00000   0.00007   0.00006   1.85307
    A6        1.85301   0.00001   0.00000   0.00006   0.00006   1.85307
    D1        2.15807  -0.00000   0.00000  -0.00006  -0.00006   2.15801
    D2       -2.15807   0.00000   0.00000   0.00006   0.00006  -2.15801
    D3        2.15808  -0.00000   0.00000  -0.00007  -0.00007   2.15801
    D4       -1.96704  -0.00001   0.00000  -0.00013  -0.00013  -1.96717
         Item               Value     Threshold  Converged?
 Maximum Force            0.000255     0.000002     NO 
 RMS     Force            0.000121     0.000001     NO 
 Maximum Displacement     0.001151     0.000006     NO 
 RMS     Displacement     0.000455     0.000004     NO 
 Predicted change in Energy=-3.334322D-07
 GradGradGradGradGradGradGradGradGradGradGradGradGradGradGradGradGradGrad

                          Input orientation:                          
 ---------------------------------------------------------------------
 Center     Atomic      Atomic             Coordinates (Angstroms)
 Number     Number       Type             X           Y           Z
 ---------------------------------------------------------------------
      1          6           0        0.000001   -0.000000   -0.000000
      2          3           0       -0.000000    0.000000    2.008391
      3          1           0        0.999512   -0.000000   -0.415989
      4          1           0       -0.499754    0.865602   -0.415989
      5          1           0       -0.499754   -0.865602   -0.415989
 ---------------------------------------------------------------------
                    Distance matrix (angstroms):
                    1          2          3          4          5
     1  C    0.000000
     2  Li   2.008391   0.000000
     3  H    1.082622   2.622335   0.000000
     4  H    1.082621   2.622335   1.731204   0.000000
     5  H    1.082621   2.622335   1.731204   1.731204   0.000000
 Stoichiometry    CH3Li
 Framework group  C1[X(CH3Li)]
 Deg. of freedom     9
 Full point group                 C1      NOp   1
 Omega: Change in point group or standard orientation.

 Old FWG=CS   [SG(C1H1Li1),X(H2)]
 New FWG=C01  [X(C1H3Li1)]
 Largest Abelian subgroup         C1      NOp   1
 Largest concise Abelian subgroup C1      NOp   1
                         Standard orientation:                         
 ---------------------------------------------------------------------
 Center     Atomic      Atomic             Coordinates (Angstroms)
 Number     Number       Type             X           Y           Z
 ---------------------------------------------------------------------
      1          6           0        0.398100    0.000000    0.000000
      2          3           0       -1.610290   -0.000000    0.000000
      3          1           0        0.814090   -0.999511    0.000000
      4          1           0        0.814089    0.499756    0.865602
      5          1           0        0.814089    0.499756   -0.865602
 ---------------------------------------------------------------------
 Rotational constants (GHZ):         167.3153192          22.1066276          22.1066273
 Standard basis: STO-3G (5D, 7F)
 There are    13 symmetry adapted cartesian basis functions of A   symmetry.
 There are    13 symmetry adapted basis functions of A   symmetry.
    13 basis functions,    39 primitive gaussians,    13 cartesian basis functions
     6 alpha electrons        6 beta electrons
       nuclear repulsion energy        16.2741380911 Hartrees.
 NAtoms=    5 NActive=    5 NUniq=    5 SFac= 1.00D+00 NAtFMM=   60 NAOKFM=F Big=F
 Integral buffers will be    131072 words long.
 Raffenetti 1 integral format.
 Two-electron integral symmetry is turned on.
 One-electron integrals computed using PRISM.
 NBasis=    13 RedAO= T EigKep=  2.35D-01  NBF=    13
 NBsUse=    13 1.00D-06 EigRej= -1.00D+00 NBFU=    13
 Initial guess from the checkpoint file:  "LiCH3.chk"
 B after Tr=     0.000000    0.000000   -0.000000
         Rot=    0.707107    0.000000    0.000000    0.707107 Ang=  90.00 deg.
 Keep R1 ints in memory in canonical form, NReq=809351.
 Requested convergence on RMS density matrix=1.00D-08 within 128 cycles.
 Requested convergence on MAX density matrix=1.00D-06.
 Requested convergence on             energy=1.00D-06.
 No special actions if energy rises.
 SCF Done:  E(RHF) =  -46.4215878784     A.U. after    7 cycles
            NFock=  7  Conv=0.78D-08     -V/T= 2.0017
 Calling FoFJK, ICntrl=      2127 FMM=F ISym2X=0 I1Cent= 0 IOpClX= 0 NMat=1 NMatS=1 NMatT=0.
 ***** Axes restored to original set *****
 -------------------------------------------------------------------
 Center     Atomic                   Forces (Hartrees/Bohr)
 Number     Number              X              Y              Z
 -------------------------------------------------------------------
      1        6           0.000000146    0.000000000    0.000059784
      2        3           0.000000011   -0.000000000    0.000005433
      3        1           0.000069489   -0.000000000   -0.000021681
      4        1          -0.000034823    0.000060308   -0.000021768
      5        1          -0.000034823   -0.000060308   -0.000021768
 -------------------------------------------------------------------
 Cartesian Forces:  Max     0.000069489 RMS     0.000036101

 GradGradGradGradGradGradGradGradGradGradGradGradGradGradGradGradGradGrad
 Berny optimization.
 Using GEDIIS/GDIIS optimizer.
 FormGI is forming the generalized inverse of G from B-inverse, IUseBI=4.
 Internal  Forces:  Max     0.000072658 RMS     0.000033771
 Search for a local minimum.
 Step number   2 out of a maximum of   24
 All quantities printed in internal units (Hartrees-Bohrs-Radians)
 Mixed Optimization -- En-DIIS/RFO-DIIS
 Swapping is turned off.
 Update second derivatives using D2CorX and points    1    2
 DE= -2.54D-07 DEPred=-3.33D-07 R= 7.61D-01
 Trust test= 7.61D-01 RLast= 1.71D-03 DXMaxT set to 3.00D-01
 The second derivative matrix:
                          R1        R2        R3        R4        A1
           R1           0.08543
           R2           0.00353   0.38857
           R3           0.00354   0.03227   0.38866
           R4           0.00354   0.03227   0.03232   0.38866
           A1          -0.00124  -0.00307  -0.00308  -0.00308   0.15988
           A2          -0.00122  -0.00301  -0.00301  -0.00301  -0.00012
           A3          -0.00105  -0.00249  -0.00249  -0.00249  -0.00012
           A4           0.00145   0.00365   0.00365   0.00365   0.00014
           A5           0.00123   0.00296   0.00296   0.00296   0.00014
           A6           0.00119   0.00289   0.00289   0.00289   0.00013
           D1           0.00017   0.00053   0.00053   0.00053  -0.00000
           D2          -0.00012  -0.00038  -0.00038  -0.00038   0.00000
           D3           0.00019   0.00061   0.00061   0.00061  -0.00000
           D4           0.00031   0.00099   0.00099   0.00099  -0.00000
                          A2        A3        A4        A5        A6
           A2           0.15988
           A3          -0.00012   0.15988
           A4           0.00014   0.00014   0.15984
           A5           0.00014   0.00013  -0.00016   0.15985
           A6           0.00013   0.00013  -0.00015  -0.00014   0.15986
           D1          -0.00000   0.00000   0.00000  -0.00000  -0.00000
           D2           0.00000  -0.00000  -0.00000   0.00000  -0.00000
           D3          -0.00000   0.00000   0.00000  -0.00000  -0.00000
           D4          -0.00000   0.00000   0.00000  -0.00000  -0.00000
                          D1        D2        D3        D4
           D1           0.00328
           D2          -0.00000   0.00328
           D3           0.00000  -0.00000   0.00328
           D4           0.00001  -0.00000   0.00001   0.00328
 ITU=  0  0
     Eigenvalues ---    0.05023   0.06350   0.08191   0.08546   0.15983
     Eigenvalues ---    0.16000   0.35634   0.35634   0.45346
 En-DIIS/RFO-DIIS/Sim-DIIS IScMMF=       -3 using points:     2    1
 RFO step:  Lambda=-3.60726504D-08.
 DidBck=F Rises=F RFO-DIIS coefs:    0.87565    0.12435
 Iteration  1 RMS(Cart)=  0.00007971 RMS(Int)=  0.00000000
 Iteration  2 RMS(Cart)=  0.00000000 RMS(Int)=  0.00000000
 Variable       Old X    -DE/DX   Delta X   Delta X   Delta X     New X
                                 (Linear)    (Quad)   (Total)
    R1        3.79531   0.00001   0.00014  -0.00010   0.00004   3.79535
    R2        2.04586   0.00007   0.00009   0.00007   0.00016   2.04602
    R3        2.04586   0.00007   0.00009   0.00007   0.00016   2.04602
    R4        2.04586   0.00007   0.00009   0.00007   0.00016   2.04602
    A1        1.96518  -0.00000   0.00001  -0.00004  -0.00003   1.96515
    A2        1.96518  -0.00000   0.00001  -0.00004  -0.00003   1.96515
    A3        1.96518  -0.00000   0.00001  -0.00004  -0.00003   1.96515
    A4        1.85307   0.00000  -0.00001   0.00004   0.00003   1.85310
    A5        1.85307   0.00000  -0.00001   0.00004   0.00003   1.85310
    A6        1.85307   0.00000  -0.00001   0.00004   0.00003   1.85310
    D1        2.15801  -0.00000   0.00001  -0.00004  -0.00003   2.15798
    D2       -2.15801   0.00000  -0.00001   0.00004   0.00003  -2.15798
    D3        2.15801  -0.00000   0.00001  -0.00004  -0.00003   2.15798
    D4       -1.96717  -0.00001   0.00002  -0.00008  -0.00007  -1.96723
         Item               Value     Threshold  Converged?
 Maximum Force            0.000073     0.000002     NO 
 RMS     Force            0.000034     0.000001     NO 
 Maximum Displacement     0.000170     0.000006     NO 
 RMS     Displacement     0.000080     0.000004     NO 
 Predicted change in Energy=-1.803635D-08
 GradGradGradGradGradGradGradGradGradGradGradGradGradGradGradGradGradGrad

                          Input orientation:                          
 ---------------------------------------------------------------------
 Center     Atomic      Atomic             Coordinates (Angstroms)
 Number     Number       Type             X           Y           Z
 ---------------------------------------------------------------------
      1          6           0        0.000001   -0.000000   -0.000003
      2          3           0       -0.000000   -0.000000    2.008409
      3          1           0        0.999602    0.000000   -0.415994
      4          1           0       -0.499799    0.865680   -0.415995
      5          1           0       -0.499800   -0.865680   -0.415994
 ---------------------------------------------------------------------
                    Distance matrix (angstroms):
                    1          2          3          4          5
     1  C    0.000000
     2  Li   2.008413   0.000000
     3  H    1.082705   2.622392   0.000000
     4  H    1.082705   2.622391   1.731360   0.000000
     5  H    1.082705   2.622391   1.731360   1.731360   0.000000
 Stoichiometry    CH3Li
 Framework group  C1[X(CH3Li)]
 Deg. of freedom     9
 Full point group                 C1      NOp   1
 Largest Abelian subgroup         C1      NOp   1
 Largest concise Abelian subgroup C1      NOp   1
                         Standard orientation:                         
 ---------------------------------------------------------------------
 Center     Atomic      Atomic             Coordinates (Angstroms)
 Number     Number       Type             X           Y           Z
[...]
   3.  C 1 (px)     0.0000  0.1272  1.0753  0.0000  0.0000  0.0000  0.1618  0.4110
   4.  C 1 (py)     0.0000  0.0000  0.0000  1.1722  0.0000  0.0000  0.0000  0.0000
   5.  C 1 (pz)     0.0000  0.0000  0.0000  0.0000  1.1722  0.0000  0.0000  0.0000
   6. Li 2 (s)     -0.0017 -0.0175  0.0343  0.0000  0.0000  0.9911 -0.2863 -0.0390
   7. Li 2 (s)     -0.0001 -0.0706  0.0874  0.0000  0.0000  0.0345  1.1109  0.3068
   8. Li 2 (px)     0.0000  0.0000  0.0000  0.0000  0.0000  0.0000  0.0000  1.2237
   9. Li 2 (py)     0.0000  0.0000  0.0000  0.0000  0.0000  0.0000  0.0000  0.0000
  10. Li 2 (pz)     0.0000  0.0000  0.0000  0.0000  0.0000  0.0000  0.0000  0.0000
  11.  H 3 (s)      0.0000 -0.3261 -0.1413  0.1823  0.2822  0.0000 -0.0739 -0.1616
  12.  H 4 (s)      0.0000 -0.3261 -0.1413  0.1532 -0.2990  0.0000 -0.0739 -0.1616
  13.  H 5 (s)      0.0000 -0.3261 -0.1413 -0.3356  0.0168  0.0000 -0.0739 -0.1616

           AO          9      10      11      12      13
      ------------ ------- ------- ------- ------- -------
   1.  C 1 (s)      0.0000  0.0000  0.0031  0.0031  0.0031
   2.  C 1 (s)      0.0000  0.0000 -0.3799 -0.3799 -0.3799
   3.  C 1 (px)     0.0000  0.0000 -0.1343 -0.1343 -0.1343
   4.  C 1 (py)    -0.1363  0.0000  0.1733  0.1456 -0.3189
   5.  C 1 (pz)     0.0000 -0.1363  0.2682 -0.2842  0.0160
   6. Li 2 (s)      0.0000  0.0000  0.0025  0.0025  0.0025
   7. Li 2 (s)      0.0000  0.0000 -0.0373 -0.0373 -0.0373
   8. Li 2 (px)     0.0000  0.0000  0.0000  0.0000  0.0000
   9. Li 2 (py)     1.0158  0.0000  0.0000  0.0000  0.0000
  10. Li 2 (pz)     0.0000  1.0158  0.0000  0.0000  0.0000
  11.  H 3 (s)      0.0297  0.0459  1.2849 -0.0183 -0.0183
  12.  H 4 (s)      0.0249 -0.0486 -0.0183  1.2849 -0.0183
  13.  H 5 (s)     -0.0546  0.0027 -0.0183 -0.0183  1.2849


 NAO density matrix:

           NAO         1       2       3       4       5       6       7       8
      ------------ ------- ------- ------- ------- ------- ------- ------- -------
   1.  C 1( 1s )    2.0000  0.0001  0.0012  0.0000  0.0000  0.0000  0.0032 -0.0024
   2.  C 1( 2s )    0.0001  1.1612 -0.1934  0.0000  0.0000  0.0032  0.3508  0.1428
   3.  C 1( 2px)    0.0012 -0.1934  1.3696  0.0000  0.0000 -0.0014 -0.6887 -0.3878
   4.  C 1( 2py)    0.0000  0.0000  0.0000  0.9901  0.0000  0.0000  0.0000  0.0000
   5.  C 1( 2pz)    0.0000  0.0000  0.0000  0.0000  0.9901  0.0000  0.0000  0.0000
   6. Li 2( 1s )    0.0000  0.0032 -0.0014  0.0000  0.0000  1.9999 -0.0004 -0.0094
   7. Li 2( 2s )    0.0032  0.3508 -0.6887  0.0000  0.0000 -0.0004  0.4030  0.2147
   8. Li 2( 2px)   -0.0024  0.1428 -0.3878  0.0000  0.0000 -0.0094  0.2147  0.1167
   9. Li 2( 2py)    0.0000  0.0000  0.0000  0.0862  0.0000  0.0000  0.0000  0.0000
  10. Li 2( 2pz)    0.0000  0.0000  0.0000  0.0000  0.0862  0.0000  0.0000  0.0000
  11.  H 3( 1s )   -0.0004  0.5142  0.2591 -0.4414 -0.6832 -0.0017 -0.0071 -0.0306
  12.  H 4( 1s )   -0.0004  0.5142  0.2591 -0.3710  0.7239 -0.0017 -0.0071 -0.0306
  13.  H 5( 1s )   -0.0004  0.5142  0.2591  0.8124 -0.0407 -0.0017 -0.0071 -0.0306

           NAO         9      10      11      12      13
      ------------ ------- ------- ------- ------- -------
   1.  C 1( 1s )    0.0000  0.0000 -0.0004 -0.0004 -0.0004
   2.  C 1( 2s )    0.0000  0.0000  0.5142  0.5142  0.5142
   3.  C 1( 2px)    0.0000  0.0000  0.2591  0.2591  0.2591
   4.  C 1( 2py)    0.0862  0.0000 -0.4414 -0.3710  0.8124
   5.  C 1( 2pz)    0.0000  0.0862 -0.6832  0.7239 -0.0407
   6. Li 2( 1s )    0.0000  0.0000 -0.0017 -0.0017 -0.0017
   7. Li 2( 2s )    0.0000  0.0000 -0.0071 -0.0071 -0.0071
   8. Li 2( 2px)    0.0000  0.0000 -0.0306 -0.0306 -0.0306
   9. Li 2( 2py)    0.0075  0.0000 -0.0384 -0.0323  0.0707
  10. Li 2( 2pz)    0.0000  0.0075 -0.0595  0.0630 -0.0035
  11.  H 3( 1s )   -0.0384 -0.0595  0.9848 -0.0176 -0.0176
  12.  H 4( 1s )   -0.0323  0.0630 -0.0176  0.9848 -0.0176
  13.  H 5( 1s )    0.0707 -0.0035 -0.0176 -0.0176  0.9848


 NATURAL BOND ORBITAL ANALYSIS:

 Initiate 2-center NBO search using THRESH = 1.900 and PRJTHR = 0.300

 Search of NAO DM block for core orbitals on atom:   1
      Eigenvector ( 1) has occupancy 1.99999
            1.0000 0.0000 0.0000 0.0000 0.0000
        1 eigenvector(s) stashed in permanent list

 Search of NAO DM block for core orbitals on atom:   2
      Eigenvector ( 1) has occupancy 1.99995
            1.0000 0.0000 0.0000 0.0000 0.0000
        1 eigenvector(s) stashed in permanent list

 Core orbitals projected from the NAO density matrix
       8.000 electrons remain (>1.900); search continues

 Search of NAO DM block for the following atom(s):   1
      Select eigenvectors with eigenvalue > 1.900
       1.485 1.046 0.990 0.990 0.000

 No NHOs identified in the 1-center search of the NAO density matrix
       8.000 electrons remain (>1.900); search continues

 Search of NAO DM block for the following atom(s):   1   2
      Select eigenvectors with eigenvalue > 1.900
       2.000 1.050 0.998 0.998 0.000 0.000 0.000 0.000 0.000 0.000
      Eigenvector ( 1) has occupancy 2.00000
            0.0000-0.4037 0.7608 0.0000 0.0000 0.0000-0.4488-0.2384
            0.0000 0.0000
      1 hybrid on atom 1 stashed in prospective list
      1 hybrid on atom 2 stashed in prospective list

 Search of NAO DM block for the following atom(s):   1   3
      Select eigenvectors with eigenvalue > 1.900
       1.994 1.484 1.027 0.990 0.000 0.000
      Eigenvector ( 1) has occupancy 1.99449
            0.0000 0.3940 0.1691-0.3085-0.4776 0.7021
      1 hybrid on atom 1 stashed in prospective list
      1 hybrid on atom 3 stashed in prospective list

 Search of NAO DM block for the following atom(s):   1   4
      Select eigenvectors with eigenvalue > 1.900
       1.994 1.484 1.027 0.990 0.000 0.000
      Eigenvector ( 1) has occupancy 1.99449
            0.0000 0.3940 0.1691-0.2593 0.5060 0.7021
      1 hybrid on atom 1 stashed in prospective list
      1 hybrid on atom 4 stashed in prospective list

 Search of NAO DM block for the following atom(s):   1   5
      Select eigenvectors with eigenvalue > 1.900
       1.994 1.484 1.027 0.990 0.000 0.000
      Eigenvector ( 1) has occupancy 1.99449
            0.0000 0.3940 0.1691 0.5679-0.0284 0.7021
      1 hybrid on atom 1 stashed in prospective list
      1 hybrid on atom 5 stashed in prospective list

 Stash prospective hybrids having projection expectation value > 0.300
       0.994 0.994 0.994 0.994 0.994 0.994 0.993 0.993
      0 hybrids eliminated in 1 pass
      8 hybrids moved from prospective to permanent list

 NHOs of 2-center eigenvectors projected from the NAO density matrix
       0.017 electrons remain in the fully projected matrix

 Search of NHO DM block for the following atom(s):   1
      Select eigenvectors with eigenvalue > 1.900
       2.000 0.000 0.000 0.000 0.000
      Eigenvector ( 1) has occupancy 1.99999
            1.0000 0.0000 0.0000 0.0000 0.0000
           NBO accepted:    1. Label:CR ( 1)   1
        1 eigenvector(s) stashed in permanent list

 Search of NHO DM block for the following atom(s):   2
      Select eigenvectors with eigenvalue > 1.900
       2.000 0.008 0.008 0.002 0.000
      Eigenvector ( 1) has occupancy 1.99995
            1.0000 0.0000 0.0000 0.0000 0.0000
           NBO accepted:    2. Label:CR ( 1)   2
        1 eigenvector(s) stashed in permanent list

  1-center NBOs projected from the NHO density matrix
       8.000 electrons remain (>1.900); search continues

 Search of NHO DM block for the following atom(s):   1   2
      Select eigenvectors with eigenvalue > 1.900
       1.999 0.001 0.000 0.000 0.000 0.000 0.000 0.000 0.000 0.000
      Eigenvector ( 1) has occupancy 1.99917
            0.0000 0.0000 0.0000 0.0000 0.8609 0.0000 0.5087 0.0000
            0.0000 0.0000
      Occupancy is 1.999 after deleting minor hybrid components
            0.0000 0.0000 0.0000 0.0000 0.8609 0.0000 0.5087 0.0000
            0.0000 0.0000
           NBO accepted:    3. Label:BD ( 1)   1   2
      Occupancy is 0.001 for antibonding component
            0.0000 0.0000 0.0000 0.0000-0.5087 0.0000 0.8609 0.0000
            0.0000 0.0000
           NBO accepted:    4. Label:BD*( 1)   1   2
        2 eigenvector(s) stashed in permanent list

 Search of NHO DM block for the following atom(s):   1   3
      Select eigenvectors with eigenvalue > 1.900
       1.994 0.001 0.000 0.000 0.000 0.000
      Eigenvector ( 1) has occupancy 1.99386
            0.0000 0.7115 0.0000 0.0000 0.0000 0.7027
      Occupancy is 1.994 after deleting minor hybrid components
            0.0000 0.7115 0.0000 0.0000 0.0000 0.7027
           NBO accepted:    5. Label:BD ( 1)   1   3
      Occupancy is 0.001 for antibonding component
            0.0000-0.7027 0.0000 0.0000 0.0000 0.7115
           NBO accepted:    6. Label:BD*( 1)   1   3
        2 eigenvector(s) stashed in permanent list

 Search of NHO DM block for the following atom(s):   1   4
      Select eigenvectors with eigenvalue > 1.900
       1.994 0.001 0.000 0.000 0.000 0.000
      Eigenvector ( 1) has occupancy 1.99386
            0.0000 0.0000 0.7115 0.0000 0.0000 0.7027
      Occupancy is 1.994 after deleting minor hybrid components
            0.0000 0.0000 0.7115 0.0000 0.0000 0.7027
           NBO accepted:    7. Label:BD ( 1)   1   4
      Occupancy is 0.001 for antibonding component
            0.0000 0.0000-0.7027 0.0000 0.0000 0.7115
           NBO accepted:    8. Label:BD*( 1)   1   4
        2 eigenvector(s) stashed in permanent list

 Search of NHO DM block for the following atom(s):   1   5
      Select eigenvectors with eigenvalue > 1.900
       1.994 0.001 0.000 0.000 0.000 0.000
      Eigenvector ( 1) has occupancy 1.99386
            0.0000 0.0000 0.0000 0.7115 0.0000 0.7027
      Occupancy is 1.994 after deleting minor hybrid components
            0.0000 0.0000 0.0000 0.7115 0.0000 0.7027
           NBO accepted:    9. Label:BD ( 1)   1   5
      Occupancy is 0.001 for antibonding component
            0.0000 0.0000 0.0000-0.7027 0.0000 0.7115
           NBO accepted:   10. Label:BD*( 1)   1   5
        2 eigenvector(s) stashed in permanent list

  2-center NBOs projected from the NHO density matrix
       0.017 electrons remain in the fully projected matrix

                            Occupancies       Lewis Structure    Low   High
         Max    Occ     -------------------  -----------------   occ   occ
  Cycle  Ctr   Thresh    Lewis   non-Lewis     CR  BD  nC  LP    (L)   (NL)
 ============================================================================
    1     2     1.90    11.98068   0.01932      2   4   0   0     0      0
 ----------------------------------------------------------------------------

 Structure accepted: No low occupancy Lewis orbitals

 -------------------------------------------------------
   Core                      3.99994 ( 99.998% of   4)
   Valence Lewis             7.98075 ( 99.759% of   8)
  ==================      =============================
   Total Lewis              11.98068 ( 99.839% of  12)
  -----------------------------------------------------
   Valence non-Lewis         0.00250 (  0.021% of  12)
   Rydberg non-Lewis         0.01681 (  0.140% of  12)
  ==================      =============================
   Total non-Lewis           0.01932 (  0.161% of  12)
 -------------------------------------------------------


     (Occupancy)   Bond orbital / Coefficients / Hybrids
 ------------------ Lewis ------------------------------------------------------
   1. (1.99999) CR ( 1) C  1            s(100.00%)
                                         1.0000  0.0000  0.0000  0.0000  0.0000
   2. (1.99995) CR ( 1)Li  2            s(100.00%)
                                         1.0000  0.0000  0.0000  0.0000  0.0000
   3. (1.99917) BD ( 1) C  1-Li  2
               ( 74.12%)   0.8609* C  1 s( 19.20%)p 4.21( 80.80%)
                                         0.0000  0.4382 -0.8989  0.0000  0.0000
               ( 25.88%)   0.5087*Li  2 s( 77.99%)p 0.28( 22.01%)
                                         0.0000  0.8831  0.4692  0.0000  0.0000
   4. (1.99386) BD ( 1) C  1- H  3
               ( 50.62%)   0.7115* C  1 s( 26.93%)p 2.71( 73.07%)
                                         0.0000  0.5190  0.2530 -0.4431 -0.6858
               ( 49.38%)   0.7027* H  3 s(100.00%)
                                         1.0000
   5. (1.99386) BD ( 1) C  1- H  4
               ( 50.62%)   0.7115* C  1 s( 26.93%)p 2.71( 73.07%)
                                         0.0000  0.5190  0.2530 -0.3724  0.7266
               ( 49.38%)   0.7027* H  4 s(100.00%)
                                         1.0000
   6. (1.99386) BD ( 1) C  1- H  5
               ( 50.62%)   0.7115* C  1 s( 26.93%)p 2.71( 73.07%)
                                         0.0000  0.5190  0.2530  0.8155 -0.0408
               ( 49.38%)   0.7027* H  5 s(100.00%)
                                         1.0000
 ---------------- non-Lewis ----------------------------------------------------
   7. (0.00063) BD*( 1) C  1-Li  2
               ( 25.88%)   0.5087* C  1 s( 19.20%)p 4.21( 80.80%)
                                         0.0000 -0.4382  0.8989  0.0000  0.0000
               ( 74.12%)  -0.8609*Li  2 s( 77.99%)p 0.28( 22.01%)
                                         0.0000 -0.8831 -0.4692  0.0000  0.0000
   8. (0.00062) BD*( 1) C  1- H  3
               ( 49.38%)   0.7027* C  1 s( 26.93%)p 2.71( 73.07%)
                                         0.0000 -0.5190 -0.2530  0.4431  0.6858
               ( 50.62%)  -0.7115* H  3 s(100.00%)
                                        -1.0000
   9. (0.00062) BD*( 1) C  1- H  4
               ( 49.38%)   0.7027* C  1 s( 26.93%)p 2.71( 73.07%)
                                         0.0000 -0.5190 -0.2530  0.3724 -0.7266
               ( 50.62%)  -0.7115* H  4 s(100.00%)
                                        -1.0000
  10. (0.00062) BD*( 1) C  1- H  5
               ( 49.38%)   0.7027* C  1 s( 26.93%)p 2.71( 73.07%)
                                         0.0000 -0.5190 -0.2530 -0.8155  0.0408
               ( 50.62%)  -0.7115* H  5 s(100.00%)
                                        -1.0000
  11. (0.00750) RY ( 1)Li  2            s(  0.00%)p 1.00(100.00%)
                                         0.0000  0.0000  0.0000  0.6162  0.7876
  12. (0.00750) RY ( 2)Li  2            s(  0.00%)p 1.00(100.00%)
                                         0.0000  0.0000  0.0000  0.7876 -0.6162
  13. (0.00181) RY ( 3)Li  2            s( 22.01%)p 3.54( 77.99%)
                                         0.0000  0.4692 -0.8831  0.0000  0.0000


 NHO DIRECTIONALITY AND BOND BENDING (deviation from line of nuclear centers at
                                      the position of maximum hybrid amplitude)

         [Thresholds for printing:  angular deviation  >  1.0 degree]
                                    p- or d-character  > 25.0%
                                    orbital occupancy  >  0.10e

                        Line of Centers        Hybrid 1             Hybrid 2
                        ---------------  -------------------  ------------------
           NBO            Theta   Phi    Theta   Phi    Dev   Theta   Phi    Dev
 ===============================================================================
   4. BD ( 1) C  1- H  3  140.8  307.5   142.8  301.8   4.0     --     --    --
   5. BD ( 1) C  1- H  4   34.8  312.4    32.5  306.4   4.0     --     --    --
   6. BD ( 1) C  1- H  5   92.6   67.4    92.7   71.4   4.0     --     --    --


 SECOND ORDER PERTURBATION THEORY ANALYSIS OF FOCK MATRIX IN NBO BASIS

     Threshold for printing:   0.50 kcal/mol
                                                          E(2) E(NL)-E(L) F(L,NL)
      Donor (L) NBO              Acceptor (NL) NBO      kcal/mol   a.u.    a.u.
 ===============================================================================

 within unit  1
    4. BD ( 1) C  1- H  3      11. RY ( 1)Li  2            1.66    0.73   0.031
    4. BD ( 1) C  1- H  3      13. RY ( 3)Li  2            0.53    0.76   0.018
    5. BD ( 1) C  1- H  4      12. RY ( 2)Li  2            1.38    0.73   0.028
    5. BD ( 1) C  1- H  4      13. RY ( 3)Li  2            0.53    0.76   0.018
    6. BD ( 1) C  1- H  5      11. RY ( 1)Li  2            0.56    0.73   0.018
    6. BD ( 1) C  1- H  5      12. RY ( 2)Li  2            1.12    0.73   0.026
    6. BD ( 1) C  1- H  5      13. RY ( 3)Li  2            0.53    0.76   0.018


 NATURAL BOND ORBITALS (Summary):

                                                     Principal Delocalizations
           NBO                 Occupancy    Energy   (geminal,vicinal,remote)
 ===============================================================================
 Molecular unit  1  (CH3Li)
 ------ Lewis --------------------------------------
    1. CR ( 1) C  1             1.99999   -10.90731
    2. CR ( 1)Li  2             1.99995    -2.33264
    3. BD ( 1) C  1-Li  2       1.99917    -0.26804
    4. BD ( 1) C  1- H  3       1.99386    -0.54751  11(v),13(v)
    5. BD ( 1) C  1- H  4       1.99386    -0.54751  12(v),13(v)
    6. BD ( 1) C  1- H  5       1.99386    -0.54751  12(v),11(v),13(v)
 ------ non-Lewis ----------------------------------
    7. BD*( 1) C  1-Li  2       0.00063     0.36030
    8. BD*( 1) C  1- H  3       0.00062     0.81174
    9. BD*( 1) C  1- H  4       0.00062     0.81174
   10. BD*( 1) C  1- H  5       0.00062     0.81174
   11. RY ( 1)Li  2             0.00750     0.18469
   12. RY ( 2)Li  2             0.00750     0.18469
   13. RY ( 3)Li  2             0.00181     0.21367
          -------------------------------
                 Total Lewis   11.98068  ( 99.8390%)
           Valence non-Lewis    0.00250  (  0.0209%)
           Rydberg non-Lewis    0.01681  (  0.1401%)
          -------------------------------
               Total unit  1   12.00000  (100.0000%)
              Charge unit  1    0.00000

 $CHOOSE
   BOND S 1 2 S 1 3 S 1 4 S 1 5 END
 $END

 NBO analysis completed in 0.14 CPU seconds (0 wall seconds)
 Maximum scratch memory used by NBO was 222354 words (1.70 MB)
 Maximum scratch memory used by G16NBO was 8427 words (0.06 MB)

 Opening RunExU unformatted file "/cluster/work/users/beto93/LiCH3/Gau-1553522.EUF"
 Read unf file /cluster/work/users/beto93/LiCH3/Gau-1553522.EUF:
 Label Gaussian matrix elements                                         IVers= 2 NLab= 2 Version=ES64L-G16RevC.01
 Title NBO-LiCH3                                                       
 NAtoms=     5 NBasis=    13 NBsUse=    13 ICharg=     0 Multip=     1 NE=    12 Len12L=8 Len4L=8 IOpCl= 0 ICGU=111
 GAUSSIAN SCALARS                    NI= 1 NR= 1 NTot=       1 LenBuf=    2 NRI=1 N=    1000
 NPA CHARGES                         NI= 0 NR= 1 NTot=       5 LenBuf= 4000 NRI=1 N=       5
 Recovered energy= -46.4215878959     dipole=     -1.678304139809      0.000000210604      0.000000158634
 Unable to Open any file for archive entry.
 1\1\GINC-C1-1\FOpt\RHF\STO-3G\C1H3Li1\BETO93\24-Jul-2024\0\\#OPT=VeryT
 ight INT=UltraFine RHF/STO-3G Pop=NBO7Read\\NBO-LiCH3\\0,1\C,0.0000008
 623,0.0000000156,-0.0000043018\Li,-0.0000001286,-0.0000000378,2.008429
 7009\H,0.9995973067,0.0000000377,-0.4160004353\H,-0.4997971547,0.86567
 58287,-0.4160008969\H,-0.4997972105,-0.8656758442,-0.4160007986\\Versi
 on=ES64L-G16RevC.01\State=1-A\HF=-46.4215879\RMSD=5.088e-09\RMSF=2.421
 e-08\Dipole=-0.0000011,-0.0000001,1.6783041\Quadrupole=-2.8025991,-2.8
 025991,5.6051982,0.,-0.0000046,-0.0000004\PG=C01 [X(C1H3Li1)]\\@
 The archive entry for this job was punched.


 CHRISTMAS IS ON TOP OF A STEEP HILL.
 THE CLOSER YOU GET, THE STEEPER THE HILL IS.
          -- LINUS, OF PEANUTS
 Job cpu time:       0 days  0 hours  0 minutes 30.6 seconds.
 Elapsed time:       0 days  0 hours  0 minutes 10.7 seconds.
 File lengths (MBytes):  RWF=     10 Int=      0 D2E=      0 Chk=      1 Scr=      1
 Normal termination of Gaussian 16 at Wed Jul 24 10:54:20 2024.
