 Entering Gaussian System, Link 0=g16
 Initial command:
 /cluster/software/Gaussian/g16_C.01/l1.exe "/cluster/work/users/beto93/mol91/Gau-1077992.inp" -scrdir="/cluster/work/users/beto93/mol91/"
 Entering Link 1 = /cluster/software/Gaussian/g16_C.01/l1.exe PID=   1078001.
  
 Copyright (c) 1988-2019, Gaussian, Inc.  All Rights Reserved.
  
 This is part of the Gaussian(R) 16 program.  It is based on
 the Gaussian(R) 09 system (copyright 2009, Gaussian, Inc.),
 the Gaussian(R) 03 system (copyright 2003, Gaussian, Inc.),
 the Gaussian(R) 98 system (copyright 1998, Gaussian, Inc.),
 the Gaussian(R) 94 system (copyright 1995, Gaussian, Inc.),
 the Gaussian 92(TM) system (copyright 1992, Gaussian, Inc.),
 the Gaussian 90(TM) system (copyright 1990, Gaussian, Inc.),
 the Gaussian 88(TM) system (copyright 1988, Gaussian, Inc.),
 the Gaussian 86(TM) system (copyright 1986, Carnegie Mellon
 University), and the Gaussian 82(TM) system (copyright 1983,
 Carnegie Mellon University). Gaussian is a federally registered
 trademark of Gaussian, Inc.
  
 This software contains proprietary and confidential information,
 including trade secrets, belonging to Gaussian, Inc.
  
 This software is provided under written license and may be
 used, copied, transmitted, or stored only in accord with that
 written license.
  
 The following legend is applicable only to US Government
 contracts under FAR:
  
                    RESTRICTED RIGHTS LEGEND
  
 Use, reproduction and disclosure by the US Government is
 subject to restrictions as set forth in subparagraphs (a)
 and (c) of the Commercial Computer Software - Restricted
 Rights clause in FAR 52.227-19.
  
 Gaussian, Inc.
 340 Quinnipiac St., Bldg. 40, Wallingford CT 06492
  
  
 ---------------------------------------------------------------
 Warning -- This program may not be used in any manner that
 competes with the business of Gaussian, Inc. or will provide
 assistance to any competitor of Gaussian, Inc.  The licensee
 of this program is prohibited from giving any competitor of
 Gaussian, Inc. access to this program.  By using this program,
 the user acknowledges that Gaussian, Inc. is engaged in the
 business of creating and licensing software in the field of
 computational chemistry and represents and warrants to the
 licensee that it is not a competitor of Gaussian, Inc. and that
 it will not use this program in any manner prohibited above.
 ---------------------------------------------------------------
  

 Cite this work as:
 Gaussian 16, Revision C.01,
 M. J. Frisch, G. W. Trucks, H. B. Schlegel, G. E. Scuseria, 
 M. A. Robb, J. R. Cheeseman, G. Scalmani, V. Barone, 
 G. A. Petersson, H. Nakatsuji, X. Li, M. Caricato, A. V. Marenich, 
 J. Bloino, B. G. Janesko, R. Gomperts, B. Mennucci, H. P. Hratchian, 
 J. V. Ortiz, A. F. Izmaylov, J. L. Sonnenberg, D. Williams-Young, 
 F. Ding, F. Lipparini, F. Egidi, J. Goings, B. Peng, A. Petrone, 
 T. Henderson, D. Ranasinghe, V. G. Zakrzewski, J. Gao, N. Rega, 
 G. Zheng, W. Liang, M. Hada, M. Ehara, K. Toyota, R. Fukuda, 
 J. Hasegawa, M. Ishida, T. Nakajima, Y. Honda, O. Kitao, H. Nakai, 
 T. Vreven, K. Throssell, J. A. Montgomery, Jr., J. E. Peralta, 
 F. Ogliaro, M. J. Bearpark, J. J. Heyd, E. N. Brothers, K. N. Kudin, 
 V. N. Staroverov, T. A. Keith, R. Kobayashi, J. Normand, 
 K. Raghavachari, A. P. Rendell, J. C. Burant, S. S. Iyengar, 
 J. Tomasi, M. Cossi, J. M. Millam, M. Klene, C. Adamo, R. Cammi, 
 J. W. Ochterski, R. L. Martin, K. Morokuma, O. Farkas, 
 J. B. Foresman, and D. J. Fox, Gaussian, Inc., Wallingford CT, 2019.
 
 ******************************************
 Gaussian 16:  ES64L-G16RevC.01  3-Jul-2019
                18-Nov-2024 
 ******************************************
 %LindaWorkers=c1-53-ib
 %NProcShared=4
 Will use up to    4 processors via shared memory.
 %mem=25GB
 %chk=mol91.chk
 SetLPE:    new flags="-opt 'Tsnet.Node.lindarsharg: ssh'  -nodelist 'c1-53-ib.saga' -env GAUSS_MDEF=3355443200 -env GAUSS_EXEDIR="/cluster/software/Gaussian/g16_C.01/bsd:/cluster/software/Gaussian/g16_C.01""
 Will use up to    1 processors via Linda.
 -----------------------------------------------------------------
 #RHF/6-31G* int=nobasistransform Symmetry=None 5D 7F Pop=NBO7Read
 -----------------------------------------------------------------
 1/38=1,163=2,172=1/1;
 2/12=2,15=3,17=6,18=5,40=1/2;
 3/5=1,6=6,7=1,8=11,11=1,25=1,30=1,60=-1,116=1/1,2,3;
 4//1;
 5/5=2,38=5/2;
 6/7=2,8=2,9=2,10=2,28=1,40=2,113=1,114=1,124=2103/1,12;
 99/5=1,9=1/99;
 ---------
 mol91-NBO
 ---------
 Symbolic Z-matrix:
 Charge =  0 Multiplicity = 1
 C                     0.        0.        0. 
 C                     0.        0.76201   1.26575 
 C                     0.       -0.76201   1.26575 
 C                     0.76201   0.       -1.26575 
 C                    -0.76201   0.       -1.26575 
 H                    -0.91402   1.26508   1.56809 
 H                     0.91402   1.26508   1.56809 
 H                    -0.91402  -1.26508   1.56809 
 H                     0.91402  -1.26508   1.56809 
 H                     1.26508  -0.91402  -1.56809 
 H                     1.26508   0.91402  -1.56809 
 H                    -1.26508  -0.91402  -1.56809 
 H                    -1.26508   0.91402  -1.56809 
 
                          Input orientation:                          
 ---------------------------------------------------------------------
 Center     Atomic      Atomic             Coordinates (Angstroms)
 Number     Number       Type             X           Y           Z
 ---------------------------------------------------------------------
      1          6           0        0.000000    0.000000    0.000000
      2          6           0        0.000000    0.762014    1.265752
      3          6           0        0.000000   -0.762014    1.265752
      4          6           0        0.762014    0.000000   -1.265752
      5          6           0       -0.762014    0.000000   -1.265752
      6          1           0       -0.914023    1.265075    1.568090
      7          1           0        0.914023    1.265075    1.568090
      8          1           0       -0.914023   -1.265075    1.568090
      9          1           0        0.914023   -1.265075    1.568090
     10          1           0        1.265075   -0.914023   -1.568090
     11          1           0        1.265075    0.914023   -1.568090
     12          1           0       -1.265075   -0.914023   -1.568090
     13          1           0       -1.265075    0.914023   -1.568090
 ---------------------------------------------------------------------
                    Distance matrix (angstroms):
                    1          2          3          4          5
     1  C    0.000000
     2  C    1.477428   0.000000
     3  C    1.477428   1.524028   0.000000
     4  C    1.477428   2.751335   2.751335   0.000000
     5  C    1.477428   2.751335   2.751335   1.524028   0.000000
     6  H    2.212410   1.086240   2.244089   3.527063   3.107118
     7  H    2.212410   1.086240   2.244089   3.107118   3.527063
     8  H    2.212410   2.244089   1.086240   3.527063   3.107118
     9  H    2.212410   2.244089   1.086240   3.107118   3.527063
    10  H    2.212410   3.527063   3.107118   1.086240   2.244089
    11  H    2.212410   3.107118   3.527063   1.086240   2.244089
    12  H    2.212410   3.527063   3.107118   2.244089   1.086240
    13  H    2.212410   3.107118   3.527063   2.244089   1.086240
                    6          7          8          9         10
     6  H    0.000000
     7  H    1.828046   0.000000
     8  H    2.530150   3.121444   0.000000
     9  H    3.121444   2.530150   1.828046   0.000000
    10  H    4.396881   3.835014   3.835014   3.175232   0.000000
    11  H    3.835014   3.175232   4.396881   3.835014   1.828046
    12  H    3.835014   4.396881   3.175232   3.835014   2.530150
    13  H    3.175232   3.835014   3.835014   4.396881   3.121444
                   11         12         13
    11  H    0.000000
    12  H    3.121444   0.000000
    13  H    2.530150   1.828046   0.000000
 Symmetry turned off by external request.
 Stoichiometry    C5H8
 Rotational constants (GHZ):          10.6370402           4.1946102           4.1946102
 Standard basis: 6-31G(d) (5D, 7F)
    86 basis functions,   172 primitive gaussians,    91 cartesian basis functions
    19 alpha electrons       19 beta electrons
       nuclear repulsion energy       170.7581327700 Hartrees.
 NAtoms=   13 NActive=   13 NUniq=   13 SFac= 1.00D+00 NAtFMM=   60 NAOKFM=F Big=F
 Integral buffers will be    131072 words long.
 Raffenetti 1 integral format.
 Two-electron integral symmetry is turned off.
 One-electron integrals computed using PRISM.
 NBasis=    86 RedAO= T EigKep=  5.42D-03  NBF=    86
 NBsUse=    86 1.00D-06 EigRej= -1.00D+00 NBFU=    86
 ExpMin= 1.61D-01 ExpMax= 3.05D+03 ExpMxC= 4.57D+02 IAcc=3 IRadAn=         5 AccDes= 0.00D+00
 Harris functional with IExCor=  205 and IRadAn=       5 diagonalized for initial guess.
 HarFok:  IExCor=  205 AccDes= 0.00D+00 IRadAn=         5 IDoV= 1 UseB2=F ITyADJ=14
 ICtDFT=  3500011 ScaDFX=  1.000000  1.000000  1.000000  1.000000
 FoFCou: FMM=F IPFlag=           0 FMFlag=      100000 FMFlg1=           0
         NFxFlg=           0 DoJE=T BraDBF=F KetDBF=T FulRan=T
         wScrn=  0.000000 ICntrl=       500 IOpCl=  0 I1Cent=   200000004 NGrid=           0
         NMat0=    1 NMatS0=      1 NMatT0=    0 NMatD0=    1 NMtDS0=    0 NMtDT0=    0
 Symmetry not used in FoFCou.
 Keep R1 ints in memory in canonical form, NReq=7875642.
 Requested convergence on RMS density matrix=1.00D-08 within 128 cycles.
 Requested convergence on MAX density matrix=1.00D-06.
 Requested convergence on             energy=1.00D-06.
 No special actions if energy rises.
 SCF Done:  E(RHF) =  -193.916422204     A.U. after   10 cycles
            NFock= 10  Conv=0.95D-08     -V/T= 1.9999

 **********************************************************************

            Population analysis using the SCF Density.

 **********************************************************************

 Alpha  occ. eigenvalues --  -11.23034 -11.22047 -11.22038 -11.21986 -11.21986
 Alpha  occ. eigenvalues --   -1.17024  -1.05869  -0.82091  -0.82091  -0.73696
 Alpha  occ. eigenvalues --   -0.65063  -0.63474  -0.63474  -0.51853  -0.50291
 Alpha  occ. eigenvalues --   -0.48386  -0.40898  -0.40898  -0.38461
 Alpha virt. eigenvalues --    0.25770   0.25770   0.26145   0.26670   0.30844
 Alpha virt. eigenvalues --    0.30844   0.37169   0.37276   0.37530   0.37530
 Alpha virt. eigenvalues --    0.39372   0.46410   0.46410   0.49774   0.69020
 Alpha virt. eigenvalues --    0.69896   0.73656   0.73656   0.77183   0.86716
 Alpha virt. eigenvalues --    0.88164   0.90365   0.90365   0.90961   0.95856
 Alpha virt. eigenvalues --    0.95856   1.03316   1.03316   1.04218   1.13924
 Alpha virt. eigenvalues --    1.13924   1.15923   1.19001   1.20491   1.22192
 Alpha virt. eigenvalues --    1.23036   1.23036   1.36701   1.46642   1.62257
 Alpha virt. eigenvalues --    1.62257   1.64629   1.87919   1.95657   2.07755
 Alpha virt. eigenvalues --    2.07755   2.07928   2.16592   2.16592   2.24067
 Alpha virt. eigenvalues --    2.26755   2.31539   2.46160   2.49910   2.51687
 Alpha virt. eigenvalues --    2.52170   2.52170   2.63447   2.63447   2.77155
 Alpha virt. eigenvalues --    2.87133   2.88294   2.88294   2.91290   3.22200
 Alpha virt. eigenvalues --    3.27728   3.27728
          Condensed to atoms (all electrons):
               1          2          3          4          5          6
     1  C    5.135096   0.259202   0.259202   0.259202   0.259202  -0.028152
     2  C    0.259202   5.175241   0.253335  -0.024427  -0.024427   0.394128
     3  C    0.259202   0.253335   5.175241  -0.024427  -0.024427  -0.023646
     4  C    0.259202  -0.024427  -0.024427   5.175241   0.253335   0.002329
     5  C    0.259202  -0.024427  -0.024427   0.253335   5.175241  -0.003356
     6  H   -0.028152   0.394128  -0.023646   0.002329  -0.003356   0.499866
     7  H   -0.028152   0.394128  -0.023646  -0.003356   0.002329  -0.022359
     8  H   -0.028152  -0.023646   0.394128   0.002329  -0.003356  -0.003380
     9  H   -0.028152  -0.023646   0.394128  -0.003356   0.002329   0.001165
    10  H   -0.028152   0.002329  -0.003356   0.394128  -0.023646  -0.000049
    11  H   -0.028152  -0.003356   0.002329   0.394128  -0.023646   0.000033
    12  H   -0.028152   0.002329  -0.003356  -0.023646   0.394128   0.000033
    13  H   -0.028152  -0.003356   0.002329  -0.023646   0.394128   0.001135
               7          8          9         10         11         12
     1  C   -0.028152  -0.028152  -0.028152  -0.028152  -0.028152  -0.028152
     2  C    0.394128  -0.023646  -0.023646   0.002329  -0.003356   0.002329
     3  C   -0.023646   0.394128   0.394128  -0.003356   0.002329  -0.003356
     4  C   -0.003356   0.002329  -0.003356   0.394128   0.394128  -0.023646
     5  C    0.002329  -0.003356   0.002329  -0.023646  -0.023646   0.394128
     6  H   -0.022359  -0.003380   0.001165  -0.000049   0.000033   0.000033
     7  H    0.499866   0.001165  -0.003380   0.000033   0.001135  -0.000049
     8  H    0.001165   0.499866  -0.022359   0.000033  -0.000049   0.001135
     9  H   -0.003380  -0.022359   0.499866   0.001135   0.000033   0.000033
    10  H    0.000033   0.000033   0.001135   0.499866  -0.022359  -0.003380
    11  H    0.001135  -0.000049   0.000033  -0.022359   0.499866   0.001165
    12  H   -0.000049   0.001135   0.000033  -0.003380   0.001165   0.499866
    13  H    0.000033   0.000033  -0.000049   0.001165  -0.003380  -0.022359
              13
     1  C   -0.028152
     2  C   -0.003356
     3  C    0.002329
     4  C   -0.023646
     5  C    0.394128
     6  H    0.001135
     7  H    0.000033
     8  H    0.000033
     9  H   -0.000049
    10  H    0.001165
    11  H   -0.003380
    12  H   -0.022359
    13  H    0.499866
 Mulliken charges:
               1
     1  C    0.053312
     2  C   -0.377834
     3  C   -0.377834
     4  C   -0.377834
     5  C   -0.377834
     6  H    0.182253
     7  H    0.182253
     8  H    0.182253
     9  H    0.182253
    10  H    0.182253
    11  H    0.182253
    12  H    0.182253
    13  H    0.182253
 Sum of Mulliken charges =  -0.00000
 Mulliken charges with hydrogens summed into heavy atoms:
               1
     1  C    0.053312
     2  C   -0.013328
     3  C   -0.013328
     4  C   -0.013328
     5  C   -0.013328
 Electronic spatial extent (au):  <R**2>=            397.0728
 Charge=             -0.0000 electrons
 Dipole moment (field-independent basis, Debye):
    X=              0.0000    Y=              0.0000    Z=             -0.0000  Tot=              0.0000
 Quadrupole moment (field-independent basis, Debye-Ang):
   XX=            -30.7816   YY=            -30.7816   ZZ=            -32.8033
   XY=              0.0000   XZ=              0.0000   YZ=              0.0000
 Traceless Quadrupole moment (field-independent basis, Debye-Ang):
   XX=              0.6739   YY=              0.6739   ZZ=             -1.3478
   XY=              0.0000   XZ=              0.0000   YZ=              0.0000
 Octapole moment (field-independent basis, Debye-Ang**2):
  XXX=              0.0000  YYY=              0.0000  ZZZ=             -0.0000  XYY=              0.0000
  XXY=             -0.0000  XXZ=              0.3258  XZZ=              0.0000  YZZ=              0.0000
  YYZ=             -0.3258  XYZ=              0.0000
 Hexadecapole moment (field-independent basis, Debye-Ang**3):
 XXXX=           -111.1936 YYYY=           -111.1936 ZZZZ=           -343.3663 XXXY=              0.0000
 XXXZ=              0.0000 YYYX=              0.0000 YYYZ=              0.0000 ZZZX=              0.0000
 ZZZY=              0.0000 XXYY=            -32.2767 XXZZ=            -66.0324 YYZZ=            -66.0324
 XXYZ=              0.0000 YYXZ=              0.0000 ZZXY=              0.0000
 N-N= 1.707581327700D+02 E-N=-7.925865756567D+02  KE= 1.939306664094D+02
 Running external command "gaunbo7 R"
         input file       "/cluster/work/users/beto93/mol91/Gau-1078001.EIn"
         output file      "/cluster/work/users/beto93/mol91/Gau-1078001.EOu"
         message file     "/cluster/work/users/beto93/mol91/Gau-1078001.EMs"
         fchk file        "/cluster/work/users/beto93/mol91/Gau-1078001.EFC"
         mat. el file     "/cluster/work/users/beto93/mol91/Gau-1078001.EUF"

 Writing WrtUnf unformatted file "/cluster/work/users/beto93/mol91/Gau-1078001.EUF"
 Gaussian matrix elements                                         Version   2 NLab=11 Len12L=8 Len4L=8
 Write SHELL TO ATOM MAP                   from file      0 offset           0 length                  36 to matrix element file.
 Write SHELL TYPES                         from file      0 offset           0 length                  36 to matrix element file.
 Write NUMBER OF PRIMITIVES PER SHELL      from file      0 offset           0 length                  36 to matrix element file.
 Write PRIMITIVE EXPONENTS                 from file      0 offset           0 length                  87 to matrix element file.
 Write CONTRACTION COEFFICIENTS            from file      0 offset           0 length                  87 to matrix element file.
 Write P(S=P) CONTRACTION COEFFICIENTS     from file      0 offset           0 length                  87 to matrix element file.
 Write COORDINATES OF EACH SHELL           from file      0 offset           0 length                 108 to matrix element file.
 Write BONDS PER ATOM                      from file      0 offset           0 length                  13 to matrix element file.
 Write BONDED ATOMS                        from file      0 offset           0 length                  28 to matrix element file.
 Write BOND TYPES                          from file      0 offset           0 length                  28 to matrix element file.
 Write ONIOM CHARGE/MULT                   from file      0 offset           0 length                  32 to matrix element file.
 Write ONIOM ATOM LAYERS                   from file      0 offset           0 length                  13 to matrix element file.
 Write ONIOM ATOM MODIFIERS                from file      0 offset           0 length                  13 to matrix element file.
 Write ONIOM ATOM TYPES                    from file      0 offset           0 length                  13 to matrix element file.
 Write ONIOM LINK ATOMS                    from file      0 offset           0 length                  13 to matrix element file.
 Write ONIOM LINK CHARGES                  from file      0 offset           0 length                  13 to matrix element file.
 Write ONIOM LINK DISTANCES                from file      0 offset           0 length                  52 to matrix element file.
 Write SYMINF INTS                         from file      0 offset           0 length                  26 to matrix element file.
 Write ROTTR TO SO                         from file      0 offset           0 length                  12 to matrix element file.
 Write GAUSSIAN SCALARS                    from file    501 offset           0 to matrix element file.
 Write OPTIMIZATION FLAGS                  from file      0 offset           0 length                  13 to matrix element file.
 Write INTEGER ISO                         from file      0 offset           0 length                  13 to matrix element file.
 Write INTEGER SPIN                        from file      0 offset           0 length                  13 to matrix element file.
 Write REAL ZEFFECTIVE                     from file      0 offset           0 length                  13 to matrix element file.
 Write REAL GFACTOR                        from file      0 offset           0 length                  13 to matrix element file.
 Write REAL ZNUCLEAR                       from file      0 offset           0 length                  13 to matrix element file.
 Write MULLIKEN CHARGES                    from file      0 offset           0 length                  13 to matrix element file.
 Write NUCLEAR GRADIENT                    from file  10584 offset           0 length                  39 to matrix element file.
 Array NUCLEAR FORCE CONSTANTS              on  file  10585 does not exist.
 Write ELECTRIC DIPOLE MOMENT              from file      0 offset           0 length                   3 to matrix element file.
 Write NON-ADIABATIC COUPLING              from file  10810 offset           0 length                  39 to matrix element file.
 Write FINITE EM FIELD                     from file  10521 offset           0 length                  35 to matrix element file.
 Write OVERLAP                             from file  10514 offset           0 length                3741 to matrix element file.
 Write CORE HAMILTONIAN ALPHA              from file  10515 offset           0 length                3741 to matrix element file.
 Write CORE HAMILTONIAN BETA               from file  10515 offset        3741 length                3741 to matrix element file.
 Write KINETIC ENERGY                      from file  10516 offset           0 length                3741 to matrix element file.
 Write ORTHOGONAL BASIS                    from file  10685 offset           0 length                7396 to matrix element file.
 Write DIPOLE INTEGRALS                    from file  10518 offset           0 length               11223 to matrix element file.
 Array DIP VEL INTEGRALS                    on  file  10572 does not exist.
 Array R X DEL INTEGRALS                    on  file  10572 does not exist.
 Write ALPHA ORBITAL ENERGIES              from file      0 offset           0 length                  86 to matrix element file.
 Write ALPHA MO COEFFICIENTS               from file  10524 offset           0 length                7396 to matrix element file.
 Write ALPHA DENSITY MATRIX                from file      0 offset           0 length                3741 to matrix element file.
 Write ALPHA FOCK MATRIX                   from file  10536 offset           0 length                3741 to matrix element file.
 Write ENERGY-WEIGHTED DENSITY             from file  10571 offset           0 length                3741 to matrix element file.
 Write ALPHA SCF DENSITY MATRIX            from file      0 offset           0 length                3741 to matrix element file.
 No 2e integrals to process.
 Perform NBO analysis...executing G16NBO...

 *********************************** NBO 7.0 ***********************************
             N A T U R A L   A T O M I C   O R B I T A L   A N D
          N A T U R A L   B O N D   O R B I T A L   A N A L Y S I S
 **************************** Espen Tangen (S101595) ***************************
  (c) Copyright 1996-2021 Board of Regents of the University of Wisconsin System
      on behalf of the Theoretical Chemistry Institute.  All rights reserved.

          Cite this program [NBO 7.0.10 (8-Feb-2021)] as:

          NBO 7.0.  E. D. Glendening, J. K. Badenhoop, A. E. Reed,
          J. E. Carpenter, J. A. Bohmann, C. M. Morales, P. Karafiloglou,
          C. R. Landis, and F. Weinhold, Theoretical Chemistry Institute,
          University of Wisconsin, Madison, WI (2018)

       /NPA    / : Natural Population Analysis
       /AOPNAO / : Print the AO to PNAO transformation
       /AONAO  / : Print the AO to NAO transformation
       /AOMO   / : Print the MOs in the AO basis
       /BOAO   / : Print the AO bond-order matrix
       /DMAO   / : Print the AO density matrix
       /DMPNAO / : Print the PNAO density matrix
       /DMNAO  / : Print the NAO density matrix
       /DMMO   / : Print the MO density matrix
       /SAO    / : Print the AO overlap matrix
       /SPNAO  / : Print the PNAO overlap matrix
       /DETAIL / : Write details of NBO search
       /ARCHIVE/ : Write the archive file to lfn47
       /AOINFO / : Write AO information to lfn31
       /FILE   / : Set to mol91.gen*

 Filename set to mol91.gen1

 Job title: mol91-NBO


 MOs in the AO basis:

           AO          1       2       3       4       5       6       7       8
      ------------ ------- ------- ------- ------- ------- ------- ------- -------
   1.  C 1 (s)      0.9935  0.0000 -0.0721  0.0000  0.0000 -0.1422  0.0000  0.0000
   2.  C 1 (s)      0.0259  0.0000 -0.0029  0.0000  0.0000  0.2746  0.0000  0.0000
   3.  C 1 (px)     0.0000  0.0000  0.0000  0.0000 -0.0003  0.0000  0.0000 -0.0146
   4.  C 1 (py)     0.0000  0.0000  0.0000 -0.0003  0.0000  0.0000  0.0000  0.1417
   5.  C 1 (pz)     0.0000 -0.0001  0.0000  0.0000  0.0000  0.0000  0.2299  0.0000
   6.  C 1 (s)     -0.0172  0.0000  0.0088  0.0000  0.0000  0.1655  0.0000  0.0000
   7.  C 1 (px)     0.0000  0.0000  0.0000 -0.0004  0.0040  0.0000  0.0000 -0.0037
   8.  C 1 (py)     0.0000  0.0000  0.0000  0.0040  0.0004  0.0000  0.0000  0.0362
   9.  C 1 (pz)     0.0000 -0.0033  0.0000  0.0000  0.0000  0.0000 -0.0017  0.0000
  10.  C 1 (d5)     0.0009  0.0000 -0.0008  0.0000  0.0000  0.0215  0.0000  0.0000
  11.  C 1 (d2)     0.0000  0.0000  0.0000 -0.0001  0.0005  0.0000  0.0000  0.0016
  12.  C 1 (d3)     0.0000  0.0000  0.0000 -0.0005 -0.0001  0.0000  0.0000  0.0158
  13.  C 1 (d4)     0.0000  0.0004  0.0000  0.0000  0.0000  0.0000 -0.0080  0.0000
  14.  C 1 (d1)     0.0000  0.0000  0.0000  0.0000  0.0000  0.0000  0.0000  0.0000
  15.  C 2 (s)      0.0359  0.4981  0.4968  0.7002  0.0778 -0.0861 -0.1017 -0.1272
  16.  C 2 (s)      0.0003  0.0129  0.0125  0.0186  0.0021  0.1661  0.1950  0.2452
  17.  C 2 (px)     0.0000  0.0000  0.0000  0.0000  0.0000  0.0000  0.0000 -0.0037
  18.  C 2 (py)     0.0002 -0.0004 -0.0003 -0.0006 -0.0001 -0.0682 -0.0782  0.1197
  19.  C 2 (pz)     0.0002 -0.0005 -0.0001 -0.0004  0.0000 -0.0522 -0.0178 -0.0037
  20.  C 2 (s)      0.0028 -0.0048 -0.0070 -0.0166 -0.0018  0.1079  0.1639  0.2895
  21.  C 2 (px)     0.0000  0.0000  0.0000  0.0001 -0.0009  0.0000  0.0000 -0.0013
  22.  C 2 (py)    -0.0003 -0.0005  0.0001  0.0028  0.0003 -0.0053 -0.0143  0.0303
  23.  C 2 (pz)    -0.0016  0.0000  0.0009  0.0010  0.0001 -0.0035 -0.0064 -0.0043
  24.  C 2 (d5)    -0.0002  0.0001  0.0001 -0.0002  0.0000 -0.0003 -0.0073 -0.0028
  25.  C 2 (d2)     0.0000  0.0000  0.0000  0.0000  0.0002  0.0000  0.0000  0.0002
  26.  C 2 (d3)    -0.0005  0.0002  0.0002  0.0003  0.0000  0.0089  0.0079  0.0095
  27.  C 2 (d4)     0.0003  0.0002  0.0002 -0.0004  0.0000 -0.0058 -0.0068  0.0159
  28.  C 2 (d1)     0.0000  0.0000  0.0000  0.0000  0.0001  0.0000  0.0000  0.0001
  29.  C 3 (s)      0.0359  0.4981  0.4968 -0.7002 -0.0778 -0.0861 -0.1017  0.1272
  30.  C 3 (s)      0.0003  0.0129  0.0125 -0.0186 -0.0021  0.1661  0.1950 -0.2452
  31.  C 3 (px)     0.0000  0.0000  0.0000  0.0000  0.0000  0.0000  0.0000 -0.0037
  32.  C 3 (py)    -0.0002  0.0004  0.0003 -0.0006 -0.0001  0.0682  0.0782  0.1197
  33.  C 3 (pz)     0.0002 -0.0005 -0.0001  0.0004  0.0000 -0.0522 -0.0178  0.0037
  34.  C 3 (s)      0.0028 -0.0048 -0.0070  0.0166  0.0018  0.1079  0.1639 -0.2895
  35.  C 3 (px)     0.0000  0.0000  0.0000  0.0001 -0.0009  0.0000  0.0000 -0.0013
  36.  C 3 (py)     0.0003  0.0005 -0.0001  0.0028  0.0003  0.0053  0.0143  0.0303
  37.  C 3 (pz)    -0.0016  0.0000  0.0009 -0.0010 -0.0001 -0.0035 -0.0064  0.0043
  38.  C 3 (d5)    -0.0002  0.0001  0.0001  0.0002  0.0000 -0.0003 -0.0073  0.0028
  39.  C 3 (d2)     0.0000  0.0000  0.0000  0.0000  0.0002  0.0000  0.0000  0.0002
  40.  C 3 (d3)     0.0005 -0.0002 -0.0002  0.0003  0.0000 -0.0089 -0.0079  0.0095
  41.  C 3 (d4)     0.0003  0.0002  0.0002  0.0004  0.0000 -0.0058 -0.0068 -0.0159
  42.  C 3 (d1)     0.0000  0.0000  0.0000  0.0000 -0.0001  0.0000  0.0000 -0.0001
  43.  C 4 (s)      0.0359 -0.4981  0.4968 -0.0778  0.7002 -0.0861  0.1017  0.0131
  44.  C 4 (s)      0.0003 -0.0129  0.0125 -0.0021  0.0186  0.1661 -0.1950 -0.0252
  45.  C 4 (px)     0.0002  0.0004 -0.0003  0.0001 -0.0006 -0.0682  0.0782 -0.0123
  46.  C 4 (py)     0.0000  0.0000  0.0000  0.0000  0.0000  0.0000  0.0000  0.0359
  47.  C 4 (pz)    -0.0002 -0.0005  0.0001  0.0000  0.0004  0.0522 -0.0178 -0.0004
  48.  C 4 (s)      0.0028  0.0048 -0.0070  0.0018 -0.0166  0.1079 -0.1639 -0.0297
  49.  C 4 (px)    -0.0003  0.0005  0.0001 -0.0003  0.0028 -0.0053  0.0143 -0.0031
  50.  C 4 (py)     0.0000  0.0000  0.0000 -0.0009 -0.0001  0.0000  0.0000  0.0131
  51.  C 4 (pz)     0.0016  0.0000 -0.0009  0.0001 -0.0010  0.0035 -0.0064 -0.0004
  52.  C 4 (d5)    -0.0002 -0.0001  0.0001  0.0000 -0.0002 -0.0003  0.0073  0.0003
  53.  C 4 (d2)     0.0005  0.0002 -0.0002  0.0000 -0.0003 -0.0089  0.0079  0.0010
  54.  C 4 (d3)     0.0000  0.0000  0.0000 -0.0002  0.0000  0.0000  0.0000  0.0021
  55.  C 4 (d4)    -0.0003  0.0002 -0.0002  0.0000  0.0004  0.0058 -0.0068  0.0016
  56.  C 4 (d1)     0.0000  0.0000  0.0000  0.0001  0.0000  0.0000  0.0000 -0.0006
  57.  C 5 (s)      0.0359 -0.4981  0.4968  0.0778 -0.7002 -0.0861  0.1017 -0.0131
  58.  C 5 (s)      0.0003 -0.0129  0.0125  0.0021 -0.0186  0.1661 -0.1950  0.0252
  59.  C 5 (px)    -0.0002 -0.0004  0.0003  0.0001 -0.0006  0.0682 -0.0782 -0.0123
  60.  C 5 (py)     0.0000  0.0000  0.0000  0.0000  0.0000  0.0000  0.0000  0.0359
  61.  C 5 (pz)    -0.0002 -0.0005  0.0001  0.0000 -0.0004  0.0522 -0.0178  0.0004
  62.  C 5 (s)      0.0028  0.0048 -0.0070 -0.0018  0.0166  0.1079 -0.1639  0.0297
  63.  C 5 (px)     0.0003 -0.0005 -0.0001 -0.0003  0.0028  0.0053 -0.0143 -0.0031
  64.  C 5 (py)     0.0000  0.0000  0.0000 -0.0009 -0.0001  0.0000  0.0000  0.0131
  65.  C 5 (pz)     0.0016  0.0000 -0.0009 -0.0001  0.0010  0.0035 -0.0064  0.0004
  66.  C 5 (d5)    -0.0002 -0.0001  0.0001  0.0000  0.0002 -0.0003  0.0073 -0.0003
  67.  C 5 (d2)    -0.0005 -0.0002  0.0002  0.0000 -0.0003  0.0089 -0.0079  0.0010
  68.  C 5 (d3)     0.0000  0.0000  0.0000 -0.0002  0.0000  0.0000  0.0000  0.0021
  69.  C 5 (d4)    -0.0003  0.0002 -0.0002  0.0000 -0.0004  0.0058 -0.0068 -0.0016
  70.  C 5 (d1)     0.0000  0.0000  0.0000 -0.0001  0.0000  0.0000  0.0000  0.0006
  71.  H 6 (s)     -0.0002 -0.0002 -0.0001  0.0002  0.0000  0.0341  0.0488  0.1286
  72.  H 6 (s)      0.0002  0.0015  0.0014  0.0020 -0.0001  0.0000  0.0071  0.0527
  73.  H 7 (s)     -0.0002 -0.0002 -0.0001  0.0002  0.0000  0.0341  0.0488  0.1258
  74.  H 7 (s)      0.0002  0.0015  0.0014  0.0019  0.0005  0.0000  0.0071  0.0515
  75.  H 8 (s)     -0.0002 -0.0002 -0.0001 -0.0002  0.0000  0.0341  0.0488 -0.1258
  76.  H 8 (s)      0.0002  0.0015  0.0014 -0.0019 -0.0005  0.0000  0.0071 -0.0515
  77.  H 9 (s)     -0.0002 -0.0002 -0.0001 -0.0002  0.0000  0.0341  0.0488 -0.1286
  78.  H 9 (s)      0.0002  0.0015  0.0014 -0.0020  0.0001  0.0000  0.0071 -0.0527
  79.  H10 (s)     -0.0002  0.0002 -0.0001  0.0000  0.0002  0.0341 -0.0488 -0.0266
  80.  H10 (s)      0.0002 -0.0015  0.0014 -0.0005  0.0019  0.0000 -0.0071 -0.0111
  81.  H11 (s)     -0.0002  0.0002 -0.0001  0.0000  0.0002  0.0341 -0.0488  0.0005
  82.  H11 (s)      0.0002 -0.0015  0.0014  0.0001  0.0020  0.0000 -0.0071  0.0004
  83.  H12 (s)     -0.0002  0.0002 -0.0001  0.0000 -0.0002  0.0341 -0.0488 -0.0005
  84.  H12 (s)      0.0002 -0.0015  0.0014 -0.0001 -0.0020  0.0000 -0.0071 -0.0004
  85.  H13 (s)     -0.0002  0.0002 -0.0001  0.0000 -0.0002  0.0341 -0.0488  0.0266
  86.  H13 (s)      0.0002 -0.0015  0.0014  0.0005 -0.0019  0.0000 -0.0071  0.0111

           AO          9      10      11      12      13      14      15      16
      ------------ ------- ------- ------- ------- ------- ------- ------- -------
   1.  C 1 (s)      0.0000 -0.1198  0.0000  0.0000  0.0000  0.0000  0.0000 -0.0445
   2.  C 1 (s)      0.0000  0.2364  0.0000  0.0000  0.0000  0.0000  0.0000  0.0747
   3.  C 1 (px)     0.1417  0.0000  0.0000  0.1276  0.0525  0.0000  0.0000  0.0000
   4.  C 1 (py)     0.0146  0.0000  0.0000 -0.0525  0.1276  0.0000  0.0000  0.0000
   5.  C 1 (pz)     0.0000  0.0000  0.2799  0.0000  0.0000  0.0000  0.0000  0.0000
   6.  C 1 (s)      0.0000  0.3032  0.0000  0.0000  0.0000  0.0000  0.0000  0.2185
   7.  C 1 (px)     0.0362  0.0000  0.0000  0.0367  0.0151  0.0000  0.0000  0.0000
   8.  C 1 (py)     0.0037  0.0000  0.0000 -0.0151  0.0367  0.0000  0.0000  0.0000
   9.  C 1 (pz)     0.0000  0.0000  0.0378  0.0000  0.0000  0.0000  0.0000  0.0000
  10.  C 1 (d5)     0.0000  0.0099  0.0000  0.0000  0.0000  0.0000  0.0000 -0.0260
  11.  C 1 (d2)    -0.0158  0.0000  0.0000  0.0078  0.0032  0.0000  0.0000  0.0000
  12.  C 1 (d3)     0.0016  0.0000  0.0000  0.0032 -0.0078  0.0000  0.0000  0.0000
  13.  C 1 (d4)     0.0000  0.0000 -0.0015  0.0000  0.0000  0.0000  0.0000  0.0000
  14.  C 1 (d1)     0.0000  0.0000  0.0000  0.0000  0.0000  0.0119  0.0000  0.0000
  15.  C 2 (s)     -0.0131  0.0504  0.0189 -0.0067  0.0163  0.0000  0.0000  0.0146
  16.  C 2 (s)      0.0252 -0.0936 -0.0310  0.0131 -0.0318  0.0000  0.0000 -0.0343
  17.  C 2 (px)     0.0359  0.0000  0.0000  0.2730  0.1123  0.2187  0.2217  0.0000
  18.  C 2 (py)     0.0123 -0.0763 -0.1833  0.0146 -0.0354  0.0000  0.0000  0.2627
  19.  C 2 (pz)    -0.0004 -0.1589 -0.1417  0.0256 -0.0622  0.0000  0.0000 -0.1055
  20.  C 2 (s)      0.0297 -0.1376 -0.0511  0.0135 -0.0329  0.0000  0.0000 -0.0514
  21.  C 2 (px)     0.0131  0.0000  0.0000  0.1315  0.0541  0.1328  0.1442  0.0000
  22.  C 2 (py)     0.0031 -0.0157 -0.0652  0.0067 -0.0164  0.0000  0.0000  0.1385
  23.  C 2 (pz)    -0.0004 -0.0468 -0.0572  0.0135 -0.0329  0.0000  0.0000 -0.0723
  24.  C 2 (d5)    -0.0003  0.0149  0.0075 -0.0031  0.0074  0.0000  0.0000  0.0093
  25.  C 2 (d2)    -0.0021  0.0000  0.0000  0.0060  0.0025  0.0074  0.0088  0.0000
  26.  C 2 (d3)     0.0010  0.0070  0.0083  0.0007 -0.0017  0.0000  0.0000  0.0087
  27.  C 2 (d4)     0.0016 -0.0064 -0.0146  0.0013 -0.0032  0.0000  0.0000  0.0178
  28.  C 2 (d1)    -0.0006  0.0000  0.0000  0.0068  0.0028  0.0188  0.0190  0.0000
  29.  C 3 (s)      0.0131  0.0504  0.0189  0.0067 -0.0163  0.0000  0.0000  0.0146
  30.  C 3 (s)     -0.0252 -0.0936 -0.0310 -0.0131  0.0318  0.0000  0.0000 -0.0343
  31.  C 3 (px)     0.0359  0.0000  0.0000  0.2730  0.1123 -0.2187 -0.2217  0.0000
  32.  C 3 (py)     0.0123  0.0763  0.1833  0.0146 -0.0354  0.0000  0.0000 -0.2627
  33.  C 3 (pz)     0.0004 -0.1589 -0.1417 -0.0256  0.0622  0.0000  0.0000 -0.1055
  34.  C 3 (s)     -0.0297 -0.1376 -0.0511 -0.0135  0.0329  0.0000  0.0000 -0.0514
  35.  C 3 (px)     0.0131  0.0000  0.0000  0.1315  0.0541 -0.1328 -0.1442  0.0000
  36.  C 3 (py)     0.0031  0.0157  0.0652  0.0067 -0.0164  0.0000  0.0000 -0.1385
  37.  C 3 (pz)     0.0004 -0.0468 -0.0572 -0.0135  0.0329  0.0000  0.0000 -0.0723
  38.  C 3 (d5)     0.0003  0.0149  0.0075  0.0031 -0.0074  0.0000  0.0000  0.0093
  39.  C 3 (d2)    -0.0021  0.0000  0.0000  0.0060  0.0025 -0.0074 -0.0088  0.0000
  40.  C 3 (d3)     0.0010 -0.0070 -0.0083  0.0007 -0.0017  0.0000  0.0000 -0.0087
  41.  C 3 (d4)    -0.0016 -0.0064 -0.0146 -0.0013  0.0032  0.0000  0.0000  0.0178
  42.  C 3 (d1)     0.0006  0.0000  0.0000 -0.0068 -0.0028  0.0188  0.0190  0.0000
  43.  C 4 (s)     -0.1272  0.0504 -0.0189  0.0163  0.0067  0.0000  0.0000  0.0146
  44.  C 4 (s)      0.2452 -0.0936  0.0310 -0.0318 -0.0131  0.0000  0.0000 -0.0343
  45.  C 4 (px)     0.1197 -0.0763  0.1833 -0.0354 -0.0146  0.0000  0.0000  0.2627
  46.  C 4 (py)     0.0037  0.0000  0.0000 -0.1123  0.2730  0.2187 -0.2217  0.0000
  47.  C 4 (pz)     0.0037  0.1589 -0.1417  0.0622  0.0256  0.0000  0.0000  0.1055
  48.  C 4 (s)      0.2895 -0.1376  0.0511 -0.0329 -0.0135  0.0000  0.0000 -0.0514
  49.  C 4 (px)     0.0303 -0.0157  0.0652 -0.0164 -0.0067  0.0000  0.0000  0.1385
  50.  C 4 (py)     0.0013  0.0000  0.0000 -0.0541  0.1315  0.1328 -0.1442  0.0000
  51.  C 4 (pz)     0.0043  0.0468 -0.0572  0.0329  0.0135  0.0000  0.0000  0.0723
  52.  C 4 (d5)    -0.0028  0.0149 -0.0075  0.0074  0.0031  0.0000  0.0000  0.0093
  53.  C 4 (d2)    -0.0095 -0.0070  0.0083  0.0017  0.0007  0.0000  0.0000 -0.0087
  54.  C 4 (d3)     0.0002  0.0000  0.0000  0.0025 -0.0060 -0.0074  0.0088  0.0000
  55.  C 4 (d4)    -0.0159  0.0064 -0.0146  0.0032  0.0013  0.0000  0.0000 -0.0178
  56.  C 4 (d1)    -0.0001  0.0000  0.0000 -0.0028  0.0068  0.0188 -0.0190  0.0000
  57.  C 5 (s)      0.1272  0.0504 -0.0189 -0.0163 -0.0067  0.0000  0.0000  0.0146
  58.  C 5 (s)     -0.2452 -0.0936  0.0310  0.0318  0.0131  0.0000  0.0000 -0.0343
  59.  C 5 (px)     0.1197  0.0763 -0.1833 -0.0354 -0.0146  0.0000  0.0000 -0.2627
  60.  C 5 (py)     0.0037  0.0000  0.0000 -0.1123  0.2730 -0.2187  0.2217  0.0000
  61.  C 5 (pz)    -0.0037  0.1589 -0.1417 -0.0622 -0.0256  0.0000  0.0000  0.1055
  62.  C 5 (s)     -0.2895 -0.1376  0.0511  0.0329  0.0135  0.0000  0.0000 -0.0514
  63.  C 5 (px)     0.0303  0.0157 -0.0652 -0.0164 -0.0067  0.0000  0.0000 -0.1385
  64.  C 5 (py)     0.0013  0.0000  0.0000 -0.0541  0.1315 -0.1328  0.1442  0.0000
  65.  C 5 (pz)    -0.0043  0.0468 -0.0572 -0.0329 -0.0135  0.0000  0.0000  0.0723
  66.  C 5 (d5)     0.0028  0.0149 -0.0075 -0.0074 -0.0031  0.0000  0.0000  0.0093
  67.  C 5 (d2)    -0.0095  0.0070 -0.0083  0.0017  0.0007  0.0000  0.0000  0.0087
  68.  C 5 (d3)     0.0002  0.0000  0.0000  0.0025 -0.0060  0.0074 -0.0088  0.0000
  69.  C 5 (d4)     0.0159  0.0064 -0.0146 -0.0032 -0.0013  0.0000  0.0000 -0.0178
  70.  C 5 (d1)     0.0001  0.0000  0.0000  0.0028 -0.0068  0.0188 -0.0190  0.0000
  71.  H 6 (s)     -0.0005 -0.0855 -0.0896 -0.1167 -0.0904 -0.1272 -0.1304  0.0501
  72.  H 6 (s)     -0.0004 -0.0480 -0.0604 -0.0731 -0.0559 -0.1026 -0.1017  0.0550
  73.  H 7 (s)      0.0266 -0.0855 -0.0896  0.1465  0.0179  0.1272  0.1304  0.0501
  74.  H 7 (s)      0.0111 -0.0480 -0.0604  0.0913  0.0117  0.1026  0.1017  0.0550
  75.  H 8 (s)     -0.0266 -0.0855 -0.0896 -0.1465 -0.0179  0.1272  0.1304  0.0501
  76.  H 8 (s)     -0.0111 -0.0480 -0.0604 -0.0913 -0.0117  0.1026  0.1017  0.0550
  77.  H 9 (s)      0.0005 -0.0855 -0.0896  0.1167  0.0904 -0.1272 -0.1304  0.0501
  78.  H 9 (s)      0.0004 -0.0480 -0.0604  0.0731  0.0559 -0.1026 -0.1017  0.0550
  79.  H10 (s)      0.1258 -0.0855  0.0896  0.0179 -0.1465 -0.1272  0.1304  0.0501
  80.  H10 (s)      0.0515 -0.0480  0.0604  0.0117 -0.0913 -0.1026  0.1017  0.0550
  81.  H11 (s)      0.1286 -0.0855  0.0896 -0.0904  0.1167  0.1272 -0.1304  0.0501
  82.  H11 (s)      0.0527 -0.0480  0.0604 -0.0559  0.0731  0.1026 -0.1017  0.0550
  83.  H12 (s)     -0.1286 -0.0855  0.0896  0.0904 -0.1167  0.1272 -0.1304  0.0501
  84.  H12 (s)     -0.0527 -0.0480  0.0604  0.0559 -0.0731  0.1026 -0.1017  0.0550
  85.  H13 (s)     -0.1258 -0.0855  0.0896 -0.0179  0.1465 -0.1272  0.1304  0.0501
  86.  H13 (s)     -0.0515 -0.0480  0.0604 -0.0117  0.0913 -0.1026  0.1017  0.0550

           AO         17      18      19      20      21      22      23      24
      ------------ ------- ------- ------- ------- ------- ------- ------- -------
   1.  C 1 (s)      0.0000  0.0000  0.0000  0.0000  0.0000  0.0000  0.0067  0.0000
   2.  C 1 (s)      0.0000  0.0000  0.0000  0.0000  0.0000  0.0000  0.0278  0.0000
   3.  C 1 (px)     0.0308  0.3985  0.0000 -0.1536 -0.1090  0.0000  0.0000  0.0006
   4.  C 1 (py)     0.3985 -0.0308  0.0000 -0.1090  0.1536  0.0000  0.0000 -0.0140
   5.  C 1 (pz)     0.0000  0.0000 -0.2086  0.0000  0.0000 -0.0684  0.0000  0.0000
   6.  C 1 (s)      0.0000  0.0000  0.0000  0.0000  0.0000  0.0000  0.1730  0.0000
   7.  C 1 (px)     0.0204  0.2643  0.0000 -0.1740 -0.1235  0.0000  0.0000  0.0132
   8.  C 1 (py)     0.2643 -0.0204  0.0000 -0.1235  0.1740  0.0000  0.0000 -0.3252
   9.  C 1 (pz)     0.0000  0.0000 -0.1666  0.0000  0.0000 -0.4574  0.0000  0.0000
  10.  C 1 (d5)     0.0000  0.0000  0.0000  0.0000  0.0000  0.0000  0.0006  0.0000
  11.  C 1 (d2)    -0.0022 -0.0286  0.0000 -0.0259 -0.0184  0.0000  0.0000  0.0005
  12.  C 1 (d3)     0.0286 -0.0022  0.0000  0.0184 -0.0259  0.0000  0.0000  0.0132
  13.  C 1 (d4)     0.0000  0.0000  0.0227  0.0000  0.0000 -0.0138  0.0000  0.0000
  14.  C 1 (d1)     0.0000  0.0000  0.0000  0.0000  0.0000  0.0000  0.0000  0.0000
  15.  C 2 (s)     -0.0157  0.0012  0.0009  0.0017 -0.0024 -0.0587 -0.0567 -0.1211
  16.  C 2 (s)      0.0306 -0.0024 -0.0053  0.0120 -0.0169  0.0464  0.0754  0.0731
  17.  C 2 (px)    -0.0075 -0.0973  0.0000 -0.1518 -0.1077  0.0000  0.0000  0.0011
  18.  C 2 (py)    -0.0679  0.0052 -0.1942  0.0333 -0.0469  0.0478  0.1057  0.0135
  19.  C 2 (pz)    -0.2823  0.0218  0.2138 -0.0996  0.1404  0.0532  0.0246  0.0666
  20.  C 2 (s)      0.0843 -0.0065  0.0225 -0.1294  0.1824  1.1895  0.9654  2.2437
  21.  C 2 (px)    -0.0054 -0.0693  0.0000 -0.5289 -0.3753  0.0000  0.0000  0.0033
  22.  C 2 (py)    -0.0522  0.0040 -0.1505  0.1248 -0.1759  0.3292  0.3914 -0.2785
  23.  C 2 (pz)    -0.1755  0.0136  0.1320 -0.2609  0.3677  0.0724  0.2049  0.2433
  24.  C 2 (d5)     0.0229 -0.0018 -0.0084 -0.0040  0.0056  0.0022 -0.0018 -0.0014
  25.  C 2 (d2)    -0.0012 -0.0153  0.0000  0.0133  0.0094  0.0000  0.0000 -0.0003
  26.  C 2 (d3)    -0.0034  0.0003 -0.0155 -0.0043  0.0060 -0.0057  0.0035  0.0107
  27.  C 2 (d4)    -0.0025  0.0002 -0.0104 -0.0011  0.0016 -0.0073 -0.0031  0.0040
  28.  C 2 (d1)    -0.0008 -0.0107  0.0000  0.0201  0.0142  0.0000  0.0000 -0.0003
  29.  C 3 (s)      0.0157 -0.0012  0.0009 -0.0017  0.0024 -0.0587 -0.0567  0.1211
  30.  C 3 (s)     -0.0306  0.0024 -0.0053 -0.0120  0.0169  0.0464  0.0754 -0.0731
  31.  C 3 (px)    -0.0075 -0.0973  0.0000 -0.1518 -0.1077  0.0000  0.0000  0.0011
  32.  C 3 (py)    -0.0679  0.0052  0.1942  0.0333 -0.0469 -0.0478 -0.1057  0.0135
  33.  C 3 (pz)     0.2823 -0.0218  0.2138  0.0996 -0.1404  0.0532  0.0246 -0.0666
  34.  C 3 (s)     -0.0843  0.0065  0.0225  0.1294 -0.1824  1.1895  0.9654 -2.2437
  35.  C 3 (px)    -0.0054 -0.0693  0.0000 -0.5289 -0.3753  0.0000  0.0000  0.0033
  36.  C 3 (py)    -0.0522  0.0040  0.1505  0.1248 -0.1759 -0.3292 -0.3914 -0.2785
  37.  C 3 (pz)     0.1755 -0.0136  0.1320  0.2609 -0.3677  0.0724  0.2049 -0.2433
  38.  C 3 (d5)    -0.0229  0.0018 -0.0084  0.0040 -0.0056  0.0022 -0.0018  0.0014
  39.  C 3 (d2)    -0.0012 -0.0153  0.0000  0.0133  0.0094  0.0000  0.0000 -0.0003
  40.  C 3 (d3)    -0.0034  0.0003  0.0155 -0.0043  0.0060  0.0057 -0.0035  0.0107
  41.  C 3 (d4)     0.0025 -0.0002 -0.0104  0.0011 -0.0016 -0.0073 -0.0031 -0.0040
  42.  C 3 (d1)     0.0008  0.0107  0.0000 -0.0201 -0.0142  0.0000  0.0000  0.0003
  43.  C 4 (s)     -0.0012 -0.0157 -0.0009  0.0024  0.0017  0.0587 -0.0567  0.0049
  44.  C 4 (s)      0.0024  0.0306  0.0053  0.0169  0.0120 -0.0464  0.0754 -0.0030
  45.  C 4 (px)    -0.0052 -0.0679  0.1942  0.0469  0.0333 -0.0478  0.1057 -0.0005
  46.  C 4 (py)    -0.0973  0.0075  0.0000 -0.1077  0.1518  0.0000  0.0000 -0.0279
  47.  C 4 (pz)     0.0218  0.2823  0.2138  0.1404  0.0996  0.0532 -0.0246  0.0027
  48.  C 4 (s)      0.0065  0.0843 -0.0225 -0.1824 -0.1294 -1.1895  0.9654 -0.0908
  49.  C 4 (px)    -0.0040 -0.0522  0.1505  0.1759  0.1248 -0.3292  0.3914  0.0113
  50.  C 4 (py)    -0.0693  0.0054  0.0000 -0.3753  0.5289  0.0000  0.0000 -0.0819
  51.  C 4 (pz)     0.0136  0.1755  0.1320  0.3677  0.2609  0.0724 -0.2049  0.0098
  52.  C 4 (d5)     0.0018  0.0229  0.0084 -0.0056 -0.0040 -0.0022 -0.0018  0.0001
  53.  C 4 (d2)     0.0003  0.0034 -0.0155  0.0060  0.0043 -0.0057 -0.0035  0.0004
  54.  C 4 (d3)     0.0153 -0.0012  0.0000 -0.0094  0.0133  0.0000  0.0000 -0.0084
  55.  C 4 (d4)     0.0002  0.0025 -0.0104  0.0016  0.0011 -0.0073  0.0031  0.0002
  56.  C 4 (d1)    -0.0107  0.0008  0.0000  0.0142 -0.0201  0.0000  0.0000  0.0085
  57.  C 5 (s)      0.0012  0.0157 -0.0009 -0.0024 -0.0017  0.0587 -0.0567 -0.0049
  58.  C 5 (s)     -0.0024 -0.0306  0.0053 -0.0169 -0.0120 -0.0464  0.0754  0.0030
  59.  C 5 (px)    -0.0052 -0.0679 -0.1942  0.0469  0.0333  0.0478 -0.1057 -0.0005
  60.  C 5 (py)    -0.0973  0.0075  0.0000 -0.1077  0.1518  0.0000  0.0000 -0.0279
  61.  C 5 (pz)    -0.0218 -0.2823  0.2138 -0.1404 -0.0996  0.0532 -0.0246 -0.0027
  62.  C 5 (s)     -0.0065 -0.0843 -0.0225  0.1824  0.1294 -1.1895  0.9654  0.0908
  63.  C 5 (px)    -0.0040 -0.0522 -0.1505  0.1759  0.1248  0.3292 -0.3914  0.0113
  64.  C 5 (py)    -0.0693  0.0054  0.0000 -0.3753  0.5289  0.0000  0.0000 -0.0819
  65.  C 5 (pz)    -0.0136 -0.1755  0.1320 -0.3677 -0.2609  0.0724 -0.2049 -0.0098
  66.  C 5 (d5)    -0.0018 -0.0229  0.0084  0.0056  0.0040 -0.0022 -0.0018 -0.0001
  67.  C 5 (d2)     0.0003  0.0034  0.0155  0.0060  0.0043  0.0057  0.0035  0.0004
  68.  C 5 (d3)     0.0153 -0.0012  0.0000 -0.0094  0.0133  0.0000  0.0000 -0.0084
  69.  C 5 (d4)    -0.0002 -0.0025 -0.0104 -0.0016 -0.0011 -0.0073  0.0031 -0.0002
  70.  C 5 (d1)     0.0107 -0.0008  0.0000 -0.0142  0.0201  0.0000  0.0000 -0.0085
  71.  H 6 (s)     -0.0657  0.0775 -0.0282 -0.0437 -0.0208 -0.0230  0.0015 -0.0016
  72.  H 6 (s)     -0.0706  0.0796 -0.0195 -0.6482 -0.5786 -0.6996 -0.7203 -0.9459
  73.  H 7 (s)     -0.0768 -0.0665 -0.0282  0.0340  0.0344 -0.0230  0.0015 -0.0044
  74.  H 7 (s)     -0.0820 -0.0678 -0.0195  0.7603  0.4208 -0.6996 -0.7203 -0.9594
  75.  H 8 (s)      0.0768  0.0665 -0.0282 -0.0340 -0.0344 -0.0230  0.0015  0.0044
  76.  H 8 (s)      0.0820  0.0678 -0.0195 -0.7603 -0.4208 -0.6996 -0.7203  0.9594
  77.  H 9 (s)      0.0657 -0.0775 -0.0282  0.0437  0.0208 -0.0230  0.0015  0.0016
  78.  H 9 (s)      0.0706 -0.0796 -0.0195  0.6482  0.5786 -0.6996 -0.7203  0.9459
  79.  H10 (s)      0.0665 -0.0768  0.0282 -0.0344  0.0340  0.0230  0.0015 -0.0343
  80.  H10 (s)      0.0678 -0.0820  0.0195 -0.4208  0.7603  0.6996 -0.7203 -0.1283
  81.  H11 (s)     -0.0775 -0.0657  0.0282  0.0208 -0.0437  0.0230  0.0015  0.0346
  82.  H11 (s)     -0.0796 -0.0706  0.0195  0.5786 -0.6482  0.6996 -0.7203  0.2055
  83.  H12 (s)      0.0775  0.0657  0.0282 -0.0208  0.0437  0.0230  0.0015 -0.0346
  84.  H12 (s)      0.0796  0.0706  0.0195 -0.5786  0.6482  0.6996 -0.7203 -0.2055
  85.  H13 (s)     -0.0665  0.0768  0.0282  0.0344 -0.0340  0.0230  0.0015  0.0343
  86.  H13 (s)     -0.0678  0.0820  0.0195  0.4208 -0.7603  0.6996 -0.7203  0.1283

           AO         25      26      27      28      29      30      31      32
      ------------ ------- ------- ------- ------- ------- ------- ------- -------
   1.  C 1 (s)      0.0000  0.0000 -0.1750  0.0000  0.0000  0.0000  0.0000  0.0000
   2.  C 1 (s)      0.0000  0.0000  0.1265  0.0000  0.0000  0.0000  0.0000  0.0000
   3.  C 1 (px)    -0.0140  0.0000  0.0000  0.0259 -0.2467  0.0000 -0.0098 -0.1991
   4.  C 1 (py)    -0.0006  0.0000  0.0000 -0.2467 -0.0259  0.0000 -0.1991  0.0098
   5.  C 1 (pz)     0.0000  0.0000  0.0000  0.0000  0.0000  0.0000  0.0000  0.0000
   6.  C 1 (s)      0.0000  0.0000  4.1599  0.0000  0.0000  0.0000  0.0000  0.0000
   7.  C 1 (px)    -0.3252  0.0000  0.0000  0.0818 -0.7786  0.0000 -0.0851 -1.7345
   8.  C 1 (py)    -0.0132  0.0000  0.0000 -0.7786 -0.0818  0.0000 -1.7345  0.0851
   9.  C 1 (pz)     0.0000  0.0000  0.0000  0.0000  0.0000  0.0000  0.0000  0.0000
  10.  C 1 (d5)     0.0000  0.0000  0.0159  0.0000  0.0000  0.0000  0.0000  0.0000
  11.  C 1 (d2)    -0.0132  0.0000  0.0000 -0.0007  0.0071  0.0000 -0.0008 -0.0166
  12.  C 1 (d3)     0.0005  0.0000  0.0000 -0.0071 -0.0007  0.0000  0.0166 -0.0008
  13.  C 1 (d4)     0.0000  0.0000  0.0000  0.0000  0.0000  0.0000  0.0000  0.0000
  14.  C 1 (d1)     0.0000  0.0139  0.0000  0.0000  0.0000  0.0000  0.0000  0.0000
  15.  C 2 (s)     -0.0049  0.0000  0.0534  0.0083  0.0009  0.0000 -0.0626  0.0031
  16.  C 2 (s)      0.0030  0.0000  0.0016 -0.0219 -0.0023  0.0000 -0.0154  0.0008
  17.  C 2 (px)    -0.0279  0.1803  0.0000 -0.0119  0.1136  0.1823  0.0058  0.1177
  18.  C 2 (py)     0.0005  0.0000  0.0581  0.2454  0.0258  0.0000 -0.0849  0.0042
  19.  C 2 (pz)     0.0027  0.0000  0.0343 -0.0888 -0.0093  0.0000 -0.1809  0.0089
  20.  C 2 (s)      0.0908  0.0000 -0.9026 -0.0771 -0.0081  0.0000  1.9402 -0.0952
  21.  C 2 (px)    -0.0819  1.0395  0.0000 -0.0650  0.6188  1.1672  0.0329  0.6711
  22.  C 2 (py)    -0.0113  0.0000  0.2859  1.2120  0.1274  0.0000 -1.7152  0.0841
  23.  C 2 (pz)     0.0098  0.0000  0.9293 -0.4149 -0.0436  0.0000 -1.1477  0.0563
  24.  C 2 (d5)    -0.0001  0.0000  0.0181 -0.0150 -0.0016  0.0000 -0.0145  0.0007
  25.  C 2 (d2)     0.0084 -0.0045  0.0000 -0.0013  0.0123  0.0031  0.0012  0.0245
  26.  C 2 (d3)     0.0004  0.0000  0.0027 -0.0079 -0.0008  0.0000  0.0039 -0.0002
  27.  C 2 (d4)     0.0002  0.0000  0.0018 -0.0118 -0.0012  0.0000  0.0058 -0.0003
  28.  C 2 (d1)     0.0085  0.0053  0.0000  0.0000  0.0000  0.0065  0.0009  0.0174
  29.  C 3 (s)      0.0049  0.0000  0.0534 -0.0083 -0.0009  0.0000  0.0626 -0.0031
  30.  C 3 (s)     -0.0030  0.0000  0.0016  0.0219  0.0023  0.0000  0.0154 -0.0008
  31.  C 3 (px)    -0.0279 -0.1803  0.0000 -0.0119  0.1136 -0.1823  0.0058  0.1177
  32.  C 3 (py)     0.0005  0.0000 -0.0581  0.2454  0.0258  0.0000 -0.0849  0.0042
  33.  C 3 (pz)    -0.0027  0.0000  0.0343  0.0888  0.0093  0.0000  0.1809 -0.0089
  34.  C 3 (s)     -0.0908  0.0000 -0.9026  0.0771  0.0081  0.0000 -1.9402  0.0952
  35.  C 3 (px)    -0.0819 -1.0395  0.0000 -0.0650  0.6188 -1.1672  0.0329  0.6711
  36.  C 3 (py)    -0.0113  0.0000 -0.2859  1.2120  0.1274  0.0000 -1.7152  0.0841
  37.  C 3 (pz)    -0.0098  0.0000  0.9293  0.4149  0.0436  0.0000  1.1477 -0.0563
  38.  C 3 (d5)     0.0001  0.0000  0.0181  0.0150  0.0016  0.0000  0.0145 -0.0007
  39.  C 3 (d2)     0.0084  0.0045  0.0000 -0.0013  0.0123 -0.0031  0.0012  0.0245
  40.  C 3 (d3)     0.0004  0.0000 -0.0027 -0.0079 -0.0008  0.0000  0.0039 -0.0002
  41.  C 3 (d4)    -0.0002  0.0000  0.0018  0.0118  0.0012  0.0000 -0.0058  0.0003
  42.  C 3 (d1)    -0.0085  0.0053  0.0000  0.0000  0.0000  0.0065 -0.0009 -0.0174
  43.  C 4 (s)     -0.1211  0.0000  0.0534 -0.0009  0.0083  0.0000 -0.0031 -0.0626
  44.  C 4 (s)      0.0731  0.0000  0.0016  0.0023 -0.0219  0.0000 -0.0008 -0.0154
  45.  C 4 (px)     0.0135  0.0000  0.0581 -0.0258  0.2454  0.0000 -0.0042 -0.0849
  46.  C 4 (py)    -0.0011  0.1803  0.0000  0.1136  0.0119 -0.1823  0.1177 -0.0058
  47.  C 4 (pz)    -0.0666  0.0000 -0.0343 -0.0093  0.0888  0.0000  0.0089  0.1809
  48.  C 4 (s)      2.2437  0.0000 -0.9026  0.0081 -0.0771  0.0000  0.0952  1.9402
  49.  C 4 (px)    -0.2785  0.0000  0.2859 -0.1274  1.2120  0.0000 -0.0841 -1.7152
  50.  C 4 (py)    -0.0033  1.0395  0.0000  0.6188  0.0650 -1.1672  0.6711 -0.0329
  51.  C 4 (pz)    -0.2433  0.0000 -0.9293 -0.0436  0.4149  0.0000  0.0563  1.1477
  52.  C 4 (d5)    -0.0014  0.0000  0.0181  0.0016 -0.0150  0.0000 -0.0007 -0.0145
  53.  C 4 (d2)    -0.0107  0.0000 -0.0027 -0.0008  0.0079  0.0000 -0.0002 -0.0039
  54.  C 4 (d3)    -0.0003  0.0045  0.0000 -0.0123 -0.0013  0.0031 -0.0245  0.0012
  55.  C 4 (d4)    -0.0040  0.0000 -0.0018 -0.0012  0.0118  0.0000 -0.0003 -0.0058
  56.  C 4 (d1)     0.0003  0.0053  0.0000  0.0000  0.0000 -0.0065  0.0174 -0.0009
  57.  C 5 (s)      0.1211  0.0000  0.0534  0.0009 -0.0083  0.0000  0.0031  0.0626
  58.  C 5 (s)     -0.0731  0.0000  0.0016 -0.0023  0.0219  0.0000  0.0008  0.0154
  59.  C 5 (px)     0.0135  0.0000 -0.0581 -0.0258  0.2454  0.0000 -0.0042 -0.0849
  60.  C 5 (py)    -0.0011 -0.1803  0.0000  0.1136  0.0119  0.1823  0.1177 -0.0058
  61.  C 5 (pz)     0.0666  0.0000 -0.0343  0.0093 -0.0888  0.0000 -0.0089 -0.1809
  62.  C 5 (s)     -2.2437  0.0000 -0.9026 -0.0081  0.0771  0.0000 -0.0952 -1.9402
  63.  C 5 (px)    -0.2785  0.0000 -0.2859 -0.1274  1.2120  0.0000 -0.0841 -1.7152
  64.  C 5 (py)    -0.0033 -1.0395  0.0000  0.6188  0.0650  1.1672  0.6711 -0.0329
  65.  C 5 (pz)     0.2433  0.0000 -0.9293  0.0436 -0.4149  0.0000 -0.0563 -1.1477
  66.  C 5 (d5)     0.0014  0.0000  0.0181 -0.0016  0.0150  0.0000  0.0007  0.0145
  67.  C 5 (d2)    -0.0107  0.0000  0.0027 -0.0008  0.0079  0.0000 -0.0002 -0.0039
  68.  C 5 (d3)    -0.0003 -0.0045  0.0000 -0.0123 -0.0013 -0.0031 -0.0245  0.0012
  69.  C 5 (d4)     0.0040  0.0000 -0.0018  0.0012 -0.0118  0.0000  0.0003  0.0058
  70.  C 5 (d1)    -0.0003  0.0053  0.0000  0.0000  0.0000 -0.0065 -0.0174  0.0009
  71.  H 6 (s)     -0.0346 -0.0061 -0.0209 -0.0107 -0.0112 -0.0099  0.0691 -0.0726
  72.  H 6 (s)     -0.2055  0.9970 -0.0194 -0.5636  0.5560  1.0711  0.5464  0.5345
  73.  H 7 (s)      0.0343  0.0061 -0.0209 -0.0128  0.0087  0.0099  0.0759  0.0655
  74.  H 7 (s)      0.1283 -0.9970 -0.0194 -0.4357 -0.6610 -1.0711  0.4915 -0.5855
  75.  H 8 (s)     -0.0343  0.0061 -0.0209  0.0128 -0.0087  0.0099 -0.0759 -0.0655
  76.  H 8 (s)     -0.1283 -0.9970 -0.0194  0.4357  0.6610 -1.0711 -0.4915  0.5855
  77.  H 9 (s)      0.0346 -0.0061 -0.0209  0.0107  0.0112 -0.0099 -0.0691  0.0726
  78.  H 9 (s)      0.2055  0.9970 -0.0194  0.5636 -0.5560  1.0711 -0.5464 -0.5345
  79.  H10 (s)     -0.0044 -0.0061 -0.0209 -0.0087 -0.0128  0.0099 -0.0655  0.0759
  80.  H10 (s)     -0.9594  0.9970 -0.0194  0.6610 -0.4357 -1.0711  0.5855  0.4915
  81.  H11 (s)     -0.0016  0.0061 -0.0209  0.0112 -0.0107 -0.0099  0.0726  0.0691
  82.  H11 (s)     -0.9459 -0.9970 -0.0194 -0.5560 -0.5636  1.0711 -0.5345  0.5464
  83.  H12 (s)      0.0016  0.0061 -0.0209 -0.0112  0.0107 -0.0099 -0.0726 -0.0691
  84.  H12 (s)      0.9459 -0.9970 -0.0194  0.5560  0.5636  1.0711  0.5345 -0.5464
  85.  H13 (s)      0.0044 -0.0061 -0.0209  0.0087  0.0128  0.0099  0.0655 -0.0759
  86.  H13 (s)      0.9594  0.9970 -0.0194 -0.6610  0.4357 -1.0711 -0.5855 -0.4915

           AO         33      34      35      36      37      38      39      40
      ------------ ------- ------- ------- ------- ------- ------- ------- -------
   1.  C 1 (s)      0.0000  0.0736  0.0000  0.0000  0.0000 -0.0246  0.0000  0.0000
   2.  C 1 (s)      0.0000  0.1710  0.0000  0.0000  0.0000 -0.1874  0.0000  0.0000
   3.  C 1 (px)     0.0000  0.0000  0.0000  0.0293 -0.2859  0.0000  0.0000  0.0000
   4.  C 1 (py)     0.0000  0.0000  0.0000 -0.2859 -0.0293  0.0000  0.0000  0.0000
   5.  C 1 (pz)     0.3842  0.0000 -0.0482  0.0000  0.0000  0.0000 -0.0361  0.0000
   6.  C 1 (s)      0.0000  1.1240  0.0000  0.0000  0.0000  0.5122  0.0000  0.0000
   7.  C 1 (px)     0.0000  0.0000  0.0000  0.0438 -0.4264  0.0000  0.0000  0.0000
   8.  C 1 (py)     0.0000  0.0000  0.0000 -0.4264 -0.0438  0.0000  0.0000  0.0000
   9.  C 1 (pz)     4.3097  0.0000  1.2853  0.0000  0.0000  0.0000  3.5834  0.0000
  10.  C 1 (d5)     0.0000  0.1715  0.0000  0.0000  0.0000 -0.0426  0.0000  0.0000
  11.  C 1 (d2)     0.0000  0.0000  0.0000 -0.0122  0.1186  0.0000  0.0000  0.0000
  12.  C 1 (d3)     0.0000  0.0000  0.0000 -0.1186 -0.0122  0.0000  0.0000  0.0000
  13.  C 1 (d4)    -0.0176  0.0000  0.0200  0.0000  0.0000  0.0000  0.1125  0.0000
  14.  C 1 (d1)     0.0000  0.0000  0.0000  0.0000  0.0000  0.0000  0.0000  0.0998
  15.  C 2 (s)      0.0313  0.0086 -0.0136 -0.0088 -0.0009  0.0021  0.0200  0.0000
  16.  C 2 (s)      0.0078  0.3389  0.0149 -0.1774 -0.0182 -0.2621  0.2532  0.0000
  17.  C 2 (px)     0.0000  0.0000  0.0000  0.0205 -0.1997  0.0000  0.0000 -0.3809
  18.  C 2 (py)     0.0121 -0.2968  0.4328  0.1127  0.0116 -0.2532 -0.1246  0.0000
  19.  C 2 (pz)    -0.0270 -0.2937  0.0064  0.4541  0.0466  0.3055  0.4016  0.0000
  20.  C 2 (s)     -1.4479 -0.3419 -0.6443  1.1109  0.1140  0.5720 -1.6514  0.0000
  21.  C 2 (px)     0.0000  0.0000  0.0000 -0.0452  0.4407  0.0000  0.0000  1.3954
  22.  C 2 (py)     0.9171  0.5759 -0.4289 -0.9560 -0.0981  0.5563  0.5788  0.0000
  23.  C 2 (pz)     1.3373  0.4134  0.1995 -1.0644 -0.1093 -0.0594  0.3037  0.0000
  24.  C 2 (d5)     0.0110 -0.0484  0.0011 -0.0410 -0.0042  0.0188 -0.0764  0.0000
  25.  C 2 (d2)     0.0000  0.0000  0.0000  0.0038 -0.0369  0.0000  0.0000 -0.0740
  26.  C 2 (d3)     0.0142  0.0216  0.0141  0.0026  0.0003 -0.0459  0.0408  0.0000
  27.  C 2 (d4)    -0.0109 -0.0599  0.0643 -0.0009 -0.0001 -0.0404 -0.0078  0.0000
  28.  C 2 (d1)     0.0000  0.0000  0.0000  0.0056 -0.0543  0.0000  0.0000 -0.0211
  29.  C 3 (s)      0.0313  0.0086 -0.0136  0.0088  0.0009  0.0021  0.0200  0.0000
  30.  C 3 (s)      0.0078  0.3389  0.0149  0.1774  0.0182 -0.2621  0.2532  0.0000
  31.  C 3 (px)     0.0000  0.0000  0.0000  0.0205 -0.1997  0.0000  0.0000  0.3809
  32.  C 3 (py)    -0.0121  0.2968 -0.4328  0.1127  0.0116  0.2532  0.1246  0.0000
  33.  C 3 (pz)    -0.0270 -0.2937  0.0064 -0.4541 -0.0466  0.3055  0.4016  0.0000
  34.  C 3 (s)     -1.4479 -0.3419 -0.6443 -1.1109 -0.1140  0.5720 -1.6514  0.0000
  35.  C 3 (px)     0.0000  0.0000  0.0000 -0.0452  0.4407  0.0000  0.0000 -1.3954
  36.  C 3 (py)    -0.9171 -0.5759  0.4289 -0.9560 -0.0981 -0.5563 -0.5788  0.0000
  37.  C 3 (pz)     1.3373  0.4134  0.1995  1.0644  0.1093 -0.0594  0.3037  0.0000
  38.  C 3 (d5)     0.0110 -0.0484  0.0011  0.0410  0.0042  0.0188 -0.0764  0.0000
  39.  C 3 (d2)     0.0000  0.0000  0.0000  0.0038 -0.0369  0.0000  0.0000  0.0740
  40.  C 3 (d3)    -0.0142 -0.0216 -0.0141  0.0026  0.0003  0.0459 -0.0408  0.0000
  41.  C 3 (d4)    -0.0109 -0.0599  0.0643  0.0009  0.0001 -0.0404 -0.0078  0.0000
  42.  C 3 (d1)     0.0000  0.0000  0.0000 -0.0056  0.0543  0.0000  0.0000 -0.0211
  43.  C 4 (s)     -0.0313  0.0086  0.0136  0.0009 -0.0088  0.0021 -0.0200  0.0000
  44.  C 4 (s)     -0.0078  0.3389 -0.0149  0.0182 -0.1774 -0.2621 -0.2532  0.0000
  45.  C 4 (px)    -0.0121 -0.2968 -0.4328 -0.0116  0.1127 -0.2532  0.1246  0.0000
  46.  C 4 (py)     0.0000  0.0000  0.0000 -0.1997 -0.0205  0.0000  0.0000 -0.3809
  47.  C 4 (pz)    -0.0270  0.2937  0.0064  0.0466 -0.4541 -0.3055  0.4016  0.0000
  48.  C 4 (s)      1.4479 -0.3419  0.6443 -0.1140  1.1109  0.5720  1.6514  0.0000
  49.  C 4 (px)    -0.9171  0.5759  0.4289  0.0981 -0.9560  0.5563 -0.5788  0.0000
  50.  C 4 (py)     0.0000  0.0000  0.0000  0.4407  0.0452  0.0000  0.0000  1.3954
  51.  C 4 (pz)     1.3373 -0.4134  0.1995 -0.1093  1.0644  0.0594  0.3037  0.0000
  52.  C 4 (d5)    -0.0110 -0.0484 -0.0011  0.0042 -0.0410  0.0188  0.0764  0.0000
  53.  C 4 (d2)     0.0142 -0.0216  0.0141  0.0003 -0.0026  0.0459  0.0408  0.0000
  54.  C 4 (d3)     0.0000  0.0000  0.0000  0.0369  0.0038  0.0000  0.0000  0.0740
  55.  C 4 (d4)    -0.0109  0.0599  0.0643 -0.0001  0.0009  0.0404 -0.0078  0.0000
  56.  C 4 (d1)     0.0000  0.0000  0.0000 -0.0543 -0.0056  0.0000  0.0000 -0.0211
  57.  C 5 (s)     -0.0313  0.0086  0.0136 -0.0009  0.0088  0.0021 -0.0200  0.0000
  58.  C 5 (s)     -0.0078  0.3389 -0.0149 -0.0182  0.1774 -0.2621 -0.2532  0.0000
  59.  C 5 (px)     0.0121  0.2968  0.4328 -0.0116  0.1127  0.2532 -0.1246  0.0000
  60.  C 5 (py)     0.0000  0.0000  0.0000 -0.1997 -0.0205  0.0000  0.0000  0.3809
  61.  C 5 (pz)    -0.0270  0.2937  0.0064 -0.0466  0.4541 -0.3055  0.4016  0.0000
  62.  C 5 (s)      1.4479 -0.3419  0.6443  0.1140 -1.1109  0.5720  1.6514  0.0000
  63.  C 5 (px)     0.9171 -0.5759 -0.4289  0.0981 -0.9560 -0.5563  0.5788  0.0000
  64.  C 5 (py)     0.0000  0.0000  0.0000  0.4407  0.0452  0.0000  0.0000 -1.3954
  65.  C 5 (pz)     1.3373 -0.4134  0.1995  0.1093 -1.0644  0.0594  0.3037  0.0000
  66.  C 5 (d5)    -0.0110 -0.0484 -0.0011 -0.0042  0.0410  0.0188  0.0764  0.0000
  67.  C 5 (d2)    -0.0142  0.0216 -0.0141  0.0003 -0.0026 -0.0459 -0.0408  0.0000
  68.  C 5 (d3)     0.0000  0.0000  0.0000  0.0369  0.0038  0.0000  0.0000 -0.0740
  69.  C 5 (d4)    -0.0109  0.0599  0.0643  0.0001 -0.0009  0.0404 -0.0078  0.0000
  70.  C 5 (d1)     0.0000  0.0000  0.0000  0.0543  0.0056  0.0000  0.0000 -0.0211
  71.  H 6 (s)     -0.0414 -0.0336  0.1145  0.0985  0.2410 -0.1874  0.1823  0.2249
  72.  H 6 (s)     -0.2875 -0.0043 -0.0716  0.1111  0.0278 -0.1495 -0.0655  0.4450
  73.  H 7 (s)     -0.0414 -0.0336  0.1145  0.1454 -0.2159 -0.1874  0.1823 -0.2249
  74.  H 7 (s)     -0.2875 -0.0043 -0.0716  0.1144 -0.0046 -0.1495 -0.0655 -0.4450
  75.  H 8 (s)     -0.0414 -0.0336  0.1145 -0.1454  0.2159 -0.1874  0.1823 -0.2249
  76.  H 8 (s)     -0.2875 -0.0043 -0.0716 -0.1144  0.0046 -0.1495 -0.0655 -0.4450
  77.  H 9 (s)     -0.0414 -0.0336  0.1145 -0.0985 -0.2410 -0.1874  0.1823  0.2249
  78.  H 9 (s)     -0.2875 -0.0043 -0.0716 -0.1111 -0.0278 -0.1495 -0.0655  0.4450
  79.  H10 (s)      0.0414 -0.0336 -0.1145  0.2159  0.1454 -0.1874 -0.1823  0.2249
  80.  H10 (s)      0.2875 -0.0043  0.0716  0.0046  0.1144 -0.1495  0.0655  0.4450
  81.  H11 (s)      0.0414 -0.0336 -0.1145 -0.2410  0.0985 -0.1874 -0.1823 -0.2249
  82.  H11 (s)      0.2875 -0.0043  0.0716 -0.0278  0.1111 -0.1495  0.0655 -0.4450
  83.  H12 (s)      0.0414 -0.0336 -0.1145  0.2410 -0.0985 -0.1874 -0.1823 -0.2249
  84.  H12 (s)      0.2875 -0.0043  0.0716  0.0278 -0.1111 -0.1495  0.0655 -0.4450
  85.  H13 (s)      0.0414 -0.0336 -0.1145 -0.2159 -0.1454 -0.1874 -0.1823  0.2249
  86.  H13 (s)      0.2875 -0.0043  0.0716 -0.0046 -0.1144 -0.1495  0.0655  0.4450

           AO         41      42      43      44      45      46      47      48
      ------------ ------- ------- ------- ------- ------- ------- ------- -------
   1.  C 1 (s)      0.0000  0.0000  0.0568  0.0000  0.0000  0.0000  0.0000  0.0000
   2.  C 1 (s)      0.0000  0.0000 -1.0198  0.0000  0.0000  0.0000  0.0000  0.0000
   3.  C 1 (px)     0.0384 -0.3743  0.0000 -0.0133 -0.0348 -1.0171  0.1045  0.0000
   4.  C 1 (py)    -0.3743 -0.0384  0.0000 -0.0348  0.0133 -0.1045 -1.0171  0.0000
   5.  C 1 (pz)     0.0000  0.0000  0.0000  0.0000  0.0000  0.0000  0.0000 -1.1240
   6.  C 1 (s)      0.0000  0.0000  1.4336  0.0000  0.0000  0.0000  0.0000  0.0000
   7.  C 1 (px)     0.0255 -0.2486  0.0000 -0.2018 -0.5298  2.7349 -0.2809  0.0000
   8.  C 1 (py)    -0.2486 -0.0255  0.0000 -0.5298  0.2018  0.2809  2.7349  0.0000
   9.  C 1 (pz)     0.0000  0.0000  0.0000  0.0000  0.0000  0.0000  0.0000  5.8632
  10.  C 1 (d5)     0.0000  0.0000 -0.0367  0.0000  0.0000  0.0000  0.0000  0.0000
  11.  C 1 (d2)     0.0099 -0.0964  0.0000 -0.0213 -0.0558 -0.0299  0.0031  0.0000
  12.  C 1 (d3)     0.0964  0.0099  0.0000  0.0558 -0.0213  0.0031  0.0299  0.0000
  13.  C 1 (d4)     0.0000  0.0000  0.0000  0.0000  0.0000  0.0000  0.0000  0.0039
  14.  C 1 (d1)     0.0000  0.0000  0.0000  0.0000  0.0000  0.0000  0.0000  0.0000
  15.  C 2 (s)     -0.0569 -0.0058 -0.0358 -0.0011  0.0004 -0.0017 -0.0169 -0.0284
  16.  C 2 (s)      0.3147  0.0323 -0.2120 -0.0456  0.0174 -0.0019 -0.0188  0.1440
  17.  C 2 (px)     0.0164 -0.1601  0.0000 -0.1053 -0.2765  0.2287 -0.0235  0.0000
  18.  C 2 (py)    -0.6790 -0.0698  0.1390  0.1850 -0.0705  0.0182  0.1770 -0.0513
  19.  C 2 (pz)     0.0466  0.0048 -0.3193 -0.4891  0.1863 -0.0230 -0.2240 -0.1556
  20.  C 2 (s)     -0.5419 -0.0557  0.2160  0.5804 -0.2211 -0.0492 -0.4788 -1.9866
  21.  C 2 (px)    -0.0589  0.5731  0.0000  0.3251  0.8536 -1.0095  0.1037  0.0000
  22.  C 2 (py)     1.0996  0.1129 -0.0247 -0.3059  0.1165 -0.0613 -0.5966  0.8548
  23.  C 2 (pz)    -0.0537 -0.0055  0.3617  0.5959 -0.2270  0.1120  1.0902  1.0829
  24.  C 2 (d5)     0.0464  0.0048  0.0096 -0.0080  0.0030 -0.0038 -0.0371 -0.0898
  25.  C 2 (d2)    -0.0040  0.0389  0.0000  0.0108  0.0283 -0.0293  0.0030  0.0000
  26.  C 2 (d3)    -0.0165 -0.0017 -0.0875  0.0004 -0.0001 -0.0056 -0.0548 -0.0870
  27.  C 2 (d4)     0.0661  0.0068  0.0166 -0.0190  0.0073 -0.0011 -0.0110  0.0113
  28.  C 2 (d1)     0.0016 -0.0152  0.0000 -0.0426 -0.1117  0.0553 -0.0057  0.0000
  29.  C 3 (s)      0.0569  0.0058 -0.0358  0.0011 -0.0004  0.0017  0.0169 -0.0284
  30.  C 3 (s)     -0.3147 -0.0323 -0.2120  0.0456 -0.0174  0.0019  0.0188  0.1440
  31.  C 3 (px)     0.0164 -0.1601  0.0000 -0.1053 -0.2765  0.2287 -0.0235  0.0000
  32.  C 3 (py)    -0.6790 -0.0698 -0.1390  0.1850 -0.0705  0.0182  0.1770  0.0513
  33.  C 3 (pz)    -0.0466 -0.0048 -0.3193  0.4891 -0.1863  0.0230  0.2240 -0.1556
  34.  C 3 (s)      0.5419  0.0557  0.2160 -0.5804  0.2211  0.0492  0.4788 -1.9866
  35.  C 3 (px)    -0.0589  0.5731  0.0000  0.3251  0.8536 -1.0095  0.1037  0.0000
  36.  C 3 (py)     1.0996  0.1129  0.0247 -0.3059  0.1165 -0.0613 -0.5966 -0.8548
  37.  C 3 (pz)     0.0537  0.0055  0.3617 -0.5959  0.2270 -0.1120 -1.0902  1.0829
  38.  C 3 (d5)    -0.0464 -0.0048  0.0096  0.0080 -0.0030  0.0038  0.0371 -0.0898
  39.  C 3 (d2)    -0.0040  0.0389  0.0000  0.0108  0.0283 -0.0293  0.0030  0.0000
  40.  C 3 (d3)    -0.0165 -0.0017  0.0875  0.0004 -0.0001 -0.0056 -0.0548  0.0870
  41.  C 3 (d4)    -0.0661 -0.0068  0.0166  0.0190 -0.0073  0.0011  0.0110  0.0113
  42.  C 3 (d1)    -0.0016  0.0152  0.0000  0.0426  0.1117 -0.0553  0.0057  0.0000
  43.  C 4 (s)      0.0058 -0.0569 -0.0358 -0.0004 -0.0011 -0.0169  0.0017  0.0284
  44.  C 4 (s)     -0.0323  0.3147 -0.2120 -0.0174 -0.0456 -0.0188  0.0019 -0.1440
  45.  C 4 (px)     0.0698 -0.6790  0.1390  0.0705  0.1850  0.1770 -0.0182  0.0513
  46.  C 4 (py)    -0.1601 -0.0164  0.0000 -0.2765  0.1053  0.0235  0.2287  0.0000
  47.  C 4 (pz)     0.0048 -0.0466  0.3193  0.1863  0.4891  0.2240 -0.0230 -0.1556
  48.  C 4 (s)      0.0557 -0.5419  0.2160  0.2211  0.5804 -0.4788  0.0492  1.9866
  49.  C 4 (px)    -0.1129  1.0996 -0.0247 -0.1165 -0.3059 -0.5966  0.0613 -0.8548
  50.  C 4 (py)     0.5731  0.0589  0.0000  0.8536 -0.3251 -0.1037 -1.0095  0.0000
  51.  C 4 (pz)    -0.0055  0.0537 -0.3617 -0.2270 -0.5959 -1.0902  0.1120  1.0829
  52.  C 4 (d5)    -0.0048  0.0464  0.0096 -0.0030 -0.0080 -0.0371  0.0038  0.0898
  53.  C 4 (d2)    -0.0017  0.0165  0.0875 -0.0001 -0.0004  0.0548 -0.0056 -0.0870
  54.  C 4 (d3)    -0.0389 -0.0040  0.0000 -0.0283  0.0108  0.0030  0.0293  0.0000
  55.  C 4 (d4)     0.0068 -0.0661 -0.0166  0.0073  0.0190  0.0110 -0.0011  0.0113
  56.  C 4 (d1)    -0.0152 -0.0016  0.0000 -0.1117  0.0426  0.0057  0.0553  0.0000
  57.  C 5 (s)     -0.0058  0.0569 -0.0358  0.0004  0.0011  0.0169 -0.0017  0.0284
  58.  C 5 (s)      0.0323 -0.3147 -0.2120  0.0174  0.0456  0.0188 -0.0019 -0.1440
  59.  C 5 (px)     0.0698 -0.6790 -0.1390  0.0705  0.1850  0.1770 -0.0182 -0.0513
  60.  C 5 (py)    -0.1601 -0.0164  0.0000 -0.2765  0.1053  0.0235  0.2287  0.0000
  61.  C 5 (pz)    -0.0048  0.0466  0.3193 -0.1863 -0.4891 -0.2240  0.0230 -0.1556
  62.  C 5 (s)     -0.0557  0.5419  0.2160 -0.2211 -0.5804  0.4788 -0.0492  1.9866
  63.  C 5 (px)    -0.1129  1.0996  0.0247 -0.1165 -0.3059 -0.5966  0.0613  0.8548
  64.  C 5 (py)     0.5731  0.0589  0.0000  0.8536 -0.3251 -0.1037 -1.0095  0.0000
  65.  C 5 (pz)     0.0055 -0.0537 -0.3617  0.2270  0.5959  1.0902 -0.1120  1.0829
  66.  C 5 (d5)     0.0048 -0.0464  0.0096  0.0030  0.0080  0.0371 -0.0038  0.0898
  67.  C 5 (d2)    -0.0017  0.0165 -0.0875 -0.0001 -0.0004  0.0548 -0.0056  0.0870
  68.  C 5 (d3)    -0.0389 -0.0040  0.0000 -0.0283  0.0108  0.0030  0.0293  0.0000
  69.  C 5 (d4)    -0.0068  0.0661 -0.0166 -0.0073 -0.0190 -0.0110  0.0011  0.0113
  70.  C 5 (d1)     0.0152  0.0016  0.0000  0.1117 -0.0426 -0.0057 -0.0553  0.0000
  71.  H 6 (s)     -0.1948  0.0689 -0.2137  0.1129  0.2750 -0.0446 -0.1052 -0.0809
  72.  H 6 (s)     -0.1497  0.2839 -0.0477 -0.0098  0.1992 -0.3617  0.1015 -0.1571
  73.  H 7 (s)     -0.1768 -0.1070 -0.2137 -0.0986 -0.2805  0.0223 -0.1121 -0.0809
  74.  H 7 (s)     -0.0889 -0.3084 -0.0477 -0.1398 -0.1422  0.3748  0.0258 -0.1571
  75.  H 8 (s)      0.1768  0.1070 -0.2137  0.0986  0.2805 -0.0223  0.1121 -0.0809
  76.  H 8 (s)      0.0889  0.3084 -0.0477  0.1398  0.1422 -0.3748 -0.0258 -0.1571
  77.  H 9 (s)      0.1948 -0.0689 -0.2137 -0.1129 -0.2750  0.0446  0.1052 -0.0809
  78.  H 9 (s)      0.1497 -0.2839 -0.0477  0.0098 -0.1992  0.3617 -0.1015 -0.1571
  79.  H10 (s)      0.1070 -0.1768 -0.2137  0.2805 -0.0986 -0.1121 -0.0223  0.0809
  80.  H10 (s)      0.3084 -0.0889 -0.0477  0.1422 -0.1398  0.0258 -0.3748  0.1571
  81.  H11 (s)     -0.0689 -0.1948 -0.2137 -0.2750  0.1129 -0.1052  0.0446  0.0809
  82.  H11 (s)     -0.2839 -0.1497 -0.0477 -0.1992 -0.0098  0.1015  0.3617  0.1571
  83.  H12 (s)      0.0689  0.1948 -0.2137  0.2750 -0.1129  0.1052 -0.0446  0.0809
  84.  H12 (s)      0.2839  0.1497 -0.0477  0.1992  0.0098 -0.1015 -0.3617  0.1571
  85.  H13 (s)     -0.1070  0.1768 -0.2137 -0.2805  0.0986  0.1121  0.0223  0.0809
  86.  H13 (s)     -0.3084  0.0889 -0.0477 -0.1422  0.1398 -0.0258  0.3748  0.1571

           AO         49      50      51      52      53      54      55      56
      ------------ ------- ------- ------- ------- ------- ------- ------- -------
   1.  C 1 (s)      0.0000  0.0000  0.0000  0.0000  0.0000 -0.0054  0.0000  0.0000
   2.  C 1 (s)      0.0000  0.0000  0.0000  0.0000  0.0000 -0.4086  0.0000  0.0000
   3.  C 1 (px)    -0.0476 -0.0669  0.0000  0.0000  0.0000  0.0000 -0.0331 -0.1492
   4.  C 1 (py)    -0.0669  0.0476  0.0000  0.0000  0.0000  0.0000 -0.1492  0.0331
   5.  C 1 (pz)     0.0000  0.0000  0.0000  0.0000 -0.1354  0.0000  0.0000  0.0000
   6.  C 1 (s)      0.0000  0.0000  0.0000  0.0000  0.0000  0.5721  0.0000  0.0000
   7.  C 1 (px)    -0.0256 -0.0359  0.0000  0.0000  0.0000  0.0000  0.1156  0.5211
   8.  C 1 (py)    -0.0359  0.0256  0.0000  0.0000  0.0000  0.0000  0.5211 -0.1156
   9.  C 1 (pz)     0.0000  0.0000  0.0000  0.0000 -0.3780  0.0000  0.0000  0.0000
  10.  C 1 (d5)     0.0000  0.0000  0.0000  0.0000  0.0000 -0.0175  0.0000  0.0000
  11.  C 1 (d2)    -0.0455 -0.0640  0.0000  0.0000  0.0000  0.0000  0.0051  0.0230
  12.  C 1 (d3)     0.0640 -0.0455  0.0000  0.0000  0.0000  0.0000 -0.0230  0.0051
  13.  C 1 (d4)     0.0000  0.0000  0.0000  0.0000 -0.0210  0.0000  0.0000  0.0000
  14.  C 1 (d1)     0.0000  0.0000  0.0000 -0.1528  0.0000  0.0000  0.0000  0.0000
  15.  C 2 (s)      0.0060 -0.0043  0.0000  0.0000  0.0240  0.0179  0.0359 -0.0080
  16.  C 2 (s)     -0.2443  0.1739  0.0000  0.0000 -0.3706 -0.7064 -0.6831  0.1515
  17.  C 2 (px)    -0.4083 -0.5737 -0.6053 -0.4711  0.0000  0.0000  0.0127  0.0572
  18.  C 2 (py)     0.0849 -0.0604  0.0000  0.0000 -0.2404 -0.2527 -0.4373  0.0970
  19.  C 2 (pz)     0.0072 -0.0051  0.0000  0.0000 -0.3129 -0.1648 -0.2432  0.0539
  20.  C 2 (s)      0.6039 -0.4298  0.0000  0.0000  0.8590  1.1694  0.9846 -0.2183
  21.  C 2 (px)     0.6368  0.8947  1.4824  0.7518  0.0000  0.0000 -0.0595 -0.2681
  22.  C 2 (py)    -0.3017  0.2147  0.0000  0.0000  0.1847  0.3786  0.7401 -0.1641
  23.  C 2 (pz)     0.0955 -0.0680  0.0000  0.0000  0.2658  0.2448  0.5295 -0.1174
  24.  C 2 (d5)     0.0058 -0.0041  0.0000  0.0000 -0.0429 -0.0456 -0.0811  0.0180
  25.  C 2 (d2)     0.0322  0.0452  0.0448  0.0764  0.0000  0.0000 -0.0055 -0.0249
  26.  C 2 (d3)    -0.0092  0.0066  0.0000  0.0000  0.0278  0.0037  0.0128 -0.0028
  27.  C 2 (d4)    -0.0121  0.0086  0.0000  0.0000  0.0720  0.0834  0.0855 -0.0190
  28.  C 2 (d1)     0.0992  0.1394  0.0368  0.0562  0.0000  0.0000  0.0029  0.0130
  29.  C 3 (s)     -0.0060  0.0043  0.0000  0.0000  0.0240  0.0179 -0.0359  0.0080
  30.  C 3 (s)      0.2443 -0.1739  0.0000  0.0000 -0.3706 -0.7064  0.6831 -0.1515
  31.  C 3 (px)    -0.4083 -0.5737  0.6053  0.4711  0.0000  0.0000  0.0127  0.0572
  32.  C 3 (py)     0.0849 -0.0604  0.0000  0.0000  0.2404  0.2527 -0.4373  0.0970
  33.  C 3 (pz)    -0.0072  0.0051  0.0000  0.0000 -0.3129 -0.1648  0.2432 -0.0539
  34.  C 3 (s)     -0.6039  0.4298  0.0000  0.0000  0.8590  1.1694 -0.9846  0.2183
  35.  C 3 (px)     0.6368  0.8947 -1.4824 -0.7518  0.0000  0.0000 -0.0595 -0.2681
  36.  C 3 (py)    -0.3017  0.2147  0.0000  0.0000 -0.1847 -0.3786  0.7401 -0.1641
  37.  C 3 (pz)    -0.0955  0.0680  0.0000  0.0000  0.2658  0.2448 -0.5295  0.1174
  38.  C 3 (d5)    -0.0058  0.0041  0.0000  0.0000 -0.0429 -0.0456  0.0811 -0.0180
  39.  C 3 (d2)     0.0322  0.0452 -0.0448 -0.0764  0.0000  0.0000 -0.0055 -0.0249
  40.  C 3 (d3)    -0.0092  0.0066  0.0000  0.0000 -0.0278 -0.0037  0.0128 -0.0028
  41.  C 3 (d4)     0.0121 -0.0086  0.0000  0.0000  0.0720  0.0834 -0.0855  0.0190
  42.  C 3 (d1)    -0.0992 -0.1394  0.0368  0.0562  0.0000  0.0000 -0.0029 -0.0130
  43.  C 4 (s)      0.0043  0.0060  0.0000  0.0000 -0.0240  0.0179  0.0080  0.0359
  44.  C 4 (s)     -0.1739 -0.2443  0.0000  0.0000  0.3706 -0.7064 -0.1515 -0.6831
  45.  C 4 (px)     0.0604  0.0849  0.0000  0.0000  0.2404 -0.2527 -0.0970 -0.4373
  46.  C 4 (py)    -0.5737  0.4083  0.6053 -0.4711  0.0000  0.0000  0.0572 -0.0127
  47.  C 4 (pz)    -0.0051 -0.0072  0.0000  0.0000 -0.3129  0.1648  0.0539  0.2432
  48.  C 4 (s)      0.4298  0.6039  0.0000  0.0000 -0.8590  1.1694  0.2183  0.9846
  49.  C 4 (px)    -0.2147 -0.3017  0.0000  0.0000 -0.1847  0.3786  0.1641  0.7401
  50.  C 4 (py)     0.8947 -0.6368 -1.4824  0.7518  0.0000  0.0000 -0.2681  0.0595
  51.  C 4 (pz)    -0.0680 -0.0955  0.0000  0.0000  0.2658 -0.2448 -0.1174 -0.5295
  52.  C 4 (d5)     0.0041  0.0058  0.0000  0.0000  0.0429 -0.0456 -0.0180 -0.0811
  53.  C 4 (d2)     0.0066  0.0092  0.0000  0.0000  0.0278 -0.0037 -0.0028 -0.0128
  54.  C 4 (d3)    -0.0452  0.0322  0.0448 -0.0764  0.0000  0.0000  0.0249 -0.0055
  55.  C 4 (d4)     0.0086  0.0121  0.0000  0.0000  0.0720 -0.0834 -0.0190 -0.0855
  56.  C 4 (d1)     0.1394 -0.0992 -0.0368  0.0562  0.0000  0.0000  0.0130 -0.0029
  57.  C 5 (s)     -0.0043 -0.0060  0.0000  0.0000 -0.0240  0.0179 -0.0080 -0.0359
  58.  C 5 (s)      0.1739  0.2443  0.0000  0.0000  0.3706 -0.7064  0.1515  0.6831
  59.  C 5 (px)     0.0604  0.0849  0.0000  0.0000 -0.2404  0.2527 -0.0970 -0.4373
  60.  C 5 (py)    -0.5737  0.4083 -0.6053  0.4711  0.0000  0.0000  0.0572 -0.0127
  61.  C 5 (pz)     0.0051  0.0072  0.0000  0.0000 -0.3129  0.1648 -0.0539 -0.2432
  62.  C 5 (s)     -0.4298 -0.6039  0.0000  0.0000 -0.8590  1.1694 -0.2183 -0.9846
  63.  C 5 (px)    -0.2147 -0.3017  0.0000  0.0000  0.1847 -0.3786  0.1641  0.7401
  64.  C 5 (py)     0.8947 -0.6368  1.4824 -0.7518  0.0000  0.0000 -0.2681  0.0595
  65.  C 5 (pz)     0.0680  0.0955  0.0000  0.0000  0.2658 -0.2448  0.1174  0.5295
  66.  C 5 (d5)    -0.0041 -0.0058  0.0000  0.0000  0.0429 -0.0456  0.0180  0.0811
  67.  C 5 (d2)     0.0066  0.0092  0.0000  0.0000 -0.0278  0.0037 -0.0028 -0.0128
  68.  C 5 (d3)    -0.0452  0.0322 -0.0448  0.0764  0.0000  0.0000  0.0249 -0.0055
  69.  C 5 (d4)    -0.0086 -0.0121  0.0000  0.0000  0.0720 -0.0834  0.0190  0.0855
  70.  C 5 (d1)    -0.1394  0.0992 -0.0368  0.0562  0.0000  0.0000 -0.0130  0.0029
  71.  H 6 (s)     -0.2206 -0.2980 -0.2286 -0.3466  0.3552  0.2838  0.4697 -0.1157
  72.  H 6 (s)      0.5437  0.8396  0.9117  0.6817 -0.5197 -0.6310 -0.9721  0.0747
  73.  H 7 (s)      0.2094  0.3060  0.2286  0.3466  0.3552  0.2838  0.4746 -0.0937
  74.  H 7 (s)     -0.6152 -0.7888 -0.9117 -0.6817 -0.5197 -0.6310 -0.9126  0.3433
  75.  H 8 (s)     -0.2094 -0.3060  0.2286  0.3466  0.3552  0.2838 -0.4746  0.0937
  76.  H 8 (s)      0.6152  0.7888 -0.9117 -0.6817 -0.5197 -0.6310  0.9126 -0.3433
  77.  H 9 (s)      0.2206  0.2980 -0.2286 -0.3466  0.3552  0.2838 -0.4697  0.1157
  78.  H 9 (s)     -0.5437 -0.8396  0.9117  0.6817 -0.5197 -0.6310  0.9721 -0.0747
  79.  H10 (s)     -0.3060  0.2094  0.2286 -0.3466 -0.3552  0.2838  0.0937  0.4746
  80.  H10 (s)      0.7888 -0.6152 -0.9117  0.6817  0.5197 -0.6310 -0.3433 -0.9126
  81.  H11 (s)      0.2980 -0.2206 -0.2286  0.3466 -0.3552  0.2838  0.1157  0.4697
  82.  H11 (s)     -0.8396  0.5437  0.9117 -0.6817  0.5197 -0.6310 -0.0747 -0.9721
  83.  H12 (s)     -0.2980  0.2206 -0.2286  0.3466 -0.3552  0.2838 -0.1157 -0.4697
  84.  H12 (s)      0.8396 -0.5437  0.9117 -0.6817  0.5197 -0.6310  0.0747  0.9721
  85.  H13 (s)      0.3060 -0.2094  0.2286 -0.3466 -0.3552  0.2838 -0.0937 -0.4746
  86.  H13 (s)     -0.7888  0.6152 -0.9117  0.6817  0.5197 -0.6310  0.3433  0.9126

           AO         57      58      59      60      61      62      63      64
      ------------ ------- ------- ------- ------- ------- ------- ------- -------
   1.  C 1 (s)      0.0000  0.0000  0.0000  0.0000 -0.1047 -0.0168  0.0000  0.0000
   2.  C 1 (s)      0.0000  0.0000  0.0000  0.0000 -2.1473 -0.7943  0.0000  0.0000
   3.  C 1 (px)     0.0000  0.0000 -0.0124  0.0854  0.0000  0.0000  0.0000 -0.0122
   4.  C 1 (py)     0.0000  0.0000  0.0854  0.0124  0.0000  0.0000  0.0000  0.1615
   5.  C 1 (pz)    -0.0893  0.0000  0.0000  0.0000  0.0000  0.0000 -0.2645  0.0000
   6.  C 1 (s)      0.0000  0.0000  0.0000  0.0000  8.6595  1.0759  0.0000  0.0000
   7.  C 1 (px)     0.0000  0.0000  0.2609 -1.7908  0.0000  0.0000  0.0000  0.1292
   8.  C 1 (py)     0.0000  0.0000 -1.7908 -0.2609  0.0000  0.0000  0.0000 -1.7172
   9.  C 1 (pz)     1.4864  0.0000  0.0000  0.0000  0.0000  0.0000  3.4466  0.0000
  10.  C 1 (d5)     0.0000  0.0000  0.0000  0.0000 -0.0527  0.3529  0.0000  0.0000
  11.  C 1 (d2)     0.0000  0.0000  0.0009 -0.0062  0.0000  0.0000  0.0000 -0.0431
  12.  C 1 (d3)     0.0000  0.0000  0.0062  0.0009  0.0000  0.0000  0.0000 -0.5722
  13.  C 1 (d4)     0.2073  0.0000  0.0000  0.0000  0.0000  0.0000 -0.4825  0.0000
  14.  C 1 (d1)     0.0000  0.0000  0.0000  0.0000  0.0000  0.0000  0.0000  0.0000
  15.  C 2 (s)     -0.0215  0.0000 -0.0841 -0.0123  0.0429 -0.0123  0.0002 -0.0873
  16.  C 2 (s)     -1.0169  0.0000 -1.6348 -0.2382  0.8363 -0.2803  0.0944 -0.4915
  17.  C 2 (px)     0.0000 -0.2579 -0.0181  0.1244  0.0000  0.0000  0.0000  0.0125
  18.  C 2 (py)     0.0522  0.0000 -0.0091 -0.0013 -0.1387  0.1526 -0.1474 -0.1571
  19.  C 2 (pz)     0.2521  0.0000  0.1170  0.0170  0.1275  0.1226  0.2009 -0.1776
  20.  C 2 (s)      1.0395  0.0000  5.6911  0.8291 -2.7650  0.2206 -1.3170  3.0372
  21.  C 2 (px)     0.0000  1.8718 -0.0352  0.2414  0.0000  0.0000  0.0000 -0.0350
  22.  C 2 (py)     0.3340  0.0000 -1.5082 -0.2197  0.3578 -0.0110  0.5384 -0.6556
  23.  C 2 (pz)    -0.0640  0.0000 -0.6961 -0.1014  1.0180  0.0863  0.4410 -0.4011
  24.  C 2 (d5)    -0.0216  0.0000  0.1043  0.0152 -0.0465 -0.1613  0.2693 -0.1893
  25.  C 2 (d2)     0.0000 -0.1666 -0.0284  0.1952  0.0000  0.0000  0.0000  0.0305
  26.  C 2 (d3)    -0.0361  0.0000 -0.0669 -0.0097 -0.0243  0.3535 -0.1101 -0.1711
  27.  C 2 (d4)     0.0770  0.0000 -0.0761 -0.0111  0.0703  0.0117  0.2362  0.0115
  28.  C 2 (d1)     0.0000 -0.0710  0.0135 -0.0923  0.0000  0.0000  0.0000  0.0065
  29.  C 3 (s)     -0.0215  0.0000  0.0841  0.0123  0.0429 -0.0123  0.0002  0.0873
  30.  C 3 (s)     -1.0169  0.0000  1.6348  0.2382  0.8363 -0.2803  0.0944  0.4915
  31.  C 3 (px)     0.0000  0.2579 -0.0181  0.1244  0.0000  0.0000  0.0000  0.0125
  32.  C 3 (py)    -0.0522  0.0000 -0.0091 -0.0013  0.1387 -0.1526  0.1474 -0.1571
  33.  C 3 (pz)     0.2521  0.0000 -0.1170 -0.0170  0.1275  0.1226  0.2009  0.1776
  34.  C 3 (s)      1.0395  0.0000 -5.6911 -0.8291 -2.7650  0.2206 -1.3170 -3.0372
  35.  C 3 (px)     0.0000 -1.8718 -0.0352  0.2414  0.0000  0.0000  0.0000 -0.0350
  36.  C 3 (py)    -0.3340  0.0000 -1.5082 -0.2197 -0.3578  0.0110 -0.5384 -0.6556
  37.  C 3 (pz)    -0.0640  0.0000  0.6961  0.1014  1.0180  0.0863  0.4410  0.4011
  38.  C 3 (d5)    -0.0216  0.0000 -0.1043 -0.0152 -0.0465 -0.1613  0.2693  0.1893
  39.  C 3 (d2)     0.0000  0.1666 -0.0284  0.1952  0.0000  0.0000  0.0000  0.0305
  40.  C 3 (d3)     0.0361  0.0000 -0.0669 -0.0097  0.0243 -0.3535  0.1101 -0.1711
  41.  C 3 (d4)     0.0770  0.0000  0.0761  0.0111  0.0703  0.0117  0.2362 -0.0115
  42.  C 3 (d1)     0.0000 -0.0710 -0.0135  0.0923  0.0000  0.0000  0.0000 -0.0065
  43.  C 4 (s)      0.0215  0.0000  0.0123 -0.0841  0.0429 -0.0123 -0.0002  0.0066
  44.  C 4 (s)      1.0169  0.0000  0.2382 -1.6348  0.8363 -0.2803 -0.0944  0.0370
  45.  C 4 (px)    -0.0522  0.0000  0.0013 -0.0091 -0.1387  0.1526  0.1474  0.0118
  46.  C 4 (py)     0.0000  0.2579  0.1244  0.0181  0.0000  0.0000  0.0000 -0.1660
  47.  C 4 (pz)     0.2521  0.0000  0.0170 -0.1170 -0.1275 -0.1226  0.2009 -0.0134
  48.  C 4 (s)     -1.0395  0.0000 -0.8291  5.6911 -2.7650  0.2206  1.3170 -0.2285
  49.  C 4 (px)    -0.3340  0.0000  0.2197 -1.5082  0.3578 -0.0110 -0.5384  0.0493
  50.  C 4 (py)     0.0000 -1.8718  0.2414  0.0352  0.0000  0.0000  0.0000  0.4657
  51.  C 4 (pz)    -0.0640  0.0000 -0.1014  0.6961 -1.0180 -0.0863  0.4410 -0.0302
  52.  C 4 (d5)     0.0216  0.0000 -0.0152  0.1043 -0.0465 -0.1613 -0.2693  0.0142
  53.  C 4 (d2)    -0.0361  0.0000 -0.0097  0.0669  0.0243 -0.3535 -0.1101 -0.0129
  54.  C 4 (d3)     0.0000 -0.1666 -0.1952 -0.0284  0.0000  0.0000  0.0000  0.4060
[...]
                                        -0.0014  1.0000
  81. (0.00085) RY ( 1) H  8            s(100.00%)
                                        -0.0014  1.0000
  82. (0.00085) RY ( 1) H  9            s(100.00%)
                                        -0.0014  1.0000
  83. (0.00085) RY ( 1) H 10            s(100.00%)
                                        -0.0014  1.0000
  84. (0.00085) RY ( 1) H 11            s(100.00%)
                                        -0.0014  1.0000
  85. (0.00085) RY ( 1) H 12            s(100.00%)
                                        -0.0014  1.0000
  86. (0.00085) RY ( 1) H 13            s(100.00%)
                                        -0.0014  1.0000


 NHO DIRECTIONALITY AND BOND BENDING (deviation from line of nuclear centers at
                                      the position of maximum hybrid amplitude)

         [Thresholds for printing:  angular deviation  >  1.0 degree]
                                    p- or d-character  > 25.0%
                                    orbital occupancy  >  0.10e

                        Line of Centers        Hybrid 1             Hybrid 2
                        ---------------  -------------------  ------------------
           NBO            Theta   Phi    Theta   Phi    Dev   Theta   Phi    Dev
 ===============================================================================
   6. BD ( 1) C  1- C  2   31.0   90.0    50.6   90.0  19.5   167.7  270.0  18.7
   7. BD ( 1) C  1- C  3   31.0  270.0    50.6  270.0  19.5   167.7   90.0  18.7
   8. BD ( 1) C  1- C  4  149.0    0.0   129.4    0.0  19.5    12.3  180.0  18.7
   9. BD ( 1) C  1- C  5  149.0  180.0   129.4  180.0  19.5    12.3    0.0  18.7
  10. BD ( 1) C  2- C  3   90.0  270.0    70.3  270.0  19.7    70.3   90.0  19.7
  15. BD ( 1) C  4- C  5   90.0  180.0   109.7  180.0  19.7   109.7    0.0  19.7


 SECOND ORDER PERTURBATION THEORY ANALYSIS OF FOCK MATRIX IN NBO BASIS

     Threshold for printing:   0.50 kcal/mol
                                                          E(2) E(NL)-E(L) F(L,NL)
      Donor (L) NBO              Acceptor (NL) NBO      kcal/mol   a.u.    a.u.
 ===============================================================================

 within unit  1
    6. BD ( 1) C  1- C  2      21. BD*( 1) C  1- C  3      6.03    1.32   0.080
    6. BD ( 1) C  1- C  2      22. BD*( 1) C  1- C  4      1.81    1.32   0.044
    6. BD ( 1) C  1- C  2      23. BD*( 1) C  1- C  5      1.81    1.32   0.044
    6. BD ( 1) C  1- C  2      24. BD*( 1) C  2- C  3      8.56    1.23   0.092
    6. BD ( 1) C  1- C  2      25. BD*( 1) C  2- H  6      0.60    1.42   0.026
    6. BD ( 1) C  1- C  2      26. BD*( 1) C  2- H  7      0.60    1.42   0.026
    6. BD ( 1) C  1- C  2      27. BD*( 1) C  3- H  8      3.63    1.42   0.064
    6. BD ( 1) C  1- C  2      28. BD*( 1) C  3- H  9      3.63    1.42   0.064
    6. BD ( 1) C  1- C  2      30. BD*( 1) C  4- H 10      1.34    1.42   0.039
    6. BD ( 1) C  1- C  2      32. BD*( 1) C  5- H 12      1.34    1.42   0.039
    6. BD ( 1) C  1- C  2      52. RY ( 1) C  3            3.88    1.72   0.073
    6. BD ( 1) C  1- C  2      62. RY ( 2) C  4            0.61    2.06   0.032
    6. BD ( 1) C  1- C  2      71. RY ( 2) C  5            0.61    2.06   0.032
    7. BD ( 1) C  1- C  3      20. BD*( 1) C  1- C  2      6.03    1.32   0.080
    7. BD ( 1) C  1- C  3      22. BD*( 1) C  1- C  4      1.81    1.32   0.044
    7. BD ( 1) C  1- C  3      23. BD*( 1) C  1- C  5      1.81    1.32   0.044
    7. BD ( 1) C  1- C  3      24. BD*( 1) C  2- C  3      8.56    1.23   0.092
    7. BD ( 1) C  1- C  3      25. BD*( 1) C  2- H  6      3.63    1.42   0.064
    7. BD ( 1) C  1- C  3      26. BD*( 1) C  2- H  7      3.63    1.42   0.064
    7. BD ( 1) C  1- C  3      27. BD*( 1) C  3- H  8      0.60    1.42   0.026
    7. BD ( 1) C  1- C  3      28. BD*( 1) C  3- H  9      0.60    1.42   0.026
    7. BD ( 1) C  1- C  3      31. BD*( 1) C  4- H 11      1.34    1.42   0.039
    7. BD ( 1) C  1- C  3      33. BD*( 1) C  5- H 13      1.34    1.42   0.039
    7. BD ( 1) C  1- C  3      43. RY ( 1) C  2            3.88    1.72   0.073
    7. BD ( 1) C  1- C  3      62. RY ( 2) C  4            0.61    2.06   0.032
    7. BD ( 1) C  1- C  3      71. RY ( 2) C  5            0.61    2.06   0.032
    8. BD ( 1) C  1- C  4      20. BD*( 1) C  1- C  2      1.81    1.32   0.044
    8. BD ( 1) C  1- C  4      21. BD*( 1) C  1- C  3      1.81    1.32   0.044
    8. BD ( 1) C  1- C  4      23. BD*( 1) C  1- C  5      6.03    1.32   0.080
    8. BD ( 1) C  1- C  4      25. BD*( 1) C  2- H  6      1.34    1.42   0.039
    8. BD ( 1) C  1- C  4      27. BD*( 1) C  3- H  8      1.34    1.42   0.039
    8. BD ( 1) C  1- C  4      29. BD*( 1) C  4- C  5      8.56    1.23   0.092
    8. BD ( 1) C  1- C  4      30. BD*( 1) C  4- H 10      0.60    1.42   0.026
    8. BD ( 1) C  1- C  4      31. BD*( 1) C  4- H 11      0.60    1.42   0.026
    8. BD ( 1) C  1- C  4      32. BD*( 1) C  5- H 12      3.63    1.42   0.064
    8. BD ( 1) C  1- C  4      33. BD*( 1) C  5- H 13      3.63    1.42   0.064
    8. BD ( 1) C  1- C  4      44. RY ( 2) C  2            0.61    2.06   0.032
    8. BD ( 1) C  1- C  4      53. RY ( 2) C  3            0.61    2.06   0.032
    8. BD ( 1) C  1- C  4      70. RY ( 1) C  5            3.88    1.72   0.073
    9. BD ( 1) C  1- C  5      20. BD*( 1) C  1- C  2      1.81    1.32   0.044
    9. BD ( 1) C  1- C  5      21. BD*( 1) C  1- C  3      1.81    1.32   0.044
    9. BD ( 1) C  1- C  5      22. BD*( 1) C  1- C  4      6.03    1.32   0.080
    9. BD ( 1) C  1- C  5      26. BD*( 1) C  2- H  7      1.34    1.42   0.039
    9. BD ( 1) C  1- C  5      28. BD*( 1) C  3- H  9      1.34    1.42   0.039
    9. BD ( 1) C  1- C  5      29. BD*( 1) C  4- C  5      8.56    1.23   0.092
    9. BD ( 1) C  1- C  5      30. BD*( 1) C  4- H 10      3.63    1.42   0.064
    9. BD ( 1) C  1- C  5      31. BD*( 1) C  4- H 11      3.63    1.42   0.064
    9. BD ( 1) C  1- C  5      32. BD*( 1) C  5- H 12      0.60    1.42   0.026
    9. BD ( 1) C  1- C  5      33. BD*( 1) C  5- H 13      0.60    1.42   0.026
    9. BD ( 1) C  1- C  5      44. RY ( 2) C  2            0.61    2.06   0.032
    9. BD ( 1) C  1- C  5      53. RY ( 2) C  3            0.61    2.06   0.032
    9. BD ( 1) C  1- C  5      61. RY ( 1) C  4            3.88    1.72   0.073
   10. BD ( 1) C  2- C  3      20. BD*( 1) C  1- C  2     10.15    1.26   0.101
   10. BD ( 1) C  2- C  3      21. BD*( 1) C  1- C  3     10.15    1.26   0.101
   10. BD ( 1) C  2- C  3      22. BD*( 1) C  1- C  4     10.94    1.26   0.105
   10. BD ( 1) C  2- C  3      23. BD*( 1) C  1- C  5     10.94    1.26   0.105
   10. BD ( 1) C  2- C  3      34. RY ( 1) C  1            4.27    2.08   0.084
   10. BD ( 1) C  2- C  3      35. RY ( 2) C  1            0.85    1.92   0.036
   11. BD ( 1) C  2- H  6      22. BD*( 1) C  1- C  4      2.78    1.31   0.054
   11. BD ( 1) C  2- H  6      23. BD*( 1) C  1- C  5      0.50    1.31   0.023
   11. BD ( 1) C  2- H  6      28. BD*( 1) C  3- H  9      1.28    1.41   0.038
   11. BD ( 1) C  2- H  6      36. RY ( 3) C  1            1.02    1.84   0.039
   11. BD ( 1) C  2- H  6      53. RY ( 2) C  3            0.61    2.05   0.031
   12. BD ( 1) C  2- H  7      22. BD*( 1) C  1- C  4      0.50    1.31   0.023
   12. BD ( 1) C  2- H  7      23. BD*( 1) C  1- C  5      2.78    1.31   0.054
   12. BD ( 1) C  2- H  7      27. BD*( 1) C  3- H  8      1.28    1.41   0.038
   12. BD ( 1) C  2- H  7      36. RY ( 3) C  1            1.00    1.84   0.038
   12. BD ( 1) C  2- H  7      53. RY ( 2) C  3            0.61    2.05   0.031
   13. BD ( 1) C  3- H  8      22. BD*( 1) C  1- C  4      2.78    1.31   0.054
   13. BD ( 1) C  3- H  8      23. BD*( 1) C  1- C  5      0.50    1.31   0.023
   13. BD ( 1) C  3- H  8      26. BD*( 1) C  2- H  7      1.28    1.41   0.038
   13. BD ( 1) C  3- H  8      36. RY ( 3) C  1            1.00    1.84   0.038
   13. BD ( 1) C  3- H  8      44. RY ( 2) C  2            0.61    2.05   0.031
   14. BD ( 1) C  3- H  9      22. BD*( 1) C  1- C  4      0.50    1.31   0.023
   14. BD ( 1) C  3- H  9      23. BD*( 1) C  1- C  5      2.78    1.31   0.054
   14. BD ( 1) C  3- H  9      25. BD*( 1) C  2- H  6      1.28    1.41   0.038
   14. BD ( 1) C  3- H  9      36. RY ( 3) C  1            1.02    1.84   0.039
   14. BD ( 1) C  3- H  9      44. RY ( 2) C  2            0.61    2.05   0.031
   15. BD ( 1) C  4- C  5      20. BD*( 1) C  1- C  2     10.94    1.26   0.105
   15. BD ( 1) C  4- C  5      21. BD*( 1) C  1- C  3     10.94    1.26   0.105
   15. BD ( 1) C  4- C  5      22. BD*( 1) C  1- C  4     10.15    1.26   0.101
   15. BD ( 1) C  4- C  5      23. BD*( 1) C  1- C  5     10.15    1.26   0.101
   15. BD ( 1) C  4- C  5      34. RY ( 1) C  1            4.27    2.08   0.084
   15. BD ( 1) C  4- C  5      35. RY ( 2) C  1            0.85    1.92   0.036
   16. BD ( 1) C  4- H 10      20. BD*( 1) C  1- C  2      2.78    1.31   0.054
   16. BD ( 1) C  4- H 10      21. BD*( 1) C  1- C  3      0.50    1.31   0.023
   16. BD ( 1) C  4- H 10      33. BD*( 1) C  5- H 13      1.28    1.41   0.038
   16. BD ( 1) C  4- H 10      37. RY ( 4) C  1            1.00    1.84   0.038
   16. BD ( 1) C  4- H 10      71. RY ( 2) C  5            0.61    2.05   0.031
   17. BD ( 1) C  4- H 11      20. BD*( 1) C  1- C  2      0.50    1.31   0.023
   17. BD ( 1) C  4- H 11      21. BD*( 1) C  1- C  3      2.78    1.31   0.054
   17. BD ( 1) C  4- H 11      32. BD*( 1) C  5- H 12      1.28    1.41   0.038
   17. BD ( 1) C  4- H 11      37. RY ( 4) C  1            1.02    1.84   0.039
   17. BD ( 1) C  4- H 11      71. RY ( 2) C  5            0.61    2.05   0.031
   18. BD ( 1) C  5- H 12      20. BD*( 1) C  1- C  2      2.78    1.31   0.054
   18. BD ( 1) C  5- H 12      21. BD*( 1) C  1- C  3      0.50    1.31   0.023
   18. BD ( 1) C  5- H 12      31. BD*( 1) C  4- H 11      1.28    1.41   0.038
   18. BD ( 1) C  5- H 12      37. RY ( 4) C  1            1.02    1.84   0.039
   18. BD ( 1) C  5- H 12      62. RY ( 2) C  4            0.61    2.05   0.031
   19. BD ( 1) C  5- H 13      20. BD*( 1) C  1- C  2      0.50    1.31   0.023
   19. BD ( 1) C  5- H 13      21. BD*( 1) C  1- C  3      2.78    1.31   0.054
   19. BD ( 1) C  5- H 13      30. BD*( 1) C  4- H 10      1.28    1.41   0.038
   19. BD ( 1) C  5- H 13      37. RY ( 4) C  1            1.00    1.84   0.038
   19. BD ( 1) C  5- H 13      62. RY ( 2) C  4            0.61    2.05   0.031


 NATURAL BOND ORBITALS (Summary):

                                                     Principal Delocalizations
           NBO                 Occupancy    Energy   (geminal,vicinal,remote)
 ===============================================================================
 Molecular unit  1  (C5H8)
 ------ Lewis --------------------------------------
    1. CR ( 1) C  1             1.99999   -11.23022
    2. CR ( 1) C  2             1.99999   -11.22009
    3. CR ( 1) C  3             1.99999   -11.22009
    4. CR ( 1) C  4             1.99999   -11.22009
    5. CR ( 1) C  5             1.99999   -11.22009
    6. BD ( 1) C  1- C  2       1.95907    -0.65508  24(g),21(g),52(v),27(v)
                                                     28(v),22(g),23(g),30(v)
                                                     32(v),62(v),71(v),25(g)
                                                     26(g)
    7. BD ( 1) C  1- C  3       1.95907    -0.65508  24(g),20(g),43(v),25(v)
                                                     26(v),22(g),23(g),31(v)
                                                     33(v),62(v),71(v),27(g)
                                                     28(g)
    8. BD ( 1) C  1- C  4       1.95907    -0.65508  29(g),23(g),70(v),32(v)
                                                     33(v),20(g),21(g),25(v)
                                                     27(v),44(v),53(v),30(g)
                                                     31(g)
    9. BD ( 1) C  1- C  5       1.95907    -0.65508  29(g),22(g),61(v),30(v)
                                                     31(v),20(g),21(g),26(v)
                                                     28(v),44(v),53(v),32(g)
                                                     33(g)
   10. BD ( 1) C  2- C  3       1.95500    -0.59691  22(v),23(v),20(g),21(g)
                                                     34(v),35(v)
   11. BD ( 1) C  2- H  6       1.98962    -0.64805  22(v),28(v),36(v),53(v)
                                                     23(v)
   12. BD ( 1) C  2- H  7       1.98962    -0.64805  23(v),27(v),36(v),53(v)
                                                     22(v)
   13. BD ( 1) C  3- H  8       1.98962    -0.64805  22(v),26(v),36(v),44(v)
                                                     23(v)
   14. BD ( 1) C  3- H  9       1.98962    -0.64805  23(v),25(v),36(v),44(v)
                                                     22(v)
   15. BD ( 1) C  4- C  5       1.95500    -0.59691  20(v),21(v),22(g),23(g)
                                                     34(v),35(v)
   16. BD ( 1) C  4- H 10       1.98962    -0.64805  20(v),33(v),37(v),71(v)
                                                     21(v)
   17. BD ( 1) C  4- H 11       1.98962    -0.64805  21(v),32(v),37(v),71(v)
                                                     20(v)
   18. BD ( 1) C  5- H 12       1.98962    -0.64805  20(v),31(v),37(v),62(v)
                                                     21(v)
   19. BD ( 1) C  5- H 13       1.98962    -0.64805  21(v),30(v),37(v),62(v)
                                                     20(v)
 ------ non-Lewis ----------------------------------
   20. BD*( 1) C  1- C  2       0.03832     0.66580
   21. BD*( 1) C  1- C  3       0.03832     0.66580
   22. BD*( 1) C  1- C  4       0.03832     0.66580
   23. BD*( 1) C  1- C  5       0.03832     0.66580
   24. BD*( 1) C  2- C  3       0.02247     0.57582
   25. BD*( 1) C  2- H  6       0.01075     0.76149
   26. BD*( 1) C  2- H  7       0.01075     0.76149
   27. BD*( 1) C  3- H  8       0.01075     0.76149
   28. BD*( 1) C  3- H  9       0.01075     0.76149
   29. BD*( 1) C  4- C  5       0.02247     0.57582
   30. BD*( 1) C  4- H 10       0.01075     0.76149
   31. BD*( 1) C  4- H 11       0.01075     0.76149
   32. BD*( 1) C  5- H 12       0.01075     0.76149
   33. BD*( 1) C  5- H 13       0.01075     0.76149
   34. RY ( 1) C  1             0.00752     1.47913
   35. RY ( 2) C  1             0.00409     1.32252
   36. RY ( 3) C  1             0.00328     1.19092
   37. RY ( 4) C  1             0.00328     1.19092
   38. RY ( 5) C  1             0.00071     2.19775
   39. RY ( 6) C  1             0.00014     2.63409
   40. RY ( 7) C  1             0.00007     2.28125
   41. RY ( 8) C  1             0.00003     2.45061
   42. RY ( 9) C  1             0.00003     2.45061
   43. RY ( 1) C  2             0.00295     1.06788
   44. RY ( 2) C  2             0.00277     1.40041
   45. RY ( 3) C  2             0.00048     0.90378
   46. RY ( 4) C  2             0.00038     1.36608
   47. RY ( 5) C  2             0.00005     2.15890
   48. RY ( 6) C  2             0.00001     2.23337
   49. RY ( 7) C  2             0.00001     2.12528
   50. RY ( 8) C  2             0.00001     2.40606
   51. RY ( 9) C  2             0.00000     2.52156
   52. RY ( 1) C  3             0.00295     1.06788
   53. RY ( 2) C  3             0.00277     1.40041
   54. RY ( 3) C  3             0.00048     0.90378
   55. RY ( 4) C  3             0.00038     1.36608
   56. RY ( 5) C  3             0.00005     2.15890
   57. RY ( 6) C  3             0.00001     2.23337
   58. RY ( 7) C  3             0.00001     2.12528
   59. RY ( 8) C  3             0.00001     2.40606
   60. RY ( 9) C  3             0.00000     2.52156
   61. RY ( 1) C  4             0.00295     1.06788
   62. RY ( 2) C  4             0.00277     1.40041
   63. RY ( 3) C  4             0.00048     0.90378
   64. RY ( 4) C  4             0.00038     1.36608
   65. RY ( 5) C  4             0.00005     2.15890
   66. RY ( 6) C  4             0.00001     2.23337
   67. RY ( 7) C  4             0.00001     2.12528
   68. RY ( 8) C  4             0.00001     2.40606
   69. RY ( 9) C  4             0.00000     2.52156
   70. RY ( 1) C  5             0.00295     1.06788
   71. RY ( 2) C  5             0.00277     1.40041
   72. RY ( 3) C  5             0.00048     0.90378
   73. RY ( 4) C  5             0.00038     1.36608
   74. RY ( 5) C  5             0.00005     2.15890
   75. RY ( 6) C  5             0.00001     2.23337
   76. RY ( 7) C  5             0.00001     2.12528
   77. RY ( 8) C  5             0.00001     2.40606
   78. RY ( 9) C  5             0.00000     2.52156
   79. RY ( 1) H  6             0.00085     0.79740
   80. RY ( 1) H  7             0.00085     0.79740
   81. RY ( 1) H  8             0.00085     0.79740
   82. RY ( 1) H  9             0.00085     0.79740
   83. RY ( 1) H 10             0.00085     0.79740
   84. RY ( 1) H 11             0.00085     0.79740
   85. RY ( 1) H 12             0.00085     0.79740
   86. RY ( 1) H 13             0.00085     0.79740
          -------------------------------
                 Total Lewis   37.66318  ( 99.1136%)
           Valence non-Lewis    0.28422  (  0.7479%)
           Rydberg non-Lewis    0.05260  (  0.1384%)
          -------------------------------
               Total unit  1   38.00000  (100.0000%)
              Charge unit  1    0.00000

 $CHOOSE
   BOND S 1 2 S 1 3 S 1 4 S 1 5 S 2 3 S 2 6 S 2 7 S 3 8 S 3 9 S 4 5 S 4 10
        S 4 11 S 5 12 S 5 13 END
 $END

 NBO analysis completed in 1.38 CPU seconds (2 wall seconds)
 Maximum scratch memory used by NBO was 375360 words (2.86 MB)
 Maximum scratch memory used by G16NBO was 19965 words (0.15 MB)

 Opening RunExU unformatted file "/cluster/work/users/beto93/mol91/Gau-1078001.EUF"
 Read unf file /cluster/work/users/beto93/mol91/Gau-1078001.EUF:
 Label Gaussian matrix elements                                         IVers= 2 NLab= 2 Version=ES64L-G16RevC.01
 Title mol91-NBO                                                       
 NAtoms=    13 NBasis=    86 NBsUse=    86 ICharg=     0 Multip=     1 NE=    38 Len12L=8 Len4L=8 IOpCl= 0 ICGU=111
 GAUSSIAN SCALARS                    NI= 1 NR= 1 NTot=       1 LenBuf=    2 NRI=1 N=    1000
 NPA CHARGES                         NI= 0 NR= 1 NTot=      13 LenBuf= 4000 NRI=1 N=      13
 Recovered energy= -193.916422204     dipole=      0.000000000000      0.000000000000     -0.000000000000
 Unable to Open any file for archive entry.
 1\1\GINC-C1-53\SP\RHF\6-31G(d)\C5H8\BETO93\18-Nov-2024\0\\#RHF/6-31G* 
 int=nobasistransform Symmetry=None 5D 7F Pop=NBO7Read\\mol91-NBO\\0,1\
 C,0,0.,0.,0.\C,0,0.,0.762014,1.265752\C,0,0.,-0.762014,1.265752\C,0,0.
 762014,0.,-1.265752\C,0,-0.762014,0.,-1.265752\H,0,-0.914023,1.265075,
 1.56809\H,0,0.914023,1.265075,1.56809\H,0,-0.914023,-1.265075,1.56809\
 H,0,0.914023,-1.265075,1.56809\H,0,1.265075,-0.914023,-1.56809\H,0,1.2
 65075,0.914023,-1.56809\H,0,-1.265075,-0.914023,-1.56809\H,0,-1.265075
 ,0.914023,-1.56809\\Version=ES64L-G16RevC.01\HF=-193.9164222\RMSD=9.47
 9e-09\Dipole=0.,0.,0.\Quadrupole=0.5010194,0.5010194,-1.0020387,0.,0.,
 0.\PG=Unknown\\@
 The archive entry for this job was punched.


 WE HAVE LEARNED THAT NOTHING IS SIMPLE AND
 RATIONAL EXCEPT WHAT WE OURSELVES HAVE INVENTED;
 THAT GOD THINKS IN TERMS NEITHER OF EUCLID OR RIEMANN; THAT SCIENCE HAS "EXPLAINED" NOTHING;
 THAT THE MORE WE KNOW THE MORE FANTASTIC THE WORLD BECOMES
 AND THE PROFOUNDER THE SURROUNDING DARKNESS.
   --  ALDOUS HUXLEY
 Job cpu time:       0 days  0 hours  0 minutes 12.9 seconds.
 Elapsed time:       0 days  0 hours  0 minutes  4.2 seconds.
 File lengths (MBytes):  RWF=     15 Int=      0 D2E=      0 Chk=      2 Scr=      1
 Normal termination of Gaussian 16 at Mon Nov 18 16:40:44 2024.
