 Entering Gaussian System, Link 0=g16
 Initial command:
 /cluster/software/Gaussian/g16_C.01/l1.exe "/cluster/work/users/beto93/mol75/Gau-1370984.inp" -scrdir="/cluster/work/users/beto93/mol75/"
 Entering Link 1 = /cluster/software/Gaussian/g16_C.01/l1.exe PID=   1370985.
  
 Copyright (c) 1988-2019, Gaussian, Inc.  All Rights Reserved.
  
 This is part of the Gaussian(R) 16 program.  It is based on
 the Gaussian(R) 09 system (copyright 2009, Gaussian, Inc.),
 the Gaussian(R) 03 system (copyright 2003, Gaussian, Inc.),
 the Gaussian(R) 98 system (copyright 1998, Gaussian, Inc.),
 the Gaussian(R) 94 system (copyright 1995, Gaussian, Inc.),
 the Gaussian 92(TM) system (copyright 1992, Gaussian, Inc.),
 the Gaussian 90(TM) system (copyright 1990, Gaussian, Inc.),
 the Gaussian 88(TM) system (copyright 1988, Gaussian, Inc.),
 the Gaussian 86(TM) system (copyright 1986, Carnegie Mellon
 University), and the Gaussian 82(TM) system (copyright 1983,
 Carnegie Mellon University). Gaussian is a federally registered
 trademark of Gaussian, Inc.
  
 This software contains proprietary and confidential information,
 including trade secrets, belonging to Gaussian, Inc.
  
 This software is provided under written license and may be
 used, copied, transmitted, or stored only in accord with that
 written license.
  
 The following legend is applicable only to US Government
 contracts under FAR:
  
                    RESTRICTED RIGHTS LEGEND
  
 Use, reproduction and disclosure by the US Government is
 subject to restrictions as set forth in subparagraphs (a)
 and (c) of the Commercial Computer Software - Restricted
 Rights clause in FAR 52.227-19.
  
 Gaussian, Inc.
 340 Quinnipiac St., Bldg. 40, Wallingford CT 06492
  
  
 ---------------------------------------------------------------
 Warning -- This program may not be used in any manner that
 competes with the business of Gaussian, Inc. or will provide
 assistance to any competitor of Gaussian, Inc.  The licensee
 of this program is prohibited from giving any competitor of
 Gaussian, Inc. access to this program.  By using this program,
 the user acknowledges that Gaussian, Inc. is engaged in the
 business of creating and licensing software in the field of
 computational chemistry and represents and warrants to the
 licensee that it is not a competitor of Gaussian, Inc. and that
 it will not use this program in any manner prohibited above.
 ---------------------------------------------------------------
  

 Cite this work as:
 Gaussian 16, Revision C.01,
 M. J. Frisch, G. W. Trucks, H. B. Schlegel, G. E. Scuseria, 
 M. A. Robb, J. R. Cheeseman, G. Scalmani, V. Barone, 
 G. A. Petersson, H. Nakatsuji, X. Li, M. Caricato, A. V. Marenich, 
 J. Bloino, B. G. Janesko, R. Gomperts, B. Mennucci, H. P. Hratchian, 
 J. V. Ortiz, A. F. Izmaylov, J. L. Sonnenberg, D. Williams-Young, 
 F. Ding, F. Lipparini, F. Egidi, J. Goings, B. Peng, A. Petrone, 
 T. Henderson, D. Ranasinghe, V. G. Zakrzewski, J. Gao, N. Rega, 
 G. Zheng, W. Liang, M. Hada, M. Ehara, K. Toyota, R. Fukuda, 
 J. Hasegawa, M. Ishida, T. Nakajima, Y. Honda, O. Kitao, H. Nakai, 
 T. Vreven, K. Throssell, J. A. Montgomery, Jr., J. E. Peralta, 
 F. Ogliaro, M. J. Bearpark, J. J. Heyd, E. N. Brothers, K. N. Kudin, 
 V. N. Staroverov, T. A. Keith, R. Kobayashi, J. Normand, 
 K. Raghavachari, A. P. Rendell, J. C. Burant, S. S. Iyengar, 
 J. Tomasi, M. Cossi, J. M. Millam, M. Klene, C. Adamo, R. Cammi, 
 J. W. Ochterski, R. L. Martin, K. Morokuma, O. Farkas, 
 J. B. Foresman, and D. J. Fox, Gaussian, Inc., Wallingford CT, 2019.
 
 ******************************************
 Gaussian 16:  ES64L-G16RevC.01  3-Jul-2019
                18-Nov-2024 
 ******************************************
 %LindaWorkers=c1-55-ib
 %NProcShared=4
 Will use up to    4 processors via shared memory.
 %mem=25GB
 %chk=mol75.chk
 SetLPE:    new flags="-opt 'Tsnet.Node.lindarsharg: ssh'  -nodelist 'c1-55-ib.saga' -env GAUSS_MDEF=3355443200 -env GAUSS_EXEDIR="/cluster/software/Gaussian/g16_C.01/bsd:/cluster/software/Gaussian/g16_C.01""
 Will use up to    1 processors via Linda.
 -----------------------------------------------------------------
 #RHF/STO-3G int=nobasistransform Symmetry=None 5D 7F Pop=NBO7Read
 -----------------------------------------------------------------
 1/38=1,163=2,172=1/1;
 2/12=2,15=3,17=6,18=5,40=1/2;
 3/6=3,8=11,11=1,25=1,30=1,60=-1,116=1/1,2,3;
 4//1;
 5/5=2,38=5/2;
 6/7=2,8=2,9=2,10=2,28=1,40=2,113=1,114=1,124=2103/1,12;
 99/5=1,9=1/99;
 ---------
 mol75-NBO
 ---------
 Symbolic Z-matrix:
 Charge =  0 Multiplicity = 1
 C                     0.        0.       -0.32635 
 C                     0.        0.        1.15083 
 F                     0.        1.25758  -0.78723 
 F                     1.0891   -0.62879  -0.78723 
 F                    -1.0891   -0.62879  -0.78723 
 N                     0.        0.        2.32974 
 
                          Input orientation:                          
 ---------------------------------------------------------------------
 Center     Atomic      Atomic             Coordinates (Angstroms)
 Number     Number       Type             X           Y           Z
 ---------------------------------------------------------------------
      1          6           0        0.000000    0.000000   -0.326350
      2          6           0        0.000000    0.000000    1.150830
      3          9           0        0.000000    1.257579   -0.787225
      4          9           0        1.089096   -0.628790   -0.787225
      5          9           0       -1.089096   -0.628790   -0.787225
      6          7           0        0.000000    0.000000    2.329741
 ---------------------------------------------------------------------
                    Distance matrix (angstroms):
                    1          2          3          4          5
     1  C    0.000000
     2  C    1.477180   0.000000
     3  F    1.339370   2.310316   0.000000
     4  F    1.339370   2.310317   2.178191   0.000000
     5  F    1.339370   2.310317   2.178191   2.178192   0.000000
     6  N    2.656091   1.178911   3.361098   3.361099   3.361099
                    6
     6  N    0.000000
 Symmetry turned off by external request.
 Stoichiometry    C2F3N
 Rotational constants (GHZ):           5.6067078           2.9127203           2.9127198
 Standard basis: STO-3G (5D, 7F)
    30 basis functions,    90 primitive gaussians,    30 cartesian basis functions
    23 alpha electrons       23 beta electrons
       nuclear repulsion energy       230.0197119879 Hartrees.
 NAtoms=    6 NActive=    6 NUniq=    6 SFac= 1.00D+00 NAtFMM=   60 NAOKFM=F Big=F
 Integral buffers will be    131072 words long.
 Raffenetti 1 integral format.
 Two-electron integral symmetry is turned off.
 One-electron integrals computed using PRISM.
 NBasis=    30 RedAO= T EigKep=  1.66D-01  NBF=    30
 NBsUse=    30 1.00D-06 EigRej= -1.00D+00 NBFU=    30
 ExpMin= 2.22D-01 ExpMax= 1.67D+02 ExpMxC= 1.67D+02 IAcc=3 IRadAn=         5 AccDes= 0.00D+00
 Harris functional with IExCor=  205 and IRadAn=       5 diagonalized for initial guess.
 HarFok:  IExCor=  205 AccDes= 0.00D+00 IRadAn=         5 IDoV= 1 UseB2=F ITyADJ=14
 ICtDFT=  3500011 ScaDFX=  1.000000  1.000000  1.000000  1.000000
 FoFCou: FMM=F IPFlag=           0 FMFlag=      100000 FMFlg1=           0
         NFxFlg=           0 DoJE=T BraDBF=F KetDBF=T FulRan=T
         wScrn=  0.000000 ICntrl=       500 IOpCl=  0 I1Cent=   200000004 NGrid=           0
         NMat0=    1 NMatS0=      1 NMatT0=    0 NMatD0=    1 NMtDS0=    0 NMtDT0=    0
 Symmetry not used in FoFCou.
 Keep R1 ints in memory in canonical form, NReq=918582.
 Requested convergence on RMS density matrix=1.00D-08 within 128 cycles.
 Requested convergence on MAX density matrix=1.00D-06.
 Requested convergence on             energy=1.00D-06.
 No special actions if energy rises.
 SCF Done:  E(RHF) =  -422.628442085     A.U. after   10 cycles
            NFock= 10  Conv=0.64D-08     -V/T= 2.0114

 **********************************************************************

            Population analysis using the SCF Density.

 **********************************************************************

 Alpha  occ. eigenvalues --  -26.01946 -26.01923 -26.01923 -15.41387 -11.35518
 Alpha  occ. eigenvalues --  -11.09892  -1.65588  -1.55259  -1.55259  -1.19379
 Alpha  occ. eigenvalues --   -0.94793  -0.77523  -0.71149  -0.71149  -0.55975
 Alpha  occ. eigenvalues --   -0.55975  -0.54473  -0.52296  -0.50635  -0.50635
 Alpha  occ. eigenvalues --   -0.47033  -0.44670  -0.44670
 Alpha virt. eigenvalues --    0.28540   0.28540   0.50318   0.60701   0.61056
 Alpha virt. eigenvalues --    0.61057   1.23664
          Condensed to atoms (all electrons):
               1          2          3          4          5          6
     1  C    4.529341   0.347056   0.215194   0.215194   0.215194  -0.007435
     2  C    0.347056   4.967294  -0.021412  -0.021412  -0.021412   0.712612
     3  F    0.215194  -0.021412   8.959430  -0.010087  -0.010087   0.000017
     4  F    0.215194  -0.021412  -0.010087   8.959430  -0.010087   0.000017
     5  F    0.215194  -0.021412  -0.010087  -0.010087   8.959430   0.000017
     6  N   -0.007435   0.712612   0.000017   0.000017   0.000017   6.418341
 Mulliken charges:
               1
     1  C    0.485458
     2  C    0.037274
     3  F   -0.133054
     4  F   -0.133054
     5  F   -0.133054
     6  N   -0.123568
 Sum of Mulliken charges =  -0.00000
 Mulliken charges with hydrogens summed into heavy atoms:
               1
     1  C    0.485458
     2  C    0.037274
     3  F   -0.133054
     4  F   -0.133054
     5  F   -0.133054
     6  N   -0.123568
 Electronic spatial extent (au):  <R**2>=            445.0682
 Charge=             -0.0000 electrons
 Dipole moment (field-independent basis, Debye):
    X=             -0.0000    Y=              0.0000    Z=             -1.3420  Tot=              1.3420
 Quadrupole moment (field-independent basis, Debye-Ang):
   XX=            -27.8154   YY=            -27.8154   ZZ=            -33.8014
   XY=              0.0000   XZ=              0.0000   YZ=             -0.0000
 Traceless Quadrupole moment (field-independent basis, Debye-Ang):
   XX=              1.9954   YY=              1.9954   ZZ=             -3.9907
   XY=              0.0000   XZ=              0.0000   YZ=             -0.0000
 Octapole moment (field-independent basis, Debye-Ang**2):
  XXX=             -0.0000  YYY=             -1.3151  ZZZ=            -38.4296  XYY=             -0.0000
  XXY=              1.3151  XXZ=             -4.5031  XZZ=             -0.0000  YZZ=              0.0000
  YYZ=             -4.5031  XYZ=             -0.0000
 Hexadecapole moment (field-independent basis, Debye-Ang**3):
 XXXX=            -71.9779 YYYY=            -71.9779 ZZZZ=           -321.0683 XXXY=              0.0000
 XXXZ=              0.0000 YYYX=              0.0000 YYYZ=              0.8177 ZZZX=              0.0000
 ZZZY=             -0.0000 XXYY=            -23.9926 XXZZ=            -55.7487 YYZZ=            -55.7486
 XXYZ=             -0.8177 YYXZ=              0.0000 ZZXY=              0.0000
 N-N= 2.300197119879D+02 E-N=-1.463962423646D+03  KE= 4.178471177884D+02
 Running external command "gaunbo7 R"
         input file       "/cluster/work/users/beto93/mol75/Gau-1370985.EIn"
         output file      "/cluster/work/users/beto93/mol75/Gau-1370985.EOu"
         message file     "/cluster/work/users/beto93/mol75/Gau-1370985.EMs"
         fchk file        "/cluster/work/users/beto93/mol75/Gau-1370985.EFC"
         mat. el file     "/cluster/work/users/beto93/mol75/Gau-1370985.EUF"

 Writing WrtUnf unformatted file "/cluster/work/users/beto93/mol75/Gau-1370985.EUF"
 Gaussian matrix elements                                         Version   2 NLab=11 Len12L=8 Len4L=8
 Write SHELL TO ATOM MAP                   from file      0 offset           0 length                  12 to matrix element file.
 Write SHELL TYPES                         from file      0 offset           0 length                  12 to matrix element file.
 Write NUMBER OF PRIMITIVES PER SHELL      from file      0 offset           0 length                  12 to matrix element file.
 Write PRIMITIVE EXPONENTS                 from file      0 offset           0 length                  36 to matrix element file.
 Write CONTRACTION COEFFICIENTS            from file      0 offset           0 length                  36 to matrix element file.
 Write P(S=P) CONTRACTION COEFFICIENTS     from file      0 offset           0 length                  36 to matrix element file.
 Write COORDINATES OF EACH SHELL           from file      0 offset           0 length                  36 to matrix element file.
 Write BONDS PER ATOM                      from file      0 offset           0 length                   6 to matrix element file.
 Write BONDED ATOMS                        from file      0 offset           0 length                  10 to matrix element file.
 Write BOND TYPES                          from file      0 offset           0 length                  10 to matrix element file.
 Write ONIOM CHARGE/MULT                   from file      0 offset           0 length                  32 to matrix element file.
 Write ONIOM ATOM LAYERS                   from file      0 offset           0 length                   6 to matrix element file.
 Write ONIOM ATOM MODIFIERS                from file      0 offset           0 length                   6 to matrix element file.
 Write ONIOM ATOM TYPES                    from file      0 offset           0 length                   6 to matrix element file.
 Write ONIOM LINK ATOMS                    from file      0 offset           0 length                   6 to matrix element file.
 Write ONIOM LINK CHARGES                  from file      0 offset           0 length                   6 to matrix element file.
 Write ONIOM LINK DISTANCES                from file      0 offset           0 length                  24 to matrix element file.
 Write SYMINF INTS                         from file      0 offset           0 length                  26 to matrix element file.
 Write ROTTR TO SO                         from file      0 offset           0 length                  12 to matrix element file.
 Write GAUSSIAN SCALARS                    from file    501 offset           0 to matrix element file.
 Write OPTIMIZATION FLAGS                  from file      0 offset           0 length                   6 to matrix element file.
 Write INTEGER ISO                         from file      0 offset           0 length                   6 to matrix element file.
 Write INTEGER SPIN                        from file      0 offset           0 length                   6 to matrix element file.
 Write REAL ZEFFECTIVE                     from file      0 offset           0 length                   6 to matrix element file.
 Write REAL QUADRUPOLEMOMENT               from file      0 offset           0 length                   6 to matrix element file.
 Write REAL GFACTOR                        from file      0 offset           0 length                   6 to matrix element file.
 Write REAL ZNUCLEAR                       from file      0 offset           0 length                   6 to matrix element file.
 Write MULLIKEN CHARGES                    from file      0 offset           0 length                   6 to matrix element file.
 Write NUCLEAR GRADIENT                    from file  10584 offset           0 length                  18 to matrix element file.
 Array NUCLEAR FORCE CONSTANTS              on  file  10585 does not exist.
 Write ELECTRIC DIPOLE MOMENT              from file      0 offset           0 length                   3 to matrix element file.
 Write NON-ADIABATIC COUPLING              from file  10810 offset           0 length                  18 to matrix element file.
 Write FINITE EM FIELD                     from file  10521 offset           0 length                  35 to matrix element file.
 Write OVERLAP                             from file  10514 offset           0 length                 465 to matrix element file.
 Write CORE HAMILTONIAN ALPHA              from file  10515 offset           0 length                 465 to matrix element file.
 Write CORE HAMILTONIAN BETA               from file  10515 offset         465 length                 465 to matrix element file.
 Write KINETIC ENERGY                      from file  10516 offset           0 length                 465 to matrix element file.
 Write ORTHOGONAL BASIS                    from file  10685 offset           0 length                 900 to matrix element file.
 Write DIPOLE INTEGRALS                    from file  10518 offset           0 length                1395 to matrix element file.
 Array DIP VEL INTEGRALS                    on  file  10572 does not exist.
 Array R X DEL INTEGRALS                    on  file  10572 does not exist.
 Write ALPHA ORBITAL ENERGIES              from file      0 offset           0 length                  30 to matrix element file.
 Write ALPHA MO COEFFICIENTS               from file  10524 offset           0 length                 900 to matrix element file.
 Write ALPHA DENSITY MATRIX                from file      0 offset           0 length                 465 to matrix element file.
 Write ALPHA FOCK MATRIX                   from file  10536 offset           0 length                 465 to matrix element file.
 Write ENERGY-WEIGHTED DENSITY             from file  10571 offset           0 length                 465 to matrix element file.
 Write ALPHA SCF DENSITY MATRIX            from file      0 offset           0 length                 465 to matrix element file.
 No 2e integrals to process.
 Perform NBO analysis...executing G16NBO...

 *********************************** NBO 7.0 ***********************************
             N A T U R A L   A T O M I C   O R B I T A L   A N D
          N A T U R A L   B O N D   O R B I T A L   A N A L Y S I S
 **************************** Espen Tangen (S101595) ***************************
  (c) Copyright 1996-2021 Board of Regents of the University of Wisconsin System
      on behalf of the Theoretical Chemistry Institute.  All rights reserved.

          Cite this program [NBO 7.0.10 (8-Feb-2021)] as:

          NBO 7.0.  E. D. Glendening, J. K. Badenhoop, A. E. Reed,
          J. E. Carpenter, J. A. Bohmann, C. M. Morales, P. Karafiloglou,
          C. R. Landis, and F. Weinhold, Theoretical Chemistry Institute,
          University of Wisconsin, Madison, WI (2018)

       /NPA    / : Natural Population Analysis
       /AOPNAO / : Print the AO to PNAO transformation
       /AONAO  / : Print the AO to NAO transformation
       /AOMO   / : Print the MOs in the AO basis
       /BOAO   / : Print the AO bond-order matrix
       /DMAO   / : Print the AO density matrix
       /DMPNAO / : Print the PNAO density matrix
       /DMNAO  / : Print the NAO density matrix
       /DMMO   / : Print the MO density matrix
       /SAO    / : Print the AO overlap matrix
       /SPNAO  / : Print the PNAO overlap matrix
       /DETAIL / : Write details of NBO search
       /ARCHIVE/ : Write the archive file to lfn47
       /AOINFO / : Write AO information to lfn31
       /FILE   / : Set to mol75.gen*

 Filename set to mol75.gen1

 Job title: mol75-NBO


 MOs in the AO basis:

           AO          1       2       3       4       5       6       7       8
      ------------ ------- ------- ------- ------- ------- ------- ------- -------
   1.  C 1 (s)      0.0011  0.0000  0.0000  0.0000  0.9926  0.0009 -0.1108  0.0000
   2.  C 1 (s)     -0.0077  0.0000  0.0000 -0.0003  0.0317 -0.0056  0.2818  0.0000
   3.  C 1 (px)     0.0000  0.0000 -0.0051  0.0000  0.0000  0.0000  0.0000  0.0000
   4.  C 1 (py)     0.0000 -0.0051  0.0000  0.0000  0.0000  0.0000  0.0000  0.1540
   5.  C 1 (pz)     0.0026  0.0000  0.0000 -0.0002  0.0014 -0.0036 -0.0567  0.0000
   6.  C 2 (s)      0.0000  0.0000  0.0000  0.0004  0.0000  0.9928 -0.0139  0.0000
   7.  C 2 (s)      0.0005  0.0000  0.0000 -0.0099 -0.0060  0.0311  0.0224  0.0000
   8.  C 2 (px)     0.0000  0.0000  0.0004  0.0000  0.0000  0.0000  0.0000  0.0000
   9.  C 2 (py)     0.0000  0.0004  0.0000  0.0000  0.0000  0.0000  0.0000  0.0037
  10.  C 2 (pz)    -0.0005  0.0000  0.0000 -0.0073  0.0048  0.0013 -0.0205  0.0000
  11.  F 3 (s)      0.5747  0.8119  0.0000  0.0000  0.0004  0.0000 -0.1296 -0.2054
  12.  F 3 (s)      0.0135  0.0181  0.0000  0.0000 -0.0046  0.0002  0.4728  0.7763
  13.  F 3 (px)     0.0000  0.0000  0.0004  0.0000  0.0000  0.0000  0.0000  0.0000
  14.  F 3 (py)    -0.0020 -0.0021  0.0000  0.0000  0.0018 -0.0002 -0.0711 -0.0658
  15.  F 3 (pz)     0.0005  0.0009  0.0000  0.0000 -0.0006 -0.0001  0.0220  0.0298
  16.  F 4 (s)      0.5740 -0.4065  0.7034  0.0000  0.0004  0.0000 -0.1296  0.1027
  17.  F 4 (s)      0.0135 -0.0091  0.0157  0.0000 -0.0046  0.0002  0.4728 -0.3882
  18.  F 4 (px)    -0.0017  0.0011 -0.0015  0.0000  0.0016 -0.0001 -0.0616  0.0345
  19.  F 4 (py)     0.0010 -0.0002  0.0011  0.0000 -0.0009  0.0001  0.0356 -0.0061
  20.  F 4 (pz)     0.0005 -0.0005  0.0008  0.0000 -0.0006 -0.0001  0.0220 -0.0149
  21.  F 5 (s)      0.5740 -0.4065 -0.7034  0.0000  0.0004  0.0000 -0.1296  0.1027
  22.  F 5 (s)      0.0135 -0.0091 -0.0157  0.0000 -0.0046  0.0002  0.4728 -0.3882
  23.  F 5 (px)     0.0017 -0.0011 -0.0015  0.0000 -0.0016  0.0001  0.0616 -0.0345
  24.  F 5 (py)     0.0010 -0.0002 -0.0011  0.0000 -0.0009  0.0001  0.0356 -0.0061
  25.  F 5 (pz)     0.0005 -0.0005 -0.0008  0.0000 -0.0006 -0.0001  0.0220 -0.0149
  26.  N 6 (s)      0.0000  0.0000  0.0000  0.9940  0.0000 -0.0004 -0.0018  0.0000
  27.  N 6 (s)      0.0001  0.0000  0.0000  0.0290 -0.0004 -0.0066  0.0091  0.0000
  28.  N 6 (px)     0.0000  0.0000 -0.0001  0.0000  0.0000  0.0000  0.0000  0.0000
  29.  N 6 (py)     0.0000 -0.0001  0.0000  0.0000  0.0000  0.0000  0.0000  0.0010
  30.  N 6 (pz)    -0.0001  0.0000  0.0000 -0.0082  0.0003  0.0019 -0.0049  0.0000

           AO          9      10      11      12      13      14      15      16
      ------------ ------- ------- ------- ------- ------- ------- ------- -------
   1.  C 1 (s)      0.0000 -0.0229 -0.1664  0.0748  0.0000  0.0000  0.0000  0.0000
   2.  C 1 (s)      0.0000  0.0795  0.5191 -0.2885  0.0000  0.0000  0.0000  0.0000
   3.  C 1 (px)     0.1540  0.0000  0.0000  0.0000  0.4770  0.0000  0.0000  0.0448
   4.  C 1 (py)     0.0000  0.0000  0.0000  0.0000  0.0000  0.4770  0.0448  0.0000
   5.  C 1 (pz)     0.0000  0.0753  0.2260  0.4299  0.0000  0.0000  0.0000  0.0000
   6.  C 2 (s)      0.0000 -0.1671 -0.0783 -0.0622  0.0000  0.0000  0.0000  0.0000
   7.  C 2 (s)      0.0000  0.3733  0.2265  0.1971  0.0000  0.0000  0.0000  0.0000
   8.  C 2 (px)     0.0037  0.0000  0.0000  0.0000  0.0955  0.0000  0.0000  0.1328
   9.  C 2 (py)     0.0000  0.0000  0.0000  0.0000  0.0000  0.0955  0.1328  0.0000
  10.  C 2 (pz)     0.0000  0.1790 -0.2922 -0.1580  0.0000  0.0000  0.0000  0.0000
  11.  F 3 (s)      0.0000  0.0110  0.0612 -0.0472  0.0000  0.0613  0.0062  0.0000
  12.  F 3 (s)      0.0000 -0.0468 -0.2817  0.2345  0.0000 -0.3139 -0.0320  0.0000
  13.  F 3 (px)     0.0138  0.0000  0.0000  0.0000  0.3906  0.0000  0.0000 -0.3925
  14.  F 3 (py)     0.0000 -0.0042 -0.1351  0.3302  0.0000 -0.3567  0.1569  0.0000
  15.  F 3 (pz)     0.0000  0.0141  0.1285  0.1436  0.0000  0.2439  0.6771  0.0000
  16.  F 4 (s)     -0.1778  0.0110  0.0612 -0.0472  0.0531 -0.0306 -0.0031  0.0053
  17.  F 4 (s)      0.6723 -0.0468 -0.2817  0.2345 -0.2718  0.1569  0.0160 -0.0277
  18.  F 4 (px)    -0.0459 -0.0036 -0.1170  0.2860 -0.1699  0.3236 -0.2379  0.0195
  19.  F 4 (py)     0.0345  0.0021  0.0676 -0.1651  0.3236  0.2038 -0.2551 -0.2379
  20.  F 4 (pz)     0.0258  0.0141  0.1285  0.1436  0.2112 -0.1219 -0.3385  0.5864
  21.  F 5 (s)      0.1778  0.0110  0.0612 -0.0472 -0.0531 -0.0306 -0.0031 -0.0053
  22.  F 5 (s)     -0.6723 -0.0468 -0.2817  0.2345  0.2718  0.1569  0.0160  0.0277
  23.  F 5 (px)    -0.0459  0.0036  0.1170 -0.2860 -0.1699 -0.3236  0.2379  0.0195
  24.  F 5 (py)    -0.0345  0.0021  0.0676 -0.1651 -0.3236  0.2038 -0.2551  0.2379
  25.  F 5 (pz)    -0.0258  0.0141  0.1285  0.1436 -0.2112 -0.1219 -0.3385 -0.5864
  26.  N 6 (s)      0.0000 -0.1967  0.0662  0.0369  0.0000  0.0000  0.0000  0.0000
  27.  N 6 (s)      0.0000  0.6248 -0.2066 -0.1327  0.0000  0.0000  0.0000  0.0000
  28.  N 6 (px)     0.0010  0.0000  0.0000  0.0000  0.0490  0.0000  0.0000  0.0860
  29.  N 6 (py)     0.0000  0.0000  0.0000  0.0000  0.0000  0.0490  0.0860  0.0000
  30.  N 6 (pz)     0.0000 -0.2174  0.0195 -0.0200  0.0000  0.0000  0.0000  0.0000

           AO         17      18      19      20      21      22      23      24
      ------------ ------- ------- ------- ------- ------- ------- ------- -------
   1.  C 1 (s)     -0.0205  0.0000  0.0000  0.0000  0.0043  0.0000  0.0000  0.0000
   2.  C 1 (s)      0.0910  0.0000  0.0000  0.0000  0.0300  0.0000  0.0000  0.0000
   3.  C 1 (px)     0.0000  0.0000  0.0000 -0.1577  0.0000  0.0000 -0.0618 -0.2729
   4.  C 1 (py)     0.0000  0.0000 -0.1577  0.0000  0.0000 -0.0618  0.0000  0.0000
   5.  C 1 (pz)     0.0214  0.0000  0.0000  0.0000 -0.1738  0.0000  0.0000  0.0000
   6.  C 2 (s)      0.1246  0.0000  0.0000  0.0000  0.0221  0.0000  0.0000  0.0000
   7.  C 2 (s)     -0.4293  0.0000  0.0000  0.0000 -0.1275  0.0000  0.0000  0.0000
   8.  C 2 (px)     0.0000  0.0000  0.0000 -0.0131  0.0000  0.0000  0.5968 -0.7389
   9.  C 2 (py)     0.0000  0.0000 -0.0131  0.0000  0.0000  0.5968  0.0000  0.0000
  10.  C 2 (pz)    -0.0613  0.0000  0.0000  0.0000  0.3974  0.0000  0.0000  0.0000
  11.  F 3 (s)      0.0042  0.0000 -0.0169  0.0000  0.0043 -0.0022  0.0000  0.0000
  12.  F 3 (s)     -0.0227  0.0000  0.0907  0.0000 -0.0250  0.0141  0.0000  0.0000
  13.  F 3 (px)     0.0000  0.5824  0.0000  0.5653  0.0000  0.0000  0.0156  0.0877
  14.  F 3 (py)     0.0161  0.0000  0.5351  0.0000 -0.0193  0.0824  0.0000  0.0000
  15.  F 3 (pz)     0.3070  0.0000  0.2227  0.0000  0.4274 -0.1886  0.0000  0.0000
  16.  F 4 (s)      0.0042  0.0000  0.0084 -0.0146  0.0043  0.0011 -0.0019 -0.0190
  17.  F 4 (s)     -0.0227  0.0000 -0.0454  0.0786 -0.0250 -0.0070  0.0122  0.1140
  18.  F 4 (px)     0.0140 -0.2912  0.0131  0.5427 -0.0167 -0.0289  0.0657 -0.1345
  19.  F 4 (py)    -0.0081 -0.5044  0.5578  0.0131  0.0097  0.0323 -0.0289  0.1283
  20.  F 4 (pz)     0.3070  0.0000 -0.1113  0.1929  0.4274  0.0943 -0.1634  0.1334
  21.  F 5 (s)      0.0042  0.0000  0.0084  0.0146  0.0043  0.0011  0.0019  0.0190
  22.  F 5 (s)     -0.0227  0.0000 -0.0454 -0.0786 -0.0250 -0.0070 -0.0122 -0.1140
  23.  F 5 (px)    -0.0140 -0.2912 -0.0131  0.5427  0.0167  0.0289  0.0657 -0.1345
  24.  F 5 (py)    -0.0081  0.5044  0.5578 -0.0131  0.0097  0.0323  0.0289 -0.1283
  25.  F 5 (pz)     0.3070  0.0000 -0.1113 -0.1929  0.4274  0.0943  0.1634 -0.1334
  26.  N 6 (s)     -0.1288  0.0000  0.0000  0.0000  0.0584  0.0000  0.0000  0.0000
  27.  N 6 (s)      0.6230  0.0000  0.0000  0.0000 -0.3462  0.0000  0.0000  0.0000
  28.  N 6 (px)     0.0000  0.0000  0.0000 -0.0184  0.0000  0.0000  0.6255  0.7826
  29.  N 6 (py)     0.0000  0.0000 -0.0184  0.0000  0.0000  0.6255  0.0000  0.0000
  30.  N 6 (pz)     0.5138  0.0000  0.0000  0.0000 -0.4269  0.0000  0.0000  0.0000

           AO         25      26      27      28      29      30
      ------------ ------- ------- ------- ------- ------- -------
   1.  C 1 (s)      0.0000  0.1196 -0.2047  0.0000  0.0000 -0.0700
   2.  C 1 (s)      0.0000 -0.6943  1.0392  0.0000  0.0001  0.5154
   3.  C 1 (px)     0.0000  0.0000  0.0000  1.0549  0.0000  0.0000
   4.  C 1 (py)    -0.2729  0.0000 -0.0001  0.0000  1.0549  0.0000
   5.  C 1 (pz)     0.0000 -0.9043 -0.5698  0.0000 -0.0001  0.4504
   6.  C 2 (s)      0.0000 -0.1925  0.0247  0.0000  0.0000 -0.0665
   7.  C 2 (s)      0.0000  1.2544 -0.1378  0.0000  0.0000  0.7100
   8.  C 2 (px)     0.0000  0.0000  0.0000 -0.4443  0.0000  0.0000
   9.  C 2 (py)    -0.7389  0.0000  0.0000  0.0000 -0.4443  0.0000
  10.  C 2 (pz)     0.0000 -0.3236  0.0205  0.0000  0.0000  1.5053
  11.  F 3 (s)     -0.0219 -0.0030  0.0565  0.0000  0.0608  0.0052
  12.  F 3 (s)      0.1316  0.0182 -0.3504  0.0000 -0.3932 -0.0329
  13.  F 3 (px)     0.0000  0.0000  0.0000 -0.2178  0.0000  0.0000
  14.  F 3 (py)    -0.2086  0.0091  0.5292  0.0000  0.5149  0.0216
  15.  F 3 (pz)     0.1541  0.1550 -0.0704  0.0000 -0.2546 -0.0588
  16.  F 4 (s)      0.0110 -0.0030  0.0565  0.0526 -0.0304  0.0052
  17.  F 4 (s)     -0.0658  0.0182 -0.3505 -0.3405  0.1965 -0.0329
  18.  F 4 (px)     0.1283  0.0079  0.4584  0.3317 -0.3172  0.0187
  19.  F 4 (py)     0.0137 -0.0045 -0.2646 -0.3173 -0.0347 -0.0108
  20.  F 4 (pz)    -0.0770  0.1550 -0.0705 -0.2205  0.1273 -0.0588
  21.  F 5 (s)      0.0110 -0.0030  0.0565 -0.0526 -0.0304  0.0052
  22.  F 5 (s)     -0.0658  0.0182 -0.3505  0.3405  0.1965 -0.0329
  23.  F 5 (px)    -0.1283 -0.0079 -0.4584  0.3317  0.3172 -0.0187
  24.  F 5 (py)     0.0137 -0.0045 -0.2646  0.3173 -0.0347 -0.0108
  25.  F 5 (pz)    -0.0770  0.1550 -0.0705  0.2205  0.1273 -0.0588
  26.  N 6 (s)      0.0000  0.0603 -0.0081  0.0000  0.0000  0.1198
  27.  N 6 (s)      0.0000 -0.3789  0.0545  0.0000  0.0000 -1.1576
  28.  N 6 (px)     0.0000  0.0000  0.0000  0.2626  0.0000  0.0000
  29.  N 6 (py)     0.7826  0.0000  0.0000  0.0000  0.2626  0.0000
  30.  N 6 (pz)     0.0000  0.4893 -0.0653  0.0000  0.0000  1.0431


 AO overlap matrix:

           AO          1       2       3       4       5       6       7       8
      ------------ ------- ------- ------- ------- ------- ------- ------- -------
   1.  C 1 (s)      1.0000  0.2484  0.0000  0.0000  0.0000  0.0000  0.0311  0.0000
   2.  C 1 (s)      0.2484  1.0000  0.0000  0.0000  0.0000  0.0311  0.3272  0.0000
   3.  C 1 (px)     0.0000  0.0000  1.0000  0.0000  0.0000  0.0000  0.0000  0.1849
   4.  C 1 (py)     0.0000  0.0000  0.0000  1.0000  0.0000  0.0000  0.0000  0.0000
   5.  C 1 (pz)     0.0000  0.0000  0.0000  0.0000  1.0000  0.0518  0.3596  0.0000
   6.  C 2 (s)      0.0000  0.0311  0.0000  0.0000  0.0518  1.0000  0.2484  0.0000
   7.  C 2 (s)      0.0311  0.3272  0.0000  0.0000  0.3596  0.2484  1.0000  0.0000
   8.  C 2 (px)     0.0000  0.0000  0.1849  0.0000  0.0000  0.0000  0.0000  1.0000
   9.  C 2 (py)     0.0000  0.0000  0.0000  0.1849  0.0000  0.0000  0.0000  0.0000
  10.  C 2 (pz)    -0.0518 -0.3596  0.0000  0.0000 -0.3223  0.0000  0.0000  0.0000
  11.  F 3 (s)      0.0000  0.0227  0.0000  0.0355 -0.0130  0.0000  0.0013  0.0000
  12.  F 3 (s)      0.0152  0.2530  0.0000  0.3280 -0.1202  0.0001  0.0286  0.0000
  13.  F 3 (px)     0.0000  0.0000  0.1288  0.0000  0.0000  0.0000  0.0000  0.0102
  14.  F 3 (py)    -0.0266 -0.2119  0.0000 -0.2243  0.1294 -0.0001 -0.0197  0.0000
  15.  F 3 (pz)     0.0097  0.0776  0.0000  0.1294  0.0814  0.0001  0.0304  0.0000
  16.  F 4 (s)      0.0000  0.0227  0.0307 -0.0177 -0.0130  0.0000  0.0013  0.0014
  17.  F 4 (s)      0.0152  0.2530  0.2841 -0.1640 -0.1202  0.0001  0.0286  0.0238
  18.  F 4 (px)    -0.0230 -0.1835 -0.1360  0.1529  0.1121 -0.0001 -0.0171 -0.0051
  19.  F 4 (py)     0.0133  0.1059  0.1529  0.0405 -0.0647  0.0000  0.0098  0.0088
  20.  F 4 (pz)     0.0097  0.0776  0.1121 -0.0647  0.0814  0.0001  0.0304  0.0272
  21.  F 5 (s)      0.0000  0.0227 -0.0307 -0.0177 -0.0130  0.0000  0.0013 -0.0014
  22.  F 5 (s)      0.0152  0.2530 -0.2841 -0.1640 -0.1202  0.0001  0.0286 -0.0238
  23.  F 5 (px)     0.0230  0.1835 -0.1360 -0.1529 -0.1121  0.0001  0.0171 -0.0051
  24.  F 5 (py)     0.0133  0.1059 -0.1529  0.0405 -0.0647  0.0000  0.0098 -0.0088
  25.  F 5 (pz)     0.0097  0.0776 -0.1121 -0.0647  0.0814  0.0001  0.0304 -0.0272
  26.  N 6 (s)      0.0000  0.0005  0.0000  0.0000  0.0014  0.0000  0.0490  0.0000
  27.  N 6 (s)      0.0002  0.0244  0.0000  0.0000  0.0414  0.0529  0.4386  0.0000
  28.  N 6 (px)     0.0000  0.0000  0.0093  0.0000  0.0000  0.0000  0.0000  0.2730
  29.  N 6 (py)     0.0000  0.0000  0.0000  0.0093  0.0000  0.0000  0.0000  0.0000
  30.  N 6 (pz)    -0.0006 -0.0373  0.0000  0.0000 -0.0586 -0.0876 -0.4016  0.0000

           AO          9      10      11      12      13      14      15      16
      ------------ ------- ------- ------- ------- ------- ------- ------- -------
   1.  C 1 (s)      0.0000 -0.0518  0.0000  0.0152  0.0000 -0.0266  0.0097  0.0000
   2.  C 1 (s)      0.0000 -0.3596  0.0227  0.2530  0.0000 -0.2119  0.0776  0.0227
   3.  C 1 (px)     0.0000  0.0000  0.0000  0.0000  0.1288  0.0000  0.0000  0.0307
   4.  C 1 (py)     0.1849  0.0000  0.0355  0.3280  0.0000 -0.2243  0.1294 -0.0177
   5.  C 1 (pz)     0.0000 -0.3223 -0.0130 -0.1202  0.0000  0.1294  0.0814 -0.0130
   6.  C 2 (s)      0.0000  0.0000  0.0000  0.0001  0.0000 -0.0001  0.0001  0.0000
   7.  C 2 (s)      0.0000  0.0000  0.0013  0.0286  0.0000 -0.0197  0.0304  0.0013
   8.  C 2 (px)     0.0000  0.0000  0.0000  0.0000  0.0102  0.0000  0.0000  0.0014
   9.  C 2 (py)     1.0000  0.0000  0.0016  0.0275  0.0000 -0.0102  0.0314 -0.0008
  10.  C 2 (pz)     0.0000  1.0000 -0.0025 -0.0424  0.0000  0.0314 -0.0382 -0.0025
  11.  F 3 (s)      0.0016 -0.0025  1.0000  0.2380  0.0000  0.0000  0.0000  0.0000
  12.  F 3 (s)      0.0275 -0.0424  0.2380  1.0000  0.0000  0.0000  0.0000  0.0001
  13.  F 3 (px)     0.0000  0.0000  0.0000  0.0000  1.0000  0.0000  0.0000  0.0001
  14.  F 3 (py)    -0.0102  0.0314  0.0000  0.0000  0.0000  1.0000  0.0000 -0.0001
  15.  F 3 (pz)     0.0314 -0.0382  0.0000  0.0000  0.0000  0.0000  1.0000  0.0000
  16.  F 4 (s)     -0.0008 -0.0025  0.0000  0.0001  0.0001 -0.0001  0.0000  1.0000
  17.  F 4 (s)     -0.0137 -0.0424  0.0001  0.0087  0.0076 -0.0132  0.0000  0.2380
  18.  F 4 (px)     0.0088  0.0272 -0.0001 -0.0076 -0.0040  0.0123  0.0000  0.0000
  19.  F 4 (py)     0.0051 -0.0157  0.0001  0.0132  0.0123 -0.0182  0.0000  0.0000
  20.  F 4 (pz)    -0.0157 -0.0382  0.0000  0.0000  0.0000  0.0000  0.0031  0.0000
  21.  F 5 (s)     -0.0008 -0.0025  0.0000  0.0001 -0.0001 -0.0001  0.0000  0.0000
  22.  F 5 (s)     -0.0137 -0.0424  0.0001  0.0087 -0.0076 -0.0132  0.0000  0.0001
  23.  F 5 (px)    -0.0088 -0.0272  0.0001  0.0076 -0.0040 -0.0123  0.0000  0.0002
  24.  F 5 (py)     0.0051 -0.0157  0.0001  0.0132 -0.0123 -0.0182  0.0000  0.0000
  25.  F 5 (pz)    -0.0157 -0.0382  0.0000  0.0000  0.0000  0.0000  0.0031  0.0000
  26.  N 6 (s)      0.0000  0.0826  0.0000  0.0000  0.0000  0.0000  0.0000  0.0000
  27.  N 6 (s)      0.0000  0.4689  0.0000  0.0003  0.0000 -0.0002  0.0006  0.0000
  28.  N 6 (px)     0.0000  0.0000  0.0000  0.0000  0.0001  0.0000  0.0000  0.0000
  29.  N 6 (py)     0.2730  0.0000  0.0000  0.0003  0.0000 -0.0001  0.0005  0.0000
  30.  N 6 (pz)     0.0000 -0.3171  0.0000 -0.0008  0.0000  0.0005 -0.0012  0.0000

           AO         17      18      19      20      21      22      23      24
      ------------ ------- ------- ------- ------- ------- ------- ------- -------
   1.  C 1 (s)      0.0152 -0.0230  0.0133  0.0097  0.0000  0.0152  0.0230  0.0133
   2.  C 1 (s)      0.2530 -0.1835  0.1059  0.0776  0.0227  0.2530  0.1835  0.1059
   3.  C 1 (px)     0.2841 -0.1360  0.1529  0.1121 -0.0307 -0.2841 -0.1360 -0.1529
   4.  C 1 (py)    -0.1640  0.1529  0.0405 -0.0647 -0.0177 -0.1640 -0.1529  0.0405
   5.  C 1 (pz)    -0.1202  0.1121 -0.0647  0.0814 -0.0130 -0.1202 -0.1121 -0.0647
   6.  C 2 (s)      0.0001 -0.0001  0.0000  0.0001  0.0000  0.0001  0.0001  0.0000
   7.  C 2 (s)      0.0286 -0.0171  0.0098  0.0304  0.0013  0.0286  0.0171  0.0098
   8.  C 2 (px)     0.0238 -0.0051  0.0088  0.0272 -0.0014 -0.0238 -0.0051 -0.0088
   9.  C 2 (py)    -0.0137  0.0088  0.0051 -0.0157 -0.0008 -0.0137 -0.0088  0.0051
  10.  C 2 (pz)    -0.0424  0.0272 -0.0157 -0.0382 -0.0025 -0.0424 -0.0272 -0.0157
  11.  F 3 (s)      0.0001 -0.0001  0.0001  0.0000  0.0000  0.0001  0.0001  0.0001
  12.  F 3 (s)      0.0087 -0.0076  0.0132  0.0000  0.0001  0.0087  0.0076  0.0132
  13.  F 3 (px)     0.0076 -0.0040  0.0123  0.0000 -0.0001 -0.0076 -0.0040 -0.0123
  14.  F 3 (py)    -0.0132  0.0123 -0.0182  0.0000 -0.0001 -0.0132 -0.0123 -0.0182
  15.  F 3 (pz)     0.0000  0.0000  0.0000  0.0031  0.0000  0.0000  0.0000  0.0000
  16.  F 4 (s)      0.2380  0.0000  0.0000  0.0000  0.0000  0.0001  0.0002  0.0000
  17.  F 4 (s)      1.0000  0.0000  0.0000  0.0000  0.0001  0.0087  0.0153  0.0000
  18.  F 4 (px)     0.0000  1.0000  0.0000  0.0000 -0.0002 -0.0153 -0.0253  0.0000
  19.  F 4 (py)     0.0000  0.0000  1.0000  0.0000  0.0000  0.0000  0.0000  0.0031
  20.  F 4 (pz)     0.0000  0.0000  0.0000  1.0000  0.0000  0.0000  0.0000  0.0000
  21.  F 5 (s)      0.0001 -0.0002  0.0000  0.0000  1.0000  0.2380  0.0000  0.0000
  22.  F 5 (s)      0.0087 -0.0153  0.0000  0.0000  0.2380  1.0000  0.0000  0.0000
  23.  F 5 (px)     0.0153 -0.0253  0.0000  0.0000  0.0000  0.0000  1.0000  0.0000
  24.  F 5 (py)     0.0000  0.0000  0.0031  0.0000  0.0000  0.0000  0.0000  1.0000
  25.  F 5 (pz)     0.0000  0.0000  0.0000  0.0031  0.0000  0.0000  0.0000  0.0000
  26.  N 6 (s)      0.0000  0.0000  0.0000  0.0000  0.0000  0.0000  0.0000  0.0000
  27.  N 6 (s)      0.0003 -0.0002  0.0001  0.0006  0.0000  0.0003  0.0002  0.0001
  28.  N 6 (px)     0.0003 -0.0001  0.0001  0.0005  0.0000 -0.0003 -0.0001 -0.0001
  29.  N 6 (py)    -0.0002  0.0001  0.0001 -0.0003  0.0000 -0.0002 -0.0001  0.0001
  30.  N 6 (pz)    -0.0008  0.0005 -0.0003 -0.0012  0.0000 -0.0008 -0.0005 -0.0003

           AO         25      26      27      28      29      30
      ------------ ------- ------- ------- ------- ------- -------
   1.  C 1 (s)      0.0097  0.0000  0.0002  0.0000  0.0000 -0.0006
   2.  C 1 (s)      0.0776  0.0005  0.0244  0.0000  0.0000 -0.0373
   3.  C 1 (px)    -0.1121  0.0000  0.0000  0.0093  0.0000  0.0000
   4.  C 1 (py)    -0.0647  0.0000  0.0000  0.0000  0.0093  0.0000
   5.  C 1 (pz)     0.0814  0.0014  0.0414  0.0000  0.0000 -0.0586
   6.  C 2 (s)      0.0001  0.0000  0.0529  0.0000  0.0000 -0.0876
   7.  C 2 (s)      0.0304  0.0490  0.4386  0.0000  0.0000 -0.4016
   8.  C 2 (px)    -0.0272  0.0000  0.0000  0.2730  0.0000  0.0000
   9.  C 2 (py)    -0.0157  0.0000  0.0000  0.0000  0.2730  0.0000
  10.  C 2 (pz)    -0.0382  0.0826  0.4689  0.0000  0.0000 -0.3171
  11.  F 3 (s)      0.0000  0.0000  0.0000  0.0000  0.0000  0.0000
  12.  F 3 (s)      0.0000  0.0000  0.0003  0.0000  0.0003 -0.0008
  13.  F 3 (px)     0.0000  0.0000  0.0000  0.0001  0.0000  0.0000
  14.  F 3 (py)     0.0000  0.0000 -0.0002  0.0000 -0.0001  0.0005
  15.  F 3 (pz)     0.0031  0.0000  0.0006  0.0000  0.0005 -0.0012
  16.  F 4 (s)      0.0000  0.0000  0.0000  0.0000  0.0000  0.0000
  17.  F 4 (s)      0.0000  0.0000  0.0003  0.0003 -0.0002 -0.0008
  18.  F 4 (px)     0.0000  0.0000 -0.0002 -0.0001  0.0001  0.0005
  19.  F 4 (py)     0.0000  0.0000  0.0001  0.0001  0.0001 -0.0003
  20.  F 4 (pz)     0.0031  0.0000  0.0006  0.0005 -0.0003 -0.0012
  21.  F 5 (s)      0.0000  0.0000  0.0000  0.0000  0.0000  0.0000
  22.  F 5 (s)      0.0000  0.0000  0.0003 -0.0003 -0.0002 -0.0008
  23.  F 5 (px)     0.0000  0.0000  0.0002 -0.0001 -0.0001 -0.0005
  24.  F 5 (py)     0.0000  0.0000  0.0001 -0.0001  0.0001 -0.0003
  25.  F 5 (pz)     1.0000  0.0000  0.0006 -0.0005 -0.0003 -0.0012
  26.  N 6 (s)      0.0000  1.0000  0.2350  0.0000  0.0000  0.0000
  27.  N 6 (s)      0.0006  0.2350  1.0000  0.0000  0.0000  0.0000
  28.  N 6 (px)    -0.0005  0.0000  0.0000  1.0000  0.0000  0.0000
  29.  N 6 (py)    -0.0003  0.0000  0.0000  0.0000  1.0000  0.0000
  30.  N 6 (pz)    -0.0012  0.0000  0.0000  0.0000  0.0000  1.0000


 AO bond-order matrix:

           AO          1       2       3       4       5       6       7       8
      ------------ ------- ------- ------- ------- ------- ------- ------- -------
   1.  C 1 (s)      2.0637 -0.2225  0.0000  0.0000 -0.0015  0.0244 -0.0632  0.0000
   2.  C 1 (s)     -0.2225  0.8974  0.0000  0.0000 -0.0399 -0.0669  0.1069  0.0000
   3.  C 1 (px)     0.0000  0.0000  0.5639  0.0000  0.0000  0.0000  0.0000  0.0344
   4.  C 1 (py)     0.0000  0.0000  0.0000  0.5639  0.0000  0.0000  0.0000  0.0000
   5.  C 1 (pz)    -0.0015 -0.0399  0.0000  0.0000  0.5509 -0.1219  0.3512  0.0000
   6.  C 2 (s)      0.0244 -0.0669  0.0000  0.0000 -0.1219  2.0797 -0.2362  0.0000
   7.  C 2 (s)     -0.0632  0.1069  0.0000  0.0000  0.3512 -0.2362  0.8633  0.0000
   8.  C 2 (px)     0.0000  0.0000  0.0344  0.0000  0.0000  0.0000  0.0000  0.7662
   9.  C 2 (py)     0.0000  0.0000  0.0000  0.0344  0.0000  0.0000  0.0000  0.0000
  10.  C 2 (pz)     0.0855 -0.1823  0.0000  0.0000 -0.3794  0.0110 -0.1105  0.0000
  11.  F 3 (s)      0.0028  0.0116  0.0000 -0.0069  0.0051 -0.0026  0.0073  0.0000
  12.  F 3 (s)      0.0178 -0.1749  0.0000 -0.0936  0.0215  0.0111 -0.0231  0.0000
  13.  F 3 (px)     0.0000  0.0000  0.1615  0.0000  0.0000  0.0000  0.0000 -0.0258
  14.  F 3 (py)     0.1131 -0.3696  0.0000 -0.5255  0.2377 -0.0137  0.0537  0.0000
  15.  F 3 (pz)    -0.0370  0.1467  0.0000  0.2555  0.0457  0.0519 -0.2462  0.0000
  16.  F 4 (s)      0.0028  0.0116 -0.0060  0.0035  0.0051 -0.0026  0.0073  0.0089
  17.  F 4 (s)      0.0178 -0.1749 -0.0811  0.0468  0.0215  0.0111 -0.0231 -0.0418
  18.  F 4 (px)     0.0979 -0.3201 -0.3538  0.2975  0.2059 -0.0119  0.0465  0.0366
  19.  F 4 (py)    -0.0565  0.1848  0.2975 -0.0103 -0.1189  0.0069 -0.0268 -0.0360
  20.  F 4 (pz)    -0.0370  0.1467  0.2213 -0.1278  0.0457  0.0519 -0.2462 -0.0038
  21.  F 5 (s)      0.0028  0.0116  0.0060  0.0035  0.0051 -0.0026  0.0073 -0.0089
  22.  F 5 (s)      0.0178 -0.1749  0.0811  0.0468  0.0215  0.0111 -0.0231  0.0418
  23.  F 5 (px)    -0.0979  0.3201 -0.3538 -0.2975 -0.2059  0.0119 -0.0465  0.0366
  24.  F 5 (py)    -0.0565  0.1848 -0.2975 -0.0103 -0.1189  0.0069 -0.0268  0.0360
  25.  F 5 (pz)    -0.0370  0.1467 -0.2213 -0.1278  0.0457  0.0519 -0.2462  0.0038
  26.  N 6 (s)     -0.0015 -0.0053  0.0000  0.0000  0.0060  0.0215 -0.0263  0.0000
  27.  N 6 (s)     -0.0110  0.0592  0.0000  0.0000  0.0327 -0.0334 -0.1267  0.0000
  28.  N 6 (px)     0.0000  0.0000 -0.0168  0.0000  0.0000  0.0000  0.0000  0.7793
  29.  N 6 (py)     0.0000  0.0000  0.0000 -0.0168  0.0000  0.0000  0.0000  0.0000
  30.  N 6 (pz)    -0.0227  0.0625  0.0000  0.0000  0.1298  0.1851 -0.4936  0.0000

           AO          9      10      11      12      13      14      15      16
      ------------ ------- ------- ------- ------- ------- ------- ------- -------
   1.  C 1 (s)      0.0000  0.0855  0.0028  0.0178  0.0000  0.1131 -0.0370  0.0028
   2.  C 1 (s)      0.0000 -0.1823  0.0116 -0.1749  0.0000 -0.3696  0.1467  0.0116
   3.  C 1 (px)     0.0000  0.0000  0.0000  0.0000  0.1615  0.0000  0.0000 -0.0060
   4.  C 1 (py)     0.0344  0.0000 -0.0069 -0.0936  0.0000 -0.5255  0.2555  0.0035
   5.  C 1 (pz)     0.0000 -0.3794  0.0051  0.0215  0.0000  0.2377  0.0457  0.0051
   6.  C 2 (s)      0.0000  0.0110 -0.0026  0.0111  0.0000 -0.0137  0.0519 -0.0026
   7.  C 2 (s)      0.0000 -0.1105  0.0073 -0.0231  0.0000  0.0537 -0.2462  0.0073
   8.  C 2 (px)     0.0000  0.0000  0.0000  0.0000 -0.0258  0.0000  0.0000  0.0089
   9.  C 2 (py)     0.7662  0.0000  0.0103 -0.0483  0.0000  0.0574 -0.0044 -0.0051
  10.  C 2 (pz)     0.0000  0.6092 -0.0093  0.0372  0.0000 -0.0413  0.1857 -0.0093
  11.  F 3 (s)      0.0103 -0.0093  2.1172 -0.4965  0.0000 -0.0683  0.0244 -0.0006
  12.  F 3 (s)     -0.0483  0.0372 -0.4965  2.1449  0.0000  0.3755 -0.1357  0.0006
  13.  F 3 (px)     0.0000  0.0000  0.0000  0.0000  1.9316  0.0000  0.0000  0.0163
  14.  F 3 (py)     0.0574 -0.0413 -0.0683  0.3755  0.0000  1.1648  0.2920 -0.0134
  15.  F 3 (pz)    -0.0044  0.1857  0.0244 -0.1357  0.0000  0.2920  1.8374 -0.0067
  16.  F 4 (s)     -0.0051 -0.0093 -0.0006  0.0006  0.0163 -0.0134 -0.0067  2.1172
  17.  F 4 (s)      0.0241  0.0372  0.0006  0.0120 -0.0828  0.0587  0.0367 -0.4965
  18.  F 4 (px)    -0.0360 -0.0358 -0.0035  0.0095  0.1271 -0.0705 -0.1020 -0.0591
  19.  F 4 (py)    -0.0050  0.0207  0.0208 -0.1011 -0.1332  0.2446 -0.0353  0.0341
  20.  F 4 (pz)     0.0022  0.1857 -0.0067  0.0367 -0.0816 -0.0707  0.0254  0.0244
  21.  F 5 (s)     -0.0051 -0.0093 -0.0006  0.0006 -0.0163 -0.0134 -0.0067 -0.0006
  22.  F 5 (s)      0.0241  0.0372  0.0006  0.0120  0.0828  0.0587  0.0367  0.0006
  23.  F 5 (px)     0.0360  0.0358  0.0035 -0.0095  0.1271  0.0705  0.1020  0.0198
  24.  F 5 (py)    -0.0050  0.0207  0.0208 -0.1011  0.1332  0.2446 -0.0353 -0.0074
  25.  F 5 (pz)     0.0022  0.1857 -0.0067  0.0367  0.0816 -0.0707  0.0254 -0.0067
  26.  N 6 (s)      0.0000 -0.0729  0.0001 -0.0004  0.0000  0.0020 -0.0071  0.0001
  27.  N 6 (s)      0.0000  0.0340  0.0011 -0.0067  0.0000 -0.0048  0.0134  0.0011
  28.  N 6 (px)     0.0000  0.0000  0.0000  0.0000 -0.0305  0.0000  0.0000  0.0038
  29.  N 6 (py)     0.7793  0.0000  0.0044 -0.0204  0.0000  0.0754 -0.1037 -0.0022
  30.  N 6 (pz)     0.0000 -0.4849  0.0013 -0.0067  0.0000  0.0171 -0.0566  0.0013

           AO         17      18      19      20      21      22      23      24
      ------------ ------- ------- ------- ------- ------- ------- ------- -------
   1.  C 1 (s)      0.0178  0.0979 -0.0565 -0.0370  0.0028  0.0178 -0.0979 -0.0565
   2.  C 1 (s)     -0.1749 -0.3201  0.1848  0.1467  0.0116 -0.1749  0.3201  0.1848
   3.  C 1 (px)    -0.0811 -0.3538  0.2975  0.2213  0.0060  0.0811 -0.3538 -0.2975
   4.  C 1 (py)     0.0468  0.2975 -0.0103 -0.1278  0.0035  0.0468 -0.2975 -0.0103
   5.  C 1 (pz)     0.0215  0.2059 -0.1189  0.0457  0.0051  0.0215 -0.2059 -0.1189
   6.  C 2 (s)      0.0111 -0.0119  0.0069  0.0519 -0.0026  0.0111  0.0119  0.0069
   7.  C 2 (s)     -0.0231  0.0465 -0.0268 -0.2462  0.0073 -0.0231 -0.0465 -0.0268
   8.  C 2 (px)    -0.0418  0.0366 -0.0360 -0.0038 -0.0089  0.0418  0.0366  0.0360
   9.  C 2 (py)     0.0241 -0.0360 -0.0050  0.0022 -0.0051  0.0241  0.0360 -0.0050
  10.  C 2 (pz)     0.0372 -0.0358  0.0207  0.1857 -0.0093  0.0372  0.0358  0.0207
  11.  F 3 (s)      0.0006 -0.0035  0.0208 -0.0067 -0.0006  0.0006  0.0035  0.0208
  12.  F 3 (s)      0.0120  0.0095 -0.1011  0.0367  0.0006  0.0120 -0.0095 -0.1011
  13.  F 3 (px)    -0.0828  0.1271 -0.1332 -0.0816 -0.0163  0.0828  0.1271  0.1332
  14.  F 3 (py)     0.0587 -0.0705  0.2446 -0.0707 -0.0134  0.0587  0.0705  0.2446
  15.  F 3 (pz)     0.0367 -0.1020 -0.0353  0.0254 -0.0067  0.0367  0.1020 -0.0353
  16.  F 4 (s)     -0.4965 -0.0591  0.0341  0.0244 -0.0006  0.0006  0.0198 -0.0074
  17.  F 4 (s)      2.1449  0.3252 -0.1877 -0.1357  0.0006  0.0120 -0.0923  0.0423
  18.  F 4 (px)     0.3252  1.3565  0.3320  0.2528 -0.0198  0.0923  0.3034 -0.0314
  19.  F 4 (py)    -0.1877  0.3320  1.7399 -0.1460 -0.0074  0.0423  0.0314  0.0683
  20.  F 4 (pz)    -0.1357  0.2528 -0.1460  1.8374 -0.0067  0.0367  0.0204  0.1060
  21.  F 5 (s)      0.0006 -0.0198 -0.0074 -0.0067  2.1172 -0.4965  0.0591  0.0341
  22.  F 5 (s)      0.0120  0.0923  0.0423  0.0367 -0.4965  2.1449 -0.3252 -0.1877
  23.  F 5 (px)    -0.0923  0.3034  0.0314  0.0204  0.0591 -0.3252  1.3565 -0.3320
  24.  F 5 (py)     0.0423 -0.0314  0.0683  0.1060  0.0341 -0.1877 -0.3320  1.7399
  25.  F 5 (pz)     0.0367 -0.0204  0.1060  0.0254  0.0244 -0.1357 -0.2528 -0.1460
  26.  N 6 (s)     -0.0004  0.0017 -0.0010 -0.0071  0.0001 -0.0004 -0.0017 -0.0010
  27.  N 6 (s)     -0.0067 -0.0042  0.0024  0.0134  0.0011 -0.0067  0.0042  0.0024
  28.  N 6 (px)    -0.0177  0.0489 -0.0458 -0.0898 -0.0038  0.0177  0.0489  0.0458
  29.  N 6 (py)     0.0102 -0.0458 -0.0040  0.0519 -0.0022  0.0102  0.0458 -0.0040
  30.  N 6 (pz)    -0.0067  0.0148 -0.0086 -0.0566  0.0013 -0.0067 -0.0148 -0.0086

           AO         25      26      27      28      29      30
      ------------ ------- ------- ------- ------- ------- -------
   1.  C 1 (s)     -0.0370 -0.0015 -0.0110  0.0000  0.0000 -0.0227
   2.  C 1 (s)      0.1467 -0.0053  0.0592  0.0000  0.0000  0.0625
   3.  C 1 (px)    -0.2213  0.0000  0.0000 -0.0168  0.0000  0.0000
   4.  C 1 (py)    -0.1278  0.0000  0.0000  0.0000 -0.0168  0.0000
   5.  C 1 (pz)     0.0457  0.0060  0.0327  0.0000  0.0000  0.1298
   6.  C 2 (s)      0.0519  0.0215 -0.0334  0.0000  0.0000  0.1851
   7.  C 2 (s)     -0.2462 -0.0263 -0.1267  0.0000  0.0000 -0.4936
   8.  C 2 (px)     0.0038  0.0000  0.0000  0.7793  0.0000  0.0000
   9.  C 2 (py)     0.0022  0.0000  0.0000  0.0000  0.7793  0.0000
  10.  C 2 (pz)     0.1857 -0.0729  0.0340  0.0000  0.0000 -0.4849
  11.  F 3 (s)     -0.0067  0.0001  0.0011  0.0000  0.0044  0.0013
  12.  F 3 (s)      0.0367 -0.0004 -0.0067  0.0000 -0.0204 -0.0067
  13.  F 3 (px)     0.0816  0.0000  0.0000 -0.0305  0.0000  0.0000
  14.  F 3 (py)    -0.0707  0.0020 -0.0048  0.0000  0.0754  0.0171
  15.  F 3 (pz)     0.0254 -0.0071  0.0134  0.0000 -0.1037 -0.0566
  16.  F 4 (s)     -0.0067  0.0001  0.0011  0.0038 -0.0022  0.0013
  17.  F 4 (s)      0.0367 -0.0004 -0.0067 -0.0177  0.0102 -0.0067
  18.  F 4 (px)    -0.0204  0.0017 -0.0042  0.0489 -0.0458  0.0148
  19.  F 4 (py)     0.1060 -0.0010  0.0024 -0.0458 -0.0040 -0.0086
  20.  F 4 (pz)     0.0254 -0.0071  0.0134 -0.0898  0.0519 -0.0566
  21.  F 5 (s)      0.0244  0.0001  0.0011 -0.0038 -0.0022  0.0013
  22.  F 5 (s)     -0.1357 -0.0004 -0.0067  0.0177  0.0102 -0.0067
  23.  F 5 (px)    -0.2528 -0.0017  0.0042  0.0489  0.0458 -0.0148
  24.  F 5 (py)    -0.1460 -0.0010  0.0024  0.0458 -0.0040 -0.0086
  25.  F 5 (pz)     1.8374 -0.0071  0.0134  0.0898  0.0519 -0.0566
  26.  N 6 (s)     -0.0071  2.1051 -0.4262  0.0000  0.0000 -0.1119
  27.  N 6 (s)      0.0134 -0.4262  1.9192  0.0000  0.0000  0.6606
  28.  N 6 (px)     0.0898  0.0000  0.0000  0.8029  0.0000  0.0000
  29.  N 6 (py)     0.0519  0.0000  0.0000  0.0000  0.8029  0.0000
  30.  N 6 (pz)    -0.0566 -0.1119  0.6606  0.0000  0.0000  0.9887


 AO density matrix:

           AO          1       2       3       4       5       6       7       8
      ------------ ------- ------- ------- ------- ------- ------- ------- -------
   1.  C 1 (s)      1.9996  0.5069  0.0000  0.0000 -0.0013  0.0002  0.0578  0.0000
   2.  C 1 (s)      0.5069  1.7465  0.0000  0.0000  0.0901  0.0585  0.7352  0.0000
   3.  C 1 (px)     0.0000  0.0000  1.3603  0.0000  0.0000  0.0000  0.0000  0.3479
   4.  C 1 (py)     0.0000  0.0000  0.0000  1.3603  0.0000  0.0000  0.0000  0.0000
   5.  C 1 (pz)    -0.0013  0.0901  0.0000  0.0000  1.5154  0.0963  0.9164  0.0000
   6.  C 2 (s)      0.0002  0.0585  0.0000  0.0000  0.0963  1.9997  0.5051  0.0000
   7.  C 2 (s)      0.0578  0.7352  0.0000  0.0000  0.9164  0.5051  1.7859  0.0000
   8.  C 2 (px)     0.0000  0.0000  0.3479  0.0000  0.0000  0.0000  0.0000  1.2820
   9.  C 2 (py)     0.0000  0.0000  0.0000  0.3479  0.0000  0.0000  0.0000  0.0000
  10.  C 2 (pz)    -0.0995 -0.7909  0.0000  0.0000 -0.8261 -0.0010  0.0245  0.0000
  11.  F 3 (s)      0.0001  0.0429  0.0000  0.0661 -0.0240  0.0000  0.0029  0.0000
  12.  F 3 (s)      0.0296  0.5285  0.0000  0.7013 -0.2594  0.0002  0.0553  0.0000
  13.  F 3 (px)     0.0000  0.0000  0.3865  0.0000  0.0000  0.0000  0.0000  0.0332
  14.  F 3 (py)    -0.0464 -0.6031  0.0000 -0.7907  0.4258 -0.0010 -0.0305  0.0000
  15.  F 3 (pz)     0.0171  0.2066  0.0000  0.4375  0.1993  0.0022  0.0132  0.0000
  16.  F 4 (s)      0.0001  0.0429  0.0573 -0.0331 -0.0240  0.0000  0.0029  0.0029
  17.  F 4 (s)      0.0296  0.5285  0.6073 -0.3506 -0.2594  0.0002  0.0553  0.0472
  18.  F 4 (px)    -0.0402 -0.5223 -0.4964  0.5097  0.3688 -0.0009 -0.0264 -0.0324
  19.  F 4 (py)     0.0232  0.3015  0.5097  0.0922 -0.2129  0.0005  0.0152  0.0379
  20.  F 4 (pz)     0.0171  0.2066  0.3789 -0.2188  0.1993  0.0022  0.0132  0.0976
  21.  F 5 (s)      0.0001  0.0429 -0.0573 -0.0331 -0.0240  0.0000  0.0029 -0.0029
  22.  F 5 (s)      0.0296  0.5285 -0.6073 -0.3506 -0.2594  0.0002  0.0553 -0.0472
  23.  F 5 (px)     0.0402  0.5223 -0.4964 -0.5097 -0.3688  0.0009  0.0264 -0.0324
  24.  F 5 (py)     0.0232  0.3015 -0.5097  0.0922 -0.2129  0.0005  0.0152 -0.0379
  25.  F 5 (pz)     0.0171  0.2066 -0.3789 -0.2188  0.1993  0.0022  0.0132 -0.0976
  26.  N 6 (s)      0.0000  0.0015  0.0000  0.0000  0.0039  0.0002  0.0939  0.0000
  27.  N 6 (s)      0.0003  0.0500  0.0000  0.0000  0.0820  0.1045  0.9120  0.0000
  28.  N 6 (px)     0.0000  0.0000  0.1183  0.0000  0.0000  0.0000  0.0000  1.2576
  29.  N 6 (py)     0.0000  0.0000  0.0000  0.1183  0.0000  0.0000  0.0000  0.0000
  30.  N 6 (pz)    -0.0026 -0.0464  0.0000  0.0000 -0.0508 -0.1689 -0.9632  0.0000

           AO          9      10      11      12      13      14      15      16
      ------------ ------- ------- ------- ------- ------- ------- ------- -------
   1.  C 1 (s)      0.0000 -0.0995  0.0001  0.0296  0.0000 -0.0464  0.0171  0.0001
   2.  C 1 (s)      0.0000 -0.7909  0.0429  0.5285  0.0000 -0.6031  0.2066  0.0429
   3.  C 1 (px)     0.0000  0.0000  0.0000  0.0000  0.3865  0.0000  0.0000  0.0573
   4.  C 1 (py)     0.3479  0.0000  0.0661  0.7013  0.0000 -0.7907  0.4375 -0.0331
   5.  C 1 (pz)     0.0000 -0.8261 -0.0240 -0.2594  0.0000  0.4258  0.1993 -0.0240
   6.  C 2 (s)      0.0000 -0.0010  0.0000  0.0002  0.0000 -0.0010  0.0022  0.0000
   7.  C 2 (s)      0.0000  0.0245  0.0029  0.0553  0.0000 -0.0305  0.0132  0.0029
   8.  C 2 (px)     0.0000  0.0000  0.0000  0.0000  0.0332  0.0000  0.0000  0.0029
   9.  C 2 (py)     1.2820  0.0000  0.0033  0.0545  0.0000 -0.0542  0.1127 -0.0017
  10.  C 2 (pz)     0.0000  1.7483 -0.0053 -0.0836  0.0000  0.0639 -0.0420 -0.0053
  11.  F 3 (s)      0.0033 -0.0053  1.9999  0.4766  0.0000 -0.0046  0.0017  0.0000
  12.  F 3 (s)      0.0545 -0.0836  0.4766  1.9946  0.0000  0.0425 -0.0157  0.0002
  13.  F 3 (px)     0.0000  0.0000  0.0000  0.0000  1.9739  0.0000  0.0000  0.0010
  14.  F 3 (py)    -0.0542  0.0639 -0.0046  0.0425  0.0000  1.6657  0.1209 -0.0011
  15.  F 3 (pz)     0.1127 -0.0420  0.0017 -0.0157  0.0000  0.1209  1.9302 -0.0003
  16.  F 4 (s)     -0.0017 -0.0053  0.0000  0.0002  0.0010 -0.0011 -0.0003  1.9999
  17.  F 4 (s)     -0.0272 -0.0836  0.0002  0.0167  0.0074 -0.0201  0.0030  0.4766
  18.  F 4 (px)     0.0379  0.0554 -0.0004 -0.0137  0.0374  0.0037 -0.0371 -0.0040
  19.  F 4 (py)     0.0114 -0.0320  0.0014  0.0165 -0.0167  0.0449 -0.0151  0.0023
  20.  F 4 (pz)    -0.0563 -0.0420 -0.0003  0.0030 -0.0316 -0.0245  0.0153  0.0017
  21.  F 5 (s)     -0.0017 -0.0053  0.0000  0.0002 -0.0010 -0.0011 -0.0003  0.0000
  22.  F 5 (s)     -0.0272 -0.0836  0.0002  0.0167 -0.0074 -0.0201  0.0030  0.0002
  23.  F 5 (px)    -0.0379 -0.0554  0.0004  0.0137  0.0374 -0.0037  0.0371  0.0014
  24.  F 5 (py)     0.0114 -0.0320  0.0014  0.0165  0.0167  0.0449 -0.0151 -0.0003
  25.  F 5 (pz)    -0.0563 -0.0420 -0.0003  0.0030  0.0316 -0.0245  0.0153 -0.0003
  26.  N 6 (s)      0.0000  0.1613  0.0000  0.0000  0.0000  0.0002 -0.0004  0.0000
  27.  N 6 (s)      0.0000  0.9851  0.0000  0.0006  0.0000 -0.0012  0.0028  0.0000
  28.  N 6 (px)     0.0000  0.0000  0.0000  0.0000 -0.0282  0.0000  0.0000  0.0005
  29.  N 6 (py)     1.2576  0.0000  0.0006 -0.0045  0.0000  0.0751 -0.0699 -0.0003
  30.  N 6 (pz)     0.0000 -0.7430  0.0001 -0.0024  0.0000  0.0086 -0.0232  0.0001

           AO         17      18      19      20      21      22      23      24
      ------------ ------- ------- ------- ------- ------- ------- ------- -------
   1.  C 1 (s)      0.0296 -0.0402  0.0232  0.0171  0.0001  0.0296  0.0402  0.0232
   2.  C 1 (s)      0.5285 -0.5223  0.3015  0.2066  0.0429  0.5285  0.5223  0.3015
   3.  C 1 (px)     0.6073 -0.4964  0.5097  0.3789 -0.0573 -0.6073 -0.4964 -0.5097
   4.  C 1 (py)    -0.3506  0.5097  0.0922 -0.2188 -0.0331 -0.3506 -0.5097  0.0922
   5.  C 1 (pz)    -0.2594  0.3688 -0.2129  0.1993 -0.0240 -0.2594 -0.3688 -0.2129
   6.  C 2 (s)      0.0002 -0.0009  0.0005  0.0022  0.0000  0.0002  0.0009  0.0005
   7.  C 2 (s)      0.0553 -0.0264  0.0152  0.0132  0.0029  0.0553  0.0264  0.0152
   8.  C 2 (px)     0.0472 -0.0324  0.0379  0.0976 -0.0029 -0.0472 -0.0324 -0.0379
   9.  C 2 (py)    -0.0272  0.0379  0.0114 -0.0563 -0.0017 -0.0272 -0.0379  0.0114
  10.  C 2 (pz)    -0.0836  0.0554 -0.0320 -0.0420 -0.0053 -0.0836 -0.0554 -0.0320
  11.  F 3 (s)      0.0002 -0.0004  0.0014 -0.0003  0.0000  0.0002  0.0004  0.0014
  12.  F 3 (s)      0.0167 -0.0137  0.0165  0.0030  0.0002  0.0167  0.0137  0.0165
  13.  F 3 (px)     0.0074  0.0374 -0.0167 -0.0316 -0.0010 -0.0074  0.0374  0.0167
  14.  F 3 (py)    -0.0201  0.0037  0.0449 -0.0245 -0.0011 -0.0201 -0.0037  0.0449
  15.  F 3 (pz)     0.0030 -0.0371 -0.0151  0.0153 -0.0003  0.0030  0.0371 -0.0151
  16.  F 4 (s)      0.4766 -0.0040  0.0023  0.0017  0.0000  0.0002  0.0014 -0.0003
  17.  F 4 (s)      1.9946  0.0368 -0.0212 -0.0157  0.0002  0.0167  0.0211  0.0037
  18.  F 4 (px)     0.0368  1.7428  0.1335  0.1047 -0.0014 -0.0211  0.0487 -0.0102
  19.  F 4 (py)    -0.0212  0.1335  1.8969 -0.0605 -0.0003  0.0037  0.0102  0.0336
  20.  F 4 (pz)    -0.0157  0.1047 -0.0605  1.9302 -0.0003  0.0030  0.0054  0.0397
  21.  F 5 (s)      0.0002 -0.0014 -0.0003 -0.0003  1.9999  0.4766  0.0040  0.0023
  22.  F 5 (s)      0.0167 -0.0211  0.0037  0.0030  0.4766  1.9946 -0.0368 -0.0212
  23.  F 5 (px)     0.0211  0.0487  0.0102  0.0054  0.0040 -0.0368  1.7428 -0.1335
  24.  F 5 (py)     0.0037 -0.0102  0.0336  0.0397  0.0023 -0.0212 -0.1335  1.8969
  25.  F 5 (pz)     0.0030 -0.0054  0.0397  0.0153  0.0017 -0.0157 -0.1047 -0.0605
  26.  N 6 (s)      0.0000  0.0002 -0.0001 -0.0004  0.0000  0.0000 -0.0002 -0.0001
  27.  N 6 (s)      0.0006 -0.0010  0.0006  0.0028  0.0000  0.0006  0.0010  0.0006
  28.  N 6 (px)    -0.0039  0.0493 -0.0447 -0.0606 -0.0005  0.0039  0.0493  0.0447
  29.  N 6 (py)     0.0022 -0.0447 -0.0024  0.0350 -0.0003  0.0022  0.0447 -0.0024
  30.  N 6 (pz)    -0.0024  0.0074 -0.0043 -0.0232  0.0001 -0.0024 -0.0074 -0.0043

           AO         25      26      27      28      29      30
      ------------ ------- ------- ------- ------- ------- -------
   1.  C 1 (s)      0.0171  0.0000  0.0003  0.0000  0.0000 -0.0026
   2.  C 1 (s)      0.2066  0.0015  0.0500  0.0000  0.0000 -0.0464
   3.  C 1 (px)    -0.3789  0.0000  0.0000  0.1183  0.0000  0.0000
   4.  C 1 (py)    -0.2188  0.0000  0.0000  0.0000  0.1183  0.0000
   5.  C 1 (pz)     0.1993  0.0039  0.0820  0.0000  0.0000 -0.0508
   6.  C 2 (s)      0.0022  0.0002  0.1045  0.0000  0.0000 -0.1689
   7.  C 2 (s)      0.0132  0.0939  0.9120  0.0000  0.0000 -0.9632
   8.  C 2 (px)    -0.0976  0.0000  0.0000  1.2576  0.0000  0.0000
   9.  C 2 (py)    -0.0563  0.0000  0.0000  0.0000  1.2576  0.0000
  10.  C 2 (pz)    -0.0420  0.1613  0.9851  0.0000  0.0000 -0.7430
  11.  F 3 (s)     -0.0003  0.0000  0.0000  0.0000  0.0006  0.0001
  12.  F 3 (s)      0.0030  0.0000  0.0006  0.0000 -0.0045 -0.0024
  13.  F 3 (px)     0.0316  0.0000  0.0000 -0.0282  0.0000  0.0000
  14.  F 3 (py)    -0.0245  0.0002 -0.0012  0.0000  0.0751  0.0086
  15.  F 3 (pz)     0.0153 -0.0004  0.0028  0.0000 -0.0699 -0.0232
  16.  F 4 (s)     -0.0003  0.0000  0.0000  0.0005 -0.0003  0.0001
  17.  F 4 (s)      0.0030  0.0000  0.0006 -0.0039  0.0022 -0.0024
  18.  F 4 (px)    -0.0054  0.0002 -0.0010  0.0493 -0.0447  0.0074
  19.  F 4 (py)     0.0397 -0.0001  0.0006 -0.0447 -0.0024 -0.0043
  20.  F 4 (pz)     0.0153 -0.0004  0.0028 -0.0606  0.0350 -0.0232
  21.  F 5 (s)      0.0017  0.0000  0.0000 -0.0005 -0.0003  0.0001
  22.  F 5 (s)     -0.0157  0.0000  0.0006  0.0039  0.0022 -0.0024
  23.  F 5 (px)    -0.1047 -0.0002  0.0010  0.0493  0.0447 -0.0074
  24.  F 5 (py)    -0.0605 -0.0001  0.0006  0.0447 -0.0024 -0.0043
  25.  F 5 (pz)     1.9302 -0.0004  0.0028  0.0606  0.0350 -0.0232
  26.  N 6 (s)     -0.0004  1.9998  0.4717  0.0000  0.0000 -0.0054
  27.  N 6 (s)      0.0028  0.4717  1.9838  0.0000  0.0000  0.0522
  28.  N 6 (px)     0.0606  0.0000  0.0000  1.2852  0.0000  0.0000
  29.  N 6 (py)     0.0350  0.0000  0.0000  0.0000  1.2852  0.0000
  30.  N 6 (pz)    -0.0232 -0.0054  0.0522  0.0000  0.0000  1.8156


 MO density matrix:

      MO     1       2       3       4       5       6       7       8       9
     ---- ------  ------  ------  ------  ------  ------  ------  ------  ------
   1.     2.0000  0.0000  0.0000  0.0000  0.0000  0.0000  0.0000  0.0000  0.0000
   2.     0.0000  2.0000  0.0000  0.0000  0.0000  0.0000  0.0000  0.0000  0.0000
   3.     0.0000  0.0000  2.0000  0.0000  0.0000  0.0000  0.0000  0.0000  0.0000
   4.     0.0000  0.0000  0.0000  2.0000  0.0000  0.0000  0.0000  0.0000  0.0000
   5.     0.0000  0.0000  0.0000  0.0000  2.0000  0.0000  0.0000  0.0000  0.0000
   6.     0.0000  0.0000  0.0000  0.0000  0.0000  2.0000  0.0000  0.0000  0.0000
   7.     0.0000  0.0000  0.0000  0.0000  0.0000  0.0000  2.0000  0.0000  0.0000
   8.     0.0000  0.0000  0.0000  0.0000  0.0000  0.0000  0.0000  2.0000  0.0000
   9.     0.0000  0.0000  0.0000  0.0000  0.0000  0.0000  0.0000  0.0000  2.0000
  10.     0.0000  0.0000  0.0000  0.0000  0.0000  0.0000  0.0000  0.0000  0.0000
  11.     0.0000  0.0000  0.0000  0.0000  0.0000  0.0000  0.0000  0.0000  0.0000
  12.     0.0000  0.0000  0.0000  0.0000  0.0000  0.0000  0.0000  0.0000  0.0000
  13.     0.0000  0.0000  0.0000  0.0000  0.0000  0.0000  0.0000  0.0000  0.0000
  14.     0.0000  0.0000  0.0000  0.0000  0.0000  0.0000  0.0000  0.0000  0.0000
  15.     0.0000  0.0000  0.0000  0.0000  0.0000  0.0000  0.0000  0.0000  0.0000
  16.     0.0000  0.0000  0.0000  0.0000  0.0000  0.0000  0.0000  0.0000  0.0000
  17.     0.0000  0.0000  0.0000  0.0000  0.0000  0.0000  0.0000  0.0000  0.0000
  18.     0.0000  0.0000  0.0000  0.0000  0.0000  0.0000  0.0000  0.0000  0.0000
  19.     0.0000  0.0000  0.0000  0.0000  0.0000  0.0000  0.0000  0.0000  0.0000
  20.     0.0000  0.0000  0.0000  0.0000  0.0000  0.0000  0.0000  0.0000  0.0000
  21.     0.0000  0.0000  0.0000  0.0000  0.0000  0.0000  0.0000  0.0000  0.0000
  22.     0.0000  0.0000  0.0000  0.0000  0.0000  0.0000  0.0000  0.0000  0.0000
  23.     0.0000  0.0000  0.0000  0.0000  0.0000  0.0000  0.0000  0.0000  0.0000
  24.     0.0000  0.0000  0.0000  0.0000  0.0000  0.0000  0.0000  0.0000  0.0000
  25.     0.0000  0.0000  0.0000  0.0000  0.0000  0.0000  0.0000  0.0000  0.0000
  26.     0.0000  0.0000  0.0000  0.0000  0.0000  0.0000  0.0000  0.0000  0.0000
  27.     0.0000  0.0000  0.0000  0.0000  0.0000  0.0000  0.0000  0.0000  0.0000
  28.     0.0000  0.0000  0.0000  0.0000  0.0000  0.0000  0.0000  0.0000  0.0000
  29.     0.0000  0.0000  0.0000  0.0000  0.0000  0.0000  0.0000  0.0000  0.0000
  30.     0.0000  0.0000  0.0000  0.0000  0.0000  0.0000  0.0000  0.0000  0.0000

      MO    10      11      12      13      14      15      16      17      18
     ---- ------  ------  ------  ------  ------  ------  ------  ------  ------
   1.     0.0000  0.0000  0.0000  0.0000  0.0000  0.0000  0.0000  0.0000  0.0000
   2.     0.0000  0.0000  0.0000  0.0000  0.0000  0.0000  0.0000  0.0000  0.0000
   3.     0.0000  0.0000  0.0000  0.0000  0.0000  0.0000  0.0000  0.0000  0.0000
   4.     0.0000  0.0000  0.0000  0.0000  0.0000  0.0000  0.0000  0.0000  0.0000
   5.     0.0000  0.0000  0.0000  0.0000  0.0000  0.0000  0.0000  0.0000  0.0000
   6.     0.0000  0.0000  0.0000  0.0000  0.0000  0.0000  0.0000  0.0000  0.0000
   7.     0.0000  0.0000  0.0000  0.0000  0.0000  0.0000  0.0000  0.0000  0.0000
   8.     0.0000  0.0000  0.0000  0.0000  0.0000  0.0000  0.0000  0.0000  0.0000
   9.     0.0000  0.0000  0.0000  0.0000  0.0000  0.0000  0.0000  0.0000  0.0000
  10.     2.0000  0.0000  0.0000  0.0000  0.0000  0.0000  0.0000  0.0000  0.0000
  11.     0.0000  2.0000  0.0000  0.0000  0.0000  0.0000  0.0000  0.0000  0.0000
  12.     0.0000  0.0000  2.0000  0.0000  0.0000  0.0000  0.0000  0.0000  0.0000
  13.     0.0000  0.0000  0.0000  2.0000  0.0000  0.0000  0.0000  0.0000  0.0000
  14.     0.0000  0.0000  0.0000  0.0000  2.0000  0.0000  0.0000  0.0000  0.0000
  15.     0.0000  0.0000  0.0000  0.0000  0.0000  2.0000  0.0000  0.0000  0.0000
  16.     0.0000  0.0000  0.0000  0.0000  0.0000  0.0000  2.0000  0.0000  0.0000
  17.     0.0000  0.0000  0.0000  0.0000  0.0000  0.0000  0.0000  2.0000  0.0000
  18.     0.0000  0.0000  0.0000  0.0000  0.0000  0.0000  0.0000  0.0000  2.0000
  19.     0.0000  0.0000  0.0000  0.0000  0.0000  0.0000  0.0000  0.0000  0.0000
  20.     0.0000  0.0000  0.0000  0.0000  0.0000  0.0000  0.0000  0.0000  0.0000
  21.     0.0000  0.0000  0.0000  0.0000  0.0000  0.0000  0.0000  0.0000  0.0000
  22.     0.0000  0.0000  0.0000  0.0000  0.0000  0.0000  0.0000  0.0000  0.0000
  23.     0.0000  0.0000  0.0000  0.0000  0.0000  0.0000  0.0000  0.0000  0.0000
  24.     0.0000  0.0000  0.0000  0.0000  0.0000  0.0000  0.0000  0.0000  0.0000
  25.     0.0000  0.0000  0.0000  0.0000  0.0000  0.0000  0.0000  0.0000  0.0000
  26.     0.0000  0.0000  0.0000  0.0000  0.0000  0.0000  0.0000  0.0000  0.0000
  27.     0.0000  0.0000  0.0000  0.0000  0.0000  0.0000  0.0000  0.0000  0.0000
  28.     0.0000  0.0000  0.0000  0.0000  0.0000  0.0000  0.0000  0.0000  0.0000
  29.     0.0000  0.0000  0.0000  0.0000  0.0000  0.0000  0.0000  0.0000  0.0000
  30.     0.0000  0.0000  0.0000  0.0000  0.0000  0.0000  0.0000  0.0000  0.0000

      MO    19      20      21      22      23      24      25      26      27
     ---- ------  ------  ------  ------  ------  ------  ------  ------  ------
   1.     0.0000  0.0000  0.0000  0.0000  0.0000  0.0000  0.0000  0.0000  0.0000
   2.     0.0000  0.0000  0.0000  0.0000  0.0000  0.0000  0.0000  0.0000  0.0000
   3.     0.0000  0.0000  0.0000  0.0000  0.0000  0.0000  0.0000  0.0000  0.0000
   4.     0.0000  0.0000  0.0000  0.0000  0.0000  0.0000  0.0000  0.0000  0.0000
   5.     0.0000  0.0000  0.0000  0.0000  0.0000  0.0000  0.0000  0.0000  0.0000
   6.     0.0000  0.0000  0.0000  0.0000  0.0000  0.0000  0.0000  0.0000  0.0000
   7.     0.0000  0.0000  0.0000  0.0000  0.0000  0.0000  0.0000  0.0000  0.0000
   8.     0.0000  0.0000  0.0000  0.0000  0.0000  0.0000  0.0000  0.0000  0.0000
   9.     0.0000  0.0000  0.0000  0.0000  0.0000  0.0000  0.0000  0.0000  0.0000
  10.     0.0000  0.0000  0.0000  0.0000  0.0000  0.0000  0.0000  0.0000  0.0000
  11.     0.0000  0.0000  0.0000  0.0000  0.0000  0.0000  0.0000  0.0000  0.0000
  12.     0.0000  0.0000  0.0000  0.0000  0.0000  0.0000  0.0000  0.0000  0.0000
  13.     0.0000  0.0000  0.0000  0.0000  0.0000  0.0000  0.0000  0.0000  0.0000
  14.     0.0000  0.0000  0.0000  0.0000  0.0000  0.0000  0.0000  0.0000  0.0000
  15.     0.0000  0.0000  0.0000  0.0000  0.0000  0.0000  0.0000  0.0000  0.0000
  16.     0.0000  0.0000  0.0000  0.0000  0.0000  0.0000  0.0000  0.0000  0.0000
  17.     0.0000  0.0000  0.0000  0.0000  0.0000  0.0000  0.0000  0.0000  0.0000
  18.     0.0000  0.0000  0.0000  0.0000  0.0000  0.0000  0.0000  0.0000  0.0000
  19.     2.0000  0.0000  0.0000  0.0000  0.0000  0.0000  0.0000  0.0000  0.0000
  20.     0.0000  2.0000  0.0000  0.0000  0.0000  0.0000  0.0000  0.0000  0.0000
  21.     0.0000  0.0000  2.0000  0.0000  0.0000  0.0000  0.0000  0.0000  0.0000
  22.     0.0000  0.0000  0.0000  2.0000  0.0000  0.0000  0.0000  0.0000  0.0000
  23.     0.0000  0.0000  0.0000  0.0000  2.0000  0.0000  0.0000  0.0000  0.0000
  24.     0.0000  0.0000  0.0000  0.0000  0.0000  0.0000  0.0000  0.0000  0.0000
  25.     0.0000  0.0000  0.0000  0.0000  0.0000  0.0000  0.0000  0.0000  0.0000
  26.     0.0000  0.0000  0.0000  0.0000  0.0000  0.0000  0.0000  0.0000  0.0000
  27.     0.0000  0.0000  0.0000  0.0000  0.0000  0.0000  0.0000  0.0000  0.0000
  28.     0.0000  0.0000  0.0000  0.0000  0.0000  0.0000  0.0000  0.0000  0.0000
  29.     0.0000  0.0000  0.0000  0.0000  0.0000  0.0000  0.0000  0.0000  0.0000
  30.     0.0000  0.0000  0.0000  0.0000  0.0000  0.0000  0.0000  0.0000  0.0000

      MO    28      29      30
     ---- ------  ------  ------
   1.     0.0000  0.0000  0.0000
   2.     0.0000  0.0000  0.0000
   3.     0.0000  0.0000  0.0000
   4.     0.0000  0.0000  0.0000
   5.     0.0000  0.0000  0.0000
   6.     0.0000  0.0000  0.0000
   7.     0.0000  0.0000  0.0000
   8.     0.0000  0.0000  0.0000
   9.     0.0000  0.0000  0.0000
  10.     0.0000  0.0000  0.0000
  11.     0.0000  0.0000  0.0000
  12.     0.0000  0.0000  0.0000
  13.     0.0000  0.0000  0.0000
  14.     0.0000  0.0000  0.0000
  15.     0.0000  0.0000  0.0000
  16.     0.0000  0.0000  0.0000
  17.     0.0000  0.0000  0.0000
  18.     0.0000  0.0000  0.0000
  19.     0.0000  0.0000  0.0000
  20.     0.0000  0.0000  0.0000
  21.     0.0000  0.0000  0.0000
  22.     0.0000  0.0000  0.0000
  23.     0.0000  0.0000  0.0000
  24.     0.0000  0.0000  0.0000
  25.     0.0000  0.0000  0.0000
  26.     0.0000  0.0000  0.0000
  27.     0.0000  0.0000  0.0000
  28.     0.0000  0.0000  0.0000
  29.     0.0000  0.0000  0.0000
  30.     0.0000  0.0000  0.0000


 NATURAL POPULATIONS:  Natural atomic orbital occupancies

  NAO Atom No lang   Type(AO)    Occupancy      Energy
 -------------------------------------------------------
   1    C  1  s      Cor( 1s)     1.99999     -11.35194
   2    C  1  s      Val( 2s)     1.02812      -0.33393
   3    C  1  px     Val( 2p)     0.75471       0.00396
   4    C  1  py     Val( 2p)     0.75471       0.00396
   5    C  1  pz     Val( 2p)     0.86218      -0.02121

   6    C  2  s      Cor( 1s)     2.00000     -11.09661
   7    C  2  s      Val( 2s)     1.10915      -0.27912
   8    C  2  px     Val( 2p)     0.98045      -0.05139
   9    C  2  py     Val( 2p)     0.98045      -0.05139
  10    C  2  pz     Val( 2p)     0.93739       0.22492

  11    F  3  s      Cor( 1s)     2.00000     -25.85101
  12    F  3  s      Val( 2s)     1.90821      -1.54993
  13    F  3  px     Val( 2p)     1.95066      -0.53219
  14    F  3  py     Val( 2p)     1.42330      -0.30451
  15    F  3  pz     Val( 2p)     1.88171      -0.50319

  16    F  4  s      Cor( 1s)     2.00000     -25.85101
  17    F  4  s      Val( 2s)     1.90821      -1.54993
  18    F  4  px     Val( 2p)     1.55514      -0.36143
  19    F  4  py     Val( 2p)     1.81882      -0.47527
  20    F  4  pz     Val( 2p)     1.88171      -0.50319

  21    F  5  s      Cor( 1s)     2.00000     -25.85101
  22    F  5  s      Val( 2s)     1.90821      -1.54993
  23    F  5  px     Val( 2p)     1.55514      -0.36143
  24    F  5  py     Val( 2p)     1.81882      -0.47527
  25    F  5  pz     Val( 2p)     1.88171      -0.50319

  26    N  6  s      Cor( 1s)     2.00000     -15.33734
  27    N  6  s      Val( 2s)     1.72709      -0.72598
  28    N  6  px     Val( 2p)     1.01808      -0.07695
  29    N  6  py     Val( 2p)     1.01808      -0.07695
  30    N  6  pz     Val( 2p)     1.33796      -0.05926


 Summary of Natural Population Analysis:

                                     Natural Population
             Natural    ---------------------------------------------
  Atom No    Charge        Core      Valence    Rydberg      Total
 --------------------------------------------------------------------
    C  1    0.60030      1.99999     3.39971    0.00000     5.39970
    C  2   -0.00744      2.00000     4.00744    0.00000     6.00744
    F  3   -0.16389      2.00000     7.16389    0.00000     9.16389
    F  4   -0.16389      2.00000     7.16389    0.00000     9.16389
    F  5   -0.16389      2.00000     7.16389    0.00000     9.16389
    N  6   -0.10120      2.00000     5.10121    0.00000     7.10120
 ====================================================================
 * Total *  0.00000     11.99998    34.00002    0.00000    46.00000

                                 Natural Population
 ---------------------------------------------------------
   Core                      11.99998 ( 99.9999% of   12)
   Valence                   34.00002 (100.0001% of   34)
   Natural Minimal Basis     46.00000 (100.0000% of   46)
   Natural Rydberg Basis      0.00000 (  0.0000% of   46)
 ---------------------------------------------------------

    Atom No         Natural Electron Configuration
 ----------------------------------------------------------------------------
      C  1      [core]2s( 1.03)2p( 2.37)
      C  2      [core]2s( 1.11)2p( 2.90)
      F  3      [core]2s( 1.91)2p( 5.26)
      F  4      [core]2s( 1.91)2p( 5.26)
      F  5      [core]2s( 1.91)2p( 5.26)
      N  6      [core]2s( 1.73)2p( 3.37)


 PNAOs in the AO basis:

           AO          1       2       3       4       5       6       7       8
      ------------ ------- ------- ------- ------- ------- ------- ------- -------
   1.  C 1 (s)      0.9894 -0.2948  0.0000  0.0000  0.0000  0.0000  0.0000  0.0000
   2.  C 1 (s)      0.0398  1.0316  0.0000  0.0000  0.0000  0.0000  0.0000  0.0000
   3.  C 1 (px)     0.0000  0.0000  1.0000  0.0000  0.0000  0.0000  0.0000  0.0000
   4.  C 1 (py)     0.0000  0.0000  0.0000  1.0000  0.0000  0.0000  0.0000  0.0000
   5.  C 1 (pz)     0.0000  0.0000  0.0000  0.0000  1.0000  0.0000  0.0000  0.0000
   6.  C 2 (s)      0.0000  0.0000  0.0000  0.0000  0.0000  0.9897 -0.2937  0.0000
   7.  C 2 (s)      0.0000  0.0000  0.0000  0.0000  0.0000  0.0387  1.0316  0.0000
   8.  C 2 (px)     0.0000  0.0000  0.0000  0.0000  0.0000  0.0000  0.0000  1.0000
   9.  C 2 (py)     0.0000  0.0000  0.0000  0.0000  0.0000  0.0000  0.0000  0.0000
  10.  C 2 (pz)     0.0000  0.0000  0.0000  0.0000  0.0000  0.0000  0.0000  0.0000
  11.  F 3 (s)      0.0000  0.0000  0.0000  0.0000  0.0000  0.0000  0.0000  0.0000
  12.  F 3 (s)      0.0000  0.0000  0.0000  0.0000  0.0000  0.0000  0.0000  0.0000
  13.  F 3 (px)     0.0000  0.0000  0.0000  0.0000  0.0000  0.0000  0.0000  0.0000
  14.  F 3 (py)     0.0000  0.0000  0.0000  0.0000  0.0000  0.0000  0.0000  0.0000
  15.  F 3 (pz)     0.0000  0.0000  0.0000  0.0000  0.0000  0.0000  0.0000  0.0000
  16.  F 4 (s)      0.0000  0.0000  0.0000  0.0000  0.0000  0.0000  0.0000  0.0000
  17.  F 4 (s)      0.0000  0.0000  0.0000  0.0000  0.0000  0.0000  0.0000  0.0000
  18.  F 4 (px)     0.0000  0.0000  0.0000  0.0000  0.0000  0.0000  0.0000  0.0000
  19.  F 4 (py)     0.0000  0.0000  0.0000  0.0000  0.0000  0.0000  0.0000  0.0000
  20.  F 4 (pz)     0.0000  0.0000  0.0000  0.0000  0.0000  0.0000  0.0000  0.0000
  21.  F 5 (s)      0.0000  0.0000  0.0000  0.0000  0.0000  0.0000  0.0000  0.0000
  22.  F 5 (s)      0.0000  0.0000  0.0000  0.0000  0.0000  0.0000  0.0000  0.0000
  23.  F 5 (px)     0.0000  0.0000  0.0000  0.0000  0.0000  0.0000  0.0000  0.0000
  24.  F 5 (py)     0.0000  0.0000  0.0000  0.0000  0.0000  0.0000  0.0000  0.0000
  25.  F 5 (pz)     0.0000  0.0000  0.0000  0.0000  0.0000  0.0000  0.0000  0.0000
  26.  N 6 (s)      0.0000  0.0000  0.0000  0.0000  0.0000  0.0000  0.0000  0.0000
  27.  N 6 (s)      0.0000  0.0000  0.0000  0.0000  0.0000  0.0000  0.0000  0.0000
  28.  N 6 (px)     0.0000  0.0000  0.0000  0.0000  0.0000  0.0000  0.0000  0.0000
  29.  N 6 (py)     0.0000  0.0000  0.0000  0.0000  0.0000  0.0000  0.0000  0.0000
  30.  N 6 (pz)     0.0000  0.0000  0.0000  0.0000  0.0000  0.0000  0.0000  0.0000

           AO          9      10      11      12      13      14      15      16
      ------------ ------- ------- ------- ------- ------- ------- ------- -------
   1.  C 1 (s)      0.0000  0.0000  0.0000  0.0000  0.0000  0.0000  0.0000  0.0000
   2.  C 1 (s)      0.0000  0.0000  0.0000  0.0000  0.0000  0.0000  0.0000  0.0000
   3.  C 1 (px)     0.0000  0.0000  0.0000  0.0000  0.0000  0.0000  0.0000  0.0000
   4.  C 1 (py)     0.0000  0.0000  0.0000  0.0000  0.0000  0.0000  0.0000  0.0000
   5.  C 1 (pz)     0.0000  0.0000  0.0000  0.0000  0.0000  0.0000  0.0000  0.0000
   6.  C 2 (s)      0.0000  0.0000  0.0000  0.0000  0.0000  0.0000  0.0000  0.0000
   7.  C 2 (s)      0.0000  0.0000  0.0000  0.0000  0.0000  0.0000  0.0000  0.0000
   8.  C 2 (px)     0.0000  0.0000  0.0000  0.0000  0.0000  0.0000  0.0000  0.0000
   9.  C 2 (py)     1.0000  0.0000  0.0000  0.0000  0.0000  0.0000  0.0000  0.0000
  10.  C 2 (pz)     0.0000  1.0000  0.0000  0.0000  0.0000  0.0000  0.0000  0.0000
  11.  F 3 (s)      0.0000  0.0000  0.9698 -0.3458  0.0000  0.0000  0.0000  0.0000
  12.  F 3 (s)      0.0000  0.0000  0.1050  1.0242  0.0000  0.0000  0.0000  0.0000
  13.  F 3 (px)     0.0000  0.0000  0.0000  0.0000  1.0000  0.0000  0.0000  0.0000
  14.  F 3 (py)     0.0000  0.0000  0.0000  0.0000  0.0000  1.0000  0.0000  0.0000
  15.  F 3 (pz)     0.0000  0.0000  0.0000  0.0000  0.0000  0.0000  1.0000  0.0000
  16.  F 4 (s)      0.0000  0.0000  0.0000  0.0000  0.0000  0.0000  0.0000  0.9698
  17.  F 4 (s)      0.0000  0.0000  0.0000  0.0000  0.0000  0.0000  0.0000  0.1050
  18.  F 4 (px)     0.0000  0.0000  0.0000  0.0000  0.0000  0.0000  0.0000  0.0000
  19.  F 4 (py)     0.0000  0.0000  0.0000  0.0000  0.0000  0.0000  0.0000  0.0000
  20.  F 4 (pz)     0.0000  0.0000  0.0000  0.0000  0.0000  0.0000  0.0000  0.0000
  21.  F 5 (s)      0.0000  0.0000  0.0000  0.0000  0.0000  0.0000  0.0000  0.0000
  22.  F 5 (s)      0.0000  0.0000  0.0000  0.0000  0.0000  0.0000  0.0000  0.0000
  23.  F 5 (px)     0.0000  0.0000  0.0000  0.0000  0.0000  0.0000  0.0000  0.0000
  24.  F 5 (py)     0.0000  0.0000  0.0000  0.0000  0.0000  0.0000  0.0000  0.0000
  25.  F 5 (pz)     0.0000  0.0000  0.0000  0.0000  0.0000  0.0000  0.0000  0.0000
  26.  N 6 (s)      0.0000  0.0000  0.0000  0.0000  0.0000  0.0000  0.0000  0.0000
  27.  N 6 (s)      0.0000  0.0000  0.0000  0.0000  0.0000  0.0000  0.0000  0.0000
  28.  N 6 (px)     0.0000  0.0000  0.0000  0.0000  0.0000  0.0000  0.0000  0.0000
  29.  N 6 (py)     0.0000  0.0000  0.0000  0.0000  0.0000  0.0000  0.0000  0.0000
  30.  N 6 (pz)     0.0000  0.0000  0.0000  0.0000  0.0000  0.0000  0.0000  0.0000

           AO         17      18      19      20      21      22      23      24
      ------------ ------- ------- ------- ------- ------- ------- ------- -------
   1.  C 1 (s)      0.0000  0.0000  0.0000  0.0000  0.0000  0.0000  0.0000  0.0000
   2.  C 1 (s)      0.0000  0.0000  0.0000  0.0000  0.0000  0.0000  0.0000  0.0000
   3.  C 1 (px)     0.0000  0.0000  0.0000  0.0000  0.0000  0.0000  0.0000  0.0000
   4.  C 1 (py)     0.0000  0.0000  0.0000  0.0000  0.0000  0.0000  0.0000  0.0000
   5.  C 1 (pz)     0.0000  0.0000  0.0000  0.0000  0.0000  0.0000  0.0000  0.0000
   6.  C 2 (s)      0.0000  0.0000  0.0000  0.0000  0.0000  0.0000  0.0000  0.0000
   7.  C 2 (s)      0.0000  0.0000  0.0000  0.0000  0.0000  0.0000  0.0000  0.0000
   8.  C 2 (px)     0.0000  0.0000  0.0000  0.0000  0.0000  0.0000  0.0000  0.0000
   9.  C 2 (py)     0.0000  0.0000  0.0000  0.0000  0.0000  0.0000  0.0000  0.0000
  10.  C 2 (pz)     0.0000  0.0000  0.0000  0.0000  0.0000  0.0000  0.0000  0.0000
  11.  F 3 (s)      0.0000  0.0000  0.0000  0.0000  0.0000  0.0000  0.0000  0.0000
  12.  F 3 (s)      0.0000  0.0000  0.0000  0.0000  0.0000  0.0000  0.0000  0.0000
  13.  F 3 (px)     0.0000  0.0000  0.0000  0.0000  0.0000  0.0000  0.0000  0.0000
  14.  F 3 (py)     0.0000  0.0000  0.0000  0.0000  0.0000  0.0000  0.0000  0.0000
  15.  F 3 (pz)     0.0000  0.0000  0.0000  0.0000  0.0000  0.0000  0.0000  0.0000
  16.  F 4 (s)     -0.3458  0.0000  0.0000  0.0000  0.0000  0.0000  0.0000  0.0000
  17.  F 4 (s)      1.0242  0.0000  0.0000  0.0000  0.0000  0.0000  0.0000  0.0000
  18.  F 4 (px)     0.0000  1.0000  0.0000  0.0000  0.0000  0.0000  0.0000  0.0000
  19.  F 4 (py)     0.0000  0.0000  1.0000  0.0000  0.0000  0.0000  0.0000  0.0000
  20.  F 4 (pz)     0.0000  0.0000  0.0000  1.0000  0.0000  0.0000  0.0000  0.0000
  21.  F 5 (s)      0.0000  0.0000  0.0000  0.0000  0.9698 -0.3458  0.0000  0.0000
  22.  F 5 (s)      0.0000  0.0000  0.0000  0.0000  0.1050  1.0242  0.0000  0.0000
  23.  F 5 (px)     0.0000  0.0000  0.0000  0.0000  0.0000  0.0000  1.0000  0.0000
  24.  F 5 (py)     0.0000  0.0000  0.0000  0.0000  0.0000  0.0000  0.0000  1.0000
  25.  F 5 (pz)     0.0000  0.0000  0.0000  0.0000  0.0000  0.0000  0.0000  0.0000
  26.  N 6 (s)      0.0000  0.0000  0.0000  0.0000  0.0000  0.0000  0.0000  0.0000
[...]
            0.0000 0.7313
           NBO accepted:   25. Label:BD ( 1)   2   6
      Occupancy is 0.007 for antibonding component
            0.0000 0.0000 0.0000 0.7313 0.0000 0.0000 0.0000 0.0000
            0.0000-0.6821
           NBO accepted:   26. Label:BD*( 1)   2   6
      Eigenvector ( 2) has occupancy 1.98603
            0.0000 0.7003 0.0000 0.0000 0.0000 0.0000 0.0000 0.7138
            0.0000 0.0000
      Occupancy is 1.986 after deleting minor hybrid components
            0.0000 0.7003 0.0000 0.0000 0.0000 0.0000 0.0000 0.7138
            0.0000 0.0000
           NBO accepted:   27. Label:BD ( 2)   2   6
      Occupancy is 0.012 for antibonding component
            0.0000 0.7138 0.0000 0.0000 0.0000 0.0000 0.0000-0.7003
            0.0000 0.0000
           NBO accepted:   28. Label:BD*( 2)   2   6
      Eigenvector ( 3) has occupancy 1.98603
            0.0000 0.0000 0.7003 0.0000 0.0000 0.0000 0.0000 0.0000
            0.7138 0.0000
      Occupancy is 1.986 after deleting minor hybrid components
            0.0000 0.0000 0.7003 0.0000 0.0000 0.0000 0.0000 0.0000
            0.7138 0.0000
           NBO accepted:   29. Label:BD ( 3)   2   6
      Occupancy is 0.012 for antibonding component
            0.0000 0.0000 0.7138 0.0000 0.0000 0.0000 0.0000 0.0000
           -0.7003 0.0000
           NBO accepted:   30. Label:BD*( 3)   2   6
        6 eigenvector(s) stashed in permanent list

  2-center NBOs projected from the NHO density matrix
       0.000 electrons remain in the fully projected matrix

                            Occupancies       Lewis Structure    Low   High
         Max    Occ     -------------------  -----------------   occ   occ
  Cycle  Ctr   Thresh    Lewis   non-Lewis     CR  BD  nC  LP    (L)   (NL)
 ============================================================================
    1     2     1.90    45.63583   0.36417      6   7   0  10     0      0
 ----------------------------------------------------------------------------

 Structure accepted: No low occupancy Lewis orbitals

 -------------------------------------------------------
   Core                     11.99998 (100.000% of  12)
   Valence Lewis            33.63585 ( 98.929% of  34)
  ==================      =============================
   Total Lewis              45.63583 ( 99.208% of  46)
  -----------------------------------------------------
   Valence non-Lewis         0.36417 (  0.792% of  46)
   Rydberg non-Lewis         0.00000 (  0.000% of  46)
  ==================      =============================
   Total non-Lewis           0.36417 (  0.792% of  46)
 -------------------------------------------------------


     (Occupancy)   Bond orbital / Coefficients / Hybrids
 ------------------ Lewis ------------------------------------------------------
   1. (1.99999) CR ( 1) C  1            s(100.00%)
                                         1.0000  0.0000  0.0000  0.0000  0.0000
   2. (2.00000) CR ( 1) C  2            s(100.00%)
                                         1.0000  0.0000  0.0000  0.0000  0.0000
   3. (2.00000) CR ( 1) F  3            s(100.00%)
                                         1.0000  0.0000  0.0000  0.0000  0.0000
   4. (2.00000) CR ( 1) F  4            s(100.00%)
                                         1.0000  0.0000  0.0000  0.0000  0.0000
   5. (2.00000) CR ( 1) F  5            s(100.00%)
                                         1.0000  0.0000  0.0000  0.0000  0.0000
   6. (2.00000) CR ( 1) N  6            s(100.00%)
                                         1.0000  0.0000  0.0000  0.0000  0.0000
   7. (1.99964) LP ( 1) F  3            s( 87.27%)p 0.15( 12.73%)
                                         0.0000  0.9342  0.0000  0.3525 -0.0550
   8. (1.95793) LP ( 2) F  3            s(  0.46%)p99.99( 99.54%)
                                         0.0000  0.0680  0.0000 -0.3273 -0.9425
   9. (1.95066) LP ( 3) F  3            s(  0.00%)p 1.00(100.00%)
                                         0.0000  0.0000  1.0000  0.0000  0.0000
  10. (1.99964) LP ( 1) F  4            s( 87.27%)p 0.15( 12.73%)
                                         0.0000  0.9342  0.3052 -0.1762 -0.0550
  11. (1.95793) LP ( 2) F  4            s(  0.46%)p99.99( 99.54%)
                                         0.0000  0.0680 -0.2834  0.1636 -0.9425
  12. (1.95066) LP ( 3) F  4            s(  0.00%)p 1.00(100.00%)
                                         0.0000  0.0000  0.5000  0.8660  0.0000
  13. (1.99964) LP ( 1) F  5            s( 87.27%)p 0.15( 12.73%)
                                         0.0000  0.9342 -0.3052 -0.1762 -0.0550
  14. (1.95793) LP ( 2) F  5            s(  0.46%)p99.99( 99.54%)
                                         0.0000  0.0680  0.2834  0.1636 -0.9425
  15. (1.95066) LP ( 3) F  5            s(  0.00%)p 1.00(100.00%)
                                         0.0000  0.0000 -0.5000  0.8660  0.0000
  16. (1.99416) LP ( 1) N  6            s( 71.07%)p 0.41( 28.93%)
                                         0.0000  0.8430  0.0000  0.0000  0.5378
  17. (1.98874) BD ( 1) C  1- C  2
               ( 45.78%)   0.6766* C  1 s( 28.53%)p 2.51( 71.47%)
                                         0.0000  0.5341  0.0000  0.0000  0.8454
               ( 54.22%)   0.7363* C  2 s( 48.81%)p 1.05( 51.19%)
                                         0.0000  0.6986  0.0000  0.0000 -0.7155
  18. (1.98649) BD ( 1) C  1- F  3
               ( 38.43%)   0.6199* C  1 s( 23.82%)p 3.20( 76.18%)
                                         0.0000  0.4881  0.0000  0.8165 -0.3084
               ( 61.57%)   0.7847* F  3 s( 12.26%)p 7.15( 87.74%)
                                         0.0000  0.3502  0.0000 -0.8767  0.3297
  19. (1.98649) BD ( 1) C  1- F  4
               ( 38.43%)   0.6199* C  1 s( 23.82%)p 3.20( 76.18%)
                                         0.0000  0.4881  0.7071 -0.4082 -0.3084
               ( 61.57%)   0.7847* F  4 s( 12.26%)p 7.15( 87.74%)
                                         0.0000  0.3502 -0.7593  0.4384  0.3297
  20. (1.98649) BD ( 1) C  1- F  5
               ( 38.43%)   0.6199* C  1 s( 23.82%)p 3.20( 76.18%)
                                         0.0000  0.4881 -0.7071 -0.4082 -0.3084
               ( 61.57%)   0.7847* F  5 s( 12.26%)p 7.15( 87.74%)
                                         0.0000  0.3502  0.7593  0.4384  0.3297
  21. (1.99671) BD ( 1) C  2- N  6
               ( 46.52%)   0.6821* C  2 s( 51.19%)p 0.95( 48.81%)
                                         0.0000  0.7155  0.0000  0.0000  0.6986
               ( 53.48%)   0.7313* N  6 s( 28.93%)p 2.46( 71.07%)
                                         0.0000  0.5378  0.0000  0.0000 -0.8430
  22. (1.98603) BD ( 2) C  2- N  6
               ( 49.05%)   0.7003* C  2 s(  0.00%)p 1.00(100.00%)
                                         0.0000  0.0000  1.0000  0.0000  0.0000
               ( 50.95%)   0.7138* N  6 s(  0.00%)p 1.00(100.00%)
                                         0.0000  0.0000  1.0000  0.0000  0.0000
  23. (1.98603) BD ( 3) C  2- N  6
               ( 49.05%)   0.7003* C  2 s(  0.00%)p 1.00(100.00%)
                                         0.0000  0.0000  0.0000  1.0000  0.0000
               ( 50.95%)   0.7138* N  6 s(  0.00%)p 1.00(100.00%)
                                         0.0000  0.0000  0.0000  1.0000  0.0000
 ---------------- non-Lewis ----------------------------------------------------
  24. (0.07803) BD*( 1) C  1- C  2
               ( 54.22%)   0.7363* C  1 s( 28.53%)p 2.51( 71.47%)
                                         0.0000 -0.5341  0.0000  0.0000 -0.8454
               ( 45.78%)  -0.6766* C  2 s( 48.81%)p 1.05( 51.19%)
                                         0.0000 -0.6986  0.0000  0.0000  0.7155
  25. (0.08480) BD*( 1) C  1- F  3
               ( 61.57%)   0.7847* C  1 s( 23.82%)p 3.20( 76.18%)
                                         0.0000  0.4881  0.0000  0.8165 -0.3084
               ( 38.43%)  -0.6199* F  3 s( 12.26%)p 7.15( 87.74%)
                                         0.0000  0.3502  0.0000 -0.8767  0.3297
  26. (0.08480) BD*( 1) C  1- F  4
               ( 61.57%)   0.7847* C  1 s( 23.82%)p 3.20( 76.18%)
                                         0.0000  0.4881  0.7071 -0.4082 -0.3084
               ( 38.43%)  -0.6199* F  4 s( 12.26%)p 7.15( 87.74%)
                                         0.0000  0.3502 -0.7593  0.4384  0.3297
  27. (0.08480) BD*( 1) C  1- F  5
               ( 61.57%)   0.7847* C  1 s( 23.82%)p 3.20( 76.18%)
                                         0.0000  0.4881 -0.7071 -0.4082 -0.3084
               ( 38.43%)  -0.6199* F  5 s( 12.26%)p 7.15( 87.74%)
                                         0.0000  0.3502  0.7593  0.4384  0.3297
  28. (0.00675) BD*( 1) C  2- N  6
               ( 53.48%)   0.7313* C  2 s( 51.19%)p 0.95( 48.81%)
                                         0.0000  0.7155  0.0000  0.0000  0.6986
               ( 46.52%)  -0.6821* N  6 s( 28.93%)p 2.46( 71.07%)
                                         0.0000  0.5378  0.0000  0.0000 -0.8430
  29. (0.01250) BD*( 2) C  2- N  6
               ( 50.95%)   0.7138* C  2 s(  0.00%)p 1.00(100.00%)
                                         0.0000  0.0000  1.0000  0.0000  0.0000
               ( 49.05%)  -0.7003* N  6 s(  0.00%)p 1.00(100.00%)
                                         0.0000  0.0000  1.0000  0.0000  0.0000
  30. (0.01250) BD*( 3) C  2- N  6
               ( 50.95%)   0.7138* C  2 s(  0.00%)p 1.00(100.00%)
                                         0.0000  0.0000  0.0000  1.0000  0.0000
               ( 49.05%)  -0.7003* N  6 s(  0.00%)p 1.00(100.00%)
                                         0.0000  0.0000  0.0000  1.0000  0.0000


 NHO DIRECTIONALITY AND BOND BENDING (deviation from line of nuclear centers at
                                      the position of maximum hybrid amplitude)

         [Thresholds for printing:  angular deviation  >  1.0 degree]
                                    p- or d-character  > 25.0%
                                    orbital occupancy  >  0.10e

                        Line of Centers        Hybrid 1             Hybrid 2
                        ---------------  -------------------  ------------------
           NBO            Theta   Phi    Theta   Phi    Dev   Theta   Phi    Dev
 ===============================================================================
   8. LP ( 2) F  3          --     --    160.7  270.0   --      --     --    --
   9. LP ( 3) F  3          --     --     90.0    0.0   --      --     --    --
  11. LP ( 2) F  4          --     --    160.7  150.0   --      --     --    --
  12. LP ( 3) F  4          --     --     90.0  240.0   --      --     --    --
  14. LP ( 2) F  5          --     --    160.7   30.0   --      --     --    --
  15. LP ( 3) F  5          --     --     90.0  300.0   --      --     --    --
  16. LP ( 1) N  6          --     --      0.0    0.0   --      --     --    --
  22. BD ( 2) C  2- N  6    0.0    0.0    90.2  180.0  90.2    89.7    0.0  90.3
  23. BD ( 3) C  2- N  6    0.0    0.0    90.2  270.0  90.2    89.7   90.0  90.3


 SECOND ORDER PERTURBATION THEORY ANALYSIS OF FOCK MATRIX IN NBO BASIS

     Threshold for printing:   0.50 kcal/mol
                                                          E(2) E(NL)-E(L) F(L,NL)
      Donor (L) NBO              Acceptor (NL) NBO      kcal/mol   a.u.    a.u.
 ===============================================================================

 within unit  1
    8. LP ( 2) F  3            24. BD*( 1) C  1- C  2     13.78    1.14   0.112
    8. LP ( 2) F  3            26. BD*( 1) C  1- F  4      6.59    1.07   0.075
    8. LP ( 2) F  3            27. BD*( 1) C  1- F  5      6.59    1.07   0.075
    8. LP ( 2) F  3            30. BD*( 3) C  2- N  6      1.09    0.86   0.027
    9. LP ( 3) F  3            26. BD*( 1) C  1- F  4     17.44    1.06   0.122
    9. LP ( 3) F  3            27. BD*( 1) C  1- F  5     17.44    1.06   0.122
   11. LP ( 2) F  4            24. BD*( 1) C  1- C  2     13.78    1.14   0.112
   11. LP ( 2) F  4            25. BD*( 1) C  1- F  3      6.59    1.07   0.075
   11. LP ( 2) F  4            27. BD*( 1) C  1- F  5      6.59    1.07   0.075
   11. LP ( 2) F  4            29. BD*( 2) C  2- N  6      0.82    0.86   0.024
   12. LP ( 3) F  4            25. BD*( 1) C  1- F  3     17.44    1.06   0.122
   12. LP ( 3) F  4            27. BD*( 1) C  1- F  5     17.44    1.06   0.122
   14. LP ( 2) F  5            24. BD*( 1) C  1- C  2     13.78    1.14   0.112
   14. LP ( 2) F  5            25. BD*( 1) C  1- F  3      6.59    1.07   0.075
   14. LP ( 2) F  5            26. BD*( 1) C  1- F  4      6.59    1.07   0.075
   14. LP ( 2) F  5            29. BD*( 2) C  2- N  6      0.82    0.86   0.024
   15. LP ( 3) F  5            25. BD*( 1) C  1- F  3     17.44    1.06   0.122
   15. LP ( 3) F  5            26. BD*( 1) C  1- F  4     17.44    1.06   0.122
   16. LP ( 1) N  6            24. BD*( 1) C  1- C  2      3.55    1.32   0.061
   17. BD ( 1) C  1- C  2      24. BD*( 1) C  1- C  2      1.36    1.46   0.040
   17. BD ( 1) C  1- C  2      25. BD*( 1) C  1- F  3      2.41    1.39   0.052
   17. BD ( 1) C  1- C  2      26. BD*( 1) C  1- F  4      2.41    1.39   0.052
   17. BD ( 1) C  1- C  2      27. BD*( 1) C  1- F  5      2.41    1.39   0.052
   17. BD ( 1) C  1- C  2      28. BD*( 1) C  2- N  6      3.65    1.95   0.075
   18. BD ( 1) C  1- F  3      24. BD*( 1) C  1- C  2      1.96    1.59   0.050
   18. BD ( 1) C  1- F  3      25. BD*( 1) C  1- F  3      0.54    1.53   0.026
   18. BD ( 1) C  1- F  3      26. BD*( 1) C  1- F  4      3.43    1.53   0.065
   18. BD ( 1) C  1- F  3      27. BD*( 1) C  1- F  5      3.43    1.53   0.065
   18. BD ( 1) C  1- F  3      30. BD*( 3) C  2- N  6      3.52    1.32   0.061
   19. BD ( 1) C  1- F  4      24. BD*( 1) C  1- C  2      1.96    1.59   0.050
   19. BD ( 1) C  1- F  4      25. BD*( 1) C  1- F  3      3.43    1.53   0.065
   19. BD ( 1) C  1- F  4      26. BD*( 1) C  1- F  4      0.54    1.53   0.026
   19. BD ( 1) C  1- F  4      27. BD*( 1) C  1- F  5      3.43    1.53   0.065
   19. BD ( 1) C  1- F  4      29. BD*( 2) C  2- N  6      2.64    1.32   0.053
   19. BD ( 1) C  1- F  4      30. BD*( 3) C  2- N  6      0.88    1.32   0.030
   20. BD ( 1) C  1- F  5      24. BD*( 1) C  1- C  2      1.96    1.59   0.050
   20. BD ( 1) C  1- F  5      25. BD*( 1) C  1- F  3      3.43    1.53   0.065
   20. BD ( 1) C  1- F  5      26. BD*( 1) C  1- F  4      3.43    1.53   0.065
   20. BD ( 1) C  1- F  5      27. BD*( 1) C  1- F  5      0.54    1.53   0.026
   20. BD ( 1) C  1- F  5      29. BD*( 2) C  2- N  6      2.64    1.32   0.053
   20. BD ( 1) C  1- F  5      30. BD*( 3) C  2- N  6      0.88    1.32   0.030
   21. BD ( 1) C  2- N  6      24. BD*( 1) C  1- C  2      2.29    1.65   0.055
   22. BD ( 2) C  2- N  6      26. BD*( 1) C  1- F  4      4.67    0.98   0.060
   22. BD ( 2) C  2- N  6      27. BD*( 1) C  1- F  5      4.67    0.98   0.060
   23. BD ( 3) C  2- N  6      25. BD*( 1) C  1- F  3      6.23    0.98   0.070
   23. BD ( 3) C  2- N  6      26. BD*( 1) C  1- F  4      1.56    0.98   0.035
   23. BD ( 3) C  2- N  6      27. BD*( 1) C  1- F  5      1.56    0.98   0.035


 NATURAL BOND ORBITALS (Summary):

                                                     Principal Delocalizations
           NBO                 Occupancy    Energy   (geminal,vicinal,remote)
 ===============================================================================
 Molecular unit  1  (C2F3N)
 ------ Lewis --------------------------------------
    1. CR ( 1) C  1             1.99999   -11.35194
    2. CR ( 1) C  2             2.00000   -11.09661
    3. CR ( 1) F  3             2.00000   -25.85101
    4. CR ( 1) F  4             2.00000   -25.85101
    5. CR ( 1) F  5             2.00000   -25.85101
    6. CR ( 1) N  6             2.00000   -15.33734
    7. LP ( 1) F  3             1.99964    -1.43486
    8. LP ( 2) F  3             1.95793    -0.54008  24(v),26(v),27(v),30(r)
    9. LP ( 3) F  3             1.95066    -0.53219  26(v),27(v)
   10. LP ( 1) F  4             1.99964    -1.43486
   11. LP ( 2) F  4             1.95793    -0.54008  24(v),25(v),27(v),29(r)
   12. LP ( 3) F  4             1.95066    -0.53219  25(v),27(v)
   13. LP ( 1) F  5             1.99964    -1.43486
   14. LP ( 2) F  5             1.95793    -0.54008  24(v),25(v),26(v),29(r)
   15. LP ( 3) F  5             1.95066    -0.53219  25(v),26(v)
   16. LP ( 1) N  6             1.99416    -0.72300  24(v)
   17. BD ( 1) C  1- C  2       1.98874    -0.86180  28(g),25(g),26(g),27(g)
                                                     24(g)
   18. BD ( 1) C  1- F  3       1.98649    -0.99425  30(v),26(g),27(g),24(g)
                                                     25(g)
   19. BD ( 1) C  1- F  4       1.98649    -0.99425  25(g),27(g),29(v),24(g)
                                                     30(v),26(g)
   20. BD ( 1) C  1- F  5       1.98649    -0.99425  25(g),26(g),29(v),24(g)
                                                     30(v),27(g)
   21. BD ( 1) C  2- N  6       1.99671    -1.05257  24(g)
   22. BD ( 2) C  2- N  6       1.98603    -0.44965  26(v),27(v)
   23. BD ( 3) C  2- N  6       1.98603    -0.44965  25(v),26(v),27(v)
 ------ non-Lewis ----------------------------------
   24. BD*( 1) C  1- C  2       0.07803     0.59807
   25. BD*( 1) C  1- F  3       0.08480     0.53248
   26. BD*( 1) C  1- F  4       0.08480     0.53248
   27. BD*( 1) C  1- F  5       0.08480     0.53248
   28. BD*( 1) C  2- N  6       0.00675     1.08990
   29. BD*( 2) C  2- N  6       0.01250     0.32131
   30. BD*( 3) C  2- N  6       0.01250     0.32131
          -------------------------------
                 Total Lewis   45.63583  ( 99.2083%)
           Valence non-Lewis    0.36417  (  0.7917%)
           Rydberg non-Lewis    0.00000  (  0.0000%)
          -------------------------------
               Total unit  1   46.00000  (100.0000%)
              Charge unit  1    0.00000

 $CHOOSE
   LONE 3 3 4 3 5 3 6 1 END
   BOND S 1 2 S 1 3 S 1 4 S 1 5 T 2 6 END
 $END

 NBO analysis completed in 0.32 CPU seconds (0 wall seconds)
 Maximum scratch memory used by NBO was 229022 words (1.75 MB)
 Maximum scratch memory used by G16NBO was 9677 words (0.07 MB)

 Opening RunExU unformatted file "/cluster/work/users/beto93/mol75/Gau-1370985.EUF"
 Read unf file /cluster/work/users/beto93/mol75/Gau-1370985.EUF:
 Label Gaussian matrix elements                                         IVers= 2 NLab= 2 Version=ES64L-G16RevC.01
 Title mol75-NBO                                                       
 NAtoms=     6 NBasis=    30 NBsUse=    30 ICharg=     0 Multip=     1 NE=    46 Len12L=8 Len4L=8 IOpCl= 0 ICGU=111
 GAUSSIAN SCALARS                    NI= 1 NR= 1 NTot=       1 LenBuf=    2 NRI=1 N=    1000
 NPA CHARGES                         NI= 0 NR= 1 NTot=       6 LenBuf= 4000 NRI=1 N=       6
 Recovered energy= -422.628442085     dipole=     -0.000000000000      0.000000588107     -0.527985556242
 Unable to Open any file for archive entry.
 1\1\GINC-C1-55\SP\RHF\STO-3G\C2F3N1\BETO93\18-Nov-2024\0\\#RHF/STO-3G 
 int=nobasistransform Symmetry=None 5D 7F Pop=NBO7Read\\mol75-NBO\\0,1\
 C,0,0.,0.,-0.32635\C,0,0.,0.,1.15083\F,0,0.,1.257579,-0.787225\F,0,1.0
 89096,-0.62879,-0.787225\F,0,-1.089096,-0.62879,-0.787225\N,0,0.,0.,2.
 329741\\Version=ES64L-G16RevC.01\HF=-422.6284421\RMSD=6.399e-09\Dipole
 =0.,0.0000006,-0.5279856\Quadrupole=1.4834952,1.4834959,-2.9669911,0.,
 0.,-0.0000006\PG=Unknown\\@
 The archive entry for this job was punched.


 SOME PEOPLE TRY TO PULL THE WOOL OVER YOUR EYES
 USING THE WRONG YARN.
 Job cpu time:       0 days  0 hours  0 minutes 10.5 seconds.
 Elapsed time:       0 days  0 hours  0 minutes  3.4 seconds.
 File lengths (MBytes):  RWF=     10 Int=      0 D2E=      0 Chk=      1 Scr=      1
 Normal termination of Gaussian 16 at Mon Nov 18 15:41:23 2024.
