 Entering Gaussian System, Link 0=g16
 Initial command:
 /cluster/software/Gaussian/g16_C.01/l1.exe "/cluster/work/users/beto93/mol04/Gau-1016234.inp" -scrdir="/cluster/work/users/beto93/mol04/"
 Entering Link 1 = /cluster/software/Gaussian/g16_C.01/l1.exe PID=   1016235.
  
 Copyright (c) 1988-2019, Gaussian, Inc.  All Rights Reserved.
  
 This is part of the Gaussian(R) 16 program.  It is based on
 the Gaussian(R) 09 system (copyright 2009, Gaussian, Inc.),
 the Gaussian(R) 03 system (copyright 2003, Gaussian, Inc.),
 the Gaussian(R) 98 system (copyright 1998, Gaussian, Inc.),
 the Gaussian(R) 94 system (copyright 1995, Gaussian, Inc.),
 the Gaussian 92(TM) system (copyright 1992, Gaussian, Inc.),
 the Gaussian 90(TM) system (copyright 1990, Gaussian, Inc.),
 the Gaussian 88(TM) system (copyright 1988, Gaussian, Inc.),
 the Gaussian 86(TM) system (copyright 1986, Carnegie Mellon
 University), and the Gaussian 82(TM) system (copyright 1983,
 Carnegie Mellon University). Gaussian is a federally registered
 trademark of Gaussian, Inc.
  
 This software contains proprietary and confidential information,
 including trade secrets, belonging to Gaussian, Inc.
  
 This software is provided under written license and may be
 used, copied, transmitted, or stored only in accord with that
 written license.
  
 The following legend is applicable only to US Government
 contracts under FAR:
  
                    RESTRICTED RIGHTS LEGEND
  
 Use, reproduction and disclosure by the US Government is
 subject to restrictions as set forth in subparagraphs (a)
 and (c) of the Commercial Computer Software - Restricted
 Rights clause in FAR 52.227-19.
  
 Gaussian, Inc.
 340 Quinnipiac St., Bldg. 40, Wallingford CT 06492
  
  
 ---------------------------------------------------------------
 Warning -- This program may not be used in any manner that
 competes with the business of Gaussian, Inc. or will provide
 assistance to any competitor of Gaussian, Inc.  The licensee
 of this program is prohibited from giving any competitor of
 Gaussian, Inc. access to this program.  By using this program,
 the user acknowledges that Gaussian, Inc. is engaged in the
 business of creating and licensing software in the field of
 computational chemistry and represents and warrants to the
 licensee that it is not a competitor of Gaussian, Inc. and that
 it will not use this program in any manner prohibited above.
 ---------------------------------------------------------------
  

 Cite this work as:
 Gaussian 16, Revision C.01,
 M. J. Frisch, G. W. Trucks, H. B. Schlegel, G. E. Scuseria, 
 M. A. Robb, J. R. Cheeseman, G. Scalmani, V. Barone, 
 G. A. Petersson, H. Nakatsuji, X. Li, M. Caricato, A. V. Marenich, 
 J. Bloino, B. G. Janesko, R. Gomperts, B. Mennucci, H. P. Hratchian, 
 J. V. Ortiz, A. F. Izmaylov, J. L. Sonnenberg, D. Williams-Young, 
 F. Ding, F. Lipparini, F. Egidi, J. Goings, B. Peng, A. Petrone, 
 T. Henderson, D. Ranasinghe, V. G. Zakrzewski, J. Gao, N. Rega, 
 G. Zheng, W. Liang, M. Hada, M. Ehara, K. Toyota, R. Fukuda, 
 J. Hasegawa, M. Ishida, T. Nakajima, Y. Honda, O. Kitao, H. Nakai, 
 T. Vreven, K. Throssell, J. A. Montgomery, Jr., J. E. Peralta, 
 F. Ogliaro, M. J. Bearpark, J. J. Heyd, E. N. Brothers, K. N. Kudin, 
 V. N. Staroverov, T. A. Keith, R. Kobayashi, J. Normand, 
 K. Raghavachari, A. P. Rendell, J. C. Burant, S. S. Iyengar, 
 J. Tomasi, M. Cossi, J. M. Millam, M. Klene, C. Adamo, R. Cammi, 
 J. W. Ochterski, R. L. Martin, K. Morokuma, O. Farkas, 
 J. B. Foresman, and D. J. Fox, Gaussian, Inc., Wallingford CT, 2019.
 
 ******************************************
 Gaussian 16:  ES64L-G16RevC.01  3-Jul-2019
                18-Nov-2024 
 ******************************************
 %LindaWorkers=c3-7-ib
 %NProcShared=4
 Will use up to    4 processors via shared memory.
 %mem=25GB
 %chk=mol04.chk
 SetLPE:    new flags="-opt 'Tsnet.Node.lindarsharg: ssh'  -nodelist 'c3-7-ib.saga' -env GAUSS_MDEF=3355443200 -env GAUSS_EXEDIR="/cluster/software/Gaussian/g16_C.01/bsd:/cluster/software/Gaussian/g16_C.01""
 Will use up to    1 processors via Linda.
 -----------------------------------------------------------------
 #RHF/STO-3G int=nobasistransform Symmetry=None 5D 7F Pop=NBO7Read
 -----------------------------------------------------------------
 1/38=1,163=2,172=1/1;
 2/12=2,15=3,17=6,18=5,40=1/2;
 3/6=3,8=11,11=1,25=1,30=1,60=-1,116=1/1,2,3;
 4//1;
 5/5=2,38=5/2;
 6/7=2,8=2,9=2,10=2,28=1,40=2,113=1,114=1,124=2103/1,12;
 99/5=1,9=1/99;
 ---------
 mol04-NBO
 ---------
 Symbolic Z-matrix:
 Charge =  0 Multiplicity = 1
 C                     0.        0.        0.17434 
 H                     0.        0.86223  -0.52303 
 H                     0.       -0.86223  -0.52303 
 
                          Input orientation:                          
 ---------------------------------------------------------------------
 Center     Atomic      Atomic             Coordinates (Angstroms)
 Number     Number       Type             X           Y           Z
 ---------------------------------------------------------------------
      1          6           0        0.000000    0.000000    0.174343
      2          1           0        0.000000    0.862232   -0.523029
      3          1           0        0.000000   -0.862232   -0.523029
 ---------------------------------------------------------------------
                    Distance matrix (angstroms):
                    1          2          3
     1  C    0.000000
     2  H    1.108951   0.000000
     3  H    1.108951   1.724464   0.000000
 Symmetry turned off by external request.
 Stoichiometry    CH2
 Rotational constants (GHZ):         602.1504961         337.2514202         216.1759589
 Standard basis: STO-3G (5D, 7F)
     7 basis functions,    21 primitive gaussians,     7 cartesian basis functions
     4 alpha electrons        4 beta electrons
       nuclear repulsion energy         6.0331124001 Hartrees.
 NAtoms=    3 NActive=    3 NUniq=    3 SFac= 1.00D+00 NAtFMM=   60 NAOKFM=F Big=F
 Integral buffers will be    131072 words long.
 Raffenetti 1 integral format.
 Two-electron integral symmetry is turned off.
 One-electron integrals computed using PRISM.
 NBasis=     7 RedAO= T EigKep=  2.78D-01  NBF=     7
 NBsUse=     7 1.00D-06 EigRej= -1.00D+00 NBFU=     7
 ExpMin= 1.69D-01 ExpMax= 7.16D+01 ExpMxC= 7.16D+01 IAcc=3 IRadAn=         5 AccDes= 0.00D+00
 Harris functional with IExCor=  205 and IRadAn=       5 diagonalized for initial guess.
 HarFok:  IExCor=  205 AccDes= 0.00D+00 IRadAn=         5 IDoV= 1 UseB2=F ITyADJ=14
 ICtDFT=  3500011 ScaDFX=  1.000000  1.000000  1.000000  1.000000
 FoFCou: FMM=F IPFlag=           0 FMFlag=      100000 FMFlg1=           0
         NFxFlg=           0 DoJE=T BraDBF=F KetDBF=T FulRan=T
         wScrn=  0.000000 ICntrl=       500 IOpCl=  0 I1Cent=   200000004 NGrid=           0
         NMat0=    1 NMatS0=      1 NMatT0=    0 NMatD0=    1 NMtDS0=    0 NMtDT0=    0
 Symmetry not used in FoFCou.
 Keep R1 ints in memory in canonical form, NReq=802838.
 Requested convergence on RMS density matrix=1.00D-08 within 128 cycles.
 Requested convergence on MAX density matrix=1.00D-06.
 Requested convergence on             energy=1.00D-06.
 No special actions if energy rises.
 SCF Done:  E(RHF) =  -38.3719760988     A.U. after    6 cycles
            NFock=  6  Conv=0.29D-08     -V/T= 1.9927

 **********************************************************************

            Population analysis using the SCF Density.

 **********************************************************************

 Alpha  occ. eigenvalues --  -11.00962  -0.83988  -0.50755  -0.31506
 Alpha virt. eigenvalues --    0.22483   0.67872   0.69457
          Condensed to atoms (all electrons):
               1          2          3
     1  C    5.366958   0.333265   0.333265
     2  H    0.333265   0.683615  -0.033625
     3  H    0.333265  -0.033625   0.683615
 Mulliken charges:
               1
     1  C   -0.033489
     2  H    0.016744
     3  H    0.016744
 Sum of Mulliken charges =   0.00000
 Mulliken charges with hydrogens summed into heavy atoms:
               1
     1  C    0.000000
 Electronic spatial extent (au):  <R**2>=             22.7720
 Charge=             -0.0000 electrons
 Dipole moment (field-independent basis, Debye):
    X=              0.0000    Y=              0.0000    Z=             -1.5657  Tot=              1.5657
 Quadrupole moment (field-independent basis, Debye-Ang):
   XX=             -5.4793   YY=             -6.6561   ZZ=             -7.8480
   XY=             -0.0000   XZ=             -0.0000   YZ=             -0.0000
 Traceless Quadrupole moment (field-independent basis, Debye-Ang):
   XX=              1.1818   YY=              0.0051   ZZ=             -1.1869
   XY=             -0.0000   XZ=             -0.0000   YZ=             -0.0000
 Octapole moment (field-independent basis, Debye-Ang**2):
  XXX=              0.0000  YYY=              0.0000  ZZZ=             -1.4942  XYY=              0.0000
  XXY=              0.0000  XXZ=             -0.0457  XZZ=              0.0000  YZZ=              0.0000
  YYZ=             -0.5472  XYZ=             -0.0000
 Hexadecapole moment (field-independent basis, Debye-Ang**3):
 XXXX=             -3.9050 YYYY=            -12.5229 ZZZZ=            -10.4305 XXXY=             -0.0000
 XXXZ=             -0.0000 YYYX=             -0.0000 YYYZ=             -0.0000 ZZZX=             -0.0000
 ZZZY=             -0.0000 XXYY=             -2.8551 XXZZ=             -2.3570 YYZZ=             -3.5901
 XXYZ=             -0.0000 YYXZ=             -0.0000 ZZXY=             -0.0000
 N-N= 6.033112400117D+00 E-N=-1.021219746190D+02  KE= 3.865601522248D+01
 Running external command "gaunbo7 R"
         input file       "/cluster/work/users/beto93/mol04/Gau-1016235.EIn"
         output file      "/cluster/work/users/beto93/mol04/Gau-1016235.EOu"
         message file     "/cluster/work/users/beto93/mol04/Gau-1016235.EMs"
         fchk file        "/cluster/work/users/beto93/mol04/Gau-1016235.EFC"
         mat. el file     "/cluster/work/users/beto93/mol04/Gau-1016235.EUF"

 Writing WrtUnf unformatted file "/cluster/work/users/beto93/mol04/Gau-1016235.EUF"
 Gaussian matrix elements                                         Version   2 NLab=11 Len12L=8 Len4L=8
 Write SHELL TO ATOM MAP                   from file      0 offset           0 length                   4 to matrix element file.
 Write SHELL TYPES                         from file      0 offset           0 length                   4 to matrix element file.
 Write NUMBER OF PRIMITIVES PER SHELL      from file      0 offset           0 length                   4 to matrix element file.
 Write PRIMITIVE EXPONENTS                 from file      0 offset           0 length                  12 to matrix element file.
 Write CONTRACTION COEFFICIENTS            from file      0 offset           0 length                  12 to matrix element file.
 Write P(S=P) CONTRACTION COEFFICIENTS     from file      0 offset           0 length                  12 to matrix element file.
 Write COORDINATES OF EACH SHELL           from file      0 offset           0 length                  12 to matrix element file.
 Write BONDS PER ATOM                      from file      0 offset           0 length                   3 to matrix element file.
 Write BONDED ATOMS                        from file      0 offset           0 length                   4 to matrix element file.
 Write BOND TYPES                          from file      0 offset           0 length                   4 to matrix element file.
 Write ONIOM CHARGE/MULT                   from file      0 offset           0 length                  32 to matrix element file.
 Write ONIOM ATOM LAYERS                   from file      0 offset           0 length                   3 to matrix element file.
 Write ONIOM ATOM MODIFIERS                from file      0 offset           0 length                   3 to matrix element file.
 Write ONIOM ATOM TYPES                    from file      0 offset           0 length                   3 to matrix element file.
 Write ONIOM LINK ATOMS                    from file      0 offset           0 length                   3 to matrix element file.
 Write ONIOM LINK CHARGES                  from file      0 offset           0 length                   3 to matrix element file.
 Write ONIOM LINK DISTANCES                from file      0 offset           0 length                  12 to matrix element file.
 Write SYMINF INTS                         from file      0 offset           0 length                  26 to matrix element file.
 Write ROTTR TO SO                         from file      0 offset           0 length                  12 to matrix element file.
 Write GAUSSIAN SCALARS                    from file    501 offset           0 to matrix element file.
 Write OPTIMIZATION FLAGS                  from file      0 offset           0 length                   3 to matrix element file.
 Write INTEGER ISO                         from file      0 offset           0 length                   3 to matrix element file.
 Write INTEGER SPIN                        from file      0 offset           0 length                   3 to matrix element file.
 Write REAL ZEFFECTIVE                     from file      0 offset           0 length                   3 to matrix element file.
 Write REAL GFACTOR                        from file      0 offset           0 length                   3 to matrix element file.
 Write REAL ZNUCLEAR                       from file      0 offset           0 length                   3 to matrix element file.
 Write MULLIKEN CHARGES                    from file      0 offset           0 length                   3 to matrix element file.
 Write NUCLEAR GRADIENT                    from file  10584 offset           0 length                   9 to matrix element file.
 Array NUCLEAR FORCE CONSTANTS              on  file  10585 does not exist.
 Write ELECTRIC DIPOLE MOMENT              from file      0 offset           0 length                   3 to matrix element file.
 Write NON-ADIABATIC COUPLING              from file  10810 offset           0 length                   9 to matrix element file.
 Write FINITE EM FIELD                     from file  10521 offset           0 length                  35 to matrix element file.
 Write OVERLAP                             from file  10514 offset           0 length                  28 to matrix element file.
 Write CORE HAMILTONIAN ALPHA              from file  10515 offset           0 length                  28 to matrix element file.
 Write CORE HAMILTONIAN BETA               from file  10515 offset          28 length                  28 to matrix element file.
 Write KINETIC ENERGY                      from file  10516 offset           0 length                  28 to matrix element file.
 Write ORTHOGONAL BASIS                    from file  10685 offset           0 length                  49 to matrix element file.
 Write DIPOLE INTEGRALS                    from file  10518 offset           0 length                  84 to matrix element file.
 Array DIP VEL INTEGRALS                    on  file  10572 does not exist.
 Array R X DEL INTEGRALS                    on  file  10572 does not exist.
 Write ALPHA ORBITAL ENERGIES              from file      0 offset           0 length                   7 to matrix element file.
 Write ALPHA MO COEFFICIENTS               from file  10524 offset           0 length                  49 to matrix element file.
 Write ALPHA DENSITY MATRIX                from file      0 offset           0 length                  28 to matrix element file.
 Write ALPHA FOCK MATRIX                   from file  10536 offset           0 length                  28 to matrix element file.
 Write ENERGY-WEIGHTED DENSITY             from file  10571 offset           0 length                  28 to matrix element file.
 Write ALPHA SCF DENSITY MATRIX            from file      0 offset           0 length                  28 to matrix element file.
 No 2e integrals to process.
 Perform NBO analysis...executing G16NBO...

 *********************************** NBO 7.0 ***********************************
             N A T U R A L   A T O M I C   O R B I T A L   A N D
          N A T U R A L   B O N D   O R B I T A L   A N A L Y S I S
 **************************** Espen Tangen (S101595) ***************************
  (c) Copyright 1996-2021 Board of Regents of the University of Wisconsin System
      on behalf of the Theoretical Chemistry Institute.  All rights reserved.

          Cite this program [NBO 7.0.10 (8-Feb-2021)] as:

          NBO 7.0.  E. D. Glendening, J. K. Badenhoop, A. E. Reed,
          J. E. Carpenter, J. A. Bohmann, C. M. Morales, P. Karafiloglou,
          C. R. Landis, and F. Weinhold, Theoretical Chemistry Institute,
          University of Wisconsin, Madison, WI (2018)

       /NPA    / : Natural Population Analysis
       /AOPNAO / : Print the AO to PNAO transformation
       /AONAO  / : Print the AO to NAO transformation
       /AOMO   / : Print the MOs in the AO basis
       /BOAO   / : Print the AO bond-order matrix
       /DMAO   / : Print the AO density matrix
       /DMPNAO / : Print the PNAO density matrix
       /DMNAO  / : Print the NAO density matrix
       /DMMO   / : Print the MO density matrix
       /SAO    / : Print the AO overlap matrix
       /SPNAO  / : Print the PNAO overlap matrix
       /DETAIL / : Write details of NBO search
       /ARCHIVE/ : Write the archive file to lfn47
       /AOINFO / : Write AO information to lfn31
       /FILE   / : Set to mol04.gen*

 Filename set to mol04.gen1

 Job title: mol04-NBO


 MOs in the AO basis:

           AO          1       2       3       4       5       6       7
      ------------ ------- ------- ------- ------- ------- ------- -------
   1.  C 1 (s)      0.9931 -0.2150  0.0000 -0.1402  0.0000  0.0000 -0.1684
   2.  C 1 (s)      0.0302  0.6605  0.0000  0.6396  0.0000  0.0000  1.0563
   3.  C 1 (px)     0.0000  0.0000  0.0000  0.0000  1.0000  0.0000  0.0000
   4.  C 1 (py)     0.0000  0.0000  0.5372  0.0000  0.0000  1.0818  0.0000
   5.  C 1 (pz)    -0.0067 -0.1744  0.0000  0.7525  0.0000  0.0000 -0.8423
   6.  H 2 (s)     -0.0073  0.2707  0.4653 -0.2280  0.0000 -0.8233 -0.8869
   7.  H 3 (s)     -0.0073  0.2707 -0.4653 -0.2280  0.0000  0.8233 -0.8869


 AO overlap matrix:

           AO          1       2       3       4       5       6       7
      ------------ ------- ------- ------- ------- ------- ------- -------
   1.  C 1 (s)      1.0000  0.2484  0.0000  0.0000  0.0000  0.0596  0.0596
   2.  C 1 (s)      0.2484  1.0000  0.0000  0.0000  0.0000  0.4799  0.4799
   3.  C 1 (px)     0.0000  0.0000  1.0000  0.0000  0.0000  0.0000  0.0000
   4.  C 1 (py)     0.0000  0.0000  0.0000  1.0000  0.0000  0.3582 -0.3582
   5.  C 1 (pz)     0.0000  0.0000  0.0000  0.0000  1.0000 -0.2897 -0.2897
   6.  H 2 (s)      0.0596  0.4799  0.0000  0.3582 -0.2897  1.0000  0.1843
   7.  H 3 (s)      0.0596  0.4799  0.0000 -0.3582 -0.2897  0.1843  1.0000


 AO bond-order matrix:

           AO          1       2       3       4       5       6       7
      ------------ ------- ------- ------- ------- ------- ------- -------
   1.  C 1 (s)      2.1042 -0.4034  0.0000  0.0000 -0.1494 -0.0670 -0.0670
   2.  C 1 (s)     -0.4034  1.6926  0.0000  0.0000  0.7318  0.0656  0.0656
   3.  C 1 (px)     0.0000  0.0000  0.0000  0.0000  0.0000  0.0000  0.0000
   4.  C 1 (py)     0.0000  0.0000  0.0000  0.5772  0.0000  0.5000 -0.5000
   5.  C 1 (pz)    -0.1494  0.7318  0.0000  0.0000  1.1933 -0.4374 -0.4374
   6.  H 2 (s)     -0.0670  0.0656  0.0000  0.5000 -0.4374  0.6836 -0.1824
   7.  H 3 (s)     -0.0670  0.0656  0.0000 -0.5000 -0.4374 -0.1824  0.6836


 AO density matrix:

           AO          1       2       3       4       5       6       7
      ------------ ------- ------- ------- ------- ------- ------- -------
   1.  C 1 (s)      1.9997  0.5006  0.0000  0.0000 -0.0077  0.1119  0.1119
   2.  C 1 (s)      0.5006  1.9468  0.0000  0.0000  0.1072  1.0608  1.0608
   3.  C 1 (px)     0.0000  0.0000  0.0000  0.0000  0.0000  0.0000  0.0000
   4.  C 1 (py)     0.0000  0.0000  0.0000  1.5158  0.0000  0.9959 -0.9959
   5.  C 1 (pz)    -0.0077  0.1072  0.0000  0.0000  1.7843 -0.7827 -0.7827
   6.  H 2 (s)      0.1119  1.0608  0.0000  0.9959 -0.7827  1.6470  0.3384
   7.  H 3 (s)      0.1119  1.0608  0.0000 -0.9959 -0.7827  0.3384  1.6470


 MO density matrix:

      MO     1       2       3       4       5       6       7
     ---- ------  ------  ------  ------  ------  ------  ------
   1.     2.0000  0.0000  0.0000  0.0000  0.0000  0.0000  0.0000
   2.     0.0000  2.0000  0.0000  0.0000  0.0000  0.0000  0.0000
   3.     0.0000  0.0000  2.0000  0.0000  0.0000  0.0000  0.0000
   4.     0.0000  0.0000  0.0000  2.0000  0.0000  0.0000  0.0000
   5.     0.0000  0.0000  0.0000  0.0000  0.0000  0.0000  0.0000
   6.     0.0000  0.0000  0.0000  0.0000  0.0000  0.0000  0.0000
   7.     0.0000  0.0000  0.0000  0.0000  0.0000  0.0000  0.0000


 NATURAL POPULATIONS:  Natural atomic orbital occupancies

  NAO Atom No lang   Type(AO)    Occupancy      Energy
 -------------------------------------------------------
   1    C  1  s      Cor( 1s)     2.00000     -10.98717
   2    C  1  s      Val( 2s)     1.61492      -0.42818
   3    C  1  px     Val( 2p)     0.00000       0.22483
   4    C  1  py     Val( 2p)     0.85517       0.17148
   5    C  1  pz     Val( 2p)     1.37570      -0.02445

   6    H  2  s      Val( 1s)     1.07710      -0.01525

   7    H  3  s      Val( 1s)     1.07710      -0.01525


 Summary of Natural Population Analysis:

                                     Natural Population
             Natural    ---------------------------------------------
  Atom No    Charge        Core      Valence    Rydberg      Total
 --------------------------------------------------------------------
    C  1    0.15421      2.00000     3.84579    0.00000     5.84579
    H  2   -0.07710      0.00000     1.07710    0.00000     1.07710
    H  3   -0.07710      0.00000     1.07710    0.00000     1.07710
 ====================================================================
 * Total *  0.00000      2.00000     6.00000    0.00000     8.00000

                                 Natural Population
 ---------------------------------------------------------
   Core                       2.00000 (100.0000% of    2)
   Valence                    6.00000 (100.0000% of    6)
   Natural Minimal Basis      8.00000 (100.0000% of    8)
   Natural Rydberg Basis      0.00000 (  0.0000% of    8)
 ---------------------------------------------------------

    Atom No         Natural Electron Configuration
 ----------------------------------------------------------------------------
      C  1      [core]2s( 1.61)2p( 2.23)
      H  2            1s( 1.08)
      H  3            1s( 1.08)


 PNAOs in the AO basis:

           AO          1       2       3       4       5       6       7
      ------------ ------- ------- ------- ------- ------- ------- -------
   1.  C 1 (s)      0.9802 -0.3241  0.0000  0.0000  0.0000  0.0000  0.0000
   2.  C 1 (s)      0.0705  1.0299  0.0000  0.0000  0.0000  0.0000  0.0000
   3.  C 1 (px)     0.0000  0.0000  1.0000  0.0000  0.0000  0.0000  0.0000
   4.  C 1 (py)     0.0000  0.0000  0.0000  1.0000  0.0000  0.0000  0.0000
   5.  C 1 (pz)     0.0000  0.0000  0.0000  0.0000  1.0000  0.0000  0.0000
   6.  H 2 (s)      0.0000  0.0000  0.0000  0.0000  0.0000  1.0000  0.0000
   7.  H 3 (s)      0.0000  0.0000  0.0000  0.0000  0.0000  0.0000  1.0000


 PNAO overlap matrix:

           NAO         1       2       3       4       5       6       7
      ------------ ------- ------- ------- ------- ------- ------- -------
   1.  C 1( 1s )    1.0000  0.0000  0.0000  0.0000  0.0000  0.0922  0.0922
   2.  C 1( 2s )    0.0000  1.0000  0.0000  0.0000  0.0000  0.4750  0.4750
   3.  C 1( 2px)    0.0000  0.0000  1.0000  0.0000  0.0000  0.0000  0.0000
   4.  C 1( 2py)    0.0000  0.0000  0.0000  1.0000  0.0000  0.3582 -0.3582
   5.  C 1( 2pz)    0.0000  0.0000  0.0000  0.0000  1.0000 -0.2897 -0.2897
   6.  H 2( 1s )    0.0922  0.4750  0.0000  0.3582 -0.2897  1.0000  0.1843
   7.  H 3( 1s )    0.0922  0.4750  0.0000 -0.3582 -0.2897  0.1843  1.0000


 PNAO density matrix:

           NAO         1       2       3       4       5       6       7
      ------------ ------- ------- ------- ------- ------- ------- -------
   1.  C 1( 1s )    2.0000  0.0000  0.0000  0.0000  0.0000  0.1845  0.1845
   2.  C 1( 2s )    0.0000  1.9409  0.0000  0.0000  0.1129  1.0563  1.0563
   3.  C 1( 2px)    0.0000  0.0000  0.0000  0.0000  0.0000  0.0000  0.0000
   4.  C 1( 2py)    0.0000  0.0000  0.0000  1.5158  0.0000  0.9959 -0.9959
   5.  C 1( 2pz)    0.0000  0.1129  0.0000  0.0000  1.7843 -0.7827 -0.7827
   6.  H 2( 1s )    0.1845  1.0563  0.0000  0.9959 -0.7827  1.6470  0.3384
   7.  H 3( 1s )    0.1845  1.0563  0.0000 -0.9959 -0.7827  0.3384  1.6470


 NAOs in the AO basis:

           AO          1       2       3       4       5       6       7
      ------------ ------- ------- ------- ------- ------- ------- -------
   1.  C 1 (s)      0.9802 -0.3453  0.0000  0.0000  0.0220  0.0046  0.0046
   2.  C 1 (s)      0.0705  1.2753  0.0000  0.0000 -0.2197 -0.3757 -0.3757
   3.  C 1 (px)     0.0000  0.0000  1.0000  0.0000  0.0000  0.0000  0.0000
   4.  C 1 (py)     0.0000  0.0000  0.0000  1.1698  0.0000 -0.2128  0.2128
   5.  C 1 (pz)     0.0000 -0.1191  0.0000  0.0000  1.1109  0.1702  0.1702
   6.  H 2 (s)      0.0000 -0.3030  0.0000 -0.3186  0.2549  1.2441 -0.0151
   7.  H 3 (s)      0.0000 -0.3030  0.0000  0.3186  0.2549 -0.0151  1.2441


 NAO density matrix:

           NAO         1       2       3       4       5       6       7
      ------------ ------- ------- ------- ------- ------- ------- -------
   1.  C 1( 1s )    2.0000  0.0000  0.0000  0.0000  0.0000  0.0000  0.0000
   2.  C 1( 2s )    0.0000  1.6149  0.0000  0.0000  0.4903  0.4367  0.4367
   3.  C 1( 2px)    0.0000  0.0000  0.0000  0.0000  0.0000  0.0000  0.0000
   4.  C 1( 2py)    0.0000  0.0000  0.0000  0.8552  0.0000  0.6997 -0.6997
   5.  C 1( 2pz)    0.0000  0.4903  0.0000  0.0000  1.3757 -0.5561 -0.5561
   6.  H 2( 1s )    0.0000  0.4367  0.0000  0.6997 -0.5561  1.0771 -0.0677
   7.  H 3( 1s )    0.0000  0.4367  0.0000 -0.6997 -0.5561 -0.0677  1.0771


 NATURAL BOND ORBITAL ANALYSIS:

 Initiate 2-center NBO search using THRESH = 1.900 and PRJTHR = 0.300

 Search of NAO DM block for core orbitals on atom:   1
      Eigenvector ( 1) has occupancy 2.00000
            1.0000 0.0000 0.0000 0.0000 0.0000
        1 eigenvector(s) stashed in permanent list

 Core orbitals projected from the NAO density matrix
       6.000 electrons remain (>1.900); search continues

 Search of NAO DM block for the following atom(s):   1
      Select eigenvectors with eigenvalue > 1.900
       2.000 0.991 0.855 0.000 0.000
      Eigenvector ( 1) has occupancy 2.00000
            0.0000 0.7864 0.0000 0.0000 0.6177
      1 hybrid on atom 1 stashed in prospective list

 Stash prospective hybrids having projection expectation value > 0.300
       1.000
      0 hybrids eliminated in 1 pass
      1 hybrid moved from prospective to permanent list

 NHOs of 1-center eigenvectors projected from the NAO density matrix
       4.000 electrons remain (>1.900); search continues

 Search of NAO DM block for the following atom(s):   1   2
      Select eigenvectors with eigenvalue > 1.900
       2.000 0.923 0.000 0.000 0.000 0.000
      Eigenvector ( 1) has occupancy 2.00000
            0.0000 0.3169 0.0000 0.4476-0.4035 0.7324
      1 hybrid on atom 1 stashed in prospective list
      1 hybrid on atom 2 stashed in prospective list

 Search of NAO DM block for the following atom(s):   1   3
      Select eigenvectors with eigenvalue > 1.900
       2.000 0.923 0.000 0.000 0.000 0.000
      Eigenvector ( 1) has occupancy 2.00000
            0.0000 0.3169 0.0000-0.4476-0.4035 0.7324
      1 hybrid on atom 1 stashed in prospective list
      1 hybrid on atom 3 stashed in prospective list

 Stash prospective hybrids having projection expectation value > 0.300
       0.982 0.982 0.982 0.982
      0 hybrids eliminated in 1 pass
      4 hybrids moved from prospective to permanent list

 NHOs of 2-center eigenvectors projected from the NAO density matrix
       0.000 electrons remain in the fully projected matrix

 Search of NHO DM block for the following atom(s):   1
      Select eigenvectors with eigenvalue > 1.900
       2.000 2.000 0.000 0.000 0.000
      Eigenvector ( 1) has occupancy 2.00000
            1.0000 0.0000 0.0000 0.0000 0.0000
           NBO accepted:    1. Label:CR ( 1)   1
      Eigenvector ( 2) has occupancy 2.00000
            0.0000 1.0000 0.0000 0.0000 0.0000
           NBO accepted:    2. Label:LP ( 1)   1
        2 eigenvector(s) stashed in permanent list

  1-center NBOs projected from the NHO density matrix
       4.000 electrons remain (>1.900); search continues

 Search of NHO DM block for the following atom(s):   1   2
      Select eigenvectors with eigenvalue > 1.900
       1.998 0.002 0.000 0.000 0.000 0.000
      Eigenvector ( 1) has occupancy 1.99769
            0.0000 0.0000 0.6792 0.0000 0.0000 0.7339
      Occupancy is 1.998 after deleting minor hybrid components
            0.0000 0.0000 0.6792 0.0000 0.0000 0.7339
           NBO accepted:    3. Label:BD ( 1)   1   2
      Occupancy is 0.002 for antibonding component
            0.0000 0.0000 0.7339 0.0000 0.0000-0.6792
           NBO accepted:    4. Label:BD*( 1)   1   2
        2 eigenvector(s) stashed in permanent list

 Search of NHO DM block for the following atom(s):   1   3
      Select eigenvectors with eigenvalue > 1.900
       1.998 0.002 0.000 0.000 0.000 0.000
      Eigenvector ( 1) has occupancy 1.99769
            0.0000 0.0000 0.0000 0.6792 0.0000 0.7339
      Occupancy is 1.998 after deleting minor hybrid components
            0.0000 0.0000 0.0000 0.6792 0.0000 0.7339
           NBO accepted:    5. Label:BD ( 1)   1   3
      Occupancy is 0.002 for antibonding component
            0.0000 0.0000 0.0000 0.7339 0.0000-0.6792
           NBO accepted:    6. Label:BD*( 1)   1   3
        2 eigenvector(s) stashed in permanent list

  2-center NBOs projected from the NHO density matrix
       0.000 electrons remain in the fully projected matrix

                            Occupancies       Lewis Structure    Low   High
         Max    Occ     -------------------  -----------------   occ   occ
  Cycle  Ctr   Thresh    Lewis   non-Lewis     CR  BD  nC  LP    (L)   (NL)
 ============================================================================
    1     2     1.90     7.99538   0.00462      1   2   0   1     0      0
 ----------------------------------------------------------------------------

 Structure accepted: No low occupancy Lewis orbitals

 -------------------------------------------------------
   Core                      2.00000 (100.000% of   2)
   Valence Lewis             5.99538 ( 99.923% of   6)
  ==================      =============================
   Total Lewis               7.99538 ( 99.942% of   8)
  -----------------------------------------------------
   Valence non-Lewis         0.00462 (  0.058% of   8)
   Rydberg non-Lewis         0.00000 (  0.000% of   8)
  ==================      =============================
   Total non-Lewis           0.00462 (  0.058% of   8)
 -------------------------------------------------------


     (Occupancy)   Bond orbital / Coefficients / Hybrids
 ------------------ Lewis ------------------------------------------------------
   1. (2.00000) CR ( 1) C  1            s(100.00%)
                                         1.0000  0.0000  0.0000  0.0000  0.0000
   2. (2.00000) LP ( 1) C  1            s( 61.85%)p 0.62( 38.15%)
                                         0.0000  0.7864  0.0000  0.0000  0.6177
   3. (1.99769) BD ( 1) C  1- H  2
               ( 46.14%)   0.6792* C  1 s( 19.07%)p 4.24( 80.93%)
                                         0.0000  0.4367  0.0000  0.7071 -0.5561
               ( 53.86%)   0.7339* H  2 s(100.00%)
                                         1.0000
   4. (1.99769) BD ( 1) C  1- H  3
               ( 46.14%)   0.6792* C  1 s( 19.07%)p 4.24( 80.93%)
                                         0.0000  0.4367  0.0000 -0.7071 -0.5561
               ( 53.86%)   0.7339* H  3 s(100.00%)
                                         1.0000
 ---------------- non-Lewis ----------------------------------------------------
   5. (0.00000) LV ( 1) C  1            s(  0.00%)p 1.00(100.00%)
   6. (0.00231) BD*( 1) C  1- H  2
               ( 53.86%)   0.7339* C  1 s( 19.07%)p 4.24( 80.93%)
                                         0.0000 -0.4367  0.0000 -0.7071  0.5561
               ( 46.14%)  -0.6792* H  2 s(100.00%)
                                        -1.0000
   7. (0.00231) BD*( 1) C  1- H  3
               ( 53.86%)   0.7339* C  1 s( 19.07%)p 4.24( 80.93%)
                                         0.0000 -0.4367  0.0000  0.7071  0.5561
               ( 46.14%)  -0.6792* H  3 s(100.00%)
                                        -1.0000


 NHO DIRECTIONALITY AND BOND BENDING (deviation from line of nuclear centers at
                                      the position of maximum hybrid amplitude)

         [Thresholds for printing:  angular deviation  >  1.0 degree]
                                    p- or d-character  > 25.0%
                                    orbital occupancy  >  0.10e

                        Line of Centers        Hybrid 1             Hybrid 2
                        ---------------  -------------------  ------------------
           NBO            Theta   Phi    Theta   Phi    Dev   Theta   Phi    Dev
 ===============================================================================
   2. LP ( 1) C  1          --     --      0.0    0.0   --      --     --    --


 SECOND ORDER PERTURBATION THEORY ANALYSIS OF FOCK MATRIX IN NBO BASIS

     Threshold for printing:   0.50 kcal/mol
                                                          E(2) E(NL)-E(L) F(L,NL)
      Donor (L) NBO              Acceptor (NL) NBO      kcal/mol   a.u.    a.u.
 ===============================================================================

 within unit  1
    3. BD ( 1) C  1- H  2       7. BD*( 1) C  1- H  3      1.90    1.31   0.045
    4. BD ( 1) C  1- H  3       6. BD*( 1) C  1- H  2      1.90    1.31   0.045


 NATURAL BOND ORBITALS (Summary):

                                                     Principal Delocalizations
           NBO                 Occupancy    Energy   (geminal,vicinal,remote)
 ===============================================================================
 Molecular unit  1  (CH2)
 ------ Lewis --------------------------------------
    1. CR ( 1) C  1             2.00000   -10.98717
    2. LP ( 1) C  1             2.00000    -0.43592
    3. BD ( 1) C  1- H  2       1.99769    -0.62299  7(g)
    4. BD ( 1) C  1- H  3       1.99769    -0.62299  6(g)
 ------ non-Lewis ----------------------------------
    5. LV ( 1) C  1             0.00000     0.22483
    6. BD*( 1) C  1- H  2       0.00231     0.68513
    7. BD*( 1) C  1- H  3       0.00231     0.68513
          -------------------------------
                 Total Lewis    7.99538  ( 99.9423%)
           Valence non-Lewis    0.00462  (  0.0577%)
           Rydberg non-Lewis    0.00000  (  0.0000%)
          -------------------------------
               Total unit  1    8.00000  (100.0000%)
              Charge unit  1    0.00000

 $CHOOSE
   LONE 1 1 END
   BOND S 1 2 S 1 3 END
 $END

 NBO analysis completed in 0.13 CPU seconds (0 wall seconds)
 Maximum scratch memory used by NBO was 221038 words (1.69 MB)
 Maximum scratch memory used by G16NBO was 8171 words (0.06 MB)

 Opening RunExU unformatted file "/cluster/work/users/beto93/mol04/Gau-1016235.EUF"
 Read unf file /cluster/work/users/beto93/mol04/Gau-1016235.EUF:
 Label Gaussian matrix elements                                         IVers= 2 NLab= 2 Version=ES64L-G16RevC.01
 Title mol04-NBO                                                       
 NAtoms=     3 NBasis=     7 NBsUse=     7 ICharg=     0 Multip=     1 NE=     8 Len12L=8 Len4L=8 IOpCl= 0 ICGU=111
 GAUSSIAN SCALARS                    NI= 1 NR= 1 NTot=       1 LenBuf=    2 NRI=1 N=    1000
 NPA CHARGES                         NI= 0 NR= 1 NTot=       3 LenBuf= 4000 NRI=1 N=       3
 Recovered energy= -38.3719760988     dipole=      0.000000000000      0.000000000000     -0.615999300762
 Unable to Open any file for archive entry.
 1\1\GINC-C3-7\SP\RHF\STO-3G\C1H2\BETO93\18-Nov-2024\0\\#RHF/STO-3G int
 =nobasistransform Symmetry=None 5D 7F Pop=NBO7Read\\mol04-NBO\\0,1\C,0
 ,0.,0.,0.174343\H,0,0.,0.862232,-0.523029\H,0,0.,-0.862232,-0.523029\\
 Version=ES64L-G16RevC.01\HF=-38.3719761\RMSD=2.867e-09\Dipole=0.,0.,-0
 .6159993\Quadrupole=0.8786431,0.0037632,-0.8824064,0.,0.,0.\PG=Unknown
 \\@
 The archive entry for this job was punched.


 EXPERIENCE IS A WONDERFUL THING.  IT ENABLES
 YOU TO RECOGNIZE A MISTAKE WHEN YOU MAKE IT AGAIN.
           - BACK OF A SUGAR PACKET
 Job cpu time:       0 days  0 hours  0 minutes  6.6 seconds.
 Elapsed time:       0 days  0 hours  0 minutes  2.2 seconds.
 File lengths (MBytes):  RWF=     10 Int=      0 D2E=      0 Chk=      1 Scr=      1
 Normal termination of Gaussian 16 at Mon Nov 18 15:41:22 2024.
