 Entering Gaussian System, Link 0=g16
 Initial command:
 /cluster/software/Gaussian/g16_C.01/l1.exe "/cluster/work/users/beto93/mol18/Gau-945987.inp" -scrdir="/cluster/work/users/beto93/mol18/"
 Entering Link 1 = /cluster/software/Gaussian/g16_C.01/l1.exe PID=    945988.
  
 Copyright (c) 1988-2019, Gaussian, Inc.  All Rights Reserved.
  
 This is part of the Gaussian(R) 16 program.  It is based on
 the Gaussian(R) 09 system (copyright 2009, Gaussian, Inc.),
 the Gaussian(R) 03 system (copyright 2003, Gaussian, Inc.),
 the Gaussian(R) 98 system (copyright 1998, Gaussian, Inc.),
 the Gaussian(R) 94 system (copyright 1995, Gaussian, Inc.),
 the Gaussian 92(TM) system (copyright 1992, Gaussian, Inc.),
 the Gaussian 90(TM) system (copyright 1990, Gaussian, Inc.),
 the Gaussian 88(TM) system (copyright 1988, Gaussian, Inc.),
 the Gaussian 86(TM) system (copyright 1986, Carnegie Mellon
 University), and the Gaussian 82(TM) system (copyright 1983,
 Carnegie Mellon University). Gaussian is a federally registered
 trademark of Gaussian, Inc.
  
 This software contains proprietary and confidential information,
 including trade secrets, belonging to Gaussian, Inc.
  
 This software is provided under written license and may be
 used, copied, transmitted, or stored only in accord with that
 written license.
  
 The following legend is applicable only to US Government
 contracts under FAR:
  
                    RESTRICTED RIGHTS LEGEND
  
 Use, reproduction and disclosure by the US Government is
 subject to restrictions as set forth in subparagraphs (a)
 and (c) of the Commercial Computer Software - Restricted
 Rights clause in FAR 52.227-19.
  
 Gaussian, Inc.
 340 Quinnipiac St., Bldg. 40, Wallingford CT 06492
  
  
 ---------------------------------------------------------------
 Warning -- This program may not be used in any manner that
 competes with the business of Gaussian, Inc. or will provide
 assistance to any competitor of Gaussian, Inc.  The licensee
 of this program is prohibited from giving any competitor of
 Gaussian, Inc. access to this program.  By using this program,
 the user acknowledges that Gaussian, Inc. is engaged in the
 business of creating and licensing software in the field of
 computational chemistry and represents and warrants to the
 licensee that it is not a competitor of Gaussian, Inc. and that
 it will not use this program in any manner prohibited above.
 ---------------------------------------------------------------
  

 Cite this work as:
 Gaussian 16, Revision C.01,
 M. J. Frisch, G. W. Trucks, H. B. Schlegel, G. E. Scuseria, 
 M. A. Robb, J. R. Cheeseman, G. Scalmani, V. Barone, 
 G. A. Petersson, H. Nakatsuji, X. Li, M. Caricato, A. V. Marenich, 
 J. Bloino, B. G. Janesko, R. Gomperts, B. Mennucci, H. P. Hratchian, 
 J. V. Ortiz, A. F. Izmaylov, J. L. Sonnenberg, D. Williams-Young, 
 F. Ding, F. Lipparini, F. Egidi, J. Goings, B. Peng, A. Petrone, 
 T. Henderson, D. Ranasinghe, V. G. Zakrzewski, J. Gao, N. Rega, 
 G. Zheng, W. Liang, M. Hada, M. Ehara, K. Toyota, R. Fukuda, 
 J. Hasegawa, M. Ishida, T. Nakajima, Y. Honda, O. Kitao, H. Nakai, 
 T. Vreven, K. Throssell, J. A. Montgomery, Jr., J. E. Peralta, 
 F. Ogliaro, M. J. Bearpark, J. J. Heyd, E. N. Brothers, K. N. Kudin, 
 V. N. Staroverov, T. A. Keith, R. Kobayashi, J. Normand, 
 K. Raghavachari, A. P. Rendell, J. C. Burant, S. S. Iyengar, 
 J. Tomasi, M. Cossi, J. M. Millam, M. Klene, C. Adamo, R. Cammi, 
 J. W. Ochterski, R. L. Martin, K. Morokuma, O. Farkas, 
 J. B. Foresman, and D. J. Fox, Gaussian, Inc., Wallingford CT, 2019.
 
 ******************************************
 Gaussian 16:  ES64L-G16RevC.01  3-Jul-2019
                18-Nov-2024 
 ******************************************
 %LindaWorkers=c2-28-ib
 %NProcShared=4
 Will use up to    4 processors via shared memory.
 %mem=25GB
 %chk=mol18.chk
 SetLPE:    new flags="-opt 'Tsnet.Node.lindarsharg: ssh'  -nodelist 'c2-28-ib.saga' -env GAUSS_MDEF=3355443200 -env GAUSS_EXEDIR="/cluster/software/Gaussian/g16_C.01/bsd:/cluster/software/Gaussian/g16_C.01""
 Will use up to    1 processors via Linda.
 -----------------------------------------------------------------
 #RHF/6-31G* int=nobasistransform Symmetry=None 5D 7F Pop=NBO7Read
 -----------------------------------------------------------------
 1/38=1,163=2,172=1/1;
 2/12=2,15=3,17=6,18=5,40=1/2;
 3/5=1,6=6,7=1,8=11,11=1,25=1,30=1,60=-1,116=1/1,2,3;
 4//1;
 5/5=2,38=5/2;
 6/7=2,8=2,9=2,10=2,28=1,40=2,113=1,114=1,124=2103/1,12;
 99/5=1,9=1/99;
 ---------
 mol18-NBO
 ---------
 Symbolic Z-matrix:
 Charge =  0 Multiplicity = 1
 P                     0.        0.        0.12462 
 H                     0.        1.20065  -0.6231 
 H                     1.03979  -0.60032  -0.6231 
 H                    -1.03979  -0.60032  -0.6231 
 
                          Input orientation:                          
 ---------------------------------------------------------------------
 Center     Atomic      Atomic             Coordinates (Angstroms)
 Number     Number       Type             X           Y           Z
 ---------------------------------------------------------------------
      1         15           0        0.000000    0.000000    0.124619
      2          1           0        0.000000    1.200647   -0.623095
      3          1           0        1.039791   -0.600323   -0.623095
      4          1           0       -1.039791   -0.600323   -0.623095
 ---------------------------------------------------------------------
                    Distance matrix (angstroms):
                    1          2          3          4
     1  P    0.000000
     2  H    1.414436   0.000000
     3  H    1.414436   2.079581   0.000000
     4  H    1.414436   2.079581   2.079582   0.000000
 Symmetry turned off by external request.
 Stoichiometry    H3P
 Rotational constants (GHZ):         135.8810955         135.8810211         115.9525115
 Standard basis: 6-31G(d) (5D, 7F)
    24 basis functions,    64 primitive gaussians,    25 cartesian basis functions
     9 alpha electrons        9 beta electrons
       nuclear repulsion energy        17.5990571593 Hartrees.
 NAtoms=    4 NActive=    4 NUniq=    4 SFac= 1.00D+00 NAtFMM=   60 NAOKFM=F Big=F
 Integral buffers will be    131072 words long.
 Raffenetti 1 integral format.
 Two-electron integral symmetry is turned off.
 One-electron integrals computed using PRISM.
 NBasis=    24 RedAO= T EigKep=  1.49D-02  NBF=    24
 NBsUse=    24 1.00D-06 EigRej= -1.00D+00 NBFU=    24
 ExpMin= 9.98D-02 ExpMax= 1.94D+04 ExpMxC= 2.91D+03 IAcc=3 IRadAn=         5 AccDes= 0.00D+00
 Harris functional with IExCor=  205 and IRadAn=       5 diagonalized for initial guess.
 HarFok:  IExCor=  205 AccDes= 0.00D+00 IRadAn=         5 IDoV= 1 UseB2=F ITyADJ=14
 ICtDFT=  3500011 ScaDFX=  1.000000  1.000000  1.000000  1.000000
 FoFCou: FMM=F IPFlag=           0 FMFlag=      100000 FMFlg1=           0
         NFxFlg=           0 DoJE=T BraDBF=F KetDBF=T FulRan=T
         wScrn=  0.000000 ICntrl=       500 IOpCl=  0 I1Cent=   200000004 NGrid=           0
         NMat0=    1 NMatS0=      1 NMatT0=    0 NMatD0=    1 NMtDS0=    0 NMtDT0=    0
 Symmetry not used in FoFCou.
 Keep R1 ints in memory in canonical form, NReq=875799.
 Requested convergence on RMS density matrix=1.00D-08 within 128 cycles.
 Requested convergence on MAX density matrix=1.00D-06.
 Requested convergence on             energy=1.00D-06.
 No special actions if energy rises.
 SCF Done:  E(RHF) =  -342.446354953     A.U. after   10 cycles
            NFock= 10  Conv=0.10D-08     -V/T= 1.9996

 **********************************************************************

            Population analysis using the SCF Density.

 **********************************************************************

 Alpha  occ. eigenvalues --  -79.92653  -7.48602  -5.37913  -5.37913  -5.37743
 Alpha  occ. eigenvalues --   -0.85828  -0.52584  -0.52584  -0.38404
 Alpha virt. eigenvalues --    0.16726   0.16726   0.27242   0.44578   0.44578
 Alpha virt. eigenvalues --    0.45293   0.52777   0.89094   0.89094   0.91019
 Alpha virt. eigenvalues --    0.91019   0.93421   1.20242   1.46064   1.46064
          Condensed to atoms (all electrons):
               1          2          3          4
     1  P   13.933473   0.343022   0.343022   0.343022
     2  H    0.343022   0.726321  -0.028428  -0.028428
     3  H    0.343022  -0.028428   0.726321  -0.028428
     4  H    0.343022  -0.028428  -0.028428   0.726321
 Mulliken charges:
               1
     1  P    0.037461
     2  H   -0.012487
     3  H   -0.012487
     4  H   -0.012487
 Sum of Mulliken charges =  -0.00000
 Mulliken charges with hydrogens summed into heavy atoms:
               1
     1  P   -0.000000
 Electronic spatial extent (au):  <R**2>=             55.5113
 Charge=             -0.0000 electrons
 Dipole moment (field-independent basis, Debye):
    X=              0.0000    Y=             -0.0000    Z=             -0.8311  Tot=              0.8311
 Quadrupole moment (field-independent basis, Debye-Ang):
   XX=            -14.8249   YY=            -14.8249   ZZ=            -17.5292
   XY=             -0.0000   XZ=              0.0000   YZ=              0.0000
 Traceless Quadrupole moment (field-independent basis, Debye-Ang):
   XX=              0.9014   YY=              0.9014   ZZ=             -1.8028
   XY=             -0.0000   XZ=              0.0000   YZ=              0.0000
 Octapole moment (field-independent basis, Debye-Ang**2):
  XXX=              0.0000  YYY=             -0.3333  ZZZ=             -2.0099  XYY=              0.0000
  XXY=              0.3333  XXZ=             -0.0619  XZZ=              0.0000  YZZ=             -0.0000
  YYZ=             -0.0619  XYZ=              0.0000
 Hexadecapole moment (field-independent basis, Debye-Ang**3):
 XXXX=            -30.8914 YYYY=            -30.8913 ZZZZ=            -35.7547 XXXY=             -0.0000
 XXXZ=             -0.0000 YYYX=             -0.0000 YYYZ=             -0.2124 ZZZX=              0.0000
 ZZZY=              0.0000 XXYY=            -10.2971 XXZZ=            -10.8868 YYZZ=            -10.8868
 XXYZ=              0.2124 YYXZ=             -0.0000 ZZXY=             -0.0000
 N-N= 1.759905715928D+01 E-N=-8.510054020181D+02  KE= 3.425990788814D+02
 Running external command "gaunbo7 R"
         input file       "/cluster/work/users/beto93/mol18/Gau-945988.EIn"
         output file      "/cluster/work/users/beto93/mol18/Gau-945988.EOu"
         message file     "/cluster/work/users/beto93/mol18/Gau-945988.EMs"
         fchk file        "/cluster/work/users/beto93/mol18/Gau-945988.EFC"
         mat. el file     "/cluster/work/users/beto93/mol18/Gau-945988.EUF"

 Writing WrtUnf unformatted file "/cluster/work/users/beto93/mol18/Gau-945988.EUF"
 Gaussian matrix elements                                         Version   2 NLab=11 Len12L=8 Len4L=8
 Write SHELL TO ATOM MAP                   from file      0 offset           0 length                  11 to matrix element file.
 Write SHELL TYPES                         from file      0 offset           0 length                  11 to matrix element file.
 Write NUMBER OF PRIMITIVES PER SHELL      from file      0 offset           0 length                  11 to matrix element file.
 Write PRIMITIVE EXPONENTS                 from file      0 offset           0 length                  29 to matrix element file.
 Write CONTRACTION COEFFICIENTS            from file      0 offset           0 length                  29 to matrix element file.
 Write P(S=P) CONTRACTION COEFFICIENTS     from file      0 offset           0 length                  29 to matrix element file.
 Write COORDINATES OF EACH SHELL           from file      0 offset           0 length                  33 to matrix element file.
 Write BONDS PER ATOM                      from file      0 offset           0 length                   4 to matrix element file.
 Write BONDED ATOMS                        from file      0 offset           0 length                   6 to matrix element file.
 Write BOND TYPES                          from file      0 offset           0 length                   6 to matrix element file.
 Write ONIOM CHARGE/MULT                   from file      0 offset           0 length                  32 to matrix element file.
 Write ONIOM ATOM LAYERS                   from file      0 offset           0 length                   4 to matrix element file.
 Write ONIOM ATOM MODIFIERS                from file      0 offset           0 length                   4 to matrix element file.
 Write ONIOM ATOM TYPES                    from file      0 offset           0 length                   4 to matrix element file.
 Write ONIOM LINK ATOMS                    from file      0 offset           0 length                   4 to matrix element file.
 Write ONIOM LINK CHARGES                  from file      0 offset           0 length                   4 to matrix element file.
 Write ONIOM LINK DISTANCES                from file      0 offset           0 length                  16 to matrix element file.
 Write SYMINF INTS                         from file      0 offset           0 length                  26 to matrix element file.
 Write ROTTR TO SO                         from file      0 offset           0 length                  12 to matrix element file.
 Write GAUSSIAN SCALARS                    from file    501 offset           0 to matrix element file.
 Write OPTIMIZATION FLAGS                  from file      0 offset           0 length                   4 to matrix element file.
 Write INTEGER ISO                         from file      0 offset           0 length                   4 to matrix element file.
 Write INTEGER SPIN                        from file      0 offset           0 length                   4 to matrix element file.
 Write REAL ZEFFECTIVE                     from file      0 offset           0 length                   4 to matrix element file.
 Write REAL GFACTOR                        from file      0 offset           0 length                   4 to matrix element file.
 Write REAL ZNUCLEAR                       from file      0 offset           0 length                   4 to matrix element file.
 Write MULLIKEN CHARGES                    from file      0 offset           0 length                   4 to matrix element file.
 Write NUCLEAR GRADIENT                    from file  10584 offset           0 length                  12 to matrix element file.
 Array NUCLEAR FORCE CONSTANTS              on  file  10585 does not exist.
 Write ELECTRIC DIPOLE MOMENT              from file      0 offset           0 length                   3 to matrix element file.
 Write NON-ADIABATIC COUPLING              from file  10810 offset           0 length                  12 to matrix element file.
 Write FINITE EM FIELD                     from file  10521 offset           0 length                  35 to matrix element file.
 Write OVERLAP                             from file  10514 offset           0 length                 300 to matrix element file.
 Write CORE HAMILTONIAN ALPHA              from file  10515 offset           0 length                 300 to matrix element file.
 Write CORE HAMILTONIAN BETA               from file  10515 offset         300 length                 300 to matrix element file.
 Write KINETIC ENERGY                      from file  10516 offset           0 length                 300 to matrix element file.
 Write ORTHOGONAL BASIS                    from file  10685 offset           0 length                 576 to matrix element file.
 Write DIPOLE INTEGRALS                    from file  10518 offset           0 length                 900 to matrix element file.
 Array DIP VEL INTEGRALS                    on  file  10572 does not exist.
 Array R X DEL INTEGRALS                    on  file  10572 does not exist.
 Write ALPHA ORBITAL ENERGIES              from file      0 offset           0 length                  24 to matrix element file.
 Write ALPHA MO COEFFICIENTS               from file  10524 offset           0 length                 576 to matrix element file.
 Write ALPHA DENSITY MATRIX                from file      0 offset           0 length                 300 to matrix element file.
 Write ALPHA FOCK MATRIX                   from file  10536 offset           0 length                 300 to matrix element file.
 Write ENERGY-WEIGHTED DENSITY             from file  10571 offset           0 length                 300 to matrix element file.
 Write ALPHA SCF DENSITY MATRIX            from file      0 offset           0 length                 300 to matrix element file.
 No 2e integrals to process.
 Perform NBO analysis...executing G16NBO...

 *********************************** NBO 7.0 ***********************************
             N A T U R A L   A T O M I C   O R B I T A L   A N D
          N A T U R A L   B O N D   O R B I T A L   A N A L Y S I S
 **************************** Espen Tangen (S101595) ***************************
  (c) Copyright 1996-2021 Board of Regents of the University of Wisconsin System
      on behalf of the Theoretical Chemistry Institute.  All rights reserved.

          Cite this program [NBO 7.0.10 (8-Feb-2021)] as:

          NBO 7.0.  E. D. Glendening, J. K. Badenhoop, A. E. Reed,
          J. E. Carpenter, J. A. Bohmann, C. M. Morales, P. Karafiloglou,
          C. R. Landis, and F. Weinhold, Theoretical Chemistry Institute,
          University of Wisconsin, Madison, WI (2018)

       /NPA    / : Natural Population Analysis
       /AOPNAO / : Print the AO to PNAO transformation
       /AONAO  / : Print the AO to NAO transformation
       /AOMO   / : Print the MOs in the AO basis
       /BOAO   / : Print the AO bond-order matrix
       /DMAO   / : Print the AO density matrix
       /DMPNAO / : Print the PNAO density matrix
       /DMNAO  / : Print the NAO density matrix
       /DMMO   / : Print the MO density matrix
       /SAO    / : Print the AO overlap matrix
       /SPNAO  / : Print the PNAO overlap matrix
       /DETAIL / : Write details of NBO search
       /ARCHIVE/ : Write the archive file to lfn47
       /AOINFO / : Write AO information to lfn31
       /FILE   / : Set to mol18.gen*

 Filename set to mol18.gen1

 Job title: mol18-NBO


 MOs in the AO basis:

           AO          1       2       3       4       5       6       7       8
      ------------ ------- ------- ------- ------- ------- ------- ------- -------
   1.  P 1 (s)      0.9968 -0.2762  0.0000  0.0000 -0.0018  0.0614  0.0000  0.0000
   2.  P 1 (s)      0.0118  1.0310  0.0000  0.0000  0.0069 -0.2870  0.0000  0.0000
   3.  P 1 (px)     0.0000  0.0000  0.9941  0.0000  0.0000  0.0000 -0.1796  0.0000
   4.  P 1 (py)     0.0000  0.0000  0.0000  0.9941  0.0000  0.0000  0.0000 -0.1796
   5.  P 1 (pz)    -0.0001 -0.0058  0.0000  0.0000  0.9946  0.0495  0.0000  0.0000
   6.  P 1 (s)     -0.0039  0.0151  0.0000  0.0000 -0.0023  0.5707  0.0000  0.0000
   7.  P 1 (px)     0.0000  0.0000  0.0204  0.0000  0.0000  0.0000  0.4519  0.0000
   8.  P 1 (py)     0.0000  0.0000  0.0000  0.0204  0.0000  0.0000  0.0000  0.4519
   9.  P 1 (pz)     0.0001 -0.0011  0.0000  0.0000  0.0188 -0.1152  0.0000  0.0000
  10.  P 1 (s)      0.0036 -0.0067  0.0000  0.0000  0.0017  0.2246  0.0000  0.0000
  11.  P 1 (px)     0.0000  0.0000 -0.0051  0.0000  0.0000  0.0000  0.0905  0.0000
  12.  P 1 (py)     0.0000  0.0000  0.0000 -0.0051  0.0000  0.0000  0.0000  0.0905
  13.  P 1 (pz)    -0.0009  0.0017  0.0000  0.0000 -0.0048 -0.0077  0.0000  0.0000
  14.  P 1 (d5)     0.0000 -0.0002  0.0000  0.0000 -0.0005 -0.0054  0.0000  0.0000
  15.  P 1 (d2)     0.0000  0.0000 -0.0010  0.0000  0.0000  0.0000 -0.0841  0.0000
  16.  P 1 (d3)     0.0000  0.0000  0.0000 -0.0010  0.0000  0.0000  0.0000 -0.0841
  17.  P 1 (d4)     0.0000  0.0000  0.0000 -0.0004  0.0000  0.0000  0.0000 -0.0625
  18.  P 1 (d1)     0.0000  0.0000 -0.0004  0.0000  0.0000  0.0000 -0.0625  0.0000
  19.  H 2 (s)      0.0003 -0.0001  0.0000 -0.0004  0.0001  0.1366  0.0000  0.2735
  20.  H 2 (s)     -0.0010  0.0015  0.0000  0.0007 -0.0007  0.0679  0.0000  0.3202
  21.  H 3 (s)      0.0003 -0.0001 -0.0003  0.0002  0.0001  0.1366  0.2369 -0.1368
  22.  H 3 (s)     -0.0010  0.0015  0.0006 -0.0003 -0.0007  0.0679  0.2773 -0.1601
  23.  H 4 (s)      0.0003 -0.0001  0.0003  0.0002  0.0001  0.1366 -0.2369 -0.1368
  24.  H 4 (s)     -0.0010  0.0015 -0.0006 -0.0003 -0.0007  0.0679 -0.2773 -0.1601

           AO          9      10      11      12      13      14      15      16
      ------------ ------- ------- ------- ------- ------- ------- ------- -------
   1.  P 1 (s)      0.0290  0.0000  0.0000  0.0555  0.0000  0.0000  0.0119 -0.0499
   2.  P 1 (s)     -0.1332  0.0000  0.0000 -0.1932  0.0000  0.0000  0.0553 -0.0820
   3.  P 1 (px)     0.0000  0.0000 -0.1111  0.0000 -0.2876  0.0000  0.0000  0.0000
   4.  P 1 (py)     0.0000 -0.1111  0.0000  0.0000  0.0000 -0.2876  0.0000  0.0000
   5.  P 1 (pz)    -0.2070  0.0000  0.0000  0.0790  0.0000  0.0000  0.2520  0.1333
   6.  P 1 (s)      0.3130  0.0000  0.0000  0.8937  0.0000  0.0000  0.5349 -1.7175
   7.  P 1 (px)     0.0000  0.0000  0.2752  0.0000  1.2351  0.0000  0.0000  0.0000
   8.  P 1 (py)     0.0000  0.2752  0.0000  0.0000  0.0000  1.2351  0.0000  0.0000
   9.  P 1 (pz)     0.5378  0.0000  0.0000 -0.2535  0.0000  0.0000 -1.1144 -0.5298
  10.  P 1 (s)      0.2859  0.0000  0.0000  1.3017  0.0000  0.0000 -1.8238  4.6980
  11.  P 1 (px)     0.0000  0.0000  1.2834  0.0000 -1.0427  0.0000  0.0000  0.0000
  12.  P 1 (py)     0.0000  1.2834  0.0000  0.0000  0.0000 -1.0427  0.0000  0.0000
  13.  P 1 (pz)     0.3293  0.0000  0.0000 -1.1887  0.0000  0.0000  1.8829 -1.2272
  14.  P 1 (d5)    -0.0070  0.0000  0.0000  0.0275  0.0000  0.0000 -0.0310  0.1237
  15.  P 1 (d2)     0.0000  0.0000  0.0831  0.0000 -0.0657  0.0000  0.0000  0.0000
  16.  P 1 (d3)     0.0000  0.0831  0.0000  0.0000  0.0000 -0.0657  0.0000  0.0000
  17.  P 1 (d4)     0.0000  0.0790  0.0000  0.0000  0.0000 -0.0421  0.0000  0.0000
  18.  P 1 (d1)     0.0000  0.0000  0.0790  0.0000 -0.0421  0.0000  0.0000  0.0000
  19.  H 2 (s)     -0.0964 -0.1470  0.0000 -0.0310  0.0000  0.1052  0.0933 -0.1004
  20.  H 2 (s)     -0.1091 -1.1358  0.0000 -1.1846  0.0000 -0.2730  0.6542 -1.5730
  21.  H 3 (s)     -0.0964  0.0735 -0.1273 -0.0310  0.0911 -0.0526  0.0933 -0.1004
  22.  H 3 (s)     -0.1091  0.5679 -0.9837 -1.1846 -0.2364  0.1365  0.6542 -1.5730
  23.  H 4 (s)     -0.0964  0.0735  0.1273 -0.0310 -0.0911 -0.0526  0.0933 -0.1004
  24.  H 4 (s)     -0.1091  0.5679  0.9837 -1.1846  0.2364  0.1365  0.6542 -1.5730

           AO         17      18      19      20      21      22      23      24
      ------------ ------- ------- ------- ------- ------- ------- ------- -------
   1.  P 1 (s)      0.0000  0.0000  0.0000  0.0000 -0.0091 -0.0342  0.0000  0.0000
   2.  P 1 (s)      0.0000  0.0000  0.0000  0.0000 -0.0261  0.0517  0.0000  0.0000
   3.  P 1 (px)     0.0000 -0.1014 -0.0328  0.0000  0.0000  0.0000  0.0000  0.0903
   4.  P 1 (py)    -0.1014  0.0000  0.0000 -0.0328  0.0000  0.0000  0.0903  0.0000
   5.  P 1 (pz)     0.0000  0.0000  0.0000  0.0000  0.0074 -0.1071  0.0000  0.0000
   6.  P 1 (s)      0.0000  0.0000  0.0000  0.0000 -0.3498 -0.7926  0.0000  0.0000
   7.  P 1 (px)     0.0000  0.3634  0.1185  0.0000  0.0000  0.0000  0.0000 -0.3005
   8.  P 1 (py)     0.3634  0.0000  0.0000  0.1185  0.0000  0.0000 -0.3005  0.0000
   9.  P 1 (pz)     0.0000  0.0000  0.0000  0.0000 -0.0260  0.3645  0.0000  0.0000
  10.  P 1 (s)      0.0000  0.0000  0.0000  0.0000  1.2707  2.9355  0.0000  0.0000
  11.  P 1 (px)     0.0000 -1.0397 -0.2925  0.0000  0.0000  0.0000  0.0000  0.2438
  12.  P 1 (py)    -1.0397  0.0000  0.0000 -0.2925  0.0000  0.0000  0.2438  0.0000
  13.  P 1 (pz)     0.0000  0.0000  0.0000  0.0000 -0.5109 -1.2896  0.0000  0.0000
  14.  P 1 (d5)     0.0000  0.0000  0.0000  0.0000 -0.9937  0.0535  0.0000  0.0000
  15.  P 1 (d2)     0.0000  0.3768  0.7606  0.0000  0.0000  0.0000  0.0000  0.6252
  16.  P 1 (d3)     0.3768  0.0000  0.0000  0.7606  0.0000  0.0000  0.6252  0.0000
  17.  P 1 (d4)     0.6551  0.0000  0.0000 -0.6222  0.0000  0.0000  0.5053  0.0000
  18.  P 1 (d1)     0.0000  0.6551 -0.6222  0.0000  0.0000  0.0000  0.0000  0.5053
  19.  H 2 (s)     -0.5590  0.0000  0.0000 -0.1566  0.0148  0.7999  1.0090  0.0000
  20.  H 2 (s)      1.4157  0.0000  0.0000  0.3903 -0.5228 -1.6383 -0.7787  0.0000
  21.  H 3 (s)      0.2795 -0.4841 -0.1356  0.0783  0.0148  0.7999 -0.5045  0.8738
  22.  H 3 (s)     -0.7078  1.2260  0.3380 -0.1952 -0.5227 -1.6383  0.3893 -0.6743
  23.  H 4 (s)      0.2795  0.4841  0.1356  0.0783  0.0148  0.7999 -0.5045 -0.8738
  24.  H 4 (s)     -0.7078 -1.2260 -0.3380 -0.1952 -0.5227 -1.6383  0.3893  0.6743


 AO overlap matrix:

           AO          1       2       3       4       5       6       7       8
      ------------ ------- ------- ------- ------- ------- ------- ------- -------
   1.  P 1 (s)      1.0000  0.2575  0.0000  0.0000  0.0000  0.0061  0.0000  0.0000
   2.  P 1 (s)      0.2575  1.0000  0.0000  0.0000  0.0000  0.3043  0.0000  0.0000
   3.  P 1 (px)     0.0000  0.0000  1.0000  0.0000  0.0000  0.0000  0.2976  0.0000
   4.  P 1 (py)     0.0000  0.0000  0.0000  1.0000  0.0000  0.0000  0.0000  0.2976
   5.  P 1 (pz)     0.0000  0.0000  0.0000  0.0000  1.0000  0.0000  0.0000  0.0000
   6.  P 1 (s)      0.0061  0.3043  0.0000  0.0000  0.0000  1.0000  0.0000  0.0000
   7.  P 1 (px)     0.0000  0.0000  0.2976  0.0000  0.0000  0.0000  1.0000  0.0000
   8.  P 1 (py)     0.0000  0.0000  0.0000  0.2976  0.0000  0.0000  0.0000  1.0000
   9.  P 1 (pz)     0.0000  0.0000  0.0000  0.0000  0.2976  0.0000  0.0000  0.0000
  10.  P 1 (s)      0.0317  0.2529  0.0000  0.0000  0.0000  0.8398  0.0000  0.0000
  11.  P 1 (px)     0.0000  0.0000  0.0733  0.0000  0.0000  0.0000  0.6567  0.0000
  12.  P 1 (py)     0.0000  0.0000  0.0000  0.0733  0.0000  0.0000  0.0000  0.6567
  13.  P 1 (pz)     0.0000  0.0000  0.0000  0.0000  0.0733  0.0000  0.0000  0.0000
  14.  P 1 (d5)     0.0000  0.0000  0.0000  0.0000  0.0000  0.0000  0.0000  0.0000
  15.  P 1 (d2)     0.0000  0.0000  0.0000  0.0000  0.0000  0.0000  0.0000  0.0000
  16.  P 1 (d3)     0.0000  0.0000  0.0000  0.0000  0.0000  0.0000  0.0000  0.0000
  17.  P 1 (d4)     0.0000  0.0000  0.0000  0.0000  0.0000  0.0000  0.0000  0.0000
  18.  P 1 (d1)     0.0000  0.0000  0.0000  0.0000  0.0000  0.0000  0.0000  0.0000
  19.  H 2 (s)      0.0012  0.0184  0.0000  0.0191 -0.0119  0.2076  0.0000  0.2980
  20.  H 2 (s)      0.0144  0.1194  0.0000  0.0389 -0.0242  0.4665  0.0000  0.3598
  21.  H 3 (s)      0.0012  0.0184  0.0165 -0.0096 -0.0119  0.2076  0.2581 -0.1490
  22.  H 3 (s)      0.0144  0.1194  0.0337 -0.0195 -0.0242  0.4665  0.3116 -0.1799
  23.  H 4 (s)      0.0012  0.0184 -0.0165 -0.0096 -0.0119  0.2076 -0.2581 -0.1490
  24.  H 4 (s)      0.0144  0.1194 -0.0337 -0.0195 -0.0242  0.4665 -0.3116 -0.1799

           AO          9      10      11      12      13      14      15      16
      ------------ ------- ------- ------- ------- ------- ------- ------- -------
   1.  P 1 (s)      0.0000  0.0317  0.0000  0.0000  0.0000  0.0000  0.0000  0.0000
   2.  P 1 (s)      0.0000  0.2529  0.0000  0.0000  0.0000  0.0000  0.0000  0.0000
   3.  P 1 (px)     0.0000  0.0000  0.0733  0.0000  0.0000  0.0000  0.0000  0.0000
   4.  P 1 (py)     0.0000  0.0000  0.0000  0.0733  0.0000  0.0000  0.0000  0.0000
   5.  P 1 (pz)     0.2976  0.0000  0.0000  0.0000  0.0733  0.0000  0.0000  0.0000
   6.  P 1 (s)      0.0000  0.8398  0.0000  0.0000  0.0000  0.0000  0.0000  0.0000
   7.  P 1 (px)     0.0000  0.0000  0.6567  0.0000  0.0000  0.0000  0.0000  0.0000
   8.  P 1 (py)     0.0000  0.0000  0.0000  0.6567  0.0000  0.0000  0.0000  0.0000
   9.  P 1 (pz)     1.0000  0.0000  0.0000  0.0000  0.6567  0.0000  0.0000  0.0000
  10.  P 1 (s)      0.0000  1.0000  0.0000  0.0000  0.0000  0.0000  0.0000  0.0000
  11.  P 1 (px)     0.0000  0.0000  1.0000  0.0000  0.0000  0.0000  0.0000  0.0000
  12.  P 1 (py)     0.0000  0.0000  0.0000  1.0000  0.0000  0.0000  0.0000  0.0000
  13.  P 1 (pz)     0.6567  0.0000  0.0000  0.0000  1.0000  0.0000  0.0000  0.0000
  14.  P 1 (d5)     0.0000  0.0000  0.0000  0.0000  0.0000  1.0000  0.0000  0.0000
  15.  P 1 (d2)     0.0000  0.0000  0.0000  0.0000  0.0000  0.0000  1.0000  0.0000
  16.  P 1 (d3)     0.0000  0.0000  0.0000  0.0000  0.0000  0.0000  0.0000  1.0000
  17.  P 1 (d4)     0.0000  0.0000  0.0000  0.0000  0.0000  0.0000  0.0000  0.0000
  18.  P 1 (d1)     0.0000  0.0000  0.0000  0.0000  0.0000  0.0000  0.0000  0.0000
  19.  H 2 (s)     -0.1856  0.2747  0.0000  0.3446 -0.2146 -0.0237  0.0000 -0.2281
  20.  H 2 (s)     -0.2241  0.6168  0.0000  0.5462 -0.3401 -0.0119  0.0000 -0.1140
  21.  H 3 (s)     -0.1856  0.2747  0.2984 -0.1723 -0.2146 -0.0237 -0.1976  0.1141
  22.  H 3 (s)     -0.2241  0.6168  0.4730 -0.2731 -0.3401 -0.0119 -0.0987  0.0570
  23.  H 4 (s)     -0.1856  0.2747 -0.2984 -0.1723 -0.2146 -0.0237  0.1976  0.1141
  24.  H 4 (s)     -0.2241  0.6168 -0.4730 -0.2731 -0.3401 -0.0119  0.0987  0.0570

           AO         17      18      19      20      21      22      23      24
      ------------ ------- ------- ------- ------- ------- ------- ------- -------
   1.  P 1 (s)      0.0000  0.0000  0.0012  0.0144  0.0012  0.0144  0.0012  0.0144
   2.  P 1 (s)      0.0000  0.0000  0.0184  0.1194  0.0184  0.1194  0.0184  0.1194
   3.  P 1 (px)     0.0000  0.0000  0.0000  0.0000  0.0165  0.0337 -0.0165 -0.0337
   4.  P 1 (py)     0.0000  0.0000  0.0191  0.0389 -0.0096 -0.0195 -0.0096 -0.0195
   5.  P 1 (pz)     0.0000  0.0000 -0.0119 -0.0242 -0.0119 -0.0242 -0.0119 -0.0242
   6.  P 1 (s)      0.0000  0.0000  0.2076  0.4665  0.2076  0.4665  0.2076  0.4665
   7.  P 1 (px)     0.0000  0.0000  0.0000  0.0000  0.2581  0.3116 -0.2581 -0.3116
   8.  P 1 (py)     0.0000  0.0000  0.2980  0.3598 -0.1490 -0.1799 -0.1490 -0.1799
   9.  P 1 (pz)     0.0000  0.0000 -0.1856 -0.2241 -0.1856 -0.2241 -0.1856 -0.2241
  10.  P 1 (s)      0.0000  0.0000  0.2747  0.6168  0.2747  0.6168  0.2747  0.6168
  11.  P 1 (px)     0.0000  0.0000  0.0000  0.0000  0.2984  0.4730 -0.2984 -0.4730
  12.  P 1 (py)     0.0000  0.0000  0.3446  0.5462 -0.1723 -0.2731 -0.1723 -0.2731
  13.  P 1 (pz)     0.0000  0.0000 -0.2146 -0.3401 -0.2146 -0.3401 -0.2146 -0.3401
  14.  P 1 (d5)     0.0000  0.0000 -0.0237 -0.0119 -0.0237 -0.0119 -0.0237 -0.0119
  15.  P 1 (d2)     0.0000  0.0000  0.0000  0.0000 -0.1976 -0.0987  0.1976  0.0987
  16.  P 1 (d3)     0.0000  0.0000 -0.2281 -0.1140  0.1141  0.0570  0.1141  0.0570
  17.  P 1 (d4)     1.0000  0.0000 -0.1832 -0.0915  0.0916  0.0458  0.0916  0.0458
  18.  P 1 (d1)     0.0000  1.0000  0.0000  0.0000 -0.1586 -0.0793  0.1586  0.0793
  19.  H 2 (s)     -0.1832  0.0000  1.0000  0.6583  0.0048  0.0869  0.0048  0.0869
  20.  H 2 (s)     -0.0915  0.0000  0.6583  1.0000  0.0869  0.2878  0.0869  0.2878
  21.  H 3 (s)      0.0916 -0.1586  0.0048  0.0869  1.0000  0.6583  0.0048  0.0869
  22.  H 3 (s)      0.0458 -0.0793  0.0869  0.2878  0.6583  1.0000  0.0869  0.2878
  23.  H 4 (s)      0.0916  0.1586  0.0048  0.0869  0.0048  0.0869  1.0000  0.6583
  24.  H 4 (s)      0.0458  0.0793  0.0869  0.2878  0.0869  0.2878  0.6583  1.0000


 AO bond-order matrix:

           AO          1       2       3       4       5       6       7       8
      ------------ ------- ------- ------- ------- ------- ------- ------- -------
   1.  P 1 (s)      2.1492 -0.5890  0.0000  0.0000 -0.0065  0.0722  0.0000  0.0000
   2.  P 1 (s)     -0.5890  2.3267  0.0000  0.0000  0.0285 -0.3799  0.0000  0.0000
   3.  P 1 (px)     0.0000  0.0000  2.0412  0.0000  0.0000  0.0000 -0.1219  0.0000
   4.  P 1 (py)     0.0000  0.0000  0.0000  2.0412  0.0000  0.0000  0.0000 -0.1219
   5.  P 1 (pz)    -0.0065  0.0285  0.0000  0.0000  2.0690 -0.0778  0.0000  0.0000
   6.  P 1 (s)      0.0722 -0.3799  0.0000  0.0000 -0.0778  0.8479  0.0000  0.0000
   7.  P 1 (px)     0.0000  0.0000 -0.1219  0.0000  0.0000  0.0000  0.4092  0.0000
   8.  P 1 (py)     0.0000  0.0000  0.0000 -0.1219  0.0000  0.0000  0.0000  0.4092
   9.  P 1 (pz)     0.0179 -0.0792  0.0000  0.0000 -0.1967  0.2051  0.0000  0.0000
  10.  P 1 (s)      0.0552 -0.2189  0.0000  0.0000 -0.0927  0.4351  0.0000  0.0000
  11.  P 1 (px)     0.0000  0.0000 -0.0426  0.0000  0.0000  0.0000  0.0816  0.0000
  12.  P 1 (py)     0.0000  0.0000  0.0000 -0.0426  0.0000  0.0000  0.0000  0.0816
  13.  P 1 (pz)     0.0155 -0.0798  0.0000  0.0000 -0.1466  0.1974  0.0000  0.0000
  14.  P 1 (d5)    -0.0010  0.0046  0.0000  0.0000  0.0013 -0.0105  0.0000  0.0000
  15.  P 1 (d2)     0.0000  0.0000  0.0283  0.0000  0.0000  0.0000 -0.0761  0.0000
  16.  P 1 (d3)     0.0000  0.0000  0.0000  0.0283  0.0000  0.0000  0.0000 -0.0761
  17.  P 1 (d4)     0.0000  0.0000  0.0000  0.0217  0.0000  0.0000  0.0000 -0.0565
  18.  P 1 (d1)     0.0000  0.0000  0.0217  0.0000  0.0000  0.0000 -0.0565  0.0000
  19.  H 2 (s)      0.0119 -0.0529  0.0000 -0.0990  0.0536  0.0955  0.0000  0.2472
  20.  H 2 (s)     -0.0008 -0.0068  0.0000 -0.1137  0.0506  0.0092  0.0000  0.2894
  21.  H 3 (s)      0.0119 -0.0529 -0.0858  0.0495  0.0536  0.0955  0.2141 -0.1236
  22.  H 3 (s)     -0.0008 -0.0068 -0.0985  0.0569  0.0506  0.0092  0.2506 -0.1447
  23.  H 4 (s)      0.0119 -0.0529  0.0858  0.0495  0.0536  0.0955 -0.2141 -0.1236
  24.  H 4 (s)     -0.0008 -0.0068  0.0985  0.0569  0.0506  0.0092 -0.2506 -0.1447

           AO          9      10      11      12      13      14      15      16
      ------------ ------- ------- ------- ------- ------- ------- ------- -------
   1.  P 1 (s)      0.0179  0.0552  0.0000  0.0000  0.0155 -0.0010  0.0000  0.0000
   2.  P 1 (s)     -0.0792 -0.2189  0.0000  0.0000 -0.0798  0.0046  0.0000  0.0000
   3.  P 1 (px)     0.0000  0.0000 -0.0426  0.0000  0.0000  0.0000  0.0283  0.0000
   4.  P 1 (py)     0.0000  0.0000  0.0000 -0.0426  0.0000  0.0000  0.0000  0.0283
   5.  P 1 (pz)    -0.1967 -0.0927  0.0000  0.0000 -0.1466  0.0013  0.0000  0.0000
   6.  P 1 (s)      0.2051  0.4351  0.0000  0.0000  0.1974 -0.0105  0.0000  0.0000
   7.  P 1 (px)     0.0000  0.0000  0.0816  0.0000  0.0000  0.0000 -0.0761  0.0000
   8.  P 1 (py)     0.0000  0.0000  0.0000  0.0816  0.0000  0.0000  0.0000 -0.0761
   9.  P 1 (pz)     0.6058  0.2559  0.0000  0.0000  0.3558 -0.0063  0.0000  0.0000
  10.  P 1 (s)      0.2559  0.2645  0.0000  0.0000  0.1848 -0.0064  0.0000  0.0000
  11.  P 1 (px)     0.0000  0.0000  0.0164  0.0000  0.0000  0.0000 -0.0152  0.0000
  12.  P 1 (py)     0.0000  0.0000  0.0000  0.0164  0.0000  0.0000  0.0000 -0.0152
  13.  P 1 (pz)     0.3558  0.1848  0.0000  0.0000  0.2170 -0.0045  0.0000  0.0000
  14.  P 1 (d5)    -0.0063 -0.0064  0.0000  0.0000 -0.0045  0.0002  0.0000  0.0000
  15.  P 1 (d2)     0.0000  0.0000 -0.0152  0.0000  0.0000  0.0000  0.0142  0.0000
  16.  P 1 (d3)     0.0000  0.0000  0.0000 -0.0152  0.0000  0.0000  0.0000  0.0142
  17.  P 1 (d4)     0.0000  0.0000  0.0000 -0.0113  0.0000  0.0000  0.0000  0.0105
  18.  P 1 (d1)     0.0000  0.0000 -0.0113  0.0000  0.0000  0.0000  0.0105  0.0000
  19.  H 2 (s)     -0.1352  0.0062  0.0000  0.0495 -0.0656 -0.0001  0.0000 -0.0460
  20.  H 2 (s)     -0.1331 -0.0319  0.0000  0.0579 -0.0729  0.0008  0.0000 -0.0539
  21.  H 3 (s)     -0.1352  0.0062  0.0429 -0.0248 -0.0656 -0.0001 -0.0399  0.0230
  22.  H 3 (s)     -0.1331 -0.0319  0.0502 -0.0290 -0.0729  0.0008 -0.0467  0.0269
  23.  H 4 (s)     -0.1352  0.0062 -0.0429 -0.0248 -0.0656 -0.0001  0.0399  0.0230
  24.  H 4 (s)     -0.1331 -0.0319 -0.0502 -0.0290 -0.0729  0.0008  0.0467  0.0269

           AO         17      18      19      20      21      22      23      24
      ------------ ------- ------- ------- ------- ------- ------- ------- -------
   1.  P 1 (s)      0.0000  0.0000  0.0119 -0.0008  0.0119 -0.0008  0.0119 -0.0008
   2.  P 1 (s)      0.0000  0.0000 -0.0529 -0.0068 -0.0529 -0.0068 -0.0529 -0.0068
   3.  P 1 (px)     0.0000  0.0217  0.0000  0.0000 -0.0858 -0.0985  0.0858  0.0985
   4.  P 1 (py)     0.0217  0.0000 -0.0990 -0.1137  0.0495  0.0569  0.0495  0.0569
   5.  P 1 (pz)     0.0000  0.0000  0.0536  0.0506  0.0536  0.0506  0.0536  0.0506
   6.  P 1 (s)      0.0000  0.0000  0.0955  0.0092  0.0955  0.0092  0.0955  0.0092
   7.  P 1 (px)     0.0000 -0.0565  0.0000  0.0000  0.2141  0.2506 -0.2141 -0.2506
   8.  P 1 (py)    -0.0565  0.0000  0.2472  0.2894 -0.1236 -0.1447 -0.1236 -0.1447
   9.  P 1 (pz)     0.0000  0.0000 -0.1352 -0.1331 -0.1352 -0.1331 -0.1352 -0.1331
  10.  P 1 (s)      0.0000  0.0000  0.0062 -0.0319  0.0062 -0.0319  0.0062 -0.0319
  11.  P 1 (px)     0.0000 -0.0113  0.0000  0.0000  0.0429  0.0502 -0.0429 -0.0502
  12.  P 1 (py)    -0.0113  0.0000  0.0495  0.0579 -0.0248 -0.0290 -0.0248 -0.0290
  13.  P 1 (pz)     0.0000  0.0000 -0.0656 -0.0729 -0.0656 -0.0729 -0.0656 -0.0729
  14.  P 1 (d5)     0.0000  0.0000 -0.0001  0.0008 -0.0001  0.0008 -0.0001  0.0008
  15.  P 1 (d2)     0.0000  0.0105  0.0000  0.0000 -0.0399 -0.0467  0.0399  0.0467
  16.  P 1 (d3)     0.0105  0.0000 -0.0460 -0.0539  0.0230  0.0269  0.0230  0.0269
  17.  P 1 (d4)     0.0078  0.0000 -0.0342 -0.0400  0.0171  0.0200  0.0171  0.0200
  18.  P 1 (d1)     0.0000  0.0078  0.0000  0.0000 -0.0296 -0.0347  0.0296  0.0347
  19.  H 2 (s)     -0.0342  0.0000  0.2055  0.2147 -0.0189 -0.0480 -0.0189 -0.0480
  20.  H 2 (s)     -0.0400  0.0000  0.2147  0.2381 -0.0480 -0.0695 -0.0480 -0.0695
  21.  H 3 (s)      0.0171 -0.0296 -0.0189 -0.0480  0.2055  0.2147 -0.0189 -0.0480
  22.  H 3 (s)      0.0200 -0.0347 -0.0480 -0.0695  0.2147  0.2381 -0.0480 -0.0695
  23.  H 4 (s)      0.0171  0.0296 -0.0189 -0.0480 -0.0189 -0.0480  0.2055  0.2147
  24.  H 4 (s)      0.0200  0.0347 -0.0480 -0.0695 -0.0480 -0.0695  0.2147  0.2381


 AO density matrix:

           AO          1       2       3       4       5       6       7       8
      ------------ ------- ------- ------- ------- ------- ------- ------- -------
   1.  P 1 (s)      2.0000  0.5150  0.0000  0.0000  0.0000  0.0113  0.0000  0.0000
   2.  P 1 (s)      0.5150  2.0000  0.0000  0.0000  0.0000  0.6109  0.0000  0.0000
   3.  P 1 (px)     0.0000  0.0000  1.9997  0.0000  0.0000  0.0000  0.6080  0.0000
   4.  P 1 (py)     0.0000  0.0000  0.0000  1.9997  0.0000  0.0000  0.0000  0.6080
   5.  P 1 (pz)     0.0000  0.0000  0.0000  0.0000  1.9998 -0.0019  0.0000  0.0000
   6.  P 1 (s)      0.0113  0.6109  0.0000  0.0000 -0.0019  1.8430  0.0000  0.0000
   7.  P 1 (px)     0.0000  0.0000  0.6080  0.0000  0.0000  0.0000  1.3298  0.0000
   8.  P 1 (py)     0.0000  0.0000  0.0000  0.6080  0.0000  0.0000  0.0000  1.3298
   9.  P 1 (pz)     0.0005 -0.0016  0.0000  0.0000  0.6031  0.1028  0.0000  0.0000
  10.  P 1 (s)      0.0642  0.5035  0.0000  0.0000  0.0005  1.7959  0.0000  0.0000
  11.  P 1 (px)     0.0000  0.0000  0.1444  0.0000  0.0000  0.0000  1.2222  0.0000
  12.  P 1 (py)     0.0000  0.0000  0.0000  0.1444  0.0000  0.0000  0.0000  1.2222
  13.  P 1 (pz)     0.0004 -0.0009  0.0000  0.0000  0.1407  0.0999  0.0000  0.0000
  14.  P 1 (d5)     0.0000 -0.0001  0.0000  0.0000 -0.0013 -0.0277  0.0000  0.0000
  15.  P 1 (d2)     0.0000  0.0000  0.0037  0.0000  0.0000  0.0000 -0.3507  0.0000
  16.  P 1 (d3)     0.0000  0.0000  0.0000  0.0037  0.0000  0.0000  0.0000 -0.3507
  17.  P 1 (d4)     0.0000  0.0000  0.0000  0.0037  0.0000  0.0000  0.0000 -0.2737
  18.  P 1 (d1)     0.0000  0.0000  0.0037  0.0000  0.0000  0.0000 -0.2737  0.0000
  19.  H 2 (s)      0.0029  0.0351  0.0000  0.0317 -0.0208  0.5529  0.0000  0.9909
  20.  H 2 (s)      0.0294  0.2369  0.0000  0.0728 -0.0454  1.0328  0.0000  0.9378
  21.  H 3 (s)      0.0029  0.0351  0.0274 -0.0158 -0.0208  0.5529  0.8581 -0.4954
  22.  H 3 (s)      0.0294  0.2369  0.0631 -0.0364 -0.0454  1.0328  0.8122 -0.4689
  23.  H 4 (s)      0.0029  0.0351 -0.0274 -0.0158 -0.0208  0.5529 -0.8581 -0.4954
  24.  H 4 (s)      0.0294  0.2369 -0.0631 -0.0364 -0.0454  1.0328 -0.8122 -0.4689

           AO          9      10      11      12      13      14      15      16
      ------------ ------- ------- ------- ------- ------- ------- ------- -------
   1.  P 1 (s)      0.0005  0.0642  0.0000  0.0000  0.0004  0.0000  0.0000  0.0000
   2.  P 1 (s)     -0.0016  0.5035  0.0000  0.0000 -0.0009 -0.0001  0.0000  0.0000
   3.  P 1 (px)     0.0000  0.0000  0.1444  0.0000  0.0000  0.0000  0.0037  0.0000
   4.  P 1 (py)     0.0000  0.0000  0.0000  0.1444  0.0000  0.0000  0.0000  0.0037
   5.  P 1 (pz)     0.6031  0.0005  0.0000  0.0000  0.1407 -0.0013  0.0000  0.0000
   6.  P 1 (s)      0.1028  1.7959  0.0000  0.0000  0.0999 -0.0277  0.0000  0.0000
   7.  P 1 (px)     0.0000  0.0000  1.2222  0.0000  0.0000  0.0000 -0.3507  0.0000
   8.  P 1 (py)     0.0000  0.0000  0.0000  1.2222  0.0000  0.0000  0.0000 -0.3507
   9.  P 1 (pz)     1.6412 -0.0127  0.0000  0.0000  1.5363  0.0138  0.0000  0.0000
  10.  P 1 (s)     -0.0127  1.7673  0.0000  0.0000 -0.0189 -0.0289  0.0000  0.0000
  11.  P 1 (px)     0.0000  0.0000  1.2232  0.0000  0.0000  0.0000 -0.3618  0.0000
  12.  P 1 (py)     0.0000  0.0000  0.0000  1.2232  0.0000  0.0000  0.0000 -0.3618
  13.  P 1 (pz)     1.5363 -0.0189  0.0000  0.0000  1.5392  0.0146  0.0000  0.0000
  14.  P 1 (d5)     0.0138 -0.0289  0.0000  0.0000  0.0146  0.0006  0.0000  0.0000
  15.  P 1 (d2)     0.0000  0.0000 -0.3618  0.0000  0.0000  0.0000  0.1081  0.0000
  16.  P 1 (d3)     0.0000  0.0000  0.0000 -0.3618  0.0000  0.0000  0.0000  0.1081
  17.  P 1 (d4)     0.0000  0.0000  0.0000 -0.2826  0.0000  0.0000  0.0000  0.0845
  18.  P 1 (d1)     0.0000  0.0000 -0.2826  0.0000  0.0000  0.0000  0.0845  0.0000
  19.  H 2 (s)     -0.5396  0.5933  0.0000  1.0122 -0.5495 -0.0153  0.0000 -0.3014
  20.  H 2 (s)     -0.5820  1.0641  0.0000  0.9477 -0.5885 -0.0230  0.0000 -0.2812
  21.  H 3 (s)     -0.5396  0.5933  0.8766 -0.5061 -0.5495 -0.0153 -0.2611  0.1507
  22.  H 3 (s)     -0.5820  1.0641  0.8207 -0.4738 -0.5885 -0.0230 -0.2435  0.1406
  23.  H 4 (s)     -0.5396  0.5933 -0.8766 -0.5061 -0.5495 -0.0153  0.2611  0.1507
  24.  H 4 (s)     -0.5820  1.0641 -0.8207 -0.4738 -0.5885 -0.0230  0.2435  0.1406

           AO         17      18      19      20      21      22      23      24
      ------------ ------- ------- ------- ------- ------- ------- ------- -------
   1.  P 1 (s)      0.0000  0.0000  0.0029  0.0294  0.0029  0.0294  0.0029  0.0294
   2.  P 1 (s)      0.0000  0.0000  0.0351  0.2369  0.0351  0.2369  0.0351  0.2369
   3.  P 1 (px)     0.0000  0.0037  0.0000  0.0000  0.0274  0.0631 -0.0274 -0.0631
   4.  P 1 (py)     0.0037  0.0000  0.0317  0.0728 -0.0158 -0.0364 -0.0158 -0.0364
   5.  P 1 (pz)     0.0000  0.0000 -0.0208 -0.0454 -0.0208 -0.0454 -0.0208 -0.0454
   6.  P 1 (s)      0.0000  0.0000  0.5529  1.0328  0.5529  1.0328  0.5529  1.0328
   7.  P 1 (px)     0.0000 -0.2737  0.0000  0.0000  0.8581  0.8122 -0.8581 -0.8122
   8.  P 1 (py)    -0.2737  0.0000  0.9909  0.9378 -0.4954 -0.4689 -0.4954 -0.4689
   9.  P 1 (pz)     0.0000  0.0000 -0.5396 -0.5820 -0.5396 -0.5820 -0.5396 -0.5820
  10.  P 1 (s)      0.0000  0.0000  0.5933  1.0641  0.5933  1.0641  0.5933  1.0641
  11.  P 1 (px)     0.0000 -0.2826  0.0000  0.0000  0.8766  0.8207 -0.8766 -0.8207
  12.  P 1 (py)    -0.2826  0.0000  1.0122  0.9477 -0.5061 -0.4738 -0.5061 -0.4738
  13.  P 1 (pz)     0.0000  0.0000 -0.5495 -0.5885 -0.5495 -0.5885 -0.5495 -0.5885
  14.  P 1 (d5)     0.0000  0.0000 -0.0153 -0.0230 -0.0153 -0.0230 -0.0153 -0.0230
  15.  P 1 (d2)     0.0000  0.0845  0.0000  0.0000 -0.2611 -0.2435  0.2611  0.2435
  16.  P 1 (d3)     0.0845  0.0000 -0.3014 -0.2812  0.1507  0.1406  0.1507  0.1406
  17.  P 1 (d4)     0.0660  0.0000 -0.2355 -0.2197  0.1177  0.1098  0.1177  0.1098
  18.  P 1 (d1)     0.0000  0.0660  0.0000  0.0000 -0.2039 -0.1902  0.2039  0.1902
  19.  H 2 (s)     -0.2355  0.0000  1.2423  1.3516 -0.0198  0.1728 -0.0198  0.1728
  20.  H 2 (s)     -0.2197  0.0000  1.3516  1.5945  0.1728  0.4920  0.1728  0.4920
  21.  H 3 (s)      0.1177 -0.2039 -0.0198  0.1728  1.2423  1.3516 -0.0198  0.1728
  22.  H 3 (s)      0.1098 -0.1902  0.1728  0.4920  1.3516  1.5945  0.1728  0.4920
  23.  H 4 (s)      0.1177  0.2039 -0.0198  0.1728 -0.0198  0.1728  1.2423  1.3516
  24.  H 4 (s)      0.1098  0.1902  0.1728  0.4920  0.1728  0.4920  1.3516  1.5945


 MO density matrix:

      MO     1       2       3       4       5       6       7       8       9
     ---- ------  ------  ------  ------  ------  ------  ------  ------  ------
   1.     2.0000  0.0000  0.0000  0.0000  0.0000  0.0000  0.0000  0.0000  0.0000
   2.     0.0000  2.0000  0.0000  0.0000  0.0000  0.0000  0.0000  0.0000  0.0000
   3.     0.0000  0.0000  2.0000  0.0000  0.0000  0.0000  0.0000  0.0000  0.0000
   4.     0.0000  0.0000  0.0000  2.0000  0.0000  0.0000  0.0000  0.0000  0.0000
   5.     0.0000  0.0000  0.0000  0.0000  2.0000  0.0000  0.0000  0.0000  0.0000
   6.     0.0000  0.0000  0.0000  0.0000  0.0000  2.0000  0.0000  0.0000  0.0000
   7.     0.0000  0.0000  0.0000  0.0000  0.0000  0.0000  2.0000  0.0000  0.0000
   8.     0.0000  0.0000  0.0000  0.0000  0.0000  0.0000  0.0000  2.0000  0.0000
   9.     0.0000  0.0000  0.0000  0.0000  0.0000  0.0000  0.0000  0.0000  2.0000
  10.     0.0000  0.0000  0.0000  0.0000  0.0000  0.0000  0.0000  0.0000  0.0000
  11.     0.0000  0.0000  0.0000  0.0000  0.0000  0.0000  0.0000  0.0000  0.0000
  12.     0.0000  0.0000  0.0000  0.0000  0.0000  0.0000  0.0000  0.0000  0.0000
  13.     0.0000  0.0000  0.0000  0.0000  0.0000  0.0000  0.0000  0.0000  0.0000
  14.     0.0000  0.0000  0.0000  0.0000  0.0000  0.0000  0.0000  0.0000  0.0000
  15.     0.0000  0.0000  0.0000  0.0000  0.0000  0.0000  0.0000  0.0000  0.0000
  16.     0.0000  0.0000  0.0000  0.0000  0.0000  0.0000  0.0000  0.0000  0.0000
  17.     0.0000  0.0000  0.0000  0.0000  0.0000  0.0000  0.0000  0.0000  0.0000
  18.     0.0000  0.0000  0.0000  0.0000  0.0000  0.0000  0.0000  0.0000  0.0000
  19.     0.0000  0.0000  0.0000  0.0000  0.0000  0.0000  0.0000  0.0000  0.0000
  20.     0.0000  0.0000  0.0000  0.0000  0.0000  0.0000  0.0000  0.0000  0.0000
  21.     0.0000  0.0000  0.0000  0.0000  0.0000  0.0000  0.0000  0.0000  0.0000
  22.     0.0000  0.0000  0.0000  0.0000  0.0000  0.0000  0.0000  0.0000  0.0000
  23.     0.0000  0.0000  0.0000  0.0000  0.0000  0.0000  0.0000  0.0000  0.0000
  24.     0.0000  0.0000  0.0000  0.0000  0.0000  0.0000  0.0000  0.0000  0.0000

      MO    10      11      12      13      14      15      16      17      18
     ---- ------  ------  ------  ------  ------  ------  ------  ------  ------
   1.     0.0000  0.0000  0.0000  0.0000  0.0000  0.0000  0.0000  0.0000  0.0000
   2.     0.0000  0.0000  0.0000  0.0000  0.0000  0.0000  0.0000  0.0000  0.0000
   3.     0.0000  0.0000  0.0000  0.0000  0.0000  0.0000  0.0000  0.0000  0.0000
   4.     0.0000  0.0000  0.0000  0.0000  0.0000  0.0000  0.0000  0.0000  0.0000
   5.     0.0000  0.0000  0.0000  0.0000  0.0000  0.0000  0.0000  0.0000  0.0000
   6.     0.0000  0.0000  0.0000  0.0000  0.0000  0.0000  0.0000  0.0000  0.0000
   7.     0.0000  0.0000  0.0000  0.0000  0.0000  0.0000  0.0000  0.0000  0.0000
   8.     0.0000  0.0000  0.0000  0.0000  0.0000  0.0000  0.0000  0.0000  0.0000
   9.     0.0000  0.0000  0.0000  0.0000  0.0000  0.0000  0.0000  0.0000  0.0000
  10.     0.0000  0.0000  0.0000  0.0000  0.0000  0.0000  0.0000  0.0000  0.0000
  11.     0.0000  0.0000  0.0000  0.0000  0.0000  0.0000  0.0000  0.0000  0.0000
  12.     0.0000  0.0000  0.0000  0.0000  0.0000  0.0000  0.0000  0.0000  0.0000
  13.     0.0000  0.0000  0.0000  0.0000  0.0000  0.0000  0.0000  0.0000  0.0000
  14.     0.0000  0.0000  0.0000  0.0000  0.0000  0.0000  0.0000  0.0000  0.0000
  15.     0.0000  0.0000  0.0000  0.0000  0.0000  0.0000  0.0000  0.0000  0.0000
  16.     0.0000  0.0000  0.0000  0.0000  0.0000  0.0000  0.0000  0.0000  0.0000
  17.     0.0000  0.0000  0.0000  0.0000  0.0000  0.0000  0.0000  0.0000  0.0000
  18.     0.0000  0.0000  0.0000  0.0000  0.0000  0.0000  0.0000  0.0000  0.0000
  19.     0.0000  0.0000  0.0000  0.0000  0.0000  0.0000  0.0000  0.0000  0.0000
  20.     0.0000  0.0000  0.0000  0.0000  0.0000  0.0000  0.0000  0.0000  0.0000
  21.     0.0000  0.0000  0.0000  0.0000  0.0000  0.0000  0.0000  0.0000  0.0000
  22.     0.0000  0.0000  0.0000  0.0000  0.0000  0.0000  0.0000  0.0000  0.0000
  23.     0.0000  0.0000  0.0000  0.0000  0.0000  0.0000  0.0000  0.0000  0.0000
  24.     0.0000  0.0000  0.0000  0.0000  0.0000  0.0000  0.0000  0.0000  0.0000

      MO    19      20      21      22      23      24
     ---- ------  ------  ------  ------  ------  ------
   1.     0.0000  0.0000  0.0000  0.0000  0.0000  0.0000
   2.     0.0000  0.0000  0.0000  0.0000  0.0000  0.0000
   3.     0.0000  0.0000  0.0000  0.0000  0.0000  0.0000
   4.     0.0000  0.0000  0.0000  0.0000  0.0000  0.0000
   5.     0.0000  0.0000  0.0000  0.0000  0.0000  0.0000
   6.     0.0000  0.0000  0.0000  0.0000  0.0000  0.0000
   7.     0.0000  0.0000  0.0000  0.0000  0.0000  0.0000
   8.     0.0000  0.0000  0.0000  0.0000  0.0000  0.0000
   9.     0.0000  0.0000  0.0000  0.0000  0.0000  0.0000
  10.     0.0000  0.0000  0.0000  0.0000  0.0000  0.0000
  11.     0.0000  0.0000  0.0000  0.0000  0.0000  0.0000
  12.     0.0000  0.0000  0.0000  0.0000  0.0000  0.0000
  13.     0.0000  0.0000  0.0000  0.0000  0.0000  0.0000
  14.     0.0000  0.0000  0.0000  0.0000  0.0000  0.0000
  15.     0.0000  0.0000  0.0000  0.0000  0.0000  0.0000
  16.     0.0000  0.0000  0.0000  0.0000  0.0000  0.0000
  17.     0.0000  0.0000  0.0000  0.0000  0.0000  0.0000
  18.     0.0000  0.0000  0.0000  0.0000  0.0000  0.0000
  19.     0.0000  0.0000  0.0000  0.0000  0.0000  0.0000
  20.     0.0000  0.0000  0.0000  0.0000  0.0000  0.0000
  21.     0.0000  0.0000  0.0000  0.0000  0.0000  0.0000
  22.     0.0000  0.0000  0.0000  0.0000  0.0000  0.0000
  23.     0.0000  0.0000  0.0000  0.0000  0.0000  0.0000
  24.     0.0000  0.0000  0.0000  0.0000  0.0000  0.0000


 NATURAL POPULATIONS:  Natural atomic orbital occupancies

  NAO Atom No lang   Type(AO)    Occupancy      Energy
 -------------------------------------------------------
   1    P  1  s      Cor( 1s)     2.00000     -67.91742
   2    P  1  s      Cor( 2s)     2.00000     -19.49488
   3    P  1  s      Val( 3s)     1.54651      -0.46746
   4    P  1  s      Ryd( 4s)     0.00214       0.57100
   5    P  1  px     Cor( 2p)     2.00000      -5.37912
   6    P  1  px     Val( 3p)     0.87860      -0.05923
   7    P  1  px     Ryd( 4p)     0.00406       0.42012
   8    P  1  py     Cor( 2p)     2.00000      -5.37912
   9    P  1  py     Val( 3p)     0.87860      -0.05923
  10    P  1  py     Ryd( 4p)     0.00406       0.42012
  11    P  1  pz     Cor( 2p)     2.00000      -5.37749
  12    P  1  pz     Val( 3p)     1.51786      -0.17581
  13    P  1  pz     Ryd( 4p)     0.01070       0.44154
  14    P  1  dxy    Ryd( 3d)     0.00721       1.00421
  15    P  1  dxz    Ryd( 3d)     0.01313       1.06249
  16    P  1  dyz    Ryd( 3d)     0.01313       1.06249
  17    P  1  dx2y2  Ryd( 3d)     0.00721       1.00421
  18    P  1  dz2    Ryd( 3d)     0.00018       0.92441

  19    H  2  s      Val( 1s)     1.03805      -0.09592
  20    H  2  s      Ryd( 2s)     0.00082       0.99470

  21    H  3  s      Val( 1s)     1.03805      -0.09592
  22    H  3  s      Ryd( 2s)     0.00082       0.99470

  23    H  4  s      Val( 1s)     1.03805      -0.09592
  24    H  4  s      Ryd( 2s)     0.00082       0.99470


 Summary of Natural Population Analysis:

                                     Natural Population
             Natural    ---------------------------------------------
  Atom No    Charge        Core      Valence    Rydberg      Total
 --------------------------------------------------------------------
    P  1    0.11660      9.99999     4.82157    0.06183    14.88340
    H  2   -0.03887      0.00000     1.03805    0.00082     1.03887
    H  3   -0.03887      0.00000     1.03805    0.00082     1.03887
    H  4   -0.03887      0.00000     1.03805    0.00082     1.03887
 ====================================================================
 * Total *  0.00000      9.99999     7.93572    0.06429    18.00000

                                 Natural Population
 ---------------------------------------------------------
   Core                       9.99999 ( 99.9999% of   10)
   Valence                    7.93572 ( 99.1965% of    8)
   Natural Minimal Basis     17.93571 ( 99.6429% of   18)
   Natural Rydberg Basis      0.06429 (  0.3571% of   18)
 ---------------------------------------------------------

    Atom No         Natural Electron Configuration
 ----------------------------------------------------------------------------
      P  1      [core]3s( 1.55)3p( 3.28)3d( 0.04)4p( 0.02)
      H  2            1s( 1.04)
      H  3            1s( 1.04)
      H  4            1s( 1.04)


 PNAOs in the AO basis:

           AO          1       2       3       4       5       6       7       8
      ------------ ------- ------- ------- ------- ------- ------- ------- -------
   1.  P 1 (s)      0.7979 -0.6581  0.0700 -0.0765  0.0000  0.0000  0.0000  0.0000
   2.  P 1 (s)      0.4311  0.9368 -0.3340  0.1141  0.0000  0.0000  0.0000  0.0000
   3.  P 1 (px)     0.0000  0.0000  0.0000  0.0000  0.9944 -0.2293 -0.2971  0.0000
   4.  P 1 (py)     0.0000  0.0000  0.0000  0.0000  0.0000  0.0000  0.0000  0.9944
   5.  P 1 (pz)     0.0000  0.0000  0.0000  0.0000  0.0000  0.0000  0.0000  0.0000
   6.  P 1 (s)      0.0019  0.0147  0.6100 -1.7763  0.0000  0.0000  0.0000  0.0000
   7.  P 1 (px)     0.0000  0.0000  0.0000  0.0000  0.0195  0.5977  1.2720  0.0000
   8.  P 1 (py)     0.0000  0.0000  0.0000  0.0000  0.0000  0.0000  0.0000  0.0195
   9.  P 1 (pz)     0.0000  0.0000  0.0000  0.0000  0.0000  0.0000  0.0000  0.0000
  10.  P 1 (s)     -0.0005 -0.0038  0.4821  1.7806  0.0000  0.0000  0.0000  0.0000
  11.  P 1 (px)     0.0000  0.0000  0.0000  0.0000 -0.0047  0.5259 -1.2385  0.0000
  12.  P 1 (py)     0.0000  0.0000  0.0000  0.0000  0.0000  0.0000  0.0000 -0.0047
  13.  P 1 (pz)     0.0000  0.0000  0.0000  0.0000  0.0000  0.0000  0.0000  0.0000
  14.  P 1 (d5)     0.0000  0.0000  0.0000  0.0000  0.0000  0.0000  0.0000  0.0000
  15.  P 1 (d2)     0.0000  0.0000  0.0000  0.0000  0.0000  0.0000  0.0000  0.0000
  16.  P 1 (d3)     0.0000  0.0000  0.0000  0.0000  0.0000  0.0000  0.0000  0.0000
  17.  P 1 (d4)     0.0000  0.0000  0.0000  0.0000  0.0000  0.0000  0.0000  0.0000
  18.  P 1 (d1)     0.0000  0.0000  0.0000  0.0000  0.0000  0.0000  0.0000  0.0000
  19.  H 2 (s)      0.0000  0.0000  0.0000  0.0000  0.0000  0.0000  0.0000  0.0000
  20.  H 2 (s)      0.0000  0.0000  0.0000  0.0000  0.0000  0.0000  0.0000  0.0000
  21.  H 3 (s)      0.0000  0.0000  0.0000  0.0000  0.0000  0.0000  0.0000  0.0000
  22.  H 3 (s)      0.0000  0.0000  0.0000  0.0000  0.0000  0.0000  0.0000  0.0000
  23.  H 4 (s)      0.0000  0.0000  0.0000  0.0000  0.0000  0.0000  0.0000  0.0000
  24.  H 4 (s)      0.0000  0.0000  0.0000  0.0000  0.0000  0.0000  0.0000  0.0000

           AO          9      10      11      12      13      14      15      16
      ------------ ------- ------- ------- ------- ------- ------- ------- -------
   1.  P 1 (s)      0.0000  0.0000  0.0000  0.0000  0.0000  0.0000  0.0000  0.0000
   2.  P 1 (s)      0.0000  0.0000  0.0000  0.0000  0.0000  0.0000  0.0000  0.0000
   3.  P 1 (px)     0.0000  0.0000  0.0000  0.0000  0.0000  0.0000  0.0000  0.0000
   4.  P 1 (py)    -0.2293 -0.2971  0.0000  0.0000  0.0000  0.0000  0.0000  0.0000
   5.  P 1 (pz)     0.0000  0.0000  0.9944 -0.2293 -0.2971  0.0000  0.0000  0.0000
   6.  P 1 (s)      0.0000  0.0000  0.0000  0.0000  0.0000  0.0000  0.0000  0.0000
   7.  P 1 (px)     0.0000  0.0000  0.0000  0.0000  0.0000  0.0000  0.0000  0.0000
   8.  P 1 (py)     0.5977  1.2720  0.0000  0.0000  0.0000  0.0000  0.0000  0.0000
   9.  P 1 (pz)     0.0000  0.0000  0.0195  0.5977  1.2720  0.0000  0.0000  0.0000
  10.  P 1 (s)      0.0000  0.0000  0.0000  0.0000  0.0000  0.0000  0.0000  0.0000
  11.  P 1 (px)     0.0000  0.0000  0.0000  0.0000  0.0000  0.0000  0.0000  0.0000
  12.  P 1 (py)     0.5259 -1.2385  0.0000  0.0000  0.0000  0.0000  0.0000  0.0000
  13.  P 1 (pz)     0.0000  0.0000 -0.0047  0.5259 -1.2385  0.0000  0.0000  0.0000
  14.  P 1 (d5)     0.0000  0.0000  0.0000  0.0000  0.0000  0.0000  0.0000  0.0000
  15.  P 1 (d2)     0.0000  0.0000  0.0000  0.0000  0.0000  0.0000  1.0000  0.0000
  16.  P 1 (d3)     0.0000  0.0000  0.0000  0.0000  0.0000  0.0000  0.0000  1.0000
  17.  P 1 (d4)     0.0000  0.0000  0.0000  0.0000  0.0000  0.0000  0.0000  0.0000
  18.  P 1 (d1)     0.0000  0.0000  0.0000  0.0000  0.0000  1.0000  0.0000  0.0000
  19.  H 2 (s)      0.0000  0.0000  0.0000  0.0000  0.0000  0.0000  0.0000  0.0000
  20.  H 2 (s)      0.0000  0.0000  0.0000  0.0000  0.0000  0.0000  0.0000  0.0000
  21.  H 3 (s)      0.0000  0.0000  0.0000  0.0000  0.0000  0.0000  0.0000  0.0000
  22.  H 3 (s)      0.0000  0.0000  0.0000  0.0000  0.0000  0.0000  0.0000  0.0000
  23.  H 4 (s)      0.0000  0.0000  0.0000  0.0000  0.0000  0.0000  0.0000  0.0000
  24.  H 4 (s)      0.0000  0.0000  0.0000  0.0000  0.0000  0.0000  0.0000  0.0000

           AO         17      18      19      20      21      22      23      24
      ------------ ------- ------- ------- ------- ------- ------- ------- -------
   1.  P 1 (s)      0.0000  0.0000  0.0000  0.0000  0.0000  0.0000  0.0000  0.0000
   2.  P 1 (s)      0.0000  0.0000  0.0000  0.0000  0.0000  0.0000  0.0000  0.0000
   3.  P 1 (px)     0.0000  0.0000  0.0000  0.0000  0.0000  0.0000  0.0000  0.0000
   4.  P 1 (py)     0.0000  0.0000  0.0000  0.0000  0.0000  0.0000  0.0000  0.0000
   5.  P 1 (pz)     0.0000  0.0000  0.0000  0.0000  0.0000  0.0000  0.0000  0.0000
   6.  P 1 (s)      0.0000  0.0000  0.0000  0.0000  0.0000  0.0000  0.0000  0.0000
   7.  P 1 (px)     0.0000  0.0000  0.0000  0.0000  0.0000  0.0000  0.0000  0.0000
   8.  P 1 (py)     0.0000  0.0000  0.0000  0.0000  0.0000  0.0000  0.0000  0.0000
   9.  P 1 (pz)     0.0000  0.0000  0.0000  0.0000  0.0000  0.0000  0.0000  0.0000
  10.  P 1 (s)      0.0000  0.0000  0.0000  0.0000  0.0000  0.0000  0.0000  0.0000
  11.  P 1 (px)     0.0000  0.0000  0.0000  0.0000  0.0000  0.0000  0.0000  0.0000
  12.  P 1 (py)     0.0000  0.0000  0.0000  0.0000  0.0000  0.0000  0.0000  0.0000
  13.  P 1 (pz)     0.0000  0.0000  0.0000  0.0000  0.0000  0.0000  0.0000  0.0000
  14.  P 1 (d5)     0.0000  1.0000  0.0000  0.0000  0.0000  0.0000  0.0000  0.0000
  15.  P 1 (d2)     0.0000  0.0000  0.0000  0.0000  0.0000  0.0000  0.0000  0.0000
  16.  P 1 (d3)     0.0000  0.0000  0.0000  0.0000  0.0000  0.0000  0.0000  0.0000
  17.  P 1 (d4)     1.0000  0.0000  0.0000  0.0000  0.0000  0.0000  0.0000  0.0000
  18.  P 1 (d1)     0.0000  0.0000  0.0000  0.0000  0.0000  0.0000  0.0000  0.0000
  19.  H 2 (s)      0.0000  0.0000  0.3576  1.2794  0.0000  0.0000  0.0000  0.0000
  20.  H 2 (s)      0.0000  0.0000  0.7277 -1.1114  0.0000  0.0000  0.0000  0.0000
  21.  H 3 (s)      0.0000  0.0000  0.0000  0.0000  0.3576  1.2794  0.0000  0.0000
  22.  H 3 (s)      0.0000  0.0000  0.0000  0.0000  0.7277 -1.1114  0.0000  0.0000
  23.  H 4 (s)      0.0000  0.0000  0.0000  0.0000  0.0000  0.0000  0.3576  1.2794
  24.  H 4 (s)      0.0000  0.0000  0.0000  0.0000  0.0000  0.0000  0.7277 -1.1114


 PNAO overlap matrix:

           NAO         1       2       3       4       5       6       7       8
      ------------ ------- ------- ------- ------- ------- ------- ------- -------
   1.  P 1( 1s )    1.0000  0.0000  0.0000  0.0000  0.0000  0.0000  0.0000  0.0000
   2.  P 1( 2s )    0.0000  1.0000  0.0000  0.0000  0.0000  0.0000  0.0000  0.0000
   3.  P 1( 3s )    0.0000  0.0000  1.0000  0.0000  0.0000  0.0000  0.0000  0.0000
   4.  P 1( 4s )    0.0000  0.0000  0.0000  1.0000  0.0000  0.0000  0.0000  0.0000
   5.  P 1( 2px)    0.0000  0.0000  0.0000  0.0000  1.0000  0.0000  0.0000  0.0000
   6.  P 1( 3px)    0.0000  0.0000  0.0000  0.0000  0.0000  1.0000  0.0000  0.0000
   7.  P 1( 4px)    0.0000  0.0000  0.0000  0.0000  0.0000  0.0000  1.0000  0.0000
   8.  P 1( 2py)    0.0000  0.0000  0.0000  0.0000  0.0000  0.0000  0.0000  1.0000
   9.  P 1( 3py)    0.0000  0.0000  0.0000  0.0000  0.0000  0.0000  0.0000  0.0000
  10.  P 1( 4py)    0.0000  0.0000  0.0000  0.0000  0.0000  0.0000  0.0000  0.0000
  11.  P 1( 2pz)    0.0000  0.0000  0.0000  0.0000  0.0000  0.0000  0.0000  0.0000
  12.  P 1( 3pz)    0.0000  0.0000  0.0000  0.0000  0.0000  0.0000  0.0000  0.0000
  13.  P 1( 4pz)    0.0000  0.0000  0.0000  0.0000  0.0000  0.0000  0.0000  0.0000
  14.  P 1( 3d1)    0.0000  0.0000  0.0000  0.0000  0.0000  0.0000  0.0000  0.0000
  15.  P 1( 3d2)    0.0000  0.0000  0.0000  0.0000  0.0000  0.0000  0.0000  0.0000
  16.  P 1( 3d3)    0.0000  0.0000  0.0000  0.0000  0.0000  0.0000  0.0000  0.0000
  17.  P 1( 3d4)    0.0000  0.0000  0.0000  0.0000  0.0000  0.0000  0.0000  0.0000
  18.  P 1( 3d5)    0.0000  0.0000  0.0000  0.0000  0.0000  0.0000  0.0000  0.0000
  19.  H 2( 1s )    0.0495  0.0843  0.4856  0.2491  0.0000  0.0000  0.0000  0.0397
  20.  H 2( 2s )   -0.0590 -0.0951 -0.2798 -0.1570  0.0000  0.0000  0.0000 -0.0183
  21.  H 3( 1s )    0.0495  0.0843  0.4856  0.2491  0.0344  0.4208 -0.1617 -0.0199
  22.  H 3( 2s )   -0.0590 -0.0951 -0.2798 -0.1570 -0.0158 -0.0816  0.1626  0.0091
  23.  H 4( 1s )    0.0495  0.0843  0.4856  0.2491 -0.0344 -0.4208  0.1617 -0.0199
  24.  H 4( 2s )   -0.0590 -0.0951 -0.2798 -0.1570  0.0158  0.0816 -0.1626  0.0091

           NAO         9      10      11      12      13      14      15      16
      ------------ ------- ------- ------- ------- ------- ------- ------- -------
   1.  P 1( 1s )    0.0000  0.0000  0.0000  0.0000  0.0000  0.0000  0.0000  0.0000
   2.  P 1( 2s )    0.0000  0.0000  0.0000  0.0000  0.0000  0.0000  0.0000  0.0000
   3.  P 1( 3s )    0.0000  0.0000  0.0000  0.0000  0.0000  0.0000  0.0000  0.0000
   4.  P 1( 4s )    0.0000  0.0000  0.0000  0.0000  0.0000  0.0000  0.0000  0.0000
   5.  P 1( 2px)    0.0000  0.0000  0.0000  0.0000  0.0000  0.0000  0.0000  0.0000
   6.  P 1( 3px)    0.0000  0.0000  0.0000  0.0000  0.0000  0.0000  0.0000  0.0000
   7.  P 1( 4px)    0.0000  0.0000  0.0000  0.0000  0.0000  0.0000  0.0000  0.0000
   8.  P 1( 2py)    0.0000  0.0000  0.0000  0.0000  0.0000  0.0000  0.0000  0.0000
   9.  P 1( 3py)    1.0000  0.0000  0.0000  0.0000  0.0000  0.0000  0.0000  0.0000
  10.  P 1( 4py)    0.0000  1.0000  0.0000  0.0000  0.0000  0.0000  0.0000  0.0000
  11.  P 1( 2pz)    0.0000  0.0000  1.0000  0.0000  0.0000  0.0000  0.0000  0.0000
  12.  P 1( 3pz)    0.0000  0.0000  0.0000  1.0000  0.0000  0.0000  0.0000  0.0000
  13.  P 1( 4pz)    0.0000  0.0000  0.0000  0.0000  1.0000  0.0000  0.0000  0.0000
  14.  P 1( 3d1)    0.0000  0.0000  0.0000  0.0000  0.0000  1.0000  0.0000  0.0000
  15.  P 1( 3d2)    0.0000  0.0000  0.0000  0.0000  0.0000  0.0000  1.0000  0.0000
  16.  P 1( 3d3)    0.0000  0.0000  0.0000  0.0000  0.0000  0.0000  0.0000  1.0000
  17.  P 1( 3d4)    0.0000  0.0000  0.0000  0.0000  0.0000  0.0000  0.0000  0.0000
  18.  P 1( 3d5)    0.0000  0.0000  0.0000  0.0000  0.0000  0.0000  0.0000  0.0000
  19.  H 2( 1s )    0.4859 -0.1867 -0.0247 -0.3026  0.1163  0.0000  0.0000 -0.1645
  20.  H 2( 2s )   -0.0942  0.1878  0.0114  0.0587 -0.1169  0.0000  0.0000 -0.1652
  21.  H 3( 1s )   -0.2430  0.0934 -0.0247 -0.3026  0.1163 -0.1144 -0.1425  0.0823
  22.  H 3( 2s )    0.0471 -0.0939  0.0114  0.0587 -0.1169 -0.1148 -0.1430  0.0826
  23.  H 4( 1s )   -0.2430  0.0934 -0.0247 -0.3026  0.1163  0.1144  0.1425  0.0823
  24.  H 4( 2s )    0.0471 -0.0939  0.0114  0.0587 -0.1169  0.1148  0.1430  0.0826

           NAO        17      18      19      20      21      22      23      24
      ------------ ------- ------- ------- ------- ------- ------- ------- -------
   1.  P 1( 1s )    0.0000  0.0000  0.0495 -0.0590  0.0495 -0.0590  0.0495 -0.0590
   2.  P 1( 2s )    0.0000  0.0000  0.0843 -0.0951  0.0843 -0.0951  0.0843 -0.0951
   3.  P 1( 3s )    0.0000  0.0000  0.4856 -0.2798  0.4856 -0.2798  0.4856 -0.2798
   4.  P 1( 4s )    0.0000  0.0000  0.2491 -0.1570  0.2491 -0.1570  0.2491 -0.1570
   5.  P 1( 2px)    0.0000  0.0000  0.0000  0.0000  0.0344 -0.0158 -0.0344  0.0158
   6.  P 1( 3px)    0.0000  0.0000  0.0000  0.0000  0.4208 -0.0816 -0.4208  0.0816
   7.  P 1( 4px)    0.0000  0.0000  0.0000  0.0000 -0.1617  0.1626  0.1617 -0.1626
   8.  P 1( 2py)    0.0000  0.0000  0.0397 -0.0183 -0.0199  0.0091 -0.0199  0.0091
   9.  P 1( 3py)    0.0000  0.0000  0.4859 -0.0942 -0.2430  0.0471 -0.2430  0.0471
  10.  P 1( 4py)    0.0000  0.0000 -0.1867  0.1878  0.0934 -0.0939  0.0934 -0.0939
  11.  P 1( 2pz)    0.0000  0.0000 -0.0247  0.0114 -0.0247  0.0114 -0.0247  0.0114
  12.  P 1( 3pz)    0.0000  0.0000 -0.3026  0.0587 -0.3026  0.0587 -0.3026  0.0587
  13.  P 1( 4pz)    0.0000  0.0000  0.1163 -0.1169  0.1163 -0.1169  0.1163 -0.1169
  14.  P 1( 3d1)    0.0000  0.0000  0.0000  0.0000 -0.1144 -0.1148  0.1144  0.1148
  15.  P 1( 3d2)    0.0000  0.0000  0.0000  0.0000 -0.1425 -0.1430  0.1425  0.1430
  16.  P 1( 3d3)    0.0000  0.0000 -0.1645 -0.1652  0.0823  0.0826  0.0823  0.0826
  17.  P 1( 3d4)    1.0000  0.0000 -0.1321 -0.1326  0.0661  0.0663  0.0661  0.0663
  18.  P 1( 3d5)    0.0000  1.0000 -0.0171 -0.0172 -0.0171 -0.0172 -0.0171 -0.0172
  19.  H 2( 1s )   -0.1321 -0.0171  1.0000  0.0000  0.1982 -0.1842  0.1982 -0.1842
  20.  H 2( 2s )   -0.1326 -0.0172  0.0000  1.0000 -0.1842  0.1163 -0.1842  0.1163
  21.  H 3( 1s )    0.0661 -0.0171  0.1982 -0.1842  1.0000  0.0000  0.1982 -0.1842
  22.  H 3( 2s )    0.0663 -0.0172 -0.1842  0.1163  0.0000  1.0000 -0.1842  0.1163
  23.  H 4( 1s )    0.0661 -0.0171  0.1982 -0.1842  0.1982 -0.1842  1.0000  0.0000
  24.  H 4( 2s )    0.0663 -0.0172 -0.1842  0.1163 -0.1842  0.1163  0.0000  1.0000


 PNAO density matrix:

           NAO         1       2       3       4       5       6       7       8
      ------------ ------- ------- ------- ------- ------- ------- ------- -------
   1.  P 1( 1s )    2.0000  0.0000  0.0000  0.0000  0.0000  0.0000  0.0000  0.0000
   2.  P 1( 2s )    0.0000  2.0000  0.0000  0.0000  0.0000  0.0000  0.0000  0.0000
   3.  P 1( 3s )    0.0000  0.0000  1.9556  0.0000  0.0000  0.0000  0.0000  0.0000
   4.  P 1( 4s )    0.0000  0.0000  0.0000  0.0293  0.0000  0.0000  0.0000  0.0000
   5.  P 1( 2px)    0.0000  0.0000  0.0000  0.0000  2.0000 -0.0001  0.0005  0.0000
   6.  P 1( 3px)    0.0000  0.0000  0.0000  0.0000 -0.0001  1.4854 -0.0035  0.0000
   7.  P 1( 4px)    0.0000  0.0000  0.0000  0.0000  0.0005 -0.0035  0.0000  0.0000
   8.  P 1( 2py)    0.0000  0.0000  0.0000  0.0000  0.0000  0.0000  0.0000  2.0000
   9.  P 1( 3py)    0.0000  0.0000  0.0000  0.0000  0.0000  0.0000  0.0000 -0.0001
  10.  P 1( 4py)    0.0000  0.0000  0.0000  0.0000  0.0000  0.0000  0.0000  0.0005
  11.  P 1( 2pz)    0.0000  0.0000 -0.0001  0.0012  0.0000  0.0000  0.0000  0.0000
  12.  P 1( 3pz)    0.0000  0.0000  0.0618 -0.2348  0.0000  0.0000  0.0000  0.0000
  13.  P 1( 4pz)   -0.0004 -0.0008  0.0084 -0.0008  0.0000  0.0000  0.0000  0.0000
  14.  P 1( 3d1)    0.0000  0.0000  0.0000  0.0000 -0.0004 -0.3131  0.0007  0.0000
  15.  P 1( 3d2)    0.0000  0.0000  0.0000  0.0000 -0.0015 -0.4007  0.0009  0.0000
  16.  P 1( 3d3)    0.0000  0.0000  0.0000  0.0000  0.0000  0.0000  0.0000 -0.0015
  17.  P 1( 3d4)    0.0000  0.0000  0.0000  0.0000  0.0000  0.0000  0.0000 -0.0004
  18.  P 1( 3d5)   -0.0001 -0.0004 -0.0308 -0.0021  0.0000  0.0000  0.0000  0.0000
  19.  H 2( 1s )    0.0989  0.1687  0.9944  0.0897  0.0000  0.0000  0.0000  0.0793
  20.  H 2( 2s )   -0.1178 -0.1904 -0.4020  0.0056  0.0000  0.0000  0.0000 -0.0369
  21.  H 3( 1s )    0.0989  0.1687  0.9944  0.0897  0.0686  1.0028 -0.0023 -0.0396
  22.  H 3( 2s )   -0.1178 -0.1904 -0.4020  0.0056 -0.0320  0.2348 -0.0006  0.0185
  23.  H 4( 1s )    0.0989  0.1687  0.9944  0.0897 -0.0686 -1.0028  0.0023 -0.0396
  24.  H 4( 2s )   -0.1178 -0.1904 -0.4020  0.0056  0.0320 -0.2348  0.0006  0.0185

           NAO         9      10      11      12      13      14      15      16
      ------------ ------- ------- ------- ------- ------- ------- ------- -------
   1.  P 1( 1s )    0.0000  0.0000  0.0000  0.0000 -0.0004  0.0000  0.0000  0.0000
   2.  P 1( 2s )    0.0000  0.0000  0.0000  0.0000 -0.0008  0.0000  0.0000  0.0000
   3.  P 1( 3s )    0.0000  0.0000 -0.0001  0.0618  0.0084  0.0000  0.0000  0.0000
   4.  P 1( 4s )    0.0000  0.0000  0.0012 -0.2348 -0.0008  0.0000  0.0000  0.0000
   5.  P 1( 2px)    0.0000  0.0000  0.0000  0.0000  0.0000 -0.0004 -0.0015  0.0000
   6.  P 1( 3px)    0.0000  0.0000  0.0000  0.0000  0.0000 -0.3131 -0.4007  0.0000
   7.  P 1( 4px)    0.0000  0.0000  0.0000  0.0000  0.0000  0.0007  0.0009  0.0000
   8.  P 1( 2py)   -0.0001  0.0005  0.0000  0.0000  0.0000  0.0000  0.0000 -0.0015
   9.  P 1( 3py)    1.4854 -0.0035  0.0000  0.0000  0.0000  0.0000  0.0000 -0.4007
  10.  P 1( 4py)   -0.0035  0.0000  0.0000  0.0000  0.0000  0.0000  0.0000  0.0009
  11.  P 1( 2pz)    0.0000  0.0000  2.0000  0.0002 -0.0010  0.0000  0.0000  0.0000
  12.  P 1( 3pz)    0.0000  0.0000  0.0002  1.8837  0.0069  0.0000  0.0000  0.0000
  13.  P 1( 4pz)    0.0000  0.0000 -0.0010  0.0069  0.0001  0.0000  0.0000  0.0000
  14.  P 1( 3d1)    0.0000  0.0000  0.0000  0.0000  0.0000  0.0660  0.0845  0.0000
  15.  P 1( 3d2)    0.0000  0.0000  0.0000  0.0000  0.0000  0.0845  0.1081  0.0000
  16.  P 1( 3d3)   -0.4007  0.0009  0.0000  0.0000  0.0000  0.0000  0.0000  0.1081
  17.  P 1( 3d4)   -0.3131  0.0007  0.0000  0.0000  0.0000  0.0000  0.0000  0.0845
  18.  P 1( 3d5)    0.0000  0.0000 -0.0011  0.0162 -0.0001  0.0000  0.0000  0.0000
  19.  H 2( 1s )    1.1579 -0.0027 -0.0493 -0.6877  0.0017  0.0000  0.0000 -0.3124
  20.  H 2( 2s )    0.2711 -0.0006  0.0230 -0.0572 -0.0018  0.0000  0.0000 -0.0731
  21.  H 3( 1s )   -0.5790  0.0013 -0.0493 -0.6877  0.0017 -0.2114 -0.2706  0.1562
  22.  H 3( 2s )   -0.1356  0.0003  0.0230 -0.0572 -0.0018 -0.0495 -0.0633  0.0366
  23.  H 4( 1s )   -0.5790  0.0013 -0.0493 -0.6877  0.0017  0.2114  0.2706  0.1562
  24.  H 4( 2s )   -0.1356  0.0003  0.0230 -0.0572 -0.0018  0.0495  0.0633  0.0366

           NAO        17      18      19      20      21      22      23      24
      ------------ ------- ------- ------- ------- ------- ------- ------- -------
   1.  P 1( 1s )    0.0000 -0.0001  0.0989 -0.1178  0.0989 -0.1178  0.0989 -0.1178
   2.  P 1( 2s )    0.0000 -0.0004  0.1687 -0.1904  0.1687 -0.1904  0.1687 -0.1904
   3.  P 1( 3s )    0.0000 -0.0308  0.9944 -0.4020  0.9944 -0.4020  0.9944 -0.4020
   4.  P 1( 4s )    0.0000 -0.0021  0.0897  0.0056  0.0897  0.0056  0.0897  0.0056
   5.  P 1( 2px)    0.0000  0.0000  0.0000  0.0000  0.0686 -0.0320 -0.0686  0.0320
   6.  P 1( 3px)    0.0000  0.0000  0.0000  0.0000  1.0028  0.2348 -1.0028 -0.2348
   7.  P 1( 4px)    0.0000  0.0000  0.0000  0.0000 -0.0023 -0.0006  0.0023  0.0006
   8.  P 1( 2py)   -0.0004  0.0000  0.0793 -0.0369 -0.0396  0.0185 -0.0396  0.0185
   9.  P 1( 3py)   -0.3131  0.0000  1.1579  0.2711 -0.5790 -0.1356 -0.5790 -0.1356
  10.  P 1( 4py)    0.0007  0.0000 -0.0027 -0.0006  0.0013  0.0003  0.0013  0.0003
  11.  P 1( 2pz)    0.0000 -0.0011 -0.0493  0.0230 -0.0493  0.0230 -0.0493  0.0230
  12.  P 1( 3pz)    0.0000  0.0162 -0.6877 -0.0572 -0.6877 -0.0572 -0.6877 -0.0572
  13.  P 1( 4pz)    0.0000 -0.0001  0.0017 -0.0018  0.0017 -0.0018  0.0017 -0.0018
  14.  P 1( 3d1)    0.0000  0.0000  0.0000  0.0000 -0.2114 -0.0495  0.2114  0.0495
  15.  P 1( 3d2)    0.0000  0.0000  0.0000  0.0000 -0.2706 -0.0633  0.2706  0.0633
  16.  P 1( 3d3)    0.0845  0.0000 -0.3124 -0.0731  0.1562  0.0366  0.1562  0.0366
  17.  P 1( 3d4)    0.0660  0.0000 -0.2441 -0.0571  0.1220  0.0286  0.1220  0.0286
  18.  P 1( 3d5)    0.0000  0.0006 -0.0222  0.0060 -0.0222  0.0060 -0.0222  0.0060
  19.  H 2( 1s )   -0.2441 -0.0222  1.7066  0.0000  0.3479 -0.3148  0.3479 -0.3148
  20.  H 2( 2s )   -0.0571  0.0060  0.0000  0.1592 -0.3148  0.0840 -0.3148  0.0840
  21.  H 3( 1s )    0.1220 -0.0222  0.3479 -0.3148  1.7066  0.0000  0.3479 -0.3148
  22.  H 3( 2s )    0.0286  0.0060 -0.3148  0.0840  0.0000  0.1592 -0.3148  0.0840
  23.  H 4( 1s )    0.1220 -0.0222  0.3479 -0.3148  0.3479 -0.3148  1.7066  0.0000
  24.  H 4( 2s )    0.0286  0.0060 -0.3148  0.0840 -0.3148  0.0840  0.0000  0.1592


 NAOs in the AO basis:

           AO          1       2       3       4       5       6       7       8
      ------------ ------- ------- ------- ------- ------- ------- ------- -------
   1.  P 1 (s)      0.7979 -0.6581  0.0876 -0.0600  0.0000  0.0000  0.0000  0.0000
   2.  P 1 (s)      0.4311  0.9368 -0.3713 -0.0742  0.0000  0.0000  0.0000  0.0000
   3.  P 1 (px)     0.0000  0.0000  0.0000  0.0000  0.9944 -0.2999 -0.2317  0.0000
   4.  P 1 (py)     0.0000  0.0000  0.0000  0.0000  0.0000  0.0000  0.0000  0.9944
   5.  P 1 (pz)     0.0000  0.0000  0.0333  0.0414  0.0000  0.0000  0.0000  0.0000
   6.  P 1 (s)      0.0019  0.0147  1.0030 -1.9847  0.0000  0.0000  0.0000  0.0000
   7.  P 1 (px)     0.0000  0.0000  0.0000  0.0000  0.0195  0.9172  1.0504  0.0000
   8.  P 1 (py)     0.0000  0.0000  0.0000  0.0000  0.0000  0.0000  0.0000  0.0195
   9.  P 1 (pz)     0.0000  0.0000 -0.1581 -0.1647  0.0000  0.0000  0.0000  0.0000
  10.  P 1 (s)     -0.0005 -0.0038  0.4091  5.6215  0.0000  0.0000  0.0000  0.0000
  11.  P 1 (px)     0.0000  0.0000  0.0000  0.0000 -0.0047  0.3882 -1.7765  0.0000
  12.  P 1 (py)     0.0000  0.0000  0.0000  0.0000  0.0000  0.0000  0.0000 -0.0047
  13.  P 1 (pz)     0.0000  0.0000 -0.0470 -1.8670  0.0000  0.0000  0.0000  0.0000
  14.  P 1 (d5)     0.0000  0.0000  0.0018 -0.0340  0.0000  0.0000  0.0000  0.0000
  15.  P 1 (d2)     0.0000  0.0000  0.0000  0.0000  0.0000  0.0031  0.0202  0.0000
  16.  P 1 (d3)     0.0000  0.0000  0.0000  0.0000  0.0000  0.0000  0.0000  0.0000
  17.  P 1 (d4)     0.0000  0.0000  0.0000  0.0000  0.0000  0.0000  0.0000  0.0000
  18.  P 1 (d1)     0.0000  0.0000  0.0000  0.0000  0.0000  0.0025  0.0162  0.0000
  19.  H 2 (s)      0.0000  0.0000 -0.1409  0.0709  0.0000  0.0000  0.0000  0.0000
  20.  H 2 (s)      0.0000  0.0000 -0.1708 -2.0382  0.0000  0.0000  0.0000  0.0000
  21.  H 3 (s)      0.0000  0.0000 -0.1409  0.0709  0.0000 -0.1394 -0.0440  0.0000
  22.  H 3 (s)      0.0000  0.0000 -0.1708 -2.0382  0.0000 -0.1677  0.6591  0.0000
  23.  H 4 (s)      0.0000  0.0000 -0.1409  0.0709  0.0000  0.1394  0.0440  0.0000
  24.  H 4 (s)      0.0000  0.0000 -0.1708 -2.0382  0.0000  0.1677 -0.6591  0.0000

           AO          9      10      11      12      13      14      15      16
      ------------ ------- ------- ------- ------- ------- ------- ------- -------
   1.  P 1 (s)      0.0000  0.0000  0.0000 -0.0089  0.0110  0.0000  0.0000  0.0000
   2.  P 1 (s)      0.0000  0.0000  0.0000  0.0193 -0.0767  0.0000  0.0000  0.0000
   3.  P 1 (px)     0.0000  0.0000  0.0000  0.0000  0.0000  0.0166  0.0206  0.0000
   4.  P 1 (py)    -0.2999 -0.2317  0.0000  0.0000  0.0000  0.0000  0.0000  0.0206
   5.  P 1 (pz)     0.0000  0.0000  0.9944 -0.2943 -0.2312  0.0000  0.0000  0.0000
   6.  P 1 (s)      0.0000  0.0000  0.0000 -0.2017  0.0434  0.0000  0.0000  0.0000
   7.  P 1 (px)     0.0000  0.0000  0.0000  0.0000  0.0000 -0.0597 -0.0744  0.0000
   8.  P 1 (py)     0.9172  1.0504  0.0000  0.0000  0.0000  0.0000  0.0000 -0.0744
   9.  P 1 (pz)     0.0000  0.0000  0.0195  0.8896  1.0527  0.0000  0.0000  0.0000
  10.  P 1 (s)      0.0000  0.0000  0.0000  0.0486  1.3700  0.0000  0.0000  0.0000
  11.  P 1 (px)     0.0000  0.0000  0.0000  0.0000  0.0000 -0.1987 -0.2475  0.0000
  12.  P 1 (py)     0.3882 -1.7765  0.0000  0.0000  0.0000  0.0000  0.0000 -0.2475
  13.  P 1 (pz)     0.0000  0.0000 -0.0047  0.3291 -1.9993  0.0000  0.0000  0.0000
  14.  P 1 (d5)     0.0000  0.0000  0.0000 -0.0016 -0.0104  0.0000  0.0000  0.0000
  15.  P 1 (d2)     0.0000  0.0000  0.0000  0.0000  0.0000  0.0493  1.0614  0.0000
  16.  P 1 (d3)     0.0031  0.0202  0.0000  0.0000  0.0000  0.0000  0.0000  1.0614
  17.  P 1 (d4)     0.0025  0.0162  0.0000  0.0000  0.0000  0.0000  0.0000  0.0493
  18.  P 1 (d1)     0.0000  0.0000  0.0000  0.0000  0.0000  1.0396  0.0493  0.0000
  19.  H 2 (s)     -0.1610 -0.0509  0.0000  0.0995  0.0107  0.0000  0.0000  0.2185
  20.  H 2 (s)     -0.1936  0.7611  0.0000  0.0747 -0.8023  0.0000  0.0000  0.2326
  21.  H 3 (s)      0.0805  0.0254  0.0000  0.0995  0.0107  0.1519  0.1892 -0.1092
  22.  H 3 (s)      0.0968 -0.3806  0.0000  0.0747 -0.8023  0.1618  0.2015 -0.1163
  23.  H 4 (s)      0.0805  0.0254  0.0000  0.0995  0.0107 -0.1519 -0.1892 -0.1092
  24.  H 4 (s)      0.0968 -0.3806  0.0000  0.0747 -0.8023 -0.1618 -0.2015 -0.1163

           AO         17      18      19      20      21      22      23      24
      ------------ ------- ------- ------- ------- ------- ------- ------- -------
   1.  P 1 (s)      0.0000 -0.0004 -0.0077  0.0046 -0.0077  0.0046 -0.0077  0.0046
   2.  P 1 (s)      0.0000  0.0110  0.0045 -0.0145  0.0045 -0.0145  0.0045 -0.0145
   3.  P 1 (px)     0.0000  0.0000  0.0000  0.0000  0.0316 -0.0025 -0.0316  0.0025
   4.  P 1 (py)     0.0166  0.0000  0.0364 -0.0029 -0.0182  0.0015 -0.0182  0.0015
   5.  P 1 (pz)     0.0000 -0.0031 -0.0248 -0.0003 -0.0248 -0.0003 -0.0248 -0.0003
   6.  P 1 (s)      0.0000  0.0266 -0.2619  0.0705 -0.2619  0.0705 -0.2619  0.0705
   7.  P 1 (px)     0.0000  0.0000  0.0000  0.0000 -0.2024  0.0558  0.2024 -0.0558
   8.  P 1 (py)    -0.0597  0.0000 -0.2337  0.0644  0.1169 -0.0322  0.1169 -0.0322
   9.  P 1 (pz)     0.0000  0.0111  0.1512 -0.0285  0.1512 -0.0285  0.1512 -0.0285
  10.  P 1 (s)      0.0000 -0.2167 -0.0403  1.1189 -0.0403  1.1189 -0.0403  1.1189
  11.  P 1 (px)     0.0000  0.0000  0.0000  0.0000 -0.1042  0.5195  0.1042 -0.5195
  12.  P 1 (py)    -0.1987  0.0000 -0.1203  0.5998  0.0602 -0.2999  0.0602 -0.2999
  13.  P 1 (pz)     0.0000  0.1032  0.0521 -0.5431  0.0521 -0.5431  0.0521 -0.5431
  14.  P 1 (d5)     0.0000  1.0030 -0.0006 -0.0039 -0.0006 -0.0039 -0.0006 -0.0039
  15.  P 1 (d2)     0.0000  0.0000  0.0000  0.0000  0.0020  0.0128 -0.0020 -0.0128
  16.  P 1 (d3)     0.0493  0.0000  0.0023  0.0148 -0.0011 -0.0074 -0.0011 -0.0074
  17.  P 1 (d4)     1.0396  0.0000  0.0018  0.0119 -0.0009 -0.0059 -0.0009 -0.0059
  18.  P 1 (d1)     0.0000  0.0000  0.0000  0.0000  0.0016  0.0103 -0.0016 -0.0103
  19.  H 2 (s)      0.1754  0.0200  0.6985  1.2328 -0.0027 -0.0087 -0.0027 -0.0087
  20.  H 2 (s)      0.1868  0.0972  0.6707 -2.3381 -0.0256 -0.1469 -0.0256 -0.1469
  21.  H 3 (s)     -0.0877  0.0200 -0.0027 -0.0087  0.6985  1.2328 -0.0027 -0.0087
  22.  H 3 (s)     -0.0934  0.0972 -0.0256 -0.1469  0.6707 -2.3381 -0.0256 -0.1469
  23.  H 4 (s)     -0.0877  0.0200 -0.0027 -0.0087 -0.0027 -0.0087  0.6985  1.2328
  24.  H 4 (s)     -0.0934  0.0972 -0.0256 -0.1469 -0.0256 -0.1469  0.6707 -2.3381


 NAO density matrix:

           NAO         1       2       3       4       5       6       7       8
      ------------ ------- ------- ------- ------- ------- ------- ------- -------
   1.  P 1( 1s )    2.0000  0.0000  0.0001  0.0002  0.0000  0.0000  0.0000  0.0000
   2.  P 1( 2s )    0.0000  2.0000  0.0001 -0.0008  0.0000  0.0000  0.0000  0.0000
   3.  P 1( 3s )    0.0001  0.0001  1.5465  0.0000  0.0000  0.0000  0.0000  0.0000
   4.  P 1( 4s )    0.0002 -0.0008  0.0000  0.0021  0.0000  0.0000  0.0000  0.0000
   5.  P 1( 2px)    0.0000  0.0000  0.0000  0.0000  2.0000  0.0001  0.0006  0.0000
   6.  P 1( 3px)    0.0000  0.0000  0.0000  0.0000  0.0001  0.8786  0.0598  0.0000
   7.  P 1( 4px)    0.0000  0.0000  0.0000  0.0000  0.0006  0.0598  0.0041  0.0000
   8.  P 1( 2py)    0.0000  0.0000  0.0000  0.0000  0.0000  0.0000  0.0000  2.0000
   9.  P 1( 3py)    0.0000  0.0000  0.0000  0.0000  0.0000  0.0000  0.0000  0.0001
  10.  P 1( 4py)    0.0000  0.0000  0.0000  0.0000  0.0000  0.0000  0.0000  0.0006
[...]
            0.0238-0.0020 0.7182 0.0016
      1 hybrid on atom 1 stashed in prospective list
      1 hybrid on atom 3 stashed in prospective list

 Search of NAO DM block for the following atom(s):   1   4
      Select eigenvectors with eigenvalue > 1.900
       1.999 1.020 0.903 0.000 0.000 0.000 0.000 0.000 0.000 0.000 0.000 0.000
       0.000 0.000 0.000 0.000 0.000 0.000 0.000 0.000
      Eigenvector ( 1) has occupancy 1.99919
            0.0000 0.0000 0.3134-0.0162 0.0000-0.4547-0.0309 0.0000
           -0.2625-0.0179 0.0000-0.3197 0.0128 0.0412 0.0556 0.0321
            0.0238-0.0020 0.7182 0.0016
      1 hybrid on atom 1 stashed in prospective list
      1 hybrid on atom 4 stashed in prospective list

 Stash prospective hybrids having projection expectation value > 0.300
       0.973 0.973 0.973 0.973 0.973 0.973
      0 hybrids eliminated in 1 pass
      6 hybrids moved from prospective to permanent list

 NHOs of 2-center eigenvectors projected from the NAO density matrix
       0.002 electrons remain in the fully projected matrix

 Search of NHO DM block for the following atom(s):   1
      Select eigenvectors with eigenvalue > 1.900
       2.000 2.000 2.000 2.000 2.000 2.000 0.000 0.000 0.000 0.000 0.000 0.000
       0.000 0.000 0.000 0.000 0.000 0.000
      Eigenvector ( 1) has occupancy 2.00000
            1.0000 0.0000 0.0000 0.0000 0.0000 0.0000 0.0000 0.0000
            0.0000 0.0000 0.0000 0.0000 0.0000 0.0000 0.0000 0.0000
            0.0000 0.0000
           NBO accepted:    1. Label:CR ( 1)   1
      Eigenvector ( 2) has occupancy 2.00000
            0.0000 1.0000 0.0000 0.0000 0.0000 0.0000 0.0000 0.0000
            0.0000 0.0000 0.0000 0.0000 0.0000 0.0000 0.0000 0.0000
            0.0000 0.0000
           NBO accepted:    2. Label:CR ( 2)   1
      Eigenvector ( 3) has occupancy 2.00000
            0.0000 0.0000 1.0000 0.0000 0.0000 0.0000 0.0000 0.0000
            0.0000 0.0000 0.0000 0.0000 0.0000 0.0000 0.0000 0.0000
            0.0000 0.0000
           NBO accepted:    3. Label:CR ( 3)   1
      Eigenvector ( 4) has occupancy 2.00000
            0.0000 0.0000 0.0000 1.0000 0.0000 0.0000 0.0000 0.0000
            0.0000 0.0000 0.0000 0.0000 0.0000 0.0000 0.0000 0.0000
            0.0000 0.0000
           NBO accepted:    4. Label:CR ( 4)   1
      Eigenvector ( 5) has occupancy 2.00000
            0.0000 0.0000 0.0000 0.0000 1.0000 0.0000 0.0000 0.0000
            0.0000 0.0000 0.0000 0.0000 0.0000 0.0000 0.0000 0.0000
            0.0000 0.0000
           NBO accepted:    5. Label:CR ( 5)   1
      Eigenvector ( 6) has occupancy 1.99984
            0.0000 0.0000 0.0000 0.0000 0.0000 1.0000 0.0000 0.0000
            0.0000 0.0000 0.0000 0.0000 0.0000 0.0000 0.0000 0.0000
            0.0000 0.0000
           NBO accepted:    6. Label:LP ( 1)   1
        6 eigenvector(s) stashed in permanent list

  1-center NBOs projected from the NHO density matrix
       6.000 electrons remain (>1.900); search continues

 Search of NHO DM block for the following atom(s):   1   2
      Select eigenvectors with eigenvalue > 1.900
       1.996 0.003 0.000 0.000 0.000 0.000 0.000 0.000 0.000 0.000 0.000 0.000
       0.000 0.000 0.000 0.000 0.000 0.000 0.000 0.000
      Eigenvector ( 1) has occupancy 1.99582
            0.0000 0.0000 0.0000 0.0000 0.0000 0.0000 0.6933 0.0000
            0.0000 0.0000 0.0000 0.0000 0.0000 0.0000 0.0000 0.0000
            0.0000 0.0000 0.7206 0.0000
      Occupancy is 1.996 after deleting minor hybrid components
            0.0000 0.0000 0.0000 0.0000 0.0000 0.0000 0.6933 0.0000
            0.0000 0.0000 0.0000 0.0000 0.0000 0.0000 0.0000 0.0000
            0.0000 0.0000 0.7206 0.0000
           NBO accepted:    7. Label:BD ( 1)   1   2
      Occupancy is 0.003 for antibonding component
            0.0000 0.0000 0.0000 0.0000 0.0000 0.0000 0.7206 0.0000
            0.0000 0.0000 0.0000 0.0000 0.0000 0.0000 0.0000 0.0000
            0.0000 0.0000-0.6933 0.0000
           NBO accepted:    8. Label:BD*( 1)   1   2
        2 eigenvector(s) stashed in permanent list

 Search of NHO DM block for the following atom(s):   1   3
      Select eigenvectors with eigenvalue > 1.900
       1.996 0.003 0.000 0.000 0.000 0.000 0.000 0.000 0.000 0.000 0.000 0.000
       0.000 0.000 0.000 0.000 0.000 0.000 0.000 0.000
      Eigenvector ( 1) has occupancy 1.99582
            0.0000 0.0000 0.0000 0.0000 0.0000 0.0000 0.0000 0.6933
            0.0000 0.0000 0.0000 0.0000 0.0000 0.0000 0.0000 0.0000
            0.0000 0.0000 0.7206 0.0000
      Occupancy is 1.996 after deleting minor hybrid components
            0.0000 0.0000 0.0000 0.0000 0.0000 0.0000 0.0000 0.6933
            0.0000 0.0000 0.0000 0.0000 0.0000 0.0000 0.0000 0.0000
            0.0000 0.0000 0.7206 0.0000
           NBO accepted:    9. Label:BD ( 1)   1   3
      Occupancy is 0.003 for antibonding component
            0.0000 0.0000 0.0000 0.0000 0.0000 0.0000 0.0000 0.7206
            0.0000 0.0000 0.0000 0.0000 0.0000 0.0000 0.0000 0.0000
            0.0000 0.0000-0.6933 0.0000
           NBO accepted:   10. Label:BD*( 1)   1   3
        2 eigenvector(s) stashed in permanent list

 Search of NHO DM block for the following atom(s):   1   4
      Select eigenvectors with eigenvalue > 1.900
       1.996 0.003 0.000 0.000 0.000 0.000 0.000 0.000 0.000 0.000 0.000 0.000
       0.000 0.000 0.000 0.000 0.000 0.000 0.000 0.000
      Eigenvector ( 1) has occupancy 1.99582
            0.0000 0.0000 0.0000 0.0000 0.0000 0.0000 0.0000 0.0000
            0.6933 0.0000 0.0000 0.0000 0.0000 0.0000 0.0000 0.0000
            0.0000 0.0000 0.7206 0.0000
      Occupancy is 1.996 after deleting minor hybrid components
            0.0000 0.0000 0.0000 0.0000 0.0000 0.0000 0.0000 0.0000
            0.6933 0.0000 0.0000 0.0000 0.0000 0.0000 0.0000 0.0000
            0.0000 0.0000 0.7206 0.0000
           NBO accepted:   11. Label:BD ( 1)   1   4
      Occupancy is 0.003 for antibonding component
            0.0000 0.0000 0.0000 0.0000 0.0000 0.0000 0.0000 0.0000
            0.7206 0.0000 0.0000 0.0000 0.0000 0.0000 0.0000 0.0000
            0.0000 0.0000-0.6933 0.0000
           NBO accepted:   12. Label:BD*( 1)   1   4
        2 eigenvector(s) stashed in permanent list

  2-center NBOs projected from the NHO density matrix
       0.002 electrons remain in the fully projected matrix

                            Occupancies       Lewis Structure    Low   High
         Max    Occ     -------------------  -----------------   occ   occ
  Cycle  Ctr   Thresh    Lewis   non-Lewis     CR  BD  nC  LP    (L)   (NL)
 ============================================================================
    1     2     1.90    17.98728   0.01272      5   3   0   1     0      0
 ----------------------------------------------------------------------------

 Structure accepted: No low occupancy Lewis orbitals

 -------------------------------------------------------
   Core                      9.99999 (100.000% of  10)
   Valence Lewis             7.98729 ( 99.841% of   8)
  ==================      =============================
   Total Lewis              17.98728 ( 99.929% of  18)
  -----------------------------------------------------
   Valence non-Lewis         0.01024 (  0.057% of  18)
   Rydberg non-Lewis         0.00248 (  0.014% of  18)
  ==================      =============================
   Total non-Lewis           0.01272 (  0.071% of  18)
 -------------------------------------------------------


     (Occupancy)   Bond orbital / Coefficients / Hybrids
 ------------------ Lewis ------------------------------------------------------
   1. (2.00000) CR ( 1) P  1            s(100.00%)
                                         1.0000  0.0000  0.0000  0.0000  0.0000
                                         0.0000  0.0000  0.0000  0.0000  0.0000
                                         0.0000  0.0000  0.0000  0.0000  0.0000
                                         0.0000  0.0000  0.0000
   2. (2.00000) CR ( 2) P  1            s(100.00%)
                                         0.0000  1.0000  0.0000  0.0000  0.0000
                                         0.0000  0.0000  0.0000  0.0000  0.0000
                                         0.0000  0.0000  0.0000  0.0000  0.0000
                                         0.0000  0.0000  0.0000
   3. (2.00000) CR ( 3) P  1            s(  0.00%)p 1.00(100.00%)
                                         0.0000  0.0000  0.0000  0.0000  1.0000
                                         0.0000  0.0000  0.0000  0.0000  0.0000
                                         0.0000  0.0000  0.0000  0.0000  0.0000
                                         0.0000  0.0000  0.0000
   4. (2.00000) CR ( 4) P  1            s(  0.00%)p 1.00(100.00%)
                                         0.0000  0.0000  0.0000  0.0000  0.0000
                                         0.0000  0.0000  1.0000  0.0000  0.0000
                                         0.0000  0.0000  0.0000  0.0000  0.0000
                                         0.0000  0.0000  0.0000
   5. (2.00000) CR ( 5) P  1            s(  0.00%)p 1.00(100.00%)
                                         0.0000  0.0000  0.0000  0.0000  0.0000
                                         0.0000  0.0000  0.0000  0.0000  0.0000
                                         1.0000  0.0000  0.0000  0.0000  0.0000
                                         0.0000  0.0000  0.0000
   6. (1.99984) LP ( 1) P  1            s( 51.02%)p 0.96( 48.98%)d 0.00(  0.01%)
                                         0.0000  0.0000  0.7140  0.0191  0.0000
                                         0.0000  0.0000  0.0000  0.0000  0.0000
                                         0.0000  0.6963 -0.0701  0.0000  0.0000
                                         0.0000  0.0000 -0.0088
   7. (1.99582) BD ( 1) P  1- H  2
               ( 48.07%)   0.6933* P  1 s( 16.35%)p 5.03( 82.15%)d 0.09(  1.50%)
                                         0.0000  0.0000  0.4038 -0.0209  0.0000
                                         0.0000  0.0000  0.0000  0.8054  0.0548
                                         0.0000 -0.4118  0.0165  0.0000  0.0000
                                        -0.0985 -0.0729 -0.0025
               ( 51.93%)   0.7206* H  2 s(100.00%)
                                         1.0000  0.0022
   8. (1.99582) BD ( 1) P  1- H  3
               ( 48.07%)   0.6933* P  1 s( 16.35%)p 5.03( 82.15%)d 0.09(  1.50%)
                                         0.0000  0.0000  0.4038 -0.0209  0.0000
                                         0.6975  0.0474  0.0000 -0.4027 -0.0274
                                         0.0000 -0.4118  0.0165 -0.0632 -0.0853
                                         0.0492  0.0365 -0.0025
               ( 51.93%)   0.7206* H  3 s(100.00%)
                                         1.0000  0.0022
   9. (1.99582) BD ( 1) P  1- H  4
               ( 48.07%)   0.6933* P  1 s( 16.35%)p 5.03( 82.15%)d 0.09(  1.50%)
                                         0.0000  0.0000  0.4038 -0.0209  0.0000
                                        -0.6975 -0.0474  0.0000 -0.4027 -0.0274
                                         0.0000 -0.4118  0.0165  0.0632  0.0853
                                         0.0492  0.0365 -0.0025
               ( 51.93%)   0.7206* H  4 s(100.00%)
                                         1.0000  0.0022
 ---------------- non-Lewis ----------------------------------------------------
  10. (0.00341) BD*( 1) P  1- H  2
               ( 51.93%)   0.7206* P  1 s( 16.35%)p 5.03( 82.15%)d 0.09(  1.50%)
                                         0.0000  0.0000 -0.4038  0.0209  0.0000
                                         0.0000  0.0000  0.0000 -0.8054 -0.0548
                                         0.0000  0.4118 -0.0165  0.0000  0.0000
                                         0.0985  0.0729  0.0025
               ( 48.07%)  -0.6933* H  2 s(100.00%)
                                        -1.0000 -0.0022
  11. (0.00341) BD*( 1) P  1- H  3
               ( 51.93%)   0.7206* P  1 s( 16.35%)p 5.03( 82.15%)d 0.09(  1.50%)
                                         0.0000  0.0000 -0.4038  0.0209  0.0000
                                        -0.6975 -0.0474  0.0000  0.4027  0.0274
                                         0.0000  0.4118 -0.0165  0.0632  0.0853
                                        -0.0492 -0.0365  0.0025
               ( 48.07%)  -0.6933* H  3 s(100.00%)
                                        -1.0000 -0.0022
  12. (0.00341) BD*( 1) P  1- H  4
               ( 51.93%)   0.7206* P  1 s( 16.35%)p 5.03( 82.15%)d 0.09(  1.50%)
                                         0.0000  0.0000 -0.4038  0.0209  0.0000
                                         0.6975  0.0474  0.0000  0.4027  0.0274
                                         0.0000  0.4118 -0.0165 -0.0632 -0.0853
                                        -0.0492 -0.0365  0.0025
               ( 48.07%)  -0.6933* H  4 s(100.00%)
                                        -1.0000 -0.0022
  13. (0.00000) RY ( 1) P  1            s(  0.00%)p 1.00( 88.11%)d 0.13( 11.89%)
  14. (0.00000) RY ( 2) P  1            s(  0.00%)p 1.00(  3.30%)d29.27( 96.70%)
  15. (0.00000) RY ( 3) P  1            s(  0.00%)p 1.00(  0.47%)d99.99( 99.53%)
  16. (0.00000) RY ( 4) P  1            s(  0.00%)p 1.00( 88.80%)d 0.13( 11.20%)
  17. (0.00000) RY ( 5) P  1            s(  9.88%)p 2.27( 22.44%)d 6.85( 67.68%)
  18. (0.00000) RY ( 6) P  1            s( 80.91%)p 0.22( 18.09%)d 0.01(  1.00%)
  19. (0.00000) RY ( 7) P  1            s(  0.00%)p 1.00( 11.91%)d 7.40( 88.09%)
  20. (0.00000) RY ( 8) P  1            s(  0.00%)p 1.00( 11.91%)d 7.40( 88.09%)
  21. (0.00000) RY ( 9) P  1            s(  9.16%)p 6.50( 59.53%)d 3.42( 31.32%)
  22. (0.00082) RY ( 1) H  2            s(100.00%)
                                        -0.0022  1.0000
  23. (0.00082) RY ( 1) H  3            s(100.00%)
                                        -0.0022  1.0000
  24. (0.00082) RY ( 1) H  4            s(100.00%)
                                        -0.0022  1.0000


 NHO DIRECTIONALITY AND BOND BENDING (deviation from line of nuclear centers at
                                      the position of maximum hybrid amplitude)

         [Thresholds for printing:  angular deviation  >  1.0 degree]
                                    p- or d-character  > 25.0%
                                    orbital occupancy  >  0.10e

                        Line of Centers        Hybrid 1             Hybrid 2
                        ---------------  -------------------  ------------------
           NBO            Theta   Phi    Theta   Phi    Dev   Theta   Phi    Dev
 ===============================================================================
   6. LP ( 1) P  1          --     --      0.0    0.0   --      --     --    --
   7. BD ( 1) P  1- H  2  121.9   90.0   118.8   90.0   3.2     --     --    --
   8. BD ( 1) P  1- H  3  121.9  330.0   118.8  330.0   3.2     --     --    --
   9. BD ( 1) P  1- H  4  121.9  210.0   118.8  210.0   3.2     --     --    --


 SECOND ORDER PERTURBATION THEORY ANALYSIS OF FOCK MATRIX IN NBO BASIS

     Threshold for printing:   0.50 kcal/mol
                                                          E(2) E(NL)-E(L) F(L,NL)
      Donor (L) NBO              Acceptor (NL) NBO      kcal/mol   a.u.    a.u.
 ===============================================================================

 within unit  1
    7. BD ( 1) P  1- H  2      11. BD*( 1) P  1- H  3      1.00    1.04   0.029
    7. BD ( 1) P  1- H  2      12. BD*( 1) P  1- H  4      1.00    1.04   0.029
    8. BD ( 1) P  1- H  3      10. BD*( 1) P  1- H  2      1.00    1.04   0.029
    8. BD ( 1) P  1- H  3      12. BD*( 1) P  1- H  4      1.00    1.04   0.029
    9. BD ( 1) P  1- H  4      10. BD*( 1) P  1- H  2      1.00    1.04   0.029
    9. BD ( 1) P  1- H  4      11. BD*( 1) P  1- H  3      1.00    1.04   0.029


 NATURAL BOND ORBITALS (Summary):

                                                     Principal Delocalizations
           NBO                 Occupancy    Energy   (geminal,vicinal,remote)
 ===============================================================================
 Molecular unit  1  (H3P)
 ------ Lewis --------------------------------------
    1. CR ( 1) P  1             2.00000   -67.91742
    2. CR ( 2) P  1             2.00000   -19.49488
    3. CR ( 3) P  1             2.00000    -5.37912
    4. CR ( 4) P  1             2.00000    -5.37912
    5. CR ( 5) P  1             2.00000    -5.37749
    6. LP ( 1) P  1             1.99984    -0.47946
    7. BD ( 1) P  1- H  2       1.99582    -0.60281  11(g),12(g)
    8. BD ( 1) P  1- H  3       1.99582    -0.60281  10(g),12(g)
    9. BD ( 1) P  1- H  4       1.99582    -0.60281  10(g),11(g)
 ------ non-Lewis ----------------------------------
   10. BD*( 1) P  1- H  2       0.00341     0.44088
   11. BD*( 1) P  1- H  3       0.00341     0.44088
   12. BD*( 1) P  1- H  4       0.00341     0.44088
   13. RY ( 1) P  1             0.00000     0.54004
   14. RY ( 2) P  1             0.00000     0.91007
   15. RY ( 3) P  1             0.00000     0.93888
   16. RY ( 4) P  1             0.00000     0.51904
   17. RY ( 5) P  1             0.00000     0.75977
   18. RY ( 6) P  1             0.00000     0.56590
   19. RY ( 7) P  1             0.00000     0.98947
   20. RY ( 8) P  1             0.00000     0.98947
   21. RY ( 9) P  1             0.00000     0.61685
   22. RY ( 1) H  2             0.00082     0.99364
   23. RY ( 1) H  3             0.00082     0.99364
   24. RY ( 1) H  4             0.00082     0.99364
          -------------------------------
                 Total Lewis   17.98728  ( 99.9293%)
           Valence non-Lewis    0.01024  (  0.0569%)
           Rydberg non-Lewis    0.00248  (  0.0138%)
          -------------------------------
               Total unit  1   18.00000  (100.0000%)
              Charge unit  1    0.00000

 $CHOOSE
   LONE 1 1 END
   BOND S 1 2 S 1 3 S 1 4 END
 $END

 NBO analysis completed in 0.17 CPU seconds (1 wall second)
 Maximum scratch memory used by NBO was 357137 words (2.72 MB)
 Maximum scratch memory used by G16NBO was 9125 words (0.07 MB)

 Opening RunExU unformatted file "/cluster/work/users/beto93/mol18/Gau-945988.EUF"
 Read unf file /cluster/work/users/beto93/mol18/Gau-945988.EUF:
 Label Gaussian matrix elements                                         IVers= 2 NLab= 2 Version=ES64L-G16RevC.01
 Title mol18-NBO                                                       
 NAtoms=     4 NBasis=    24 NBsUse=    24 ICharg=     0 Multip=     1 NE=    18 Len12L=8 Len4L=8 IOpCl= 0 ICGU=111
 GAUSSIAN SCALARS                    NI= 1 NR= 1 NTot=       1 LenBuf=    2 NRI=1 N=    1000
 NPA CHARGES                         NI= 0 NR= 1 NTot=       4 LenBuf= 4000 NRI=1 N=       4
 Recovered energy= -342.446354953     dipole=      0.000000000000     -0.000000156794     -0.326961829877
 Unable to Open any file for archive entry.
 1\1\GINC-C2-28\SP\RHF\6-31G(d)\H3P1\BETO93\18-Nov-2024\0\\#RHF/6-31G* 
 int=nobasistransform Symmetry=None 5D 7F Pop=NBO7Read\\mol18-NBO\\0,1\
 P,0,0.,0.,0.124619\H,0,0.,1.200647,-0.623095\H,0,1.039791,-0.600323,-0
 .623095\H,0,-1.039791,-0.600323,-0.623095\\Version=ES64L-G16RevC.01\HF
 =-342.446355\RMSD=1.019e-09\Dipole=0.,-0.0000002,-0.3269618\Quadrupole
 =0.6701848,0.6701836,-1.3403684,0.,0.,0.\PG=Unknown\\@
 The archive entry for this job was punched.


 NOTHING WILL BE ATTEMPTED IF ALL POSSIBLE OBJECTIONS
 MUST FIRST BE OVERCOME.

                               -- THE GOLDEN PRINCIPLE,
                    PAUL DICKSON'S "THE OFFICIAL RULES"
 Job cpu time:       0 days  0 hours  0 minutes  7.1 seconds.
 Elapsed time:       0 days  0 hours  0 minutes  2.3 seconds.
 File lengths (MBytes):  RWF=     10 Int=      0 D2E=      0 Chk=      1 Scr=      1
 Normal termination of Gaussian 16 at Mon Nov 18 16:40:07 2024.
