 Entering Gaussian System, Link 0=g16
 Initial command:
 /cluster/software/Gaussian/g16_C.01/l1.exe "/cluster/work/users/beto93/mol38/Gau-1782059.inp" -scrdir="/cluster/work/users/beto93/mol38/"
 Entering Link 1 = /cluster/software/Gaussian/g16_C.01/l1.exe PID=   1782088.
  
 Copyright (c) 1988-2019, Gaussian, Inc.  All Rights Reserved.
  
 This is part of the Gaussian(R) 16 program.  It is based on
 the Gaussian(R) 09 system (copyright 2009, Gaussian, Inc.),
 the Gaussian(R) 03 system (copyright 2003, Gaussian, Inc.),
 the Gaussian(R) 98 system (copyright 1998, Gaussian, Inc.),
 the Gaussian(R) 94 system (copyright 1995, Gaussian, Inc.),
 the Gaussian 92(TM) system (copyright 1992, Gaussian, Inc.),
 the Gaussian 90(TM) system (copyright 1990, Gaussian, Inc.),
 the Gaussian 88(TM) system (copyright 1988, Gaussian, Inc.),
 the Gaussian 86(TM) system (copyright 1986, Carnegie Mellon
 University), and the Gaussian 82(TM) system (copyright 1983,
 Carnegie Mellon University). Gaussian is a federally registered
 trademark of Gaussian, Inc.
  
 This software contains proprietary and confidential information,
 including trade secrets, belonging to Gaussian, Inc.
  
 This software is provided under written license and may be
 used, copied, transmitted, or stored only in accord with that
 written license.
  
 The following legend is applicable only to US Government
 contracts under FAR:
  
                    RESTRICTED RIGHTS LEGEND
  
 Use, reproduction and disclosure by the US Government is
 subject to restrictions as set forth in subparagraphs (a)
 and (c) of the Commercial Computer Software - Restricted
 Rights clause in FAR 52.227-19.
  
 Gaussian, Inc.
 340 Quinnipiac St., Bldg. 40, Wallingford CT 06492
  
  
 ---------------------------------------------------------------
 Warning -- This program may not be used in any manner that
 competes with the business of Gaussian, Inc. or will provide
 assistance to any competitor of Gaussian, Inc.  The licensee
 of this program is prohibited from giving any competitor of
 Gaussian, Inc. access to this program.  By using this program,
 the user acknowledges that Gaussian, Inc. is engaged in the
 business of creating and licensing software in the field of
 computational chemistry and represents and warrants to the
 licensee that it is not a competitor of Gaussian, Inc. and that
 it will not use this program in any manner prohibited above.
 ---------------------------------------------------------------
  

 Cite this work as:
 Gaussian 16, Revision C.01,
 M. J. Frisch, G. W. Trucks, H. B. Schlegel, G. E. Scuseria, 
 M. A. Robb, J. R. Cheeseman, G. Scalmani, V. Barone, 
 G. A. Petersson, H. Nakatsuji, X. Li, M. Caricato, A. V. Marenich, 
 J. Bloino, B. G. Janesko, R. Gomperts, B. Mennucci, H. P. Hratchian, 
 J. V. Ortiz, A. F. Izmaylov, J. L. Sonnenberg, D. Williams-Young, 
 F. Ding, F. Lipparini, F. Egidi, J. Goings, B. Peng, A. Petrone, 
 T. Henderson, D. Ranasinghe, V. G. Zakrzewski, J. Gao, N. Rega, 
 G. Zheng, W. Liang, M. Hada, M. Ehara, K. Toyota, R. Fukuda, 
 J. Hasegawa, M. Ishida, T. Nakajima, Y. Honda, O. Kitao, H. Nakai, 
 T. Vreven, K. Throssell, J. A. Montgomery, Jr., J. E. Peralta, 
 F. Ogliaro, M. J. Bearpark, J. J. Heyd, E. N. Brothers, K. N. Kudin, 
 V. N. Staroverov, T. A. Keith, R. Kobayashi, J. Normand, 
 K. Raghavachari, A. P. Rendell, J. C. Burant, S. S. Iyengar, 
 J. Tomasi, M. Cossi, J. M. Millam, M. Klene, C. Adamo, R. Cammi, 
 J. W. Ochterski, R. L. Martin, K. Morokuma, O. Farkas, 
 J. B. Foresman, and D. J. Fox, Gaussian, Inc., Wallingford CT, 2019.
 
 ******************************************
 Gaussian 16:  ES64L-G16RevC.01  3-Jul-2019
                18-Nov-2024 
 ******************************************
 %LindaWorkers=c1-37-ib
 %NProcShared=4
 Will use up to    4 processors via shared memory.
 %mem=25GB
 %chk=mol38.chk
 SetLPE:    new flags="-opt 'Tsnet.Node.lindarsharg: ssh'  -nodelist 'c1-37-ib.saga' -env GAUSS_MDEF=3355443200 -env GAUSS_EXEDIR="/cluster/software/Gaussian/g16_C.01/bsd:/cluster/software/Gaussian/g16_C.01""
 Will use up to    1 processors via Linda.
 -----------------------------------------------------------------
 #RHF/6-31G* int=nobasistransform Symmetry=None 5D 7F Pop=NBO7Read
 -----------------------------------------------------------------
 1/38=1,163=2,172=1/1;
 2/12=2,15=3,17=6,18=5,40=1/2;
 3/5=1,6=6,7=1,8=11,11=1,25=1,30=1,60=-1,116=1/1,2,3;
 4//1;
 5/5=2,38=5/2;
 6/7=2,8=2,9=2,10=2,28=1,40=2,113=1,114=1,124=2103/1,12;
 99/5=1,9=1/99;
 ---------
 mol38-NBO
 ---------
 Symbolic Z-matrix:
 Charge =  0 Multiplicity = 1
 C                     0.        0.        0. 
 O                     0.        0.        1.17866 
 O                     0.        0.       -1.17866 
 
                          Input orientation:                          
 ---------------------------------------------------------------------
 Center     Atomic      Atomic             Coordinates (Angstroms)
 Number     Number       Type             X           Y           Z
 ---------------------------------------------------------------------
      1          6           0        0.000000    0.000000    0.000000
      2          8           0        0.000000    0.000000    1.178658
      3          8           0        0.000000    0.000000   -1.178658
 ---------------------------------------------------------------------
                    Distance matrix (angstroms):
                    1          2          3
     1  C    0.000000
     2  O    1.178658   0.000000
     3  O    1.178658   2.357316   0.000000
 Symmetry turned off by external request.
 Stoichiometry    CO2
 Rotational constants (GHZ):           0.0000000          11.3718117          11.3718117
 Standard basis: 6-31G(d) (5D, 7F)
    42 basis functions,    84 primitive gaussians,    45 cartesian basis functions
    11 alpha electrons       11 beta electrons
       nuclear repulsion energy        57.4676309818 Hartrees.
 NAtoms=    3 NActive=    3 NUniq=    3 SFac= 1.00D+00 NAtFMM=   60 NAOKFM=F Big=F
 Integral buffers will be    131072 words long.
 Raffenetti 1 integral format.
 Two-electron integral symmetry is turned off.
 One-electron integrals computed using PRISM.
 NBasis=    42 RedAO= T EigKep=  8.65D-03  NBF=    42
 NBsUse=    42 1.00D-06 EigRej= -1.00D+00 NBFU=    42
 ExpMin= 1.69D-01 ExpMax= 5.48D+03 ExpMxC= 8.25D+02 IAcc=3 IRadAn=         5 AccDes= 0.00D+00
 Harris functional with IExCor=  205 and IRadAn=       5 diagonalized for initial guess.
 HarFok:  IExCor=  205 AccDes= 0.00D+00 IRadAn=         5 IDoV= 1 UseB2=F ITyADJ=14
 ICtDFT=  3500011 ScaDFX=  1.000000  1.000000  1.000000  1.000000
 FoFCou: FMM=F IPFlag=           0 FMFlag=      100000 FMFlg1=           0
         NFxFlg=           0 DoJE=T BraDBF=F KetDBF=T FulRan=T
         wScrn=  0.000000 ICntrl=       500 IOpCl=  0 I1Cent=   200000004 NGrid=           0
         NMat0=    1 NMatS0=      1 NMatT0=    0 NMatD0=    1 NMtDS0=    0 NMtDT0=    0
 Symmetry not used in FoFCou.
 Keep R1 ints in memory in canonical form, NReq=1239759.
 Requested convergence on RMS density matrix=1.00D-08 within 128 cycles.
 Requested convergence on MAX density matrix=1.00D-06.
 Requested convergence on             energy=1.00D-06.
 No special actions if energy rises.
 SCF Done:  E(RHF) =  -187.627799711     A.U. after    9 cycles
            NFock=  9  Conv=0.81D-08     -V/T= 2.0036

 **********************************************************************

            Population analysis using the SCF Density.

 **********************************************************************

 Alpha  occ. eigenvalues --  -20.66402 -20.66398 -11.48062  -1.52183  -1.46724
 Alpha  occ. eigenvalues --   -0.79676  -0.73309  -0.70374  -0.70374  -0.53768
 Alpha  occ. eigenvalues --   -0.53768
 Alpha virt. eigenvalues --    0.20206   0.20206   0.25330   0.51848   0.66823
 Alpha virt. eigenvalues --    0.66823   0.80637   0.96910   1.05270   1.14955
 Alpha virt. eigenvalues --    1.14955   1.32069   1.32069   1.38165   1.64696
 Alpha virt. eigenvalues --    1.64696   1.66871   1.66871   1.73891   2.01583
 Alpha virt. eigenvalues --    2.01583   2.19730   2.32283   2.32283   2.43179
 Alpha virt. eigenvalues --    2.43179   3.09503   3.28082   3.28559   3.28559
 Alpha virt. eigenvalues --    3.53070
          Condensed to atoms (all electrons):
               1          2          3
     1  C    3.861223   0.598917   0.598917
     2  O    0.598917   7.903474  -0.031919
     3  O    0.598917  -0.031919   7.903474
 Mulliken charges:
               1
     1  C    0.940944
     2  O   -0.470472
     3  O   -0.470472
 Sum of Mulliken charges =  -0.00000
 Mulliken charges with hydrogens summed into heavy atoms:
               1
     1  C    0.940944
     2  O   -0.470472
     3  O   -0.470472
 Electronic spatial extent (au):  <R**2>=            116.1355
 Charge=              0.0000 electrons
 Dipole moment (field-independent basis, Debye):
    X=              0.0000    Y=              0.0000    Z=              0.0000  Tot=              0.0000
 Quadrupole moment (field-independent basis, Debye-Ang):
   XX=            -14.6377   YY=            -14.6377   ZZ=            -20.1663
   XY=              0.0000   XZ=              0.0000   YZ=             -0.0000
 Traceless Quadrupole moment (field-independent basis, Debye-Ang):
   XX=              1.8429   YY=              1.8429   ZZ=             -3.6857
   XY=              0.0000   XZ=              0.0000   YZ=             -0.0000
 Octapole moment (field-independent basis, Debye-Ang**2):
  XXX=              0.0000  YYY=              0.0000  ZZZ=              0.0000  XYY=              0.0000
  XXY=              0.0000  XXZ=              0.0000  XZZ=              0.0000  YZZ=             -0.0000
  YYZ=              0.0000  XYZ=             -0.0000
 Hexadecapole moment (field-independent basis, Debye-Ang**3):
 XXXX=            -10.5204 YYYY=            -10.5204 ZZZZ=           -105.0481 XXXY=              0.0000
 XXXZ=              0.0000 YYYX=              0.0000 YYYZ=              0.0000 ZZZX=             -0.0000
 ZZZY=             -0.0000 XXYY=             -3.5068 XXZZ=            -19.0023 YYZZ=            -19.0023
 XXYZ=             -0.0000 YYXZ=              0.0000 ZZXY=              0.0000
 N-N= 5.746763098181D+01 E-N=-5.575221299716D+02  KE= 1.869520195129D+02
 Running external command "gaunbo7 R"
         input file       "/cluster/work/users/beto93/mol38/Gau-1782088.EIn"
         output file      "/cluster/work/users/beto93/mol38/Gau-1782088.EOu"
         message file     "/cluster/work/users/beto93/mol38/Gau-1782088.EMs"
         fchk file        "/cluster/work/users/beto93/mol38/Gau-1782088.EFC"
         mat. el file     "/cluster/work/users/beto93/mol38/Gau-1782088.EUF"

 Writing WrtUnf unformatted file "/cluster/work/users/beto93/mol38/Gau-1782088.EUF"
 Gaussian matrix elements                                         Version   2 NLab=11 Len12L=8 Len4L=8
 Write SHELL TO ATOM MAP                   from file      0 offset           0 length                  12 to matrix element file.
 Write SHELL TYPES                         from file      0 offset           0 length                  12 to matrix element file.
 Write NUMBER OF PRIMITIVES PER SHELL      from file      0 offset           0 length                  12 to matrix element file.
 Write PRIMITIVE EXPONENTS                 from file      0 offset           0 length                  33 to matrix element file.
 Write CONTRACTION COEFFICIENTS            from file      0 offset           0 length                  33 to matrix element file.
 Write P(S=P) CONTRACTION COEFFICIENTS     from file      0 offset           0 length                  33 to matrix element file.
 Write COORDINATES OF EACH SHELL           from file      0 offset           0 length                  36 to matrix element file.
 Write BONDS PER ATOM                      from file      0 offset           0 length                   3 to matrix element file.
 Write BONDED ATOMS                        from file      0 offset           0 length                   4 to matrix element file.
 Write BOND TYPES                          from file      0 offset           0 length                   4 to matrix element file.
 Write ONIOM CHARGE/MULT                   from file      0 offset           0 length                  32 to matrix element file.
 Write ONIOM ATOM LAYERS                   from file      0 offset           0 length                   3 to matrix element file.
 Write ONIOM ATOM MODIFIERS                from file      0 offset           0 length                   3 to matrix element file.
 Write ONIOM ATOM TYPES                    from file      0 offset           0 length                   3 to matrix element file.
 Write ONIOM LINK ATOMS                    from file      0 offset           0 length                   3 to matrix element file.
 Write ONIOM LINK CHARGES                  from file      0 offset           0 length                   3 to matrix element file.
 Write ONIOM LINK DISTANCES                from file      0 offset           0 length                  12 to matrix element file.
 Write SYMINF INTS                         from file      0 offset           0 length                  26 to matrix element file.
 Write ROTTR TO SO                         from file      0 offset           0 length                  12 to matrix element file.
 Write GAUSSIAN SCALARS                    from file    501 offset           0 to matrix element file.
 Write OPTIMIZATION FLAGS                  from file      0 offset           0 length                   3 to matrix element file.
 Write INTEGER ISO                         from file      0 offset           0 length                   3 to matrix element file.
 Write REAL ZEFFECTIVE                     from file      0 offset           0 length                   3 to matrix element file.
 Write REAL ZNUCLEAR                       from file      0 offset           0 length                   3 to matrix element file.
 Write MULLIKEN CHARGES                    from file      0 offset           0 length                   3 to matrix element file.
 Write NUCLEAR GRADIENT                    from file  10584 offset           0 length                   9 to matrix element file.
 Array NUCLEAR FORCE CONSTANTS              on  file  10585 does not exist.
 Write ELECTRIC DIPOLE MOMENT              from file      0 offset           0 length                   3 to matrix element file.
 Write NON-ADIABATIC COUPLING              from file  10810 offset           0 length                   9 to matrix element file.
 Write FINITE EM FIELD                     from file  10521 offset           0 length                  35 to matrix element file.
 Write OVERLAP                             from file  10514 offset           0 length                 903 to matrix element file.
 Write CORE HAMILTONIAN ALPHA              from file  10515 offset           0 length                 903 to matrix element file.
 Write CORE HAMILTONIAN BETA               from file  10515 offset         903 length                 903 to matrix element file.
 Write KINETIC ENERGY                      from file  10516 offset           0 length                 903 to matrix element file.
 Write ORTHOGONAL BASIS                    from file  10685 offset           0 length                1764 to matrix element file.
 Write DIPOLE INTEGRALS                    from file  10518 offset           0 length                2709 to matrix element file.
 Array DIP VEL INTEGRALS                    on  file  10572 does not exist.
 Array R X DEL INTEGRALS                    on  file  10572 does not exist.
 Write ALPHA ORBITAL ENERGIES              from file      0 offset           0 length                  42 to matrix element file.
 Write ALPHA MO COEFFICIENTS               from file  10524 offset           0 length                1764 to matrix element file.
 Write ALPHA DENSITY MATRIX                from file      0 offset           0 length                 903 to matrix element file.
 Write ALPHA FOCK MATRIX                   from file  10536 offset           0 length                 903 to matrix element file.
 Write ENERGY-WEIGHTED DENSITY             from file  10571 offset           0 length                 903 to matrix element file.
 Write ALPHA SCF DENSITY MATRIX            from file      0 offset           0 length                 903 to matrix element file.
 No 2e integrals to process.
 Perform NBO analysis...executing G16NBO...

 *********************************** NBO 7.0 ***********************************
             N A T U R A L   A T O M I C   O R B I T A L   A N D
          N A T U R A L   B O N D   O R B I T A L   A N A L Y S I S
 **************************** Espen Tangen (S101595) ***************************
  (c) Copyright 1996-2021 Board of Regents of the University of Wisconsin System
      on behalf of the Theoretical Chemistry Institute.  All rights reserved.

          Cite this program [NBO 7.0.10 (8-Feb-2021)] as:

          NBO 7.0.  E. D. Glendening, J. K. Badenhoop, A. E. Reed,
          J. E. Carpenter, J. A. Bohmann, C. M. Morales, P. Karafiloglou,
          C. R. Landis, and F. Weinhold, Theoretical Chemistry Institute,
          University of Wisconsin, Madison, WI (2018)

       /NPA    / : Natural Population Analysis
       /AOPNAO / : Print the AO to PNAO transformation
       /AONAO  / : Print the AO to NAO transformation
       /AOMO   / : Print the MOs in the AO basis
       /BOAO   / : Print the AO bond-order matrix
       /DMAO   / : Print the AO density matrix
       /DMPNAO / : Print the PNAO density matrix
       /DMNAO  / : Print the NAO density matrix
       /DMMO   / : Print the MO density matrix
       /SAO    / : Print the AO overlap matrix
       /SPNAO  / : Print the PNAO overlap matrix
       /DETAIL / : Write details of NBO search
       /ARCHIVE/ : Write the archive file to lfn47
       /AOINFO / : Write AO information to lfn31
       /FILE   / : Set to mol38.gen*

 Filename set to mol38.gen1

 Job title: mol38-NBO


 MOs in the AO basis:

           AO          1       2       3       4       5       6       7       8
      ------------ ------- ------- ------- ------- ------- ------- ------- -------
   1.  C 1 (s)      0.0000  0.0003  0.9962 -0.1481  0.0000  0.1337  0.0000  0.0000
   2.  C 1 (s)      0.0000 -0.0004  0.0246  0.2899  0.0000 -0.3184  0.0000  0.0000
   3.  C 1 (px)     0.0000  0.0000  0.0000  0.0000  0.0000  0.0000  0.0000  0.3518
   4.  C 1 (py)     0.0000  0.0000  0.0000  0.0000  0.0000  0.0000  0.0000  0.0181
   5.  C 1 (pz)     0.0001  0.0000  0.0000  0.0000  0.3158  0.0000 -0.3714  0.0000
   6.  C 1 (s)      0.0000  0.0052 -0.0005  0.0338  0.0000 -0.1588  0.0000  0.0000
   7.  C 1 (px)     0.0000  0.0000  0.0000  0.0000  0.0000  0.0000  0.0000  0.1327
   8.  C 1 (py)     0.0000  0.0000  0.0000  0.0000  0.0000  0.0000  0.0000  0.0068
   9.  C 1 (pz)     0.0111  0.0000  0.0000  0.0000 -0.0360  0.0000  0.0098  0.0000
  10.  C 1 (d5)     0.0000 -0.0020  0.0033  0.0511  0.0000 -0.0184  0.0000  0.0000
  11.  C 1 (d2)     0.0000  0.0000  0.0000  0.0000  0.0000  0.0000  0.0000  0.0000
  12.  C 1 (d3)     0.0000  0.0000  0.0000  0.0000  0.0000  0.0000  0.0000  0.0000
  13.  C 1 (d4)     0.0000  0.0000  0.0000  0.0000  0.0000  0.0000  0.0000  0.0000
  14.  C 1 (d1)     0.0000  0.0000  0.0000  0.0000  0.0000  0.0000  0.0000  0.0000
  15.  O 2 (s)      0.7042  0.7042 -0.0004 -0.1358 -0.1482 -0.0866 -0.0634  0.0000
  16.  O 2 (s)      0.0168  0.0161  0.0002  0.2940  0.3245  0.2094  0.1575  0.0000
  17.  O 2 (px)     0.0000  0.0000  0.0000  0.0000  0.0000  0.0000  0.0000  0.3634
  18.  O 2 (py)     0.0000  0.0000  0.0000  0.0000  0.0000  0.0000  0.0000  0.0187
  19.  O 2 (pz)    -0.0015 -0.0021  0.0004 -0.1013 -0.1023  0.3275  0.3858  0.0000
  20.  O 2 (s)     -0.0133 -0.0061 -0.0034  0.2697  0.3035  0.3052  0.2413  0.0000
  21.  O 2 (px)     0.0000  0.0000  0.0000  0.0000  0.0000  0.0000  0.0000  0.2255
  22.  O 2 (py)     0.0000  0.0000  0.0000  0.0000  0.0000  0.0000  0.0000  0.0116
  23.  O 2 (pz)     0.0034  0.0020  0.0030 -0.0476 -0.0318  0.1737  0.2003  0.0000
  24.  O 2 (d5)     0.0000  0.0004 -0.0009  0.0097  0.0110 -0.0185 -0.0222  0.0000
  25.  O 2 (d2)     0.0000  0.0000  0.0000  0.0000  0.0000  0.0000  0.0000 -0.0338
  26.  O 2 (d3)     0.0000  0.0000  0.0000  0.0000  0.0000  0.0000  0.0000 -0.0017
  27.  O 2 (d4)     0.0000  0.0000  0.0000  0.0000  0.0000  0.0000  0.0000  0.0000
  28.  O 2 (d1)     0.0000  0.0000  0.0000  0.0000  0.0000  0.0000  0.0000  0.0000
  29.  O 3 (s)     -0.7042  0.7042 -0.0004 -0.1358  0.1482 -0.0866  0.0634  0.0000
  30.  O 3 (s)     -0.0168  0.0161  0.0002  0.2940 -0.3245  0.2094 -0.1575  0.0000
  31.  O 3 (px)     0.0000  0.0000  0.0000  0.0000  0.0000  0.0000  0.0000  0.3634
  32.  O 3 (py)     0.0000  0.0000  0.0000  0.0000  0.0000  0.0000  0.0000  0.0187
  33.  O 3 (pz)    -0.0015  0.0021 -0.0004  0.1013 -0.1023 -0.3275  0.3858  0.0000
  34.  O 3 (s)      0.0133 -0.0061 -0.0034  0.2697 -0.3035  0.3052 -0.2413  0.0000
  35.  O 3 (px)     0.0000  0.0000  0.0000  0.0000  0.0000  0.0000  0.0000  0.2255
  36.  O 3 (py)     0.0000  0.0000  0.0000  0.0000  0.0000  0.0000  0.0000  0.0116
  37.  O 3 (pz)     0.0034 -0.0020 -0.0030  0.0476 -0.0318 -0.1737  0.2003  0.0000
  38.  O 3 (d5)     0.0000  0.0004 -0.0009  0.0097 -0.0110 -0.0185  0.0222  0.0000
  39.  O 3 (d2)     0.0000  0.0000  0.0000  0.0000  0.0000  0.0000  0.0000  0.0338
  40.  O 3 (d3)     0.0000  0.0000  0.0000  0.0000  0.0000  0.0000  0.0000  0.0017
  41.  O 3 (d4)     0.0000  0.0000  0.0000  0.0000  0.0000  0.0000  0.0000  0.0000
  42.  O 3 (d1)     0.0000  0.0000  0.0000  0.0000  0.0000  0.0000  0.0000  0.0000

           AO          9      10      11      12      13      14      15      16
      ------------ ------- ------- ------- ------- ------- ------- ------- -------
   1.  C 1 (s)      0.0000  0.0000  0.0000  0.0000  0.0000 -0.0877  0.0000  0.0000
   2.  C 1 (s)      0.0000  0.0000  0.0000  0.0000  0.0000 -0.0300  0.0000  0.0000
   3.  C 1 (px)    -0.0181  0.0000  0.0000  0.1496  0.5090  0.0000  0.0000 -0.8408
   4.  C 1 (py)     0.3518  0.0000  0.0000  0.5090 -0.1496  0.0000  0.0000 -0.4986
   5.  C 1 (pz)     0.0000  0.0000  0.0000  0.0000  0.0000  0.0000  0.0507  0.0000
   6.  C 1 (s)      0.0000  0.0000  0.0000  0.0000  0.0000  2.4608  0.0000  0.0000
   7.  C 1 (px)    -0.0068  0.0000  0.0000  0.2132  0.7253  0.0000  0.0000  1.1025
   8.  C 1 (py)     0.1327  0.0000  0.0000  0.7253 -0.2132  0.0000  0.0000  0.6538
   9.  C 1 (pz)     0.0000  0.0000  0.0000  0.0000  0.0000  0.0000  3.9844  0.0000
  10.  C 1 (d5)     0.0000  0.0000  0.0000  0.0000  0.0000 -0.0189  0.0000  0.0000
  11.  C 1 (d2)     0.0000  0.0575  0.0364  0.0000  0.0000  0.0000  0.0000  0.0000
  12.  C 1 (d3)     0.0000 -0.0364  0.0575  0.0000  0.0000  0.0000  0.0000  0.0000
  13.  C 1 (d4)     0.0000  0.0000  0.0000  0.0000  0.0000  0.0000  0.0000  0.0000
  14.  C 1 (d1)     0.0000  0.0000  0.0000  0.0000  0.0000  0.0000  0.0000  0.0000
  15.  O 2 (s)      0.0000  0.0000  0.0000  0.0000  0.0000  0.0748  0.0824  0.0000
  16.  O 2 (s)      0.0000  0.0000  0.0000  0.0000  0.0000 -0.1452 -0.0342  0.0000
  17.  O 2 (px)    -0.0187  0.3840  0.2431 -0.0927 -0.3154  0.0000  0.0000 -0.0667
  18.  O 2 (py)     0.3634 -0.2431  0.3840 -0.3154  0.0927  0.0000  0.0000 -0.0395
  19.  O 2 (pz)     0.0000  0.0000  0.0000  0.0000  0.0000  0.2465 -0.0827  0.0000
  20.  O 2 (s)      0.0000  0.0000  0.0000  0.0000  0.0000 -0.9633 -2.7283  0.0000
  21.  O 2 (px)    -0.0116  0.2908  0.1841 -0.1258 -0.4280  0.0000  0.0000 -0.1212
  22.  O 2 (py)     0.2255 -0.1841  0.2908 -0.4280  0.1258  0.0000  0.0000 -0.0719
  23.  O 2 (pz)     0.0000  0.0000  0.0000  0.0000  0.0000  0.6331  0.8335  0.0000
  24.  O 2 (d5)     0.0000  0.0000  0.0000  0.0000  0.0000 -0.0467 -0.0481  0.0000
  25.  O 2 (d2)     0.0017 -0.0227 -0.0144 -0.0043 -0.0148  0.0000  0.0000  0.0635
  26.  O 2 (d3)    -0.0338  0.0144 -0.0227 -0.0148  0.0043  0.0000  0.0000  0.0377
  27.  O 2 (d4)     0.0000  0.0000  0.0000  0.0000  0.0000  0.0000  0.0000  0.0000
  28.  O 2 (d1)     0.0000  0.0000  0.0000  0.0000  0.0000  0.0000  0.0000  0.0000
  29.  O 3 (s)      0.0000  0.0000  0.0000  0.0000  0.0000  0.0748 -0.0824  0.0000
  30.  O 3 (s)      0.0000  0.0000  0.0000  0.0000  0.0000 -0.1452  0.0342  0.0000
  31.  O 3 (px)    -0.0187 -0.3840 -0.2431 -0.0927 -0.3154  0.0000  0.0000 -0.0667
  32.  O 3 (py)     0.3634  0.2431 -0.3840 -0.3154  0.0927  0.0000  0.0000 -0.0395
  33.  O 3 (pz)     0.0000  0.0000  0.0000  0.0000  0.0000 -0.2465 -0.0827  0.0000
  34.  O 3 (s)      0.0000  0.0000  0.0000  0.0000  0.0000 -0.9633  2.7283  0.0000
  35.  O 3 (px)    -0.0116 -0.2908 -0.1841 -0.1258 -0.4280  0.0000  0.0000 -0.1212
  36.  O 3 (py)     0.2255  0.1841 -0.2908 -0.4280  0.1258  0.0000  0.0000 -0.0719
  37.  O 3 (pz)     0.0000  0.0000  0.0000  0.0000  0.0000 -0.6331  0.8335  0.0000
  38.  O 3 (d5)     0.0000  0.0000  0.0000  0.0000  0.0000 -0.0467  0.0481  0.0000
  39.  O 3 (d2)    -0.0017 -0.0227 -0.0144  0.0043  0.0148  0.0000  0.0000 -0.0635
  40.  O 3 (d3)     0.0338  0.0144 -0.0227  0.0148 -0.0043  0.0000  0.0000 -0.0377
  41.  O 3 (d4)     0.0000  0.0000  0.0000  0.0000  0.0000  0.0000  0.0000  0.0000
  42.  O 3 (d1)     0.0000  0.0000  0.0000  0.0000  0.0000  0.0000  0.0000  0.0000

           AO         17      18      19      20      21      22      23      24
      ------------ ------- ------- ------- ------- ------- ------- ------- -------
   1.  C 1 (s)      0.0000  0.1252  0.0000  0.0594  0.0000  0.0000  0.0000  0.0000
   2.  C 1 (s)      0.0000 -1.2734  0.0000  1.0670  0.0000  0.0000  0.0000  0.0000
   3.  C 1 (px)     0.4986  0.0000  0.0000  0.0000  0.0000  0.0000  0.0198  0.1835
   4.  C 1 (py)    -0.8408  0.0000  0.0000  0.0000  0.0000  0.0000  0.1835 -0.0198
   5.  C 1 (pz)     0.0000  0.0000  1.0523  0.0000  0.0000  0.0000  0.0000  0.0000
   6.  C 1 (s)      0.0000  1.9664  0.0000  1.0013  0.0000  0.0000  0.0000  0.0000
   7.  C 1 (px)    -0.6538  0.0000  0.0000  0.0000  0.0000  0.0000 -0.1041 -0.9625
   8.  C 1 (py)     1.1025  0.0000  0.0000  0.0000  0.0000  0.0000 -0.9625  0.1041
   9.  C 1 (pz)     0.0000  0.0000  0.0683  0.0000  0.0000  0.0000  0.0000  0.0000
  10.  C 1 (d5)     0.0000  0.2988  0.0000  0.2847  0.0000  0.0000  0.0000  0.0000
  11.  C 1 (d2)     0.0000  0.0000  0.0000  0.0000 -0.1565 -0.0661  0.0000  0.0000
  12.  C 1 (d3)     0.0000  0.0000  0.0000  0.0000  0.0661 -0.1565  0.0000  0.0000
  13.  C 1 (d4)     0.0000  0.0000  0.0000  0.0000  0.0000  0.0000  0.0000  0.0000
  14.  C 1 (d1)     0.0000  0.0000  0.0000  0.0000  0.0000  0.0000  0.0000  0.0000
  15.  O 2 (s)      0.0000 -0.0121  0.0570  0.0530  0.0000  0.0000  0.0000  0.0000
  16.  O 2 (s)      0.0000  0.1093 -0.1839 -0.1862  0.0000  0.0000  0.0000  0.0000
  17.  O 2 (px)     0.0395  0.0000  0.0000  0.0000 -0.5986 -0.2529 -0.0718 -0.6632
  18.  O 2 (py)    -0.0667  0.0000  0.0000  0.0000  0.2529 -0.5986 -0.6632  0.0718
  19.  O 2 (pz)     0.0000 -0.3325 -0.0694 -0.4350  0.0000  0.0000  0.0000  0.0000
  20.  O 2 (s)      0.0000 -0.6367 -0.4461 -0.6019  0.0000  0.0000  0.0000  0.0000
  21.  O 2 (px)     0.0719  0.0000  0.0000  0.0000  0.7429  0.3139  0.1163  1.0747
  22.  O 2 (py)    -0.1212  0.0000  0.0000  0.0000 -0.3139  0.7429  1.0747 -0.1163
  23.  O 2 (pz)     0.0000  0.2828  0.9644  1.2693  0.0000  0.0000  0.0000  0.0000
  24.  O 2 (d5)     0.0000 -0.1743  0.1032 -0.0582  0.0000  0.0000  0.0000  0.0000
  25.  O 2 (d2)    -0.0377  0.0000  0.0000  0.0000  0.0181  0.0076  0.0080  0.0740
  26.  O 2 (d3)     0.0635  0.0000  0.0000  0.0000 -0.0076  0.0181  0.0740 -0.0080
  27.  O 2 (d4)     0.0000  0.0000  0.0000  0.0000  0.0000  0.0000  0.0000  0.0000
  28.  O 2 (d1)     0.0000  0.0000  0.0000  0.0000  0.0000  0.0000  0.0000  0.0000
  29.  O 3 (s)      0.0000 -0.0121 -0.0570  0.0530  0.0000  0.0000  0.0000  0.0000
  30.  O 3 (s)      0.0000  0.1093  0.1839 -0.1862  0.0000  0.0000  0.0000  0.0000
  31.  O 3 (px)     0.0395  0.0000  0.0000  0.0000  0.5986  0.2529 -0.0718 -0.6632
  32.  O 3 (py)    -0.0667  0.0000  0.0000  0.0000 -0.2529  0.5986 -0.6632  0.0718
  33.  O 3 (pz)     0.0000  0.3325 -0.0694  0.4350  0.0000  0.0000  0.0000  0.0000
  34.  O 3 (s)      0.0000 -0.6367  0.4461 -0.6019  0.0000  0.0000  0.0000  0.0000
  35.  O 3 (px)     0.0719  0.0000  0.0000  0.0000 -0.7429 -0.3139  0.1163  1.0747
  36.  O 3 (py)    -0.1212  0.0000  0.0000  0.0000  0.3139 -0.7429  1.0747 -0.1163
  37.  O 3 (pz)     0.0000 -0.2828  0.9644 -1.2693  0.0000  0.0000  0.0000  0.0000
  38.  O 3 (d5)     0.0000 -0.1743 -0.1032 -0.0582  0.0000  0.0000  0.0000  0.0000
  39.  O 3 (d2)     0.0377  0.0000  0.0000  0.0000  0.0181  0.0076 -0.0080 -0.0740
  40.  O 3 (d3)    -0.0635  0.0000  0.0000  0.0000 -0.0076  0.0181 -0.0740  0.0080
  41.  O 3 (d4)     0.0000  0.0000  0.0000  0.0000  0.0000  0.0000  0.0000  0.0000
  42.  O 3 (d1)     0.0000  0.0000  0.0000  0.0000  0.0000  0.0000  0.0000  0.0000

           AO         25      26      27      28      29      30      31      32
      ------------ ------- ------- ------- ------- ------- ------- ------- -------
   1.  C 1 (s)      0.0000  0.0000  0.0000  0.0000  0.0000  0.0274  0.0000  0.0000
   2.  C 1 (s)      0.0000  0.0000  0.0000  0.0000  0.0000  0.3344  0.0000  0.0000
   3.  C 1 (px)     0.0000  0.0000  0.0000  0.0000  0.0000  0.0000  0.0000  0.0000
   4.  C 1 (py)     0.0000  0.0000  0.0000  0.0000  0.0000  0.0000  0.0000  0.0000
   5.  C 1 (pz)     0.5629  0.0000  0.0000  0.0000  0.0000  0.0000  0.0000  0.0000
   6.  C 1 (s)      0.0000  0.0000  0.0000  0.0000  0.0000  2.9444  0.0000  0.0000
   7.  C 1 (px)     0.0000  0.0000  0.0000  0.0000  0.0000  0.0000  0.0000  0.0000
   8.  C 1 (py)     0.0000  0.0000  0.0000  0.0000  0.0000  0.0000  0.0000  0.0000
   9.  C 1 (pz)     0.5463  0.0000  0.0000  0.0000  0.0000  0.0000  0.0000  0.0000
  10.  C 1 (d5)     0.0000  0.0000  0.0000  0.0000  0.0000  0.4081  0.0000  0.0000
  11.  C 1 (d2)     0.0000  0.0000  0.0000 -0.2748  0.4607  0.0000  0.0000  0.0000
  12.  C 1 (d3)     0.0000  0.0000  0.0000  0.4607  0.2748  0.0000  0.0000  0.0000
  13.  C 1 (d4)     0.0000 -0.0072  0.7481  0.0000  0.0000  0.0000  0.0000  0.0000
  14.  C 1 (d1)     0.0000  0.7481  0.0072  0.0000  0.0000  0.0000  0.0000  0.0000
  15.  O 2 (s)      0.0278  0.0000  0.0000  0.0000  0.0000 -0.0184  0.0000  0.0000
  16.  O 2 (s)     -0.1048  0.0000  0.0000  0.0000  0.0000  1.1057  0.0000  0.0000
  17.  O 2 (px)     0.0000  0.0000  0.0000  0.1044 -0.1750  0.0000  0.0000  0.0000
  18.  O 2 (py)     0.0000  0.0000  0.0000 -0.1750 -0.1044  0.0000  0.0000  0.0000
  19.  O 2 (pz)     0.7507  0.0000  0.0000  0.0000  0.0000  0.0654  0.0000  0.0000
  20.  O 2 (s)     -0.4749  0.0000  0.0000  0.0000  0.0000 -2.5675  0.0000  0.0000
  21.  O 2 (px)     0.0000  0.0000  0.0000  0.0082 -0.0137  0.0000  0.0000  0.0000
  22.  O 2 (py)     0.0000  0.0000  0.0000 -0.0137 -0.0082  0.0000  0.0000  0.0000
  23.  O 2 (pz)    -0.4658  0.0000  0.0000  0.0000  0.0000  1.0184  0.0000  0.0000
  24.  O 2 (d5)     0.1036  0.0000  0.0000  0.0000  0.0000  0.1088  0.0000  0.0000
  25.  O 2 (d2)     0.0000  0.0000  0.0000  0.2147 -0.3599  0.0000  0.0000  0.0000
  26.  O 2 (d3)     0.0000  0.0000  0.0000 -0.3599 -0.2147  0.0000  0.0000  0.0000
  27.  O 2 (d4)     0.0000 -0.0037  0.3774  0.0000  0.0000  0.0000 -0.2917  0.6443
  28.  O 2 (d1)     0.0000  0.3774  0.0037  0.0000  0.0000  0.0000  0.6443  0.2917
  29.  O 3 (s)     -0.0278  0.0000  0.0000  0.0000  0.0000 -0.0184  0.0000  0.0000
  30.  O 3 (s)      0.1048  0.0000  0.0000  0.0000  0.0000  1.1057  0.0000  0.0000
  31.  O 3 (px)     0.0000  0.0000  0.0000 -0.1044  0.1750  0.0000  0.0000  0.0000
  32.  O 3 (py)     0.0000  0.0000  0.0000  0.1750  0.1044  0.0000  0.0000  0.0000
  33.  O 3 (pz)     0.7507  0.0000  0.0000  0.0000  0.0000 -0.0654  0.0000  0.0000
  34.  O 3 (s)      0.4749  0.0000  0.0000  0.0000  0.0000 -2.5675  0.0000  0.0000
  35.  O 3 (px)     0.0000  0.0000  0.0000 -0.0082  0.0137  0.0000  0.0000  0.0000
  36.  O 3 (py)     0.0000  0.0000  0.0000  0.0137  0.0082  0.0000  0.0000  0.0000
  37.  O 3 (pz)    -0.4658  0.0000  0.0000  0.0000  0.0000 -1.0184  0.0000  0.0000
  38.  O 3 (d5)    -0.1036  0.0000  0.0000  0.0000  0.0000  0.1088  0.0000  0.0000
  39.  O 3 (d2)     0.0000  0.0000  0.0000  0.2147 -0.3599  0.0000  0.0000  0.0000
  40.  O 3 (d3)     0.0000  0.0000  0.0000 -0.3599 -0.2147  0.0000  0.0000  0.0000
  41.  O 3 (d4)     0.0000 -0.0037  0.3774  0.0000  0.0000  0.0000  0.2917 -0.6443
  42.  O 3 (d1)     0.0000  0.3774  0.0037  0.0000  0.0000  0.0000 -0.6443 -0.2917

           AO         33      34      35      36      37      38      39      40
      ------------ ------- ------- ------- ------- ------- ------- ------- -------
   1.  C 1 (s)      0.0000  0.0000  0.0000  0.0000  0.0000 -0.1497  0.0000  0.0000
   2.  C 1 (s)      0.0000  0.0000  0.0000  0.0000  0.0000 -1.7369  0.0000  0.0000
   3.  C 1 (px)     0.0000  0.0000  0.0000  0.2125  0.4498  0.0000  0.0000  0.0000
   4.  C 1 (py)     0.0000  0.0000  0.0000  0.4498 -0.2125  0.0000  0.0000  0.0000
   5.  C 1 (pz)    -0.1179  0.0000  0.0000  0.0000  0.0000  0.0000 -1.7935  0.0000
   6.  C 1 (s)      0.0000  0.0000  0.0000  0.0000  0.0000 -1.4745  0.0000  0.0000
   7.  C 1 (px)     0.0000  0.0000  0.0000  0.1687  0.3571  0.0000  0.0000  0.0000
   8.  C 1 (py)     0.0000  0.0000  0.0000  0.3571 -0.1687  0.0000  0.0000  0.0000
   9.  C 1 (pz)    -4.1648  0.0000  0.0000  0.0000  0.0000  0.0000 -1.7498  0.0000
  10.  C 1 (d5)     0.0000  0.0000  0.0000  0.0000  0.0000  0.2748  0.0000  0.0000
  11.  C 1 (d2)     0.0000  0.0000  0.0000  0.0000  0.0000  0.0000  0.0000 -0.2619
  12.  C 1 (d3)     0.0000  0.0000  0.0000  0.0000  0.0000  0.0000  0.0000  1.2681
  13.  C 1 (d4)     0.0000  0.6801  0.1304  0.0000  0.0000  0.0000  0.0000  0.0000
  14.  C 1 (d1)     0.0000 -0.1304  0.6801  0.0000  0.0000  0.0000  0.0000  0.0000
  15.  O 2 (s)      0.0126  0.0000  0.0000  0.0000  0.0000 -0.0118 -0.0383  0.0000
  16.  O 2 (s)     -1.4523  0.0000  0.0000  0.0000  0.0000 -0.8654 -0.6586  0.0000
  17.  O 2 (px)     0.0000  0.0000  0.0000  0.0612  0.1296  0.0000  0.0000  0.0274
  18.  O 2 (py)     0.0000  0.0000  0.0000  0.1296 -0.0612  0.0000  0.0000 -0.1326
  19.  O 2 (pz)     0.0761  0.0000  0.0000  0.0000  0.0000  0.2458 -0.1356  0.0000
  20.  O 2 (s)      4.4209  0.0000  0.0000  0.0000  0.0000  1.8540  2.7217  0.0000
  21.  O 2 (px)     0.0000  0.0000  0.0000 -0.1795 -0.3801  0.0000  0.0000  0.0597
  22.  O 2 (py)     0.0000  0.0000  0.0000 -0.3801  0.1795  0.0000  0.0000 -0.2889
  23.  O 2 (pz)    -1.0721  0.0000  0.0000  0.0000  0.0000 -1.2475 -1.3050  0.0000
  24.  O 2 (d5)    -0.2261  0.0000  0.0000  0.0000  0.0000  0.7945  0.9658  0.0000
  25.  O 2 (d2)     0.0000  0.0000  0.0000  0.3360  0.7114  0.0000  0.0000 -0.1660
  26.  O 2 (d3)     0.0000  0.0000  0.0000  0.7114 -0.3360  0.0000  0.0000  0.8038
  27.  O 2 (d4)     0.0000 -0.6030 -0.1156  0.0000  0.0000  0.0000  0.0000  0.0000
  28.  O 2 (d1)     0.0000  0.1156 -0.6030  0.0000  0.0000  0.0000  0.0000  0.0000
  29.  O 3 (s)     -0.0126  0.0000  0.0000  0.0000  0.0000 -0.0118  0.0383  0.0000
  30.  O 3 (s)      1.4523  0.0000  0.0000  0.0000  0.0000 -0.8654  0.6586  0.0000
  31.  O 3 (px)     0.0000  0.0000  0.0000  0.0612  0.1296  0.0000  0.0000 -0.0274
  32.  O 3 (py)     0.0000  0.0000  0.0000  0.1296 -0.0612  0.0000  0.0000  0.1326
  33.  O 3 (pz)     0.0761  0.0000  0.0000  0.0000  0.0000 -0.2458 -0.1356  0.0000
  34.  O 3 (s)     -4.4209  0.0000  0.0000  0.0000  0.0000  1.8540 -2.7217  0.0000
  35.  O 3 (px)     0.0000  0.0000  0.0000 -0.1795 -0.3801  0.0000  0.0000 -0.0597
  36.  O 3 (py)     0.0000  0.0000  0.0000 -0.3801  0.1795  0.0000  0.0000  0.2889
  37.  O 3 (pz)    -1.0721  0.0000  0.0000  0.0000  0.0000  1.2475 -1.3050  0.0000
  38.  O 3 (d5)     0.2261  0.0000  0.0000  0.0000  0.0000  0.7945 -0.9658  0.0000
  39.  O 3 (d2)     0.0000  0.0000  0.0000 -0.3360 -0.7114  0.0000  0.0000 -0.1660
  40.  O 3 (d3)     0.0000  0.0000  0.0000 -0.7114  0.3360  0.0000  0.0000  0.8038
  41.  O 3 (d4)     0.0000 -0.6030 -0.1156  0.0000  0.0000  0.0000  0.0000  0.0000
  42.  O 3 (d1)     0.0000  0.1156 -0.6030  0.0000  0.0000  0.0000  0.0000  0.0000

           AO         41      42
      ------------ ------- -------
   1.  C 1 (s)      0.0000  0.0245
   2.  C 1 (s)      0.0000  1.9680
   3.  C 1 (px)     0.0000  0.0000
   4.  C 1 (py)     0.0000  0.0000
   5.  C 1 (pz)     0.0000  0.0000
   6.  C 1 (s)      0.0000  1.8831
   7.  C 1 (px)     0.0000  0.0000
   8.  C 1 (py)     0.0000  0.0000
   9.  C 1 (pz)     0.0000  0.0000
  10.  C 1 (d5)     0.0000  1.7295
  11.  C 1 (d2)     1.2681  0.0000
  12.  C 1 (d3)     0.2619  0.0000
  13.  C 1 (d4)     0.0000  0.0000
  14.  C 1 (d1)     0.0000  0.0000
  15.  O 2 (s)      0.0000  0.0633
  16.  O 2 (s)      0.0000 -0.1508
  17.  O 2 (px)    -0.1326  0.0000
  18.  O 2 (py)    -0.0274  0.0000
  19.  O 2 (pz)     0.0000  0.7262
  20.  O 2 (s)      0.0000 -1.7296
  21.  O 2 (px)    -0.2889  0.0000
  22.  O 2 (py)    -0.0597  0.0000
  23.  O 2 (pz)     0.0000  1.0118
  24.  O 2 (d5)     0.0000 -0.9180
  25.  O 2 (d2)     0.8038  0.0000
  26.  O 2 (d3)     0.1660  0.0000
  27.  O 2 (d4)     0.0000  0.0000
  28.  O 2 (d1)     0.0000  0.0000
  29.  O 3 (s)      0.0000  0.0633
  30.  O 3 (s)      0.0000 -0.1508
  31.  O 3 (px)     0.1326  0.0000
  32.  O 3 (py)     0.0274  0.0000
  33.  O 3 (pz)     0.0000 -0.7262
  34.  O 3 (s)      0.0000 -1.7296
  35.  O 3 (px)     0.2889  0.0000
  36.  O 3 (py)     0.0597  0.0000
  37.  O 3 (pz)     0.0000 -1.0118
  38.  O 3 (d5)     0.0000 -0.9180
  39.  O 3 (d2)     0.8038  0.0000
  40.  O 3 (d3)     0.1660  0.0000
  41.  O 3 (d4)     0.0000  0.0000
  42.  O 3 (d1)     0.0000  0.0000


 AO overlap matrix:

           AO          1       2       3       4       5       6       7       8
      ------------ ------- ------- ------- ------- ------- ------- ------- -------
   1.  C 1 (s)      1.0000  0.2191  0.0000  0.0000  0.0000  0.1843  0.0000  0.0000
   2.  C 1 (s)      0.2191  1.0000  0.0000  0.0000  0.0000  0.8123  0.0000  0.0000
   3.  C 1 (px)     0.0000  0.0000  1.0000  0.0000  0.0000  0.0000  0.5698  0.0000
   4.  C 1 (py)     0.0000  0.0000  0.0000  1.0000  0.0000  0.0000  0.0000  0.5698
   5.  C 1 (pz)     0.0000  0.0000  0.0000  0.0000  1.0000  0.0000  0.0000  0.0000
   6.  C 1 (s)      0.1843  0.8123  0.0000  0.0000  0.0000  1.0000  0.0000  0.0000
   7.  C 1 (px)     0.0000  0.0000  0.5698  0.0000  0.0000  0.0000  1.0000  0.0000
   8.  C 1 (py)     0.0000  0.0000  0.0000  0.5698  0.0000  0.0000  0.0000  1.0000
   9.  C 1 (pz)     0.0000  0.0000  0.0000  0.0000  0.5698  0.0000  0.0000  0.0000
  10.  C 1 (d5)     0.0000  0.0000  0.0000  0.0000  0.0000  0.0000  0.0000  0.0000
  11.  C 1 (d2)     0.0000  0.0000  0.0000  0.0000  0.0000  0.0000  0.0000  0.0000
  12.  C 1 (d3)     0.0000  0.0000  0.0000  0.0000  0.0000  0.0000  0.0000  0.0000
  13.  C 1 (d4)     0.0000  0.0000  0.0000  0.0000  0.0000  0.0000  0.0000  0.0000
  14.  C 1 (d1)     0.0000  0.0000  0.0000  0.0000  0.0000  0.0000  0.0000  0.0000
  15.  O 2 (s)      0.0000  0.0244  0.0000  0.0000  0.0496  0.0527  0.0000  0.0000
  16.  O 2 (s)      0.0103  0.1895  0.0000  0.0000  0.2957  0.3005  0.0000  0.0000
  17.  O 2 (px)     0.0000  0.0000  0.1005  0.0000  0.0000  0.0000  0.1626  0.0000
  18.  O 2 (py)     0.0000  0.0000  0.0000  0.1005  0.0000  0.0000  0.0000  0.1626
  19.  O 2 (pz)    -0.0240 -0.2186  0.0000  0.0000 -0.2902 -0.1488  0.0000  0.0000
  20.  O 2 (s)      0.0717  0.3928  0.0000  0.0000  0.3450  0.5734  0.0000  0.0000
  21.  O 2 (px)     0.0000  0.0000  0.2980  0.0000  0.0000  0.0000  0.5579  0.0000
  22.  O 2 (py)     0.0000  0.0000  0.0000  0.2980  0.0000  0.0000  0.0000  0.5579
  23.  O 2 (pz)    -0.1567 -0.5901  0.0000  0.0000 -0.2562 -0.5104  0.0000  0.0000
  24.  O 2 (d5)     0.1101  0.2850  0.0000  0.0000  0.2565  0.0920  0.0000  0.0000
  25.  O 2 (d2)     0.0000  0.0000 -0.2754  0.0000  0.0000  0.0000 -0.1742  0.0000
  26.  O 2 (d3)     0.0000  0.0000  0.0000 -0.2754  0.0000  0.0000  0.0000 -0.1742
  27.  O 2 (d4)     0.0000  0.0000  0.0000  0.0000  0.0000  0.0000  0.0000  0.0000
  28.  O 2 (d1)     0.0000  0.0000  0.0000  0.0000  0.0000  0.0000  0.0000  0.0000
  29.  O 3 (s)      0.0000  0.0244  0.0000  0.0000 -0.0496  0.0527  0.0000  0.0000
  30.  O 3 (s)      0.0103  0.1895  0.0000  0.0000 -0.2957  0.3005  0.0000  0.0000
  31.  O 3 (px)     0.0000  0.0000  0.1005  0.0000  0.0000  0.0000  0.1626  0.0000
  32.  O 3 (py)     0.0000  0.0000  0.0000  0.1005  0.0000  0.0000  0.0000  0.1626
  33.  O 3 (pz)     0.0240  0.2186  0.0000  0.0000 -0.2902  0.1488  0.0000  0.0000
  34.  O 3 (s)      0.0717  0.3928  0.0000  0.0000 -0.3450  0.5734  0.0000  0.0000
  35.  O 3 (px)     0.0000  0.0000  0.2980  0.0000  0.0000  0.0000  0.5579  0.0000
  36.  O 3 (py)     0.0000  0.0000  0.0000  0.2980  0.0000  0.0000  0.0000  0.5579
  37.  O 3 (pz)     0.1567  0.5901  0.0000  0.0000 -0.2562  0.5104  0.0000  0.0000
  38.  O 3 (d5)     0.1101  0.2850  0.0000  0.0000 -0.2565  0.0920  0.0000  0.0000
  39.  O 3 (d2)     0.0000  0.0000  0.2754  0.0000  0.0000  0.0000  0.1742  0.0000
  40.  O 3 (d3)     0.0000  0.0000  0.0000  0.2754  0.0000  0.0000  0.0000  0.1742
  41.  O 3 (d4)     0.0000  0.0000  0.0000  0.0000  0.0000  0.0000  0.0000  0.0000
  42.  O 3 (d1)     0.0000  0.0000  0.0000  0.0000  0.0000  0.0000  0.0000  0.0000

           AO          9      10      11      12      13      14      15      16
      ------------ ------- ------- ------- ------- ------- ------- ------- -------
   1.  C 1 (s)      0.0000  0.0000  0.0000  0.0000  0.0000  0.0000  0.0000  0.0103
   2.  C 1 (s)      0.0000  0.0000  0.0000  0.0000  0.0000  0.0000  0.0244  0.1895
   3.  C 1 (px)     0.0000  0.0000  0.0000  0.0000  0.0000  0.0000  0.0000  0.0000
   4.  C 1 (py)     0.0000  0.0000  0.0000  0.0000  0.0000  0.0000  0.0000  0.0000
   5.  C 1 (pz)     0.5698  0.0000  0.0000  0.0000  0.0000  0.0000  0.0496  0.2957
   6.  C 1 (s)      0.0000  0.0000  0.0000  0.0000  0.0000  0.0000  0.0527  0.3005
   7.  C 1 (px)     0.0000  0.0000  0.0000  0.0000  0.0000  0.0000  0.0000  0.0000
   8.  C 1 (py)     0.0000  0.0000  0.0000  0.0000  0.0000  0.0000  0.0000  0.0000
   9.  C 1 (pz)     1.0000  0.0000  0.0000  0.0000  0.0000  0.0000  0.0945  0.4672
  10.  C 1 (d5)     0.0000  1.0000  0.0000  0.0000  0.0000  0.0000  0.0702  0.3187
  11.  C 1 (d2)     0.0000  0.0000  1.0000  0.0000  0.0000  0.0000  0.0000  0.0000
  12.  C 1 (d3)     0.0000  0.0000  0.0000  1.0000  0.0000  0.0000  0.0000  0.0000
  13.  C 1 (d4)     0.0000  0.0000  0.0000  0.0000  1.0000  0.0000  0.0000  0.0000
  14.  C 1 (d1)     0.0000  0.0000  0.0000  0.0000  0.0000  1.0000  0.0000  0.0000
  15.  O 2 (s)      0.0945  0.0702  0.0000  0.0000  0.0000  0.0000  1.0000  0.2337
  16.  O 2 (s)      0.4672  0.3187  0.0000  0.0000  0.0000  0.0000  0.2337  1.0000
  17.  O 2 (px)     0.0000  0.0000  0.1964  0.0000  0.0000  0.0000  0.0000  0.0000
  18.  O 2 (py)     0.0000  0.0000  0.0000  0.1964  0.0000  0.0000  0.0000  0.0000
  19.  O 2 (pz)    -0.0736 -0.3044  0.0000  0.0000  0.0000  0.0000  0.0000  0.0000
  20.  O 2 (s)      0.6457  0.1736  0.0000  0.0000  0.0000  0.0000  0.1673  0.7636
  21.  O 2 (px)     0.0000  0.0000  0.2598  0.0000  0.0000  0.0000  0.0000  0.0000
  22.  O 2 (py)     0.0000  0.0000  0.0000  0.2598  0.0000  0.0000  0.0000  0.0000
  23.  O 2 (pz)    -0.0169 -0.0004  0.0000  0.0000  0.0000  0.0000  0.0000  0.0000
  24.  O 2 (d5)    -0.0621  0.1318  0.0000  0.0000  0.0000  0.0000  0.0000  0.0000
  25.  O 2 (d2)     0.0000  0.0000 -0.4081  0.0000  0.0000  0.0000  0.0000  0.0000
  26.  O 2 (d3)     0.0000  0.0000  0.0000 -0.4081  0.0000  0.0000  0.0000  0.0000
  27.  O 2 (d4)     0.0000  0.0000  0.0000  0.0000  0.1375  0.0000  0.0000  0.0000
  28.  O 2 (d1)     0.0000  0.0000  0.0000  0.0000  0.0000  0.1375  0.0000  0.0000
  29.  O 3 (s)     -0.0945  0.0702  0.0000  0.0000  0.0000  0.0000  0.0000  0.0000
  30.  O 3 (s)     -0.4672  0.3187  0.0000  0.0000  0.0000  0.0000  0.0000  0.0001
  31.  O 3 (px)     0.0000  0.0000 -0.1964  0.0000  0.0000  0.0000  0.0000  0.0000
  32.  O 3 (py)     0.0000  0.0000  0.0000 -0.1964  0.0000  0.0000  0.0000  0.0000
  33.  O 3 (pz)    -0.0736  0.3044  0.0000  0.0000  0.0000  0.0000  0.0000  0.0002
  34.  O 3 (s)     -0.6457  0.1736  0.0000  0.0000  0.0000  0.0000  0.0009  0.0117
  35.  O 3 (px)     0.0000  0.0000 -0.2598  0.0000  0.0000  0.0000  0.0000  0.0000
  36.  O 3 (py)     0.0000  0.0000  0.0000 -0.2598  0.0000  0.0000  0.0000  0.0000
  37.  O 3 (pz)    -0.0169  0.0004  0.0000  0.0000  0.0000  0.0000  0.0042  0.0423
  38.  O 3 (d5)     0.0621  0.1318  0.0000  0.0000  0.0000  0.0000  0.0000  0.0018
  39.  O 3 (d2)     0.0000  0.0000 -0.4081  0.0000  0.0000  0.0000  0.0000  0.0000
  40.  O 3 (d3)     0.0000  0.0000  0.0000 -0.4081  0.0000  0.0000  0.0000  0.0000
  41.  O 3 (d4)     0.0000  0.0000  0.0000  0.0000  0.1375  0.0000  0.0000  0.0000
  42.  O 3 (d1)     0.0000  0.0000  0.0000  0.0000  0.0000  0.1375  0.0000  0.0000

           AO         17      18      19      20      21      22      23      24
      ------------ ------- ------- ------- ------- ------- ------- ------- -------
   1.  C 1 (s)      0.0000  0.0000 -0.0240  0.0717  0.0000  0.0000 -0.1567  0.1101
   2.  C 1 (s)      0.0000  0.0000 -0.2186  0.3928  0.0000  0.0000 -0.5901  0.2850
   3.  C 1 (px)     0.1005  0.0000  0.0000  0.0000  0.2980  0.0000  0.0000  0.0000
   4.  C 1 (py)     0.0000  0.1005  0.0000  0.0000  0.0000  0.2980  0.0000  0.0000
   5.  C 1 (pz)     0.0000  0.0000 -0.2902  0.3450  0.0000  0.0000 -0.2562  0.2565
   6.  C 1 (s)      0.0000  0.0000 -0.1488  0.5734  0.0000  0.0000 -0.5104  0.0920
   7.  C 1 (px)     0.1626  0.0000  0.0000  0.0000  0.5579  0.0000  0.0000  0.0000
   8.  C 1 (py)     0.0000  0.1626  0.0000  0.0000  0.0000  0.5579  0.0000  0.0000
   9.  C 1 (pz)     0.0000  0.0000 -0.0736  0.6457  0.0000  0.0000 -0.0169 -0.0621
  10.  C 1 (d5)     0.0000  0.0000 -0.3044  0.1736  0.0000  0.0000 -0.0004  0.1318
  11.  C 1 (d2)     0.1964  0.0000  0.0000  0.0000  0.2598  0.0000  0.0000  0.0000
  12.  C 1 (d3)     0.0000  0.1964  0.0000  0.0000  0.0000  0.2598  0.0000  0.0000
  13.  C 1 (d4)     0.0000  0.0000  0.0000  0.0000  0.0000  0.0000  0.0000  0.0000
  14.  C 1 (d1)     0.0000  0.0000  0.0000  0.0000  0.0000  0.0000  0.0000  0.0000
  15.  O 2 (s)      0.0000  0.0000  0.0000  0.1673  0.0000  0.0000  0.0000  0.0000
  16.  O 2 (s)      0.0000  0.0000  0.0000  0.7636  0.0000  0.0000  0.0000  0.0000
  17.  O 2 (px)     1.0000  0.0000  0.0000  0.0000  0.5015  0.0000  0.0000  0.0000
  18.  O 2 (py)     0.0000  1.0000  0.0000  0.0000  0.0000  0.5015  0.0000  0.0000
  19.  O 2 (pz)     0.0000  0.0000  1.0000  0.0000  0.0000  0.0000  0.5015  0.0000
  20.  O 2 (s)      0.0000  0.0000  0.0000  1.0000  0.0000  0.0000  0.0000  0.0000
  21.  O 2 (px)     0.5015  0.0000  0.0000  0.0000  1.0000  0.0000  0.0000  0.0000
  22.  O 2 (py)     0.0000  0.5015  0.0000  0.0000  0.0000  1.0000  0.0000  0.0000
  23.  O 2 (pz)     0.0000  0.0000  0.5015  0.0000  0.0000  0.0000  1.0000  0.0000
  24.  O 2 (d5)     0.0000  0.0000  0.0000  0.0000  0.0000  0.0000  0.0000  1.0000
  25.  O 2 (d2)     0.0000  0.0000  0.0000  0.0000  0.0000  0.0000  0.0000  0.0000
  26.  O 2 (d3)     0.0000  0.0000  0.0000  0.0000  0.0000  0.0000  0.0000  0.0000
  27.  O 2 (d4)     0.0000  0.0000  0.0000  0.0000  0.0000  0.0000  0.0000  0.0000
  28.  O 2 (d1)     0.0000  0.0000  0.0000  0.0000  0.0000  0.0000  0.0000  0.0000
  29.  O 3 (s)      0.0000  0.0000  0.0000  0.0009  0.0000  0.0000 -0.0042  0.0000
  30.  O 3 (s)      0.0000  0.0000 -0.0002  0.0117  0.0000  0.0000 -0.0423  0.0018
  31.  O 3 (px)     0.0000  0.0000  0.0000  0.0000  0.0068  0.0000  0.0000  0.0000
  32.  O 3 (py)     0.0000  0.0000  0.0000  0.0000  0.0000  0.0068  0.0000  0.0000
  33.  O 3 (pz)     0.0000  0.0000 -0.0004  0.0157  0.0000  0.0000 -0.0513  0.0041
  34.  O 3 (s)      0.0000  0.0000 -0.0157  0.0686  0.0000  0.0000 -0.1589  0.0344
  35.  O 3 (px)     0.0068  0.0000  0.0000  0.0000  0.0686  0.0000  0.0000  0.0000
  36.  O 3 (py)     0.0000  0.0068  0.0000  0.0000  0.0000  0.0686  0.0000  0.0000
  37.  O 3 (pz)     0.0000  0.0000 -0.0513  0.1589  0.0000  0.0000 -0.2991  0.0894
  38.  O 3 (d5)     0.0000  0.0000 -0.0041  0.0344  0.0000  0.0000 -0.0894  0.0228
  39.  O 3 (d2)     0.0004  0.0000  0.0000  0.0000  0.0258  0.0000  0.0000  0.0000
  40.  O 3 (d3)     0.0000  0.0004  0.0000  0.0000  0.0000  0.0258  0.0000  0.0000
  41.  O 3 (d4)     0.0000  0.0000  0.0000  0.0000  0.0000  0.0000  0.0000  0.0000
  42.  O 3 (d1)     0.0000  0.0000  0.0000  0.0000  0.0000  0.0000  0.0000  0.0000

           AO         25      26      27      28      29      30      31      32
      ------------ ------- ------- ------- ------- ------- ------- ------- -------
   1.  C 1 (s)      0.0000  0.0000  0.0000  0.0000  0.0000  0.0103  0.0000  0.0000
   2.  C 1 (s)      0.0000  0.0000  0.0000  0.0000  0.0244  0.1895  0.0000  0.0000
   3.  C 1 (px)    -0.2754  0.0000  0.0000  0.0000  0.0000  0.0000  0.1005  0.0000
   4.  C 1 (py)     0.0000 -0.2754  0.0000  0.0000  0.0000  0.0000  0.0000  0.1005
   5.  C 1 (pz)     0.0000  0.0000  0.0000  0.0000 -0.0496 -0.2957  0.0000  0.0000
   6.  C 1 (s)      0.0000  0.0000  0.0000  0.0000  0.0527  0.3005  0.0000  0.0000
   7.  C 1 (px)    -0.1742  0.0000  0.0000  0.0000  0.0000  0.0000  0.1626  0.0000
   8.  C 1 (py)     0.0000 -0.1742  0.0000  0.0000  0.0000  0.0000  0.0000  0.1626
   9.  C 1 (pz)     0.0000  0.0000  0.0000  0.0000 -0.0945 -0.4672  0.0000  0.0000
  10.  C 1 (d5)     0.0000  0.0000  0.0000  0.0000  0.0702  0.3187  0.0000  0.0000
  11.  C 1 (d2)    -0.4081  0.0000  0.0000  0.0000  0.0000  0.0000 -0.1964  0.0000
  12.  C 1 (d3)     0.0000 -0.4081  0.0000  0.0000  0.0000  0.0000  0.0000 -0.1964
  13.  C 1 (d4)     0.0000  0.0000  0.1375  0.0000  0.0000  0.0000  0.0000  0.0000
  14.  C 1 (d1)     0.0000  0.0000  0.0000  0.1375  0.0000  0.0000  0.0000  0.0000
  15.  O 2 (s)      0.0000  0.0000  0.0000  0.0000  0.0000  0.0000  0.0000  0.0000
  16.  O 2 (s)      0.0000  0.0000  0.0000  0.0000  0.0000  0.0001  0.0000  0.0000
  17.  O 2 (px)     0.0000  0.0000  0.0000  0.0000  0.0000  0.0000  0.0000  0.0000
  18.  O 2 (py)     0.0000  0.0000  0.0000  0.0000  0.0000  0.0000  0.0000  0.0000
  19.  O 2 (pz)     0.0000  0.0000  0.0000  0.0000  0.0000 -0.0002  0.0000  0.0000
  20.  O 2 (s)      0.0000  0.0000  0.0000  0.0000  0.0009  0.0117  0.0000  0.0000
  21.  O 2 (px)     0.0000  0.0000  0.0000  0.0000  0.0000  0.0000  0.0068  0.0000
  22.  O 2 (py)     0.0000  0.0000  0.0000  0.0000  0.0000  0.0000  0.0000  0.0068
  23.  O 2 (pz)     0.0000  0.0000  0.0000  0.0000 -0.0042 -0.0423  0.0000  0.0000
  24.  O 2 (d5)     0.0000  0.0000  0.0000  0.0000  0.0000  0.0018  0.0000  0.0000
  25.  O 2 (d2)     1.0000  0.0000  0.0000  0.0000  0.0000  0.0000 -0.0004  0.0000
  26.  O 2 (d3)     0.0000  1.0000  0.0000  0.0000  0.0000  0.0000  0.0000 -0.0004
  27.  O 2 (d4)     0.0000  0.0000  1.0000  0.0000  0.0000  0.0000  0.0000  0.0000
  28.  O 2 (d1)     0.0000  0.0000  0.0000  1.0000  0.0000  0.0000  0.0000  0.0000
  29.  O 3 (s)      0.0000  0.0000  0.0000  0.0000  1.0000  0.2337  0.0000  0.0000
  30.  O 3 (s)      0.0000  0.0000  0.0000  0.0000  0.2337  1.0000  0.0000  0.0000
  31.  O 3 (px)    -0.0004  0.0000  0.0000  0.0000  0.0000  0.0000  1.0000  0.0000
  32.  O 3 (py)     0.0000 -0.0004  0.0000  0.0000  0.0000  0.0000  0.0000  1.0000
  33.  O 3 (pz)     0.0000  0.0000  0.0000  0.0000  0.0000  0.0000  0.0000  0.0000
  34.  O 3 (s)      0.0000  0.0000  0.0000  0.0000  0.1673  0.7636  0.0000  0.0000
  35.  O 3 (px)    -0.0258  0.0000  0.0000  0.0000  0.0000  0.0000  0.5015  0.0000
  36.  O 3 (py)     0.0000 -0.0258  0.0000  0.0000  0.0000  0.0000  0.0000  0.5015
  37.  O 3 (pz)     0.0000  0.0000  0.0000  0.0000  0.0000  0.0000  0.0000  0.0000
  38.  O 3 (d5)     0.0000  0.0000  0.0000  0.0000  0.0000  0.0000  0.0000  0.0000
  39.  O 3 (d2)    -0.0053  0.0000  0.0000  0.0000  0.0000  0.0000  0.0000  0.0000
  40.  O 3 (d3)     0.0000 -0.0053  0.0000  0.0000  0.0000  0.0000  0.0000  0.0000
  41.  O 3 (d4)     0.0000  0.0000  0.0004  0.0000  0.0000  0.0000  0.0000  0.0000
  42.  O 3 (d1)     0.0000  0.0000  0.0000  0.0004  0.0000  0.0000  0.0000  0.0000

           AO         33      34      35      36      37      38      39      40
      ------------ ------- ------- ------- ------- ------- ------- ------- -------
   1.  C 1 (s)      0.0240  0.0717  0.0000  0.0000  0.1567  0.1101  0.0000  0.0000
   2.  C 1 (s)      0.2186  0.3928  0.0000  0.0000  0.5901  0.2850  0.0000  0.0000
   3.  C 1 (px)     0.0000  0.0000  0.2980  0.0000  0.0000  0.0000  0.2754  0.0000
   4.  C 1 (py)     0.0000  0.0000  0.0000  0.2980  0.0000  0.0000  0.0000  0.2754
   5.  C 1 (pz)    -0.2902 -0.3450  0.0000  0.0000 -0.2562 -0.2565  0.0000  0.0000
   6.  C 1 (s)      0.1488  0.5734  0.0000  0.0000  0.5104  0.0920  0.0000  0.0000
   7.  C 1 (px)     0.0000  0.0000  0.5579  0.0000  0.0000  0.0000  0.1742  0.0000
   8.  C 1 (py)     0.0000  0.0000  0.0000  0.5579  0.0000  0.0000  0.0000  0.1742
   9.  C 1 (pz)    -0.0736 -0.6457  0.0000  0.0000 -0.0169  0.0621  0.0000  0.0000
  10.  C 1 (d5)     0.3044  0.1736  0.0000  0.0000  0.0004  0.1318  0.0000  0.0000
  11.  C 1 (d2)     0.0000  0.0000 -0.2598  0.0000  0.0000  0.0000 -0.4081  0.0000
  12.  C 1 (d3)     0.0000  0.0000  0.0000 -0.2598  0.0000  0.0000  0.0000 -0.4081
  13.  C 1 (d4)     0.0000  0.0000  0.0000  0.0000  0.0000  0.0000  0.0000  0.0000
  14.  C 1 (d1)     0.0000  0.0000  0.0000  0.0000  0.0000  0.0000  0.0000  0.0000
  15.  O 2 (s)      0.0000  0.0009  0.0000  0.0000  0.0042  0.0000  0.0000  0.0000
  16.  O 2 (s)      0.0002  0.0117  0.0000  0.0000  0.0423  0.0018  0.0000  0.0000
  17.  O 2 (px)     0.0000  0.0000  0.0068  0.0000  0.0000  0.0000  0.0004  0.0000
  18.  O 2 (py)     0.0000  0.0000  0.0000  0.0068  0.0000  0.0000  0.0000  0.0004
  19.  O 2 (pz)    -0.0004 -0.0157  0.0000  0.0000 -0.0513 -0.0041  0.0000  0.0000
  20.  O 2 (s)      0.0157  0.0686  0.0000  0.0000  0.1589  0.0344  0.0000  0.0000
  21.  O 2 (px)     0.0000  0.0000  0.0686  0.0000  0.0000  0.0000  0.0258  0.0000
  22.  O 2 (py)     0.0000  0.0000  0.0000  0.0686  0.0000  0.0000  0.0000  0.0258
  23.  O 2 (pz)    -0.0513 -0.1589  0.0000  0.0000 -0.2991 -0.0894  0.0000  0.0000
  24.  O 2 (d5)     0.0041  0.0344  0.0000  0.0000  0.0894  0.0228  0.0000  0.0000
  25.  O 2 (d2)     0.0000  0.0000 -0.0258  0.0000  0.0000  0.0000 -0.0053  0.0000
  26.  O 2 (d3)     0.0000  0.0000  0.0000 -0.0258  0.0000  0.0000  0.0000 -0.0053
  27.  O 2 (d4)     0.0000  0.0000  0.0000  0.0000  0.0000  0.0000  0.0000  0.0000
  28.  O 2 (d1)     0.0000  0.0000  0.0000  0.0000  0.0000  0.0000  0.0000  0.0000
  29.  O 3 (s)      0.0000  0.1673  0.0000  0.0000  0.0000  0.0000  0.0000  0.0000
  30.  O 3 (s)      0.0000  0.7636  0.0000  0.0000  0.0000  0.0000  0.0000  0.0000
  31.  O 3 (px)     0.0000  0.0000  0.5015  0.0000  0.0000  0.0000  0.0000  0.0000
  32.  O 3 (py)     0.0000  0.0000  0.0000  0.5015  0.0000  0.0000  0.0000  0.0000
  33.  O 3 (pz)     1.0000  0.0000  0.0000  0.0000  0.5015  0.0000  0.0000  0.0000
  34.  O 3 (s)      0.0000  1.0000  0.0000  0.0000  0.0000  0.0000  0.0000  0.0000
  35.  O 3 (px)     0.0000  0.0000  1.0000  0.0000  0.0000  0.0000  0.0000  0.0000
  36.  O 3 (py)     0.0000  0.0000  0.0000  1.0000  0.0000  0.0000  0.0000  0.0000
  37.  O 3 (pz)     0.5015  0.0000  0.0000  0.0000  1.0000  0.0000  0.0000  0.0000
  38.  O 3 (d5)     0.0000  0.0000  0.0000  0.0000  0.0000  1.0000  0.0000  0.0000
  39.  O 3 (d2)     0.0000  0.0000  0.0000  0.0000  0.0000  0.0000  1.0000  0.0000
  40.  O 3 (d3)     0.0000  0.0000  0.0000  0.0000  0.0000  0.0000  0.0000  1.0000
  41.  O 3 (d4)     0.0000  0.0000  0.0000  0.0000  0.0000  0.0000  0.0000  0.0000
  42.  O 3 (d1)     0.0000  0.0000  0.0000  0.0000  0.0000  0.0000  0.0000  0.0000

           AO         41      42
      ------------ ------- -------
   1.  C 1 (s)      0.0000  0.0000
   2.  C 1 (s)      0.0000  0.0000
   3.  C 1 (px)     0.0000  0.0000
   4.  C 1 (py)     0.0000  0.0000
   5.  C 1 (pz)     0.0000  0.0000
   6.  C 1 (s)      0.0000  0.0000
   7.  C 1 (px)     0.0000  0.0000
   8.  C 1 (py)     0.0000  0.0000
   9.  C 1 (pz)     0.0000  0.0000
  10.  C 1 (d5)     0.0000  0.0000
  11.  C 1 (d2)     0.0000  0.0000
  12.  C 1 (d3)     0.0000  0.0000
  13.  C 1 (d4)     0.1375  0.0000
  14.  C 1 (d1)     0.0000  0.1375
  15.  O 2 (s)      0.0000  0.0000
  16.  O 2 (s)      0.0000  0.0000
  17.  O 2 (px)     0.0000  0.0000
  18.  O 2 (py)     0.0000  0.0000
  19.  O 2 (pz)     0.0000  0.0000
  20.  O 2 (s)      0.0000  0.0000
  21.  O 2 (px)     0.0000  0.0000
  22.  O 2 (py)     0.0000  0.0000
  23.  O 2 (pz)     0.0000  0.0000
  24.  O 2 (d5)     0.0000  0.0000
  25.  O 2 (d2)     0.0000  0.0000
  26.  O 2 (d3)     0.0000  0.0000
  27.  O 2 (d4)     0.0004  0.0000
  28.  O 2 (d1)     0.0000  0.0004
  29.  O 3 (s)      0.0000  0.0000
  30.  O 3 (s)      0.0000  0.0000
  31.  O 3 (px)     0.0000  0.0000
  32.  O 3 (py)     0.0000  0.0000
  33.  O 3 (pz)     0.0000  0.0000
  34.  O 3 (s)      0.0000  0.0000
  35.  O 3 (px)     0.0000  0.0000
  36.  O 3 (py)     0.0000  0.0000
  37.  O 3 (pz)     0.0000  0.0000
  38.  O 3 (d5)     0.0000  0.0000
  39.  O 3 (d2)     0.0000  0.0000
  40.  O 3 (d3)     0.0000  0.0000
  41.  O 3 (d4)     1.0000  0.0000
  42.  O 3 (d1)     0.0000  1.0000


 AO bond-order matrix:

           AO          1       2       3       4       5       6       7       8
      ------------ ------- ------- ------- ------- ------- ------- ------- -------
   1.  C 1 (s)      2.0645 -0.1220  0.0000  0.0000  0.0000 -0.0535  0.0000  0.0000
   2.  C 1 (s)     -0.1220  0.3720  0.0000  0.0000  0.0000  0.1207  0.0000  0.0000
   3.  C 1 (px)     0.0000  0.0000  0.2482  0.0000  0.0000  0.0000  0.0936  0.0000
   4.  C 1 (py)     0.0000  0.0000  0.0000  0.2482  0.0000  0.0000  0.0000  0.0936
   5.  C 1 (pz)     0.0000  0.0000  0.0000  0.0000  0.4753  0.0000  0.0000  0.0000
   6.  C 1 (s)     -0.0535  0.1207  0.0000  0.0000  0.0000  0.0528  0.0000  0.0000
   7.  C 1 (px)     0.0000  0.0000  0.0936  0.0000  0.0000  0.0000  0.0353  0.0000
   8.  C 1 (py)     0.0000  0.0000  0.0000  0.0936  0.0000  0.0000  0.0000  0.0353
   9.  C 1 (pz)     0.0000  0.0000  0.0000  0.0000 -0.0300  0.0000  0.0000  0.0000
  10.  C 1 (d5)    -0.0134  0.0415  0.0000  0.0000  0.0000  0.0093  0.0000  0.0000
  11.  C 1 (d2)     0.0000  0.0000  0.0000  0.0000  0.0000  0.0000  0.0000  0.0000
  12.  C 1 (d3)     0.0000  0.0000  0.0000  0.0000  0.0000  0.0000  0.0000  0.0000
  13.  C 1 (d4)     0.0000  0.0000  0.0000  0.0000  0.0000  0.0000  0.0000  0.0000
  14.  C 1 (d1)     0.0000  0.0000  0.0000  0.0000  0.0000  0.0000  0.0000  0.0000
  15.  O 2 (s)      0.0166 -0.0242  0.0000  0.0000 -0.0463  0.0257  0.0000  0.0000
  16.  O 2 (s)     -0.0308  0.0371  0.0000  0.0000  0.0879 -0.0465  0.0000  0.0000
  17.  O 2 (px)     0.0000  0.0000  0.2564  0.0000  0.0000  0.0000  0.0967  0.0000
  18.  O 2 (py)     0.0000  0.0000  0.0000  0.2564  0.0000  0.0000  0.0000  0.0967
  19.  O 2 (pz)     0.1184 -0.2673  0.0000  0.0000 -0.3512 -0.1109  0.0000  0.0000
  20.  O 2 (s)     -0.0051 -0.0382  0.0000  0.0000  0.0125 -0.0788  0.0000  0.0000
  21.  O 2 (px)     0.0000  0.0000  0.1591  0.0000  0.0000  0.0000  0.0600  0.0000
  22.  O 2 (py)     0.0000  0.0000  0.0000  0.1591  0.0000  0.0000  0.0000  0.0600
  23.  O 2 (pz)     0.0666 -0.1381  0.0000  0.0000 -0.1689 -0.0584  0.0000  0.0000
  24.  O 2 (d5)    -0.0097  0.0174  0.0000  0.0000  0.0234  0.0065  0.0000  0.0000
  25.  O 2 (d2)     0.0000  0.0000 -0.0239  0.0000  0.0000  0.0000 -0.0090  0.0000
  26.  O 2 (d3)     0.0000  0.0000  0.0000 -0.0239  0.0000  0.0000  0.0000 -0.0090
  27.  O 2 (d4)     0.0000  0.0000  0.0000  0.0000  0.0000  0.0000  0.0000  0.0000
  28.  O 2 (d1)     0.0000  0.0000  0.0000  0.0000  0.0000  0.0000  0.0000  0.0000
  29.  O 3 (s)      0.0166 -0.0242  0.0000  0.0000  0.0463  0.0257  0.0000  0.0000
  30.  O 3 (s)     -0.0308  0.0371  0.0000  0.0000 -0.0879 -0.0465  0.0000  0.0000
  31.  O 3 (px)     0.0000  0.0000  0.2564  0.0000  0.0000  0.0000  0.0967  0.0000
  32.  O 3 (py)     0.0000  0.0000  0.0000  0.2564  0.0000  0.0000  0.0000  0.0967
  33.  O 3 (pz)    -0.1184  0.2673  0.0000  0.0000 -0.3512  0.1109  0.0000  0.0000
  34.  O 3 (s)     -0.0051 -0.0382  0.0000  0.0000 -0.0125 -0.0788  0.0000  0.0000
  35.  O 3 (px)     0.0000  0.0000  0.1591  0.0000  0.0000  0.0000  0.0600  0.0000
  36.  O 3 (py)     0.0000  0.0000  0.0000  0.1591  0.0000  0.0000  0.0000  0.0600
  37.  O 3 (pz)    -0.0666  0.1381  0.0000  0.0000 -0.1689  0.0584  0.0000  0.0000
  38.  O 3 (d5)    -0.0097  0.0174  0.0000  0.0000 -0.0234  0.0065  0.0000  0.0000
  39.  O 3 (d2)     0.0000  0.0000  0.0239  0.0000  0.0000  0.0000  0.0090  0.0000
  40.  O 3 (d3)     0.0000  0.0000  0.0000  0.0239  0.0000  0.0000  0.0000  0.0090
  41.  O 3 (d4)     0.0000  0.0000  0.0000  0.0000  0.0000  0.0000  0.0000  0.0000
  42.  O 3 (d1)     0.0000  0.0000  0.0000  0.0000  0.0000  0.0000  0.0000  0.0000

           AO          9      10      11      12      13      14      15      16
      ------------ ------- ------- ------- ------- ------- ------- ------- -------
   1.  C 1 (s)      0.0000 -0.0134  0.0000  0.0000  0.0000  0.0000  0.0166 -0.0308
   2.  C 1 (s)      0.0000  0.0415  0.0000  0.0000  0.0000  0.0000 -0.0242  0.0371
   3.  C 1 (px)     0.0000  0.0000  0.0000  0.0000  0.0000  0.0000  0.0000  0.0000
   4.  C 1 (py)     0.0000  0.0000  0.0000  0.0000  0.0000  0.0000  0.0000  0.0000
   5.  C 1 (pz)    -0.0300  0.0000  0.0000  0.0000  0.0000  0.0000 -0.0463  0.0879
   6.  C 1 (s)      0.0000  0.0093  0.0000  0.0000  0.0000  0.0000  0.0257 -0.0465
   7.  C 1 (px)     0.0000  0.0000  0.0000  0.0000  0.0000  0.0000  0.0000  0.0000
   8.  C 1 (py)     0.0000  0.0000  0.0000  0.0000  0.0000  0.0000  0.0000  0.0000
   9.  C 1 (pz)     0.0030  0.0000  0.0000  0.0000  0.0000  0.0000  0.0250 -0.0199
  10.  C 1 (d5)     0.0000  0.0059  0.0000  0.0000  0.0000  0.0000 -0.0136  0.0223
  11.  C 1 (d2)     0.0000  0.0000  0.0093  0.0000  0.0000  0.0000  0.0000  0.0000
  12.  C 1 (d3)     0.0000  0.0000  0.0000  0.0093  0.0000  0.0000  0.0000  0.0000
  13.  C 1 (d4)     0.0000  0.0000  0.0000  0.0000  0.0000  0.0000  0.0000  0.0000
  14.  C 1 (d1)     0.0000  0.0000  0.0000  0.0000  0.0000  0.0000  0.0000  0.0000
  15.  O 2 (s)      0.0250 -0.0136  0.0000  0.0000  0.0000  0.0000  2.0873 -0.1858
  16.  O 2 (s)     -0.0199  0.0223  0.0000  0.0000  0.0000  0.0000 -0.1858  0.5218
  17.  O 2 (px)     0.0000  0.0000  0.0619  0.0000  0.0000  0.0000  0.0000  0.0000
  18.  O 2 (py)     0.0000  0.0000  0.0000  0.0619  0.0000  0.0000  0.0000  0.0000
  19.  O 2 (pz)     0.0149 -0.0224  0.0000  0.0000  0.0000  0.0000 -0.0529  0.1327
  20.  O 2 (s)     -0.0174  0.0164  0.0000  0.0000  0.0000  0.0000 -0.2740  0.5587
  21.  O 2 (px)     0.0000  0.0000  0.0469  0.0000  0.0000  0.0000  0.0000  0.0000
  22.  O 2 (py)     0.0000  0.0000  0.0000  0.0469  0.0000  0.0000  0.0000  0.0000
  23.  O 2 (pz)     0.0063 -0.0112  0.0000  0.0000  0.0000  0.0000 -0.0254  0.0874
  24.  O 2 (d5)    -0.0012  0.0017  0.0000  0.0000  0.0000  0.0000  0.0007 -0.0019
  25.  O 2 (d2)     0.0000  0.0000 -0.0037  0.0000  0.0000  0.0000  0.0000  0.0000
  26.  O 2 (d3)     0.0000  0.0000  0.0000 -0.0037  0.0000  0.0000  0.0000  0.0000
  27.  O 2 (d4)     0.0000  0.0000  0.0000  0.0000  0.0000  0.0000  0.0000  0.0000
  28.  O 2 (d1)     0.0000  0.0000  0.0000  0.0000  0.0000  0.0000  0.0000  0.0000
  29.  O 3 (s)     -0.0250 -0.0136  0.0000  0.0000  0.0000  0.0000 -0.0003 -0.0009
  30.  O 3 (s)      0.0199  0.0223  0.0000  0.0000  0.0000  0.0000 -0.0009  0.0003
  31.  O 3 (px)     0.0000  0.0000 -0.0619  0.0000  0.0000  0.0000  0.0000  0.0000
  32.  O 3 (py)     0.0000  0.0000  0.0000 -0.0619  0.0000  0.0000  0.0000  0.0000
  33.  O 3 (pz)     0.0149  0.0224  0.0000  0.0000  0.0000  0.0000  0.0115 -0.0225
  34.  O 3 (s)      0.0174  0.0164  0.0000  0.0000  0.0000  0.0000  0.0046  0.0136
  35.  O 3 (px)     0.0000  0.0000 -0.0469  0.0000  0.0000  0.0000  0.0000  0.0000
  36.  O 3 (py)     0.0000  0.0000  0.0000 -0.0469  0.0000  0.0000  0.0000  0.0000
  37.  O 3 (pz)     0.0063  0.0112  0.0000  0.0000  0.0000  0.0000  0.0032 -0.0022
  38.  O 3 (d5)     0.0012  0.0017  0.0000  0.0000  0.0000  0.0000  0.0015 -0.0022
  39.  O 3 (d2)     0.0000  0.0000 -0.0037  0.0000  0.0000  0.0000  0.0000  0.0000
  40.  O 3 (d3)     0.0000  0.0000  0.0000 -0.0037  0.0000  0.0000  0.0000  0.0000
  41.  O 3 (d4)     0.0000  0.0000  0.0000  0.0000  0.0000  0.0000  0.0000  0.0000
  42.  O 3 (d1)     0.0000  0.0000  0.0000  0.0000  0.0000  0.0000  0.0000  0.0000

           AO         17      18      19      20      21      22      23      24
      ------------ ------- ------- ------- ------- ------- ------- ------- -------
   1.  C 1 (s)      0.0000  0.0000  0.1184 -0.0051  0.0000  0.0000  0.0666 -0.0097
   2.  C 1 (s)      0.0000  0.0000 -0.2673 -0.0382  0.0000  0.0000 -0.1381  0.0174
   3.  C 1 (px)     0.2564  0.0000  0.0000  0.0000  0.1591  0.0000  0.0000  0.0000
   4.  C 1 (py)     0.0000  0.2564  0.0000  0.0000  0.0000  0.1591  0.0000  0.0000
   5.  C 1 (pz)     0.0000  0.0000 -0.3512  0.0125  0.0000  0.0000 -0.1689  0.0234
   6.  C 1 (s)      0.0000  0.0000 -0.1109 -0.0788  0.0000  0.0000 -0.0584  0.0065
   7.  C 1 (px)     0.0967  0.0000  0.0000  0.0000  0.0600  0.0000  0.0000  0.0000
   8.  C 1 (py)     0.0000  0.0967  0.0000  0.0000  0.0000  0.0600  0.0000  0.0000
   9.  C 1 (pz)     0.0000  0.0000  0.0149 -0.0174  0.0000  0.0000  0.0063 -0.0012
  10.  C 1 (d5)     0.0000  0.0000 -0.0224  0.0164  0.0000  0.0000 -0.0112  0.0017
  11.  C 1 (d2)     0.0619  0.0000  0.0000  0.0000  0.0469  0.0000  0.0000  0.0000
  12.  C 1 (d3)     0.0000  0.0619  0.0000  0.0000  0.0000  0.0469  0.0000  0.0000
  13.  C 1 (d4)     0.0000  0.0000  0.0000  0.0000  0.0000  0.0000  0.0000  0.0000
  14.  C 1 (d1)     0.0000  0.0000  0.0000  0.0000  0.0000  0.0000  0.0000  0.0000
  15.  O 2 (s)      0.0000  0.0000 -0.0529 -0.2740  0.0000  0.0000 -0.0254  0.0007
  16.  O 2 (s)      0.0000  0.0000  0.1327  0.5587  0.0000  0.0000  0.0874 -0.0019
  17.  O 2 (px)     0.6779  0.0000  0.0000  0.0000  0.4771  0.0000  0.0000  0.0000
  18.  O 2 (py)     0.0000  0.6779  0.0000  0.0000  0.0000  0.4771  0.0000  0.0000
  19.  O 2 (pz)     0.0000  0.0000  0.5538  0.2695  0.0000  0.0000  0.2845 -0.0335
  20.  O 2 (s)      0.0000  0.0000  0.2695  0.6329  0.0000  0.0000  0.1576 -0.0101
  21.  O 2 (px)     0.4771  0.0000  0.0000  0.0000  0.3388  0.0000  0.0000  0.0000
  22.  O 2 (py)     0.0000  0.4771  0.0000  0.0000  0.0000  0.3388  0.0000  0.0000
  23.  O 2 (pz)     0.0000  0.0000  0.2845  0.1576  0.0000  0.0000  0.1472 -0.0169
  24.  O 2 (d5)     0.0000  0.0000 -0.0335 -0.0101  0.0000  0.0000 -0.0169  0.0021
  25.  O 2 (d2)    -0.0491  0.0000  0.0000  0.0000 -0.0338  0.0000  0.0000  0.0000
  26.  O 2 (d3)     0.0000 -0.0491  0.0000  0.0000  0.0000 -0.0338  0.0000  0.0000
  27.  O 2 (d4)     0.0000  0.0000  0.0000  0.0000  0.0000  0.0000  0.0000  0.0000
  28.  O 2 (d1)     0.0000  0.0000  0.0000  0.0000  0.0000  0.0000  0.0000  0.0000
  29.  O 3 (s)      0.0000  0.0000 -0.0115  0.0046  0.0000  0.0000 -0.0032  0.0015
  30.  O 3 (s)      0.0000  0.0000  0.0225  0.0136  0.0000  0.0000  0.0022 -0.0022
  31.  O 3 (px)    -0.1483  0.0000  0.0000  0.0000 -0.1485  0.0000  0.0000  0.0000
  32.  O 3 (py)     0.0000 -0.1483  0.0000  0.0000  0.0000 -0.1485  0.0000  0.0000
  33.  O 3 (pz)     0.0000  0.0000  0.0836 -0.0212  0.0000  0.0000  0.0376 -0.0053
  34.  O 3 (s)      0.0000  0.0000  0.0212  0.0307  0.0000  0.0000  0.0030 -0.0020
  35.  O 3 (px)    -0.1485  0.0000  0.0000  0.0000 -0.1350  0.0000  0.0000  0.0000
  36.  O 3 (py)     0.0000 -0.1485  0.0000  0.0000  0.0000 -0.1350  0.0000  0.0000
  37.  O 3 (pz)     0.0000  0.0000  0.0376 -0.0030  0.0000  0.0000  0.0174 -0.0022
  38.  O 3 (d5)     0.0000  0.0000  0.0053 -0.0020  0.0000  0.0000  0.0022 -0.0003
  39.  O 3 (d2)     0.0002  0.0000  0.0000  0.0000 -0.0032  0.0000  0.0000  0.0000
  40.  O 3 (d3)     0.0000  0.0002  0.0000  0.0000  0.0000 -0.0032  0.0000  0.0000
  41.  O 3 (d4)     0.0000  0.0000  0.0000  0.0000  0.0000  0.0000  0.0000  0.0000
  42.  O 3 (d1)     0.0000  0.0000  0.0000  0.0000  0.0000  0.0000  0.0000  0.0000

           AO         25      26      27      28      29      30      31      32
      ------------ ------- ------- ------- ------- ------- ------- ------- -------
   1.  C 1 (s)      0.0000  0.0000  0.0000  0.0000  0.0166 -0.0308  0.0000  0.0000
   2.  C 1 (s)      0.0000  0.0000  0.0000  0.0000 -0.0242  0.0371  0.0000  0.0000
   3.  C 1 (px)    -0.0239  0.0000  0.0000  0.0000  0.0000  0.0000  0.2564  0.0000
   4.  C 1 (py)     0.0000 -0.0239  0.0000  0.0000  0.0000  0.0000  0.0000  0.2564
   5.  C 1 (pz)     0.0000  0.0000  0.0000  0.0000  0.0463 -0.0879  0.0000  0.0000
   6.  C 1 (s)      0.0000  0.0000  0.0000  0.0000  0.0257 -0.0465  0.0000  0.0000
   7.  C 1 (px)    -0.0090  0.0000  0.0000  0.0000  0.0000  0.0000  0.0967  0.0000
   8.  C 1 (py)     0.0000 -0.0090  0.0000  0.0000  0.0000  0.0000  0.0000  0.0967
   9.  C 1 (pz)     0.0000  0.0000  0.0000  0.0000 -0.0250  0.0199  0.0000  0.0000
  10.  C 1 (d5)     0.0000  0.0000  0.0000  0.0000 -0.0136  0.0223  0.0000  0.0000
  11.  C 1 (d2)    -0.0037  0.0000  0.0000  0.0000  0.0000  0.0000 -0.0619  0.0000
  12.  C 1 (d3)     0.0000 -0.0037  0.0000  0.0000  0.0000  0.0000  0.0000 -0.0619
  13.  C 1 (d4)     0.0000  0.0000  0.0000  0.0000  0.0000  0.0000  0.0000  0.0000
  14.  C 1 (d1)     0.0000  0.0000  0.0000  0.0000  0.0000  0.0000  0.0000  0.0000
  15.  O 2 (s)      0.0000  0.0000  0.0000  0.0000 -0.0003 -0.0009  0.0000  0.0000
  16.  O 2 (s)      0.0000  0.0000  0.0000  0.0000 -0.0009  0.0003  0.0000  0.0000
  17.  O 2 (px)    -0.0491  0.0000  0.0000  0.0000  0.0000  0.0000 -0.1483  0.0000
  18.  O 2 (py)     0.0000 -0.0491  0.0000  0.0000  0.0000  0.0000  0.0000 -0.1483
  19.  O 2 (pz)     0.0000  0.0000  0.0000  0.0000 -0.0115  0.0225  0.0000  0.0000
  20.  O 2 (s)      0.0000  0.0000  0.0000  0.0000  0.0046  0.0136  0.0000  0.0000
  21.  O 2 (px)    -0.0338  0.0000  0.0000  0.0000  0.0000  0.0000 -0.1485  0.0000
  22.  O 2 (py)     0.0000 -0.0338  0.0000  0.0000  0.0000  0.0000  0.0000 -0.1485
  23.  O 2 (pz)     0.0000  0.0000  0.0000  0.0000 -0.0032  0.0022  0.0000  0.0000
  24.  O 2 (d5)     0.0000  0.0000  0.0000  0.0000  0.0015 -0.0022  0.0000  0.0000
  25.  O 2 (d2)     0.0037  0.0000  0.0000  0.0000  0.0000  0.0000 -0.0002  0.0000
  26.  O 2 (d3)     0.0000  0.0037  0.0000  0.0000  0.0000  0.0000  0.0000 -0.0002
  27.  O 2 (d4)     0.0000  0.0000  0.0000  0.0000  0.0000  0.0000  0.0000  0.0000
  28.  O 2 (d1)     0.0000  0.0000  0.0000  0.0000  0.0000  0.0000  0.0000  0.0000
  29.  O 3 (s)      0.0000  0.0000  0.0000  0.0000  2.0873 -0.1858  0.0000  0.0000
  30.  O 3 (s)      0.0000  0.0000  0.0000  0.0000 -0.1858  0.5218  0.0000  0.0000
  31.  O 3 (px)    -0.0002  0.0000  0.0000  0.0000  0.0000  0.0000  0.6779  0.0000
  32.  O 3 (py)     0.0000 -0.0002  0.0000  0.0000  0.0000  0.0000  0.0000  0.6779
  33.  O 3 (pz)     0.0000  0.0000  0.0000  0.0000  0.0529 -0.1327  0.0000  0.0000
  34.  O 3 (s)      0.0000  0.0000  0.0000  0.0000 -0.2740  0.5587  0.0000  0.0000
  35.  O 3 (px)     0.0032  0.0000  0.0000  0.0000  0.0000  0.0000  0.4771  0.0000
  36.  O 3 (py)     0.0000  0.0032  0.0000  0.0000  0.0000  0.0000  0.0000  0.4771
  37.  O 3 (pz)     0.0000  0.0000  0.0000  0.0000  0.0254 -0.0874  0.0000  0.0000
  38.  O 3 (d5)     0.0000  0.0000  0.0000  0.0000  0.0007 -0.0019  0.0000  0.0000
  39.  O 3 (d2)    -0.0009  0.0000  0.0000  0.0000  0.0000  0.0000  0.0491  0.0000
  40.  O 3 (d3)     0.0000 -0.0009  0.0000  0.0000  0.0000  0.0000  0.0000  0.0491
  41.  O 3 (d4)     0.0000  0.0000  0.0000  0.0000  0.0000  0.0000  0.0000  0.0000
  42.  O 3 (d1)     0.0000  0.0000  0.0000  0.0000  0.0000  0.0000  0.0000  0.0000

           AO         33      34      35      36      37      38      39      40
      ------------ ------- ------- ------- ------- ------- ------- ------- -------
   1.  C 1 (s)     -0.1184 -0.0051  0.0000  0.0000 -0.0666 -0.0097  0.0000  0.0000
   2.  C 1 (s)      0.2673 -0.0382  0.0000  0.0000  0.1381  0.0174  0.0000  0.0000
   3.  C 1 (px)     0.0000  0.0000  0.1591  0.0000  0.0000  0.0000  0.0239  0.0000
   4.  C 1 (py)     0.0000  0.0000  0.0000  0.1591  0.0000  0.0000  0.0000  0.0239
   5.  C 1 (pz)    -0.3512 -0.0125  0.0000  0.0000 -0.1689 -0.0234  0.0000  0.0000
   6.  C 1 (s)      0.1109 -0.0788  0.0000  0.0000  0.0584  0.0065  0.0000  0.0000
   7.  C 1 (px)     0.0000  0.0000  0.0600  0.0000  0.0000  0.0000  0.0090  0.0000
   8.  C 1 (py)     0.0000  0.0000  0.0000  0.0600  0.0000  0.0000  0.0000  0.0090
   9.  C 1 (pz)     0.0149  0.0174  0.0000  0.0000  0.0063  0.0012  0.0000  0.0000
  10.  C 1 (d5)     0.0224  0.0164  0.0000  0.0000  0.0112  0.0017  0.0000  0.0000
  11.  C 1 (d2)     0.0000  0.0000 -0.0469  0.0000  0.0000  0.0000 -0.0037  0.0000
  12.  C 1 (d3)     0.0000  0.0000  0.0000 -0.0469  0.0000  0.0000  0.0000 -0.0037
  13.  C 1 (d4)     0.0000  0.0000  0.0000  0.0000  0.0000  0.0000  0.0000  0.0000
  14.  C 1 (d1)     0.0000  0.0000  0.0000  0.0000  0.0000  0.0000  0.0000  0.0000
  15.  O 2 (s)      0.0115  0.0046  0.0000  0.0000  0.0032  0.0015  0.0000  0.0000
  16.  O 2 (s)     -0.0225  0.0136  0.0000  0.0000 -0.0022 -0.0022  0.0000  0.0000
  17.  O 2 (px)     0.0000  0.0000 -0.1485  0.0000  0.0000  0.0000  0.0002  0.0000
  18.  O 2 (py)     0.0000  0.0000  0.0000 -0.1485  0.0000  0.0000  0.0000  0.0002
  19.  O 2 (pz)     0.0836  0.0212  0.0000  0.0000  0.0376  0.0053  0.0000  0.0000
  20.  O 2 (s)     -0.0212  0.0307  0.0000  0.0000 -0.0030 -0.0020  0.0000  0.0000
  21.  O 2 (px)     0.0000  0.0000 -0.1350  0.0000  0.0000  0.0000 -0.0032  0.0000
  22.  O 2 (py)     0.0000  0.0000  0.0000 -0.1350  0.0000  0.0000  0.0000 -0.0032
  23.  O 2 (pz)     0.0376  0.0030  0.0000  0.0000  0.0174  0.0022  0.0000  0.0000
  24.  O 2 (d5)    -0.0053 -0.0020  0.0000  0.0000 -0.0022 -0.0003  0.0000  0.0000
  25.  O 2 (d2)     0.0000  0.0000  0.0032  0.0000  0.0000  0.0000 -0.0009  0.0000
  26.  O 2 (d3)     0.0000  0.0000  0.0000  0.0032  0.0000  0.0000  0.0000 -0.0009
  27.  O 2 (d4)     0.0000  0.0000  0.0000  0.0000  0.0000  0.0000  0.0000  0.0000
  28.  O 2 (d1)     0.0000  0.0000  0.0000  0.0000  0.0000  0.0000  0.0000  0.0000
  29.  O 3 (s)      0.0529 -0.2740  0.0000  0.0000  0.0254  0.0007  0.0000  0.0000
  30.  O 3 (s)     -0.1327  0.5587  0.0000  0.0000 -0.0874 -0.0019  0.0000  0.0000
  31.  O 3 (px)     0.0000  0.0000  0.4771  0.0000  0.0000  0.0000  0.0491  0.0000
  32.  O 3 (py)     0.0000  0.0000  0.0000  0.4771  0.0000  0.0000  0.0000  0.0491
  33.  O 3 (pz)     0.5538 -0.2695  0.0000  0.0000  0.2845  0.0335  0.0000  0.0000
  34.  O 3 (s)     -0.2695  0.6329  0.0000  0.0000 -0.1576 -0.0101  0.0000  0.0000
  35.  O 3 (px)     0.0000  0.0000  0.3388  0.0000  0.0000  0.0000  0.0338  0.0000
  36.  O 3 (py)     0.0000  0.0000  0.0000  0.3388  0.0000  0.0000  0.0000  0.0338
  37.  O 3 (pz)     0.2845 -0.1576  0.0000  0.0000  0.1472  0.0169  0.0000  0.0000
  38.  O 3 (d5)     0.0335 -0.0101  0.0000  0.0000  0.0169  0.0021  0.0000  0.0000
  39.  O 3 (d2)     0.0000  0.0000  0.0338  0.0000  0.0000  0.0000  0.0037  0.0000
  40.  O 3 (d3)     0.0000  0.0000  0.0000  0.0338  0.0000  0.0000  0.0000  0.0037
  41.  O 3 (d4)     0.0000  0.0000  0.0000  0.0000  0.0000  0.0000  0.0000  0.0000
  42.  O 3 (d1)     0.0000  0.0000  0.0000  0.0000  0.0000  0.0000  0.0000  0.0000

           AO         41      42
      ------------ ------- -------
   1.  C 1 (s)      0.0000  0.0000
   2.  C 1 (s)      0.0000  0.0000
   3.  C 1 (px)     0.0000  0.0000
   4.  C 1 (py)     0.0000  0.0000
   5.  C 1 (pz)     0.0000  0.0000
   6.  C 1 (s)      0.0000  0.0000
   7.  C 1 (px)     0.0000  0.0000
   8.  C 1 (py)     0.0000  0.0000
   9.  C 1 (pz)     0.0000  0.0000
  10.  C 1 (d5)     0.0000  0.0000
  11.  C 1 (d2)     0.0000  0.0000
  12.  C 1 (d3)     0.0000  0.0000
  13.  C 1 (d4)     0.0000  0.0000
  14.  C 1 (d1)     0.0000  0.0000
  15.  O 2 (s)      0.0000  0.0000
  16.  O 2 (s)      0.0000  0.0000
  17.  O 2 (px)     0.0000  0.0000
  18.  O 2 (py)     0.0000  0.0000
  19.  O 2 (pz)     0.0000  0.0000
  20.  O 2 (s)      0.0000  0.0000
  21.  O 2 (px)     0.0000  0.0000
  22.  O 2 (py)     0.0000  0.0000
  23.  O 2 (pz)     0.0000  0.0000
  24.  O 2 (d5)     0.0000  0.0000
  25.  O 2 (d2)     0.0000  0.0000
  26.  O 2 (d3)     0.0000  0.0000
  27.  O 2 (d4)     0.0000  0.0000
  28.  O 2 (d1)     0.0000  0.0000
  29.  O 3 (s)      0.0000  0.0000
  30.  O 3 (s)      0.0000  0.0000
  31.  O 3 (px)     0.0000  0.0000
  32.  O 3 (py)     0.0000  0.0000
  33.  O 3 (pz)     0.0000  0.0000
  34.  O 3 (s)      0.0000  0.0000
  35.  O 3 (px)     0.0000  0.0000
  36.  O 3 (py)     0.0000  0.0000
  37.  O 3 (pz)     0.0000  0.0000
  38.  O 3 (d5)     0.0000  0.0000
  39.  O 3 (d2)     0.0000  0.0000
  40.  O 3 (d3)     0.0000  0.0000
  41.  O 3 (d4)     0.0000  0.0000
  42.  O 3 (d1)     0.0000  0.0000


 AO density matrix:

           AO          1       2       3       4       5       6       7       8
      ------------ ------- ------- ------- ------- ------- ------- ------- -------
   1.  C 1 (s)      1.9998  0.4465  0.0000  0.0000  0.0000  0.3694  0.0000  0.0000
   2.  C 1 (s)      0.4465  1.5421  0.0000  0.0000  0.0000  1.4110  0.0000  0.0000
   3.  C 1 (px)     0.0000  0.0000  0.8564  0.0000  0.0000  0.0000  0.9365  0.0000
   4.  C 1 (py)     0.0000  0.0000  0.0000  0.8564  0.0000  0.0000  0.0000  0.9365
   5.  C 1 (pz)     0.0000  0.0000  0.0000  0.0000  1.5823  0.0000  0.0000  0.0000
   6.  C 1 (s)      0.3694  1.4110  0.0000  0.0000  0.0000  1.4344  0.0000  0.0000
   7.  C 1 (px)     0.0000  0.0000  0.9365  0.0000  0.0000  0.0000  1.0242  0.0000
   8.  C 1 (py)     0.0000  0.0000  0.0000  0.9365  0.0000  0.0000  0.0000  1.0242
   9.  C 1 (pz)     0.0000  0.0000  0.0000  0.0000  1.1164  0.0000  0.0000  0.0000
  10.  C 1 (d5)    -0.0054  0.5387  0.0000  0.0000  0.0000  0.6152  0.0000  0.0000
  11.  C 1 (d2)     0.0000  0.0000  0.0000  0.0000  0.0000  0.0000  0.0000  0.0000
  12.  C 1 (d3)     0.0000  0.0000  0.0000  0.0000  0.0000  0.0000  0.0000  0.0000
  13.  C 1 (d4)     0.0000  0.0000  0.0000  0.0000  0.0000  0.0000  0.0000  0.0000
  14.  C 1 (d1)     0.0000  0.0000  0.0000  0.0000  0.0000  0.0000  0.0000  0.0000
  15.  O 2 (s)      0.0001  0.0454  0.0000  0.0000  0.0955  0.1011  0.0000  0.0000
  16.  O 2 (s)      0.0185  0.5201  0.0000  0.0000  0.7275  0.7873  0.0000  0.0000
  17.  O 2 (px)     0.0000  0.0000  0.7010  0.0000  0.0000  0.0000  0.7667  0.0000
  18.  O 2 (py)     0.0000  0.0000  0.0000  0.7010  0.0000  0.0000  0.0000  0.7667
  19.  O 2 (pz)    -0.0425 -0.7893  0.0000  0.0000 -0.8350 -0.5587  0.0000  0.0000
  20.  O 2 (s)      0.1435  0.7304  0.0000  0.0000  0.6807  0.9637  0.0000  0.0000
  21.  O 2 (px)     0.0000  0.0000  0.7934  0.0000  0.0000  0.0000  0.8676  0.0000
  22.  O 2 (py)     0.0000  0.0000  0.0000  0.7934  0.0000  0.0000  0.0000  0.8676
  23.  O 2 (pz)    -0.3129 -1.1113  0.0000  0.0000 -0.5384 -0.8481  0.0000  0.0000
  24.  O 2 (d5)     0.2271  0.3059  0.0000  0.0000  0.2177  0.2533  0.0000  0.0000
  25.  O 2 (d2)     0.0000  0.0000 -0.2096  0.0000  0.0000  0.0000 -0.2293  0.0000
  26.  O 2 (d3)     0.0000  0.0000  0.0000 -0.2096  0.0000  0.0000  0.0000 -0.2293
[...]
                                         0.0000  0.7948 -0.0139  0.0000  0.0000
                                         0.0000  0.0000 -0.6062  0.0081  0.0000
                                         0.0000  0.0000  0.0000 -0.0248
   7. (1.67237) LP ( 2) O  3            s(  0.00%)p 1.00( 99.58%)d 0.00(  0.42%)
                                         0.0000  0.0000  0.0000  0.5149  0.0047
                                         0.8548  0.0078  0.0000  0.0000  0.0000
                                         0.0333  0.0553  0.0000  0.0000
   8. (1.99926) BD ( 1) C  1- O  2
               ( 34.41%)   0.5866* C  1 s( 49.71%)p 1.01( 50.00%)d 0.01(  0.29%)
                                         0.0000  0.7050 -0.0006  0.0000  0.0000
                                         0.0000  0.0000  0.7049  0.0553  0.0000
                                         0.0000  0.0000  0.0000  0.0539
               ( 65.59%)   0.8099* O  2 s( 36.85%)p 1.70( 62.69%)d 0.01(  0.46%)
                                         0.0000  0.6065  0.0273  0.0000  0.0000
                                         0.0000  0.0000 -0.7915  0.0199  0.0000
                                         0.0000  0.0000  0.0000  0.0675
   9. (1.97672) BD ( 2) C  1- O  2
               ( 18.50%)   0.4301* C  1 s(  0.00%)p 1.00( 98.44%)d 0.02(  1.56%)
                                         0.0000  0.0000  0.0000  0.7431 -0.0252
                                         0.6566 -0.0223  0.0000  0.0000  0.0000
                                         0.1218  0.0275  0.0000  0.0000
               ( 81.50%)   0.9028* O  2 s(  0.00%)p 1.00( 99.59%)d 0.00(  0.41%)
                                         0.0000  0.0000  0.0000  0.9061  0.0040
                                         0.4180  0.0018  0.0000  0.0000  0.0000
                                        -0.0585 -0.0270  0.0000  0.0000
  10. (1.99926) BD ( 1) C  1- O  3
               ( 34.41%)   0.5866* C  1 s( 49.71%)p 1.01( 50.00%)d 0.01(  0.29%)
                                         0.0000  0.7050 -0.0006  0.0000  0.0000
                                         0.0000  0.0000 -0.7049 -0.0553  0.0000
                                         0.0000  0.0000  0.0000  0.0539
               ( 65.59%)   0.8099* O  3 s( 36.85%)p 1.70( 62.69%)d 0.01(  0.46%)
                                         0.0000  0.6065  0.0273  0.0000  0.0000
                                         0.0000  0.0000  0.7915 -0.0199  0.0000
                                         0.0000  0.0000  0.0000  0.0675
  11. (1.97672) BD ( 2) C  1- O  3
               ( 18.50%)   0.4301* C  1 s(  0.00%)p 1.00( 98.44%)d 0.02(  1.56%)
                                         0.0000  0.0000  0.0000  0.6665 -0.0226
                                        -0.7342  0.0249  0.0000  0.0000  0.0000
                                        -0.1181  0.0407  0.0000  0.0000
               ( 81.50%)   0.9028* O  3 s(  0.00%)p 1.00( 99.59%)d 0.00(  0.41%)
                                         0.0000  0.0000  0.0000  0.8548  0.0038
                                        -0.5149 -0.0023  0.0000  0.0000  0.0000
                                         0.0551 -0.0332  0.0000  0.0000
 ---------------- non-Lewis ----------------------------------------------------
  12. (0.01160) BD*( 1) C  1- O  2
               ( 65.59%)   0.8099* C  1 s( 49.71%)p 1.01( 50.00%)d 0.01(  0.29%)
                                         0.0000  0.7050 -0.0006  0.0000  0.0000
                                         0.0000  0.0000  0.7049  0.0553  0.0000
                                         0.0000  0.0000  0.0000  0.0539
               ( 34.41%)  -0.5866* O  2 s( 36.85%)p 1.70( 62.69%)d 0.01(  0.46%)
                                         0.0000  0.6065  0.0273  0.0000  0.0000
                                         0.0000  0.0000 -0.7915  0.0199  0.0000
                                         0.0000  0.0000  0.0000  0.0675
  13. (0.33104) BD*( 2) C  1- O  2
               ( 81.50%)   0.9028* C  1 s(  0.00%)p 1.00( 98.44%)d 0.02(  1.56%)
                                         0.0000  0.0000  0.0000  0.7431 -0.0252
                                         0.6566 -0.0223  0.0000  0.0000  0.0000
                                         0.1218  0.0275  0.0000  0.0000
               ( 18.50%)  -0.4301* O  2 s(  0.00%)p 1.00( 99.59%)d 0.00(  0.41%)
                                         0.0000  0.0000  0.0000  0.9061  0.0040
                                         0.4180  0.0018  0.0000  0.0000  0.0000
                                        -0.0585 -0.0270  0.0000  0.0000
  14. (0.01160) BD*( 1) C  1- O  3
               ( 65.59%)   0.8099* C  1 s( 49.71%)p 1.01( 50.00%)d 0.01(  0.29%)
                                         0.0000  0.7050 -0.0006  0.0000  0.0000
                                         0.0000  0.0000 -0.7049 -0.0553  0.0000
                                         0.0000  0.0000  0.0000  0.0539
               ( 34.41%)  -0.5866* O  3 s( 36.85%)p 1.70( 62.69%)d 0.01(  0.46%)
                                         0.0000  0.6065  0.0273  0.0000  0.0000
                                         0.0000  0.0000  0.7915 -0.0199  0.0000
                                         0.0000  0.0000  0.0000  0.0675
  15. (0.33104) BD*( 2) C  1- O  3
               ( 81.50%)   0.9028* C  1 s(  0.00%)p 1.00( 98.44%)d 0.02(  1.56%)
                                         0.0000  0.0000  0.0000  0.6665 -0.0226
                                        -0.7342  0.0249  0.0000  0.0000  0.0000
                                        -0.1181  0.0407  0.0000  0.0000
               ( 18.50%)  -0.4301* O  3 s(  0.00%)p 1.00( 99.59%)d 0.00(  0.41%)
                                         0.0000  0.0000  0.0000  0.8548  0.0038
                                        -0.5149 -0.0023  0.0000  0.0000  0.0000
                                         0.0551 -0.0332  0.0000  0.0000
  16. (0.02632) RY ( 1) C  1            s(  0.00%)p 1.00(  2.89%)d33.64( 97.11%)
                                         0.0000  0.0000  0.0000 -0.0093  0.0003
                                        -0.1695  0.0058  0.0000  0.0000  0.0000
                                         0.9840 -0.0541  0.0000  0.0000
  17. (0.02026) RY ( 2) C  1            s(  0.00%)p 1.00(100.00%)
                                         0.0000  0.0000  0.0000  0.0000  0.0000
                                         0.0000  0.0000 -0.0782  0.9969  0.0000
                                         0.0000  0.0000  0.0000  0.0000
  18. (0.00941) RY ( 3) C  1            s(  0.00%)p 1.00(  0.23%)d99.99( 99.77%)
                                         0.0000  0.0000  0.0000 -0.0482  0.0016
                                         0.0027 -0.0001  0.0000  0.0000  0.0000
                                         0.0549  0.9973  0.0000  0.0000
  19. (0.00009) RY ( 4) C  1            s( 35.16%)p 0.00(  0.00%)d 1.84( 64.84%)
  20. (0.00000) RY ( 5) C  1            s( 65.42%)p 0.00(  0.00%)d 0.53( 34.58%)
  21. (0.00000) RY ( 6) C  1            s(  0.00%)p 1.00(100.00%)d 0.00(  0.00%)
  22. (0.00000) RY ( 7) C  1            s(  0.00%)p 0.00(  0.00%)d 1.00(100.00%)
  23. (0.00000) RY ( 8) C  1            s(  0.00%)p 0.00(  0.00%)d 1.00(100.00%)
  24. (0.00000) RY ( 9) C  1            s(  0.00%)p 1.00(100.00%)d 0.00(  0.00%)
  25. (0.00102) RY ( 1) O  2            s(  0.00%)p 1.00( 99.75%)d 0.00(  0.25%)
                                         0.0000  0.0000  0.0000 -0.0069  0.9069
                                        -0.0032  0.4184  0.0000  0.0000  0.0000
                                        -0.0454 -0.0209  0.0000  0.0000
  26. (0.00099) RY ( 2) O  2            s(  0.00%)p 1.00( 99.75%)d 0.00(  0.25%)
                                         0.0000  0.0000  0.0000  0.0052 -0.4184
                                        -0.0112  0.9068  0.0000  0.0000  0.0000
                                         0.0208 -0.0451  0.0000  0.0000
  27. (0.00013) RY ( 3) O  2            s( 42.43%)p 1.33( 56.43%)d 0.03(  1.14%)
                                         0.0000 -0.0102  0.6513  0.0000  0.0000
                                         0.0000  0.0000  0.0426  0.7500  0.0000
                                         0.0000  0.0000  0.0000  0.1069
  28. (0.00001) RY ( 4) O  2            s(  0.67%)p 7.34(  4.88%)d99.99( 94.45%)
  29. (0.00000) RY ( 5) O  2            s( 56.86%)p 0.69( 39.25%)d 0.07(  3.89%)
  30. (0.00000) RY ( 6) O  2            s(  0.00%)p 1.00(  0.65%)d99.99( 99.35%)
  31. (0.00000) RY ( 7) O  2            s(  0.00%)p 1.00(  0.44%)d99.99( 99.56%)
  32. (0.00000) RY ( 8) O  2            s(  0.00%)p 1.00(  0.24%)d99.99( 99.76%)
  33. (0.00000) RY ( 9) O  2            s(  0.00%)p 0.00(  0.00%)d 1.00(100.00%)
  34. (0.00102) RY ( 1) O  3            s(  0.00%)p 1.00( 99.75%)d 0.00(  0.25%)
                                         0.0000  0.0000  0.0000 -0.0065  0.8555
                                         0.0039 -0.5153  0.0000  0.0000  0.0000
                                         0.0428 -0.0258  0.0000  0.0000
  35. (0.00099) RY ( 2) O  3            s(  0.00%)p 1.00( 99.75%)d 0.00(  0.25%)
                                         0.0000  0.0000  0.0000 -0.0064  0.5153
                                        -0.0106  0.8555  0.0000  0.0000  0.0000
                                         0.0256  0.0425  0.0000  0.0000
  36. (0.00013) RY ( 3) O  3            s( 42.43%)p 1.33( 56.43%)d 0.03(  1.14%)
                                         0.0000 -0.0102  0.6513  0.0000  0.0000
                                         0.0000  0.0000 -0.0426 -0.7500  0.0000
                                         0.0000  0.0000  0.0000  0.1069
  37. (0.00001) RY ( 4) O  3            s(  0.67%)p 7.34(  4.88%)d99.99( 94.45%)
  38. (0.00000) RY ( 5) O  3            s( 56.86%)p 0.69( 39.25%)d 0.07(  3.89%)
  39. (0.00000) RY ( 6) O  3            s(  0.00%)p 1.00(  0.66%)d99.99( 99.34%)
  40. (0.00000) RY ( 7) O  3            s(  0.00%)p 0.00(  0.01%)d 1.00( 99.99%)
  41. (0.00000) RY ( 8) O  3            s(  0.00%)p 0.00(  0.00%)d 1.00(100.00%)
  42. (0.00000) RY ( 9) O  3            s(  0.00%)p 1.00(  0.66%)d99.99( 99.34%)


 NHO DIRECTIONALITY AND BOND BENDING (deviation from line of nuclear centers at
                                      the position of maximum hybrid amplitude)

         [Thresholds for printing:  angular deviation  >  1.0 degree]
                                    p- or d-character  > 25.0%
                                    orbital occupancy  >  0.10e

                        Line of Centers        Hybrid 1             Hybrid 2
                        ---------------  -------------------  ------------------
           NBO            Theta   Phi    Theta   Phi    Dev   Theta   Phi    Dev
 ===============================================================================
   4. LP ( 1) O  2          --     --      0.0    0.0   --      --     --    --
   5. LP ( 2) O  2          --     --     90.8  294.8   --      --     --    --
   6. LP ( 1) O  3          --     --    180.0    0.0   --      --     --    --
   7. LP ( 2) O  3          --     --     89.2  238.9   --      --     --    --
   9. BD ( 2) C  1- O  2    0.0    0.0    85.4   41.3  85.4    90.8   24.8  89.2
  11. BD ( 2) C  1- O  3  180.0    0.0    94.6  312.4  85.4    89.2  328.9  89.2


 3-Center, 4-Electron A:-B-:C Hyperbonds (A-B :C <=> A: B-C)
              [threshold for detection: 33.3%]

                                                  NBOs       3-center hybrids
                                              -------------  ----------------
       Hyperbond A:-B-:C   %A-B/%B-C   occ    BD(A-B) LP(C)  h(A)  h(B)  h(C)
      -------------------  ---------  ------  ------- -----  ----  ----  ----
   1.  O  2:- C  1-: O  3  51.2/48.8  3.9801       9      7    10    11     7
   2.  O  3:- C  1-: O  2  51.2/48.8  3.9801      11      5    14    15     5


 SECOND ORDER PERTURBATION THEORY ANALYSIS OF FOCK MATRIX IN NBO BASIS

     Threshold for printing:   0.50 kcal/mol
                                                          E(2) E(NL)-E(L) F(L,NL)
      Donor (L) NBO              Acceptor (NL) NBO      kcal/mol   a.u.    a.u.
 ===============================================================================

 within unit  1
    4. LP ( 1) O  2            14. BD*( 1) C  1- O  3     13.19    1.89   0.141
    4. LP ( 1) O  2            17. RY ( 2) C  1            9.23    1.57   0.107
    4. LP ( 1) O  2            36. RY ( 3) O  3            0.65    2.65   0.037
    5. LP ( 2) O  2            13. BD*( 2) C  1- O  2     12.41    0.62   0.078
    5. LP ( 2) O  2            15. BD*( 2) C  1- O  3    161.89    0.62   0.282
    5. LP ( 2) O  2            16. RY ( 1) C  1            5.34    3.07   0.114
    5. LP ( 2) O  2            18. RY ( 3) C  1            7.27    3.14   0.135
    5. LP ( 2) O  2            21. RY ( 6) C  1            2.28    1.12   0.045
    5. LP ( 2) O  2            26. RY ( 2) O  2            0.75    1.72   0.032
    5. LP ( 2) O  2            30. RY ( 6) O  2            1.45    2.74   0.056
    5. LP ( 2) O  2            31. RY ( 7) O  2            0.67    2.66   0.038
    6. LP ( 1) O  3            12. BD*( 1) C  1- O  2     13.19    1.89   0.141
    6. LP ( 1) O  3            17. RY ( 2) C  1            9.23    1.57   0.107
    6. LP ( 1) O  3            27. RY ( 3) O  2            0.65    2.65   0.037
    7. LP ( 2) O  3            13. BD*( 2) C  1- O  2    161.89    0.62   0.282
    7. LP ( 2) O  3            15. BD*( 2) C  1- O  3     12.41    0.62   0.078
    7. LP ( 2) O  3            16. RY ( 1) C  1            5.34    3.07   0.114
    7. LP ( 2) O  3            18. RY ( 3) C  1            7.27    3.14   0.135
    7. LP ( 2) O  3            21. RY ( 6) C  1            2.02    1.12   0.042
    7. LP ( 2) O  3            24. RY ( 9) C  1            0.74    1.12   0.026
    7. LP ( 2) O  3            35. RY ( 2) O  3            0.75    1.72   0.032
    7. LP ( 2) O  3            39. RY ( 6) O  3            2.08    2.75   0.067
    8. BD ( 1) C  1- O  2      14. BD*( 1) C  1- O  3      2.09    2.30   0.062
    9. BD ( 2) C  1- O  2      13. BD*( 2) C  1- O  2      1.04    0.78   0.025
    9. BD ( 2) C  1- O  2      15. BD*( 2) C  1- O  3     10.13    0.78   0.079
    9. BD ( 2) C  1- O  2      16. RY ( 1) C  1            0.90    3.23   0.048
    9. BD ( 2) C  1- O  2      35. RY ( 2) O  3            1.00    1.89   0.039
   10. BD ( 1) C  1- O  3      12. BD*( 1) C  1- O  2      2.09    2.30   0.062
   11. BD ( 2) C  1- O  3      13. BD*( 2) C  1- O  2     10.13    0.78   0.079
   11. BD ( 2) C  1- O  3      15. BD*( 2) C  1- O  3      1.04    0.78   0.025
   11. BD ( 2) C  1- O  3      16. RY ( 1) C  1            0.90    3.23   0.048
   11. BD ( 2) C  1- O  3      26. RY ( 2) O  2            1.00    1.89   0.039


 NATURAL BOND ORBITALS (Summary):

                                                     Principal Delocalizations
           NBO                 Occupancy    Energy   (geminal,vicinal,remote)
 ===============================================================================
 Molecular unit  1  (CO2)
 ------ Lewis --------------------------------------
    1. CR ( 1) C  1             1.99999   -11.48053
    2. CR ( 1) O  2             1.99999   -20.66164
    3. CR ( 1) O  3             1.99999   -20.66164
    4. LP ( 1) O  2             1.97884    -0.91642  14(v),17(v),36(r)
    5. LP ( 2) O  2             1.67237    -0.45973  15(v),13(g),18(v),16(v)
                                                     21(v),30(g),26(g),31(g)
    6. LP ( 1) O  3             1.97884    -0.91642  12(v),17(v),27(r)
    7. LP ( 2) O  3             1.67237    -0.45973  13(v),15(g),18(v),16(v)
                                                     39(g),21(v),35(g),24(v)
    8. BD ( 1) C  1- O  2       1.99926    -1.32589  14(g)
    9. BD ( 2) C  1- O  2       1.97672    -0.62341  15(g),13(g),35(v),16(g)
   10. BD ( 1) C  1- O  3       1.99926    -1.32589  12(g)
   11. BD ( 2) C  1- O  3       1.97672    -0.62341  13(g),15(g),26(v),16(g)
 ------ non-Lewis ----------------------------------
   12. BD*( 1) C  1- O  2       0.01160     0.97109
   13. BD*( 2) C  1- O  2       0.33104     0.15653
   14. BD*( 1) C  1- O  3       0.01160     0.97109
   15. BD*( 2) C  1- O  3       0.33104     0.15653
   16. RY ( 1) C  1             0.02632     2.61147
   17. RY ( 2) C  1             0.02026     0.64932
   18. RY ( 3) C  1             0.00941     2.68418
   19. RY ( 4) C  1             0.00009     2.28675
   20. RY ( 5) C  1             0.00000     1.47142
   21. RY ( 6) C  1             0.00000     0.65950
   22. RY ( 7) C  1             0.00000     1.91178
   23. RY ( 8) C  1             0.00000     1.91180
   24. RY ( 9) C  1             0.00000     0.65948
   25. RY ( 1) O  2             0.00102     1.26457
   26. RY ( 2) O  2             0.00099     1.26491
   27. RY ( 3) O  2             0.00013     1.73661
   28. RY ( 4) O  2             0.00001     2.86798
   29. RY ( 5) O  2             0.00000     1.61321
   30. RY ( 6) O  2             0.00000     2.28257
   31. RY ( 7) O  2             0.00000     2.20230
   32. RY ( 8) O  2             0.00000     2.12707
   33. RY ( 9) O  2             0.00000     2.03691
   34. RY ( 1) O  3             0.00102     1.26457
   35. RY ( 2) O  3             0.00099     1.26491
   36. RY ( 3) O  3             0.00013     1.73661
   37. RY ( 4) O  3             0.00001     2.86798
   38. RY ( 5) O  3             0.00000     1.61321
   39. RY ( 6) O  3             0.00000     2.28727
   40. RY ( 7) O  3             0.00000     2.03949
   41. RY ( 8) O  3             0.00000     2.03691
   42. RY ( 9) O  3             0.00000     2.28519
          -------------------------------
                 Total Lewis   21.25434  ( 96.6106%)
           Valence non-Lewis    0.68528  (  3.1149%)
           Rydberg non-Lewis    0.06039  (  0.2745%)
          -------------------------------
               Total unit  1   22.00000  (100.0000%)
              Charge unit  1    0.00000

 $CHOOSE
   LONE 2 2 3 2 END
   BOND D 1 2 D 1 3 END
 $END

 NBO analysis completed in 0.53 CPU seconds (1 wall second)
 Maximum scratch memory used by NBO was 327172 words (2.50 MB)
 Maximum scratch memory used by G16NBO was 11015 words (0.08 MB)

 Opening RunExU unformatted file "/cluster/work/users/beto93/mol38/Gau-1782088.EUF"
 Read unf file /cluster/work/users/beto93/mol38/Gau-1782088.EUF:
 Label Gaussian matrix elements                                         IVers= 2 NLab= 2 Version=ES64L-G16RevC.01
 Title mol38-NBO                                                       
 NAtoms=     3 NBasis=    42 NBsUse=    42 ICharg=     0 Multip=     1 NE=    22 Len12L=8 Len4L=8 IOpCl= 0 ICGU=111
 GAUSSIAN SCALARS                    NI= 1 NR= 1 NTot=       1 LenBuf=    2 NRI=1 N=    1000
 NPA CHARGES                         NI= 0 NR= 1 NTot=       3 LenBuf= 4000 NRI=1 N=       3
 Recovered energy= -187.627799711     dipole=      0.000000000000      0.000000000000      0.000000000000
 Unable to Open any file for archive entry.
 1\1\GINC-C1-37\SP\RHF\6-31G(d)\C1O2\BETO93\18-Nov-2024\0\\#RHF/6-31G* 
 int=nobasistransform Symmetry=None 5D 7F Pop=NBO7Read\\mol38-NBO\\0,1\
 C,0,0.,0.,0.\O,0,0.,0.,1.178658\O,0,0.,0.,-1.178658\\Version=ES64L-G16
 RevC.01\HF=-187.6277997\RMSD=8.135e-09\Dipole=0.,0.,0.\Quadrupole=1.37
 01191,1.3701191,-2.7402383,0.,0.,0.\PG=Unknown\\@
 The archive entry for this job was punched.


 NOTHING WILL BE ATTEMPTED IF ALL POSSIBLE OBJECTIONS
 MUST FIRST BE OVERCOME.

                               -- THE GOLDEN PRINCIPLE,
                    PAUL DICKSON'S "THE OFFICIAL RULES"
 Job cpu time:       0 days  0 hours  0 minutes  8.0 seconds.
 Elapsed time:       0 days  0 hours  0 minutes  2.6 seconds.
 File lengths (MBytes):  RWF=     10 Int=      0 D2E=      0 Chk=      1 Scr=      1
 Normal termination of Gaussian 16 at Mon Nov 18 16:40:07 2024.
