 Entering Gaussian System, Link 0=g16
 Initial command:
 /cluster/software/Gaussian/g16_C.01/l1.exe "/cluster/work/users/beto93/CH3Li/Gau-1555218.inp" -scrdir="/cluster/work/users/beto93/CH3Li/"
 Entering Link 1 = /cluster/software/Gaussian/g16_C.01/l1.exe PID=   1555222.
  
 Copyright (c) 1988-2019, Gaussian, Inc.  All Rights Reserved.
  
 This is part of the Gaussian(R) 16 program.  It is based on
 the Gaussian(R) 09 system (copyright 2009, Gaussian, Inc.),
 the Gaussian(R) 03 system (copyright 2003, Gaussian, Inc.),
 the Gaussian(R) 98 system (copyright 1998, Gaussian, Inc.),
 the Gaussian(R) 94 system (copyright 1995, Gaussian, Inc.),
 the Gaussian 92(TM) system (copyright 1992, Gaussian, Inc.),
 the Gaussian 90(TM) system (copyright 1990, Gaussian, Inc.),
 the Gaussian 88(TM) system (copyright 1988, Gaussian, Inc.),
 the Gaussian 86(TM) system (copyright 1986, Carnegie Mellon
 University), and the Gaussian 82(TM) system (copyright 1983,
 Carnegie Mellon University). Gaussian is a federally registered
 trademark of Gaussian, Inc.
  
 This software contains proprietary and confidential information,
 including trade secrets, belonging to Gaussian, Inc.
  
 This software is provided under written license and may be
 used, copied, transmitted, or stored only in accord with that
 written license.
  
 The following legend is applicable only to US Government
 contracts under FAR:
  
                    RESTRICTED RIGHTS LEGEND
  
 Use, reproduction and disclosure by the US Government is
 subject to restrictions as set forth in subparagraphs (a)
 and (c) of the Commercial Computer Software - Restricted
 Rights clause in FAR 52.227-19.
  
 Gaussian, Inc.
 340 Quinnipiac St., Bldg. 40, Wallingford CT 06492
  
  
 ---------------------------------------------------------------
 Warning -- This program may not be used in any manner that
 competes with the business of Gaussian, Inc. or will provide
 assistance to any competitor of Gaussian, Inc.  The licensee
 of this program is prohibited from giving any competitor of
 Gaussian, Inc. access to this program.  By using this program,
 the user acknowledges that Gaussian, Inc. is engaged in the
 business of creating and licensing software in the field of
 computational chemistry and represents and warrants to the
 licensee that it is not a competitor of Gaussian, Inc. and that
 it will not use this program in any manner prohibited above.
 ---------------------------------------------------------------
  

 Cite this work as:
 Gaussian 16, Revision C.01,
 M. J. Frisch, G. W. Trucks, H. B. Schlegel, G. E. Scuseria, 
 M. A. Robb, J. R. Cheeseman, G. Scalmani, V. Barone, 
 G. A. Petersson, H. Nakatsuji, X. Li, M. Caricato, A. V. Marenich, 
 J. Bloino, B. G. Janesko, R. Gomperts, B. Mennucci, H. P. Hratchian, 
 J. V. Ortiz, A. F. Izmaylov, J. L. Sonnenberg, D. Williams-Young, 
 F. Ding, F. Lipparini, F. Egidi, J. Goings, B. Peng, A. Petrone, 
 T. Henderson, D. Ranasinghe, V. G. Zakrzewski, J. Gao, N. Rega, 
 G. Zheng, W. Liang, M. Hada, M. Ehara, K. Toyota, R. Fukuda, 
 J. Hasegawa, M. Ishida, T. Nakajima, Y. Honda, O. Kitao, H. Nakai, 
 T. Vreven, K. Throssell, J. A. Montgomery, Jr., J. E. Peralta, 
 F. Ogliaro, M. J. Bearpark, J. J. Heyd, E. N. Brothers, K. N. Kudin, 
 V. N. Staroverov, T. A. Keith, R. Kobayashi, J. Normand, 
 K. Raghavachari, A. P. Rendell, J. C. Burant, S. S. Iyengar, 
 J. Tomasi, M. Cossi, J. M. Millam, M. Klene, C. Adamo, R. Cammi, 
 J. W. Ochterski, R. L. Martin, K. Morokuma, O. Farkas, 
 J. B. Foresman, and D. J. Fox, Gaussian, Inc., Wallingford CT, 2019.
 
 ******************************************
 Gaussian 16:  ES64L-G16RevC.01  3-Jul-2019
                24-Jul-2024 
 ******************************************
 %LindaWorkers=c1-1-ib
 %NProcShared=4
 Will use up to    4 processors via shared memory.
 %mem=25GB
 %chk=CH3Li.chk
 SetLPE:    new flags="-opt 'Tsnet.Node.lindarsharg: ssh'  -nodelist 'c1-1-ib.saga' -env GAUSS_MDEF=3355443200 -env GAUSS_EXEDIR="/cluster/software/Gaussian/g16_C.01/bsd:/cluster/software/Gaussian/g16_C.01""
 Will use up to    1 processors via Linda.
 ----------------------------------------------------
 #OPT=VeryTight Int=UltraFine RHF/STO-3G Pop=NBO7Read
 ----------------------------------------------------
 1/7=1,18=20,19=15,38=1,163=2/1,3;
 2/9=110,12=2,17=6,18=5,40=1/2;
 3/6=3,11=1,25=1,30=1,71=1,75=-5,116=1/1,2,3;
 4//1;
 5/5=2,38=5/2;
 6/7=2,8=2,9=2,10=2,28=1,40=2,113=1,114=1,124=2103/1,12;
 7//1,2,3,16;
 1/7=1,18=20,19=15/3(2);
 2/9=110/2;
 99//99;
 2/9=110/2;
 3/6=3,11=1,25=1,30=1,71=1,75=-5,116=1/1,2,3;
 4/5=5,16=3,69=1/1;
 5/5=2,38=5/2;
 7//1,2,3,16;
 1/7=1,18=20,19=15/3(-5);
 2/9=110/2;
 6/7=2,8=2,9=2,10=2,19=2,28=1,40=2,113=1,114=1,124=2103/1,12;
 99/9=1/99;
 ---------
 NBO-CH3Li
 ---------
 Symbolic Z-matrix:
 Charge =  0 Multiplicity = 1
 C                     0.        0.        0. 
 Li                   -0.94705   1.64034  -0.66967 
 H                     0.02956  -0.05119   1.08139 
 H                     1.02939  -0.05119  -0.33259 
 H                    -0.47036  -0.91708  -0.3326 
 

 GradGradGradGradGradGradGradGradGradGradGradGradGradGradGradGradGradGrad
 Berny optimization.
 Initialization pass.
                           ----------------------------
                           !    Initial Parameters    !
                           ! (Angstroms and Degrees)  !
 --------------------------                            --------------------------
 ! Name  Definition              Value          Derivative Info.                !
 --------------------------------------------------------------------------------
 ! R1    R(1,2)                  2.009          estimate D2E/DX2                !
 ! R2    R(1,3)                  1.083          estimate D2E/DX2                !
 ! R3    R(1,4)                  1.083          estimate D2E/DX2                !
 ! R4    R(1,5)                  1.083          estimate D2E/DX2                !
 ! A1    A(2,1,3)              112.6            estimate D2E/DX2                !
 ! A2    A(2,1,4)              112.6            estimate D2E/DX2                !
 ! A3    A(2,1,5)              112.6            estimate D2E/DX2                !
 ! A4    A(3,1,4)              106.1691         estimate D2E/DX2                !
 ! A5    A(3,1,5)              106.1693         estimate D2E/DX2                !
 ! A6    A(4,1,5)              106.1694         estimate D2E/DX2                !
 ! D1    D(2,1,4,3)            123.6484         estimate D2E/DX2                !
 ! D2    D(2,1,5,3)           -123.6485         estimate D2E/DX2                !
 ! D3    D(2,1,5,4)            123.6486         estimate D2E/DX2                !
 ! D4    D(3,1,5,4)           -112.7029         estimate D2E/DX2                !
 --------------------------------------------------------------------------------
 Trust Radius=3.00D-01 FncErr=1.00D-07 GrdErr=1.00D-07 EigMax=2.50D+02 EigMin=1.00D-04
 Number of steps in this run=     24 maximum allowed number of steps=    100.
 GradGradGradGradGradGradGradGradGradGradGradGradGradGradGradGradGradGrad

                          Input orientation:                          
 ---------------------------------------------------------------------
 Center     Atomic      Atomic             Coordinates (Angstroms)
 Number     Number       Type             X           Y           Z
 ---------------------------------------------------------------------
      1          6           0        0.000000    0.000000    0.000000
      2          3           0       -0.947052    1.640342   -0.669667
      3          1           0        0.029555   -0.051191    1.081386
      4          1           0        1.029393   -0.051190   -0.332594
      5          1           0       -0.470363   -0.917075   -0.332597
 ---------------------------------------------------------------------
                    Distance matrix (angstroms):
                    1          2          3          4          5
     1  C    0.000000
     2  Li   2.009001   0.000000
     3  H    1.083000   2.623210   0.000000
     4  H    1.083000   2.623211   1.731767   0.000000
     5  H    1.083000   2.623210   1.731768   1.731769   0.000000
 This structure is nearly, but not quite of a higher symmetry.
 Consider Symm=Loose if the higher symmetry is desired.
 Stoichiometry    CH3Li
 Framework group  C1[X(CH3Li)]
 Deg. of freedom     9
 Full point group                 C1      NOp   1
 Largest Abelian subgroup         C1      NOp   1
 Largest concise Abelian subgroup C1      NOp   1
                         Standard orientation:                         
 ---------------------------------------------------------------------
 Center     Atomic      Atomic             Coordinates (Angstroms)
 Number     Number       Type             X           Y           Z
 ---------------------------------------------------------------------
      1          6           0        0.161153   -0.071282   -0.357090
      2          3           0       -0.651892    0.288350    1.444494
      3          1           0       -0.540054   -0.523821   -1.047313
      4          1           0        1.008849   -0.743246   -0.304501
      5          1           0        0.519962    0.829710   -0.839126
 ---------------------------------------------------------------------
 Rotational constants (GHZ):         167.2062964          22.0927036          22.0926983
 Standard basis: STO-3G (5D, 7F)
 There are    13 symmetry adapted cartesian basis functions of A   symmetry.
 There are    13 symmetry adapted basis functions of A   symmetry.
    13 basis functions,    39 primitive gaussians,    13 cartesian basis functions
     6 alpha electrons        6 beta electrons
       nuclear repulsion energy        16.2687176168 Hartrees.
 NAtoms=    5 NActive=    5 NUniq=    5 SFac= 1.00D+00 NAtFMM=   60 NAOKFM=F Big=F
 Integral buffers will be    131072 words long.
 Raffenetti 1 integral format.
 Two-electron integral symmetry is turned on.
 One-electron integrals computed using PRISM.
 NBasis=    13 RedAO= T EigKep=  2.35D-01  NBF=    13
 NBsUse=    13 1.00D-06 EigRej= -1.00D+00 NBFU=    13
 ExpMin= 4.81D-02 ExpMax= 7.16D+01 ExpMxC= 7.16D+01 IAcc=3 IRadAn=         5 AccDes= 0.00D+00
 Harris functional with IExCor=  205 and IRadAn=       5 diagonalized for initial guess.
 HarFok:  IExCor=  205 AccDes= 0.00D+00 IRadAn=         5 IDoV= 1 UseB2=F ITyADJ=14
 ICtDFT=  3500011 ScaDFX=  1.000000  1.000000  1.000000  1.000000
 FoFCou: FMM=F IPFlag=           0 FMFlag=      100000 FMFlg1=           0
         NFxFlg=           0 DoJE=T BraDBF=F KetDBF=T FulRan=T
         wScrn=  0.000000 ICntrl=       500 IOpCl=  0 I1Cent=   200000004 NGrid=           0
         NMat0=    1 NMatS0=      1 NMatT0=    0 NMatD0=    1 NMtDS0=    0 NMtDT0=    0
 Petite list used in FoFCou.
 Keep R1 ints in memory in canonical form, NReq=809351.
 Requested convergence on RMS density matrix=1.00D-08 within 128 cycles.
 Requested convergence on MAX density matrix=1.00D-06.
 Requested convergence on             energy=1.00D-06.
 No special actions if energy rises.
 SCF Done:  E(RHF) =  -46.4215876250     A.U. after   10 cycles
            NFock= 10  Conv=0.51D-08     -V/T= 2.0017

 **********************************************************************

            Population analysis using the SCF Density.

 **********************************************************************

 Orbital symmetries:
       Occupied  (A) (A) (A) (A) (A) (A)
       Virtual   (A) (A) (A) (A) (A) (A) (A)
 The electronic state is 1-A.
 Alpha  occ. eigenvalues --  -10.91973  -2.33280  -0.79993  -0.43285  -0.43285
 Alpha  occ. eigenvalues --   -0.23957
 Alpha virt. eigenvalues --    0.08534   0.18412   0.18412   0.44856   0.80013
 Alpha virt. eigenvalues --    0.80013   0.88242
          Condensed to atoms (all electrons):
               1          2          3          4          5
     1  C    4.769663   0.314211   0.385815   0.385815   0.385815
     2  Li   0.314211   2.636806  -0.036299  -0.036299  -0.036299
     3  H    0.385815  -0.036299   0.667739  -0.022534  -0.022534
     4  H    0.385815  -0.036299  -0.022534   0.667739  -0.022534
     5  H    0.385815  -0.036299  -0.022534  -0.022534   0.667739
 Mulliken charges:
               1
     1  C   -0.241318
     2  Li   0.157880
     3  H    0.027813
     4  H    0.027813
     5  H    0.027813
 Sum of Mulliken charges =   0.00000
 Mulliken charges with hydrogens summed into heavy atoms:
               1
     1  C   -0.157880
     2  Li   0.157880
 Electronic spatial extent (au):  <R**2>=             65.6707
 Charge=              0.0000 electrons
 Dipole moment (field-independent basis, Debye):
    X=             -1.7267    Y=              0.7638    Z=              3.8260  Tot=              4.2665
 Quadrupole moment (field-independent basis, Debye-Ang):
   XX=             -9.3881   YY=            -10.8785   ZZ=             -2.1430
   XY=             -0.8196   XZ=             -4.1059   YZ=              1.8161
 Traceless Quadrupole moment (field-independent basis, Debye-Ang):
   XX=             -1.9182   YY=             -3.4086   ZZ=              5.3269
   XY=             -0.8196   XZ=             -4.1059   YZ=              1.8161
 Octapole moment (field-independent basis, Debye-Ang**2):
  XXX=             -1.5237  YYY=              0.3163  ZZZ=             16.6213  XYY=             -0.1343
  XXY=              0.4626  XXZ=              3.3157  XZZ=             -7.5898  YZZ=              3.3117
  YYZ=              0.5546  XYZ=             -1.6437
 Hexadecapole moment (field-independent basis, Debye-Ang**3):
 XXXX=            -26.3356 YYYY=            -24.6254 ZZZZ=            -16.1926 XXXY=              0.0251
 XXXZ=              1.5451 YYYX=              0.6843 YYYZ=             -1.6779 ZZZX=             -7.1214
 ZZZY=              3.2933 XXYY=             -8.2001 XXZZ=             -6.2698 YYZZ=             -9.7482
 XXYZ=              0.5392 YYXZ=              0.7054 ZZXY=             -1.6817
 N-N= 1.626871761678D+01 E-N=-1.414084689492D+02  KE= 4.634333031427D+01
 Running external command "gaunbo7 R"
         input file       "/cluster/work/users/beto93/CH3Li/Gau-1555222.EIn"
         output file      "/cluster/work/users/beto93/CH3Li/Gau-1555222.EOu"
         message file     "/cluster/work/users/beto93/CH3Li/Gau-1555222.EMs"
         fchk file        "/cluster/work/users/beto93/CH3Li/Gau-1555222.EFC"
         mat. el file     "/cluster/work/users/beto93/CH3Li/Gau-1555222.EUF"

 Writing WrtUnf unformatted file "/cluster/work/users/beto93/CH3Li/Gau-1555222.EUF"
 Gaussian matrix elements                                         Version   2 NLab=11 Len12L=8 Len4L=8
 Write SHELL TO ATOM MAP                   from file      0 offset           0 length                   7 to matrix element file.
 Write SHELL TYPES                         from file      0 offset           0 length                   7 to matrix element file.
 Write NUMBER OF PRIMITIVES PER SHELL      from file      0 offset           0 length                   7 to matrix element file.
 Write PRIMITIVE EXPONENTS                 from file      0 offset           0 length                  21 to matrix element file.
 Write CONTRACTION COEFFICIENTS            from file      0 offset           0 length                  21 to matrix element file.
 Write P(S=P) CONTRACTION COEFFICIENTS     from file      0 offset           0 length                  21 to matrix element file.
 Write COORDINATES OF EACH SHELL           from file      0 offset           0 length                  21 to matrix element file.
 Write BONDS PER ATOM                      from file      0 offset           0 length                   5 to matrix element file.
 Write BONDED ATOMS                        from file      0 offset           0 length                   8 to matrix element file.
 Write BOND TYPES                          from file      0 offset           0 length                   8 to matrix element file.
 Write ONIOM CHARGE/MULT                   from file      0 offset           0 length                  32 to matrix element file.
 Write ONIOM ATOM LAYERS                   from file      0 offset           0 length                   5 to matrix element file.
 Write ONIOM ATOM MODIFIERS                from file      0 offset           0 length                   5 to matrix element file.
 Write ONIOM ATOM TYPES                    from file      0 offset           0 length                   5 to matrix element file.
 Write ONIOM LINK ATOMS                    from file      0 offset           0 length                   5 to matrix element file.
 Write ONIOM LINK CHARGES                  from file      0 offset           0 length                   5 to matrix element file.
 Write ONIOM LINK DISTANCES                from file      0 offset           0 length                  20 to matrix element file.
 Write SYMINF INTS                         from file      0 offset           0 length                  26 to matrix element file.
 Write ROTTR TO SO                         from file      0 offset           0 length                  12 to matrix element file.
 Write GAUSSIAN SCALARS                    from file    501 offset           0 to matrix element file.
 Write OPTIMIZATION FLAGS                  from file      0 offset           0 length                   5 to matrix element file.
 Write INTEGER ISO                         from file      0 offset           0 length                   5 to matrix element file.
 Write INTEGER SPIN                        from file      0 offset           0 length                   5 to matrix element file.
 Write REAL ZEFFECTIVE                     from file      0 offset           0 length                   5 to matrix element file.
 Write REAL QUADRUPOLEMOMENT               from file      0 offset           0 length                   5 to matrix element file.
 Write REAL GFACTOR                        from file      0 offset           0 length                   5 to matrix element file.
 Write REAL ZNUCLEAR                       from file      0 offset           0 length                   5 to matrix element file.
 Write MULLIKEN CHARGES                    from file      0 offset           0 length                   5 to matrix element file.
 Write NUCLEAR GRADIENT                    from file  10584 offset           0 length                  15 to matrix element file.
 Array NUCLEAR FORCE CONSTANTS              on  file  10585 does not exist.
 Write ELECTRIC DIPOLE MOMENT              from file      0 offset           0 length                   3 to matrix element file.
 Write NON-ADIABATIC COUPLING              from file  10810 offset           0 length                  15 to matrix element file.
 Write RED INT COORD DIMS                  from file      0 offset           0 length                   4 to matrix element file.
 Write RED INT COORD ATOMS                 from file      0 offset           0 length                  56 to matrix element file.
 Write RED INT COORD VALS                  from file      0 offset           0 length                  14 to matrix element file.
 Write RED INT COORD IFLAGS                from file      0 offset           0 length                  14 to matrix element file.
 Write RED INT COORD RFLAGS                from file      0 offset           0 length                  14 to matrix element file.
 Write RED INT COORD CONSTRAINT            from file      0 offset           0 length                  28 to matrix element file.
 Write FINITE EM FIELD                     from file  10521 offset           0 length                  35 to matrix element file.
 Write OVERLAP                             from file  10514 offset           0 length                  91 to matrix element file.
 Write CORE HAMILTONIAN ALPHA              from file  10515 offset           0 length                  91 to matrix element file.
 Write CORE HAMILTONIAN BETA               from file  10515 offset          91 length                  91 to matrix element file.
 Write KINETIC ENERGY                      from file  10516 offset           0 length                  91 to matrix element file.
 Write ORTHOGONAL BASIS                    from file  10685 offset           0 length                 169 to matrix element file.
 Write DIPOLE INTEGRALS                    from file  10518 offset           0 length                 273 to matrix element file.
 Array DIP VEL INTEGRALS                    on  file  10572 does not exist.
 Array R X DEL INTEGRALS                    on  file  10572 does not exist.
 Write ALPHA ORBITAL ENERGIES              from file      0 offset           0 length                  13 to matrix element file.
 Write ALPHA MO COEFFICIENTS               from file  10524 offset           0 length                 169 to matrix element file.
 Write ALPHA DENSITY MATRIX                from file      0 offset           0 length                  91 to matrix element file.
 Write ALPHA FOCK MATRIX                   from file  10536 offset           0 length                  91 to matrix element file.
 Write ENERGY-WEIGHTED DENSITY             from file  10571 offset           0 length                  91 to matrix element file.
 Write ALPHA SCF DENSITY MATRIX            from file      0 offset           0 length                  91 to matrix element file.
 No 2e integrals to process.
 Perform NBO analysis...executing G16NBO...

 *********************************** NBO 7.0 ***********************************
             N A T U R A L   A T O M I C   O R B I T A L   A N D
          N A T U R A L   B O N D   O R B I T A L   A N A L Y S I S
 **************************** Espen Tangen (S101595) ***************************
  (c) Copyright 1996-2021 Board of Regents of the University of Wisconsin System
      on behalf of the Theoretical Chemistry Institute.  All rights reserved.

          Cite this program [NBO 7.0.10 (8-Feb-2021)] as:

          NBO 7.0.  E. D. Glendening, J. K. Badenhoop, A. E. Reed,
          J. E. Carpenter, J. A. Bohmann, C. M. Morales, P. Karafiloglou,
          C. R. Landis, and F. Weinhold, Theoretical Chemistry Institute,
          University of Wisconsin, Madison, WI (2018)

       /NPA    / : Natural Population Analysis
       /AOPNAO / : Print the AO to PNAO transformation
       /AONAO  / : Print the AO to NAO transformation
       /AONO   / : Print the NOs in the AO basis
       /AOMO   / : Print the MOs in the AO basis
       /BOAO   / : Print the AO bond-order matrix
       /DMAO   / : Print the AO density matrix
       /DMPNAO / : Print the PNAO density matrix
       /DMNAO  / : Print the NAO density matrix
       /DMMO   / : Print the MO density matrix
       /SAO    / : Print the AO overlap matrix
       /SPNAO  / : Print the PNAO overlap matrix
       /DETAIL / : Write details of NBO search
       /ARCHIVE/ : Write the archive file to lfn47
       /AOINFO / : Write AO information to lfn31
       /FILE   / : Set to CH3Li

 Filename set to CH3Li

 Job title: NBO-CH3Li


 MOs in the AO basis:

           AO          1       2       3       4       5       6       7       8
      ------------ ------- ------- ------- ------- ------- ------- ------- -------
   1.  C 1 (s)      0.9921 -0.0015 -0.2151  0.0000  0.0000 -0.0472  0.0278  0.0000
   2.  C 1 (s)      0.0371  0.0033  0.6127  0.0000  0.0000  0.1545 -0.0911  0.0000
   3.  C 1 (px)     0.0009 -0.0018  0.0428 -0.0079  0.4932 -0.2588  0.0725  0.0210
   4.  C 1 (py)    -0.0004  0.0008 -0.0190  0.5283  0.0512  0.1145 -0.0321 -0.0872
   5.  C 1 (pz)    -0.0021  0.0039 -0.0949 -0.1090  0.2124  0.5734 -0.1606  0.0269
   6. Li 2 (s)      0.0001  0.9909 -0.0302  0.0000  0.0000 -0.1705 -0.2057  0.0000
   7. Li 2 (s)     -0.0038  0.0340  0.0323  0.0000  0.0000  0.4828  0.7895  0.0000
   8. Li 2 (px)    -0.0019 -0.0020  0.0095 -0.0009  0.0569  0.1192 -0.2455 -0.2267
   9. Li 2 (py)     0.0009  0.0009 -0.0042  0.0609  0.0059 -0.0527  0.1086  0.9421
  10. Li 2 (pz)     0.0043  0.0045 -0.0211 -0.0126  0.0245 -0.2641  0.5440 -0.2904
  11.  H 3 (s)     -0.0063 -0.0020  0.2168 -0.1508 -0.4910 -0.1518  0.0326  0.0102
  12.  H 4 (s)     -0.0063 -0.0020  0.2168 -0.3498  0.3760 -0.1518  0.0326  0.1275
  13.  H 5 (s)     -0.0063 -0.0020  0.2168  0.5006  0.1149 -0.1518  0.0326 -0.1377

           AO          9      10      11      12      13
      ------------ ------- ------- ------- ------- -------
   1.  C 1 (s)      0.0000 -0.1648  0.0000  0.0000 -0.1797
   2.  C 1 (s)      0.0000  1.0182  0.0000  0.0000  1.1617
   3.  C 1 (px)    -0.0830 -0.2308  1.0201 -0.0268  0.3247
   4.  C 1 (py)    -0.0297  0.1021  0.1171  1.0916 -0.1436
   5.  C 1 (pz)    -0.0315  0.5115  0.4370 -0.2300 -0.7195
   6. Li 2 (s)      0.0000  0.1072  0.0000  0.0000 -0.0402
   7. Li 2 (s)      0.0000 -0.6535  0.0000  0.0000  0.2454
   8. Li 2 (px)     0.8968 -0.3948 -0.0633  0.0017  0.1214
   9. Li 2 (py)     0.3208  0.1746 -0.0073 -0.0677 -0.0537
  10. Li 2 (pz)     0.3407  0.8747 -0.0271  0.0143 -0.2691
  11.  H 3 (s)      0.1531 -0.0959  0.9396  0.2779 -0.7724
  12.  H 4 (s)     -0.0854 -0.0959 -0.7105  0.6748 -0.7724
  13.  H 5 (s)     -0.0678 -0.0959 -0.2291 -0.9527 -0.7724


 NOs in the AO basis:

           AO          1       2       3       4       5       6       7       8
      ------------ ------- ------- ------- ------- ------- ------- ------- -------
   1.  C 1 (s)      0.9173  0.4019  0.1129  0.1110 -0.0076 -0.0680  0.0213 -0.1148
   2.  C 1 (s)     -0.0591  0.0238 -0.4913 -0.0244  0.3899 -0.0518 -0.1530  0.6639
   3.  C 1 (px)     0.1048 -0.0650 -0.1552 -0.4629 -0.2417 -0.0145  0.1910 -0.0028
   4.  C 1 (py)     0.0427  0.0003 -0.0264 -0.0092  0.0595  0.5376  0.0378 -0.3484
   5.  C 1 (pz)     0.1317 -0.3514  0.2471 -0.1224  0.4218 -0.0083 -0.1686  0.3720
   6. Li 2 (s)     -0.2997  0.7534  0.3253 -0.4645  0.1798 -0.0224  0.0310  0.1754
   7. Li 2 (s)      0.0325 -0.1842  0.1240  0.0352  0.4245  0.0589 -0.0298 -0.7712
   8. Li 2 (px)     0.0259 -0.0739  0.0208 -0.0367  0.0967  0.0172  0.8651  0.1527
   9. Li 2 (py)    -0.0012  0.0294 -0.0202 -0.0085 -0.0482  0.0536 -0.5384  0.4942
  10. Li 2 (pz)    -0.0153  0.1065 -0.0573 -0.0512 -0.2273 -0.0429 -0.1261 -0.0141
  11.  H 3 (s)     -0.2012  0.2478 -0.1702  0.3916  0.0149 -0.2223  0.1566 -0.1015
  12.  H 4 (s)      0.0376 -0.0966 -0.2188 -0.3757 -0.0557 -0.3619 -0.3080 -0.4402
  13.  H 5 (s)     -0.0143  0.1130 -0.3119 -0.1118 -0.0687  0.4543 -0.0765  0.0590

           AO          9      10      11      12      13
      ------------ ------- ------- ------- ------- -------
   1.  C 1 (s)      0.0407  0.0406  0.0508  0.1340 -0.1508
   2.  C 1 (s)     -0.2380 -0.2944 -0.3310 -0.8264  0.9973
   3.  C 1 (px)    -0.3872 -0.6230  0.7406  0.1485  0.2596
   4.  C 1 (py)     0.2238 -0.1669  0.3168 -0.8698 -0.4339
   5.  C 1 (pz)    -0.4819 -0.3228 -0.1315  0.1371 -0.7151
   6. Li 2 (s)     -0.0596  0.0755  0.0012 -0.0807 -0.0890
   7. Li 2 (s)      0.3042 -0.2160  0.1349  0.4022  0.4423
   8. Li 2 (px)     0.5343 -0.0495 -0.0655  0.1624  0.0176
   9. Li 2 (py)     0.5978 -0.3062  0.0860  0.2127 -0.0487
  10. Li 2 (pz)    -0.1271 -0.6496 -0.8703 -0.2746 -0.2185
  11.  H 3 (s)     -0.2227 -0.6879  0.5002  0.1547 -0.8711
  12.  H 4 (s)      0.5351  0.4703 -0.1951 -0.3122 -0.8118
  13.  H 5 (s)     -0.3533  0.3045 -0.5277  0.9453 -0.4379


 AO overlap matrix:

           AO          1       2       3       4       5       6       7       8
      ------------ ------- ------- ------- ------- ------- ------- ------- -------
   1.  C 1 (s)      1.0000  0.2484  0.0000  0.0000  0.0000  0.0000  0.0343  0.0243
   2.  C 1 (s)      0.2484  1.0000  0.0000  0.0000  0.0000  0.0276  0.3188  0.1861
   3.  C 1 (px)     0.0000  0.0000  1.0000  0.0000  0.0000 -0.0198 -0.0742  0.1053
   4.  C 1 (py)     0.0000  0.0000  0.0000  1.0000  0.0000  0.0088  0.0328  0.0282
   5.  C 1 (pz)     0.0000  0.0000  0.0000  0.0000  1.0000  0.0439  0.1644  0.1412
   6. Li 2 (s)      0.0000  0.0276 -0.0198  0.0088  0.0439  1.0000  0.2411  0.0000
   7. Li 2 (s)      0.0343  0.3188 -0.0742  0.0328  0.1644  0.2411  1.0000  0.0000
   8. Li 2 (px)     0.0243  0.1861  0.1053  0.0282  0.1412  0.0000  0.0000  1.0000
   9. Li 2 (py)    -0.0107 -0.0823  0.0282  0.1566 -0.0624  0.0000  0.0000  0.0000
  10. Li 2 (pz)    -0.0538 -0.4123  0.1412 -0.0624 -0.1438  0.0000  0.0000  0.0000
  11.  H 3 (s)      0.0633  0.4948 -0.3041 -0.1963 -0.2993  0.0059  0.1767  0.0114
  12.  H 4 (s)      0.0633  0.4948  0.3676 -0.2914  0.0228  0.0059  0.1767  0.1696
  13.  H 5 (s)      0.0633  0.4948  0.1556  0.3907 -0.2090  0.0059  0.1767  0.1197

           AO          9      10      11      12      13
      ------------ ------- ------- ------- ------- -------
   1.  C 1 (s)     -0.0107 -0.0538  0.0633  0.0633  0.0633
   2.  C 1 (s)     -0.0823 -0.4123  0.4948  0.4948  0.4948
   3.  C 1 (px)     0.0282  0.1412 -0.3041  0.3676  0.1556
   4.  C 1 (py)     0.1566 -0.0624 -0.1963 -0.2914  0.3907
   5.  C 1 (pz)    -0.0624 -0.1438 -0.2993  0.0228 -0.2090
   6. Li 2 (s)      0.0000  0.0000  0.0059  0.0059  0.0059
   7. Li 2 (s)      0.0000  0.0000  0.1767  0.1767  0.1767
   8. Li 2 (px)     0.0000  0.0000  0.0114  0.1696  0.1197
   9. Li 2 (py)     1.0000  0.0000 -0.0829 -0.1053  0.0553
  10. Li 2 (pz)     0.0000  1.0000 -0.2545 -0.1786 -0.2332
  11.  H 3 (s)     -0.0829 -0.2545  1.0000  0.1823  0.1823
  12.  H 4 (s)     -0.1053 -0.1786  0.1823  1.0000  0.1823
  13.  H 5 (s)      0.0553 -0.2332  0.1823  0.1823  1.0000


 AO bond-order matrix:

           AO          1       2       3       4       5       6       7       8
      ------------ ------- ------- ------- ------- ------- ------- ------- -------
   1.  C 1 (s)      2.0654 -0.2046  0.0079 -0.0035 -0.0174  0.0264 -0.0670 -0.0192
   2.  C 1 (s)     -0.2046  0.8015 -0.0274  0.0121  0.0607 -0.0831  0.1888  0.0484
   3.  C 1 (px)     0.0079 -0.0274  0.6243 -0.0187 -0.0937  0.0821 -0.2472 -0.0047
   4.  C 1 (py)    -0.0035  0.0121 -0.0187  0.5903  0.0415 -0.0363  0.1094  0.0318
   5.  C 1 (pz)    -0.0174  0.0607 -0.0937  0.0415  0.7897 -0.1820  0.5478  0.1593
   6. Li 2 (s)      0.0264 -0.0831  0.0821 -0.0363 -0.1820  2.0238 -0.0991 -0.0452
   7. Li 2 (s)     -0.0670  0.1888 -0.2472  0.1094  0.5478 -0.0991  0.4706  0.1156
   8. Li 2 (px)    -0.0192  0.0484 -0.0047  0.0318  0.1593 -0.0452  0.1156  0.0351
   9. Li 2 (py)     0.0085 -0.0214  0.0318  0.0531 -0.0704  0.0200 -0.0511 -0.0121
  10. Li 2 (pz)     0.0425 -0.1072  0.1593 -0.0704 -0.2857  0.1002 -0.2561 -0.0606
  11.  H 3 (s)     -0.0915  0.2183 -0.3849 -0.2525 -0.3909  0.0348 -0.1326 -0.0876
  12.  H 4 (s)     -0.0915  0.2183  0.4736 -0.3741  0.0208  0.0348 -0.1326  0.0114
  13.  H 5 (s)     -0.0915  0.2183  0.2026  0.4977 -0.2755  0.0348 -0.1326 -0.0198

           AO          9      10      11      12      13
      ------------ ------- ------- ------- ------- -------
   1.  C 1 (s)      0.0085  0.0425 -0.0915 -0.0915 -0.0915
   2.  C 1 (s)     -0.0214 -0.1072  0.2183  0.2183  0.2183
   3.  C 1 (px)     0.0318  0.1593 -0.3849  0.4736  0.2026
   4.  C 1 (py)     0.0531 -0.0704 -0.2525 -0.3741  0.4977
   5.  C 1 (pz)    -0.0704 -0.2857 -0.3909  0.0208 -0.2755
   6. Li 2 (s)      0.0200  0.1002  0.0348  0.0348  0.0348
   7. Li 2 (s)     -0.0511 -0.2561 -0.1326 -0.1326 -0.1326
   8. Li 2 (px)    -0.0121 -0.0606 -0.0876  0.0114 -0.0198
   9. Li 2 (py)     0.0131  0.0268 -0.0100 -0.0240  0.0765
  10. Li 2 (pz)     0.0268  0.1420  0.0507  0.0982  0.0640
  11.  H 3 (s)     -0.0100  0.0507  0.6677 -0.1236 -0.1236
  12.  H 4 (s)     -0.0240  0.0982 -0.1236  0.6677 -0.1236
  13.  H 5 (s)      0.0765  0.0640 -0.1236 -0.1236  0.6677


 AO density matrix:

           AO          1       2       3       4       5       6       7       8
      ------------ ------- ------- ------- ------- ------- ------- ------- -------
   1.  C 1 (s)      1.9995  0.5053 -0.0004  0.0002  0.0009  0.0002  0.0611  0.0462
   2.  C 1 (s)      0.5053  1.8561  0.0125 -0.0055 -0.0277  0.0508  0.8094  0.3923
   3.  C 1 (px)    -0.0004  0.0125  1.5691 -0.0027 -0.0135 -0.0341 -0.3287  0.2624
   4.  C 1 (py)     0.0002 -0.0055 -0.0027  1.5642  0.0060  0.0151  0.1454  0.0654
   5.  C 1 (pz)     0.0009 -0.0277 -0.0135  0.0060  1.5929  0.0756  0.7284  0.3277
   6. Li 2 (s)      0.0002  0.0508 -0.0341  0.0151  0.0756  1.9986  0.5207 -0.0124
   7. Li 2 (s)      0.0611  0.8094 -0.3287  0.1454  0.7284  0.5207  0.8968  0.2749
   8. Li 2 (px)     0.0462  0.3923  0.2624  0.0654  0.3277 -0.0124  0.2749  0.2021
   9. Li 2 (py)    -0.0204 -0.1735  0.0654  0.3814 -0.1450  0.0055 -0.1216 -0.0418
  10. Li 2 (pz)    -0.1023 -0.8692  0.3277 -0.1450 -0.3159  0.0274 -0.6092 -0.2092
  11.  H 3 (s)      0.1191  1.1124 -0.8449 -0.5168 -0.7479  0.0128  0.2937 -0.0773
  12.  H 4 (s)      0.1191  1.1124  0.9636 -0.7730  0.1194  0.0128  0.2937  0.3974
  13.  H 5 (s)      0.1191  1.1124  0.3928  1.0635 -0.5048  0.0128  0.2937  0.2476

           AO          9      10      11      12      13
      ------------ ------- ------- ------- ------- -------
   1.  C 1 (s)     -0.0204 -0.1023  0.1191  0.1191  0.1191
   2.  C 1 (s)     -0.1735 -0.8692  1.1124  1.1124  1.1124
   3.  C 1 (px)     0.0654  0.3277 -0.8449  0.9636  0.3928
   4.  C 1 (py)     0.3814 -0.1450 -0.5168 -0.7730  1.0635
   5.  C 1 (pz)    -0.1450 -0.3159 -0.7479  0.1194 -0.5048
   6. Li 2 (s)      0.0055  0.0274  0.0128  0.0128  0.0128
   7. Li 2 (s)     -0.1216 -0.6092  0.2937  0.2937  0.2937
   8. Li 2 (px)    -0.0418 -0.2092 -0.0773  0.3974  0.2476
   9. Li 2 (py)     0.1262  0.0925 -0.1996 -0.2668  0.2153
  10. Li 2 (pz)     0.0925  0.5713 -0.5164 -0.2888 -0.4526
  11.  H 3 (s)     -0.1996 -0.5164  1.6576  0.3498  0.3498
  12.  H 4 (s)     -0.2668 -0.2888  0.3498  1.6576  0.3498
  13.  H 5 (s)      0.2153 -0.4526  0.3498  0.3498  1.6576


 MO density matrix:

      MO     1       2       3       4       5       6       7       8       9
     ---- ------  ------  ------  ------  ------  ------  ------  ------  ------
   1.     2.0000  0.0000  0.0000  0.0000  0.0000  0.0000  0.0000  0.0000  0.0000
   2.     0.0000  2.0000  0.0000  0.0000  0.0000  0.0000  0.0000  0.0000  0.0000
   3.     0.0000  0.0000  2.0000  0.0000  0.0000  0.0000  0.0000  0.0000  0.0000
   4.     0.0000  0.0000  0.0000  2.0000  0.0000  0.0000  0.0000  0.0000  0.0000
   5.     0.0000  0.0000  0.0000  0.0000  2.0000  0.0000  0.0000  0.0000  0.0000
   6.     0.0000  0.0000  0.0000  0.0000  0.0000  2.0000  0.0000  0.0000  0.0000
   7.     0.0000  0.0000  0.0000  0.0000  0.0000  0.0000  0.0000  0.0000  0.0000
   8.     0.0000  0.0000  0.0000  0.0000  0.0000  0.0000  0.0000  0.0000  0.0000
   9.     0.0000  0.0000  0.0000  0.0000  0.0000  0.0000  0.0000  0.0000  0.0000
  10.     0.0000  0.0000  0.0000  0.0000  0.0000  0.0000  0.0000  0.0000  0.0000
  11.     0.0000  0.0000  0.0000  0.0000  0.0000  0.0000  0.0000  0.0000  0.0000
  12.     0.0000  0.0000  0.0000  0.0000  0.0000  0.0000  0.0000  0.0000  0.0000
  13.     0.0000  0.0000  0.0000  0.0000  0.0000  0.0000  0.0000  0.0000  0.0000

      MO    10      11      12      13
     ---- ------  ------  ------  ------
   1.     0.0000  0.0000  0.0000  0.0000
   2.     0.0000  0.0000  0.0000  0.0000
   3.     0.0000  0.0000  0.0000  0.0000
   4.     0.0000  0.0000  0.0000  0.0000
   5.     0.0000  0.0000  0.0000  0.0000
   6.     0.0000  0.0000  0.0000  0.0000
   7.     0.0000  0.0000  0.0000  0.0000
   8.     0.0000  0.0000  0.0000  0.0000
   9.     0.0000  0.0000  0.0000  0.0000
  10.     0.0000  0.0000  0.0000  0.0000
  11.     0.0000  0.0000  0.0000  0.0000
  12.     0.0000  0.0000  0.0000  0.0000
  13.     0.0000  0.0000  0.0000  0.0000


 NATURAL POPULATIONS:  Natural atomic orbital occupancies

  NAO Atom No lang   Type(AO)    Occupancy      Energy
 -------------------------------------------------------
   1    C  1  s      Cor( 1s)     1.99999     -10.90739
   2    C  1  s      Val( 2s)     1.16143      -0.13771
   3    C  1  px     Val( 2p)     1.05205       0.16246
   4    C  1  py     Val( 2p)     1.00207       0.18448
   5    C  1  pz     Val( 2p)     1.29501       0.05541

   6   Li  2  s      Cor( 1s)     1.99995      -2.33268
   7   Li  2  s      Val( 2s)     0.40315       0.06633
   8   Li  2  px     Ryd( 2p)     0.02539       0.21089
   9   Li  2  py     Ryd( 2p)     0.01100       0.18980
  10   Li  2  pz     Ryd( 2p)     0.09533       0.31344

  11    H  3  s      Val( 1s)     0.98487       0.14069

  12    H  4  s      Val( 1s)     0.98487       0.14069

  13    H  5  s      Val( 1s)     0.98487       0.14069


 Summary of Natural Population Analysis:

                                     Natural Population
             Natural    ---------------------------------------------
  Atom No    Charge        Core      Valence    Rydberg      Total
 --------------------------------------------------------------------
    C  1   -0.51056      1.99999     4.51057    0.00000     6.51056
   Li  2    0.46518      1.99995     0.40315    0.13173     2.53482
    H  3    0.01513      0.00000     0.98487    0.00000     0.98487
    H  4    0.01513      0.00000     0.98487    0.00000     0.98487
    H  5    0.01513      0.00000     0.98487    0.00000     0.98487
 ====================================================================
 * Total *  0.00000      3.99994     7.86834    0.13173    12.00000

                                 Natural Population
 ---------------------------------------------------------
   Core                       3.99994 ( 99.9984% of    4)
   Valence                    7.86834 ( 98.3542% of    8)
   Natural Minimal Basis     11.86827 ( 98.9023% of   12)
   Natural Rydberg Basis      0.13173 (  1.0977% of   12)
 ---------------------------------------------------------

    Atom No         Natural Electron Configuration
 ----------------------------------------------------------------------------
      C  1      [core]2s( 1.16)2p( 3.35)
     Li  2      [core]2s( 0.40)2p( 0.13)
      H  3            1s( 0.98)
      H  4            1s( 0.98)
      H  5            1s( 0.98)


 PNAOs in the AO basis:

           AO          1       2       3       4       5       6       7       8
      ------------ ------- ------- ------- ------- ------- ------- ------- -------
   1.  C 1 (s)      0.9839 -0.3126  0.0000  0.0000  0.0000  0.0000  0.0000  0.0000
   2.  C 1 (s)      0.0585  1.0307  0.0000  0.0000  0.0000  0.0000  0.0000  0.0000
   3.  C 1 (px)     0.0000  0.0000  1.0000  0.0000  0.0000  0.0000  0.0000  0.0000
   4.  C 1 (py)     0.0000  0.0000  0.0000  1.0000  0.0000  0.0000  0.0000  0.0000
   5.  C 1 (pz)     0.0000  0.0000  0.0000  0.0000  1.0000  0.0000  0.0000  0.0000
   6. Li 2 (s)      0.0000  0.0000  0.0000  0.0000  0.0000  0.9911 -0.2818  0.0000
   7. Li 2 (s)      0.0000  0.0000  0.0000  0.0000  0.0000  0.0345  1.0298  0.0000
   8. Li 2 (px)     0.0000  0.0000  0.0000  0.0000  0.0000  0.0000  0.0000  1.0000
   9. Li 2 (py)     0.0000  0.0000  0.0000  0.0000  0.0000  0.0000  0.0000  0.0000
  10. Li 2 (pz)     0.0000  0.0000  0.0000  0.0000  0.0000  0.0000  0.0000  0.0000
  11.  H 3 (s)      0.0000  0.0000  0.0000  0.0000  0.0000  0.0000  0.0000  0.0000
  12.  H 4 (s)      0.0000  0.0000  0.0000  0.0000  0.0000  0.0000  0.0000  0.0000
  13.  H 5 (s)      0.0000  0.0000  0.0000  0.0000  0.0000  0.0000  0.0000  0.0000

           AO          9      10      11      12      13
      ------------ ------- ------- ------- ------- -------
   1.  C 1 (s)      0.0000  0.0000  0.0000  0.0000  0.0000
   2.  C 1 (s)      0.0000  0.0000  0.0000  0.0000  0.0000
   3.  C 1 (px)     0.0000  0.0000  0.0000  0.0000  0.0000
   4.  C 1 (py)     0.0000  0.0000  0.0000  0.0000  0.0000
   5.  C 1 (pz)     0.0000  0.0000  0.0000  0.0000  0.0000
   6. Li 2 (s)      0.0000  0.0000  0.0000  0.0000  0.0000
   7. Li 2 (s)      0.0000  0.0000  0.0000  0.0000  0.0000
   8. Li 2 (px)     0.0000  0.0000  0.0000  0.0000  0.0000
   9. Li 2 (py)     1.0000  0.0000  0.0000  0.0000  0.0000
  10. Li 2 (pz)     0.0000  1.0000  0.0000  0.0000  0.0000
  11.  H 3 (s)      0.0000  0.0000  1.0000  0.0000  0.0000
  12.  H 4 (s)      0.0000  0.0000  0.0000  1.0000  0.0000
  13.  H 5 (s)      0.0000  0.0000  0.0000  0.0000  1.0000


 PNAO overlap matrix:

           NAO         1       2       3       4       5       6       7       8
      ------------ ------- ------- ------- ------- ------- ------- ------- -------
   1.  C 1( 1s )    1.0000  0.0000  0.0000  0.0000  0.0000  0.0034  0.0535  0.0348
   2.  C 1( 2s )    0.0000  1.0000  0.0000  0.0000  0.0000  0.0391  0.3194  0.1842
   3.  C 1( 2px)    0.0000  0.0000  1.0000  0.0000  0.0000 -0.0222 -0.0708  0.1053
   4.  C 1( 2py)    0.0000  0.0000  0.0000  1.0000  0.0000  0.0098  0.0313  0.0282
   5.  C 1( 2pz)    0.0000  0.0000  0.0000  0.0000  1.0000  0.0492  0.1569  0.1412
   6. Li 2( 1s )    0.0034  0.0391 -0.0222  0.0098  0.0492  1.0000  0.0000  0.0000
   7. Li 2( 2s )    0.0535  0.3194 -0.0708  0.0313  0.1569  0.0000  1.0000  0.0000
   8. Li 2( 2px)    0.0348  0.1842  0.1053  0.0282  0.1412  0.0000  0.0000  1.0000
   9. Li 2( 2py)   -0.0154 -0.0815  0.0282  0.1566 -0.0624  0.0000  0.0000  0.0000
  10. Li 2( 2pz)   -0.0771 -0.4081  0.1412 -0.0624 -0.1438  0.0000  0.0000  0.0000
  11.  H 3( 1s )    0.0912  0.4902 -0.3041 -0.1963 -0.2993  0.0119  0.1803  0.0114
  12.  H 4( 1s )    0.0912  0.4902  0.3676 -0.2914  0.0228  0.0119  0.1803  0.1696
  13.  H 5( 1s )    0.0912  0.4902  0.1556  0.3907 -0.2090  0.0119  0.1803  0.1197

           NAO         9      10      11      12      13
      ------------ ------- ------- ------- ------- -------
   1.  C 1( 1s )   -0.0154 -0.0771  0.0912  0.0912  0.0912
   2.  C 1( 2s )   -0.0815 -0.4081  0.4902  0.4902  0.4902
   3.  C 1( 2px)    0.0282  0.1412 -0.3041  0.3676  0.1556
   4.  C 1( 2py)    0.1566 -0.0624 -0.1963 -0.2914  0.3907
   5.  C 1( 2pz)   -0.0624 -0.1438 -0.2993  0.0228 -0.2090
   6. Li 2( 1s )    0.0000  0.0000  0.0119  0.0119  0.0119
   7. Li 2( 2s )    0.0000  0.0000  0.1803  0.1803  0.1803
   8. Li 2( 2px)    0.0000  0.0000  0.0114  0.1696  0.1197
   9. Li 2( 2py)    1.0000  0.0000 -0.0829 -0.1053  0.0553
  10. Li 2( 2pz)    0.0000  1.0000 -0.2545 -0.1786 -0.2332
  11.  H 3( 1s )   -0.0829 -0.2545  1.0000  0.1823  0.1823
  12.  H 4( 1s )   -0.1053 -0.1786  0.1823  1.0000  0.1823
  13.  H 5( 1s )    0.0553 -0.2332  0.1823  0.1823  1.0000


 PNAO density matrix:

           NAO         1       2       3       4       5       6       7       8
      ------------ ------- ------- ------- ------- ------- ------- ------- -------
   1.  C 1( 1s )    2.0000  0.0000  0.0003 -0.0001 -0.0007  0.0068  0.1097  0.0684
   2.  C 1( 2s )    0.0000  1.8416  0.0130 -0.0058 -0.0288  0.0800  0.8247  0.3899
   3.  C 1( 2px)    0.0003  0.0130  1.5691 -0.0027 -0.0135 -0.0452 -0.3289  0.2624
   4.  C 1( 2py)   -0.0001 -0.0058 -0.0027  1.5642  0.0060  0.0200  0.1455  0.0654
   5.  C 1( 2pz)   -0.0007 -0.0288 -0.0135  0.0060  1.5929  0.1001  0.7288  0.3277
   6. Li 2( 1s )    0.0068  0.0800 -0.0452  0.0200  0.1001  1.9999  0.0000 -0.0028
   7. Li 2( 2s )    0.1097  0.8247 -0.3289  0.1455  0.7288  0.0000  0.8076  0.2866
   8. Li 2( 2px)    0.0684  0.3899  0.2624  0.0654  0.3277 -0.0028  0.2866  0.2021
   9. Li 2( 2py)   -0.0302 -0.1724  0.0654  0.3814 -0.1450  0.0012 -0.1268 -0.0418
  10. Li 2( 2pz)   -0.1515 -0.8639  0.3277 -0.1450 -0.3159  0.0061 -0.6351 -0.2092
  11.  H 3( 1s )    0.1823  1.1093 -0.8449 -0.5168 -0.7479  0.0228  0.2989 -0.0773
  12.  H 4( 1s )    0.1823  1.1093  0.9636 -0.7730  0.1194  0.0228  0.2989  0.3974
  13.  H 5( 1s )    0.1823  1.1093  0.3928  1.0635 -0.5048  0.0228  0.2989  0.2476

           NAO         9      10      11      12      13
      ------------ ------- ------- ------- ------- -------
   1.  C 1( 1s )   -0.0302 -0.1515  0.1823  0.1823  0.1823
   2.  C 1( 2s )   -0.1724 -0.8639  1.1093  1.1093  1.1093
   3.  C 1( 2px)    0.0654  0.3277 -0.8449  0.9636  0.3928
   4.  C 1( 2py)    0.3814 -0.1450 -0.5168 -0.7730  1.0635
   5.  C 1( 2pz)   -0.1450 -0.3159 -0.7479  0.1194 -0.5048
   6. Li 2( 1s )    0.0012  0.0061  0.0228  0.0228  0.0228
   7. Li 2( 2s )   -0.1268 -0.6351  0.2989  0.2989  0.2989
   8. Li 2( 2px)   -0.0418 -0.2092 -0.0773  0.3974  0.2476
   9. Li 2( 2py)    0.1262  0.0925 -0.1996 -0.2668  0.2153
  10. Li 2( 2pz)    0.0925  0.5713 -0.5164 -0.2888 -0.4526
  11.  H 3( 1s )   -0.1996 -0.5164  1.6576  0.3498  0.3498
  12.  H 4( 1s )   -0.2668 -0.2888  0.3498  1.6576  0.3498
  13.  H 5( 1s )    0.2153 -0.4526  0.3498  0.3498  1.6576


 NAOs in the AO basis:

           AO          1       2       3       4       5       6       7       8
      ------------ ------- ------- ------- ------- ------- ------- ------- -------
   1.  C 1 (s)      0.9839 -0.3488 -0.0053  0.0023  0.0116 -0.0017  0.0111  0.0219
   2.  C 1 (s)      0.0585  1.4568  0.0628 -0.0278 -0.1391 -0.0001 -0.1605 -0.1752
   3.  C 1 (px)     0.0000  0.0514  1.1562  0.0070  0.0351  0.0000  0.0654 -0.0466
   4.  C 1 (py)     0.0000 -0.0228  0.0070  1.1689 -0.0155  0.0000 -0.0289 -0.0396
   5.  C 1 (pz)     0.0000 -0.1140  0.0351 -0.0155  1.0942  0.0000 -0.1450 -0.1985
   6. Li 2 (s)     -0.0017 -0.0175  0.0138 -0.0061 -0.0307  0.9911 -0.2863 -0.0158
   7. Li 2 (s)     -0.0001 -0.0706  0.0354 -0.0156 -0.0784  0.0345  1.1108  0.1240
   8. Li 2 (px)     0.0000  0.0000  0.0000  0.0000  0.0000  0.0000  0.0000  1.0498
   9. Li 2 (py)     0.0000  0.0000  0.0000  0.0000  0.0000  0.0000  0.0000 -0.0150
  10. Li 2 (pz)     0.0000  0.0000  0.0000  0.0000  0.0000  0.0000  0.0000 -0.0754
  11.  H 3 (s)      0.0000 -0.3259  0.2349  0.1523  0.2331  0.0000 -0.0738 -0.0178
  12.  H 4 (s)      0.0000 -0.3259 -0.2853  0.2259 -0.0163  0.0000 -0.0738 -0.1024
  13.  H 5 (s)      0.0000 -0.3259 -0.1211 -0.3023  0.1632  0.0000 -0.0738 -0.0757

           AO          9      10      11      12      13
      ------------ ------- ------- ------- ------- -------
   1.  C 1 (s)     -0.0097 -0.0486  0.0031  0.0031  0.0031
   2.  C 1 (s)      0.0775  0.3882 -0.3797 -0.3797 -0.3797
   3.  C 1 (px)    -0.0396 -0.1985  0.2233 -0.2712 -0.1151
   4.  C 1 (py)    -0.1187  0.0878  0.1447  0.2147 -0.2874
   5.  C 1 (pz)     0.0878  0.3037  0.2216 -0.0155  0.1551
   6. Li 2 (s)      0.0070  0.0350  0.0025  0.0025  0.0025
   7. Li 2 (s)     -0.0549 -0.2748 -0.0373 -0.0373 -0.0373
   8. Li 2 (px)    -0.0150 -0.0754  0.0000  0.0000  0.0000
   9. Li 2 (py)     1.0225  0.0333  0.0000  0.0000  0.0000
  10. Li 2 (pz)     0.0333  1.1828  0.0000  0.0000  0.0000
  11.  H 3 (s)      0.0496  0.1621  1.2846 -0.0183 -0.0183
  12.  H 4 (s)      0.0615  0.1215 -0.0183  1.2846 -0.0183
  13.  H 5 (s)     -0.0244  0.1507 -0.0183 -0.0183  1.2846


 NAO density matrix:

           NAO         1       2       3       4       5       6       7       8
      ------------ ------- ------- ------- ------- ------- ------- ------- -------
   1.  C 1( 1s )    2.0000  0.0001  0.0005 -0.0002 -0.0011  0.0000  0.0032 -0.0010
   2.  C 1( 2s )    0.0001  1.1614 -0.0783  0.0346  0.1734  0.0032  0.3509  0.0578
   3.  C 1( 2px)    0.0005 -0.0783  1.0521 -0.0275 -0.1377 -0.0006 -0.2787  0.0086
   4.  C 1( 2py)   -0.0002  0.0346 -0.0275  1.0021  0.0609  0.0003  0.1233  0.0343
   5.  C 1( 2pz)   -0.0011  0.1734 -0.1377  0.0609  1.2950  0.0013  0.6176  0.1720
   6. Li 2( 1s )    0.0000  0.0032 -0.0006  0.0003  0.0013  1.9999 -0.0004 -0.0038
   7. Li 2( 2s )    0.0032  0.3509 -0.2787  0.1233  0.6176 -0.0004  0.4031  0.0869
   8. Li 2( 2px)   -0.0010  0.0578  0.0086  0.0343  0.1720 -0.0038  0.0869  0.0254
   9. Li 2( 2py)    0.0004 -0.0256  0.0343  0.0710 -0.0761  0.0017 -0.0384 -0.0079
  10. Li 2( 2pz)    0.0021 -0.1281  0.1720 -0.0761 -0.2950  0.0084 -0.1926 -0.0396
  11.  H 3( 1s )   -0.0004  0.5141 -0.6026 -0.3539 -0.4903 -0.0017 -0.0072 -0.0740
  12.  H 4( 1s )   -0.0004  0.5141  0.6575 -0.5325  0.1140 -0.0017 -0.0072  0.0357
  13.  H 5( 1s )   -0.0004  0.5141  0.2598  0.7472 -0.3209 -0.0017 -0.0072  0.0011

           NAO         9      10      11      12      13
      ------------ ------- ------- ------- ------- -------
   1.  C 1( 1s )    0.0004  0.0021 -0.0004 -0.0004 -0.0004
   2.  C 1( 2s )   -0.0256 -0.1281  0.5141  0.5141  0.5141
   3.  C 1( 2px)    0.0343  0.1720 -0.6026  0.6575  0.2598
   4.  C 1( 2py)    0.0710 -0.0761 -0.3539 -0.5325  0.7472
   5.  C 1( 2pz)   -0.0761 -0.2950 -0.4903  0.1140 -0.3209
   6. Li 2( 1s )    0.0017  0.0084 -0.0017 -0.0017 -0.0017
   7. Li 2( 2s )   -0.0384 -0.1926 -0.0072 -0.0072 -0.0072
   8. Li 2( 2px)   -0.0079 -0.0396 -0.0740  0.0357  0.0011
   9. Li 2( 2py)    0.0110  0.0175 -0.0213 -0.0368  0.0746
  10. Li 2( 2pz)    0.0175  0.0953  0.0050  0.0576  0.0197
  11.  H 3( 1s )   -0.0213  0.0050  0.9849 -0.0177 -0.0177
  12.  H 4( 1s )   -0.0368  0.0576 -0.0177  0.9849 -0.0177
  13.  H 5( 1s )    0.0746  0.0197 -0.0177 -0.0177  0.9849


 NATURAL BOND ORBITAL ANALYSIS:

 Initiate 2-center NBO search using THRESH = 1.900 and PRJTHR = 0.300

 Search of NAO DM block for core orbitals on atom:   1
      Eigenvector ( 1) has occupancy 1.99999
            1.0000 0.0000 0.0000 0.0000 0.0000
        1 eigenvector(s) stashed in permanent list

 Search of NAO DM block for core orbitals on atom:   2
      Eigenvector ( 1) has occupancy 1.99995
            1.0000 0.0000 0.0000 0.0000 0.0000
        1 eigenvector(s) stashed in permanent list

 Core orbitals projected from the NAO density matrix
       8.000 electrons remain (>1.900); search continues

 Search of NAO DM block for the following atom(s):   1
      Select eigenvectors with eigenvalue > 1.900
       1.485 1.046 0.990 0.990 0.000

 No NHOs identified in the 1-center search of the NAO density matrix
       8.000 electrons remain (>1.900); search continues

 Search of NAO DM block for the following atom(s):   1   2
      Select eigenvectors with eigenvalue > 1.900
       2.000 1.051 0.997 0.997 0.000 0.000 0.000 0.000 0.000 0.000
      Eigenvector ( 1) has occupancy 2.00000
            0.0000 0.4039-0.3078 0.1362 0.6821 0.0000 0.4489 0.0965
           -0.0427-0.2138
      1 hybrid on atom 1 stashed in prospective list
      1 hybrid on atom 2 stashed in prospective list

 Search of NAO DM block for the following atom(s):   1   3
      Select eigenvectors with eigenvalue > 1.900
       1.994 1.484 1.027 0.990 0.000 0.000
      Eigenvector ( 1) has occupancy 1.99449
            0.0000 0.3940-0.4260-0.2452-0.3319 0.7021
      1 hybrid on atom 1 stashed in prospective list
      1 hybrid on atom 3 stashed in prospective list

 Search of NAO DM block for the following atom(s):   1   4
      Select eigenvectors with eigenvalue > 1.900
       1.994 1.484 1.027 0.990 0.000 0.000
      Eigenvector ( 1) has occupancy 1.99449
            0.0000 0.3940 0.4547-0.3700 0.0904 0.7021
      1 hybrid on atom 1 stashed in prospective list
      1 hybrid on atom 4 stashed in prospective list

 Search of NAO DM block for the following atom(s):   1   5
      Select eigenvectors with eigenvalue > 1.900
       1.994 1.484 1.027 0.990 0.000 0.000
      Eigenvector ( 1) has occupancy 1.99449
            0.0000 0.3940 0.1767 0.5244-0.2135 0.7021
      1 hybrid on atom 1 stashed in prospective list
      1 hybrid on atom 5 stashed in prospective list

 Stash prospective hybrids having projection expectation value > 0.300
       0.994 0.994 0.994 0.994 0.994 0.994 0.993 0.993
      0 hybrids eliminated in 1 pass
      8 hybrids moved from prospective to permanent list

 NHOs of 2-center eigenvectors projected from the NAO density matrix
       0.017 electrons remain in the fully projected matrix

 Search of NHO DM block for the following atom(s):   1
      Select eigenvectors with eigenvalue > 1.900
       2.000 0.000 0.000 0.000 0.000
      Eigenvector ( 1) has occupancy 1.99999
            1.0000 0.0000 0.0000 0.0000 0.0000
           NBO accepted:    1. Label:CR ( 1)   1
        1 eigenvector(s) stashed in permanent list

 Search of NHO DM block for the following atom(s):   2
      Select eigenvectors with eigenvalue > 1.900
       2.000 0.008 0.008 0.002 0.000
      Eigenvector ( 1) has occupancy 1.99995
            1.0000 0.0000 0.0000 0.0000 0.0000
           NBO accepted:    2. Label:CR ( 1)   2
        1 eigenvector(s) stashed in permanent list

  1-center NBOs projected from the NHO density matrix
       8.000 electrons remain (>1.900); search continues

 Search of NHO DM block for the following atom(s):   1   2
      Select eigenvectors with eigenvalue > 1.900
       1.999 0.001 0.000 0.000 0.000 0.000 0.000 0.000 0.000 0.000
      Eigenvector ( 1) has occupancy 1.99917
            0.0000 0.0000 0.0000 0.0000 0.8609 0.0000 0.5088 0.0000
            0.0000 0.0000
      Occupancy is 1.999 after deleting minor hybrid components
            0.0000 0.0000 0.0000 0.0000 0.8609 0.0000 0.5088 0.0000
            0.0000 0.0000
           NBO accepted:    3. Label:BD ( 1)   1   2
      Occupancy is 0.001 for antibonding component
            0.0000 0.0000 0.0000 0.0000-0.5088 0.0000 0.8609 0.0000
            0.0000 0.0000
           NBO accepted:    4. Label:BD*( 1)   1   2
        2 eigenvector(s) stashed in permanent list

 Search of NHO DM block for the following atom(s):   1   3
      Select eigenvectors with eigenvalue > 1.900
       1.994 0.001 0.000 0.000 0.000 0.000
      Eigenvector ( 1) has occupancy 1.99385
            0.0000 0.7115 0.0000 0.0000 0.0000 0.7027
      Occupancy is 1.994 after deleting minor hybrid components
            0.0000 0.7115 0.0000 0.0000 0.0000 0.7027
           NBO accepted:    5. Label:BD ( 1)   1   3
      Occupancy is 0.001 for antibonding component
            0.0000-0.7027 0.0000 0.0000 0.0000 0.7115
           NBO accepted:    6. Label:BD*( 1)   1   3
        2 eigenvector(s) stashed in permanent list

 Search of NHO DM block for the following atom(s):   1   4
      Select eigenvectors with eigenvalue > 1.900
       1.994 0.001 0.000 0.000 0.000 0.000
      Eigenvector ( 1) has occupancy 1.99385
            0.0000 0.0000 0.7115 0.0000 0.0000 0.7027
      Occupancy is 1.994 after deleting minor hybrid components
            0.0000 0.0000 0.7115 0.0000 0.0000 0.7027
           NBO accepted:    7. Label:BD ( 1)   1   4
      Occupancy is 0.001 for antibonding component
            0.0000 0.0000-0.7027 0.0000 0.0000 0.7115
           NBO accepted:    8. Label:BD*( 1)   1   4
        2 eigenvector(s) stashed in permanent list

 Search of NHO DM block for the following atom(s):   1   5
      Select eigenvectors with eigenvalue > 1.900
       1.994 0.001 0.000 0.000 0.000 0.000
      Eigenvector ( 1) has occupancy 1.99385
            0.0000 0.0000 0.0000 0.7115 0.0000 0.7027
      Occupancy is 1.994 after deleting minor hybrid components
            0.0000 0.0000 0.0000 0.7115 0.0000 0.7027
           NBO accepted:    9. Label:BD ( 1)   1   5
      Occupancy is 0.001 for antibonding component
            0.0000 0.0000 0.0000-0.7027 0.0000 0.7115
           NBO accepted:   10. Label:BD*( 1)   1   5
        2 eigenvector(s) stashed in permanent list

  2-center NBOs projected from the NHO density matrix
       0.017 electrons remain in the fully projected matrix

                            Occupancies       Lewis Structure    Low   High
         Max    Occ     -------------------  -----------------   occ   occ
  Cycle  Ctr   Thresh    Lewis   non-Lewis     CR  BD  nC  LP    (L)   (NL)
 ============================================================================
    1     2     1.90    11.98066   0.01934      2   4   0   0     0      0
 ----------------------------------------------------------------------------

 Structure accepted: No low occupancy Lewis orbitals

 -------------------------------------------------------
   Core                      3.99994 ( 99.998% of   4)
   Valence Lewis             7.98073 ( 99.759% of   8)
  ==================      =============================
   Total Lewis              11.98066 ( 99.839% of  12)
  -----------------------------------------------------
   Valence non-Lewis         0.00252 (  0.021% of  12)
   Rydberg non-Lewis         0.01681 (  0.140% of  12)
  ==================      =============================
   Total non-Lewis           0.01934 (  0.161% of  12)
 -------------------------------------------------------


     (Occupancy)   Bond orbital / Coefficients / Hybrids
 ------------------ Lewis ------------------------------------------------------
   1. (1.99999) CR ( 1) C  1            s(100.00%)
                                         1.0000  0.0000  0.0000  0.0000  0.0000
   2. (1.99995) CR ( 1)Li  2            s(100.00%)
                                         1.0000  0.0000  0.0000  0.0000  0.0000
   3. (1.99917) BD ( 1) C  1-Li  2
               ( 74.11%)   0.8609* C  1 s( 19.21%)p 4.20( 80.79%)
                                         0.0000  0.4383 -0.3638  0.1609  0.8060
               ( 25.89%)   0.5088*Li  2 s( 77.99%)p 0.28( 22.01%)
                                         0.0000  0.8831  0.1899 -0.0840 -0.4207
   4. (1.99385) BD ( 1) C  1- H  3
               ( 50.62%)   0.7115* C  1 s( 26.93%)p 2.71( 73.07%)
                                         0.0000  0.5189 -0.6078 -0.3540 -0.4858
               ( 49.38%)   0.7027* H  3 s(100.00%)
                                         1.0000
   5. (1.99385) BD ( 1) C  1- H  4
               ( 50.62%)   0.7115* C  1 s( 26.93%)p 2.71( 73.07%)
                                         0.0000  0.5189  0.6571 -0.5332  0.1208
               ( 49.38%)   0.7027* H  4 s(100.00%)
                                         1.0000
   6. (1.99385) BD ( 1) C  1- H  5
               ( 50.62%)   0.7115* C  1 s( 26.93%)p 2.71( 73.07%)
                                         0.0000  0.5189  0.2579  0.7513 -0.3158
               ( 49.38%)   0.7027* H  5 s(100.00%)
                                         1.0000
 ---------------- non-Lewis ----------------------------------------------------
   7. (0.00063) BD*( 1) C  1-Li  2
               ( 25.89%)   0.5088* C  1 s( 19.21%)p 4.20( 80.79%)
                                         0.0000 -0.4383  0.3638 -0.1609 -0.8060
               ( 74.11%)  -0.8609*Li  2 s( 77.99%)p 0.28( 22.01%)
                                         0.0000 -0.8831 -0.1899  0.0840  0.4207
   8. (0.00063) BD*( 1) C  1- H  3
               ( 49.38%)   0.7027* C  1 s( 26.93%)p 2.71( 73.07%)
                                         0.0000 -0.5189  0.6078  0.3540  0.4858
               ( 50.62%)  -0.7115* H  3 s(100.00%)
                                        -1.0000
   9. (0.00063) BD*( 1) C  1- H  4
               ( 49.38%)   0.7027* C  1 s( 26.93%)p 2.71( 73.07%)
                                         0.0000 -0.5189 -0.6571  0.5332 -0.1208
               ( 50.62%)  -0.7115* H  4 s(100.00%)
                                        -1.0000
  10. (0.00063) BD*( 1) C  1- H  5
               ( 49.38%)   0.7027* C  1 s( 26.93%)p 2.71( 73.07%)
                                         0.0000 -0.5189 -0.2579 -0.7513  0.3158
               ( 50.62%)  -0.7115* H  5 s(100.00%)
                                        -1.0000
  11. (0.00750) RY ( 1)Li  2            s(  0.00%)p 1.00(100.00%)
                                         0.0000  0.0000 -0.0370  0.9766 -0.2117
  12. (0.00750) RY ( 2)Li  2            s(  0.00%)p 1.00(100.00%)
                                         0.0000  0.0000  0.9137  0.1189  0.3886
  13. (0.00180) RY ( 3)Li  2            s( 22.01%)p 3.54( 77.99%)
                                         0.0000  0.4691 -0.3574  0.1581  0.7920


 NHO DIRECTIONALITY AND BOND BENDING (deviation from line of nuclear centers at
                                      the position of maximum hybrid amplitude)

         [Thresholds for printing:  angular deviation  >  1.0 degree]
                                    p- or d-character  > 25.0%
                                    orbital occupancy  >  0.10e

                        Line of Centers        Hybrid 1             Hybrid 2
                        ---------------  -------------------  ------------------
           NBO            Theta   Phi    Theta   Phi    Dev   Theta   Phi    Dev
 ===============================================================================
   4. BD ( 1) C  1- H  3  129.6  212.8   125.9  210.9   4.0     --     --    --
   5. BD ( 1) C  1- H  4   87.2  321.6    83.3  321.1   4.0     --     --    --
   6. BD ( 1) C  1- H  5  116.4   68.3   112.9   70.4   4.0     --     --    --


 SECOND ORDER PERTURBATION THEORY ANALYSIS OF FOCK MATRIX IN NBO BASIS

     Threshold for printing:   0.50 kcal/mol
                                                          E(2) E(NL)-E(L) F(L,NL)
      Donor (L) NBO              Acceptor (NL) NBO      kcal/mol   a.u.    a.u.
 ===============================================================================

 within unit  1
    4. BD ( 1) C  1- H  3      12. RY ( 2)Li  2            1.55    0.73   0.030
    4. BD ( 1) C  1- H  3      13. RY ( 3)Li  2            0.53    0.76   0.018
    5. BD ( 1) C  1- H  4      11. RY ( 1)Li  2            0.82    0.73   0.022
    5. BD ( 1) C  1- H  4      12. RY ( 2)Li  2            0.86    0.73   0.022
    5. BD ( 1) C  1- H  4      13. RY ( 3)Li  2            0.53    0.76   0.018
    6. BD ( 1) C  1- H  5      11. RY ( 1)Li  2            1.57    0.73   0.030
    6. BD ( 1) C  1- H  5      13. RY ( 3)Li  2            0.53    0.76   0.018


 NATURAL BOND ORBITALS (Summary):

                                                     Principal Delocalizations
           NBO                 Occupancy    Energy   (geminal,vicinal,remote)
 ===============================================================================
 Molecular unit  1  (CH3Li)
 ------ Lewis --------------------------------------
    1. CR ( 1) C  1             1.99999   -10.90739
    2. CR ( 1)Li  2             1.99995    -2.33268
    3. BD ( 1) C  1-Li  2       1.99917    -0.26804
    4. BD ( 1) C  1- H  3       1.99385    -0.54739  12(v),13(v)
    5. BD ( 1) C  1- H  4       1.99385    -0.54739  12(v),11(v),13(v)
    6. BD ( 1) C  1- H  5       1.99385    -0.54739  11(v),13(v)
 ------ non-Lewis ----------------------------------
    7. BD*( 1) C  1-Li  2       0.00063     0.36022
    8. BD*( 1) C  1- H  3       0.00063     0.81140
    9. BD*( 1) C  1- H  4       0.00063     0.81140
   10. BD*( 1) C  1- H  5       0.00063     0.81140
   11. RY ( 1)Li  2             0.00750     0.18467
   12. RY ( 2)Li  2             0.00750     0.18467
   13. RY ( 3)Li  2             0.00180     0.21360
          -------------------------------
                 Total Lewis   11.98066  ( 99.8389%)
           Valence non-Lewis    0.00252  (  0.0210%)
           Rydberg non-Lewis    0.01681  (  0.1401%)
          -------------------------------
               Total unit  1   12.00000  (100.0000%)
              Charge unit  1    0.00000

 $CHOOSE
   BOND S 1 2 S 1 3 S 1 4 S 1 5 END
 $END

 NBO analysis completed in 0.13 CPU seconds (0 wall seconds)
 Maximum scratch memory used by NBO was 222354 words (1.70 MB)
 Maximum scratch memory used by G16NBO was 8427 words (0.06 MB)

 Opening RunExU unformatted file "/cluster/work/users/beto93/CH3Li/Gau-1555222.EUF"
 Read unf file /cluster/work/users/beto93/CH3Li/Gau-1555222.EUF:
 Label Gaussian matrix elements                                         IVers= 2 NLab= 2 Version=ES64L-G16RevC.01
 Title NBO-CH3Li                                                       
 NAtoms=     5 NBasis=    13 NBsUse=    13 ICharg=     0 Multip=     1 NE=    12 Len12L=8 Len4L=8 IOpCl= 0 ICGU=111
 GAUSSIAN SCALARS                    NI= 1 NR= 1 NTot=       1 LenBuf=    2 NRI=1 N=    1000
 NPA CHARGES                         NI= 0 NR= 1 NTot=       5 LenBuf= 4000 NRI=1 N=       5
 Recovered energy= -46.4215876250     dipole=     -0.679322900129      0.300483293376      1.505275423949
 Calling FoFJK, ICntrl=      2127 FMM=F ISym2X=0 I1Cent= 0 IOpClX= 0 NMat=1 NMatS=1 NMatT=0.
 ***** Axes restored to original set *****
 -------------------------------------------------------------------
 Center     Atomic                   Forces (Hartrees/Bohr)
 Number     Number              X              Y              Z
 -------------------------------------------------------------------
      1        6           0.000104967   -0.000181046    0.000074679
      2        3           0.000047256   -0.000081821    0.000033407
      3        1          -0.000012370    0.000020956   -0.000254133
      4        1          -0.000243591    0.000020778    0.000072902
      5        1           0.000103737    0.000221133    0.000073145
 -------------------------------------------------------------------
 Cartesian Forces:  Max     0.000254133 RMS     0.000130304

 GradGradGradGradGradGradGradGradGradGradGradGradGradGradGradGradGradGrad
 Berny optimization.
 FormGI is forming the generalized inverse of G from B-inverse, IUseBI=4.
 Internal  Forces:  Max     0.000255082 RMS     0.000121093
 Search for a local minimum.
 Step number   1 out of a maximum of   24
 All quantities printed in internal units (Hartrees-Bohrs-Radians)
 Mixed Optimization -- En-DIIS/RFO-DIIS
 Second derivative matrix not updated -- first step.
 The second derivative matrix:
                          R1        R2        R3        R4        A1
           R1           0.08698
           R2           0.00000   0.35634
           R3           0.00000   0.00000   0.35634
           R4           0.00000   0.00000   0.00000   0.35634
           A1           0.00000   0.00000   0.00000   0.00000   0.16000
           A2           0.00000   0.00000   0.00000   0.00000   0.00000
           A3           0.00000   0.00000   0.00000   0.00000   0.00000
           A4           0.00000   0.00000   0.00000   0.00000   0.00000
           A5           0.00000   0.00000   0.00000   0.00000   0.00000
           A6           0.00000   0.00000   0.00000   0.00000   0.00000
           D1           0.00000   0.00000   0.00000   0.00000   0.00000
           D2           0.00000   0.00000   0.00000   0.00000   0.00000
           D3           0.00000   0.00000   0.00000   0.00000   0.00000
           D4           0.00000   0.00000   0.00000   0.00000   0.00000
                          A2        A3        A4        A5        A6
           A2           0.16000
           A3           0.00000   0.16000
           A4           0.00000   0.00000   0.16000
           A5           0.00000   0.00000   0.00000   0.16000
           A6           0.00000   0.00000   0.00000   0.00000   0.16000
           D1           0.00000   0.00000   0.00000   0.00000   0.00000
           D2           0.00000   0.00000   0.00000   0.00000   0.00000
           D3           0.00000   0.00000   0.00000   0.00000   0.00000
           D4           0.00000   0.00000   0.00000   0.00000   0.00000
                          D1        D2        D3        D4
           D1           0.00327
           D2           0.00000   0.00327
           D3           0.00000   0.00000   0.00327
           D4           0.00000   0.00000   0.00000   0.00327
 ITU=  0
     Eigenvalues ---    0.05024   0.06388   0.08202   0.08698   0.16000
     Eigenvalues ---    0.16000   0.35634   0.35634   0.35634
 RFO step:  Lambda=-6.66203440D-07 EMin= 5.02405555D-02
 Linear search not attempted -- first point.
 Iteration  1 RMS(Cart)=  0.00045548 RMS(Int)=  0.00000002
 Iteration  2 RMS(Cart)=  0.00000001 RMS(Int)=  0.00000000
 Variable       Old X    -DE/DX   Delta X   Delta X   Delta X     New X
                                 (Linear)    (Quad)   (Total)
    R1        3.79646  -0.00010   0.00000  -0.00115  -0.00115   3.79531
    R2        2.04657  -0.00026   0.00000  -0.00072  -0.00072   2.04586
    R3        2.04657  -0.00025   0.00000  -0.00072  -0.00072   2.04586
    R4        2.04657  -0.00025   0.00000  -0.00071  -0.00071   2.04586
    A1        1.96524  -0.00000   0.00000  -0.00006  -0.00006   1.96518
    A2        1.96524  -0.00000   0.00000  -0.00006  -0.00006   1.96518
    A3        1.96524  -0.00001   0.00000  -0.00006  -0.00006   1.96518
    A4        1.85300   0.00000   0.00000   0.00007   0.00007   1.85307
    A5        1.85300   0.00001   0.00000   0.00006   0.00006   1.85307
    A6        1.85301   0.00001   0.00000   0.00006   0.00006   1.85307
    D1        2.15807  -0.00000   0.00000  -0.00006  -0.00006   2.15801
    D2       -2.15807   0.00000   0.00000   0.00006   0.00006  -2.15801
    D3        2.15808  -0.00000   0.00000  -0.00007  -0.00007   2.15801
    D4       -1.96704  -0.00001   0.00000  -0.00013  -0.00013  -1.96717
         Item               Value     Threshold  Converged?
 Maximum Force            0.000255     0.000002     NO 
 RMS     Force            0.000121     0.000001     NO 
 Maximum Displacement     0.000941     0.000006     NO 
 RMS     Displacement     0.000455     0.000004     NO 
 Predicted change in Energy=-3.331019D-07
 GradGradGradGradGradGradGradGradGradGradGradGradGradGradGradGradGradGrad

                          Input orientation:                          
 ---------------------------------------------------------------------
 Center     Atomic      Atomic             Coordinates (Angstroms)
 Number     Number       Type             X           Y           Z
 ---------------------------------------------------------------------
      1          6           0        0.000000    0.000001    0.000001
      2          3           0       -0.946765    1.639844   -0.669464
      3          1           0        0.029513   -0.051119    1.081012
      4          1           0        1.029026   -0.051119   -0.332509
      5          1           0       -0.470241   -0.916721   -0.332512
 ---------------------------------------------------------------------
                    Distance matrix (angstroms):
                    1          2          3          4          5
     1  C    0.000000
     2  Li   2.008391   0.000000
     3  H    1.082622   2.622335   0.000000
     4  H    1.082622   2.622335   1.731204   0.000000
     5  H    1.082622   2.622334   1.731205   1.731204   0.000000
 Stoichiometry    CH3Li
 Framework group  C1[X(CH3Li)]
 Deg. of freedom     9
 Full point group                 C1      NOp   1
 Largest Abelian subgroup         C1      NOp   1
 Largest concise Abelian subgroup C1      NOp   1
                         Standard orientation:                         
 ---------------------------------------------------------------------
 Center     Atomic      Atomic             Coordinates (Angstroms)
 Number     Number       Type             X           Y           Z
 ---------------------------------------------------------------------
      1          6           0        0.398101   -0.000000   -0.000000
      2          3           0       -1.610290   -0.000000    0.000000
      3          1           0        0.814090   -0.729537   -0.683227
      4          1           0        0.814090   -0.226923    0.973411
      5          1           0        0.814088    0.956460   -0.290184
 ---------------------------------------------------------------------
 Rotational constants (GHZ):         167.3152277          22.1066296          22.1066284
 Standard basis: STO-3G (5D, 7F)
 There are    13 symmetry adapted cartesian basis functions of A   symmetry.
 There are    13 symmetry adapted basis functions of A   symmetry.
    13 basis functions,    39 primitive gaussians,    13 cartesian basis functions
     6 alpha electrons        6 beta electrons
       nuclear repulsion energy        16.2741370305 Hartrees.
 NAtoms=    5 NActive=    5 NUniq=    5 SFac= 1.00D+00 NAtFMM=   60 NAOKFM=F Big=F
 Integral buffers will be    131072 words long.
 Raffenetti 1 integral format.
 Two-electron integral symmetry is turned on.
 One-electron integrals computed using PRISM.
 NBasis=    13 RedAO= T EigKep=  2.35D-01  NBF=    13
 NBsUse=    13 1.00D-06 EigRej= -1.00D+00 NBFU=    13
 Initial guess from the checkpoint file:  "CH3Li.chk"
 B after Tr=    -0.000000   -0.000000    0.000000
         Rot=    0.828191    0.128260    0.512369   -0.187423 Ang=  68.17 deg.
 Keep R1 ints in memory in canonical form, NReq=809351.
 Requested convergence on RMS density matrix=1.00D-08 within 128 cycles.
 Requested convergence on MAX density matrix=1.00D-06.
 Requested convergence on             energy=1.00D-06.
 No special actions if energy rises.
 SCF Done:  E(RHF) =  -46.4215878785     A.U. after    7 cycles
            NFock=  7  Conv=0.77D-08     -V/T= 2.0017
 Calling FoFJK, ICntrl=      2127 FMM=F ISym2X=0 I1Cent= 0 IOpClX= 0 NMat=1 NMatS=1 NMatT=0.
 ***** Axes restored to original set *****
 -------------------------------------------------------------------
 Center     Atomic                   Forces (Hartrees/Bohr)
 Number     Number              X              Y              Z
 -------------------------------------------------------------------
      1        6          -0.000028112    0.000048857   -0.000019946
      2        3          -0.000002561    0.000004472   -0.000001808
      3        1          -0.000001404    0.000002258    0.000072719
      4        1           0.000068112    0.000002302   -0.000025541
      5        1          -0.000036034   -0.000057888   -0.000025424
 -------------------------------------------------------------------
 Cartesian Forces:  Max     0.000072719 RMS     0.000036049

 GradGradGradGradGradGradGradGradGradGradGradGradGradGradGradGradGradGrad
 Berny optimization.
 Using GEDIIS/GDIIS optimizer.
 FormGI is forming the generalized inverse of G from B-inverse, IUseBI=4.
 Internal  Forces:  Max     0.000072478 RMS     0.000033709
 Search for a local minimum.
 Step number   2 out of a maximum of   24
 All quantities printed in internal units (Hartrees-Bohrs-Radians)
 Mixed Optimization -- En-DIIS/RFO-DIIS
 Swapping is turned off.
 Update second derivatives using D2CorX and points    1    2
 DE= -2.53D-07 DEPred=-3.33D-07 R= 7.61D-01
 Trust test= 7.61D-01 RLast= 1.71D-03 DXMaxT set to 3.00D-01
 The second derivative matrix:
                          R1        R2        R3        R4        A1
           R1           0.08543
           R2           0.00355   0.38861
           R3           0.00356   0.03227   0.38861
           R4           0.00356   0.03227   0.03227   0.38861
           A1          -0.00124  -0.00308  -0.00308  -0.00308   0.15988
           A2          -0.00122  -0.00301  -0.00301  -0.00300  -0.00012
           A3          -0.00107  -0.00253  -0.00252  -0.00252  -0.00012
           A4           0.00147   0.00369   0.00369   0.00369   0.00014
           A5           0.00124   0.00297   0.00297   0.00297   0.00014
           A6           0.00119   0.00288   0.00288   0.00288   0.00013
           D1           0.00016   0.00052   0.00052   0.00052  -0.00000
           D2          -0.00013  -0.00041  -0.00041  -0.00041   0.00000
           D3           0.00019   0.00062   0.00062   0.00062  -0.00000
           D4           0.00032   0.00103   0.00103   0.00103  -0.00000
                          A2        A3        A4        A5        A6
           A2           0.15987
           A3          -0.00012   0.15988
           A4           0.00014   0.00014   0.15983
           A5           0.00014   0.00014  -0.00016   0.15985
           A6           0.00013   0.00013  -0.00015  -0.00015   0.15986
           D1          -0.00000   0.00000   0.00000  -0.00000  -0.00000
           D2           0.00000  -0.00000  -0.00000   0.00000   0.00000
           D3          -0.00000   0.00000   0.00000  -0.00000  -0.00000
           D4          -0.00000   0.00000   0.00000  -0.00000  -0.00000
                          D1        D2        D3        D4
           D1           0.00328
           D2          -0.00000   0.00328
           D3           0.00000  -0.00000   0.00328
           D4           0.00001  -0.00000   0.00001   0.00328
 ITU=  0  0
     Eigenvalues ---    0.05023   0.06349   0.08192   0.08546   0.15983
     Eigenvalues ---    0.16000   0.35634   0.35634   0.45340
 En-DIIS/RFO-DIIS/Sim-DIIS IScMMF=       -3 using points:     2    1
 RFO step:  Lambda=-3.59342524D-08.
 DidBck=F Rises=F RFO-DIIS coefs:    0.87581    0.12419
 Iteration  1 RMS(Cart)=  0.00007951 RMS(Int)=  0.00000000
 Iteration  2 RMS(Cart)=  0.00000000 RMS(Int)=  0.00000000
 Variable       Old X    -DE/DX   Delta X   Delta X   Delta X     New X
                                 (Linear)    (Quad)   (Total)
    R1        3.79531   0.00001   0.00014  -0.00010   0.00004   3.79535
    R2        2.04586   0.00007   0.00009   0.00007   0.00016   2.04602
    R3        2.04586   0.00007   0.00009   0.00007   0.00016   2.04602
    R4        2.04586   0.00007   0.00009   0.00007   0.00016   2.04602
    A1        1.96518  -0.00000   0.00001  -0.00004  -0.00003   1.96515
    A2        1.96518  -0.00000   0.00001  -0.00004  -0.00003   1.96515
    A3        1.96518  -0.00000   0.00001  -0.00004  -0.00003   1.96515
    A4        1.85307   0.00000  -0.00001   0.00004   0.00003   1.85310
    A5        1.85307   0.00000  -0.00001   0.00004   0.00003   1.85310
    A6        1.85307   0.00000  -0.00001   0.00004   0.00003   1.85310
    D1        2.15801  -0.00000   0.00001  -0.00004  -0.00003   2.15798
    D2       -2.15801   0.00000  -0.00001   0.00004   0.00003  -2.15798
    D3        2.15801  -0.00000   0.00001  -0.00004  -0.00003   2.15798
    D4       -1.96717  -0.00001   0.00002  -0.00008  -0.00007  -1.96723
         Item               Value     Threshold  Converged?
 Maximum Force            0.000072     0.000002     NO 
 RMS     Force            0.000034     0.000001     NO 
 Maximum Displacement     0.000164     0.000006     NO 
 RMS     Displacement     0.000080     0.000004     NO 
 Predicted change in Energy=-1.796715D-08
 GradGradGradGradGradGradGradGradGradGradGradGradGradGradGradGradGradGrad

                          Input orientation:                          
 ---------------------------------------------------------------------
 Center     Atomic      Atomic             Coordinates (Angstroms)
 Number     Number       Type             X           Y           Z
 ---------------------------------------------------------------------
      1          6           0        0.000002   -0.000002    0.000002
      2          3           0       -0.946774    1.639860   -0.669470
      3          1           0        0.029501   -0.051098    1.081099
      4          1           0        1.029103   -0.051097   -0.332550
      5          1           0       -0.470299   -0.916777   -0.332552
 ---------------------------------------------------------------------
                    Distance matrix (angstroms):
                    1          2          3          4          5
     1  C    0.000000
     2  Li   2.008413   0.000000
     3  H    1.082705   2.622392   0.000000
     4  H    1.082705   2.622392   1.731360   0.000000
     5  H    1.082705   2.622391   1.731360   1.731360   0.000000
 Stoichiometry    CH3Li
 Framework group  C1[X(CH3Li)]
 Deg. of freedom     9
 Full point group                 C1      NOp   1
 Largest Abelian subgroup         C1      NOp   1
 Largest concise Abelian subgroup C1      NOp   1
                         Standard orientation:                         
 ---------------------------------------------------------------------
 Center     Atomic      Atomic             Coordinates (Angstroms)
 Number     Number       Type             X           Y           Z
 ---------------------------------------------------------------------
      1          6           0        0.398106    0.000000   -0.000000
      2          3           0       -1.610307   -0.000000   -0.000000
      3          1           0        0.814097   -0.482333   -0.875532
      4          1           0        0.814097   -0.517066    0.855479
      5          1           0        0.814095    0.999401    0.020053
 ---------------------------------------------------------------------
 Rotational constants (GHZ):         167.2850805          22.1059267          22.1059255
[...]
   6. Li 2 (s)     -0.0017 -0.0175  0.0343  0.0000  0.0000  0.9911 -0.2863 -0.0390
   7. Li 2 (s)     -0.0001 -0.0706  0.0874  0.0000  0.0000  0.0345  1.1109  0.3068
   8. Li 2 (px)     0.0000  0.0000  0.0000  0.0000  0.0000  0.0000  0.0000  1.2237
   9. Li 2 (py)     0.0000  0.0000  0.0000  0.0000  0.0000  0.0000  0.0000  0.0000
  10. Li 2 (pz)     0.0000  0.0000  0.0000  0.0000  0.0000  0.0000  0.0000  0.0000
  11.  H 3 (s)      0.0000 -0.3261 -0.1413  0.2945 -0.1617  0.0000 -0.0739 -0.1616
  12.  H 4 (s)      0.0000 -0.3261 -0.1413 -0.2873 -0.1742  0.0000 -0.0739 -0.1616
  13.  H 5 (s)      0.0000 -0.3261 -0.1413 -0.0073  0.3359  0.0000 -0.0739 -0.1616

           AO          9      10      11      12      13
      ------------ ------- ------- ------- ------- -------
   1.  C 1 (s)      0.0000  0.0000  0.0031  0.0031  0.0031
   2.  C 1 (s)      0.0000  0.0000 -0.3799 -0.3799 -0.3799
   3.  C 1 (px)     0.0000  0.0000 -0.1343 -0.1343 -0.1343
   4.  C 1 (py)    -0.1363  0.0000  0.2799 -0.2730 -0.0069
   5.  C 1 (pz)     0.0000 -0.1363 -0.1537 -0.1656  0.3193
   6. Li 2 (s)      0.0000  0.0000  0.0025  0.0025  0.0025
   7. Li 2 (s)      0.0000  0.0000 -0.0373 -0.0373 -0.0373
   8. Li 2 (px)     0.0000  0.0000  0.0000  0.0000  0.0000
   9. Li 2 (py)     1.0158  0.0000  0.0000  0.0000  0.0000
  10. Li 2 (pz)     0.0000  1.0158  0.0000  0.0000  0.0000
  11.  H 3 (s)      0.0479 -0.0263  1.2849 -0.0183 -0.0183
  12.  H 4 (s)     -0.0467 -0.0283 -0.0183  1.2849 -0.0183
  13.  H 5 (s)     -0.0012  0.0547 -0.0183 -0.0183  1.2849


 NAO density matrix:

           NAO         1       2       3       4       5       6       7       8
      ------------ ------- ------- ------- ------- ------- ------- ------- -------
   1.  C 1( 1s )    2.0000  0.0001  0.0012  0.0000  0.0000  0.0000  0.0032 -0.0024
   2.  C 1( 2s )    0.0001  1.1612 -0.1934  0.0000  0.0000  0.0032  0.3508  0.1428
   3.  C 1( 2px)    0.0012 -0.1934  1.3696  0.0000  0.0000 -0.0014 -0.6887 -0.3878
   4.  C 1( 2py)    0.0000  0.0000  0.0000  0.9901  0.0000  0.0000  0.0000  0.0000
   5.  C 1( 2pz)    0.0000  0.0000  0.0000  0.0000  0.9901  0.0000  0.0000  0.0000
   6. Li 2( 1s )    0.0000  0.0032 -0.0014  0.0000  0.0000  1.9999 -0.0004 -0.0094
   7. Li 2( 2s )    0.0032  0.3508 -0.6887  0.0000  0.0000 -0.0004  0.4030  0.2147
   8. Li 2( 2px)   -0.0024  0.1428 -0.3878  0.0000  0.0000 -0.0094  0.2147  0.1167
   9. Li 2( 2py)    0.0000  0.0000  0.0000  0.0862  0.0000  0.0000  0.0000  0.0000
  10. Li 2( 2pz)    0.0000  0.0000  0.0000  0.0000  0.0862  0.0000  0.0000  0.0000
  11.  H 3( 1s )   -0.0004  0.5142  0.2591 -0.7131  0.3914 -0.0017 -0.0071 -0.0306
  12.  H 4( 1s )   -0.0004  0.5142  0.2591  0.6955  0.4218 -0.0017 -0.0071 -0.0306
  13.  H 5( 1s )   -0.0004  0.5142  0.2591  0.0176 -0.8132 -0.0017 -0.0071 -0.0306

           NAO         9      10      11      12      13
      ------------ ------- ------- ------- ------- -------
   1.  C 1( 1s )    0.0000  0.0000 -0.0004 -0.0004 -0.0004
   2.  C 1( 2s )    0.0000  0.0000  0.5142  0.5142  0.5142
   3.  C 1( 2px)    0.0000  0.0000  0.2591  0.2591  0.2591
   4.  C 1( 2py)    0.0862  0.0000 -0.7131  0.6955  0.0176
   5.  C 1( 2pz)    0.0000  0.0862  0.3914  0.4218 -0.8132
   6. Li 2( 1s )    0.0000  0.0000 -0.0017 -0.0017 -0.0017
   7. Li 2( 2s )    0.0000  0.0000 -0.0071 -0.0071 -0.0071
   8. Li 2( 2px)    0.0000  0.0000 -0.0306 -0.0306 -0.0306
   9. Li 2( 2py)    0.0075  0.0000 -0.0621  0.0605  0.0015
  10. Li 2( 2pz)    0.0000  0.0075  0.0341  0.0367 -0.0708
  11.  H 3( 1s )   -0.0621  0.0341  0.9848 -0.0176 -0.0176
  12.  H 4( 1s )    0.0605  0.0367 -0.0176  0.9848 -0.0176
  13.  H 5( 1s )    0.0015 -0.0708 -0.0176 -0.0176  0.9848


 NATURAL BOND ORBITAL ANALYSIS:

 Initiate 2-center NBO search using THRESH = 1.900 and PRJTHR = 0.300

 Search of NAO DM block for core orbitals on atom:   1
      Eigenvector ( 1) has occupancy 1.99999
            1.0000 0.0000 0.0000 0.0000 0.0000
        1 eigenvector(s) stashed in permanent list

 Search of NAO DM block for core orbitals on atom:   2
      Eigenvector ( 1) has occupancy 1.99995
            1.0000 0.0000 0.0000 0.0000 0.0000
        1 eigenvector(s) stashed in permanent list

 Core orbitals projected from the NAO density matrix
       8.000 electrons remain (>1.900); search continues

 Search of NAO DM block for the following atom(s):   1
      Select eigenvectors with eigenvalue > 1.900
       1.485 1.046 0.990 0.990 0.000

 No NHOs identified in the 1-center search of the NAO density matrix
       8.000 electrons remain (>1.900); search continues

 Search of NAO DM block for the following atom(s):   1   2
      Select eigenvectors with eigenvalue > 1.900
       2.000 1.050 0.998 0.998 0.000 0.000 0.000 0.000 0.000 0.000
      Eigenvector ( 1) has occupancy 2.00000
            0.0000-0.4037 0.7608 0.0000 0.0000 0.0000-0.4488-0.2384
            0.0000 0.0000
      1 hybrid on atom 1 stashed in prospective list
      1 hybrid on atom 2 stashed in prospective list

 Search of NAO DM block for the following atom(s):   1   3
      Select eigenvectors with eigenvalue > 1.900
       1.994 1.484 1.027 0.990 0.000 0.000
      Eigenvector ( 1) has occupancy 1.99449
            0.0000 0.3940 0.1691-0.4984 0.2736 0.7021
      1 hybrid on atom 1 stashed in prospective list
      1 hybrid on atom 3 stashed in prospective list

 Search of NAO DM block for the following atom(s):   1   4
      Select eigenvectors with eigenvalue > 1.900
       1.994 1.484 1.027 0.990 0.000 0.000
      Eigenvector ( 1) has occupancy 1.99449
            0.0000 0.3940 0.1691 0.4861 0.2949 0.7021
      1 hybrid on atom 1 stashed in prospective list
      1 hybrid on atom 4 stashed in prospective list

 Search of NAO DM block for the following atom(s):   1   5
      Select eigenvectors with eigenvalue > 1.900
       1.994 1.484 1.027 0.990 0.000 0.000
      Eigenvector ( 1) has occupancy 1.99449
            0.0000 0.3940 0.1691 0.0123-0.5684 0.7021
      1 hybrid on atom 1 stashed in prospective list
      1 hybrid on atom 5 stashed in prospective list

 Stash prospective hybrids having projection expectation value > 0.300
       0.994 0.994 0.994 0.994 0.994 0.994 0.993 0.993
      0 hybrids eliminated in 1 pass
      8 hybrids moved from prospective to permanent list

 NHOs of 2-center eigenvectors projected from the NAO density matrix
       0.017 electrons remain in the fully projected matrix

 Search of NHO DM block for the following atom(s):   1
      Select eigenvectors with eigenvalue > 1.900
       2.000 0.000 0.000 0.000 0.000
      Eigenvector ( 1) has occupancy 1.99999
            1.0000 0.0000 0.0000 0.0000 0.0000
           NBO accepted:    1. Label:CR ( 1)   1
        1 eigenvector(s) stashed in permanent list

 Search of NHO DM block for the following atom(s):   2
      Select eigenvectors with eigenvalue > 1.900
       2.000 0.008 0.008 0.002 0.000
      Eigenvector ( 1) has occupancy 1.99995
            1.0000 0.0000 0.0000 0.0000 0.0000
           NBO accepted:    2. Label:CR ( 1)   2
        1 eigenvector(s) stashed in permanent list

  1-center NBOs projected from the NHO density matrix
       8.000 electrons remain (>1.900); search continues

 Search of NHO DM block for the following atom(s):   1   2
      Select eigenvectors with eigenvalue > 1.900
       1.999 0.001 0.000 0.000 0.000 0.000 0.000 0.000 0.000 0.000
      Eigenvector ( 1) has occupancy 1.99917
            0.0000 0.0000 0.0000 0.0000 0.8609 0.0000 0.5087 0.0000
            0.0000 0.0000
      Occupancy is 1.999 after deleting minor hybrid components
            0.0000 0.0000 0.0000 0.0000 0.8609 0.0000 0.5087 0.0000
            0.0000 0.0000
           NBO accepted:    3. Label:BD ( 1)   1   2
      Occupancy is 0.001 for antibonding component
            0.0000 0.0000 0.0000 0.0000-0.5087 0.0000 0.8609 0.0000
            0.0000 0.0000
           NBO accepted:    4. Label:BD*( 1)   1   2
        2 eigenvector(s) stashed in permanent list

 Search of NHO DM block for the following atom(s):   1   3
      Select eigenvectors with eigenvalue > 1.900
       1.994 0.001 0.000 0.000 0.000 0.000
      Eigenvector ( 1) has occupancy 1.99386
            0.0000 0.7115 0.0000 0.0000 0.0000 0.7027
      Occupancy is 1.994 after deleting minor hybrid components
            0.0000 0.7115 0.0000 0.0000 0.0000 0.7027
           NBO accepted:    5. Label:BD ( 1)   1   3
      Occupancy is 0.001 for antibonding component
            0.0000-0.7027 0.0000 0.0000 0.0000 0.7115
           NBO accepted:    6. Label:BD*( 1)   1   3
        2 eigenvector(s) stashed in permanent list

 Search of NHO DM block for the following atom(s):   1   4
      Select eigenvectors with eigenvalue > 1.900
       1.994 0.001 0.000 0.000 0.000 0.000
      Eigenvector ( 1) has occupancy 1.99386
            0.0000 0.0000 0.7115 0.0000 0.0000 0.7027
      Occupancy is 1.994 after deleting minor hybrid components
            0.0000 0.0000 0.7115 0.0000 0.0000 0.7027
           NBO accepted:    7. Label:BD ( 1)   1   4
      Occupancy is 0.001 for antibonding component
            0.0000 0.0000-0.7027 0.0000 0.0000 0.7115
           NBO accepted:    8. Label:BD*( 1)   1   4
        2 eigenvector(s) stashed in permanent list

 Search of NHO DM block for the following atom(s):   1   5
      Select eigenvectors with eigenvalue > 1.900
       1.994 0.001 0.000 0.000 0.000 0.000
      Eigenvector ( 1) has occupancy 1.99386
            0.0000 0.0000 0.0000 0.7115 0.0000 0.7027
      Occupancy is 1.994 after deleting minor hybrid components
            0.0000 0.0000 0.0000 0.7115 0.0000 0.7027
           NBO accepted:    9. Label:BD ( 1)   1   5
      Occupancy is 0.001 for antibonding component
            0.0000 0.0000 0.0000-0.7027 0.0000 0.7115
           NBO accepted:   10. Label:BD*( 1)   1   5
        2 eigenvector(s) stashed in permanent list

  2-center NBOs projected from the NHO density matrix
       0.017 electrons remain in the fully projected matrix

                            Occupancies       Lewis Structure    Low   High
         Max    Occ     -------------------  -----------------   occ   occ
  Cycle  Ctr   Thresh    Lewis   non-Lewis     CR  BD  nC  LP    (L)   (NL)
 ============================================================================
    1     2     1.90    11.98068   0.01932      2   4   0   0     0      0
 ----------------------------------------------------------------------------

 Structure accepted: No low occupancy Lewis orbitals

 -------------------------------------------------------
   Core                      3.99994 ( 99.998% of   4)
   Valence Lewis             7.98075 ( 99.759% of   8)
  ==================      =============================
   Total Lewis              11.98068 ( 99.839% of  12)
  -----------------------------------------------------
   Valence non-Lewis         0.00250 (  0.021% of  12)
   Rydberg non-Lewis         0.01681 (  0.140% of  12)
  ==================      =============================
   Total non-Lewis           0.01932 (  0.161% of  12)
 -------------------------------------------------------


     (Occupancy)   Bond orbital / Coefficients / Hybrids
 ------------------ Lewis ------------------------------------------------------
   1. (1.99999) CR ( 1) C  1            s(100.00%)
                                         1.0000  0.0000  0.0000  0.0000  0.0000
   2. (1.99995) CR ( 1)Li  2            s(100.00%)
                                         1.0000  0.0000  0.0000  0.0000  0.0000
   3. (1.99917) BD ( 1) C  1-Li  2
               ( 74.12%)   0.8609* C  1 s( 19.20%)p 4.21( 80.80%)
                                         0.0000  0.4382 -0.8989  0.0000  0.0000
               ( 25.88%)   0.5087*Li  2 s( 77.99%)p 0.28( 22.01%)
                                         0.0000  0.8831  0.4692  0.0000  0.0000
   4. (1.99386) BD ( 1) C  1- H  3
               ( 50.62%)   0.7115* C  1 s( 26.93%)p 2.71( 73.07%)
                                         0.0000  0.5190  0.2530 -0.7158  0.3929
               ( 49.38%)   0.7027* H  3 s(100.00%)
                                         1.0000
   5. (1.99386) BD ( 1) C  1- H  4
               ( 50.62%)   0.7115* C  1 s( 26.93%)p 2.71( 73.07%)
                                         0.0000  0.5190  0.2530  0.6981  0.4234
               ( 49.38%)   0.7027* H  4 s(100.00%)
                                         1.0000
   6. (1.99386) BD ( 1) C  1- H  5
               ( 50.62%)   0.7115* C  1 s( 26.93%)p 2.71( 73.07%)
                                         0.0000  0.5190  0.2530  0.0176 -0.8163
               ( 49.38%)   0.7027* H  5 s(100.00%)
                                         1.0000
 ---------------- non-Lewis ----------------------------------------------------
   7. (0.00063) BD*( 1) C  1-Li  2
               ( 25.88%)   0.5087* C  1 s( 19.20%)p 4.21( 80.80%)
                                         0.0000 -0.4382  0.8989  0.0000  0.0000
               ( 74.12%)  -0.8609*Li  2 s( 77.99%)p 0.28( 22.01%)
                                         0.0000 -0.8831 -0.4692  0.0000  0.0000
   8. (0.00062) BD*( 1) C  1- H  3
               ( 49.38%)   0.7027* C  1 s( 26.93%)p 2.71( 73.07%)
                                         0.0000 -0.5190 -0.2530  0.7158 -0.3929
               ( 50.62%)  -0.7115* H  3 s(100.00%)
                                        -1.0000
   9. (0.00062) BD*( 1) C  1- H  4
               ( 49.38%)   0.7027* C  1 s( 26.93%)p 2.71( 73.07%)
                                         0.0000 -0.5190 -0.2530 -0.6981 -0.4234
               ( 50.62%)  -0.7115* H  4 s(100.00%)
                                        -1.0000
  10. (0.00062) BD*( 1) C  1- H  5
               ( 49.38%)   0.7027* C  1 s( 26.93%)p 2.71( 73.07%)
                                         0.0000 -0.5190 -0.2530 -0.0176  0.8163
               ( 50.62%)  -0.7115* H  5 s(100.00%)
                                        -1.0000
  11. (0.00750) RY ( 1)Li  2            s(  0.00%)p 1.00(100.00%)
                                         0.0000  0.0000  0.0000  0.9990 -0.0447
  12. (0.00750) RY ( 2)Li  2            s(  0.00%)p 1.00(100.00%)
                                         0.0000  0.0000  0.0000  0.0447  0.9990
  13. (0.00181) RY ( 3)Li  2            s( 22.01%)p 3.54( 77.99%)
                                         0.0000  0.4692 -0.8831  0.0000  0.0000


 NHO DIRECTIONALITY AND BOND BENDING (deviation from line of nuclear centers at
                                      the position of maximum hybrid amplitude)

         [Thresholds for printing:  angular deviation  >  1.0 degree]
                                    p- or d-character  > 25.0%
                                    orbital occupancy  >  0.10e

                        Line of Centers        Hybrid 1             Hybrid 2
                        ---------------  -------------------  ------------------
           NBO            Theta   Phi    Theta   Phi    Dev   Theta   Phi    Dev
 ===============================================================================
   4. BD ( 1) C  1- H  3   63.6  295.4    62.9  291.0   4.0     --     --    --
   5. BD ( 1) C  1- H  4   61.4   64.0    60.6   68.5   4.0     --     --    --
   6. BD ( 1) C  1- H  5  157.4    3.0   161.4    3.7   4.0     --     --    --


 SECOND ORDER PERTURBATION THEORY ANALYSIS OF FOCK MATRIX IN NBO BASIS

     Threshold for printing:   0.50 kcal/mol
                                                          E(2) E(NL)-E(L) F(L,NL)
      Donor (L) NBO              Acceptor (NL) NBO      kcal/mol   a.u.    a.u.
 ===============================================================================

 within unit  1
    4. BD ( 1) C  1- H  3      11. RY ( 1)Li  2            1.35    0.73   0.028
    4. BD ( 1) C  1- H  3      13. RY ( 3)Li  2            0.53    0.76   0.018
    5. BD ( 1) C  1- H  4      11. RY ( 1)Li  2            1.16    0.73   0.026
    5. BD ( 1) C  1- H  4      12. RY ( 2)Li  2            0.52    0.73   0.017
    5. BD ( 1) C  1- H  4      13. RY ( 3)Li  2            0.53    0.76   0.018
    6. BD ( 1) C  1- H  5      12. RY ( 2)Li  2            1.67    0.73   0.031
    6. BD ( 1) C  1- H  5      13. RY ( 3)Li  2            0.53    0.76   0.018


 NATURAL BOND ORBITALS (Summary):

                                                     Principal Delocalizations
           NBO                 Occupancy    Energy   (geminal,vicinal,remote)
 ===============================================================================
 Molecular unit  1  (CH3Li)
 ------ Lewis --------------------------------------
    1. CR ( 1) C  1             1.99999   -10.90731
    2. CR ( 1)Li  2             1.99995    -2.33264
    3. BD ( 1) C  1-Li  2       1.99917    -0.26804
    4. BD ( 1) C  1- H  3       1.99386    -0.54751  11(v),13(v)
    5. BD ( 1) C  1- H  4       1.99386    -0.54751  11(v),13(v),12(v)
    6. BD ( 1) C  1- H  5       1.99386    -0.54751  12(v),13(v)
 ------ non-Lewis ----------------------------------
    7. BD*( 1) C  1-Li  2       0.00063     0.36030
    8. BD*( 1) C  1- H  3       0.00062     0.81174
    9. BD*( 1) C  1- H  4       0.00062     0.81174
   10. BD*( 1) C  1- H  5       0.00062     0.81174
   11. RY ( 1)Li  2             0.00750     0.18469
   12. RY ( 2)Li  2             0.00750     0.18469
   13. RY ( 3)Li  2             0.00181     0.21367
          -------------------------------
                 Total Lewis   11.98068  ( 99.8390%)
           Valence non-Lewis    0.00250  (  0.0209%)
           Rydberg non-Lewis    0.01681  (  0.1401%)
          -------------------------------
               Total unit  1   12.00000  (100.0000%)
              Charge unit  1    0.00000

 $CHOOSE
   BOND S 1 2 S 1 3 S 1 4 S 1 5 END
 $END

 NBO analysis completed in 0.14 CPU seconds (0 wall seconds)
 Maximum scratch memory used by NBO was 222354 words (1.70 MB)
 Maximum scratch memory used by G16NBO was 8427 words (0.06 MB)

 Opening RunExU unformatted file "/cluster/work/users/beto93/CH3Li/Gau-1555222.EUF"
 Read unf file /cluster/work/users/beto93/CH3Li/Gau-1555222.EUF:
 Label Gaussian matrix elements                                         IVers= 2 NLab= 2 Version=ES64L-G16RevC.01
 Title NBO-CH3Li                                                       
 NAtoms=     5 NBasis=    13 NBsUse=    13 ICharg=     0 Multip=     1 NE=    12 Len12L=8 Len4L=8 IOpCl= 0 ICGU=111
 GAUSSIAN SCALARS                    NI= 1 NR= 1 NTot=       1 LenBuf=    2 NRI=1 N=    1000
 NPA CHARGES                         NI= 0 NR= 1 NTot=       5 LenBuf= 4000 NRI=1 N=       5
 Recovered energy= -46.4215878959     dipole=     -1.678306694129      0.000000170881     -0.000000508394
 Unable to Open any file for archive entry.
 1\1\GINC-C1-1\FOpt\RHF\STO-3G\C1H3Li1\BETO93\24-Jul-2024\0\\#OPT=VeryT
 ight Int=UltraFine RHF/STO-3G Pop=NBO7Read\\NBO-CH3Li\\0,1\C,0.0000020
 421,-0.0000026147,0.0000020513\Li,-0.9467846589,1.6398791602,-0.669478
 1769\H,0.0295046505,-0.0511054621,1.081096071\H,1.0291022183,-0.051104
 6309,-0.3325450866\H,-0.4702912529,-0.9167804533,-0.3325468593\\Versio
 n=ES64L-G16RevC.01\State=1-A\HF=-46.4215879\RMSD=8.261e-09\RMSF=2.285e
 -07\Dipole=-0.7911618,1.3703309,-0.5594368\Quadrupole=-0.934202,2.8026
 043,-1.8684024,-3.2361736,1.3211648,-2.2883237\PG=C01 [X(C1H3Li1)]\\@
 The archive entry for this job was punched.


 "WOULD YOU TELL ME PLEASE, WHICH WAY I OUGHT TO WALK FROM HERE?"
 "THAT DEPENDS A GREAT DEAL ON WHERE YOU WANT TO GO," SAID THE CAT.
 "I DON'T MUCH CARE WHERE -- ", SAID ALICE.
 "THEN IT DOESN'T MATTER WHICH WAY YOU WALK," SAID THE CAT.

                                      -- LEWIS CARROLL
 Job cpu time:       0 days  0 hours  0 minutes 38.5 seconds.
 Elapsed time:       0 days  0 hours  0 minutes 13.4 seconds.
 File lengths (MBytes):  RWF=     10 Int=      0 D2E=      0 Chk=      1 Scr=      1
 Normal termination of Gaussian 16 at Wed Jul 24 11:04:34 2024.
