 Entering Gaussian System, Link 0=g16
 Initial command:
 /cluster/software/Gaussian/g16_C.01/l1.exe "/cluster/work/users/beto93/mol90/Gau-1877057.inp" -scrdir="/cluster/work/users/beto93/mol90/"
 Entering Link 1 = /cluster/software/Gaussian/g16_C.01/l1.exe PID=   1877064.
  
 Copyright (c) 1988-2019, Gaussian, Inc.  All Rights Reserved.
  
 This is part of the Gaussian(R) 16 program.  It is based on
 the Gaussian(R) 09 system (copyright 2009, Gaussian, Inc.),
 the Gaussian(R) 03 system (copyright 2003, Gaussian, Inc.),
 the Gaussian(R) 98 system (copyright 1998, Gaussian, Inc.),
 the Gaussian(R) 94 system (copyright 1995, Gaussian, Inc.),
 the Gaussian 92(TM) system (copyright 1992, Gaussian, Inc.),
 the Gaussian 90(TM) system (copyright 1990, Gaussian, Inc.),
 the Gaussian 88(TM) system (copyright 1988, Gaussian, Inc.),
 the Gaussian 86(TM) system (copyright 1986, Carnegie Mellon
 University), and the Gaussian 82(TM) system (copyright 1983,
 Carnegie Mellon University). Gaussian is a federally registered
 trademark of Gaussian, Inc.
  
 This software contains proprietary and confidential information,
 including trade secrets, belonging to Gaussian, Inc.
  
 This software is provided under written license and may be
 used, copied, transmitted, or stored only in accord with that
 written license.
  
 The following legend is applicable only to US Government
 contracts under FAR:
  
                    RESTRICTED RIGHTS LEGEND
  
 Use, reproduction and disclosure by the US Government is
 subject to restrictions as set forth in subparagraphs (a)
 and (c) of the Commercial Computer Software - Restricted
 Rights clause in FAR 52.227-19.
  
 Gaussian, Inc.
 340 Quinnipiac St., Bldg. 40, Wallingford CT 06492
  
  
 ---------------------------------------------------------------
 Warning -- This program may not be used in any manner that
 competes with the business of Gaussian, Inc. or will provide
 assistance to any competitor of Gaussian, Inc.  The licensee
 of this program is prohibited from giving any competitor of
 Gaussian, Inc. access to this program.  By using this program,
 the user acknowledges that Gaussian, Inc. is engaged in the
 business of creating and licensing software in the field of
 computational chemistry and represents and warrants to the
 licensee that it is not a competitor of Gaussian, Inc. and that
 it will not use this program in any manner prohibited above.
 ---------------------------------------------------------------
  

 Cite this work as:
 Gaussian 16, Revision C.01,
 M. J. Frisch, G. W. Trucks, H. B. Schlegel, G. E. Scuseria, 
 M. A. Robb, J. R. Cheeseman, G. Scalmani, V. Barone, 
 G. A. Petersson, H. Nakatsuji, X. Li, M. Caricato, A. V. Marenich, 
 J. Bloino, B. G. Janesko, R. Gomperts, B. Mennucci, H. P. Hratchian, 
 J. V. Ortiz, A. F. Izmaylov, J. L. Sonnenberg, D. Williams-Young, 
 F. Ding, F. Lipparini, F. Egidi, J. Goings, B. Peng, A. Petrone, 
 T. Henderson, D. Ranasinghe, V. G. Zakrzewski, J. Gao, N. Rega, 
 G. Zheng, W. Liang, M. Hada, M. Ehara, K. Toyota, R. Fukuda, 
 J. Hasegawa, M. Ishida, T. Nakajima, Y. Honda, O. Kitao, H. Nakai, 
 T. Vreven, K. Throssell, J. A. Montgomery, Jr., J. E. Peralta, 
 F. Ogliaro, M. J. Bearpark, J. J. Heyd, E. N. Brothers, K. N. Kudin, 
 V. N. Staroverov, T. A. Keith, R. Kobayashi, J. Normand, 
 K. Raghavachari, A. P. Rendell, J. C. Burant, S. S. Iyengar, 
 J. Tomasi, M. Cossi, J. M. Millam, M. Klene, C. Adamo, R. Cammi, 
 J. W. Ochterski, R. L. Martin, K. Morokuma, O. Farkas, 
 J. B. Foresman, and D. J. Fox, Gaussian, Inc., Wallingford CT, 2019.
 
 ******************************************
 Gaussian 16:  ES64L-G16RevC.01  3-Jul-2019
                18-Nov-2024 
 ******************************************
 %LindaWorkers=c5-11-ib
 %NProcShared=4
 Will use up to    4 processors via shared memory.
 %mem=25GB
 %chk=mol90.chk
 SetLPE:    new flags="-opt 'Tsnet.Node.lindarsharg: ssh'  -nodelist 'c5-11-ib.saga' -env GAUSS_MDEF=3355443200 -env GAUSS_EXEDIR="/cluster/software/Gaussian/g16_C.01/bsd:/cluster/software/Gaussian/g16_C.01""
 Will use up to    1 processors via Linda.
 -----------------------------------------------------------------
 #RHF/STO-3G int=nobasistransform Symmetry=None 5D 7F Pop=NBO7Read
 -----------------------------------------------------------------
 1/38=1,163=2,172=1/1;
 2/12=2,15=3,17=6,18=5,40=1/2;
 3/6=3,8=11,11=1,25=1,30=1,60=-1,116=1/1,2,3;
 4//1;
 5/5=2,38=5/2;
 6/7=2,8=2,9=2,10=2,28=1,40=2,113=1,114=1,124=2103/1,12;
 99/5=1,9=1/99;
 ---------
 mol90-NBO
 ---------
 Symbolic Z-matrix:
 Charge =  0 Multiplicity = 1
 C                     0.        0.        0.37695 
 H                     0.        0.        1.47527 
 C                     0.        1.45029  -0.09623 
 H                     0.        1.494    -1.19085 
 H                    -0.88548   1.9847    0.2613 
 H                     0.88548   1.9847    0.2613 
 C                     1.25599  -0.72515  -0.09623 
 H                     1.29384  -0.747    -1.19085 
 H                     2.16154  -0.2255    0.2613 
 H                     1.27606  -1.7592    0.2613 
 C                    -1.25599  -0.72515  -0.09623 
 H                    -1.29384  -0.747    -1.19085 
 H                    -1.27606  -1.7592    0.2613 
 H                    -2.16154  -0.2255    0.2613 
 
                          Input orientation:                          
 ---------------------------------------------------------------------
 Center     Atomic      Atomic             Coordinates (Angstroms)
 Number     Number       Type             X           Y           Z
 ---------------------------------------------------------------------
      1          6           0        0.000000    0.000000    0.376949
      2          1           0        0.000000    0.000000    1.475269
      3          6           0        0.000000    1.450290   -0.096234
      4          1           0        0.000000    1.493997   -1.190847
      5          1           0       -0.885482    1.984695    0.261297
      6          1           0        0.885482    1.984695    0.261297
      7          6           0        1.255988   -0.725145   -0.096234
      8          1           0        1.293839   -0.746998   -1.190847
      9          1           0        2.161537   -0.225498    0.261297
     10          1           0        1.276055   -1.759198    0.261297
     11          6           0       -1.255988   -0.725145   -0.096234
     12          1           0       -1.293839   -0.746998   -1.190847
     13          1           0       -1.276055   -1.759198    0.261297
     14          1           0       -2.161537   -0.225498    0.261297
 ---------------------------------------------------------------------
                    Distance matrix (angstroms):
                    1          2          3          4          5
     1  C    0.000000
     2  H    1.098320   0.000000
     3  C    1.525530   2.138449   0.000000
     4  H    2.165643   3.056174   1.095485   0.000000
     5  H    2.176343   2.489341   1.094301   1.770194   0.000000
     6  H    2.176343   2.489341   1.094301   1.770194   1.770964
     7  C    1.525530   2.138449   2.511976   2.774937   3.472313
     8  H    2.165643   3.056174   2.774936   2.587678   3.784218
     9  H    2.176343   2.489341   2.758321   3.120517   3.764210
    10  H    2.176343   2.489342   3.472313   3.784219   4.323075
    11  C    1.525530   2.138449   2.511976   2.774937   2.758321
    12  H    2.165643   3.056174   2.774936   2.587678   3.120517
    13  H    2.176343   2.489342   3.472313   3.784219   3.764211
    14  H    2.176343   2.489341   2.758321   3.120517   2.552111
                    6          7          8          9         10
     6  H    0.000000
     7  C    2.758321   0.000000
     8  H    3.120517   1.095485   0.000000
     9  H    2.552111   1.094301   1.770193   0.000000
    10  H    3.764211   1.094302   1.770194   1.770964   0.000000
    11  C    3.472313   2.511976   2.774937   3.472312   2.758321
    12  H    3.784218   2.774937   2.587678   3.784218   3.120517
    13  H    4.323075   2.758321   3.120517   3.764210   2.552110
    14  H    3.764210   3.472312   3.784218   4.323074   3.764210
                   11         12         13         14
    11  C    0.000000
    12  H    1.095485   0.000000
    13  H    1.094302   1.770194   0.000000
    14  H    1.094301   1.770193   1.770964   0.000000
 Symmetry turned off by external request.
 Stoichiometry    C4H10
 Rotational constants (GHZ):           7.8423602           7.8423592           4.5517723
 Standard basis: STO-3G (5D, 7F)
    30 basis functions,    90 primitive gaussians,    30 cartesian basis functions
    17 alpha electrons       17 beta electrons
       nuclear repulsion energy       134.8608128786 Hartrees.
 NAtoms=   14 NActive=   14 NUniq=   14 SFac= 1.00D+00 NAtFMM=   60 NAOKFM=F Big=F
 Integral buffers will be    131072 words long.
 Raffenetti 1 integral format.
 Two-electron integral symmetry is turned off.
 One-electron integrals computed using PRISM.
 NBasis=    30 RedAO= T EigKep=  1.99D-01  NBF=    30
 NBsUse=    30 1.00D-06 EigRej= -1.00D+00 NBFU=    30
 ExpMin= 1.69D-01 ExpMax= 7.16D+01 ExpMxC= 7.16D+01 IAcc=3 IRadAn=         5 AccDes= 0.00D+00
 Harris functional with IExCor=  205 and IRadAn=       5 diagonalized for initial guess.
 HarFok:  IExCor=  205 AccDes= 0.00D+00 IRadAn=         5 IDoV= 1 UseB2=F ITyADJ=14
 ICtDFT=  3500011 ScaDFX=  1.000000  1.000000  1.000000  1.000000
 FoFCou: FMM=F IPFlag=           0 FMFlag=      100000 FMFlg1=           0
         NFxFlg=           0 DoJE=T BraDBF=F KetDBF=T FulRan=T
         wScrn=  0.000000 ICntrl=       500 IOpCl=  0 I1Cent=   200000004 NGrid=           0
         NMat0=    1 NMatS0=      1 NMatT0=    0 NMatD0=    1 NMtDS0=    0 NMtDT0=    0
 Symmetry not used in FoFCou.
 Keep R1 ints in memory in canonical form, NReq=932377.
 Requested convergence on RMS density matrix=1.00D-08 within 128 cycles.
 Requested convergence on MAX density matrix=1.00D-06.
 Requested convergence on             energy=1.00D-06.
 No special actions if energy rises.
 SCF Done:  E(RHF) =  -155.465289773     A.U. after    8 cycles
            NFock=  8  Conv=0.39D-08     -V/T= 2.0086

 **********************************************************************

            Population analysis using the SCF Density.

 **********************************************************************

 Alpha  occ. eigenvalues --  -11.04838 -11.03018 -11.03018 -11.03006  -1.04309
 Alpha  occ. eigenvalues --   -0.88941  -0.88941  -0.73253  -0.60149  -0.55951
 Alpha  occ. eigenvalues --   -0.55951  -0.50302  -0.50302  -0.48024  -0.42360
 Alpha  occ. eigenvalues --   -0.42360  -0.42213
 Alpha virt. eigenvalues --    0.59658   0.62314   0.62314   0.69608   0.71157
 Alpha virt. eigenvalues --    0.71157   0.75242   0.76346   0.76628   0.76628
 Alpha virt. eigenvalues --    0.80173   0.80173   0.81923
          Condensed to atoms (all electrons):
               1          2          3          4          5          6
     1  C    4.718543   0.381981   0.366459  -0.021522  -0.020016  -0.020016
     2  H    0.381981   0.650278  -0.024320   0.001952  -0.002225  -0.002225
     3  C    0.366459  -0.024320   4.739555   0.381678   0.382811   0.382811
     4  H   -0.021522   0.001952   0.381678   0.632270  -0.021704  -0.021704
     5  H   -0.020016  -0.002225   0.382811  -0.021704   0.629276  -0.021635
     6  H   -0.020016  -0.002225   0.382811  -0.021704  -0.021635   0.629276
     7  C    0.366459  -0.024320  -0.025168  -0.002257   0.001309  -0.002267
     8  H   -0.021522   0.001952  -0.002257   0.000391   0.000010  -0.000010
     9  H   -0.020016  -0.002225  -0.002267  -0.000010   0.000022   0.000203
    10  H   -0.020016  -0.002225   0.001309   0.000010  -0.000037   0.000022
    11  C    0.366459  -0.024320  -0.025168  -0.002257  -0.002267   0.001309
    12  H   -0.021522   0.001952  -0.002257   0.000391  -0.000010   0.000010
    13  H   -0.020016  -0.002225   0.001309   0.000010   0.000022  -0.000037
    14  H   -0.020016  -0.002225  -0.002267  -0.000010   0.000203   0.000022
               7          8          9         10         11         12
     1  C    0.366459  -0.021522  -0.020016  -0.020016   0.366459  -0.021522
     2  H   -0.024320   0.001952  -0.002225  -0.002225  -0.024320   0.001952
     3  C   -0.025168  -0.002257  -0.002267   0.001309  -0.025168  -0.002257
     4  H   -0.002257   0.000391  -0.000010   0.000010  -0.002257   0.000391
     5  H    0.001309   0.000010   0.000022  -0.000037  -0.002267  -0.000010
     6  H   -0.002267  -0.000010   0.000203   0.000022   0.001309   0.000010
     7  C    4.739555   0.381678   0.382812   0.382811  -0.025168  -0.002257
     8  H    0.381678   0.632270  -0.021704  -0.021704  -0.002257   0.000391
     9  H    0.382812  -0.021704   0.629275  -0.021635   0.001309   0.000010
    10  H    0.382811  -0.021704  -0.021635   0.629276  -0.002267  -0.000010
    11  C   -0.025168  -0.002257   0.001309  -0.002267   4.739555   0.381678
    12  H   -0.002257   0.000391   0.000010  -0.000010   0.381678   0.632270
    13  H   -0.002267  -0.000010   0.000022   0.000203   0.382811  -0.021704
    14  H    0.001309   0.000010  -0.000037   0.000022   0.382812  -0.021704
              13         14
     1  C   -0.020016  -0.020016
     2  H   -0.002225  -0.002225
     3  C    0.001309  -0.002267
     4  H    0.000010  -0.000010
     5  H    0.000022   0.000203
     6  H   -0.000037   0.000022
     7  C   -0.002267   0.001309
     8  H   -0.000010   0.000010
     9  H    0.000022  -0.000037
    10  H    0.000203   0.000022
    11  C    0.382811   0.382812
    12  H   -0.021704  -0.021704
    13  H    0.629276  -0.021635
    14  H   -0.021635   0.629275
 Mulliken charges:
               1
     1  C   -0.015238
     2  H    0.048196
     3  C   -0.172231
     4  H    0.052762
     5  H    0.054242
     6  H    0.054242
     7  C   -0.172231
     8  H    0.052762
     9  H    0.054242
    10  H    0.054241
    11  C   -0.172231
    12  H    0.052762
    13  H    0.054241
    14  H    0.054242
 Sum of Mulliken charges =  -0.00000
 Mulliken charges with hydrogens summed into heavy atoms:
               1
     1  C    0.032958
     3  C   -0.010986
     7  C   -0.010986
    11  C   -0.010986
 Electronic spatial extent (au):  <R**2>=            348.4078
 Charge=             -0.0000 electrons
 Dipole moment (field-independent basis, Debye):
    X=             -0.0000    Y=              0.0000    Z=              0.0304  Tot=              0.0304
 Quadrupole moment (field-independent basis, Debye-Ang):
   XX=            -27.0699   YY=            -27.0699   ZZ=            -26.6004
   XY=              0.0000   XZ=              0.0000   YZ=             -0.0000
 Traceless Quadrupole moment (field-independent basis, Debye-Ang):
   XX=             -0.1565   YY=             -0.1565   ZZ=              0.3130
   XY=              0.0000   XZ=              0.0000   YZ=             -0.0000
 Octapole moment (field-independent basis, Debye-Ang**2):
  XXX=             -0.0000  YYY=             -1.5774  ZZZ=             -1.0918  XYY=             -0.0000
  XXY=              1.5774  XXZ=              0.9202  XZZ=             -0.0000  YZZ=              0.0000
  YYZ=              0.9202  XYZ=              0.0000
 Hexadecapole moment (field-independent basis, Debye-Ang**3):
 XXXX=           -193.6500 YYYY=           -193.6500 ZZZZ=            -54.8870 XXXY=              0.0000
 XXXZ=             -0.0000 YYYX=              0.0000 YYYZ=             -0.6613 ZZZX=              0.0000
 ZZZY=              0.0000 XXYY=            -64.5500 XXZZ=            -42.5176 YYZZ=            -42.5176
 XXYZ=              0.6613 YYXZ=             -0.0000 ZZXY=              0.0000
 N-N= 1.348608128786D+02 E-N=-6.304491286662D+02  KE= 1.541356551634D+02
 Running external command "gaunbo7 R"
         input file       "/cluster/work/users/beto93/mol90/Gau-1877064.EIn"
         output file      "/cluster/work/users/beto93/mol90/Gau-1877064.EOu"
         message file     "/cluster/work/users/beto93/mol90/Gau-1877064.EMs"
         fchk file        "/cluster/work/users/beto93/mol90/Gau-1877064.EFC"
         mat. el file     "/cluster/work/users/beto93/mol90/Gau-1877064.EUF"

 Writing WrtUnf unformatted file "/cluster/work/users/beto93/mol90/Gau-1877064.EUF"
 Gaussian matrix elements                                         Version   2 NLab=11 Len12L=8 Len4L=8
 Write SHELL TO ATOM MAP                   from file      0 offset           0 length                  18 to matrix element file.
 Write SHELL TYPES                         from file      0 offset           0 length                  18 to matrix element file.
 Write NUMBER OF PRIMITIVES PER SHELL      from file      0 offset           0 length                  18 to matrix element file.
 Write PRIMITIVE EXPONENTS                 from file      0 offset           0 length                  54 to matrix element file.
 Write CONTRACTION COEFFICIENTS            from file      0 offset           0 length                  54 to matrix element file.
 Write P(S=P) CONTRACTION COEFFICIENTS     from file      0 offset           0 length                  54 to matrix element file.
 Write COORDINATES OF EACH SHELL           from file      0 offset           0 length                  54 to matrix element file.
 Write BONDS PER ATOM                      from file      0 offset           0 length                  14 to matrix element file.
 Write BONDED ATOMS                        from file      0 offset           0 length                  26 to matrix element file.
 Write BOND TYPES                          from file      0 offset           0 length                  26 to matrix element file.
 Write ONIOM CHARGE/MULT                   from file      0 offset           0 length                  32 to matrix element file.
 Write ONIOM ATOM LAYERS                   from file      0 offset           0 length                  14 to matrix element file.
 Write ONIOM ATOM MODIFIERS                from file      0 offset           0 length                  14 to matrix element file.
 Write ONIOM ATOM TYPES                    from file      0 offset           0 length                  14 to matrix element file.
 Write ONIOM LINK ATOMS                    from file      0 offset           0 length                  14 to matrix element file.
 Write ONIOM LINK CHARGES                  from file      0 offset           0 length                  14 to matrix element file.
 Write ONIOM LINK DISTANCES                from file      0 offset           0 length                  56 to matrix element file.
 Write SYMINF INTS                         from file      0 offset           0 length                  26 to matrix element file.
 Write ROTTR TO SO                         from file      0 offset           0 length                  12 to matrix element file.
 Write GAUSSIAN SCALARS                    from file    501 offset           0 to matrix element file.
 Write OPTIMIZATION FLAGS                  from file      0 offset           0 length                  14 to matrix element file.
 Write INTEGER ISO                         from file      0 offset           0 length                  14 to matrix element file.
 Write INTEGER SPIN                        from file      0 offset           0 length                  14 to matrix element file.
 Write REAL ZEFFECTIVE                     from file      0 offset           0 length                  14 to matrix element file.
 Write REAL GFACTOR                        from file      0 offset           0 length                  14 to matrix element file.
 Write REAL ZNUCLEAR                       from file      0 offset           0 length                  14 to matrix element file.
 Write MULLIKEN CHARGES                    from file      0 offset           0 length                  14 to matrix element file.
 Write NUCLEAR GRADIENT                    from file  10584 offset           0 length                  42 to matrix element file.
 Array NUCLEAR FORCE CONSTANTS              on  file  10585 does not exist.
 Write ELECTRIC DIPOLE MOMENT              from file      0 offset           0 length                   3 to matrix element file.
 Write NON-ADIABATIC COUPLING              from file  10810 offset           0 length                  42 to matrix element file.
 Write FINITE EM FIELD                     from file  10521 offset           0 length                  35 to matrix element file.
 Write OVERLAP                             from file  10514 offset           0 length                 465 to matrix element file.
 Write CORE HAMILTONIAN ALPHA              from file  10515 offset           0 length                 465 to matrix element file.
 Write CORE HAMILTONIAN BETA               from file  10515 offset         465 length                 465 to matrix element file.
 Write KINETIC ENERGY                      from file  10516 offset           0 length                 465 to matrix element file.
 Write ORTHOGONAL BASIS                    from file  10685 offset           0 length                 900 to matrix element file.
 Write DIPOLE INTEGRALS                    from file  10518 offset           0 length                1395 to matrix element file.
 Array DIP VEL INTEGRALS                    on  file  10572 does not exist.
 Array R X DEL INTEGRALS                    on  file  10572 does not exist.
 Write ALPHA ORBITAL ENERGIES              from file      0 offset           0 length                  30 to matrix element file.
 Write ALPHA MO COEFFICIENTS               from file  10524 offset           0 length                 900 to matrix element file.
 Write ALPHA DENSITY MATRIX                from file      0 offset           0 length                 465 to matrix element file.
 Write ALPHA FOCK MATRIX                   from file  10536 offset           0 length                 465 to matrix element file.
 Write ENERGY-WEIGHTED DENSITY             from file  10571 offset           0 length                 465 to matrix element file.
 Write ALPHA SCF DENSITY MATRIX            from file      0 offset           0 length                 465 to matrix element file.
 No 2e integrals to process.
 Perform NBO analysis...executing G16NBO...

 *********************************** NBO 7.0 ***********************************
             N A T U R A L   A T O M I C   O R B I T A L   A N D
          N A T U R A L   B O N D   O R B I T A L   A N A L Y S I S
 **************************** Espen Tangen (S101595) ***************************
  (c) Copyright 1996-2021 Board of Regents of the University of Wisconsin System
      on behalf of the Theoretical Chemistry Institute.  All rights reserved.

          Cite this program [NBO 7.0.10 (8-Feb-2021)] as:

          NBO 7.0.  E. D. Glendening, J. K. Badenhoop, A. E. Reed,
          J. E. Carpenter, J. A. Bohmann, C. M. Morales, P. Karafiloglou,
          C. R. Landis, and F. Weinhold, Theoretical Chemistry Institute,
          University of Wisconsin, Madison, WI (2018)

       /NPA    / : Natural Population Analysis
       /AOPNAO / : Print the AO to PNAO transformation
       /AONAO  / : Print the AO to NAO transformation
       /AOMO   / : Print the MOs in the AO basis
       /BOAO   / : Print the AO bond-order matrix
       /DMAO   / : Print the AO density matrix
       /DMPNAO / : Print the PNAO density matrix
       /DMNAO  / : Print the NAO density matrix
       /DMMO   / : Print the MO density matrix
       /SAO    / : Print the AO overlap matrix
       /SPNAO  / : Print the PNAO overlap matrix
       /DETAIL / : Write details of NBO search
       /ARCHIVE/ : Write the archive file to lfn47
       /AOINFO / : Write AO information to lfn31
       /FILE   / : Set to mol90.gen*

 Filename set to mol90.gen1

 Job title: mol90-NBO


 MOs in the AO basis:

           AO          1       2       3       4       5       6       7       8
      ------------ ------- ------- ------- ------- ------- ------- ------- -------
   1.  C 1 (s)      0.9918  0.0000  0.0000  0.0136 -0.1628  0.0000  0.0000 -0.1457
   2.  C 1 (s)      0.0374  0.0000  0.0000 -0.0094  0.4353  0.0000  0.0000  0.4655
   3.  C 1 (px)     0.0000  0.0049  0.0000  0.0000  0.0000  0.1683  0.0000  0.0000
   4.  C 1 (py)     0.0000  0.0000 -0.0049  0.0000  0.0000  0.0000  0.1683  0.0000
   5.  C 1 (pz)     0.0002  0.0000  0.0000  0.0022 -0.0300  0.0000  0.0000  0.1513
   6.  H 2 (s)     -0.0070  0.0000  0.0000  0.0000  0.0941  0.0000  0.0000  0.2567
   7.  C 3 (s)     -0.0069  0.0000  0.8099  0.5727 -0.1025  0.0000 -0.1821  0.0649
   8.  C 3 (s)     -0.0061  0.0000  0.0307  0.0218  0.2734  0.0000  0.5250 -0.2033
   9.  C 3 (px)     0.0000  0.0003  0.0000  0.0000  0.0000  0.0324  0.0000  0.0000
  10.  C 3 (py)     0.0041  0.0000  0.0002  0.0003 -0.0610  0.0000  0.0260 -0.1508
  11.  C 3 (pz)    -0.0013  0.0000 -0.0002  0.0000  0.0150  0.0000 -0.0002  0.0984
  12.  H 4 (s)      0.0001  0.0000 -0.0057 -0.0040  0.0608  0.0000  0.1518 -0.1410
  13.  H 5 (s)      0.0001  0.0001 -0.0056 -0.0041  0.0577 -0.0151  0.1591 -0.0980
  14.  H 6 (s)      0.0001 -0.0001 -0.0056 -0.0041  0.0577  0.0151  0.1591 -0.0980
  15.  C 7 (s)     -0.0069 -0.7014 -0.4050  0.5727 -0.1025 -0.1577  0.0911  0.0649
  16.  C 7 (s)     -0.0061 -0.0266 -0.0154  0.0218  0.2734  0.4547 -0.2625 -0.2033
  17.  C 7 (px)     0.0035 -0.0001 -0.0002  0.0002 -0.0529  0.0276  0.0028 -0.1306
  18.  C 7 (py)    -0.0020  0.0002 -0.0001 -0.0001  0.0305  0.0028  0.0308  0.0754
  19.  C 7 (pz)    -0.0013  0.0002  0.0001  0.0000  0.0150 -0.0002  0.0001  0.0984
  20.  H 8 (s)      0.0001  0.0049  0.0028 -0.0040  0.0608  0.1314 -0.0759 -0.1410
  21.  H 9 (s)      0.0001  0.0048  0.0029 -0.0041  0.0577  0.1453 -0.0664 -0.0980
  22.  H10 (s)      0.0001  0.0049  0.0027 -0.0041  0.0577  0.1302 -0.0926 -0.0980
  23.  C11 (s)     -0.0069  0.7014 -0.4050  0.5727 -0.1025  0.1577  0.0911  0.0649
  24.  C11 (s)     -0.0061  0.0266 -0.0154  0.0218  0.2734 -0.4547 -0.2625 -0.2033
  25.  C11 (px)    -0.0035 -0.0001  0.0002 -0.0002  0.0529  0.0276 -0.0028  0.1306
  26.  C11 (py)    -0.0020 -0.0002 -0.0001 -0.0001  0.0305 -0.0028  0.0308  0.0754
  27.  C11 (pz)    -0.0013 -0.0002  0.0001  0.0000  0.0150  0.0002  0.0001  0.0984
  28.  H12 (s)      0.0001 -0.0049  0.0028 -0.0040  0.0608 -0.1314 -0.0759 -0.1410
  29.  H13 (s)      0.0001 -0.0049  0.0027 -0.0041  0.0577 -0.1302 -0.0926 -0.0980
  30.  H14 (s)      0.0001 -0.0048  0.0029 -0.0041  0.0577 -0.1453 -0.0664 -0.0980

           AO          9      10      11      12      13      14      15      16
      ------------ ------- ------- ------- ------- ------- ------- ------- -------
   1.  C 1 (s)      0.0364  0.0000  0.0000  0.0000  0.0000  0.0000  0.0000  0.0000
   2.  C 1 (s)     -0.1290  0.0000  0.0000  0.0000  0.0000  0.0000  0.0000  0.0000
   3.  C 1 (px)     0.0000  0.0000  0.2638  0.0000  0.0786  0.0000  0.4589  0.0000
   4.  C 1 (py)     0.0000  0.2638  0.0000  0.0786  0.0000  0.0000  0.0000  0.4589
   5.  C 1 (pz)     0.3241  0.0000  0.0000  0.0000  0.0000  0.0000  0.0000  0.0000
   6.  H 2 (s)      0.2064  0.0000  0.0000  0.0000  0.0000  0.0000  0.0000  0.0000
   7.  C 3 (s)     -0.0118  0.0149  0.0000 -0.0002  0.0000  0.0000  0.0000 -0.0322
   8.  C 3 (s)      0.0360 -0.0486  0.0000  0.0013  0.0000  0.0000  0.0000  0.1268
   9.  C 3 (px)     0.0000  0.0000  0.3919  0.0000 -0.0906  0.3377 -0.2200  0.0000
  10.  C 3 (py)     0.2080 -0.1937  0.0000  0.0842  0.0000  0.0000  0.0000 -0.4455
  11.  C 3 (pz)     0.1862  0.1033  0.0000  0.4599  0.0000  0.0000  0.0000  0.0434
  12.  H 4 (s)     -0.1330 -0.1104  0.0000 -0.4152  0.0000  0.0000  0.0000  0.0000
  13.  H 5 (s)      0.1463 -0.0616 -0.2720  0.1771  0.0639 -0.2603  0.2068 -0.1609
  14.  H 6 (s)      0.1463 -0.0616  0.2720  0.1771 -0.0639  0.2603 -0.2068 -0.1609
  15.  C 7 (s)     -0.0118 -0.0075  0.0129  0.0001 -0.0002  0.0000 -0.0279  0.0161
  16.  C 7 (s)      0.0360  0.0243 -0.0421 -0.0007  0.0012  0.0000  0.1098 -0.0634
  17.  C 7 (px)     0.1802  0.2536 -0.0473 -0.0757  0.0405 -0.1688 -0.3891  0.0977
  18.  C 7 (py)    -0.1040  0.2455  0.2536 -0.0469 -0.0757 -0.2925  0.0977 -0.2763
  19.  C 7 (pz)     0.1862 -0.0517  0.0895 -0.2299  0.3983  0.0000  0.0376 -0.0217
  20.  H 8 (s)     -0.1330  0.0552 -0.0956  0.2076 -0.3596  0.0000  0.0000  0.0000
  21.  H 9 (s)      0.1463  0.2664  0.0827 -0.1439  0.1214 -0.2603 -0.2428 -0.0987
  22.  H10 (s)      0.1463 -0.2048 -0.1893 -0.0331  0.1853  0.2603 -0.0360  0.2596
  23.  C11 (s)     -0.0118 -0.0075 -0.0129  0.0001  0.0002  0.0000  0.0279  0.0161
  24.  C11 (s)      0.0360  0.0243  0.0421 -0.0007 -0.0012  0.0000 -0.1098 -0.0634
  25.  C11 (px)    -0.1802 -0.2536 -0.0473  0.0757  0.0405 -0.1688 -0.3891 -0.0977
  26.  C11 (py)    -0.1040  0.2455 -0.2536 -0.0469  0.0757  0.2925 -0.0977 -0.2763
  27.  C11 (pz)     0.1862 -0.0517 -0.0895 -0.2299 -0.3983  0.0000 -0.0376 -0.0217
  28.  H12 (s)     -0.1330  0.0552  0.0956  0.2076  0.3596  0.0000  0.0000  0.0000
  29.  H13 (s)      0.1463 -0.2048  0.1893 -0.0331 -0.1853 -0.2603  0.0360  0.2596
  30.  H14 (s)      0.1463  0.2664 -0.0827 -0.1439 -0.1214  0.2603  0.2428 -0.0987

           AO         17      18      19      20      21      22      23      24
      ------------ ------- ------- ------- ------- ------- ------- ------- -------
   1.  C 1 (s)      0.0118 -0.0194  0.0000  0.0000 -0.1322  0.0000  0.0000  0.0000
   2.  C 1 (s)     -0.0544  0.0854  0.0000  0.0000  0.8131  0.0000  0.0000  0.0000
   3.  C 1 (px)     0.0000  0.0000  0.0000  0.6734  0.0000  0.2258  0.0000  0.0000
   4.  C 1 (py)     0.0000  0.0000  0.6734  0.0000  0.0000  0.0000  0.2258  0.0000
   5.  C 1 (pz)     0.4402 -0.6569  0.0000  0.0000  0.0216  0.0000  0.0000  0.0000
   6.  H 2 (s)      0.4558  0.7018  0.0000  0.0000 -0.3397  0.0000  0.0000  0.0000
   7.  C 3 (s)      0.0144  0.0341  0.0681  0.0000 -0.0663  0.0000  0.0204  0.0000
   8.  C 3 (s)     -0.0598 -0.1982 -0.3863  0.0000  0.4290  0.0000 -0.1211  0.0000
   9.  C 3 (px)     0.0000  0.0000  0.0000  0.5818  0.0000 -0.2651  0.0000  0.6553
  10.  C 3 (py)     0.0904  0.0819  0.5363  0.0000  0.5360  0.0000  0.4087  0.0000
  11.  C 3 (pz)    -0.2380 -0.4485 -0.1116  0.0000 -0.1549  0.0000  0.7363  0.0000
  12.  H 4 (s)      0.2592 -0.3963  0.0626  0.0000 -0.3047  0.0000  0.7700  0.0000
  13.  H 5 (s)     -0.0713  0.2204 -0.0312  0.5160 -0.3478 -0.2086 -0.3801  0.4982
  14.  H 6 (s)     -0.0713  0.2204 -0.0312 -0.5160 -0.3478  0.2086 -0.3801 -0.4982
  15.  C 7 (s)      0.0144  0.0341 -0.0340  0.0590 -0.0663  0.0177 -0.0102  0.0000
  16.  C 7 (s)     -0.0598 -0.1982  0.1932 -0.3346  0.4290 -0.1048  0.0605  0.0000
  17.  C 7 (px)     0.0783  0.0709  0.0197  0.5476  0.4642  0.2403 -0.2918 -0.3276
  18.  C 7 (py)    -0.0452 -0.0410  0.5704  0.0197 -0.2680 -0.2918 -0.0967 -0.5675
  19.  C 7 (pz)    -0.2380 -0.4485  0.0558 -0.0967 -0.1549  0.6377 -0.3681  0.0000
  20.  H 8 (s)      0.2592 -0.3963 -0.0313  0.0542 -0.3047  0.6669 -0.3850  0.0000
  21.  H 9 (s)     -0.0713  0.2204 -0.4313 -0.2851 -0.3478 -0.2249  0.3707  0.4982
  22.  H10 (s)     -0.0713  0.2204  0.4625  0.2310 -0.3478 -0.4335  0.0094 -0.4982
  23.  C11 (s)      0.0144  0.0341 -0.0340 -0.0590 -0.0663 -0.0177 -0.0102  0.0000
  24.  C11 (s)     -0.0598 -0.1982  0.1932  0.3346  0.4290  0.1048  0.0605  0.0000
  25.  C11 (px)    -0.0783 -0.0709 -0.0197  0.5476 -0.4642  0.2403  0.2918 -0.3276
  26.  C11 (py)    -0.0452 -0.0410  0.5704 -0.0197 -0.2680  0.2918 -0.0967  0.5675
  27.  C11 (pz)    -0.2380 -0.4485  0.0558  0.0967 -0.1549 -0.6377 -0.3681  0.0000
  28.  H12 (s)      0.2592 -0.3963 -0.0313 -0.0542 -0.3047 -0.6669 -0.3850  0.0000
  29.  H13 (s)     -0.0713  0.2204  0.4625 -0.2310 -0.3478  0.4335  0.0094  0.4982
  30.  H14 (s)     -0.0713  0.2204 -0.4313  0.2851 -0.3478  0.2249  0.3707 -0.4982

           AO         25      26      27      28      29      30
      ------------ ------- ------- ------- ------- ------- -------
   1.  C 1 (s)     -0.2135  0.0000  0.0000  0.0000  0.0000 -0.0355
   2.  C 1 (s)      1.2936  0.0000  0.0000  0.0000  0.0000  0.2456
   3.  C 1 (px)     0.0000  0.1250  0.0000  0.0000  0.8600  0.0000
   4.  C 1 (py)     0.0000  0.0000  0.1250  0.8600  0.0000  0.0000
   5.  C 1 (pz)    -0.0903  0.0000  0.0000  0.0000  0.0000  0.9136
   6.  H 2 (s)     -0.5125  0.0000  0.0000  0.0000  0.0000 -0.8046
   7.  C 3 (s)      0.1292  0.0000 -0.1570  0.1060  0.0000 -0.0061
   8.  C 3 (s)     -0.8070  0.0000  1.0113 -0.6738  0.0000  0.0428
   9.  C 3 (px)     0.0000 -0.1525  0.0000  0.0000 -0.6132  0.0000
  10.  C 3 (py)     0.2749  0.0000  0.5120  0.2387  0.0000 -0.2706
  11.  C 3 (pz)     0.0260  0.0000 -0.2580 -0.4368  0.0000 -0.4354
  12.  H 4 (s)      0.3342  0.0000 -0.6719 -0.1007  0.0000 -0.3386
  13.  H 5 (s)      0.2208 -0.1315 -0.5621  0.2923 -0.3952  0.2060
  14.  H 6 (s)      0.2208  0.1315 -0.5621  0.2923  0.3952  0.2060
  15.  C 7 (s)      0.1292 -0.1359  0.0785 -0.0530  0.0918 -0.0061
  16.  C 7 (s)     -0.8070  0.8758 -0.5057  0.3369 -0.5835  0.0428
  17.  C 7 (px)     0.2381  0.3459 -0.2877 -0.3689  0.0257 -0.2344
  18.  C 7 (py)    -0.1374 -0.2877  0.0137 -0.4002 -0.3689  0.1353
  19.  C 7 (pz)     0.0260 -0.2235  0.1290  0.2184 -0.3783 -0.4354
  20.  H 8 (s)      0.3342 -0.5819  0.3359  0.0504 -0.0872 -0.3386
  21.  H 9 (s)      0.2208 -0.4211  0.3949  0.1961  0.4508  0.2060
  22.  H10 (s)      0.2208 -0.5525  0.1672 -0.4884  0.0556  0.2060
  23.  C11 (s)      0.1292  0.1359  0.0785 -0.0530 -0.0918 -0.0061
  24.  C11 (s)     -0.8070 -0.8758 -0.5057  0.3369  0.5835  0.0428
  25.  C11 (px)    -0.2381  0.3459  0.2877  0.3689  0.0257  0.2344
  26.  C11 (py)    -0.1374  0.2877  0.0137 -0.4002  0.3689  0.1353
  27.  C11 (pz)     0.0260  0.2235  0.1290  0.2184  0.3783 -0.4354
  28.  H12 (s)      0.3342  0.5819  0.3359  0.0504  0.0872 -0.3386
  29.  H13 (s)      0.2208  0.5525  0.1672 -0.4884 -0.0556  0.2060
  30.  H14 (s)      0.2208  0.4211  0.3949  0.1961 -0.4508  0.2060


 AO overlap matrix:

           AO          1       2       3       4       5       6       7       8
      ------------ ------- ------- ------- ------- ------- ------- ------- -------
   1.  C 1 (s)      1.0000  0.2484  0.0000  0.0000  0.0000  0.0611  0.0000  0.0276
   2.  C 1 (s)      0.2484  1.0000  0.0000  0.0000  0.0000  0.4860  0.0276  0.3050
   3.  C 1 (px)     0.0000  0.0000  1.0000  0.0000  0.0000  0.0000  0.0000  0.0000
   4.  C 1 (py)     0.0000  0.0000  0.0000  1.0000  0.0000  0.0000  0.0439  0.3249
   5.  C 1 (pz)     0.0000  0.0000  0.0000  0.0000  1.0000  0.4644 -0.0143 -0.1060
   6.  H 2 (s)      0.0611  0.4860  0.0000  0.0000  0.4644  1.0000  0.0057  0.1004
   7.  C 3 (s)      0.0000  0.0276  0.0000  0.0439 -0.0143  0.0057  1.0000  0.2484
   8.  C 3 (s)      0.0276  0.3050  0.0000  0.3249 -0.1060  0.1004  0.2484  1.0000
   9.  C 3 (px)     0.0000  0.0000  0.1689  0.0000  0.0000  0.0000  0.0000  0.0000
  10.  C 3 (py)    -0.0439 -0.3249  0.0000 -0.2696  0.1431 -0.0875  0.0000  0.0000
  11.  C 3 (pz)     0.0143  0.1060  0.0000  0.1431  0.1222  0.0948  0.0000  0.0000
  12.  H 4 (s)      0.0053  0.0956  0.0000  0.0852 -0.0894  0.0162  0.0615  0.4876
  13.  H 5 (s)      0.0051  0.0937 -0.0494  0.1108 -0.0065  0.0505  0.0617  0.4883
  14.  H 6 (s)      0.0051  0.0937  0.0494  0.1108 -0.0065  0.0505  0.0617  0.4883
  15.  C 7 (s)      0.0000  0.0276  0.0380 -0.0219 -0.0143  0.0057  0.0000  0.0013
  16.  C 7 (s)      0.0276  0.3050  0.2814 -0.1625 -0.1060  0.1004  0.0013  0.0498
  17.  C 7 (px)    -0.0380 -0.2814 -0.1600  0.1899  0.1239 -0.0758 -0.0015 -0.0375
  18.  C 7 (py)     0.0219  0.1625  0.1899  0.0593 -0.0715  0.0437  0.0027  0.0650
  19.  C 7 (pz)     0.0143  0.1060  0.1239 -0.0715  0.1222  0.0948  0.0000  0.0000
  20.  H 8 (s)      0.0053  0.0956  0.0738 -0.0426 -0.0894  0.0162  0.0009  0.0284
  21.  H 9 (s)      0.0051  0.0937  0.1206 -0.0126 -0.0065  0.0505  0.0010  0.0294
  22.  H10 (s)      0.0051  0.0937  0.0712 -0.0982 -0.0065  0.0505  0.0001  0.0056
  23.  C11 (s)      0.0000  0.0276 -0.0380 -0.0219 -0.0143  0.0057  0.0000  0.0013
  24.  C11 (s)      0.0276  0.3050 -0.2814 -0.1625 -0.1060  0.1004  0.0013  0.0498
  25.  C11 (px)     0.0380  0.2814 -0.1600 -0.1899 -0.1239  0.0758  0.0015  0.0375
  26.  C11 (py)     0.0219  0.1625 -0.1899  0.0593 -0.0715  0.0437  0.0027  0.0650
  27.  C11 (pz)     0.0143  0.1060 -0.1239 -0.0715  0.1222  0.0948  0.0000  0.0000
  28.  H12 (s)      0.0053  0.0956 -0.0738 -0.0426 -0.0894  0.0162  0.0009  0.0284
  29.  H13 (s)      0.0051  0.0937 -0.0712 -0.0982 -0.0065  0.0505  0.0001  0.0056
  30.  H14 (s)      0.0051  0.0937 -0.1206 -0.0126 -0.0065  0.0505  0.0010  0.0294

           AO          9      10      11      12      13      14      15      16
      ------------ ------- ------- ------- ------- ------- ------- ------- -------
   1.  C 1 (s)      0.0000 -0.0439  0.0143  0.0053  0.0051  0.0051  0.0000  0.0276
   2.  C 1 (s)      0.0000 -0.3249  0.1060  0.0956  0.0937  0.0937  0.0276  0.3050
   3.  C 1 (px)     0.1689  0.0000  0.0000  0.0000 -0.0494  0.0494  0.0380  0.2814
   4.  C 1 (py)     0.0000 -0.2696  0.1431  0.0852  0.1108  0.1108 -0.0219 -0.1625
   5.  C 1 (pz)     0.0000  0.1431  0.1222 -0.0894 -0.0065 -0.0065 -0.0143 -0.1060
   6.  H 2 (s)      0.0000 -0.0875  0.0948  0.0162  0.0505  0.0505  0.0057  0.1004
   7.  C 3 (s)      0.0000  0.0000  0.0000  0.0615  0.0617  0.0617  0.0000  0.0013
   8.  C 3 (s)      0.0000  0.0000  0.0000  0.4876  0.4883  0.4883  0.0013  0.0498
   9.  C 3 (px)     1.0000  0.0000  0.0000  0.0000 -0.3769  0.3769  0.0015  0.0375
  10.  C 3 (py)     0.0000  1.0000  0.0000  0.0186  0.2275  0.2275 -0.0027 -0.0650
  11.  C 3 (pz)     0.0000  0.0000  1.0000 -0.4650  0.1522  0.1522  0.0000  0.0000
  12.  H 4 (s)      0.0000  0.0186 -0.4650  1.0000  0.1718  0.1718  0.0009  0.0284
  13.  H 5 (s)     -0.3769  0.2275  0.1522  0.1718  1.0000  0.1716  0.0001  0.0056
  14.  H 6 (s)      0.3769  0.2275  0.1522  0.1718  0.1716  1.0000  0.0010  0.0294
  15.  C 7 (s)      0.0015 -0.0027  0.0000  0.0009  0.0001  0.0010  1.0000  0.2484
  16.  C 7 (s)      0.0375 -0.0650  0.0000  0.0284  0.0056  0.0294  0.2484  1.0000
  17.  C 7 (px)    -0.0106  0.0537  0.0000 -0.0190 -0.0057 -0.0058  0.0000  0.0000
  18.  C 7 (py)     0.0537 -0.0726  0.0000  0.0335  0.0073  0.0425  0.0000  0.0000
  19.  C 7 (pz)     0.0000  0.0000  0.0204 -0.0165  0.0010  0.0056  0.0000  0.0000
  20.  H 8 (s)      0.0195 -0.0332 -0.0165  0.0419  0.0030  0.0141  0.0615  0.4876
  21.  H 9 (s)      0.0339 -0.0263  0.0056  0.0141  0.0032  0.0449  0.0617  0.4883
  22.  H10 (s)      0.0034 -0.0086  0.0010  0.0030  0.0008  0.0032  0.0617  0.4883
  23.  C11 (s)     -0.0015 -0.0027  0.0000  0.0009  0.0010  0.0001  0.0000  0.0013
  24.  C11 (s)     -0.0375 -0.0650  0.0000  0.0284  0.0294  0.0056  0.0013  0.0498
  25.  C11 (px)    -0.0106 -0.0537  0.0000  0.0190  0.0058  0.0057  0.0031  0.0751
  26.  C11 (py)    -0.0537 -0.0726  0.0000  0.0335  0.0425  0.0073  0.0000  0.0000
  27.  C11 (pz)     0.0000  0.0000  0.0204 -0.0165  0.0056  0.0010  0.0000  0.0000
  28.  H12 (s)     -0.0195 -0.0332 -0.0165  0.0419  0.0141  0.0030  0.0009  0.0284
  29.  H13 (s)     -0.0034 -0.0086  0.0010  0.0030  0.0032  0.0008  0.0010  0.0294
  30.  H14 (s)     -0.0339 -0.0263  0.0056  0.0141  0.0449  0.0032  0.0001  0.0056

           AO         17      18      19      20      21      22      23      24
      ------------ ------- ------- ------- ------- ------- ------- ------- -------
   1.  C 1 (s)     -0.0380  0.0219  0.0143  0.0053  0.0051  0.0051  0.0000  0.0276
   2.  C 1 (s)     -0.2814  0.1625  0.1060  0.0956  0.0937  0.0937  0.0276  0.3050
   3.  C 1 (px)    -0.1600  0.1899  0.1239  0.0738  0.1206  0.0712 -0.0380 -0.2814
   4.  C 1 (py)     0.1899  0.0593 -0.0715 -0.0426 -0.0126 -0.0982 -0.0219 -0.1625
   5.  C 1 (pz)     0.1239 -0.0715  0.1222 -0.0894 -0.0065 -0.0065 -0.0143 -0.1060
   6.  H 2 (s)     -0.0758  0.0437  0.0948  0.0162  0.0505  0.0505  0.0057  0.1004
   7.  C 3 (s)     -0.0015  0.0027  0.0000  0.0009  0.0010  0.0001  0.0000  0.0013
   8.  C 3 (s)     -0.0375  0.0650  0.0000  0.0284  0.0294  0.0056  0.0013  0.0498
   9.  C 3 (px)    -0.0106  0.0537  0.0000  0.0195  0.0339  0.0034 -0.0015 -0.0375
  10.  C 3 (py)     0.0537 -0.0726  0.0000 -0.0332 -0.0263 -0.0086 -0.0027 -0.0650
  11.  C 3 (pz)     0.0000  0.0000  0.0204 -0.0165  0.0056  0.0010  0.0000  0.0000
  12.  H 4 (s)     -0.0190  0.0335 -0.0165  0.0419  0.0141  0.0030  0.0009  0.0284
  13.  H 5 (s)     -0.0057  0.0073  0.0010  0.0030  0.0032  0.0008  0.0010  0.0294
  14.  H 6 (s)     -0.0058  0.0425  0.0056  0.0141  0.0449  0.0032  0.0001  0.0056
  15.  C 7 (s)      0.0000  0.0000  0.0000  0.0615  0.0617  0.0617  0.0000  0.0013
  16.  C 7 (s)      0.0000  0.0000  0.0000  0.4876  0.4883  0.4883  0.0013  0.0498
  17.  C 7 (px)     1.0000  0.0000  0.0000  0.0161  0.3855  0.0085 -0.0031 -0.0751
  18.  C 7 (py)     0.0000  1.0000  0.0000 -0.0093  0.2127 -0.4401  0.0000  0.0000
  19.  C 7 (pz)     0.0000  0.0000  1.0000 -0.4650  0.1522  0.1522  0.0000  0.0000
  20.  H 8 (s)      0.0161 -0.0093 -0.4650  1.0000  0.1718  0.1718  0.0009  0.0284
  21.  H 9 (s)      0.3855  0.2127  0.1522  0.1718  1.0000  0.1716  0.0001  0.0056
  22.  H10 (s)      0.0085 -0.4401  0.1522  0.1718  0.1716  1.0000  0.0010  0.0294
  23.  C11 (s)     -0.0031  0.0000  0.0000  0.0009  0.0001  0.0010  1.0000  0.2484
  24.  C11 (s)     -0.0751  0.0000  0.0000  0.0284  0.0056  0.0294  0.2484  1.0000
  25.  C11 (px)    -0.1036  0.0000  0.0000  0.0385  0.0092  0.0397  0.0000  0.0000
  26.  C11 (py)     0.0000  0.0204  0.0000 -0.0003  0.0013 -0.0162  0.0000  0.0000
  27.  C11 (pz)     0.0000  0.0000  0.0204 -0.0165  0.0010  0.0056  0.0000  0.0000
  28.  H12 (s)     -0.0385 -0.0003 -0.0165  0.0419  0.0030  0.0141  0.0615  0.4876
  29.  H13 (s)     -0.0397 -0.0162  0.0056  0.0141  0.0032  0.0449  0.0617  0.4883
  30.  H14 (s)     -0.0092  0.0013  0.0010  0.0030  0.0008  0.0032  0.0617  0.4883

           AO         25      26      27      28      29      30
      ------------ ------- ------- ------- ------- ------- -------
   1.  C 1 (s)      0.0380  0.0219  0.0143  0.0053  0.0051  0.0051
   2.  C 1 (s)      0.2814  0.1625  0.1060  0.0956  0.0937  0.0937
   3.  C 1 (px)    -0.1600 -0.1899 -0.1239 -0.0738 -0.0712 -0.1206
   4.  C 1 (py)    -0.1899  0.0593 -0.0715 -0.0426 -0.0982 -0.0126
   5.  C 1 (pz)    -0.1239 -0.0715  0.1222 -0.0894 -0.0065 -0.0065
   6.  H 2 (s)      0.0758  0.0437  0.0948  0.0162  0.0505  0.0505
   7.  C 3 (s)      0.0015  0.0027  0.0000  0.0009  0.0001  0.0010
   8.  C 3 (s)      0.0375  0.0650  0.0000  0.0284  0.0056  0.0294
   9.  C 3 (px)    -0.0106 -0.0537  0.0000 -0.0195 -0.0034 -0.0339
  10.  C 3 (py)    -0.0537 -0.0726  0.0000 -0.0332 -0.0086 -0.0263
  11.  C 3 (pz)     0.0000  0.0000  0.0204 -0.0165  0.0010  0.0056
  12.  H 4 (s)      0.0190  0.0335 -0.0165  0.0419  0.0030  0.0141
  13.  H 5 (s)      0.0058  0.0425  0.0056  0.0141  0.0032  0.0449
  14.  H 6 (s)      0.0057  0.0073  0.0010  0.0030  0.0008  0.0032
  15.  C 7 (s)      0.0031  0.0000  0.0000  0.0009  0.0010  0.0001
  16.  C 7 (s)      0.0751  0.0000  0.0000  0.0284  0.0294  0.0056
  17.  C 7 (px)    -0.1036  0.0000  0.0000 -0.0385 -0.0397 -0.0092
  18.  C 7 (py)     0.0000  0.0204  0.0000 -0.0003 -0.0162  0.0013
  19.  C 7 (pz)     0.0000  0.0000  0.0204 -0.0165  0.0056  0.0010
  20.  H 8 (s)      0.0385 -0.0003 -0.0165  0.0419  0.0141  0.0030
  21.  H 9 (s)      0.0092  0.0013  0.0010  0.0030  0.0032  0.0008
  22.  H10 (s)      0.0397 -0.0162  0.0056  0.0141  0.0449  0.0032
  23.  C11 (s)      0.0000  0.0000  0.0000  0.0615  0.0617  0.0617
  24.  C11 (s)      0.0000  0.0000  0.0000  0.4876  0.4883  0.4883
  25.  C11 (px)     1.0000  0.0000  0.0000 -0.0161 -0.0085 -0.3855
  26.  C11 (py)     0.0000  1.0000  0.0000 -0.0093 -0.4401  0.2127
  27.  C11 (pz)     0.0000  0.0000  1.0000 -0.4650  0.1522  0.1522
  28.  H12 (s)     -0.0161 -0.0093 -0.4650  1.0000  0.1718  0.1718
  29.  H13 (s)     -0.0085 -0.4401  0.1522  0.1718  1.0000  0.1716
  30.  H14 (s)     -0.3855  0.2127  0.1522  0.1718  0.1716  1.0000


 AO bond-order matrix:

           AO          1       2       3       4       5       6       7       8
      ------------ ------- ------- ------- ------- ------- ------- ------- -------
   1.  C 1 (s)      2.0662 -0.2141  0.0000  0.0000  0.0001 -0.0935  0.0159 -0.0401
   2.  C 1 (s)     -0.2141  0.8545  0.0000  0.0000 -0.0168  0.2176 -0.0385  0.0451
   3.  C 1 (px)     0.0000  0.0000  0.6294  0.0000  0.0000  0.0000  0.0000  0.0000
   4.  C 1 (py)     0.0000  0.0000  0.0000  0.6294  0.0000  0.0000 -0.0910  0.2674
   5.  C 1 (pz)     0.0001 -0.0168  0.0000  0.0000  0.6453  0.6071  0.0333 -0.1071
   6.  H 2 (s)     -0.0935  0.2176  0.0000  0.0000  0.6071  0.6503  0.0223 -0.0924
   7.  C 3 (s)      0.0159 -0.0385  0.0000 -0.0910  0.0333  0.0223  2.0669 -0.2110
   8.  C 3 (s)     -0.0401  0.0451  0.0000  0.2674 -0.1071 -0.0924 -0.2110  0.8331
   9.  C 3 (px)     0.0000  0.0000  0.0016  0.0000  0.0000  0.0000  0.0000  0.0000
  10.  C 3 (py)     0.0892 -0.2567  0.0000 -0.4891  0.1725  0.0794  0.0047 -0.0346
  11.  C 3 (pz)    -0.0282  0.0824  0.0000  0.1666 -0.0600 -0.0867 -0.0016  0.0121
  12.  H 4 (s)      0.0177 -0.0722  0.0000 -0.0723  0.0957  0.1204 -0.0924  0.2185
  13.  H 5 (s)      0.0189 -0.0709  0.0513 -0.0988 -0.0011 -0.0440 -0.0933  0.2226
  14.  H 6 (s)      0.0189 -0.0709 -0.0513 -0.0988 -0.0011 -0.0440 -0.0933  0.2226
  15.  C 7 (s)      0.0159 -0.0385 -0.0788  0.0455  0.0333  0.0223 -0.0042  0.0156
  16.  C 7 (s)     -0.0401  0.0451  0.2316 -0.1337 -0.1071 -0.0924  0.0156 -0.0520
  17.  C 7 (px)     0.0773 -0.2223 -0.3664  0.2125  0.1494  0.0687 -0.0079  0.0306
  18.  C 7 (py)    -0.0446  0.1284  0.2125 -0.1211 -0.0863 -0.0397  0.0183 -0.0778
  19.  C 7 (pz)    -0.0282  0.0824  0.1443 -0.0833 -0.0600 -0.0867 -0.0015  0.0091
  20.  H 8 (s)      0.0177 -0.0722 -0.0626  0.0362  0.0957  0.1204  0.0091 -0.0345
  21.  H 9 (s)      0.0189 -0.0709 -0.1112  0.0050 -0.0011 -0.0440  0.0085 -0.0306
  22.  H10 (s)      0.0189 -0.0709 -0.0599  0.0938 -0.0011 -0.0440 -0.0194  0.0789
  23.  C11 (s)      0.0159 -0.0385  0.0788  0.0455  0.0333  0.0223 -0.0042  0.0156
  24.  C11 (s)     -0.0401  0.0451 -0.2316 -0.1337 -0.1071 -0.0924  0.0156 -0.0520
  25.  C11 (px)    -0.0773  0.2223 -0.3664 -0.2125 -0.1494 -0.0687  0.0079 -0.0306
  26.  C11 (py)    -0.0446  0.1284 -0.2125 -0.1211 -0.0863 -0.0397  0.0183 -0.0778
  27.  C11 (pz)    -0.0282  0.0824 -0.1443 -0.0833 -0.0600 -0.0867 -0.0015  0.0091
  28.  H12 (s)      0.0177 -0.0722  0.0626  0.0362  0.0957  0.1204  0.0091 -0.0345
  29.  H13 (s)      0.0189 -0.0709  0.0599  0.0938 -0.0011 -0.0440 -0.0194  0.0789
  30.  H14 (s)      0.0189 -0.0709  0.1112  0.0050 -0.0011 -0.0440  0.0085 -0.0306

           AO          9      10      11      12      13      14      15      16
      ------------ ------- ------- ------- ------- ------- ------- ------- -------
   1.  C 1 (s)      0.0000  0.0892 -0.0282  0.0177  0.0189  0.0189  0.0159 -0.0401
   2.  C 1 (s)      0.0000 -0.2567  0.0824 -0.0722 -0.0709 -0.0709 -0.0385  0.0451
   3.  C 1 (px)     0.0016  0.0000  0.0000  0.0000  0.0513 -0.0513 -0.0788  0.2316
   4.  C 1 (py)     0.0000 -0.4891  0.1666 -0.0723 -0.0988 -0.0988  0.0455 -0.1337
   5.  C 1 (pz)     0.0000  0.1725 -0.0600  0.0957 -0.0011 -0.0011  0.0333 -0.1071
   6.  H 2 (s)      0.0000  0.0794 -0.0867  0.1204 -0.0440 -0.0440  0.0223 -0.0924
   7.  C 3 (s)      0.0000  0.0047 -0.0016 -0.0924 -0.0933 -0.0933 -0.0042  0.0156
   8.  C 3 (s)      0.0000 -0.0346  0.0121  0.2185  0.2226  0.2226  0.0156 -0.0520
   9.  C 3 (px)     0.6505  0.0000  0.0000  0.0000 -0.4925  0.4925  0.0119 -0.0521
  10.  C 3 (py)     0.0000  0.6434  0.0016  0.0073  0.2758  0.2758 -0.0160  0.0654
  11.  C 3 (pz)     0.0000  0.0016  0.6505 -0.6036  0.2069  0.2069 -0.0015  0.0091
  12.  H 4 (s)      0.0000  0.0073 -0.6036  0.6323 -0.1263 -0.1263  0.0091 -0.0345
  13.  H 5 (s)     -0.4925  0.2758  0.2069 -0.1263  0.6293 -0.1261 -0.0194  0.0789
  14.  H 6 (s)      0.4925  0.2758  0.2069 -0.1263 -0.1261  0.6293  0.0085 -0.0306
  15.  C 7 (s)      0.0119 -0.0160 -0.0015  0.0091 -0.0194  0.0085  2.0669 -0.2110
  16.  C 7 (s)     -0.0521  0.0654  0.0091 -0.0345  0.0789 -0.0306 -0.2110  0.8331
  17.  C 7 (px)     0.0145 -0.0629 -0.0062  0.0308 -0.0706  0.0154  0.0040 -0.0300
  18.  C 7 (py)    -0.0278  0.0669 -0.0179 -0.0192  0.0616 -0.0283 -0.0023  0.0173
  19.  C 7 (pz)    -0.0186  0.0035 -0.0217  0.0036  0.0207 -0.0150 -0.0016  0.0121
  20.  H 8 (s)     -0.0013  0.0363  0.0036  0.0093  0.0034 -0.0007 -0.0924  0.2185
  21.  H 9 (s)     -0.0167  0.0275 -0.0150 -0.0007  0.0069  0.0045 -0.0933  0.2226
  22.  H10 (s)      0.0180 -0.0919  0.0207  0.0034 -0.0483  0.0069 -0.0933  0.2226
  23.  C11 (s)     -0.0119 -0.0160 -0.0015  0.0091  0.0085 -0.0194 -0.0042  0.0156
  24.  C11 (s)      0.0521  0.0654  0.0091 -0.0345 -0.0306  0.0789  0.0156 -0.0520
  25.  C11 (px)     0.0145  0.0629  0.0062 -0.0308 -0.0154  0.0706  0.0198 -0.0827
  26.  C11 (py)     0.0278  0.0669 -0.0179 -0.0192 -0.0283  0.0616 -0.0023  0.0124
  27.  C11 (pz)     0.0186  0.0035 -0.0217  0.0036 -0.0150  0.0207 -0.0015  0.0091
  28.  H12 (s)      0.0013  0.0363  0.0036  0.0093 -0.0007  0.0034  0.0091 -0.0345
  29.  H13 (s)     -0.0180 -0.0919  0.0207  0.0034  0.0069 -0.0483  0.0085 -0.0306
  30.  H14 (s)      0.0167  0.0275 -0.0150 -0.0007  0.0045  0.0069 -0.0194  0.0789

           AO         17      18      19      20      21      22      23      24
      ------------ ------- ------- ------- ------- ------- ------- ------- -------
   1.  C 1 (s)      0.0773 -0.0446 -0.0282  0.0177  0.0189  0.0189  0.0159 -0.0401
   2.  C 1 (s)     -0.2223  0.1284  0.0824 -0.0722 -0.0709 -0.0709 -0.0385  0.0451
   3.  C 1 (px)    -0.3664  0.2125  0.1443 -0.0626 -0.1112 -0.0599  0.0788 -0.2316
   4.  C 1 (py)     0.2125 -0.1211 -0.0833  0.0362  0.0050  0.0938  0.0455 -0.1337
   5.  C 1 (pz)     0.1494 -0.0863 -0.0600  0.0957 -0.0011 -0.0011  0.0333 -0.1071
   6.  H 2 (s)      0.0687 -0.0397 -0.0867  0.1204 -0.0440 -0.0440  0.0223 -0.0924
   7.  C 3 (s)     -0.0079  0.0183 -0.0015  0.0091  0.0085 -0.0194 -0.0042  0.0156
   8.  C 3 (s)      0.0306 -0.0778  0.0091 -0.0345 -0.0306  0.0789  0.0156 -0.0520
   9.  C 3 (px)     0.0145 -0.0278 -0.0186 -0.0013 -0.0167  0.0180 -0.0119  0.0521
  10.  C 3 (py)    -0.0629  0.0669  0.0035  0.0363  0.0275 -0.0919 -0.0160  0.0654
  11.  C 3 (pz)    -0.0062 -0.0179 -0.0217  0.0036 -0.0150  0.0207 -0.0015  0.0091
  12.  H 4 (s)      0.0308 -0.0192  0.0036  0.0093 -0.0007  0.0034  0.0091 -0.0345
  13.  H 5 (s)     -0.0706  0.0616  0.0207  0.0034  0.0069 -0.0483  0.0085 -0.0306
  14.  H 6 (s)      0.0154 -0.0283 -0.0150 -0.0007  0.0045  0.0069 -0.0194  0.0789
  15.  C 7 (s)      0.0040 -0.0023 -0.0016 -0.0924 -0.0933 -0.0933 -0.0042  0.0156
  16.  C 7 (s)     -0.0300  0.0173  0.0121  0.2185  0.2226  0.2226  0.0156 -0.0520
  17.  C 7 (px)     0.6452  0.0031  0.0014  0.0063  0.4851 -0.0074 -0.0198  0.0827
  18.  C 7 (py)     0.0031  0.6487 -0.0008 -0.0037  0.2886 -0.5645 -0.0023  0.0124
  19.  C 7 (pz)     0.0014 -0.0008  0.6505 -0.6036  0.2069  0.2069 -0.0015  0.0091
  20.  H 8 (s)      0.0063 -0.0037 -0.6036  0.6323 -0.1263 -0.1263  0.0091 -0.0345
  21.  H 9 (s)      0.4851  0.2886  0.2069 -0.1263  0.6293 -0.1261 -0.0194  0.0789
  22.  H10 (s)     -0.0074 -0.5645  0.2069 -0.1263 -0.1261  0.6293  0.0085 -0.0306
  23.  C11 (s)     -0.0198 -0.0023 -0.0015  0.0091 -0.0194  0.0085  2.0669 -0.2110
  24.  C11 (s)      0.0827  0.0124  0.0091 -0.0345  0.0789 -0.0306 -0.2110  0.8331
  25.  C11 (px)     0.0931 -0.0175 -0.0124 -0.0321  0.0886 -0.0322 -0.0040  0.0300
  26.  C11 (py)     0.0175 -0.0117  0.0144 -0.0171  0.0303  0.0007 -0.0023  0.0173
  27.  C11 (pz)     0.0124  0.0144 -0.0217  0.0036  0.0207 -0.0150 -0.0016  0.0121
  28.  H12 (s)      0.0321 -0.0171  0.0036  0.0093  0.0034 -0.0007 -0.0924  0.2185
  29.  H13 (s)      0.0322  0.0007 -0.0150 -0.0007  0.0069  0.0045 -0.0933  0.2226
  30.  H14 (s)     -0.0886  0.0303  0.0207  0.0034 -0.0483  0.0069 -0.0933  0.2226

           AO         25      26      27      28      29      30
      ------------ ------- ------- ------- ------- ------- -------
   1.  C 1 (s)     -0.0773 -0.0446 -0.0282  0.0177  0.0189  0.0189
   2.  C 1 (s)      0.2223  0.1284  0.0824 -0.0722 -0.0709 -0.0709
   3.  C 1 (px)    -0.3664 -0.2125 -0.1443  0.0626  0.0599  0.1112
   4.  C 1 (py)    -0.2125 -0.1211 -0.0833  0.0362  0.0938  0.0050
   5.  C 1 (pz)    -0.1494 -0.0863 -0.0600  0.0957 -0.0011 -0.0011
   6.  H 2 (s)     -0.0687 -0.0397 -0.0867  0.1204 -0.0440 -0.0440
   7.  C 3 (s)      0.0079  0.0183 -0.0015  0.0091 -0.0194  0.0085
   8.  C 3 (s)     -0.0306 -0.0778  0.0091 -0.0345  0.0789 -0.0306
   9.  C 3 (px)     0.0145  0.0278  0.0186  0.0013 -0.0180  0.0167
  10.  C 3 (py)     0.0629  0.0669  0.0035  0.0363 -0.0919  0.0275
  11.  C 3 (pz)     0.0062 -0.0179 -0.0217  0.0036  0.0207 -0.0150
  12.  H 4 (s)     -0.0308 -0.0192  0.0036  0.0093  0.0034 -0.0007
  13.  H 5 (s)     -0.0154 -0.0283 -0.0150 -0.0007  0.0069  0.0045
  14.  H 6 (s)      0.0706  0.0616  0.0207  0.0034 -0.0483  0.0069
  15.  C 7 (s)      0.0198 -0.0023 -0.0015  0.0091  0.0085 -0.0194
  16.  C 7 (s)     -0.0827  0.0124  0.0091 -0.0345 -0.0306  0.0789
  17.  C 7 (px)     0.0931  0.0175  0.0124  0.0321  0.0322 -0.0886
  18.  C 7 (py)    -0.0175 -0.0117  0.0144 -0.0171  0.0007  0.0303
  19.  C 7 (pz)    -0.0124  0.0144 -0.0217  0.0036 -0.0150  0.0207
  20.  H 8 (s)     -0.0321 -0.0171  0.0036  0.0093 -0.0007  0.0034
  21.  H 9 (s)      0.0886  0.0303  0.0207  0.0034  0.0069 -0.0483
  22.  H10 (s)     -0.0322  0.0007 -0.0150 -0.0007  0.0045  0.0069
  23.  C11 (s)     -0.0040 -0.0023 -0.0016 -0.0924 -0.0933 -0.0933
  24.  C11 (s)      0.0300  0.0173  0.0121  0.2185  0.2226  0.2226
  25.  C11 (px)     0.6452 -0.0031 -0.0014 -0.0063  0.0074 -0.4851
  26.  C11 (py)    -0.0031  0.6487 -0.0008 -0.0037 -0.5645  0.2886
  27.  C11 (pz)    -0.0014 -0.0008  0.6505 -0.6036  0.2069  0.2069
  28.  H12 (s)     -0.0063 -0.0037 -0.6036  0.6323 -0.1263 -0.1263
  29.  H13 (s)      0.0074 -0.5645  0.2069 -0.1263  0.6293 -0.1261
  30.  H14 (s)     -0.4851  0.2886  0.2069 -0.1263 -0.1261  0.6293


 AO density matrix:

           AO          1       2       3       4       5       6       7       8
      ------------ ------- ------- ------- ------- ------- ------- ------- -------
   1.  C 1 (s)      1.9995  0.5053  0.0000  0.0000 -0.0006  0.1154  0.0001  0.0527
   2.  C 1 (s)      0.5053  1.8525  0.0000  0.0000  0.0215  1.0771  0.0527  0.6519
   3.  C 1 (px)     0.0000  0.0000  1.5486  0.0000  0.0000  0.0000  0.0000  0.0000
   4.  C 1 (py)     0.0000  0.0000  0.0000  1.5486  0.0000  0.0000  0.0814  0.7654
   5.  C 1 (pz)    -0.0006  0.0215  0.0000  0.0000  1.5916  1.2510 -0.0263 -0.2537
   6.  H 2 (s)      0.1154  1.0771  0.0000  0.0000  1.2510  1.6344  0.0115  0.1999
   7.  C 3 (s)      0.0001  0.0527  0.0000  0.0814 -0.0263  0.0115  1.9995  0.5048
   8.  C 3 (s)      0.0527  0.6519  0.0000  0.7654 -0.2537  0.1999  0.5048  1.8672
   9.  C 3 (px)     0.0000  0.0000  0.3539  0.0000  0.0000  0.0000  0.0000  0.0000
  10.  C 3 (py)    -0.0814 -0.7643  0.0000 -0.8259  0.3918 -0.1607 -0.0004  0.0192
  11.  C 3 (pz)     0.0265  0.2506  0.0000  0.3878  0.2273  0.2074  0.0001 -0.0069
  12.  H 4 (s)      0.0108  0.1901  0.0000  0.1533 -0.1894  0.0714  0.1161  1.0838
  13.  H 5 (s)      0.0106  0.1838 -0.1172  0.2147  0.0015  0.0802  0.1164  1.0865
  14.  H 6 (s)      0.0106  0.1838  0.1172  0.2147  0.0015  0.0802  0.1164  1.0865
  15.  C 7 (s)      0.0001  0.0527  0.0705 -0.0407 -0.0263  0.0115  0.0000  0.0028
  16.  C 7 (s)      0.0527  0.6519  0.6629 -0.3827 -0.2537  0.1999  0.0028  0.0976
  17.  C 7 (px)    -0.0705 -0.6619 -0.5309  0.5109  0.3393 -0.1392 -0.0033 -0.0732
  18.  C 7 (py)     0.0407  0.3821  0.5109  0.0590 -0.1959  0.0803  0.0053  0.1326
  19.  C 7 (pz)     0.0265  0.2506  0.3358 -0.1939  0.2273  0.2074  0.0002 -0.0024
  20.  H 8 (s)      0.0108  0.1901  0.1327 -0.0766 -0.1894  0.0714  0.0021  0.0516
  21.  H 9 (s)      0.0106  0.1838  0.2445 -0.0058  0.0015  0.0802  0.0022  0.0541
  22.  H10 (s)      0.0106  0.1838  0.1273 -0.2089  0.0015  0.0802 -0.0008  0.0267
  23.  C11 (s)      0.0001  0.0527 -0.0705 -0.0407 -0.0263  0.0115  0.0000  0.0028
  24.  C11 (s)      0.0527  0.6519 -0.6629 -0.3827 -0.2537  0.1999  0.0028  0.0976
  25.  C11 (px)     0.0705  0.6619 -0.5309 -0.5109 -0.3393  0.1392  0.0033  0.0732
  26.  C11 (py)     0.0407  0.3821 -0.5109  0.0590 -0.1959  0.0803  0.0053  0.1326
  27.  C11 (pz)     0.0265  0.2506 -0.3358 -0.1939  0.2273  0.2074  0.0002 -0.0024
  28.  H12 (s)      0.0108  0.1901 -0.1327 -0.0766 -0.1894  0.0714  0.0021  0.0516
  29.  H13 (s)      0.0106  0.1838 -0.1273 -0.2089  0.0015  0.0802 -0.0008  0.0267
  30.  H14 (s)      0.0106  0.1838 -0.2445 -0.0058  0.0015  0.0802  0.0022  0.0541

           AO          9      10      11      12      13      14      15      16
      ------------ ------- ------- ------- ------- ------- ------- ------- -------
   1.  C 1 (s)      0.0000 -0.0814  0.0265  0.0108  0.0106  0.0106  0.0001  0.0527
   2.  C 1 (s)      0.0000 -0.7643  0.2506  0.1901  0.1838  0.1838  0.0527  0.6519
   3.  C 1 (px)     0.3539  0.0000  0.0000  0.0000 -0.1172  0.1172  0.0705  0.6629
   4.  C 1 (py)     0.0000 -0.8259  0.3878  0.1533  0.2147  0.2147 -0.0407 -0.3827
   5.  C 1 (pz)     0.0000  0.3918  0.2273 -0.1894  0.0015  0.0015 -0.0263 -0.2537
   6.  H 2 (s)      0.0000 -0.1607  0.2074  0.0714  0.0802  0.0802  0.0115  0.1999
   7.  C 3 (s)      0.0000 -0.0004  0.0001  0.1161  0.1164  0.1164  0.0000  0.0028
   8.  C 3 (s)      0.0000  0.0192 -0.0069  1.0838  1.0865  1.0865  0.0028  0.0976
   9.  C 3 (px)     1.6051  0.0000  0.0000  0.0000 -1.0162  1.0162  0.0029  0.0782
  10.  C 3 (py)     0.0000  1.5621  0.0155  0.0469  0.6069  0.6069 -0.0055 -0.1297
  11.  C 3 (pz)     0.0000  0.0155  1.5984 -1.2539  0.4130  0.4130  0.0002 -0.0024
  12.  H 4 (s)      0.0000  0.0469 -1.2539  1.6378  0.3342  0.3342  0.0021  0.0516
  13.  H 5 (s)     -1.0162  0.6069  0.4130  0.3342  1.6376  0.3337 -0.0008  0.0267
  14.  H 6 (s)      1.0162  0.6069  0.4130  0.3342  0.3337  1.6376  0.0022  0.0541
  15.  C 7 (s)      0.0029 -0.0055  0.0002  0.0021 -0.0008  0.0022  1.9995  0.5048
  16.  C 7 (s)      0.0782 -0.1297 -0.0024  0.0516  0.0267  0.0541  0.5048  1.8672
  17.  C 7 (px)    -0.0375  0.0908  0.0111 -0.0210 -0.0415  0.0061 -0.0003  0.0167
  18.  C 7 (py)     0.1160 -0.1568 -0.0041  0.0595  0.0266  0.0777  0.0002 -0.0096
  19.  C 7 (pz)     0.0020  0.0117  0.0283 -0.0404  0.0152  0.0045  0.0001 -0.0069
  20.  H 8 (s)      0.0410 -0.0479 -0.0404  0.0847  0.0071  0.0265  0.1161  1.0838
  21.  H 9 (s)      0.0704 -0.0335  0.0045  0.0265  0.0074  0.0887  0.1164  1.0865
  22.  H10 (s)      0.0023 -0.0493  0.0152  0.0071 -0.0170  0.0074  0.1164  1.0865
  23.  C11 (s)     -0.0029 -0.0055  0.0002  0.0021  0.0022 -0.0008  0.0000  0.0028
  24.  C11 (s)     -0.0782 -0.1297 -0.0024  0.0516  0.0541  0.0267  0.0028  0.0976
  25.  C11 (px)    -0.0375 -0.0908 -0.0111  0.0210 -0.0061  0.0415  0.0062  0.1515
  26.  C11 (py)    -0.1160 -0.1568 -0.0041  0.0595  0.0777  0.0266  0.0002 -0.0029
  27.  C11 (pz)    -0.0020  0.0117  0.0283 -0.0404  0.0045  0.0152  0.0002 -0.0024
  28.  H12 (s)     -0.0410 -0.0479 -0.0404  0.0847  0.0265  0.0071  0.0021  0.0516
  29.  H13 (s)     -0.0023 -0.0493  0.0152  0.0071  0.0074 -0.0170  0.0022  0.0541
  30.  H14 (s)     -0.0704 -0.0335  0.0045  0.0265  0.0887  0.0074 -0.0008  0.0267

           AO         17      18      19      20      21      22      23      24
      ------------ ------- ------- ------- ------- ------- ------- ------- -------
   1.  C 1 (s)     -0.0705  0.0407  0.0265  0.0108  0.0106  0.0106  0.0001  0.0527
   2.  C 1 (s)     -0.6619  0.3821  0.2506  0.1901  0.1838  0.1838  0.0527  0.6519
   3.  C 1 (px)    -0.5309  0.5109  0.3358  0.1327  0.2445  0.1273 -0.0705 -0.6629
   4.  C 1 (py)     0.5109  0.0590 -0.1939 -0.0766 -0.0058 -0.2089 -0.0407 -0.3827
   5.  C 1 (pz)     0.3393 -0.1959  0.2273 -0.1894  0.0015  0.0015 -0.0263 -0.2537
   6.  H 2 (s)     -0.1392  0.0803  0.2074  0.0714  0.0802  0.0802  0.0115  0.1999
   7.  C 3 (s)     -0.0033  0.0053  0.0002  0.0021  0.0022 -0.0008  0.0000  0.0028
   8.  C 3 (s)     -0.0732  0.1326 -0.0024  0.0516  0.0541  0.0267  0.0028  0.0976
   9.  C 3 (px)    -0.0375  0.1160  0.0020  0.0410  0.0704  0.0023 -0.0029 -0.0782
  10.  C 3 (py)     0.0908 -0.1568  0.0117 -0.0479 -0.0335 -0.0493 -0.0055 -0.1297
  11.  C 3 (pz)     0.0111 -0.0041  0.0283 -0.0404  0.0045  0.0152  0.0002 -0.0024
  12.  H 4 (s)     -0.0210  0.0595 -0.0404  0.0847  0.0265  0.0071  0.0021  0.0516
  13.  H 5 (s)     -0.0415  0.0266  0.0152  0.0071  0.0074 -0.0170  0.0022  0.0541
  14.  H 6 (s)      0.0061  0.0777  0.0045  0.0265  0.0887  0.0074 -0.0008  0.0267
  15.  C 7 (s)     -0.0003  0.0002  0.0001  0.1161  0.1164  0.1164  0.0000  0.0028
  16.  C 7 (s)      0.0167 -0.0096 -0.0069  1.0838  1.0865  1.0865  0.0028  0.0976
  17.  C 7 (px)     1.5729  0.0186  0.0134  0.0406  1.0337  0.0175 -0.0062 -0.1515
  18.  C 7 (py)     0.0186  1.5944 -0.0077 -0.0234  0.5766 -1.1835  0.0002 -0.0029
  19.  C 7 (pz)     0.0134 -0.0077  1.5984 -1.2539  0.4130  0.4130  0.0002 -0.0024
  20.  H 8 (s)      0.0406 -0.0234 -1.2539  1.6378  0.3342  0.3342  0.0021  0.0516
  21.  H 9 (s)      1.0337  0.5766  0.4130  0.3342  1.6376  0.3337 -0.0008  0.0267
  22.  H10 (s)      0.0175 -1.1835  0.4130  0.3342  0.3337  1.6376  0.0022  0.0541
  23.  C11 (s)     -0.0062  0.0002  0.0002  0.0021 -0.0008  0.0022  1.9995  0.5048
  24.  C11 (s)     -0.1515 -0.0029 -0.0024  0.0516  0.0267  0.0541  0.5048  1.8672
  25.  C11 (px)    -0.2165 -0.0126 -0.0091  0.0620  0.0438  0.0642  0.0003 -0.0167
  26.  C11 (py)     0.0126  0.0222 -0.0076 -0.0115  0.0227 -0.0442  0.0002 -0.0096
  27.  C11 (pz)     0.0091 -0.0076  0.0283 -0.0404  0.0152  0.0045  0.0001 -0.0069
  28.  H12 (s)     -0.0620 -0.0115 -0.0404  0.0847  0.0071  0.0265  0.1161  1.0838
  29.  H13 (s)     -0.0642 -0.0442  0.0045  0.0265  0.0074  0.0887  0.1164  1.0865
  30.  H14 (s)     -0.0438  0.0227  0.0152  0.0071 -0.0170  0.0074  0.1164  1.0865

           AO         25      26      27      28      29      30
      ------------ ------- ------- ------- ------- ------- -------
   1.  C 1 (s)      0.0705  0.0407  0.0265  0.0108  0.0106  0.0106
   2.  C 1 (s)      0.6619  0.3821  0.2506  0.1901  0.1838  0.1838
   3.  C 1 (px)    -0.5309 -0.5109 -0.3358 -0.1327 -0.1273 -0.2445
   4.  C 1 (py)    -0.5109  0.0590 -0.1939 -0.0766 -0.2089 -0.0058
   5.  C 1 (pz)    -0.3393 -0.1959  0.2273 -0.1894  0.0015  0.0015
   6.  H 2 (s)      0.1392  0.0803  0.2074  0.0714  0.0802  0.0802
   7.  C 3 (s)      0.0033  0.0053  0.0002  0.0021 -0.0008  0.0022
   8.  C 3 (s)      0.0732  0.1326 -0.0024  0.0516  0.0267  0.0541
   9.  C 3 (px)    -0.0375 -0.1160 -0.0020 -0.0410 -0.0023 -0.0704
  10.  C 3 (py)    -0.0908 -0.1568  0.0117 -0.0479 -0.0493 -0.0335
  11.  C 3 (pz)    -0.0111 -0.0041  0.0283 -0.0404  0.0152  0.0045
  12.  H 4 (s)      0.0210  0.0595 -0.0404  0.0847  0.0071  0.0265
  13.  H 5 (s)     -0.0061  0.0777  0.0045  0.0265  0.0074  0.0887
  14.  H 6 (s)      0.0415  0.0266  0.0152  0.0071 -0.0170  0.0074
  15.  C 7 (s)      0.0062  0.0002  0.0002  0.0021  0.0022 -0.0008
  16.  C 7 (s)      0.1515 -0.0029 -0.0024  0.0516  0.0541  0.0267
  17.  C 7 (px)    -0.2165  0.0126  0.0091 -0.0620 -0.0642 -0.0438
  18.  C 7 (py)    -0.0126  0.0222 -0.0076 -0.0115 -0.0442  0.0227
  19.  C 7 (pz)    -0.0091 -0.0076  0.0283 -0.0404  0.0045  0.0152
  20.  H 8 (s)      0.0620 -0.0115 -0.0404  0.0847  0.0265  0.0071
  21.  H 9 (s)      0.0438  0.0227  0.0152  0.0071  0.0074 -0.0170
  22.  H10 (s)      0.0642 -0.0442  0.0045  0.0265  0.0887  0.0074
  23.  C11 (s)      0.0003  0.0002  0.0001  0.1161  0.1164  0.1164
  24.  C11 (s)     -0.0167 -0.0096 -0.0069  1.0838  1.0865  1.0865
  25.  C11 (px)     1.5729 -0.0186 -0.0134 -0.0406 -0.0175 -1.0337
  26.  C11 (py)    -0.0186  1.5944 -0.0077 -0.0234 -1.1835  0.5766
  27.  C11 (pz)    -0.0134 -0.0077  1.5984 -1.2539  0.4130  0.4130
  28.  H12 (s)     -0.0406 -0.0234 -1.2539  1.6378  0.3342  0.3342
  29.  H13 (s)     -0.0175 -1.1835  0.4130  0.3342  1.6376  0.3337
  30.  H14 (s)     -1.0337  0.5766  0.4130  0.3342  0.3337  1.6376


 MO density matrix:

      MO     1       2       3       4       5       6       7       8       9
     ---- ------  ------  ------  ------  ------  ------  ------  ------  ------
   1.     2.0000  0.0000  0.0000  0.0000  0.0000  0.0000  0.0000  0.0000  0.0000
   2.     0.0000  2.0000  0.0000  0.0000  0.0000  0.0000  0.0000  0.0000  0.0000
   3.     0.0000  0.0000  2.0000  0.0000  0.0000  0.0000  0.0000  0.0000  0.0000
   4.     0.0000  0.0000  0.0000  2.0000  0.0000  0.0000  0.0000  0.0000  0.0000
   5.     0.0000  0.0000  0.0000  0.0000  2.0000  0.0000  0.0000  0.0000  0.0000
   6.     0.0000  0.0000  0.0000  0.0000  0.0000  2.0000  0.0000  0.0000  0.0000
   7.     0.0000  0.0000  0.0000  0.0000  0.0000  0.0000  2.0000  0.0000  0.0000
   8.     0.0000  0.0000  0.0000  0.0000  0.0000  0.0000  0.0000  2.0000  0.0000
   9.     0.0000  0.0000  0.0000  0.0000  0.0000  0.0000  0.0000  0.0000  2.0000
  10.     0.0000  0.0000  0.0000  0.0000  0.0000  0.0000  0.0000  0.0000  0.0000
  11.     0.0000  0.0000  0.0000  0.0000  0.0000  0.0000  0.0000  0.0000  0.0000
  12.     0.0000  0.0000  0.0000  0.0000  0.0000  0.0000  0.0000  0.0000  0.0000
  13.     0.0000  0.0000  0.0000  0.0000  0.0000  0.0000  0.0000  0.0000  0.0000
  14.     0.0000  0.0000  0.0000  0.0000  0.0000  0.0000  0.0000  0.0000  0.0000
  15.     0.0000  0.0000  0.0000  0.0000  0.0000  0.0000  0.0000  0.0000  0.0000
  16.     0.0000  0.0000  0.0000  0.0000  0.0000  0.0000  0.0000  0.0000  0.0000
  17.     0.0000  0.0000  0.0000  0.0000  0.0000  0.0000  0.0000  0.0000  0.0000
  18.     0.0000  0.0000  0.0000  0.0000  0.0000  0.0000  0.0000  0.0000  0.0000
  19.     0.0000  0.0000  0.0000  0.0000  0.0000  0.0000  0.0000  0.0000  0.0000
  20.     0.0000  0.0000  0.0000  0.0000  0.0000  0.0000  0.0000  0.0000  0.0000
  21.     0.0000  0.0000  0.0000  0.0000  0.0000  0.0000  0.0000  0.0000  0.0000
  22.     0.0000  0.0000  0.0000  0.0000  0.0000  0.0000  0.0000  0.0000  0.0000
  23.     0.0000  0.0000  0.0000  0.0000  0.0000  0.0000  0.0000  0.0000  0.0000
  24.     0.0000  0.0000  0.0000  0.0000  0.0000  0.0000  0.0000  0.0000  0.0000
  25.     0.0000  0.0000  0.0000  0.0000  0.0000  0.0000  0.0000  0.0000  0.0000
  26.     0.0000  0.0000  0.0000  0.0000  0.0000  0.0000  0.0000  0.0000  0.0000
  27.     0.0000  0.0000  0.0000  0.0000  0.0000  0.0000  0.0000  0.0000  0.0000
  28.     0.0000  0.0000  0.0000  0.0000  0.0000  0.0000  0.0000  0.0000  0.0000
  29.     0.0000  0.0000  0.0000  0.0000  0.0000  0.0000  0.0000  0.0000  0.0000
  30.     0.0000  0.0000  0.0000  0.0000  0.0000  0.0000  0.0000  0.0000  0.0000

      MO    10      11      12      13      14      15      16      17      18
     ---- ------  ------  ------  ------  ------  ------  ------  ------  ------
   1.     0.0000  0.0000  0.0000  0.0000  0.0000  0.0000  0.0000  0.0000  0.0000
   2.     0.0000  0.0000  0.0000  0.0000  0.0000  0.0000  0.0000  0.0000  0.0000
   3.     0.0000  0.0000  0.0000  0.0000  0.0000  0.0000  0.0000  0.0000  0.0000
   4.     0.0000  0.0000  0.0000  0.0000  0.0000  0.0000  0.0000  0.0000  0.0000
   5.     0.0000  0.0000  0.0000  0.0000  0.0000  0.0000  0.0000  0.0000  0.0000
   6.     0.0000  0.0000  0.0000  0.0000  0.0000  0.0000  0.0000  0.0000  0.0000
   7.     0.0000  0.0000  0.0000  0.0000  0.0000  0.0000  0.0000  0.0000  0.0000
   8.     0.0000  0.0000  0.0000  0.0000  0.0000  0.0000  0.0000  0.0000  0.0000
   9.     0.0000  0.0000  0.0000  0.0000  0.0000  0.0000  0.0000  0.0000  0.0000
  10.     2.0000  0.0000  0.0000  0.0000  0.0000  0.0000  0.0000  0.0000  0.0000
  11.     0.0000  2.0000  0.0000  0.0000  0.0000  0.0000  0.0000  0.0000  0.0000
  12.     0.0000  0.0000  2.0000  0.0000  0.0000  0.0000  0.0000  0.0000  0.0000
  13.     0.0000  0.0000  0.0000  2.0000  0.0000  0.0000  0.0000  0.0000  0.0000
  14.     0.0000  0.0000  0.0000  0.0000  2.0000  0.0000  0.0000  0.0000  0.0000
  15.     0.0000  0.0000  0.0000  0.0000  0.0000  2.0000  0.0000  0.0000  0.0000
  16.     0.0000  0.0000  0.0000  0.0000  0.0000  0.0000  2.0000  0.0000  0.0000
  17.     0.0000  0.0000  0.0000  0.0000  0.0000  0.0000  0.0000  2.0000  0.0000
  18.     0.0000  0.0000  0.0000  0.0000  0.0000  0.0000  0.0000  0.0000  0.0000
  19.     0.0000  0.0000  0.0000  0.0000  0.0000  0.0000  0.0000  0.0000  0.0000
  20.     0.0000  0.0000  0.0000  0.0000  0.0000  0.0000  0.0000  0.0000  0.0000
  21.     0.0000  0.0000  0.0000  0.0000  0.0000  0.0000  0.0000  0.0000  0.0000
  22.     0.0000  0.0000  0.0000  0.0000  0.0000  0.0000  0.0000  0.0000  0.0000
  23.     0.0000  0.0000  0.0000  0.0000  0.0000  0.0000  0.0000  0.0000  0.0000
  24.     0.0000  0.0000  0.0000  0.0000  0.0000  0.0000  0.0000  0.0000  0.0000
  25.     0.0000  0.0000  0.0000  0.0000  0.0000  0.0000  0.0000  0.0000  0.0000
  26.     0.0000  0.0000  0.0000  0.0000  0.0000  0.0000  0.0000  0.0000  0.0000
  27.     0.0000  0.0000  0.0000  0.0000  0.0000  0.0000  0.0000  0.0000  0.0000
  28.     0.0000  0.0000  0.0000  0.0000  0.0000  0.0000  0.0000  0.0000  0.0000
  29.     0.0000  0.0000  0.0000  0.0000  0.0000  0.0000  0.0000  0.0000  0.0000
  30.     0.0000  0.0000  0.0000  0.0000  0.0000  0.0000  0.0000  0.0000  0.0000

      MO    19      20      21      22      23      24      25      26      27
     ---- ------  ------  ------  ------  ------  ------  ------  ------  ------
   1.     0.0000  0.0000  0.0000  0.0000  0.0000  0.0000  0.0000  0.0000  0.0000
   2.     0.0000  0.0000  0.0000  0.0000  0.0000  0.0000  0.0000  0.0000  0.0000
   3.     0.0000  0.0000  0.0000  0.0000  0.0000  0.0000  0.0000  0.0000  0.0000
   4.     0.0000  0.0000  0.0000  0.0000  0.0000  0.0000  0.0000  0.0000  0.0000
   5.     0.0000  0.0000  0.0000  0.0000  0.0000  0.0000  0.0000  0.0000  0.0000
   6.     0.0000  0.0000  0.0000  0.0000  0.0000  0.0000  0.0000  0.0000  0.0000
   7.     0.0000  0.0000  0.0000  0.0000  0.0000  0.0000  0.0000  0.0000  0.0000
   8.     0.0000  0.0000  0.0000  0.0000  0.0000  0.0000  0.0000  0.0000  0.0000
   9.     0.0000  0.0000  0.0000  0.0000  0.0000  0.0000  0.0000  0.0000  0.0000
  10.     0.0000  0.0000  0.0000  0.0000  0.0000  0.0000  0.0000  0.0000  0.0000
  11.     0.0000  0.0000  0.0000  0.0000  0.0000  0.0000  0.0000  0.0000  0.0000
  12.     0.0000  0.0000  0.0000  0.0000  0.0000  0.0000  0.0000  0.0000  0.0000
  13.     0.0000  0.0000  0.0000  0.0000  0.0000  0.0000  0.0000  0.0000  0.0000
  14.     0.0000  0.0000  0.0000  0.0000  0.0000  0.0000  0.0000  0.0000  0.0000
  15.     0.0000  0.0000  0.0000  0.0000  0.0000  0.0000  0.0000  0.0000  0.0000
  16.     0.0000  0.0000  0.0000  0.0000  0.0000  0.0000  0.0000  0.0000  0.0000
  17.     0.0000  0.0000  0.0000  0.0000  0.0000  0.0000  0.0000  0.0000  0.0000
  18.     0.0000  0.0000  0.0000  0.0000  0.0000  0.0000  0.0000  0.0000  0.0000
  19.     0.0000  0.0000  0.0000  0.0000  0.0000  0.0000  0.0000  0.0000  0.0000
  20.     0.0000  0.0000  0.0000  0.0000  0.0000  0.0000  0.0000  0.0000  0.0000
  21.     0.0000  0.0000  0.0000  0.0000  0.0000  0.0000  0.0000  0.0000  0.0000
  22.     0.0000  0.0000  0.0000  0.0000  0.0000  0.0000  0.0000  0.0000  0.0000
  23.     0.0000  0.0000  0.0000  0.0000  0.0000  0.0000  0.0000  0.0000  0.0000
  24.     0.0000  0.0000  0.0000  0.0000  0.0000  0.0000  0.0000  0.0000  0.0000
  25.     0.0000  0.0000  0.0000  0.0000  0.0000  0.0000  0.0000  0.0000  0.0000
  26.     0.0000  0.0000  0.0000  0.0000  0.0000  0.0000  0.0000  0.0000  0.0000
  27.     0.0000  0.0000  0.0000  0.0000  0.0000  0.0000  0.0000  0.0000  0.0000
  28.     0.0000  0.0000  0.0000  0.0000  0.0000  0.0000  0.0000  0.0000  0.0000
  29.     0.0000  0.0000  0.0000  0.0000  0.0000  0.0000  0.0000  0.0000  0.0000
  30.     0.0000  0.0000  0.0000  0.0000  0.0000  0.0000  0.0000  0.0000  0.0000

      MO    28      29      30
     ---- ------  ------  ------
   1.     0.0000  0.0000  0.0000
   2.     0.0000  0.0000  0.0000
   3.     0.0000  0.0000  0.0000
   4.     0.0000  0.0000  0.0000
   5.     0.0000  0.0000  0.0000
   6.     0.0000  0.0000  0.0000
   7.     0.0000  0.0000  0.0000
   8.     0.0000  0.0000  0.0000
   9.     0.0000  0.0000  0.0000
  10.     0.0000  0.0000  0.0000
  11.     0.0000  0.0000  0.0000
  12.     0.0000  0.0000  0.0000
  13.     0.0000  0.0000  0.0000
  14.     0.0000  0.0000  0.0000
  15.     0.0000  0.0000  0.0000
  16.     0.0000  0.0000  0.0000
  17.     0.0000  0.0000  0.0000
  18.     0.0000  0.0000  0.0000
  19.     0.0000  0.0000  0.0000
  20.     0.0000  0.0000  0.0000
  21.     0.0000  0.0000  0.0000
  22.     0.0000  0.0000  0.0000
  23.     0.0000  0.0000  0.0000
  24.     0.0000  0.0000  0.0000
  25.     0.0000  0.0000  0.0000
  26.     0.0000  0.0000  0.0000
  27.     0.0000  0.0000  0.0000
  28.     0.0000  0.0000  0.0000
  29.     0.0000  0.0000  0.0000
  30.     0.0000  0.0000  0.0000


 NATURAL POPULATIONS:  Natural atomic orbital occupancies

  NAO Atom No lang   Type(AO)    Occupancy      Energy
 -------------------------------------------------------
   1    C  1  s      Cor( 1s)     2.00000     -11.03677
   2    C  1  s      Val( 2s)     1.07433      -0.15813
   3    C  1  px     Val( 2p)     0.95162       0.12035
   4    C  1  py     Val( 2p)     0.95162       0.12035
   5    C  1  pz     Val( 2p)     0.99450       0.10452

   6    H  2  s      Val( 1s)     0.97394       0.07650

   7    C  3  s      Cor( 1s)     2.00000     -11.01677
   8    C  3  s      Val( 2s)     1.08521      -0.15482
   9    C  3  px     Val( 2p)     1.02885       0.08571
  10    C  3  py     Val( 2p)     0.99299       0.09420
  11    C  3  pz     Val( 2p)     1.02583       0.08536

  12    H  4  s      Val( 1s)     0.96267       0.08351

  13    H  5  s      Val( 1s)     0.96123       0.08424

  14    H  6  s      Val( 1s)     0.96123       0.08424

  15    C  7  s      Cor( 1s)     2.00000     -11.01677
  16    C  7  s      Val( 2s)     1.08521      -0.15482
  17    C  7  px     Val( 2p)     1.00195       0.09208
  18    C  7  py     Val( 2p)     1.01988       0.08783
  19    C  7  pz     Val( 2p)     1.02583       0.08536

  20    H  8  s      Val( 1s)     0.96267       0.08351

  21    H  9  s      Val( 1s)     0.96123       0.08424

  22    H 10  s      Val( 1s)     0.96123       0.08424

  23    C 11  s      Cor( 1s)     2.00000     -11.01677
  24    C 11  s      Val( 2s)     1.08521      -0.15482
  25    C 11  px     Val( 2p)     1.00195       0.09208
  26    C 11  py     Val( 2p)     1.01988       0.08783
  27    C 11  pz     Val( 2p)     1.02583       0.08536

  28    H 12  s      Val( 1s)     0.96267       0.08351

  29    H 13  s      Val( 1s)     0.96123       0.08424

  30    H 14  s      Val( 1s)     0.96123       0.08424


 Summary of Natural Population Analysis:

                                     Natural Population
             Natural    ---------------------------------------------
  Atom No    Charge        Core      Valence    Rydberg      Total
 --------------------------------------------------------------------
    C  1    0.02793      2.00000     3.97207    0.00000     5.97207
    H  2    0.02606      0.00000     0.97394    0.00000     0.97394
    C  3   -0.13287      2.00000     4.13287    0.00000     6.13287
    H  4    0.03733      0.00000     0.96267    0.00000     0.96267
    H  5    0.03877      0.00000     0.96123    0.00000     0.96123
    H  6    0.03877      0.00000     0.96123    0.00000     0.96123
    C  7   -0.13287      2.00000     4.13287    0.00000     6.13287
    H  8    0.03733      0.00000     0.96267    0.00000     0.96267
    H  9    0.03877      0.00000     0.96123    0.00000     0.96123
    H 10    0.03877      0.00000     0.96123    0.00000     0.96123
    C 11   -0.13287      2.00000     4.13287    0.00000     6.13287
    H 12    0.03733      0.00000     0.96267    0.00000     0.96267
    H 13    0.03877      0.00000     0.96123    0.00000     0.96123
    H 14    0.03877      0.00000     0.96123    0.00000     0.96123
 ====================================================================
 * Total *  0.00000      7.99999    26.00001    0.00000    34.00000

                                 Natural Population
 ---------------------------------------------------------
   Core                       7.99999 ( 99.9999% of    8)
   Valence                   26.00001 (100.0000% of   26)
   Natural Minimal Basis     34.00000 (100.0000% of   34)
   Natural Rydberg Basis      0.00000 (  0.0000% of   34)
 ---------------------------------------------------------

    Atom No         Natural Electron Configuration
 ----------------------------------------------------------------------------
      C  1      [core]2s( 1.07)2p( 2.90)
      H  2            1s( 0.97)
      C  3      [core]2s( 1.09)2p( 3.05)
      H  4            1s( 0.96)
      H  5            1s( 0.96)
      H  6            1s( 0.96)
      C  7      [core]2s( 1.09)2p( 3.05)
      H  8            1s( 0.96)
      H  9            1s( 0.96)
      H 10            1s( 0.96)
      C 11      [core]2s( 1.09)2p( 3.05)
      H 12            1s( 0.96)
      H 13            1s( 0.96)
      H 14            1s( 0.96)


 PNAOs in the AO basis:

           AO          1       2       3       4       5       6       7       8
      ------------ ------- ------- ------- ------- ------- ------- ------- -------
   1.  C 1 (s)      0.9842 -0.3116  0.0000  0.0000  0.0000  0.0000  0.0000  0.0000
   2.  C 1 (s)      0.0574  1.0308  0.0000  0.0000  0.0000  0.0000  0.0000  0.0000
   3.  C 1 (px)     0.0000  0.0000  1.0000  0.0000  0.0000  0.0000  0.0000  0.0000
   4.  C 1 (py)     0.0000  0.0000  0.0000  1.0000  0.0000  0.0000  0.0000  0.0000
   5.  C 1 (pz)     0.0000  0.0000  0.0000  0.0000  1.0000  0.0000  0.0000  0.0000
   6.  H 2 (s)      0.0000  0.0000  0.0000  0.0000  0.0000  1.0000  0.0000  0.0000
   7.  C 3 (s)      0.0000  0.0000  0.0000  0.0000  0.0000  0.0000  0.9834 -0.3141
   8.  C 3 (s)      0.0000  0.0000  0.0000  0.0000  0.0000  0.0000  0.0601  1.0306
   9.  C 3 (px)     0.0000  0.0000  0.0000  0.0000  0.0000  0.0000  0.0000  0.0000
  10.  C 3 (py)     0.0000  0.0000  0.0000  0.0000  0.0000  0.0000  0.0000  0.0000
  11.  C 3 (pz)     0.0000  0.0000  0.0000  0.0000  0.0000  0.0000  0.0000  0.0000
  12.  H 4 (s)      0.0000  0.0000  0.0000  0.0000  0.0000  0.0000  0.0000  0.0000
  13.  H 5 (s)      0.0000  0.0000  0.0000  0.0000  0.0000  0.0000  0.0000  0.0000
  14.  H 6 (s)      0.0000  0.0000  0.0000  0.0000  0.0000  0.0000  0.0000  0.0000
  15.  C 7 (s)      0.0000  0.0000  0.0000  0.0000  0.0000  0.0000  0.0000  0.0000
  16.  C 7 (s)      0.0000  0.0000  0.0000  0.0000  0.0000  0.0000  0.0000  0.0000
  17.  C 7 (px)     0.0000  0.0000  0.0000  0.0000  0.0000  0.0000  0.0000  0.0000
  18.  C 7 (py)     0.0000  0.0000  0.0000  0.0000  0.0000  0.0000  0.0000  0.0000
  19.  C 7 (pz)     0.0000  0.0000  0.0000  0.0000  0.0000  0.0000  0.0000  0.0000
  20.  H 8 (s)      0.0000  0.0000  0.0000  0.0000  0.0000  0.0000  0.0000  0.0000
  21.  H 9 (s)      0.0000  0.0000  0.0000  0.0000  0.0000  0.0000  0.0000  0.0000
  22.  H10 (s)      0.0000  0.0000  0.0000  0.0000  0.0000  0.0000  0.0000  0.0000
  23.  C11 (s)      0.0000  0.0000  0.0000  0.0000  0.0000  0.0000  0.0000  0.0000
  24.  C11 (s)      0.0000  0.0000  0.0000  0.0000  0.0000  0.0000  0.0000  0.0000
  25.  C11 (px)     0.0000  0.0000  0.0000  0.0000  0.0000  0.0000  0.0000  0.0000
  26.  C11 (py)     0.0000  0.0000  0.0000  0.0000  0.0000  0.0000  0.0000  0.0000
  27.  C11 (pz)     0.0000  0.0000  0.0000  0.0000  0.0000  0.0000  0.0000  0.0000
[...]
      Select eigenvectors with eigenvalue > 1.900
       1.995 0.006 0.000 0.000 0.000 0.000
      Eigenvector ( 1) has occupancy 1.99534
            0.0000 0.7205 0.0000 0.0000 0.0000 0.6935
      Occupancy is 1.995 after deleting minor hybrid components
            0.0000 0.7205 0.0000 0.0000 0.0000 0.6935
           NBO accepted:   25. Label:BD ( 1)  11  12
      Occupancy is 0.006 for antibonding component
            0.0000-0.6935 0.0000 0.0000 0.0000 0.7205
           NBO accepted:   26. Label:BD*( 1)  11  12
        2 eigenvector(s) stashed in permanent list

 Search of NHO DM block for the following atom(s):  11  13
      Select eigenvectors with eigenvalue > 1.900
       1.995 0.005 0.000 0.000 0.000 0.000
      Eigenvector ( 1) has occupancy 1.99504
            0.0000 0.0000 0.7208 0.0000 0.0000 0.6932
      Occupancy is 1.995 after deleting minor hybrid components
            0.0000 0.0000 0.7208 0.0000 0.0000 0.6932
           NBO accepted:   27. Label:BD ( 1)  11  13
      Occupancy is 0.005 for antibonding component
            0.0000 0.0000-0.6932 0.0000 0.0000 0.7208
           NBO accepted:   28. Label:BD*( 1)  11  13
        2 eigenvector(s) stashed in permanent list

 Search of NHO DM block for the following atom(s):  11  14
      Select eigenvectors with eigenvalue > 1.900
       1.995 0.005 0.000 0.000 0.000 0.000
      Eigenvector ( 1) has occupancy 1.99504
            0.0000 0.0000 0.0000 0.7208 0.0000 0.6932
      Occupancy is 1.995 after deleting minor hybrid components
            0.0000 0.0000 0.0000 0.7208 0.0000 0.6932
           NBO accepted:   29. Label:BD ( 1)  11  14
      Occupancy is 0.005 for antibonding component
            0.0000 0.0000 0.0000-0.6932 0.0000 0.7208
           NBO accepted:   30. Label:BD*( 1)  11  14
        2 eigenvector(s) stashed in permanent list

  2-center NBOs projected from the NHO density matrix
       0.000 electrons remain in the fully projected matrix

                            Occupancies       Lewis Structure    Low   High
         Max    Occ     -------------------  -----------------   occ   occ
  Cycle  Ctr   Thresh    Lewis   non-Lewis     CR  BD  nC  LP    (L)   (NL)
 ============================================================================
    1     2     1.90    33.90926   0.09074      4  13   0   0     0      0
 ----------------------------------------------------------------------------

 Structure accepted: No low occupancy Lewis orbitals

 -------------------------------------------------------
   Core                      7.99999 (100.000% of   8)
   Valence Lewis            25.90927 ( 99.651% of  26)
  ==================      =============================
   Total Lewis              33.90926 ( 99.733% of  34)
  -----------------------------------------------------
   Valence non-Lewis         0.09074 (  0.267% of  34)
   Rydberg non-Lewis         0.00000 (  0.000% of  34)
  ==================      =============================
   Total non-Lewis           0.09074 (  0.267% of  34)
 -------------------------------------------------------


     (Occupancy)   Bond orbital / Coefficients / Hybrids
 ------------------ Lewis ------------------------------------------------------
   1. (2.00000) CR ( 1) C  1            s(100.00%)
                                         1.0000  0.0000  0.0000  0.0000  0.0000
   2. (2.00000) CR ( 1) C  3            s(100.00%)
                                         1.0000  0.0000  0.0000  0.0000  0.0000
   3. (2.00000) CR ( 1) C  7            s(100.00%)
                                         1.0000  0.0000  0.0000  0.0000  0.0000
   4. (2.00000) CR ( 1) C 11            s(100.00%)
                                         1.0000  0.0000  0.0000  0.0000  0.0000
   5. (1.98483) BD ( 1) C  1- H  2
               ( 51.22%)   0.7157* C  1 s( 24.44%)p 3.09( 75.56%)
                                         0.0000  0.4944  0.0000  0.0000  0.8692
               ( 48.78%)   0.6984* H  2 s(100.00%)
                                         1.0000
   6. (1.98938) BD ( 1) C  1- C  3
               ( 49.17%)   0.7012* C  1 s( 25.19%)p 2.97( 74.81%)
                                         0.0000  0.5019  0.0000  0.8165 -0.2854
               ( 50.83%)   0.7130* C  3 s( 25.79%)p 2.88( 74.21%)
                                         0.0000  0.5078  0.0000 -0.8178  0.2709
   7. (1.98938) BD ( 1) C  1- C  7
               ( 49.17%)   0.7012* C  1 s( 25.19%)p 2.97( 74.81%)
                                         0.0000  0.5019  0.7071 -0.4082 -0.2854
               ( 50.83%)   0.7130* C  7 s( 25.79%)p 2.88( 74.21%)
                                         0.0000  0.5078 -0.7082  0.4089  0.2709
   8. (1.98938) BD ( 1) C  1- C 11
               ( 49.17%)   0.7012* C  1 s( 25.19%)p 2.97( 74.81%)
                                         0.0000  0.5019 -0.7071 -0.4082 -0.2854
               ( 50.83%)   0.7130* C 11 s( 25.79%)p 2.88( 74.21%)
                                         0.0000  0.5078  0.7082  0.4089  0.2709
   9. (1.99534) BD ( 1) C  3- H  4
               ( 51.91%)   0.7205* C  3 s( 24.50%)p 3.08( 75.50%)
                                         0.0000  0.4950  0.0000  0.0196 -0.8687
               ( 48.09%)   0.6935* H  4 s(100.00%)
                                         1.0000
  10. (1.99504) BD ( 1) C  3- H  5
               ( 51.95%)   0.7208* C  3 s( 24.86%)p 3.02( 75.14%)
                                         0.0000  0.4986 -0.7071  0.4067  0.2933
               ( 48.05%)   0.6932* H  5 s(100.00%)
                                         1.0000
  11. (1.99504) BD ( 1) C  3- H  6
               ( 51.95%)   0.7208* C  3 s( 24.86%)p 3.02( 75.14%)
                                         0.0000  0.4986  0.7071  0.4067  0.2933
               ( 48.05%)   0.6932* H  6 s(100.00%)
                                         1.0000
  12. (1.99534) BD ( 1) C  7- H  8
               ( 51.91%)   0.7205* C  7 s( 24.50%)p 3.08( 75.50%)
                                         0.0000  0.4950  0.0170 -0.0098 -0.8687
               ( 48.09%)   0.6935* H  8 s(100.00%)
                                         1.0000
  13. (1.99504) BD ( 1) C  7- H  9
               ( 51.95%)   0.7208* C  7 s( 24.86%)p 3.02( 75.14%)
                                         0.0000  0.4986  0.7058  0.4090  0.2933
               ( 48.05%)   0.6932* H  9 s(100.00%)
                                         1.0000
  14. (1.99504) BD ( 1) C  7- H 10
               ( 51.95%)   0.7208* C  7 s( 24.86%)p 3.02( 75.14%)
                                         0.0000  0.4986 -0.0013 -0.8157  0.2933
               ( 48.05%)   0.6932* H 10 s(100.00%)
                                         1.0000
  15. (1.99534) BD ( 1) C 11- H 12
               ( 51.91%)   0.7205* C 11 s( 24.50%)p 3.08( 75.50%)
                                         0.0000  0.4950 -0.0170 -0.0098 -0.8687
               ( 48.09%)   0.6935* H 12 s(100.00%)
                                         1.0000
  16. (1.99504) BD ( 1) C 11- H 13
               ( 51.95%)   0.7208* C 11 s( 24.86%)p 3.02( 75.14%)
                                         0.0000  0.4986  0.0013 -0.8157  0.2933
               ( 48.05%)   0.6932* H 13 s(100.00%)
                                         1.0000
  17. (1.99504) BD ( 1) C 11- H 14
               ( 51.95%)   0.7208* C 11 s( 24.86%)p 3.02( 75.14%)
                                         0.0000  0.4986 -0.7058  0.4090  0.2933
               ( 48.05%)   0.6932* H 14 s(100.00%)
                                         1.0000
 ---------------- non-Lewis ----------------------------------------------------
  18. (0.01113) BD*( 1) C  1- H  2
               ( 48.78%)   0.6984* C  1 s( 24.44%)p 3.09( 75.56%)
                                         0.0000 -0.4944  0.0000  0.0000 -0.8692
               ( 51.22%)  -0.7157* H  2 s(100.00%)
                                        -1.0000
  19. (0.01031) BD*( 1) C  1- C  3
               ( 50.83%)   0.7130* C  1 s( 25.19%)p 2.97( 74.81%)
                                         0.0000  0.5019  0.0000  0.8165 -0.2854
               ( 49.17%)  -0.7012* C  3 s( 25.79%)p 2.88( 74.21%)
                                         0.0000  0.5078  0.0000 -0.8178  0.2709
  20. (0.01031) BD*( 1) C  1- C  7
               ( 50.83%)   0.7130* C  1 s( 25.19%)p 2.97( 74.81%)
                                         0.0000  0.5019  0.7071 -0.4082 -0.2854
               ( 49.17%)  -0.7012* C  7 s( 25.79%)p 2.88( 74.21%)
                                         0.0000  0.5078 -0.7082  0.4089  0.2709
  21. (0.01031) BD*( 1) C  1- C 11
               ( 50.83%)   0.7130* C  1 s( 25.19%)p 2.97( 74.81%)
                                         0.0000  0.5019 -0.7071 -0.4082 -0.2854
               ( 49.17%)  -0.7012* C 11 s( 25.79%)p 2.88( 74.21%)
                                         0.0000  0.5078  0.7082  0.4089  0.2709
  22. (0.00588) BD*( 1) C  3- H  4
               ( 48.09%)   0.6935* C  3 s( 24.50%)p 3.08( 75.50%)
                                         0.0000 -0.4950  0.0000 -0.0196  0.8687
               ( 51.91%)  -0.7205* H  4 s(100.00%)
                                        -1.0000
  23. (0.00517) BD*( 1) C  3- H  5
               ( 48.05%)   0.6932* C  3 s( 24.86%)p 3.02( 75.14%)
                                         0.0000 -0.4986  0.7071 -0.4067 -0.2933
               ( 51.95%)  -0.7208* H  5 s(100.00%)
                                        -1.0000
  24. (0.00517) BD*( 1) C  3- H  6
               ( 48.05%)   0.6932* C  3 s( 24.86%)p 3.02( 75.14%)
                                         0.0000 -0.4986 -0.7071 -0.4067 -0.2933
               ( 51.95%)  -0.7208* H  6 s(100.00%)
                                        -1.0000
  25. (0.00588) BD*( 1) C  7- H  8
               ( 48.09%)   0.6935* C  7 s( 24.50%)p 3.08( 75.50%)
                                         0.0000 -0.4950 -0.0170  0.0098  0.8687
               ( 51.91%)  -0.7205* H  8 s(100.00%)
                                        -1.0000
  26. (0.00517) BD*( 1) C  7- H  9
               ( 48.05%)   0.6932* C  7 s( 24.86%)p 3.02( 75.14%)
                                         0.0000 -0.4986 -0.7058 -0.4090 -0.2933
               ( 51.95%)  -0.7208* H  9 s(100.00%)
                                        -1.0000
  27. (0.00517) BD*( 1) C  7- H 10
               ( 48.05%)   0.6932* C  7 s( 24.86%)p 3.02( 75.14%)
                                         0.0000 -0.4986  0.0013  0.8157 -0.2933
               ( 51.95%)  -0.7208* H 10 s(100.00%)
                                        -1.0000
  28. (0.00588) BD*( 1) C 11- H 12
               ( 48.09%)   0.6935* C 11 s( 24.50%)p 3.08( 75.50%)
                                         0.0000 -0.4950  0.0170  0.0098  0.8687
               ( 51.91%)  -0.7205* H 12 s(100.00%)
                                        -1.0000
  29. (0.00517) BD*( 1) C 11- H 13
               ( 48.05%)   0.6932* C 11 s( 24.86%)p 3.02( 75.14%)
                                         0.0000 -0.4986 -0.0013  0.8157 -0.2933
               ( 51.95%)  -0.7208* H 13 s(100.00%)
                                        -1.0000
  30. (0.00517) BD*( 1) C 11- H 14
               ( 48.05%)   0.6932* C 11 s( 24.86%)p 3.02( 75.14%)
                                         0.0000 -0.4986  0.7058 -0.4090 -0.2933
               ( 51.95%)  -0.7208* H 14 s(100.00%)
                                        -1.0000


 NHO DIRECTIONALITY AND BOND BENDING (deviation from line of nuclear centers at
                                      the position of maximum hybrid amplitude)

         [Thresholds for printing:  angular deviation  >  1.0 degree]
                                    p- or d-character  > 25.0%
                                    orbital occupancy  >  0.10e

                        Line of Centers        Hybrid 1             Hybrid 2
                        ---------------  -------------------  ------------------
           NBO            Theta   Phi    Theta   Phi    Dev   Theta   Phi    Dev
 ===============================================================================
   6. BD ( 1) C  1- C  3  108.1   90.0   109.1   90.0   1.0     --     --    --
   7. BD ( 1) C  1- C  7  108.1  330.0   109.1  330.0   1.0     --     --    --
   8. BD ( 1) C  1- C 11  108.1  210.0   109.1  210.0   1.0     --     --    --
  10. BD ( 1) C  3- H  5   70.9  148.9    70.3  149.9   1.2     --     --    --
  11. BD ( 1) C  3- H  6   70.9   31.1    70.3   30.1   1.2     --     --    --
  13. BD ( 1) C  7- H  9   70.9   28.9    70.3   29.9   1.2     --     --    --
  14. BD ( 1) C  7- H 10   70.9  271.1    70.3  270.1   1.2     --     --    --
  16. BD ( 1) C 11- H 13   70.9  268.9    70.3  269.9   1.2     --     --    --
  17. BD ( 1) C 11- H 14   70.9  151.1    70.3  150.1   1.2     --     --    --


 SECOND ORDER PERTURBATION THEORY ANALYSIS OF FOCK MATRIX IN NBO BASIS

     Threshold for printing:   0.50 kcal/mol
                                                          E(2) E(NL)-E(L) F(L,NL)
      Donor (L) NBO              Acceptor (NL) NBO      kcal/mol   a.u.    a.u.
 ===============================================================================

 within unit  1
    5. BD ( 1) C  1- H  2      22. BD*( 1) C  3- H  4      2.78    1.33   0.054
    5. BD ( 1) C  1- H  2      25. BD*( 1) C  7- H  8      2.78    1.33   0.054
    5. BD ( 1) C  1- H  2      28. BD*( 1) C 11- H 12      2.78    1.33   0.054
    6. BD ( 1) C  1- C  3      20. BD*( 1) C  1- C  7      0.52    1.35   0.024
    6. BD ( 1) C  1- C  3      21. BD*( 1) C  1- C 11      0.52    1.35   0.024
    6. BD ( 1) C  1- C  3      27. BD*( 1) C  7- H 10      2.36    1.36   0.051
    6. BD ( 1) C  1- C  3      29. BD*( 1) C 11- H 13      2.36    1.36   0.051
    7. BD ( 1) C  1- C  7      19. BD*( 1) C  1- C  3      0.52    1.35   0.024
    7. BD ( 1) C  1- C  7      21. BD*( 1) C  1- C 11      0.52    1.35   0.024
    7. BD ( 1) C  1- C  7      23. BD*( 1) C  3- H  5      2.36    1.36   0.051
    7. BD ( 1) C  1- C  7      30. BD*( 1) C 11- H 14      2.36    1.36   0.051
    8. BD ( 1) C  1- C 11      19. BD*( 1) C  1- C  3      0.52    1.35   0.024
    8. BD ( 1) C  1- C 11      20. BD*( 1) C  1- C  7      0.52    1.35   0.024
    8. BD ( 1) C  1- C 11      24. BD*( 1) C  3- H  6      2.36    1.36   0.051
    8. BD ( 1) C  1- C 11      26. BD*( 1) C  7- H  9      2.36    1.36   0.051
    9. BD ( 1) C  3- H  4      18. BD*( 1) C  1- H  2      2.11    1.34   0.047
   10. BD ( 1) C  3- H  5      20. BD*( 1) C  1- C  7      2.22    1.32   0.048
   11. BD ( 1) C  3- H  6      21. BD*( 1) C  1- C 11      2.22    1.32   0.048
   12. BD ( 1) C  7- H  8      18. BD*( 1) C  1- H  2      2.11    1.34   0.047
   13. BD ( 1) C  7- H  9      21. BD*( 1) C  1- C 11      2.22    1.32   0.048
   14. BD ( 1) C  7- H 10      19. BD*( 1) C  1- C  3      2.22    1.32   0.048
   15. BD ( 1) C 11- H 12      18. BD*( 1) C  1- H  2      2.11    1.34   0.047
   16. BD ( 1) C 11- H 13      19. BD*( 1) C  1- C  3      2.22    1.32   0.048
   17. BD ( 1) C 11- H 14      20. BD*( 1) C  1- C  7      2.22    1.32   0.048


 NATURAL BOND ORBITALS (Summary):

                                                     Principal Delocalizations
           NBO                 Occupancy    Energy   (geminal,vicinal,remote)
 ===============================================================================
 Molecular unit  1  (C4H10)
 ------ Lewis --------------------------------------
    1. CR ( 1) C  1             2.00000   -11.03677
    2. CR ( 1) C  3             2.00000   -11.01677
    3. CR ( 1) C  7             2.00000   -11.01677
    4. CR ( 1) C 11             2.00000   -11.01677
    5. BD ( 1) C  1- H  2       1.98483    -0.60744  22(v),25(v),28(v)
    6. BD ( 1) C  1- C  3       1.98938    -0.63546  27(v),29(v),20(g),21(g)
    7. BD ( 1) C  1- C  7       1.98938    -0.63546  23(v),30(v),19(g),21(g)
    8. BD ( 1) C  1- C 11       1.98938    -0.63546  24(v),26(v),19(g),20(g)
    9. BD ( 1) C  3- H  4       1.99534    -0.61161  18(v)
   10. BD ( 1) C  3- H  5       1.99504    -0.61275  20(v)
   11. BD ( 1) C  3- H  6       1.99504    -0.61275  21(v)
   12. BD ( 1) C  7- H  8       1.99534    -0.61161  18(v)
   13. BD ( 1) C  7- H  9       1.99504    -0.61275  21(v)
   14. BD ( 1) C  7- H 10       1.99504    -0.61274  19(v)
   15. BD ( 1) C 11- H 12       1.99534    -0.61161  18(v)
   16. BD ( 1) C 11- H 13       1.99504    -0.61274  19(v)
   17. BD ( 1) C 11- H 14       1.99504    -0.61275  20(v)
 ------ non-Lewis ----------------------------------
   18. BD*( 1) C  1- H  2       0.01113     0.72450
   19. BD*( 1) C  1- C  3       0.01031     0.70994
   20. BD*( 1) C  1- C  7       0.01031     0.70994
   21. BD*( 1) C  1- C 11       0.01031     0.70994
   22. BD*( 1) C  3- H  4       0.00588     0.72322
   23. BD*( 1) C  3- H  5       0.00517     0.72534
   24. BD*( 1) C  3- H  6       0.00517     0.72534
   25. BD*( 1) C  7- H  8       0.00588     0.72322
   26. BD*( 1) C  7- H  9       0.00517     0.72534
   27. BD*( 1) C  7- H 10       0.00517     0.72534
   28. BD*( 1) C 11- H 12       0.00588     0.72322
   29. BD*( 1) C 11- H 13       0.00517     0.72534
   30. BD*( 1) C 11- H 14       0.00517     0.72534
          -------------------------------
                 Total Lewis   33.90926  ( 99.7331%)
           Valence non-Lewis    0.09074  (  0.2669%)
           Rydberg non-Lewis    0.00000  (  0.0000%)
          -------------------------------
               Total unit  1   34.00000  (100.0000%)
              Charge unit  1    0.00000

 $CHOOSE
   BOND S 1 2 S 1 3 S 1 7 S 1 11 S 3 4 S 3 5 S 3 6 S 7 8 S 7 9 S 7 10 S 11 12
        S 11 13 S 11 14 END
 $END

 NBO analysis completed in 0.32 CPU seconds (0 wall seconds)
 Maximum scratch memory used by NBO was 229750 words (1.75 MB)
 Maximum scratch memory used by G16NBO was 9783 words (0.07 MB)

 Opening RunExU unformatted file "/cluster/work/users/beto93/mol90/Gau-1877064.EUF"
 Read unf file /cluster/work/users/beto93/mol90/Gau-1877064.EUF:
 Label Gaussian matrix elements                                         IVers= 2 NLab= 2 Version=ES64L-G16RevC.01
 Title mol90-NBO                                                       
 NAtoms=    14 NBasis=    30 NBsUse=    30 ICharg=     0 Multip=     1 NE=    34 Len12L=8 Len4L=8 IOpCl= 0 ICGU=111
 GAUSSIAN SCALARS                    NI= 1 NR= 1 NTot=       1 LenBuf=    2 NRI=1 N=    1000
 NPA CHARGES                         NI= 0 NR= 1 NTot=      14 LenBuf= 4000 NRI=1 N=      14
 Recovered energy= -155.465289773     dipole=     -0.000000000000      0.000000129676      0.011971787953
 Unable to Open any file for archive entry.
 1\1\GINC-C5-11\SP\RHF\STO-3G\C4H10\BETO93\18-Nov-2024\0\\#RHF/STO-3G i
 nt=nobasistransform Symmetry=None 5D 7F Pop=NBO7Read\\mol90-NBO\\0,1\C
 ,0,0.,0.,0.376949\H,0,0.,0.,1.475269\C,0,0.,1.45029,-0.096234\H,0,0.,1
 .493997,-1.190847\H,0,-0.885482,1.984695,0.261297\H,0,0.885482,1.98469
 5,0.261297\C,0,1.255988,-0.725145,-0.096234\H,0,1.293839,-0.746998,-1.
 190847\H,0,2.161537,-0.225498,0.261297\H,0,1.276055,-1.759198,0.261297
 \C,0,-1.255988,-0.725145,-0.096234\H,0,-1.293839,-0.746998,-1.190847\H
 ,0,-1.276055,-1.759198,0.261297\H,0,-2.161537,-0.225498,0.261297\\Vers
 ion=ES64L-G16RevC.01\HF=-155.4652898\RMSD=3.925e-09\Dipole=0.,0.000000
 1,0.0119718\Quadrupole=-0.1163679,-0.1163676,0.2327355,0.,0.,-0.000000
 9\PG=Unknown\\@
 The archive entry for this job was punched.


 I think that all right-thinking people in this
 country are sick and tired of being told that
 ordinary, decent people are fed up in this country
 with being sick and tired.  I'm certainly not!
 But I'm sick and tired of being told that I am!
                               -- Monty Python
 Job cpu time:       0 days  0 hours  0 minutes 12.8 seconds.
 Elapsed time:       0 days  0 hours  0 minutes  4.1 seconds.
 File lengths (MBytes):  RWF=     10 Int=      0 D2E=      0 Chk=      1 Scr=      1
 Normal termination of Gaussian 16 at Mon Nov 18 15:41:44 2024.
