 Entering Gaussian System, Link 0=g16
 Initial command:
 /cluster/software/Gaussian/g16_C.01/l1.exe "/cluster/work/users/beto93/mol112/Gau-1335964.inp" -scrdir="/cluster/work/users/beto93/mol112/"
 Entering Link 1 = /cluster/software/Gaussian/g16_C.01/l1.exe PID=   1335974.
  
 Copyright (c) 1988-2019, Gaussian, Inc.  All Rights Reserved.
  
 This is part of the Gaussian(R) 16 program.  It is based on
 the Gaussian(R) 09 system (copyright 2009, Gaussian, Inc.),
 the Gaussian(R) 03 system (copyright 2003, Gaussian, Inc.),
 the Gaussian(R) 98 system (copyright 1998, Gaussian, Inc.),
 the Gaussian(R) 94 system (copyright 1995, Gaussian, Inc.),
 the Gaussian 92(TM) system (copyright 1992, Gaussian, Inc.),
 the Gaussian 90(TM) system (copyright 1990, Gaussian, Inc.),
 the Gaussian 88(TM) system (copyright 1988, Gaussian, Inc.),
 the Gaussian 86(TM) system (copyright 1986, Carnegie Mellon
 University), and the Gaussian 82(TM) system (copyright 1983,
 Carnegie Mellon University). Gaussian is a federally registered
 trademark of Gaussian, Inc.
  
 This software contains proprietary and confidential information,
 including trade secrets, belonging to Gaussian, Inc.
  
 This software is provided under written license and may be
 used, copied, transmitted, or stored only in accord with that
 written license.
  
 The following legend is applicable only to US Government
 contracts under FAR:
  
                    RESTRICTED RIGHTS LEGEND
  
 Use, reproduction and disclosure by the US Government is
 subject to restrictions as set forth in subparagraphs (a)
 and (c) of the Commercial Computer Software - Restricted
 Rights clause in FAR 52.227-19.
  
 Gaussian, Inc.
 340 Quinnipiac St., Bldg. 40, Wallingford CT 06492
  
  
 ---------------------------------------------------------------
 Warning -- This program may not be used in any manner that
 competes with the business of Gaussian, Inc. or will provide
 assistance to any competitor of Gaussian, Inc.  The licensee
 of this program is prohibited from giving any competitor of
 Gaussian, Inc. access to this program.  By using this program,
 the user acknowledges that Gaussian, Inc. is engaged in the
 business of creating and licensing software in the field of
 computational chemistry and represents and warrants to the
 licensee that it is not a competitor of Gaussian, Inc. and that
 it will not use this program in any manner prohibited above.
 ---------------------------------------------------------------
  

 Cite this work as:
 Gaussian 16, Revision C.01,
 M. J. Frisch, G. W. Trucks, H. B. Schlegel, G. E. Scuseria, 
 M. A. Robb, J. R. Cheeseman, G. Scalmani, V. Barone, 
 G. A. Petersson, H. Nakatsuji, X. Li, M. Caricato, A. V. Marenich, 
 J. Bloino, B. G. Janesko, R. Gomperts, B. Mennucci, H. P. Hratchian, 
 J. V. Ortiz, A. F. Izmaylov, J. L. Sonnenberg, D. Williams-Young, 
 F. Ding, F. Lipparini, F. Egidi, J. Goings, B. Peng, A. Petrone, 
 T. Henderson, D. Ranasinghe, V. G. Zakrzewski, J. Gao, N. Rega, 
 G. Zheng, W. Liang, M. Hada, M. Ehara, K. Toyota, R. Fukuda, 
 J. Hasegawa, M. Ishida, T. Nakajima, Y. Honda, O. Kitao, H. Nakai, 
 T. Vreven, K. Throssell, J. A. Montgomery, Jr., J. E. Peralta, 
 F. Ogliaro, M. J. Bearpark, J. J. Heyd, E. N. Brothers, K. N. Kudin, 
 V. N. Staroverov, T. A. Keith, R. Kobayashi, J. Normand, 
 K. Raghavachari, A. P. Rendell, J. C. Burant, S. S. Iyengar, 
 J. Tomasi, M. Cossi, J. M. Millam, M. Klene, C. Adamo, R. Cammi, 
 J. W. Ochterski, R. L. Martin, K. Morokuma, O. Farkas, 
 J. B. Foresman, and D. J. Fox, Gaussian, Inc., Wallingford CT, 2019.
 
 ******************************************
 Gaussian 16:  ES64L-G16RevC.01  3-Jul-2019
                18-Nov-2024 
 ******************************************
 %LindaWorkers=c5-22-ib
 %NProcShared=4
 Will use up to    4 processors via shared memory.
 %mem=25GB
 %chk=mol112.chk
 SetLPE:    new flags="-opt 'Tsnet.Node.lindarsharg: ssh'  -nodelist 'c5-22-ib.saga' -env GAUSS_MDEF=3355443200 -env GAUSS_EXEDIR="/cluster/software/Gaussian/g16_C.01/bsd:/cluster/software/Gaussian/g16_C.01""
 Will use up to    1 processors via Linda.
 -----------------------------------------------------------------
 #RHF/STO-3G int=nobasistransform Symmetry=None 5D 7F Pop=NBO7Read
 -----------------------------------------------------------------
 1/38=1,163=2,172=1/1;
 2/12=2,15=3,17=6,18=5,40=1/2;
 3/6=3,8=11,11=1,25=1,30=1,60=-1,116=1/1,2,3;
 4//1;
 5/5=2,38=5/2;
 6/7=2,8=2,9=2,10=2,28=1,40=2,113=1,114=1,124=2103/1,12;
 99/5=1,9=1/99;
 ----------
 mol112-NBO
 ----------
 Symbolic Z-matrix:
 Charge =  0 Multiplicity = 1
 C                     0.        0.75643   0. 
 C                     0.       -0.75643   0. 
 O                     1.04609   1.38992   0. 
 H                    -0.99994   1.22819   0. 
 O                    -1.04609  -1.38992   0. 
 H                     0.99994  -1.22819   0. 
 
                          Input orientation:                          
 ---------------------------------------------------------------------
 Center     Atomic      Atomic             Coordinates (Angstroms)
 Number     Number       Type             X           Y           Z
 ---------------------------------------------------------------------
      1          6           0        0.000000    0.756430    0.000000
      2          6           0        0.000000   -0.756430    0.000000
      3          8           0        1.046090    1.389916    0.000000
      4          1           0       -0.999940    1.228191    0.000000
      5          8           0       -1.046090   -1.389916    0.000000
      6          1           0        0.999940   -1.228191    0.000000
 ---------------------------------------------------------------------
                    Distance matrix (angstroms):
                    1          2          3          4          5
     1  C    0.000000
     2  C    1.512860   0.000000
     3  O    1.222951   2.387699   0.000000
     4  H    1.105639   2.222296   2.052412   0.000000
     5  O    2.387699   1.222951   3.479179   2.618514   0.000000
     6  H    2.222296   1.105639   2.618514   3.167544   2.052412
                    6
     6  H    0.000000
 Symmetry turned off by external request.
 Stoichiometry    C2H2O2
 Rotational constants (GHZ):          55.5005767           4.7458220           4.3719768
 Standard basis: STO-3G (5D, 7F)
    22 basis functions,    66 primitive gaussians,    22 cartesian basis functions
    15 alpha electrons       15 beta electrons
       nuclear repulsion energy       101.2691105608 Hartrees.
 NAtoms=    6 NActive=    6 NUniq=    6 SFac= 1.00D+00 NAtFMM=   60 NAOKFM=F Big=F
 Integral buffers will be    131072 words long.
 Raffenetti 1 integral format.
 Two-electron integral symmetry is turned off.
 One-electron integrals computed using PRISM.
 NBasis=    22 RedAO= T EigKep=  2.34D-01  NBF=    22
 NBsUse=    22 1.00D-06 EigRej= -1.00D+00 NBFU=    22
 ExpMin= 1.69D-01 ExpMax= 1.31D+02 ExpMxC= 1.31D+02 IAcc=3 IRadAn=         5 AccDes= 0.00D+00
 Harris functional with IExCor=  205 and IRadAn=       5 diagonalized for initial guess.
 HarFok:  IExCor=  205 AccDes= 0.00D+00 IRadAn=         5 IDoV= 1 UseB2=F ITyADJ=14
 ICtDFT=  3500011 ScaDFX=  1.000000  1.000000  1.000000  1.000000
 FoFCou: FMM=F IPFlag=           0 FMFlag=      100000 FMFlg1=           0
         NFxFlg=           0 DoJE=T BraDBF=F KetDBF=T FulRan=T
         wScrn=  0.000000 ICntrl=       500 IOpCl=  0 I1Cent=   200000004 NGrid=           0
         NMat0=    1 NMatS0=      1 NMatT0=    0 NMatD0=    1 NMtDS0=    0 NMtDT0=    0
 Symmetry not used in FoFCou.
 Keep R1 ints in memory in canonical form, NReq=840388.
 Requested convergence on RMS density matrix=1.00D-08 within 128 cycles.
 Requested convergence on MAX density matrix=1.00D-06.
 Requested convergence on             energy=1.00D-06.
 No special actions if energy rises.
 SCF Done:  E(RHF) =  -223.581455432     A.U. after   10 cycles
            NFock= 10  Conv=0.35D-08     -V/T= 2.0094

 **********************************************************************

            Population analysis using the SCF Density.

 **********************************************************************

 Alpha  occ. eigenvalues --  -20.32592 -20.32591 -11.13905 -11.13875  -1.36017
 Alpha  occ. eigenvalues --   -1.34163  -0.88711  -0.75355  -0.62756  -0.59450
 Alpha  occ. eigenvalues --   -0.53594  -0.50500  -0.42383  -0.40795  -0.33100
 Alpha virt. eigenvalues --    0.19354   0.36201   0.58596   0.68524   0.70819
 Alpha virt. eigenvalues --    0.82328   1.02487
          Condensed to atoms (all electrons):
               1          2          3          4          5          6
     1  C    4.784811   0.355267   0.437276   0.368519  -0.025669  -0.034768
     2  C    0.355267   4.784811  -0.025669  -0.034768   0.437276   0.368519
     3  O    0.437276  -0.025669   7.790722  -0.020969   0.000083   0.000868
     4  H    0.368519  -0.034768  -0.020969   0.617096   0.000868   0.001509
     5  O   -0.025669   0.437276   0.000083   0.000868   7.790722  -0.020969
     6  H   -0.034768   0.368519   0.000868   0.001509  -0.020969   0.617096
 Mulliken charges:
               1
     1  C    0.114565
     2  C    0.114565
     3  O   -0.182310
     4  H    0.067746
     5  O   -0.182310
     6  H    0.067746
 Sum of Mulliken charges =  -0.00000
 Mulliken charges with hydrogens summed into heavy atoms:
               1
     1  C    0.182310
     2  C    0.182310
     3  O   -0.182310
     5  O   -0.182310
 Electronic spatial extent (au):  <R**2>=            263.7128
 Charge=             -0.0000 electrons
 Dipole moment (field-independent basis, Debye):
    X=             -0.0000    Y=             -0.0000    Z=             -0.0000  Tot=              0.0000
 Quadrupole moment (field-independent basis, Debye-Ang):
   XX=            -22.6905   YY=            -23.2770   ZZ=            -19.0941
   XY=             -4.2101   XZ=             -0.0000   YZ=              0.0000
 Traceless Quadrupole moment (field-independent basis, Debye-Ang):
   XX=             -1.0033   YY=             -1.5898   ZZ=              2.5931
   XY=             -4.2101   XZ=             -0.0000   YZ=              0.0000
 Octapole moment (field-independent basis, Debye-Ang**2):
  XXX=             -0.0000  YYY=             -0.0000  ZZZ=             -0.0000  XYY=             -0.0000
  XXY=             -0.0000  XXZ=             -0.0000  XZZ=             -0.0000  YZZ=              0.0000
  YYZ=             -0.0000  XYZ=             -0.0000
 Hexadecapole moment (field-independent basis, Debye-Ang**3):
 XXXX=            -84.9453 YYYY=           -175.9538 ZZZZ=            -12.3971 XXXY=            -40.2386
 XXXZ=             -0.0000 YYYX=            -43.3898 YYYZ=              0.0000 ZZZX=             -0.0000
 ZZZY=              0.0000 XXYY=            -46.2702 XXZZ=            -14.7657 YYZZ=            -27.8833
 XXYZ=             -0.0000 YYXZ=             -0.0000 ZZXY=             -9.7179
 N-N= 1.012691105608D+02 E-N=-7.298113608872D+02  KE= 2.215059745930D+02
 Running external command "gaunbo7 R"
         input file       "/cluster/work/users/beto93/mol112/Gau-1335974.EIn"
         output file      "/cluster/work/users/beto93/mol112/Gau-1335974.EOu"
         message file     "/cluster/work/users/beto93/mol112/Gau-1335974.EMs"
         fchk file        "/cluster/work/users/beto93/mol112/Gau-1335974.EFC"
         mat. el file     "/cluster/work/users/beto93/mol112/Gau-1335974.EUF"

 Writing WrtUnf unformatted file "/cluster/work/users/beto93/mol112/Gau-1335974.EUF"
 Gaussian matrix elements                                         Version   2 NLab=11 Len12L=8 Len4L=8
 Write SHELL TO ATOM MAP                   from file      0 offset           0 length                  10 to matrix element file.
 Write SHELL TYPES                         from file      0 offset           0 length                  10 to matrix element file.
 Write NUMBER OF PRIMITIVES PER SHELL      from file      0 offset           0 length                  10 to matrix element file.
 Write PRIMITIVE EXPONENTS                 from file      0 offset           0 length                  30 to matrix element file.
 Write CONTRACTION COEFFICIENTS            from file      0 offset           0 length                  30 to matrix element file.
 Write P(S=P) CONTRACTION COEFFICIENTS     from file      0 offset           0 length                  30 to matrix element file.
 Write COORDINATES OF EACH SHELL           from file      0 offset           0 length                  30 to matrix element file.
 Write BONDS PER ATOM                      from file      0 offset           0 length                   6 to matrix element file.
 Write BONDED ATOMS                        from file      0 offset           0 length                  10 to matrix element file.
 Write BOND TYPES                          from file      0 offset           0 length                  10 to matrix element file.
 Write ONIOM CHARGE/MULT                   from file      0 offset           0 length                  32 to matrix element file.
 Write ONIOM ATOM LAYERS                   from file      0 offset           0 length                   6 to matrix element file.
 Write ONIOM ATOM MODIFIERS                from file      0 offset           0 length                   6 to matrix element file.
 Write ONIOM ATOM TYPES                    from file      0 offset           0 length                   6 to matrix element file.
 Write ONIOM LINK ATOMS                    from file      0 offset           0 length                   6 to matrix element file.
 Write ONIOM LINK CHARGES                  from file      0 offset           0 length                   6 to matrix element file.
 Write ONIOM LINK DISTANCES                from file      0 offset           0 length                  24 to matrix element file.
 Write SYMINF INTS                         from file      0 offset           0 length                  26 to matrix element file.
 Write ROTTR TO SO                         from file      0 offset           0 length                  12 to matrix element file.
 Write GAUSSIAN SCALARS                    from file    501 offset           0 to matrix element file.
 Write OPTIMIZATION FLAGS                  from file      0 offset           0 length                   6 to matrix element file.
 Write INTEGER ISO                         from file      0 offset           0 length                   6 to matrix element file.
 Write INTEGER SPIN                        from file      0 offset           0 length                   6 to matrix element file.
 Write REAL ZEFFECTIVE                     from file      0 offset           0 length                   6 to matrix element file.
 Write REAL GFACTOR                        from file      0 offset           0 length                   6 to matrix element file.
 Write REAL ZNUCLEAR                       from file      0 offset           0 length                   6 to matrix element file.
 Write MULLIKEN CHARGES                    from file      0 offset           0 length                   6 to matrix element file.
 Write NUCLEAR GRADIENT                    from file  10584 offset           0 length                  18 to matrix element file.
 Array NUCLEAR FORCE CONSTANTS              on  file  10585 does not exist.
 Write ELECTRIC DIPOLE MOMENT              from file      0 offset           0 length                   3 to matrix element file.
 Write NON-ADIABATIC COUPLING              from file  10810 offset           0 length                  18 to matrix element file.
 Write FINITE EM FIELD                     from file  10521 offset           0 length                  35 to matrix element file.
 Write OVERLAP                             from file  10514 offset           0 length                 253 to matrix element file.
 Write CORE HAMILTONIAN ALPHA              from file  10515 offset           0 length                 253 to matrix element file.
 Write CORE HAMILTONIAN BETA               from file  10515 offset         253 length                 253 to matrix element file.
 Write KINETIC ENERGY                      from file  10516 offset           0 length                 253 to matrix element file.
 Write ORTHOGONAL BASIS                    from file  10685 offset           0 length                 484 to matrix element file.
 Write DIPOLE INTEGRALS                    from file  10518 offset           0 length                 759 to matrix element file.
 Array DIP VEL INTEGRALS                    on  file  10572 does not exist.
 Array R X DEL INTEGRALS                    on  file  10572 does not exist.
 Write ALPHA ORBITAL ENERGIES              from file      0 offset           0 length                  22 to matrix element file.
 Write ALPHA MO COEFFICIENTS               from file  10524 offset           0 length                 484 to matrix element file.
 Write ALPHA DENSITY MATRIX                from file      0 offset           0 length                 253 to matrix element file.
 Write ALPHA FOCK MATRIX                   from file  10536 offset           0 length                 253 to matrix element file.
 Write ENERGY-WEIGHTED DENSITY             from file  10571 offset           0 length                 253 to matrix element file.
 Write ALPHA SCF DENSITY MATRIX            from file      0 offset           0 length                 253 to matrix element file.
 No 2e integrals to process.
 Perform NBO analysis...executing G16NBO...

 *********************************** NBO 7.0 ***********************************
             N A T U R A L   A T O M I C   O R B I T A L   A N D
          N A T U R A L   B O N D   O R B I T A L   A N A L Y S I S
 **************************** Espen Tangen (S101595) ***************************
  (c) Copyright 1996-2021 Board of Regents of the University of Wisconsin System
      on behalf of the Theoretical Chemistry Institute.  All rights reserved.

          Cite this program [NBO 7.0.10 (8-Feb-2021)] as:

          NBO 7.0.  E. D. Glendening, J. K. Badenhoop, A. E. Reed,
          J. E. Carpenter, J. A. Bohmann, C. M. Morales, P. Karafiloglou,
          C. R. Landis, and F. Weinhold, Theoretical Chemistry Institute,
          University of Wisconsin, Madison, WI (2018)

       /NPA    / : Natural Population Analysis
       /AOPNAO / : Print the AO to PNAO transformation
       /AONAO  / : Print the AO to NAO transformation
       /AOMO   / : Print the MOs in the AO basis
       /BOAO   / : Print the AO bond-order matrix
       /DMAO   / : Print the AO density matrix
       /DMPNAO / : Print the PNAO density matrix
       /DMNAO  / : Print the NAO density matrix
       /DMMO   / : Print the MO density matrix
       /SAO    / : Print the AO overlap matrix
       /SPNAO  / : Print the PNAO overlap matrix
       /DETAIL / : Write details of NBO search
       /ARCHIVE/ : Write the archive file to lfn47
       /AOINFO / : Write AO information to lfn31
       /FILE   / : Set to mol112.gen*

 Filename set to mol112.gen1

 Job title: mol112-NBO


 MOs in the AO basis:

           AO          1       2       3       4       5       6       7       8
      ------------ ------- ------- ------- ------- ------- ------- ------- -------
   1.  C 1 (s)      0.0004  0.0004  0.7015  0.7022 -0.0978 -0.0764 -0.1389 -0.1065
   2.  C 1 (s)     -0.0053 -0.0048  0.0273  0.0192  0.2248  0.1719  0.4193  0.3433
   3.  C 1 (px)    -0.0035 -0.0042  0.0004  0.0005  0.0912  0.1021 -0.1085 -0.2231
   4.  C 1 (py)    -0.0021 -0.0024 -0.0030  0.0029  0.0309  0.0766 -0.1957  0.1466
   5.  C 1 (pz)     0.0000  0.0000  0.0000  0.0000  0.0000  0.0000  0.0000  0.0000
   6.  C 2 (s)     -0.0004  0.0004 -0.7015  0.7022 -0.0978  0.0764 -0.1389  0.1065
   7.  C 2 (s)      0.0053 -0.0048 -0.0273  0.0192  0.2248 -0.1719  0.4193 -0.3433
   8.  C 2 (px)    -0.0035  0.0042  0.0004 -0.0005 -0.0912  0.1021  0.1085 -0.2231
   9.  C 2 (py)    -0.0021  0.0024 -0.0030 -0.0029 -0.0309  0.0766  0.1957  0.1466
  10.  C 2 (pz)     0.0000  0.0000  0.0000  0.0000  0.0000  0.0000  0.0000  0.0000
  11.  O 3 (s)      0.7031  0.7031  0.0001  0.0001 -0.1504 -0.1581  0.0840  0.0458
  12.  O 3 (s)      0.0182  0.0183 -0.0042 -0.0039  0.5262  0.5560 -0.3518 -0.2058
  13.  O 3 (px)    -0.0033 -0.0034  0.0010  0.0010 -0.1007 -0.1018 -0.0521 -0.1773
  14.  O 3 (py)    -0.0021 -0.0020  0.0008  0.0005 -0.0647 -0.0631 -0.0860  0.0644
  15.  O 3 (pz)     0.0000  0.0000  0.0000  0.0000  0.0000  0.0000  0.0000  0.0000
  16.  H 4 (s)      0.0002  0.0000 -0.0046 -0.0046  0.0266  0.0177  0.1362  0.2788
  17.  O 5 (s)     -0.7031  0.7031 -0.0001  0.0001 -0.1504  0.1581  0.0840 -0.0458
  18.  O 5 (s)     -0.0182  0.0183  0.0042 -0.0039  0.5262 -0.5560 -0.3518  0.2058
  19.  O 5 (px)    -0.0033  0.0034  0.0010 -0.0010  0.1007 -0.1018  0.0521 -0.1773
  20.  O 5 (py)    -0.0021  0.0020  0.0008 -0.0005  0.0647 -0.0631  0.0860  0.0644
  21.  O 5 (pz)     0.0000  0.0000  0.0000  0.0000  0.0000  0.0000  0.0000  0.0000
  22.  H 6 (s)     -0.0002  0.0000  0.0046 -0.0046  0.0266 -0.0177  0.1362 -0.2788

           AO          9      10      11      12      13      14      15      16
      ------------ ------- ------- ------- ------- ------- ------- ------- -------
   1.  C 1 (s)     -0.0145  0.0525  0.0142  0.0000  0.0343  0.0000 -0.0267  0.0000
   2.  C 1 (s)      0.0529 -0.1772 -0.0460  0.0000 -0.1435  0.0000  0.1234  0.0000
   3.  C 1 (px)    -0.1709 -0.2752 -0.3075  0.0000  0.0925  0.0000  0.0577  0.0000
   4.  C 1 (py)     0.3689 -0.0358 -0.1313  0.0000  0.1242  0.0000 -0.2630  0.0000
   5.  C 1 (pz)     0.0000  0.0000  0.0000  0.4545  0.0000  0.4033  0.0000 -0.4876
   6.  C 2 (s)     -0.0145 -0.0525  0.0142  0.0000 -0.0343  0.0000 -0.0267  0.0000
   7.  C 2 (s)      0.0529  0.1772 -0.0460  0.0000  0.1435  0.0000  0.1234  0.0000
   8.  C 2 (px)     0.1709 -0.2752  0.3075  0.0000  0.0925  0.0000 -0.0577  0.0000
   9.  C 2 (py)    -0.3689 -0.0358  0.1313  0.0000  0.1242  0.0000  0.2630  0.0000
  10.  C 2 (pz)     0.0000  0.0000  0.0000  0.4545  0.0000 -0.4033  0.0000 -0.4876
  11.  O 3 (s)      0.0202 -0.0788 -0.0579  0.0000  0.0058  0.0000 -0.0018  0.0000
  12.  O 3 (s)     -0.1018  0.4037  0.3153  0.0000 -0.0380  0.0000  0.0139  0.0000
  13.  O 3 (px)    -0.2545  0.3048  0.4119  0.0000 -0.4212  0.0000 -0.2602  0.0000
  14.  O 3 (py)     0.2481  0.3634  0.2631  0.0000  0.4974  0.0000  0.5557  0.0000
  15.  O 3 (pz)     0.0000  0.0000  0.0000  0.4181  0.0000  0.5314  0.0000  0.5885
  16.  H 4 (s)      0.2271  0.0857  0.1793  0.0000 -0.1981  0.0000 -0.2844  0.0000
  17.  O 5 (s)      0.0202  0.0788 -0.0579  0.0000 -0.0058  0.0000 -0.0018  0.0000
  18.  O 5 (s)     -0.1018 -0.4037  0.3153  0.0000  0.0380  0.0000  0.0139  0.0000
  19.  O 5 (px)     0.2545  0.3048 -0.4119  0.0000 -0.4212  0.0000  0.2602  0.0000
  20.  O 5 (py)    -0.2481  0.3634 -0.2631  0.0000  0.4974  0.0000 -0.5557  0.0000
  21.  O 5 (pz)     0.0000  0.0000  0.0000  0.4181  0.0000 -0.5314  0.0000  0.5885
  22.  H 6 (s)      0.2271 -0.0857  0.1793  0.0000  0.1981  0.0000 -0.2844  0.0000

           AO         17      18      19      20      21      22
      ------------ ------- ------- ------- ------- ------- -------
   1.  C 1 (s)      0.0000 -0.1642  0.1129  0.0812 -0.0585 -0.0537
   2.  C 1 (s)      0.0000  0.9899 -0.7306 -0.4955  0.3783  0.3699
   3.  C 1 (px)     0.0000 -0.3644  0.3501 -0.5327  0.4464  0.9077
   4.  C 1 (py)     0.0000 -0.2675 -0.4639  0.7229  0.7061  0.2656
   5.  C 1 (pz)     0.6861  0.0000  0.0000  0.0000  0.0000  0.0000
   6.  C 2 (s)      0.0000  0.1642  0.1129 -0.0812  0.0585 -0.0537
   7.  C 2 (s)      0.0000 -0.9899 -0.7306  0.4955 -0.3783  0.3699
   8.  C 2 (px)     0.0000 -0.3644 -0.3501 -0.5327  0.4464 -0.9077
   9.  C 2 (py)     0.0000 -0.2675  0.4639  0.7229  0.7061 -0.2656
  10.  C 2 (pz)    -0.6861  0.0000  0.0000  0.0000  0.0000  0.0000
  11.  O 3 (s)      0.0000  0.0137 -0.0294 -0.0316  0.0765  0.0782
  12.  O 3 (s)      0.0000 -0.0679  0.1941  0.2193 -0.5561 -0.5990
  13.  O 3 (px)     0.0000  0.0867 -0.3106 -0.0961  0.5711  0.5078
  14.  O 3 (py)     0.0000  0.0704  0.0135 -0.3509  0.2509  0.3503
  15.  O 3 (pz)    -0.4914  0.0000  0.0000  0.0000  0.0000  0.0000
  16.  H 4 (s)      0.0000 -0.7588  0.8047 -0.4458 -0.1120  0.2864
  17.  O 5 (s)      0.0000 -0.0137 -0.0294  0.0316 -0.0765  0.0782
  18.  O 5 (s)      0.0000  0.0679  0.1941 -0.2193  0.5561 -0.5990
  19.  O 5 (px)     0.0000  0.0867  0.3106 -0.0961  0.5711 -0.5078
  20.  O 5 (py)     0.0000  0.0704 -0.0135 -0.3509  0.2509 -0.3503
  21.  O 5 (pz)     0.4914  0.0000  0.0000  0.0000  0.0000  0.0000
  22.  H 6 (s)      0.0000  0.7588  0.8047  0.4458  0.1120  0.2864


 AO overlap matrix:

           AO          1       2       3       4       5       6       7       8
      ------------ ------- ------- ------- ------- ------- ------- ------- -------
   1.  C 1 (s)      1.0000  0.2484  0.0000  0.0000  0.0000  0.0000  0.0285  0.0000
   2.  C 1 (s)      0.2484  1.0000  0.0000  0.0000  0.0000  0.0285  0.3107  0.0000
   3.  C 1 (px)     0.0000  0.0000  1.0000  0.0000  0.0000  0.0000  0.0000  0.1730
   4.  C 1 (py)     0.0000  0.0000  0.0000  1.0000  0.0000 -0.0476 -0.3464  0.0000
   5.  C 1 (pz)     0.0000  0.0000  0.0000  0.0000  1.0000  0.0000  0.0000  0.0000
   6.  C 2 (s)      0.0000  0.0285  0.0000 -0.0476  0.0000  1.0000  0.2484  0.0000
   7.  C 2 (s)      0.0285  0.3107  0.0000 -0.3464  0.0000  0.2484  1.0000  0.0000
   8.  C 2 (px)     0.0000  0.0000  0.1730  0.0000  0.0000  0.0000  0.0000  1.0000
   9.  C 2 (py)     0.0476  0.3464  0.0000 -0.3180  0.0000  0.0000  0.0000  0.0000
  10.  C 2 (pz)     0.0000  0.0000  0.0000  0.0000  0.1730  0.0000  0.0000  0.0000
  11.  O 3 (s)      0.0000  0.0359  0.0516  0.0313  0.0000  0.0000  0.0012  0.0012
  12.  O 3 (s)      0.0350  0.3577  0.3742  0.2266  0.0000  0.0002  0.0322  0.0241
  13.  O 3 (px)    -0.0504 -0.2722 -0.1740 -0.2301  0.0000 -0.0002 -0.0192 -0.0035
  14.  O 3 (py)    -0.0305 -0.1649 -0.2301  0.0667  0.0000 -0.0004 -0.0395 -0.0320
  15.  O 3 (pz)     0.0000  0.0000  0.0000  0.0000  0.2060  0.0000  0.0000  0.0000
  16.  H 4 (s)      0.0600  0.4818 -0.4177  0.1971  0.0000  0.0046  0.0861 -0.0507
  17.  O 5 (s)      0.0000  0.0012 -0.0012 -0.0026  0.0000  0.0000  0.0359 -0.0516
  18.  O 5 (s)      0.0002  0.0322 -0.0241 -0.0495  0.0000  0.0350  0.3577 -0.3742
  19.  O 5 (px)     0.0002  0.0192 -0.0035 -0.0320  0.0000  0.0504  0.2722 -0.1740
  20.  O 5 (py)     0.0004  0.0395 -0.0320 -0.0536  0.0000  0.0305  0.1649 -0.2301
  21.  O 5 (pz)     0.0000  0.0000  0.0000  0.0000  0.0122  0.0000  0.0000  0.0000
  22.  H 6 (s)      0.0046  0.0861  0.0507 -0.1007  0.0000  0.0600  0.4818  0.4177

           AO          9      10      11      12      13      14      15      16
      ------------ ------- ------- ------- ------- ------- ------- ------- -------
   1.  C 1 (s)      0.0476  0.0000  0.0000  0.0350 -0.0504 -0.0305  0.0000  0.0600
   2.  C 1 (s)      0.3464  0.0000  0.0359  0.3577 -0.2722 -0.1649  0.0000  0.4818
   3.  C 1 (px)     0.0000  0.0000  0.0516  0.3742 -0.1740 -0.2301  0.0000 -0.4177
   4.  C 1 (py)    -0.3180  0.0000  0.0313  0.2266 -0.2301  0.0667  0.0000  0.1971
   5.  C 1 (pz)     0.0000  0.1730  0.0000  0.0000  0.0000  0.0000  0.2060  0.0000
   6.  C 2 (s)      0.0000  0.0000  0.0000  0.0002 -0.0002 -0.0004  0.0000  0.0046
   7.  C 2 (s)      0.0000  0.0000  0.0012  0.0322 -0.0192 -0.0395  0.0000  0.0861
   8.  C 2 (px)     0.0000  0.0000  0.0012  0.0241 -0.0035 -0.0320  0.0000 -0.0507
   9.  C 2 (py)     1.0000  0.0000  0.0026  0.0495 -0.0320 -0.0536  0.0000  0.1007
  10.  C 2 (pz)     0.0000  1.0000  0.0000  0.0000  0.0000  0.0000  0.0122  0.0000
  11.  O 3 (s)      0.0026  0.0000  1.0000  0.2367  0.0000  0.0000  0.0000  0.0044
  12.  O 3 (s)      0.0495  0.0000  0.2367  1.0000  0.0000  0.0000  0.0000  0.0681
  13.  O 3 (px)    -0.0320  0.0000  0.0000  0.0000  1.0000  0.0000  0.0000 -0.0761
  14.  O 3 (py)    -0.0536  0.0000  0.0000  0.0000  0.0000  1.0000  0.0000 -0.0060
  15.  O 3 (pz)     0.0000  0.0122  0.0000  0.0000  0.0000  0.0000  1.0000  0.0000
  16.  H 4 (s)      0.1007  0.0000  0.0044  0.0681 -0.0761 -0.0060  0.0000  1.0000
  17.  O 5 (s)     -0.0313  0.0000  0.0000  0.0000  0.0000  0.0000  0.0000  0.0009
  18.  O 5 (s)     -0.2266  0.0000  0.0000  0.0001 -0.0002 -0.0002  0.0000  0.0193
  19.  O 5 (px)    -0.2301  0.0000  0.0000  0.0002 -0.0002 -0.0003  0.0000  0.0004
  20.  O 5 (py)     0.0667  0.0000  0.0000  0.0002 -0.0003 -0.0004  0.0000  0.0245
  21.  O 5 (pz)     0.0000  0.2060  0.0000  0.0000  0.0000  0.0000  0.0000  0.0000
  22.  H 6 (s)     -0.1971  0.0000  0.0009  0.0193 -0.0004 -0.0245  0.0000  0.0127

           AO         17      18      19      20      21      22
      ------------ ------- ------- ------- ------- ------- -------
   1.  C 1 (s)      0.0000  0.0002  0.0002  0.0004  0.0000  0.0046
   2.  C 1 (s)      0.0012  0.0322  0.0192  0.0395  0.0000  0.0861
   3.  C 1 (px)    -0.0012 -0.0241 -0.0035 -0.0320  0.0000  0.0507
   4.  C 1 (py)    -0.0026 -0.0495 -0.0320 -0.0536  0.0000 -0.1007
   5.  C 1 (pz)     0.0000  0.0000  0.0000  0.0000  0.0122  0.0000
   6.  C 2 (s)      0.0000  0.0350  0.0504  0.0305  0.0000  0.0600
   7.  C 2 (s)      0.0359  0.3577  0.2722  0.1649  0.0000  0.4818
   8.  C 2 (px)    -0.0516 -0.3742 -0.1740 -0.2301  0.0000  0.4177
   9.  C 2 (py)    -0.0313 -0.2266 -0.2301  0.0667  0.0000 -0.1971
  10.  C 2 (pz)     0.0000  0.0000  0.0000  0.0000  0.2060  0.0000
  11.  O 3 (s)      0.0000  0.0000  0.0000  0.0000  0.0000  0.0009
  12.  O 3 (s)      0.0000  0.0001  0.0002  0.0002  0.0000  0.0193
  13.  O 3 (px)     0.0000 -0.0002 -0.0002 -0.0003  0.0000 -0.0004
  14.  O 3 (py)     0.0000 -0.0002 -0.0003 -0.0004  0.0000 -0.0245
  15.  O 3 (pz)     0.0000  0.0000  0.0000  0.0000  0.0000  0.0000
  16.  H 4 (s)      0.0009  0.0193  0.0004  0.0245  0.0000  0.0127
  17.  O 5 (s)      1.0000  0.2367  0.0000  0.0000  0.0000  0.0044
  18.  O 5 (s)      0.2367  1.0000  0.0000  0.0000  0.0000  0.0681
  19.  O 5 (px)     0.0000  0.0000  1.0000  0.0000  0.0000  0.0761
  20.  O 5 (py)     0.0000  0.0000  0.0000  1.0000  0.0000  0.0060
  21.  O 5 (pz)     0.0000  0.0000  0.0000  0.0000  1.0000  0.0000
  22.  H 6 (s)      0.0044  0.0681  0.0761  0.0060  0.0000  1.0000


 AO bond-order matrix:

           AO          1       2       3       4       5       6       7       8
      ------------ ------- ------- ------- ------- ------- ------- ------- -------
   1.  C 1 (s)      2.0726 -0.2324  0.0161  0.0097  0.0000  0.0197 -0.0534  0.0037
   2.  C 1 (s)     -0.2324  0.8942 -0.0725 -0.0600  0.0000 -0.0534  0.0935 -0.0216
   3.  C 1 (px)     0.0161 -0.0725  0.5833 -0.0346  0.0000 -0.0037  0.0216 -0.0053
   4.  C 1 (py)     0.0097 -0.0600 -0.0346  0.6117  0.0000  0.0943 -0.2678  0.0205
   5.  C 1 (pz)     0.0000  0.0000  0.0000  0.0000  0.7385  0.0000  0.0000  0.0000
   6.  C 2 (s)      0.0197 -0.0534 -0.0037  0.0943  0.0000  2.0726 -0.2324 -0.0161
   7.  C 2 (s)     -0.0534  0.0935  0.0216 -0.2678  0.0000 -0.2324  0.8942  0.0725
   8.  C 2 (px)     0.0037 -0.0216 -0.0053  0.0205  0.0000 -0.0161  0.0725  0.5833
   9.  C 2 (py)    -0.0943  0.2678  0.0205 -0.4353  0.0000 -0.0097  0.0600 -0.0346
  10.  C 2 (pz)     0.0000  0.0000  0.0000  0.0000  0.0878  0.0000  0.0000  0.0000
  11.  O 3 (s)      0.0118 -0.0010 -0.0362 -0.0211  0.0000 -0.0027  0.0071  0.0099
  12.  O 3 (s)     -0.0068 -0.1777 -0.0093 -0.0086  0.0000  0.0078 -0.0124 -0.0386
  13.  O 3 (px)     0.1265 -0.3617 -0.3908 -0.3389  0.0000  0.0107 -0.0741  0.0160
  14.  O 3 (py)     0.0771 -0.2109 -0.3252 -0.0418  0.0000 -0.0615  0.2869  0.0260
  15.  O 3 (pz)     0.0000  0.0000  0.0000  0.0000  0.8087  0.0000  0.0000  0.0000
  16.  H 4 (s)     -0.1089  0.2871 -0.4500  0.2475  0.0000  0.0373 -0.1604  0.0408
  17.  O 5 (s)     -0.0027  0.0071 -0.0099 -0.0078  0.0000  0.0118 -0.0010  0.0362
  18.  O 5 (s)      0.0078 -0.0124  0.0386  0.0184  0.0000 -0.0068 -0.1777  0.0093
  19.  O 5 (px)    -0.0107  0.0741  0.0160 -0.0492  0.0000 -0.1265  0.3617 -0.3908
  20.  O 5 (py)     0.0615 -0.2869  0.0260  0.2554  0.0000 -0.0771  0.2109 -0.3252
  21.  O 5 (pz)     0.0000  0.0000  0.0000  0.0000 -0.0486  0.0000  0.0000  0.0000
  22.  H 6 (s)      0.0373 -0.1604 -0.0408  0.1893  0.0000 -0.1089  0.2871  0.4500

           AO          9      10      11      12      13      14      15      16
      ------------ ------- ------- ------- ------- ------- ------- ------- -------
   1.  C 1 (s)     -0.0943  0.0000  0.0118 -0.0068  0.1265  0.0771  0.0000 -0.1089
   2.  C 1 (s)      0.2678  0.0000 -0.0010 -0.1777 -0.3617 -0.2109  0.0000  0.2871
   3.  C 1 (px)     0.0205  0.0000 -0.0362 -0.0093 -0.3908 -0.3252  0.0000 -0.4500
   4.  C 1 (py)    -0.4353  0.0000 -0.0211 -0.0086 -0.3389 -0.0418  0.0000  0.2475
   5.  C 1 (pz)     0.0000  0.0878  0.0000  0.0000  0.0000  0.0000  0.8087  0.0000
   6.  C 2 (s)     -0.0097  0.0000 -0.0027  0.0078  0.0107 -0.0615  0.0000  0.0373
   7.  C 2 (s)      0.0600  0.0000  0.0071 -0.0124 -0.0741  0.2869  0.0000 -0.1604
   8.  C 2 (px)    -0.0346  0.0000  0.0099 -0.0386  0.0160  0.0260  0.0000  0.0408
   9.  C 2 (py)     0.6117  0.0000  0.0078 -0.0184 -0.0492  0.2554  0.0000 -0.1893
  10.  C 2 (pz)     0.0000  0.7385  0.0000  0.0000  0.0000  0.0000 -0.0486  0.0000
  11.  O 3 (s)      0.0078  0.0000  2.1108 -0.4653 -0.0820 -0.0488  0.0000  0.0087
  12.  O 3 (s)     -0.0184  0.0000 -0.4653  2.0544  0.4727  0.2820  0.0000 -0.0197
  13.  O 3 (px)    -0.0492  0.0000 -0.0820  0.4727  1.2542 -0.3840  0.0000  0.2771
  14.  O 3 (py)     0.2554  0.0000 -0.0488  0.2820 -0.3840  1.6774  0.0000 -0.2370
  15.  O 3 (pz)     0.0000 -0.0486  0.0000  0.0000  0.0000  0.0000  0.9143  0.0000
  16.  H 4 (s)     -0.1893  0.0000  0.0087 -0.0197  0.2771 -0.2370  0.0000  0.6171
  17.  O 5 (s)      0.0211  0.0000  0.0003  0.0007  0.0013  0.0083  0.0000 -0.0002
  18.  O 5 (s)      0.0086  0.0000  0.0007 -0.0105 -0.0030 -0.0357  0.0000  0.0018
  19.  O 5 (px)    -0.3389  0.0000 -0.0013  0.0030 -0.0056 -0.0307  0.0000 -0.0439
  20.  O 5 (py)    -0.0418  0.0000 -0.0083  0.0357 -0.0307 -0.1270  0.0000  0.0348
  21.  O 5 (pz)     0.0000  0.8087  0.0000  0.0000  0.0000  0.0000 -0.2152  0.0000
  22.  H 6 (s)     -0.2475  0.0000 -0.0002  0.0018  0.0439 -0.0348  0.0000  0.1185

           AO         17      18      19      20      21      22
      ------------ ------- ------- ------- ------- ------- -------
   1.  C 1 (s)     -0.0027  0.0078 -0.0107  0.0615  0.0000  0.0373
   2.  C 1 (s)      0.0071 -0.0124  0.0741 -0.2869  0.0000 -0.1604
   3.  C 1 (px)    -0.0099  0.0386  0.0160  0.0260  0.0000 -0.0408
   4.  C 1 (py)    -0.0078  0.0184 -0.0492  0.2554  0.0000  0.1893
   5.  C 1 (pz)     0.0000  0.0000  0.0000  0.0000 -0.0486  0.0000
   6.  C 2 (s)      0.0118 -0.0068 -0.1265 -0.0771  0.0000 -0.1089
   7.  C 2 (s)     -0.0010 -0.1777  0.3617  0.2109  0.0000  0.2871
   8.  C 2 (px)     0.0362  0.0093 -0.3908 -0.3252  0.0000  0.4500
   9.  C 2 (py)     0.0211  0.0086 -0.3389 -0.0418  0.0000 -0.2475
  10.  C 2 (pz)     0.0000  0.0000  0.0000  0.0000  0.8087  0.0000
  11.  O 3 (s)      0.0003  0.0007 -0.0013 -0.0083  0.0000 -0.0002
  12.  O 3 (s)      0.0007 -0.0105  0.0030  0.0357  0.0000  0.0018
  13.  O 3 (px)     0.0013 -0.0030 -0.0056 -0.0307  0.0000  0.0439
  14.  O 3 (py)     0.0083 -0.0357 -0.0307 -0.1270  0.0000 -0.0348
  15.  O 3 (pz)     0.0000  0.0000  0.0000  0.0000 -0.2152  0.0000
  16.  H 4 (s)     -0.0002  0.0018 -0.0439  0.0348  0.0000  0.1185
  17.  O 5 (s)      2.1108 -0.4653  0.0820  0.0488  0.0000  0.0087
  18.  O 5 (s)     -0.4653  2.0544 -0.4727 -0.2820  0.0000 -0.0197
  19.  O 5 (px)     0.0820 -0.4727  1.2542 -0.3840  0.0000 -0.2771
  20.  O 5 (py)     0.0488 -0.2820 -0.3840  1.6774  0.0000  0.2370
  21.  O 5 (pz)     0.0000  0.0000  0.0000  0.0000  0.9143  0.0000
  22.  H 6 (s)      0.0087 -0.0197 -0.2771  0.2370  0.0000  0.6171


 AO density matrix:

           AO          1       2       3       4       5       6       7       8
      ------------ ------- ------- ------- ------- ------- ------- ------- -------
   1.  C 1 (s)      1.9996  0.5051  0.0011  0.0001  0.0000  0.0002  0.0536  0.0006
   2.  C 1 (s)      0.5051  1.8179 -0.0508 -0.0180  0.0000  0.0536  0.6852 -0.0132
   3.  C 1 (px)     0.0011 -0.0508  1.6080 -0.0252  0.0000 -0.0006  0.0132  0.3256
   4.  C 1 (py)     0.0001 -0.0180 -0.0252  1.5820  0.0000 -0.0890 -0.8182 -0.0074
   5.  C 1 (pz)     0.0000  0.0000  0.0000  0.0000  1.1608  0.0000  0.0000  0.0000
   6.  C 2 (s)      0.0002  0.0536 -0.0006 -0.0890  0.0000  1.9996  0.5051 -0.0011
   7.  C 2 (s)      0.0536  0.6852  0.0132 -0.8182  0.0000  0.5051  1.8179  0.0508
   8.  C 2 (px)     0.0006 -0.0132  0.3256 -0.0074  0.0000 -0.0011  0.0508  1.6080
   9.  C 2 (py)     0.0890  0.8182 -0.0074 -0.8782  0.0000 -0.0001  0.0180 -0.0252
  10.  C 2 (pz)     0.0000  0.0000  0.0000  0.0000  0.3984  0.0000  0.0000  0.0000
  11.  O 3 (s)      0.0001  0.0685  0.0982  0.0594  0.0000  0.0000  0.0028  0.0023
  12.  O 3 (s)      0.0689  0.7444  0.7983  0.4847  0.0000  0.0004  0.0630  0.0506
  13.  O 3 (px)    -0.0953 -0.6792 -0.5083 -0.6379  0.0000 -0.0002 -0.0443 -0.0290
  14.  O 3 (py)    -0.0577 -0.4116 -0.6257  0.1508  0.0000 -0.0030 -0.0350 -0.0888
  15.  O 3 (pz)     0.0000  0.0000  0.0000  0.0000  1.1781  0.0000  0.0000  0.0000
  16.  H 4 (s)      0.1124  1.1129 -1.0791  0.5186  0.0000  0.0104  0.1518 -0.1239
  17.  O 5 (s)      0.0000  0.0028 -0.0023 -0.0054  0.0000  0.0001  0.0685 -0.0982
  18.  O 5 (s)      0.0004  0.0630 -0.0506 -0.1002  0.0000  0.0689  0.7444 -0.7983
  19.  O 5 (px)     0.0002  0.0443 -0.0290 -0.0787  0.0000  0.0953  0.6792 -0.5083
  20.  O 5 (py)     0.0030  0.0350 -0.0888 -0.0537  0.0000  0.0577  0.4116 -0.6257
  21.  O 5 (pz)     0.0000  0.0000  0.0000  0.0000  0.1136  0.0000  0.0000  0.0000
  22.  H 6 (s)      0.0104  0.1518  0.1239 -0.1495  0.0000  0.1124  1.1129  1.0791

           AO          9      10      11      12      13      14      15      16
      ------------ ------- ------- ------- ------- ------- ------- ------- -------
   1.  C 1 (s)      0.0890  0.0000  0.0001  0.0689 -0.0953 -0.0577  0.0000  0.1124
   2.  C 1 (s)      0.8182  0.0000  0.0685  0.7444 -0.6792 -0.4116  0.0000  1.1129
   3.  C 1 (px)    -0.0074  0.0000  0.0982  0.7983 -0.5083 -0.6257  0.0000 -1.0791
   4.  C 1 (py)    -0.8782  0.0000  0.0594  0.4847 -0.6379  0.1508  0.0000  0.5186
   5.  C 1 (pz)     0.0000  0.3984  0.0000  0.0000  0.0000  0.0000  1.1781  0.0000
   6.  C 2 (s)     -0.0001  0.0000  0.0000  0.0004 -0.0002 -0.0030  0.0000  0.0104
   7.  C 2 (s)      0.0180  0.0000  0.0028  0.0630 -0.0443 -0.0350  0.0000  0.1518
   8.  C 2 (px)    -0.0252  0.0000  0.0023  0.0506 -0.0290 -0.0888  0.0000 -0.1239
   9.  C 2 (py)     1.5820  0.0000  0.0054  0.1002 -0.0787 -0.0537  0.0000  0.1495
  10.  C 2 (pz)     0.0000  1.1608  0.0000  0.0000  0.0000  0.0000  0.1136  0.0000
  11.  O 3 (s)      0.0054  0.0000  1.9999  0.4746 -0.0048 -0.0029  0.0000  0.0092
  12.  O 3 (s)      0.1002  0.0000  0.4746  1.9891  0.0450  0.0266  0.0000  0.1361
  13.  O 3 (px)    -0.0787  0.0000 -0.0048  0.0450  1.8004 -0.0944  0.0000 -0.0875
  14.  O 3 (py)    -0.0537  0.0000 -0.0029  0.0266 -0.0944  1.9061  0.0000 -0.0630
  15.  O 3 (pz)     0.0000  0.1136  0.0000  0.0000  0.0000  0.0000  1.2782  0.0000
  16.  H 4 (s)      0.1495  0.0000  0.0092  0.1361 -0.0875 -0.0630  0.0000  1.6228
  17.  O 5 (s)     -0.0594  0.0000  0.0000  0.0000  0.0002  0.0005  0.0000  0.0019
  18.  O 5 (s)     -0.4847  0.0000  0.0000  0.0006 -0.0025 -0.0044  0.0000  0.0371
  19.  O 5 (px)    -0.6379  0.0000 -0.0002  0.0025 -0.0088 -0.0165  0.0000 -0.0193
  20.  O 5 (py)     0.1508  0.0000 -0.0005  0.0044 -0.0165 -0.0366  0.0000  0.0505
  21.  O 5 (pz)     0.0000  1.1781  0.0000  0.0000  0.0000  0.0000 -0.2081  0.0000
  22.  H 6 (s)     -0.5186  0.0000  0.0019  0.0371  0.0193 -0.0505  0.0000  0.0709

           AO         17      18      19      20      21      22
      ------------ ------- ------- ------- ------- ------- -------
   1.  C 1 (s)      0.0000  0.0004  0.0002  0.0030  0.0000  0.0104
   2.  C 1 (s)      0.0028  0.0630  0.0443  0.0350  0.0000  0.1518
   3.  C 1 (px)    -0.0023 -0.0506 -0.0290 -0.0888  0.0000  0.1239
   4.  C 1 (py)    -0.0054 -0.1002 -0.0787 -0.0537  0.0000 -0.1495
   5.  C 1 (pz)     0.0000  0.0000  0.0000  0.0000  0.1136  0.0000
   6.  C 2 (s)      0.0001  0.0689  0.0953  0.0577  0.0000  0.1124
   7.  C 2 (s)      0.0685  0.7444  0.6792  0.4116  0.0000  1.1129
   8.  C 2 (px)    -0.0982 -0.7983 -0.5083 -0.6257  0.0000  1.0791
   9.  C 2 (py)    -0.0594 -0.4847 -0.6379  0.1508  0.0000 -0.5186
  10.  C 2 (pz)     0.0000  0.0000  0.0000  0.0000  1.1781  0.0000
  11.  O 3 (s)      0.0000  0.0000 -0.0002 -0.0005  0.0000  0.0019
  12.  O 3 (s)      0.0000  0.0006  0.0025  0.0044  0.0000  0.0371
  13.  O 3 (px)     0.0002 -0.0025 -0.0088 -0.0165  0.0000  0.0193
  14.  O 3 (py)     0.0005 -0.0044 -0.0165 -0.0366  0.0000 -0.0505
  15.  O 3 (pz)     0.0000  0.0000  0.0000  0.0000 -0.2081  0.0000
  16.  H 4 (s)      0.0019  0.0371 -0.0193  0.0505  0.0000  0.0709
  17.  O 5 (s)      1.9999  0.4746  0.0048  0.0029  0.0000  0.0092
  18.  O 5 (s)      0.4746  1.9891 -0.0450 -0.0266  0.0000  0.1361
  19.  O 5 (px)     0.0048 -0.0450  1.8004 -0.0944  0.0000  0.0875
  20.  O 5 (py)     0.0029 -0.0266 -0.0944  1.9061  0.0000  0.0630
  21.  O 5 (pz)     0.0000  0.0000  0.0000  0.0000  1.2782  0.0000
  22.  H 6 (s)      0.0092  0.1361  0.0875  0.0630  0.0000  1.6228


 MO density matrix:

      MO     1       2       3       4       5       6       7       8       9
     ---- ------  ------  ------  ------  ------  ------  ------  ------  ------
   1.     2.0000  0.0000  0.0000  0.0000  0.0000  0.0000  0.0000  0.0000  0.0000
   2.     0.0000  2.0000  0.0000  0.0000  0.0000  0.0000  0.0000  0.0000  0.0000
   3.     0.0000  0.0000  2.0000  0.0000  0.0000  0.0000  0.0000  0.0000  0.0000
   4.     0.0000  0.0000  0.0000  2.0000  0.0000  0.0000  0.0000  0.0000  0.0000
   5.     0.0000  0.0000  0.0000  0.0000  2.0000  0.0000  0.0000  0.0000  0.0000
   6.     0.0000  0.0000  0.0000  0.0000  0.0000  2.0000  0.0000  0.0000  0.0000
   7.     0.0000  0.0000  0.0000  0.0000  0.0000  0.0000  2.0000  0.0000  0.0000
   8.     0.0000  0.0000  0.0000  0.0000  0.0000  0.0000  0.0000  2.0000  0.0000
   9.     0.0000  0.0000  0.0000  0.0000  0.0000  0.0000  0.0000  0.0000  2.0000
  10.     0.0000  0.0000  0.0000  0.0000  0.0000  0.0000  0.0000  0.0000  0.0000
  11.     0.0000  0.0000  0.0000  0.0000  0.0000  0.0000  0.0000  0.0000  0.0000
  12.     0.0000  0.0000  0.0000  0.0000  0.0000  0.0000  0.0000  0.0000  0.0000
  13.     0.0000  0.0000  0.0000  0.0000  0.0000  0.0000  0.0000  0.0000  0.0000
  14.     0.0000  0.0000  0.0000  0.0000  0.0000  0.0000  0.0000  0.0000  0.0000
  15.     0.0000  0.0000  0.0000  0.0000  0.0000  0.0000  0.0000  0.0000  0.0000
  16.     0.0000  0.0000  0.0000  0.0000  0.0000  0.0000  0.0000  0.0000  0.0000
  17.     0.0000  0.0000  0.0000  0.0000  0.0000  0.0000  0.0000  0.0000  0.0000
  18.     0.0000  0.0000  0.0000  0.0000  0.0000  0.0000  0.0000  0.0000  0.0000
  19.     0.0000  0.0000  0.0000  0.0000  0.0000  0.0000  0.0000  0.0000  0.0000
  20.     0.0000  0.0000  0.0000  0.0000  0.0000  0.0000  0.0000  0.0000  0.0000
  21.     0.0000  0.0000  0.0000  0.0000  0.0000  0.0000  0.0000  0.0000  0.0000
  22.     0.0000  0.0000  0.0000  0.0000  0.0000  0.0000  0.0000  0.0000  0.0000

      MO    10      11      12      13      14      15      16      17      18
     ---- ------  ------  ------  ------  ------  ------  ------  ------  ------
   1.     0.0000  0.0000  0.0000  0.0000  0.0000  0.0000  0.0000  0.0000  0.0000
   2.     0.0000  0.0000  0.0000  0.0000  0.0000  0.0000  0.0000  0.0000  0.0000
   3.     0.0000  0.0000  0.0000  0.0000  0.0000  0.0000  0.0000  0.0000  0.0000
   4.     0.0000  0.0000  0.0000  0.0000  0.0000  0.0000  0.0000  0.0000  0.0000
   5.     0.0000  0.0000  0.0000  0.0000  0.0000  0.0000  0.0000  0.0000  0.0000
   6.     0.0000  0.0000  0.0000  0.0000  0.0000  0.0000  0.0000  0.0000  0.0000
   7.     0.0000  0.0000  0.0000  0.0000  0.0000  0.0000  0.0000  0.0000  0.0000
   8.     0.0000  0.0000  0.0000  0.0000  0.0000  0.0000  0.0000  0.0000  0.0000
   9.     0.0000  0.0000  0.0000  0.0000  0.0000  0.0000  0.0000  0.0000  0.0000
  10.     2.0000  0.0000  0.0000  0.0000  0.0000  0.0000  0.0000  0.0000  0.0000
  11.     0.0000  2.0000  0.0000  0.0000  0.0000  0.0000  0.0000  0.0000  0.0000
  12.     0.0000  0.0000  2.0000  0.0000  0.0000  0.0000  0.0000  0.0000  0.0000
  13.     0.0000  0.0000  0.0000  2.0000  0.0000  0.0000  0.0000  0.0000  0.0000
  14.     0.0000  0.0000  0.0000  0.0000  2.0000  0.0000  0.0000  0.0000  0.0000
  15.     0.0000  0.0000  0.0000  0.0000  0.0000  2.0000  0.0000  0.0000  0.0000
  16.     0.0000  0.0000  0.0000  0.0000  0.0000  0.0000  0.0000  0.0000  0.0000
  17.     0.0000  0.0000  0.0000  0.0000  0.0000  0.0000  0.0000  0.0000  0.0000
  18.     0.0000  0.0000  0.0000  0.0000  0.0000  0.0000  0.0000  0.0000  0.0000
  19.     0.0000  0.0000  0.0000  0.0000  0.0000  0.0000  0.0000  0.0000  0.0000
  20.     0.0000  0.0000  0.0000  0.0000  0.0000  0.0000  0.0000  0.0000  0.0000
  21.     0.0000  0.0000  0.0000  0.0000  0.0000  0.0000  0.0000  0.0000  0.0000
  22.     0.0000  0.0000  0.0000  0.0000  0.0000  0.0000  0.0000  0.0000  0.0000

      MO    19      20      21      22
     ---- ------  ------  ------  ------
   1.     0.0000  0.0000  0.0000  0.0000
   2.     0.0000  0.0000  0.0000  0.0000
   3.     0.0000  0.0000  0.0000  0.0000
   4.     0.0000  0.0000  0.0000  0.0000
   5.     0.0000  0.0000  0.0000  0.0000
   6.     0.0000  0.0000  0.0000  0.0000
   7.     0.0000  0.0000  0.0000  0.0000
   8.     0.0000  0.0000  0.0000  0.0000
   9.     0.0000  0.0000  0.0000  0.0000
  10.     0.0000  0.0000  0.0000  0.0000
  11.     0.0000  0.0000  0.0000  0.0000
  12.     0.0000  0.0000  0.0000  0.0000
  13.     0.0000  0.0000  0.0000  0.0000
  14.     0.0000  0.0000  0.0000  0.0000
  15.     0.0000  0.0000  0.0000  0.0000
  16.     0.0000  0.0000  0.0000  0.0000
  17.     0.0000  0.0000  0.0000  0.0000
  18.     0.0000  0.0000  0.0000  0.0000
  19.     0.0000  0.0000  0.0000  0.0000
  20.     0.0000  0.0000  0.0000  0.0000
  21.     0.0000  0.0000  0.0000  0.0000
  22.     0.0000  0.0000  0.0000  0.0000


 NATURAL POPULATIONS:  Natural atomic orbital occupancies

  NAO Atom No lang   Type(AO)    Occupancy      Energy
 -------------------------------------------------------
   1    C  1  s      Cor( 1s)     1.99999     -11.13386
   2    C  1  s      Val( 2s)     1.10617      -0.25793
   3    C  1  px     Val( 2p)     0.89189       0.13618
   4    C  1  py     Val( 2p)     0.93300       0.08506
   5    C  1  pz     Val( 2p)     0.90703      -0.05130

   6    C  2  s      Cor( 1s)     1.99999     -11.13386
   7    C  2  s      Val( 2s)     1.10617      -0.25793
   8    C  2  px     Val( 2p)     0.89189       0.13618
   9    C  2  py     Val( 2p)     0.93300       0.08506
  10    C  2  pz     Val( 2p)     0.90703      -0.05130

  11    O  3  s      Cor( 1s)     2.00000     -20.20305
  12    O  3  s      Val( 2s)     1.80847      -1.08232
  13    O  3  px     Val( 2p)     1.50864      -0.21579
  14    O  3  py     Val( 2p)     1.77488      -0.33205
  15    O  3  pz     Val( 2p)     1.09297      -0.12740

  16    H  4  s      Val( 1s)     0.97695       0.02508

  17    O  5  s      Cor( 1s)     2.00000     -20.20305
  18    O  5  s      Val( 2s)     1.80847      -1.08232
  19    O  5  px     Val( 2p)     1.50864      -0.21579
  20    O  5  py     Val( 2p)     1.77488      -0.33205
  21    O  5  pz     Val( 2p)     1.09297      -0.12740

  22    H  6  s      Val( 1s)     0.97695       0.02508


 Summary of Natural Population Analysis:

                                     Natural Population
             Natural    ---------------------------------------------
  Atom No    Charge        Core      Valence    Rydberg      Total
 --------------------------------------------------------------------
    C  1    0.16190      1.99999     3.83810    0.00000     5.83810
    C  2    0.16190      1.99999     3.83810    0.00000     5.83810
    O  3   -0.18496      2.00000     6.18496    0.00000     8.18496
    H  4    0.02305      0.00000     0.97695    0.00000     0.97695
    O  5   -0.18496      2.00000     6.18496    0.00000     8.18496
    H  6    0.02305      0.00000     0.97695    0.00000     0.97695
 ====================================================================
 * Total *  0.00000      7.99999    22.00001    0.00000    30.00000

                                 Natural Population
 ---------------------------------------------------------
   Core                       7.99999 ( 99.9998% of    8)
   Valence                   22.00001 (100.0001% of   22)
   Natural Minimal Basis     30.00000 (100.0000% of   30)
   Natural Rydberg Basis      0.00000 (  0.0000% of   30)
 ---------------------------------------------------------

    Atom No         Natural Electron Configuration
 ----------------------------------------------------------------------------
      C  1      [core]2s( 1.11)2p( 2.73)
      C  2      [core]2s( 1.11)2p( 2.73)
      O  3      [core]2s( 1.81)2p( 4.38)
      H  4            1s( 0.98)
      O  5      [core]2s( 1.81)2p( 4.38)
      H  6            1s( 0.98)


 PNAOs in the AO basis:

           AO          1       2       3       4       5       6       7       8
      ------------ ------- ------- ------- ------- ------- ------- ------- -------
   1.  C 1 (s)      0.9877 -0.3002  0.0000  0.0000  0.0000  0.0000  0.0000  0.0000
   2.  C 1 (s)      0.0455  1.0313  0.0000  0.0000  0.0000  0.0000  0.0000  0.0000
   3.  C 1 (px)     0.0000  0.0000  1.0000  0.0000  0.0000  0.0000  0.0000  0.0000
   4.  C 1 (py)     0.0000  0.0000  0.0000  1.0000  0.0000  0.0000  0.0000  0.0000
   5.  C 1 (pz)     0.0000  0.0000  0.0000  0.0000  1.0000  0.0000  0.0000  0.0000
   6.  C 2 (s)      0.0000  0.0000  0.0000  0.0000  0.0000  0.9877 -0.3002  0.0000
   7.  C 2 (s)      0.0000  0.0000  0.0000  0.0000  0.0000  0.0455  1.0313  0.0000
   8.  C 2 (px)     0.0000  0.0000  0.0000  0.0000  0.0000  0.0000  0.0000  1.0000
   9.  C 2 (py)     0.0000  0.0000  0.0000  0.0000  0.0000  0.0000  0.0000  0.0000
  10.  C 2 (pz)     0.0000  0.0000  0.0000  0.0000  0.0000  0.0000  0.0000  0.0000
  11.  O 3 (s)      0.0000  0.0000  0.0000  0.0000  0.0000  0.0000  0.0000  0.0000
  12.  O 3 (s)      0.0000  0.0000  0.0000  0.0000  0.0000  0.0000  0.0000  0.0000
  13.  O 3 (px)     0.0000  0.0000  0.0000  0.0000  0.0000  0.0000  0.0000  0.0000
  14.  O 3 (py)     0.0000  0.0000  0.0000  0.0000  0.0000  0.0000  0.0000  0.0000
  15.  O 3 (pz)     0.0000  0.0000  0.0000  0.0000  0.0000  0.0000  0.0000  0.0000
  16.  H 4 (s)      0.0000  0.0000  0.0000  0.0000  0.0000  0.0000  0.0000  0.0000
  17.  O 5 (s)      0.0000  0.0000  0.0000  0.0000  0.0000  0.0000  0.0000  0.0000
  18.  O 5 (s)      0.0000  0.0000  0.0000  0.0000  0.0000  0.0000  0.0000  0.0000
  19.  O 5 (px)     0.0000  0.0000  0.0000  0.0000  0.0000  0.0000  0.0000  0.0000
  20.  O 5 (py)     0.0000  0.0000  0.0000  0.0000  0.0000  0.0000  0.0000  0.0000
  21.  O 5 (pz)     0.0000  0.0000  0.0000  0.0000  0.0000  0.0000  0.0000  0.0000
  22.  H 6 (s)      0.0000  0.0000  0.0000  0.0000  0.0000  0.0000  0.0000  0.0000

           AO          9      10      11      12      13      14      15      16
      ------------ ------- ------- ------- ------- ------- ------- ------- -------
   1.  C 1 (s)      0.0000  0.0000  0.0000  0.0000  0.0000  0.0000  0.0000  0.0000
   2.  C 1 (s)      0.0000  0.0000  0.0000  0.0000  0.0000  0.0000  0.0000  0.0000
   3.  C 1 (px)     0.0000  0.0000  0.0000  0.0000  0.0000  0.0000  0.0000  0.0000
   4.  C 1 (py)     0.0000  0.0000  0.0000  0.0000  0.0000  0.0000  0.0000  0.0000
   5.  C 1 (pz)     0.0000  0.0000  0.0000  0.0000  0.0000  0.0000  0.0000  0.0000
   6.  C 2 (s)      0.0000  0.0000  0.0000  0.0000  0.0000  0.0000  0.0000  0.0000
   7.  C 2 (s)      0.0000  0.0000  0.0000  0.0000  0.0000  0.0000  0.0000  0.0000
   8.  C 2 (px)     0.0000  0.0000  0.0000  0.0000  0.0000  0.0000  0.0000  0.0000
   9.  C 2 (py)     1.0000  0.0000  0.0000  0.0000  0.0000  0.0000  0.0000  0.0000
  10.  C 2 (pz)     0.0000  1.0000  0.0000  0.0000  0.0000  0.0000  0.0000  0.0000
  11.  O 3 (s)      0.0000  0.0000  0.9707 -0.3423  0.0000  0.0000  0.0000  0.0000
  12.  O 3 (s)      0.0000  0.0000  0.1028  1.0241  0.0000  0.0000  0.0000  0.0000
  13.  O 3 (px)     0.0000  0.0000  0.0000  0.0000  1.0000  0.0000  0.0000  0.0000
  14.  O 3 (py)     0.0000  0.0000  0.0000  0.0000  0.0000  1.0000  0.0000  0.0000
  15.  O 3 (pz)     0.0000  0.0000  0.0000  0.0000  0.0000  0.0000  1.0000  0.0000
  16.  H 4 (s)      0.0000  0.0000  0.0000  0.0000  0.0000  0.0000  0.0000  1.0000
  17.  O 5 (s)      0.0000  0.0000  0.0000  0.0000  0.0000  0.0000  0.0000  0.0000
  18.  O 5 (s)      0.0000  0.0000  0.0000  0.0000  0.0000  0.0000  0.0000  0.0000
  19.  O 5 (px)     0.0000  0.0000  0.0000  0.0000  0.0000  0.0000  0.0000  0.0000
  20.  O 5 (py)     0.0000  0.0000  0.0000  0.0000  0.0000  0.0000  0.0000  0.0000
  21.  O 5 (pz)     0.0000  0.0000  0.0000  0.0000  0.0000  0.0000  0.0000  0.0000
  22.  H 6 (s)      0.0000  0.0000  0.0000  0.0000  0.0000  0.0000  0.0000  0.0000

           AO         17      18      19      20      21      22
      ------------ ------- ------- ------- ------- ------- -------
   1.  C 1 (s)      0.0000  0.0000  0.0000  0.0000  0.0000  0.0000
   2.  C 1 (s)      0.0000  0.0000  0.0000  0.0000  0.0000  0.0000
   3.  C 1 (px)     0.0000  0.0000  0.0000  0.0000  0.0000  0.0000
   4.  C 1 (py)     0.0000  0.0000  0.0000  0.0000  0.0000  0.0000
   5.  C 1 (pz)     0.0000  0.0000  0.0000  0.0000  0.0000  0.0000
   6.  C 2 (s)      0.0000  0.0000  0.0000  0.0000  0.0000  0.0000
   7.  C 2 (s)      0.0000  0.0000  0.0000  0.0000  0.0000  0.0000
   8.  C 2 (px)     0.0000  0.0000  0.0000  0.0000  0.0000  0.0000
   9.  C 2 (py)     0.0000  0.0000  0.0000  0.0000  0.0000  0.0000
  10.  C 2 (pz)     0.0000  0.0000  0.0000  0.0000  0.0000  0.0000
  11.  O 3 (s)      0.0000  0.0000  0.0000  0.0000  0.0000  0.0000
  12.  O 3 (s)      0.0000  0.0000  0.0000  0.0000  0.0000  0.0000
  13.  O 3 (px)     0.0000  0.0000  0.0000  0.0000  0.0000  0.0000
  14.  O 3 (py)     0.0000  0.0000  0.0000  0.0000  0.0000  0.0000
  15.  O 3 (pz)     0.0000  0.0000  0.0000  0.0000  0.0000  0.0000
  16.  H 4 (s)      0.0000  0.0000  0.0000  0.0000  0.0000  0.0000
  17.  O 5 (s)      0.9707 -0.3423  0.0000  0.0000  0.0000  0.0000
  18.  O 5 (s)      0.1028  1.0241  0.0000  0.0000  0.0000  0.0000
  19.  O 5 (px)     0.0000  0.0000  1.0000  0.0000  0.0000  0.0000
  20.  O 5 (py)     0.0000  0.0000  0.0000  1.0000  0.0000  0.0000
  21.  O 5 (pz)     0.0000  0.0000  0.0000  0.0000  1.0000  0.0000
  22.  H 6 (s)      0.0000  0.0000  0.0000  0.0000  0.0000  1.0000


 PNAO overlap matrix:

           NAO         1       2       3       4       5       6       7       8
      ------------ ------- ------- ------- ------- ------- ------- ------- -------
   1.  C 1( 1s )    1.0000  0.0000  0.0000  0.0000  0.0000  0.0032  0.0432  0.0000
   2.  C 1( 2s )    0.0000  1.0000  0.0000  0.0000  0.0000  0.0432  0.3129  0.0000
   3.  C 1( 2px)    0.0000  0.0000  1.0000  0.0000  0.0000  0.0000  0.0000  0.1730
   4.  C 1( 2py)    0.0000  0.0000  0.0000  1.0000  0.0000 -0.0627 -0.3430  0.0000
   5.  C 1( 2pz)    0.0000  0.0000  0.0000  0.0000  1.0000  0.0000  0.0000  0.0000
   6.  C 2( 1s )    0.0032  0.0432  0.0000 -0.0627  0.0000  1.0000  0.0000  0.0000
   7.  C 2( 2s )    0.0432  0.3129  0.0000 -0.3430  0.0000  0.0000  1.0000  0.0000
   8.  C 2( 2px)    0.0000  0.0000  0.1730  0.0000  0.0000  0.0000  0.0000  1.0000
   9.  C 2( 2py)    0.0627  0.3430  0.0000 -0.3180  0.0000  0.0000  0.0000  0.0000
  10.  C 2( 2pz)    0.0000  0.0000  0.0000  0.0000  0.1730  0.0000  0.0000  0.0000
  11.  O 3( 1s )    0.0068  0.0728  0.0886  0.0537  0.0000  0.0002  0.0046  0.0037
  12.  O 3( 2s )    0.0516  0.3544  0.3655  0.2214  0.0000  0.0017  0.0335  0.0243
  13.  O 3( 2px)   -0.0622 -0.2656 -0.1740 -0.2301  0.0000 -0.0011 -0.0198 -0.0035
  14.  O 3( 2py)   -0.0377 -0.1609 -0.2301  0.0667  0.0000 -0.0022 -0.0406 -0.0320
  15.  O 3( 2pz)    0.0000  0.0000  0.0000  0.0000  0.2060  0.0000  0.0000  0.0000
  16.  H 4( 1s )    0.0812  0.4789 -0.4177  0.1971  0.0000  0.0084  0.0874 -0.0507
  17.  O 5( 1s )    0.0002  0.0046 -0.0037 -0.0076  0.0000  0.0068  0.0728 -0.0886
  18.  O 5( 2s )    0.0017  0.0335 -0.0243 -0.0498  0.0000  0.0516  0.3544 -0.3655
  19.  O 5( 2px)    0.0011  0.0198 -0.0035 -0.0320  0.0000  0.0622  0.2656 -0.1740
  20.  O 5( 2py)    0.0022  0.0406 -0.0320 -0.0536  0.0000  0.0377  0.1609 -0.2301
  21.  O 5( 2pz)    0.0000  0.0000  0.0000  0.0000  0.0122  0.0000  0.0000  0.0000
  22.  H 6( 1s )    0.0084  0.0874  0.0507 -0.1007  0.0000  0.0812  0.4789  0.4177

           NAO         9      10      11      12      13      14      15      16
      ------------ ------- ------- ------- ------- ------- ------- ------- -------
   1.  C 1( 1s )    0.0627  0.0000  0.0068  0.0516 -0.0622 -0.0377  0.0000  0.0812
   2.  C 1( 2s )    0.3430  0.0000  0.0728  0.3544 -0.2656 -0.1609  0.0000  0.4789
   3.  C 1( 2px)    0.0000  0.0000  0.0886  0.3655 -0.1740 -0.2301  0.0000 -0.4177
   4.  C 1( 2py)   -0.3180  0.0000  0.0537  0.2214 -0.2301  0.0667  0.0000  0.1971
   5.  C 1( 2pz)    0.0000  0.1730  0.0000  0.0000  0.0000  0.0000  0.2060  0.0000
   6.  C 2( 1s )    0.0000  0.0000  0.0002  0.0017 -0.0011 -0.0022  0.0000  0.0084
   7.  C 2( 2s )    0.0000  0.0000  0.0046  0.0335 -0.0198 -0.0406  0.0000  0.0874
   8.  C 2( 2px)    0.0000  0.0000  0.0037  0.0243 -0.0035 -0.0320  0.0000 -0.0507
   9.  C 2( 2py)    1.0000  0.0000  0.0076  0.0498 -0.0320 -0.0536  0.0000  0.1007
  10.  C 2( 2pz)    0.0000  1.0000  0.0000  0.0000  0.0000  0.0000  0.0122  0.0000
  11.  O 3( 1s )    0.0076  0.0000  1.0000  0.0000  0.0000  0.0000  0.0000  0.0113
  12.  O 3( 2s )    0.0498  0.0000  0.0000  1.0000  0.0000  0.0000  0.0000  0.0683
  13.  O 3( 2px)   -0.0320  0.0000  0.0000  0.0000  1.0000  0.0000  0.0000 -0.0761
  14.  O 3( 2py)   -0.0536  0.0000  0.0000  0.0000  0.0000  1.0000  0.0000 -0.0060
  15.  O 3( 2pz)    0.0000  0.0122  0.0000  0.0000  0.0000  0.0000  1.0000  0.0000
  16.  H 4( 1s )    0.1007  0.0000  0.0113  0.0683 -0.0761 -0.0060  0.0000  1.0000
  17.  O 5( 1s )   -0.0537  0.0000  0.0000  0.0000  0.0000  0.0000  0.0000  0.0029
  18.  O 5( 2s )   -0.2214  0.0000  0.0000  0.0001 -0.0002 -0.0003  0.0000  0.0194
  19.  O 5( 2px)   -0.2301  0.0000  0.0000  0.0002 -0.0002 -0.0003  0.0000  0.0004
  20.  O 5( 2py)    0.0667  0.0000  0.0000  0.0003 -0.0003 -0.0004  0.0000  0.0245
  21.  O 5( 2pz)    0.0000  0.2060  0.0000  0.0000  0.0000  0.0000  0.0000  0.0000
  22.  H 6( 1s )   -0.1971  0.0000  0.0029  0.0194 -0.0004 -0.0245  0.0000  0.0127

           NAO        17      18      19      20      21      22
      ------------ ------- ------- ------- ------- ------- -------
   1.  C 1( 1s )    0.0002  0.0017  0.0011  0.0022  0.0000  0.0084
   2.  C 1( 2s )    0.0046  0.0335  0.0198  0.0406  0.0000  0.0874
   3.  C 1( 2px)   -0.0037 -0.0243 -0.0035 -0.0320  0.0000  0.0507
   4.  C 1( 2py)   -0.0076 -0.0498 -0.0320 -0.0536  0.0000 -0.1007
   5.  C 1( 2pz)    0.0000  0.0000  0.0000  0.0000  0.0122  0.0000
   6.  C 2( 1s )    0.0068  0.0516  0.0622  0.0377  0.0000  0.0812
   7.  C 2( 2s )    0.0728  0.3544  0.2656  0.1609  0.0000  0.4789
   8.  C 2( 2px)   -0.0886 -0.3655 -0.1740 -0.2301  0.0000  0.4177
   9.  C 2( 2py)   -0.0537 -0.2214 -0.2301  0.0667  0.0000 -0.1971
  10.  C 2( 2pz)    0.0000  0.0000  0.0000  0.0000  0.2060  0.0000
  11.  O 3( 1s )    0.0000  0.0000  0.0000  0.0000  0.0000  0.0029
  12.  O 3( 2s )    0.0000  0.0001  0.0002  0.0003  0.0000  0.0194
  13.  O 3( 2px)    0.0000 -0.0002 -0.0002 -0.0003  0.0000 -0.0004
  14.  O 3( 2py)    0.0000 -0.0003 -0.0003 -0.0004  0.0000 -0.0245
  15.  O 3( 2pz)    0.0000  0.0000  0.0000  0.0000  0.0000  0.0000
  16.  H 4( 1s )    0.0029  0.0194  0.0004  0.0245  0.0000  0.0127
  17.  O 5( 1s )    1.0000  0.0000  0.0000  0.0000  0.0000  0.0113
  18.  O 5( 2s )    0.0000  1.0000  0.0000  0.0000  0.0000  0.0683
  19.  O 5( 2px)    0.0000  0.0000  1.0000  0.0000  0.0000  0.0761
  20.  O 5( 2py)    0.0000  0.0000  0.0000  1.0000  0.0000  0.0060
  21.  O 5( 2pz)    0.0000  0.0000  0.0000  0.0000  1.0000  0.0000
  22.  H 6( 1s )    0.0113  0.0683  0.0761  0.0060  0.0000  1.0000


 PNAO density matrix:

           NAO         1       2       3       4       5       6       7       8
      ------------ ------- ------- ------- ------- ------- ------- ------- -------
   1.  C 1( 1s )    2.0000  0.0000 -0.0012 -0.0007  0.0000  0.0064  0.0860  0.0000
   2.  C 1( 2s )    0.0000  1.8010 -0.0527 -0.0186  0.0000  0.0860  0.6957 -0.0138
   3.  C 1( 2px)   -0.0012 -0.0527  1.6080 -0.0252  0.0000  0.0000  0.0138  0.3256
   4.  C 1( 2py)   -0.0007 -0.0186 -0.0252  1.5820  0.0000 -0.1251 -0.8172 -0.0074
   5.  C 1( 2pz)    0.0000  0.0000  0.0000  0.0000  1.1608  0.0000  0.0000  0.0000
   6.  C 2( 1s )    0.0064  0.0860  0.0000 -0.1251  0.0000  2.0000  0.0000  0.0012
   7.  C 2( 2s )    0.0860  0.6957  0.0138 -0.8172  0.0000  0.0000  1.8010  0.0527
   8.  C 2( 2px)    0.0000 -0.0138  0.3256 -0.0074  0.0000  0.0012  0.0527  1.6080
   9.  C 2( 2py)    0.1251  0.8172 -0.0074 -0.8782  0.0000  0.0007  0.0186 -0.0252
  10.  C 2( 2pz)    0.0000  0.0000  0.0000  0.0000  0.3984  0.0000  0.0000  0.0000
  11.  O 3( 1s )    0.0136  0.1454  0.1774  0.1075  0.0000  0.0004  0.0094  0.0074
  12.  O 3( 2s )    0.1033  0.7408  0.7840  0.4761  0.0000  0.0033  0.0654  0.0510
  13.  O 3( 2px)   -0.1251 -0.6718 -0.5083 -0.6379  0.0000 -0.0022 -0.0457 -0.0290
  14.  O 3( 2py)   -0.0757 -0.4071 -0.6257  0.1508  0.0000 -0.0046 -0.0352 -0.0888
  15.  O 3( 2pz)    0.0000  0.0000  0.0000  0.0000  1.1781  0.0000  0.0000  0.0000
  16.  H 4( 1s )    0.1617  1.1141 -1.0791  0.5186  0.0000  0.0172  0.1534 -0.1239
  17.  O 5( 1s )    0.0004  0.0094 -0.0074 -0.0155  0.0000  0.0136  0.1454 -0.1774
  18.  O 5( 2s )    0.0033  0.0654 -0.0510 -0.1007  0.0000  0.1033  0.7408 -0.7840
  19.  O 5( 2px)    0.0022  0.0457 -0.0290 -0.0787  0.0000  0.1251  0.6718 -0.5083
  20.  O 5( 2py)    0.0046  0.0352 -0.0888 -0.0537  0.0000  0.0757  0.4071 -0.6257
  21.  O 5( 2pz)    0.0000  0.0000  0.0000  0.0000  0.1136  0.0000  0.0000  0.0000
  22.  H 6( 1s )    0.0172  0.1534  0.1239 -0.1495  0.0000  0.1617  1.1141  1.0791

           NAO         9      10      11      12      13      14      15      16
      ------------ ------- ------- ------- ------- ------- ------- ------- -------
   1.  C 1( 1s )    0.1251  0.0000  0.0136  0.1033 -0.1251 -0.0757  0.0000  0.1617
   2.  C 1( 2s )    0.8172  0.0000  0.1454  0.7408 -0.6718 -0.4071  0.0000  1.1141
   3.  C 1( 2px)   -0.0074  0.0000  0.1774  0.7840 -0.5083 -0.6257  0.0000 -1.0791
   4.  C 1( 2py)   -0.8782  0.0000  0.1075  0.4761 -0.6379  0.1508  0.0000  0.5186
   5.  C 1( 2pz)    0.0000  0.3984  0.0000  0.0000  0.0000  0.0000  1.1781  0.0000
   6.  C 2( 1s )    0.0007  0.0000  0.0004  0.0033 -0.0022 -0.0046  0.0000  0.0172
   7.  C 2( 2s )    0.0186  0.0000  0.0094  0.0654 -0.0457 -0.0352  0.0000  0.1534
   8.  C 2( 2px)   -0.0252  0.0000  0.0074  0.0510 -0.0290 -0.0888  0.0000 -0.1239
   9.  C 2( 2py)    1.5820  0.0000  0.0155  0.1007 -0.0787 -0.0537  0.0000  0.1495
  10.  C 2( 2pz)    0.0000  1.1608  0.0000  0.0000  0.0000  0.0000  0.1136  0.0000
  11.  O 3( 1s )    0.0155  0.0000  2.0000  0.0000  0.0000  0.0000  0.0000  0.0229
  12.  O 3( 2s )    0.1007  0.0000  0.0000  1.9877  0.0477  0.0283  0.0000  0.1362
  13.  O 3( 2px)   -0.0787  0.0000  0.0000  0.0477  1.8004 -0.0944  0.0000 -0.0875
  14.  O 3( 2py)   -0.0537  0.0000  0.0000  0.0283 -0.0944  1.9061  0.0000 -0.0630
  15.  O 3( 2pz)    0.0000  0.1136  0.0000  0.0000  0.0000  0.0000  1.2782  0.0000
  16.  H 4( 1s )    0.1495  0.0000  0.0229  0.1362 -0.0875 -0.0630  0.0000  1.6228
  17.  O 5( 1s )   -0.1075  0.0000  0.0000  0.0000 -0.0001  0.0000  0.0000  0.0056
  18.  O 5( 2s )   -0.4761  0.0000  0.0000  0.0006 -0.0027 -0.0047  0.0000  0.0374
  19.  O 5( 2px)   -0.6379  0.0000  0.0001  0.0027 -0.0088 -0.0165  0.0000 -0.0193
  20.  O 5( 2py)    0.1508  0.0000  0.0000  0.0047 -0.0165 -0.0366  0.0000  0.0505
  21.  O 5( 2pz)    0.0000  1.1781  0.0000  0.0000  0.0000  0.0000 -0.2081  0.0000
  22.  H 6( 1s )   -0.5186  0.0000  0.0056  0.0374  0.0193 -0.0505  0.0000  0.0709

           NAO        17      18      19      20      21      22
      ------------ ------- ------- ------- ------- ------- -------
   1.  C 1( 1s )    0.0004  0.0033  0.0022  0.0046  0.0000  0.0172
   2.  C 1( 2s )    0.0094  0.0654  0.0457  0.0352  0.0000  0.1534
   3.  C 1( 2px)   -0.0074 -0.0510 -0.0290 -0.0888  0.0000  0.1239
   4.  C 1( 2py)   -0.0155 -0.1007 -0.0787 -0.0537  0.0000 -0.1495
   5.  C 1( 2pz)    0.0000  0.0000  0.0000  0.0000  0.1136  0.0000
   6.  C 2( 1s )    0.0136  0.1033  0.1251  0.0757  0.0000  0.1617
   7.  C 2( 2s )    0.1454  0.7408  0.6718  0.4071  0.0000  1.1141
   8.  C 2( 2px)   -0.1774 -0.7840 -0.5083 -0.6257  0.0000  1.0791
   9.  C 2( 2py)   -0.1075 -0.4761 -0.6379  0.1508  0.0000 -0.5186
  10.  C 2( 2pz)    0.0000  0.0000  0.0000  0.0000  1.1781  0.0000
  11.  O 3( 1s )    0.0000  0.0000  0.0001  0.0000  0.0000  0.0056
  12.  O 3( 2s )    0.0000  0.0006  0.0027  0.0047  0.0000  0.0374
  13.  O 3( 2px)   -0.0001 -0.0027 -0.0088 -0.0165  0.0000  0.0193
  14.  O 3( 2py)    0.0000 -0.0047 -0.0165 -0.0366  0.0000 -0.0505
  15.  O 3( 2pz)    0.0000  0.0000  0.0000  0.0000 -0.2081  0.0000
  16.  H 4( 1s )    0.0056  0.0374 -0.0193  0.0505  0.0000  0.0709
  17.  O 5( 1s )    2.0000  0.0000  0.0000  0.0000  0.0000  0.0229
  18.  O 5( 2s )    0.0000  1.9877 -0.0477 -0.0283  0.0000  0.1362
  19.  O 5( 2px)    0.0000 -0.0477  1.8004 -0.0944  0.0000  0.0875
  20.  O 5( 2py)    0.0000 -0.0283 -0.0944  1.9061  0.0000  0.0630
  21.  O 5( 2pz)    0.0000  0.0000  0.0000  0.0000  1.2782  0.0000
  22.  H 6( 1s )    0.0229  0.1362  0.0875  0.0630  0.0000  1.6228


 NAOs in the AO basis:

           AO          1       2       3       4       5       6       7       8
      ------------ ------- ------- ------- ------- ------- ------- ------- -------
   1.  C 1 (s)      0.9877 -0.3357 -0.0022  0.0010  0.0000 -0.0016  0.0124  0.0004
   2.  C 1 (s)      0.0455  1.4362  0.0409  0.0194  0.0000 -0.0001 -0.2324 -0.0041
   3.  C 1 (px)     0.0000  0.0316  1.2812  0.0297  0.0000  0.0000  0.0031 -0.1218
   4.  C 1 (py)     0.0000  0.0149  0.0297  1.2291  0.0000  0.0000  0.2201 -0.0117
   5.  C 1 (pz)     0.0000  0.0000  0.0000  0.0000  1.0292  0.0000  0.0000  0.0000
   6.  C 2 (s)     -0.0016  0.0124 -0.0004 -0.0056  0.0000  0.9877 -0.3357  0.0022
   7.  C 2 (s)     -0.0001 -0.2324  0.0041  0.2854  0.0000  0.0455  1.4362 -0.0409
   8.  C 2 (px)     0.0000 -0.0031 -0.1218 -0.0117  0.0000  0.0000 -0.0316  1.2812
   9.  C 2 (py)     0.0000 -0.2201 -0.0117  0.2410  0.0000  0.0000 -0.0149  0.0297
  10.  C 2 (pz)     0.0000  0.0000  0.0000  0.0000 -0.0912  0.0000  0.0000  0.0000
  11.  O 3 (s)     -0.0033  0.0035 -0.0016 -0.0013  0.0000 -0.0001 -0.0015 -0.0018
  12.  O 3 (s)     -0.0004 -0.3081 -0.3597 -0.2104  0.0000  0.0000  0.0024  0.0294
  13.  O 3 (px)     0.0000  0.1990  0.1708  0.1789  0.0000  0.0000  0.0079 -0.0190
  14.  O 3 (py)     0.0000  0.1201  0.1817 -0.0217  0.0000  0.0000 -0.0153 -0.0047
  15.  O 3 (pz)     0.0000  0.0000  0.0000  0.0000 -0.1143  0.0000  0.0000  0.0000
  16.  H 4 (s)      0.0000 -0.3206  0.3284 -0.1581  0.0000  0.0000 -0.0081 -0.0076
  17.  O 5 (s)     -0.0001 -0.0015  0.0018  0.0014  0.0000 -0.0033  0.0035  0.0016
  18.  O 5 (s)      0.0000  0.0024 -0.0294 -0.0007  0.0000 -0.0004 -0.3081  0.3597
  19.  O 5 (px)     0.0000 -0.0079 -0.0190  0.0054  0.0000  0.0000 -0.1990  0.1708
  20.  O 5 (py)     0.0000  0.0153 -0.0047 -0.0100  0.0000  0.0000 -0.1201  0.1817
  21.  O 5 (pz)     0.0000  0.0000  0.0000  0.0000  0.0080  0.0000  0.0000  0.0000
  22.  H 6 (s)      0.0000 -0.0081  0.0076  0.0098  0.0000  0.0000 -0.3206 -0.3284

           AO          9      10      11      12      13      14      15      16
      ------------ ------- ------- ------- ------- ------- ------- ------- -------
   1.  C 1 (s)      0.0056  0.0000 -0.0034  0.0093  0.0120  0.0072  0.0000  0.0074
   2.  C 1 (s)     -0.2854  0.0000 -0.0002 -0.2751  0.2260  0.1364  0.0000 -0.3716
   3.  C 1 (px)    -0.0117  0.0000  0.0000 -0.2474  0.1491  0.1586  0.0000  0.2935
   4.  C 1 (py)     0.2410  0.0000  0.0000 -0.1447  0.1562 -0.0189  0.0000 -0.1413
   5.  C 1 (pz)     0.0000 -0.0912  0.0000  0.0000  0.0000  0.0000 -0.0998  0.0000
   6.  C 2 (s)     -0.0010  0.0000 -0.0001 -0.0002 -0.0003  0.0000  0.0000 -0.0003
   7.  C 2 (s)     -0.0194  0.0000  0.0000  0.0023  0.0089 -0.0174  0.0000 -0.0094
   8.  C 2 (px)     0.0297  0.0000  0.0000  0.0204 -0.0166 -0.0041  0.0000 -0.0068
   9.  C 2 (py)     1.2291  0.0000  0.0000  0.0006  0.0047 -0.0088  0.0000 -0.0088
  10.  C 2 (pz)     0.0000  1.0292  0.0000  0.0000  0.0000  0.0000  0.0070  0.0000
  11.  O 3 (s)     -0.0014  0.0000  0.9707 -0.3563  0.0118  0.0072  0.0000 -0.0025
  12.  O 3 (s)      0.0007  0.0000  0.1029  1.2145 -0.1489 -0.0904  0.0000 -0.0103
  13.  O 3 (px)     0.0054  0.0000  0.0000 -0.1184  1.0984  0.0491  0.0000 -0.0080
  14.  O 3 (py)    -0.0100  0.0000  0.0000 -0.0719  0.0491  1.0471  0.0000  0.0187
  15.  O 3 (pz)     0.0000  0.0080  0.0000  0.0000  0.0000  0.0000  1.0158  0.0000
  16.  H 4 (s)     -0.0098  0.0000  0.0000 -0.0077 -0.0078  0.0182  0.0000  1.2605
  17.  O 5 (s)      0.0013  0.0000  0.0000 -0.0001  0.0002  0.0000  0.0000  0.0004
  18.  O 5 (s)      0.2104  0.0000  0.0000  0.0033 -0.0038  0.0005  0.0000 -0.0080
  19.  O 5 (px)     0.1789  0.0000  0.0000  0.0030 -0.0026 -0.0008  0.0000  0.0012
  20.  O 5 (py)    -0.0217  0.0000  0.0000 -0.0004 -0.0008  0.0012  0.0000 -0.0059
  21.  O 5 (pz)     0.0000 -0.1143  0.0000  0.0000  0.0000  0.0000 -0.0004  0.0000
  22.  H 6 (s)      0.1581  0.0000  0.0000 -0.0062 -0.0011  0.0057  0.0000 -0.0023

           AO         17      18      19      20      21      22
      ------------ ------- ------- ------- ------- ------- -------
   1.  C 1 (s)     -0.0001 -0.0002  0.0003  0.0000  0.0000 -0.0003
   2.  C 1 (s)      0.0000  0.0023 -0.0089  0.0174  0.0000 -0.0094
   3.  C 1 (px)     0.0000 -0.0204 -0.0166 -0.0041  0.0000  0.0068
   4.  C 1 (py)     0.0000 -0.0006  0.0047 -0.0088  0.0000  0.0088
   5.  C 1 (pz)     0.0000  0.0000  0.0000  0.0000  0.0070  0.0000
   6.  C 2 (s)     -0.0034  0.0093 -0.0120 -0.0072  0.0000  0.0074
   7.  C 2 (s)     -0.0002 -0.2751 -0.2260 -0.1364  0.0000 -0.3716
   8.  C 2 (px)     0.0000  0.2474  0.1491  0.1586  0.0000 -0.2935
   9.  C 2 (py)     0.0000  0.1447  0.1562 -0.0189  0.0000  0.1413
  10.  C 2 (pz)     0.0000  0.0000  0.0000  0.0000 -0.0998  0.0000
  11.  O 3 (s)      0.0000 -0.0001 -0.0002  0.0000  0.0000  0.0004
  12.  O 3 (s)      0.0000  0.0033  0.0038 -0.0005  0.0000 -0.0080
  13.  O 3 (px)     0.0000 -0.0030 -0.0026 -0.0008  0.0000 -0.0012
  14.  O 3 (py)     0.0000  0.0004 -0.0008  0.0012  0.0000  0.0059
  15.  O 3 (pz)     0.0000  0.0000  0.0000  0.0000 -0.0004  0.0000
  16.  H 4 (s)      0.0000 -0.0062  0.0011 -0.0057  0.0000 -0.0023
  17.  O 5 (s)      0.9707 -0.3563 -0.0118 -0.0072  0.0000 -0.0025
  18.  O 5 (s)      0.1029  1.2145  0.1489  0.0904  0.0000 -0.0103
  19.  O 5 (px)     0.0000  0.1184  1.0984  0.0491  0.0000  0.0080
  20.  O 5 (py)     0.0000  0.0719  0.0491  1.0471  0.0000 -0.0187
  21.  O 5 (pz)     0.0000  0.0000  0.0000  0.0000  1.0158  0.0000
  22.  H 6 (s)      0.0000 -0.0077  0.0078 -0.0182  0.0000  1.2605


 NAO density matrix:

           NAO         1       2       3       4       5       6       7       8
      ------------ ------- ------- ------- ------- ------- ------- ------- -------
   1.  C 1( 1s )    2.0000  0.0001 -0.0021 -0.0011  0.0000  0.0000 -0.0008  0.0001
   2.  C 1( 2s )    0.0001  1.1062 -0.0993 -0.0558  0.0000 -0.0008  0.3058 -0.0194
   3.  C 1( 2px)   -0.0021 -0.0993  0.8919 -0.0610  0.0000 -0.0001  0.0194  0.0971
   4.  C 1( 2py)   -0.0011 -0.0558 -0.0610  0.9330  0.0000  0.0006 -0.4541  0.0133
   5.  C 1( 2pz)    0.0000  0.0000  0.0000  0.0000  0.9070  0.0000  0.0000  0.0000
   6.  C 2( 1s )    0.0000 -0.0008 -0.0001  0.0006  0.0000  2.0000  0.0001  0.0021
   7.  C 2( 2s )   -0.0008  0.3058  0.0194 -0.4541  0.0000  0.0001  1.1062  0.0993
   8.  C 2( 2px)    0.0001 -0.0194  0.0971  0.0133  0.0000  0.0021  0.0993  0.8919
   9.  C 2( 2py)   -0.0006  0.4541  0.0133 -0.6248  0.0000  0.0011  0.0558 -0.0610
  10.  C 2( 2pz)    0.0000  0.0000  0.0000  0.0000  0.2196  0.0000  0.0000  0.0000
  11.  O 3( 1s )    0.0000 -0.0006  0.0004  0.0003  0.0000  0.0000  0.0004  0.0000
  12.  O 3( 2s )    0.0007  0.2529  0.3443  0.2062  0.0000  0.0001 -0.0120 -0.0174
  13.  O 3( 2px)   -0.0011 -0.4366 -0.4275 -0.4400  0.0000 -0.0001 -0.0304 -0.0038
  14.  O 3( 2py)   -0.0007 -0.2604 -0.4251  0.0248  0.0000 -0.0002  0.1372 -0.0147
  15.  O 3( 2pz)    0.0000  0.0000  0.0000  0.0000  0.9709  0.0000  0.0000  0.0000
  16.  H 4( 1s )   -0.0012  0.5750 -0.6943  0.3574  0.0000  0.0005 -0.0528 -0.0108
  17.  O 5( 1s )    0.0000  0.0004  0.0000 -0.0005  0.0000  0.0000 -0.0006 -0.0004
  18.  O 5( 2s )    0.0001 -0.0120  0.0174  0.0040  0.0000  0.0007  0.2529 -0.3443
  19.  O 5( 2px)    0.0001  0.0304 -0.0038 -0.0335  0.0000  0.0011  0.4366 -0.4275
  20.  O 5( 2py)    0.0002 -0.1372 -0.0147  0.1333  0.0000  0.0007  0.2604 -0.4251
  21.  O 5( 2pz)    0.0000  0.0000  0.0000  0.0000  0.0210  0.0000  0.0000  0.0000
  22.  H 6( 1s )    0.0005 -0.0528  0.0108  0.0922  0.0000 -0.0012  0.5750  0.6943

           NAO         9      10      11      12      13      14      15      16
      ------------ ------- ------- ------- ------- ------- ------- ------- -------
   1.  C 1( 1s )   -0.0006  0.0000  0.0000  0.0007 -0.0011 -0.0007  0.0000 -0.0012
   2.  C 1( 2s )    0.4541  0.0000 -0.0006  0.2529 -0.4366 -0.2604  0.0000  0.5750
   3.  C 1( 2px)    0.0133  0.0000  0.0004  0.3443 -0.4275 -0.4251  0.0000 -0.6943
   4.  C 1( 2py)   -0.6248  0.0000  0.0003  0.2062 -0.4400  0.0248  0.0000  0.3574
   5.  C 1( 2pz)    0.0000  0.2196  0.0000  0.0000  0.0000  0.0000  0.9709  0.0000
   6.  C 2( 1s )    0.0011  0.0000  0.0000  0.0001 -0.0001 -0.0002  0.0000  0.0005
   7.  C 2( 2s )    0.0558  0.0000  0.0004 -0.0120 -0.0304  0.1372  0.0000 -0.0528
   8.  C 2( 2px)   -0.0610  0.0000  0.0000 -0.0174 -0.0038 -0.0147  0.0000 -0.0108
   9.  C 2( 2py)    0.9330  0.0000  0.0005 -0.0040 -0.0335  0.1333  0.0000 -0.0922
  10.  C 2( 2pz)    0.0000  0.9070  0.0000  0.0000  0.0000  0.0000  0.0210  0.0000
  11.  O 3( 1s )    0.0005  0.0000  2.0000  0.0000  0.0000  0.0000  0.0000  0.0006
  12.  O 3( 2s )   -0.0040  0.0000  0.0000  1.8085  0.2978  0.1784  0.0000 -0.0029
  13.  O 3( 2px)   -0.0335  0.0000  0.0000  0.2978  1.5086 -0.2427  0.0000  0.1497
  14.  O 3( 2py)    0.1333  0.0000  0.0000  0.1784 -0.2427  1.7749  0.0000 -0.1300
  15.  O 3( 2pz)    0.0000  0.0210  0.0000  0.0000  0.0000  0.0000  1.0930  0.0000
  16.  H 4( 1s )   -0.0922  0.0000  0.0006 -0.0029  0.1497 -0.1300  0.0000  0.9769
  17.  O 5( 1s )   -0.0003  0.0000  0.0000  0.0000 -0.0001  0.0001  0.0000 -0.0001
  18.  O 5( 2s )   -0.2062  0.0000  0.0000  0.0023 -0.0073 -0.0195  0.0000 -0.0032
  19.  O 5( 2px)   -0.4400  0.0000  0.0001  0.0073 -0.0118 -0.0261  0.0000 -0.0374
  20.  O 5( 2py)    0.0248  0.0000 -0.0001  0.0195 -0.0261 -0.0695  0.0000  0.0093
  21.  O 5( 2pz)    0.0000  0.9709  0.0000  0.0000  0.0000  0.0000 -0.2196  0.0000
  22.  H 6( 1s )   -0.3574  0.0000 -0.0001 -0.0032  0.0374 -0.0093  0.0000  0.0828

           NAO        17      18      19      20      21      22
      ------------ ------- ------- ------- ------- ------- -------
   1.  C 1( 1s )    0.0000  0.0001  0.0001  0.0002  0.0000  0.0005
   2.  C 1( 2s )    0.0004 -0.0120  0.0304 -0.1372  0.0000 -0.0528
   3.  C 1( 2px)    0.0000  0.0174 -0.0038 -0.0147  0.0000  0.0108
   4.  C 1( 2py)   -0.0005  0.0040 -0.0335  0.1333  0.0000  0.0922
   5.  C 1( 2pz)    0.0000  0.0000  0.0000  0.0000  0.0210  0.0000
   6.  C 2( 1s )    0.0000  0.0007  0.0011  0.0007  0.0000 -0.0012
   7.  C 2( 2s )   -0.0006  0.2529  0.4366  0.2604  0.0000  0.5750
   8.  C 2( 2px)   -0.0004 -0.3443 -0.4275 -0.4251  0.0000  0.6943
   9.  C 2( 2py)   -0.0003 -0.2062 -0.4400  0.0248  0.0000 -0.3574
  10.  C 2( 2pz)    0.0000  0.0000  0.0000  0.0000  0.9709  0.0000
  11.  O 3( 1s )    0.0000  0.0000  0.0001 -0.0001  0.0000 -0.0001
  12.  O 3( 2s )    0.0000  0.0023  0.0073  0.0195  0.0000 -0.0032
  13.  O 3( 2px)   -0.0001 -0.0073 -0.0118 -0.0261  0.0000  0.0374
  14.  O 3( 2py)    0.0001 -0.0195 -0.0261 -0.0695  0.0000 -0.0093
  15.  O 3( 2pz)    0.0000  0.0000  0.0000  0.0000 -0.2196  0.0000
  16.  H 4( 1s )   -0.0001 -0.0032 -0.0374  0.0093  0.0000  0.0828
  17.  O 5( 1s )    2.0000  0.0000  0.0000  0.0000  0.0000  0.0006
  18.  O 5( 2s )    0.0000  1.8085 -0.2978 -0.1784  0.0000 -0.0029
  19.  O 5( 2px)    0.0000 -0.2978  1.5086 -0.2427  0.0000 -0.1497
  20.  O 5( 2py)    0.0000 -0.1784 -0.2427  1.7749  0.0000  0.1300
  21.  O 5( 2pz)    0.0000  0.0000  0.0000  0.0000  1.0930  0.0000
  22.  H 6( 1s )    0.0006 -0.0029 -0.1497  0.1300  0.0000  0.9769


 NATURAL BOND ORBITAL ANALYSIS:

 Initiate 2-center NBO search using THRESH = 1.900 and PRJTHR = 0.300

 Search of NAO DM block for core orbitals on atom:   1
      Eigenvector ( 1) has occupancy 1.99999
            1.0000 0.0000 0.0000 0.0000 0.0000
        1 eigenvector(s) stashed in permanent list

 Search of NAO DM block for core orbitals on atom:   2
      Eigenvector ( 1) has occupancy 1.99999
            1.0000 0.0000 0.0000 0.0000 0.0000
        1 eigenvector(s) stashed in permanent list

 Search of NAO DM block for core orbitals on atom:   3
      Eigenvector ( 1) has occupancy 2.00000
            1.0000 0.0000 0.0000 0.0000 0.0000
        1 eigenvector(s) stashed in permanent list

 Search of NAO DM block for core orbitals on atom:   5
      Eigenvector ( 1) has occupancy 2.00000
            1.0000 0.0000 0.0000 0.0000 0.0000
        1 eigenvector(s) stashed in permanent list

 Core orbitals projected from the NAO density matrix
      22.000 electrons remain (>1.900); search continues

 Search of NAO DM block for the following atom(s):   1
      Select eigenvectors with eigenvalue > 1.900
       1.150 0.976 0.907 0.805 0.000

 Search of NAO DM block for the following atom(s):   2
      Select eigenvectors with eigenvalue > 1.900
       1.150 0.976 0.907 0.805 0.000

 Search of NAO DM block for the following atom(s):   3
      Select eigenvectors with eigenvalue > 1.900
       1.999 1.919 1.175 1.093 0.000
      Eigenvector ( 1) has occupancy 1.99864
            0.0000 0.8769 0.4032 0.2618 0.0000
      Eigenvector ( 2) has occupancy 1.91854
            0.0000-0.0168-0.5184 0.8549 0.0000
      2 hybrids on atom 3 stashed in prospective list

 Search of NAO DM block for the following atom(s):   5
      Select eigenvectors with eigenvalue > 1.900
       1.999 1.919 1.175 1.093 0.000
      Eigenvector ( 1) has occupancy 1.99864
            0.0000 0.8769-0.4032-0.2618 0.0000
      Eigenvector ( 2) has occupancy 1.91854
            0.0000 0.0168-0.5184 0.8549 0.0000
      2 hybrids on atom 5 stashed in prospective list

 Stash prospective hybrids having projection expectation value > 0.300
       1.000 1.000 1.000 1.000
      0 hybrids eliminated in 1 pass
      4 hybrids moved from prospective to permanent list

 NHOs of 1-center eigenvectors projected from the NAO density matrix
      14.166 electrons remain (>1.900); search continues

 Search of NAO DM block for the following atom(s):   1   2
[...]
      Eigenvector ( 2) has occupancy 1.99864
            0.0000 1.0000 0.0000 0.0000 0.0000
           NBO accepted:    7. Label:LP ( 1)   5
      Eigenvector ( 3) has occupancy 1.91854
            0.0000 0.0000 1.0000 0.0000 0.0000
           NBO accepted:    8. Label:LP ( 2)   5
        3 eigenvector(s) stashed in permanent list

  1-center NBOs projected from the NHO density matrix
      14.166 electrons remain (>1.900); search continues

 Search of NHO DM block for the following atom(s):   1   2
      Select eigenvectors with eigenvalue > 1.900
       1.988 0.094 0.000 0.000 0.000 0.000 0.000 0.000 0.000 0.000
      Eigenvector ( 1) has occupancy 1.98788
            0.0000 0.0000 0.0000 0.0000 0.7071 0.0000 0.0000 0.0000
            0.0000 0.7071
      Occupancy is 1.988 after deleting minor hybrid components
            0.0000 0.0000 0.0000 0.0000 0.7071 0.0000 0.0000 0.0000
            0.0000 0.7071
           NBO accepted:    9. Label:BD ( 1)   1   2
      Occupancy is 0.094 for antibonding component
            0.0000 0.0000 0.0000 0.0000-0.7071 0.0000 0.0000 0.0000
            0.0000 0.7071
           NBO accepted:   10. Label:BD*( 1)   1   2
        2 eigenvector(s) stashed in permanent list

 Search of NHO DM block for the following atom(s):   1   3
      Select eigenvectors with eigenvalue > 1.900
       1.995 1.975 0.025 0.007 0.000 0.000 0.000 0.000 0.000 0.000
      Eigenvector ( 1) has occupancy 1.99505
            0.0000 0.0000 0.6423 0.0000 0.0000 0.0000 0.0000 0.0000
            0.0000 0.7664
      Occupancy is 1.995 after deleting minor hybrid components
            0.0000 0.0000 0.6423 0.0000 0.0000 0.0000 0.0000 0.0000
            0.0000 0.7664
           NBO accepted:   11. Label:BD ( 1)   1   3
      Occupancy is 0.007 for antibonding component
            0.0000 0.0000 0.7664 0.0000 0.0000 0.0000 0.0000 0.0000
            0.0000-0.6423
           NBO accepted:   12. Label:BD*( 1)   1   3
      Eigenvector ( 2) has occupancy 1.97536
            0.0000 0.6726 0.0000 0.0000 0.0000 0.0000 0.0000 0.0000
            0.7400 0.0000
      Occupancy is 1.975 after deleting minor hybrid components
            0.0000 0.6726 0.0000 0.0000 0.0000 0.0000 0.0000 0.0000
            0.7400 0.0000
           NBO accepted:   13. Label:BD ( 2)   1   3
      Occupancy is 0.025 for antibonding component
            0.0000 0.7400 0.0000 0.0000 0.0000 0.0000 0.0000 0.0000
           -0.6726 0.0000
           NBO accepted:   14. Label:BD*( 2)   1   3
        4 eigenvector(s) stashed in permanent list

 Search of NHO DM block for the following atom(s):   1   4
      Select eigenvectors with eigenvalue > 1.900
       1.991 0.049 0.000 0.000 0.000 0.000
      Eigenvector ( 1) has occupancy 1.99052
            0.0000 0.0000 0.0000 0.7226 0.0000 0.6913
      Occupancy is 1.991 after deleting minor hybrid components
            0.0000 0.0000 0.0000 0.7226 0.0000 0.6913
           NBO accepted:   15. Label:BD ( 1)   1   4
      Occupancy is 0.049 for antibonding component
            0.0000 0.0000 0.0000-0.6913 0.0000 0.7226
           NBO accepted:   16. Label:BD*( 1)   1   4
        2 eigenvector(s) stashed in permanent list

 Search of NHO DM block for the following atom(s):   2   5
      Select eigenvectors with eigenvalue > 1.900
       1.995 1.975 0.025 0.007 0.000 0.000 0.000 0.000 0.000 0.000
      Eigenvector ( 1) has occupancy 1.99505
            0.0000 0.0000 0.6423 0.0000 0.0000 0.0000 0.0000 0.0000
            0.0000 0.7664
      Occupancy is 1.995 after deleting minor hybrid components
            0.0000 0.0000 0.6423 0.0000 0.0000 0.0000 0.0000 0.0000
            0.0000 0.7664
           NBO accepted:   17. Label:BD ( 1)   2   5
      Occupancy is 0.007 for antibonding component
            0.0000 0.0000 0.7664 0.0000 0.0000 0.0000 0.0000 0.0000
            0.0000-0.6423
           NBO accepted:   18. Label:BD*( 1)   2   5
      Eigenvector ( 2) has occupancy 1.97536
            0.0000 0.6726 0.0000 0.0000 0.0000 0.0000 0.0000 0.0000
            0.7400 0.0000
      Occupancy is 1.975 after deleting minor hybrid components
            0.0000 0.6726 0.0000 0.0000 0.0000 0.0000 0.0000 0.0000
            0.7400 0.0000
           NBO accepted:   19. Label:BD ( 2)   2   5
      Occupancy is 0.025 for antibonding component
            0.0000 0.7400 0.0000 0.0000 0.0000 0.0000 0.0000 0.0000
           -0.6726 0.0000
           NBO accepted:   20. Label:BD*( 2)   2   5
        4 eigenvector(s) stashed in permanent list

 Search of NHO DM block for the following atom(s):   2   6
      Select eigenvectors with eigenvalue > 1.900
       1.991 0.049 0.000 0.000 0.000 0.000
      Eigenvector ( 1) has occupancy 1.99052
            0.0000 0.0000 0.0000 0.7226 0.0000 0.6913
      Occupancy is 1.991 after deleting minor hybrid components
            0.0000 0.0000 0.0000 0.7226 0.0000 0.6913
           NBO accepted:   21. Label:BD ( 1)   2   6
      Occupancy is 0.049 for antibonding component
            0.0000 0.0000 0.0000-0.6913 0.0000 0.7226
           NBO accepted:   22. Label:BD*( 1)   2   6
        2 eigenvector(s) stashed in permanent list

  2-center NBOs projected from the NHO density matrix
       0.000 electrons remain in the fully projected matrix

                            Occupancies       Lewis Structure    Low   High
         Max    Occ     -------------------  -----------------   occ   occ
  Cycle  Ctr   Thresh    Lewis   non-Lewis     CR  BD  nC  LP    (L)   (NL)
 ============================================================================
    1     2     1.90    29.74410   0.25590      4   7   0   4     0      0
 ----------------------------------------------------------------------------

 Structure accepted: No low occupancy Lewis orbitals

 -------------------------------------------------------
   Core                      7.99999 (100.000% of   8)
   Valence Lewis            21.74411 ( 98.837% of  22)
  ==================      =============================
   Total Lewis              29.74410 ( 99.147% of  30)
  -----------------------------------------------------
   Valence non-Lewis         0.25590 (  0.853% of  30)
   Rydberg non-Lewis         0.00000 (  0.000% of  30)
  ==================      =============================
   Total non-Lewis           0.25590 (  0.853% of  30)
 -------------------------------------------------------


     (Occupancy)   Bond orbital / Coefficients / Hybrids
 ------------------ Lewis ------------------------------------------------------
   1. (1.99999) CR ( 1) C  1            s(100.00%)
                                         1.0000  0.0000  0.0000  0.0000  0.0000
   2. (1.99999) CR ( 1) C  2            s(100.00%)
                                         1.0000  0.0000  0.0000  0.0000  0.0000
   3. (2.00000) CR ( 1) O  3            s(100.00%)
                                         1.0000  0.0000  0.0000  0.0000  0.0000
   4. (2.00000) CR ( 1) O  5            s(100.00%)
                                         1.0000  0.0000  0.0000  0.0000  0.0000
   5. (1.99864) LP ( 1) O  3            s( 76.89%)p 0.30( 23.11%)
                                         0.0000  0.8769  0.4032  0.2618  0.0000
   6. (1.91854) LP ( 2) O  3            s(  0.03%)p99.99( 99.97%)
                                         0.0000  0.0168  0.5184 -0.8549  0.0000
   7. (1.99864) LP ( 1) O  5            s( 76.89%)p 0.30( 23.11%)
                                         0.0000  0.8769 -0.4032 -0.2618  0.0000
   8. (1.91854) LP ( 2) O  5            s(  0.03%)p99.99( 99.97%)
                                         0.0000  0.0168 -0.5184  0.8549  0.0000
   9. (1.98788) BD ( 1) C  1- C  2
               ( 50.00%)   0.7071* C  1 s( 32.50%)p 2.08( 67.50%)
                                         0.0000  0.5701  0.0327 -0.8210  0.0000
               ( 50.00%)   0.7071* C  2 s( 32.50%)p 2.08( 67.50%)
                                         0.0000  0.5701 -0.0327  0.8210  0.0000
  10. (1.99505) BD ( 1) C  1- O  3
               ( 41.26%)   0.6423* C  1 s( 33.30%)p 2.00( 66.70%)
                                         0.0000  0.5771  0.6953  0.4284  0.0000
               ( 58.74%)   0.7664* O  3 s( 23.08%)p 3.33( 76.92%)
                                         0.0000  0.4804 -0.7541 -0.4478  0.0000
  11. (1.97536) BD ( 2) C  1- O  3
               ( 45.23%)   0.6726* C  1 s(  0.00%)p 1.00(100.00%)
                                         0.0000  0.0000  0.0000  0.0000  1.0000
               ( 54.77%)   0.7400* O  3 s(  0.00%)p 1.00(100.00%)
                                         0.0000  0.0000  0.0000  0.0000  1.0000
  12. (1.99052) BD ( 1) C  1- H  4
               ( 52.21%)   0.7226* C  1 s( 34.20%)p 1.92( 65.80%)
                                         0.0000  0.5848 -0.7180  0.3775  0.0000
               ( 47.79%)   0.6913* H  4 s(100.00%)
                                         1.0000
  13. (1.99505) BD ( 1) C  2- O  5
               ( 41.26%)   0.6423* C  2 s( 33.30%)p 2.00( 66.70%)
                                         0.0000  0.5771 -0.6953 -0.4284  0.0000
               ( 58.74%)   0.7664* O  5 s( 23.08%)p 3.33( 76.92%)
                                         0.0000  0.4804  0.7541  0.4478  0.0000
  14. (1.97536) BD ( 2) C  2- O  5
               ( 45.23%)   0.6726* C  2 s(  0.00%)p 1.00(100.00%)
                                         0.0000  0.0000  0.0000  0.0000  1.0000
               ( 54.77%)   0.7400* O  5 s(  0.00%)p 1.00(100.00%)
                                         0.0000  0.0000  0.0000  0.0000  1.0000
  15. (1.99052) BD ( 1) C  2- H  6
               ( 52.21%)   0.7226* C  2 s( 34.20%)p 1.92( 65.80%)
                                         0.0000  0.5848  0.7180 -0.3775  0.0000
               ( 47.79%)   0.6913* H  6 s(100.00%)
                                         1.0000
 ---------------- non-Lewis ----------------------------------------------------
  16. (0.09411) BD*( 1) C  1- C  2
               ( 50.00%)   0.7071* C  1 s( 32.50%)p 2.08( 67.50%)
                                         0.0000  0.5701  0.0327 -0.8210  0.0000
               ( 50.00%)  -0.7071* C  2 s( 32.50%)p 2.08( 67.50%)
                                         0.0000  0.5701 -0.0327  0.8210  0.0000
  17. (0.00697) BD*( 1) C  1- O  3
               ( 58.74%)   0.7664* C  1 s( 33.30%)p 2.00( 66.70%)
                                         0.0000  0.5771  0.6953  0.4284  0.0000
               ( 41.26%)  -0.6423* O  3 s( 23.08%)p 3.33( 76.92%)
                                         0.0000  0.4804 -0.7541 -0.4478  0.0000
  18. (0.02464) BD*( 2) C  1- O  3
               ( 54.77%)   0.7400* C  1 s(  0.00%)p 1.00(100.00%)
                                         0.0000  0.0000  0.0000  0.0000  1.0000
               ( 45.23%)  -0.6726* O  3 s(  0.00%)p 1.00(100.00%)
                                         0.0000  0.0000  0.0000  0.0000  1.0000
  19. (0.04928) BD*( 1) C  1- H  4
               ( 47.79%)   0.6913* C  1 s( 34.20%)p 1.92( 65.80%)
                                         0.0000 -0.5848  0.7180 -0.3775  0.0000
               ( 52.21%)  -0.7226* H  4 s(100.00%)
                                        -1.0000
  20. (0.00697) BD*( 1) C  2- O  5
               ( 58.74%)   0.7664* C  2 s( 33.30%)p 2.00( 66.70%)
                                         0.0000  0.5771 -0.6953 -0.4284  0.0000
               ( 41.26%)  -0.6423* O  5 s( 23.08%)p 3.33( 76.92%)
                                         0.0000  0.4804  0.7541  0.4478  0.0000
  21. (0.02464) BD*( 2) C  2- O  5
               ( 54.77%)   0.7400* C  2 s(  0.00%)p 1.00(100.00%)
                                         0.0000  0.0000  0.0000  0.0000  1.0000
               ( 45.23%)  -0.6726* O  5 s(  0.00%)p 1.00(100.00%)
                                         0.0000  0.0000  0.0000  0.0000  1.0000
  22. (0.04928) BD*( 1) C  2- H  6
               ( 47.79%)   0.6913* C  2 s( 34.20%)p 1.92( 65.80%)
                                         0.0000 -0.5848 -0.7180  0.3775  0.0000
               ( 52.21%)  -0.7226* H  6 s(100.00%)
                                        -1.0000


 NHO DIRECTIONALITY AND BOND BENDING (deviation from line of nuclear centers at
                                      the position of maximum hybrid amplitude)

         [Thresholds for printing:  angular deviation  >  1.0 degree]
                                    p- or d-character  > 25.0%
                                    orbital occupancy  >  0.10e

                        Line of Centers        Hybrid 1             Hybrid 2
                        ---------------  -------------------  ------------------
           NBO            Theta   Phi    Theta   Phi    Dev   Theta   Phi    Dev
 ===============================================================================
   6. LP ( 2) O  3          --     --     90.0  301.2   --      --     --    --
   8. LP ( 2) O  5          --     --     90.0  121.2   --      --     --    --
   9. BD ( 1) C  1- C  2   90.0  270.0    90.0  272.2   2.2    90.0   92.2   2.2
  11. BD ( 2) C  1- O  3   90.0   31.2     0.2  185.4  90.1     0.1   31.1  90.1
  12. BD ( 1) C  1- H  4   90.0  154.7    90.0  152.8   2.0     --     --    --
  14. BD ( 2) C  2- O  5   90.0  211.2   179.8    5.4  90.1   179.9  211.1  90.1
  15. BD ( 1) C  2- H  6   90.0  334.7    90.0  332.8   2.0     --     --    --


 SECOND ORDER PERTURBATION THEORY ANALYSIS OF FOCK MATRIX IN NBO BASIS

     Threshold for printing:   0.50 kcal/mol
                                                          E(2) E(NL)-E(L) F(L,NL)
      Donor (L) NBO              Acceptor (NL) NBO      kcal/mol   a.u.    a.u.
 ===============================================================================

 within unit  1
    6. LP ( 2) O  3            16. BD*( 1) C  1- C  2     31.02    1.02   0.159
    6. LP ( 2) O  3            19. BD*( 1) C  1- H  4     28.75    1.05   0.155
    8. LP ( 2) O  5            16. BD*( 1) C  1- C  2     31.02    1.02   0.159
    8. LP ( 2) O  5            22. BD*( 1) C  2- H  6     28.75    1.05   0.155
    9. BD ( 1) C  1- C  2      17. BD*( 1) C  1- O  3      1.63    1.64   0.046
    9. BD ( 1) C  1- C  2      19. BD*( 1) C  1- H  4      2.42    1.40   0.052
    9. BD ( 1) C  1- C  2      20. BD*( 1) C  2- O  5      1.63    1.64   0.046
    9. BD ( 1) C  1- C  2      22. BD*( 1) C  2- H  6      2.42    1.40   0.052
   10. BD ( 1) C  1- O  3      16. BD*( 1) C  1- C  2      2.07    1.68   0.053
   10. BD ( 1) C  1- O  3      19. BD*( 1) C  1- H  4      1.57    1.70   0.046
   10. BD ( 1) C  1- O  3      20. BD*( 1) C  2- O  5      1.10    1.94   0.041
   11. BD ( 2) C  1- O  3      21. BD*( 2) C  2- O  5     11.49    0.72   0.081
   12. BD ( 1) C  1- H  4      16. BD*( 1) C  1- C  2      2.42    1.32   0.050
   12. BD ( 1) C  1- H  4      17. BD*( 1) C  1- O  3      1.97    1.58   0.050
   12. BD ( 1) C  1- H  4      20. BD*( 1) C  2- O  5      1.69    1.58   0.046
   12. BD ( 1) C  1- H  4      22. BD*( 1) C  2- H  6      1.81    1.34   0.044
   13. BD ( 1) C  2- O  5      16. BD*( 1) C  1- C  2      2.07    1.68   0.053
   13. BD ( 1) C  2- O  5      17. BD*( 1) C  1- O  3      1.10    1.94   0.041
   13. BD ( 1) C  2- O  5      22. BD*( 1) C  2- H  6      1.57    1.70   0.046
   14. BD ( 2) C  2- O  5      18. BD*( 2) C  1- O  3     11.49    0.72   0.081
   15. BD ( 1) C  2- H  6      16. BD*( 1) C  1- C  2      2.42    1.32   0.050
   15. BD ( 1) C  2- H  6      17. BD*( 1) C  1- O  3      1.69    1.58   0.046
   15. BD ( 1) C  2- H  6      19. BD*( 1) C  1- H  4      1.81    1.34   0.044
   15. BD ( 1) C  2- H  6      20. BD*( 1) C  2- O  5      1.97    1.58   0.050


 NATURAL BOND ORBITALS (Summary):

                                                     Principal Delocalizations
           NBO                 Occupancy    Energy   (geminal,vicinal,remote)
 ===============================================================================
 Molecular unit  1  (C2H2O2)
 ------ Lewis --------------------------------------
    1. CR ( 1) C  1             1.99999   -11.13386
    2. CR ( 1) C  2             1.99999   -11.13386
    3. CR ( 1) O  3             2.00000   -20.20305
    4. CR ( 1) O  5             2.00000   -20.20305
    5. LP ( 1) O  3             1.99864    -0.98731
    6. LP ( 2) O  3             1.91854    -0.39519  16(v),19(v)
    7. LP ( 1) O  5             1.99864    -0.98731
    8. LP ( 2) O  5             1.91854    -0.39519  16(v),22(v)
    9. BD ( 1) C  1- C  2       1.98788    -0.74889  19(g),22(g),17(g),20(g)
   10. BD ( 1) C  1- O  3       1.99505    -1.04981  16(g),19(g),20(v)
   11. BD ( 2) C  1- O  3       1.97536    -0.44743  21(v)
   12. BD ( 1) C  1- H  4       1.99052    -0.68757  16(g),17(g),22(v),20(v)
   13. BD ( 1) C  2- O  5       1.99505    -1.04981  16(g),22(g),17(v)
   14. BD ( 2) C  2- O  5       1.97536    -0.44743  18(v)
   15. BD ( 1) C  2- H  6       1.99052    -0.68757  16(g),20(g),19(v),17(v)
 ------ non-Lewis ----------------------------------
   16. BD*( 1) C  1- C  2       0.09411     0.62950
   17. BD*( 1) C  1- O  3       0.00697     0.88775
   18. BD*( 2) C  1- O  3       0.02464     0.26873
   19. BD*( 1) C  1- H  4       0.04928     0.65004
   20. BD*( 1) C  2- O  5       0.00697     0.88775
   21. BD*( 2) C  2- O  5       0.02464     0.26873
   22. BD*( 1) C  2- H  6       0.04928     0.65004
          -------------------------------
                 Total Lewis   29.74410  ( 99.1470%)
           Valence non-Lewis    0.25590  (  0.8530%)
           Rydberg non-Lewis    0.00000  (  0.0000%)
          -------------------------------
               Total unit  1   30.00000  (100.0000%)
              Charge unit  1    0.00000

 $CHOOSE
   LONE 3 2 5 2 END
   BOND S 1 2 D 1 3 S 1 4 D 2 5 S 2 6 END
 $END

 NBO analysis completed in 0.23 CPU seconds (1 wall second)
 Maximum scratch memory used by NBO was 225334 words (1.72 MB)
 Maximum scratch memory used by G16NBO was 8987 words (0.07 MB)

 Opening RunExU unformatted file "/cluster/work/users/beto93/mol112/Gau-1335974.EUF"
 Read unf file /cluster/work/users/beto93/mol112/Gau-1335974.EUF:
 Label Gaussian matrix elements                                         IVers= 2 NLab= 2 Version=ES64L-G16RevC.01
 Title mol112-NBO                                                      
 NAtoms=     6 NBasis=    22 NBsUse=    22 ICharg=     0 Multip=     1 NE=    30 Len12L=8 Len4L=8 IOpCl= 0 ICGU=111
 GAUSSIAN SCALARS                    NI= 1 NR= 1 NTot=       1 LenBuf=    2 NRI=1 N=    1000
 NPA CHARGES                         NI= 0 NR= 1 NTot=       6 LenBuf= 4000 NRI=1 N=       6
 Recovered energy= -223.581455432     dipole=     -0.000000000000     -0.000000000000     -0.000000000000
 Unable to Open any file for archive entry.
 1\1\GINC-C5-22\SP\RHF\STO-3G\C2H2O2\BETO93\18-Nov-2024\0\\#RHF/STO-3G 
 int=nobasistransform Symmetry=None 5D 7F Pop=NBO7Read\\mol112-NBO\\0,1
 \C,0,0.,0.75643,0.\C,0,0.,-0.75643,0.\O,0,1.04609,1.389916,0.\H,0,-0.9
 9994,1.228191,0.\O,0,-1.04609,-1.389916,0.\H,0,0.99994,-1.228191,0.\\V
 ersion=ES64L-G16RevC.01\HF=-223.5814554\RMSD=3.465e-09\Dipole=0.,0.,0.
 \Quadrupole=-0.7459138,-1.1820042,1.927918,-3.1301346,0.,0.\PG=Unknown
 \\@
 The archive entry for this job was punched.


 WE HAVE SEEN THAT MAN ON THE AVERAGE DOES NOT LIVE ABOVE
 TWO-AND-TWENTY YEARS.  DURING THESE TWO AND TWENTY
 YEARS HE IS LIABLE TO TWO AND TWENTY THOUSAND EVILS,
 MANY OF WHICH ARE INCURABLE.  YET EVEN IN THIS DREADFUL STATE
 MEN STILL STRUT AND POSE ON THE STAGE OF LIFE.
 THEY MAKE LOVE AT THE RISK OF DESTRUCTION,
 INTRIGUE, CARRY ON WAR, AND FORM PROJECTS, JUST AS IF THEY
 WERE TO LIVE IN LUXURY AND HAPPINESS FOR A THOUSAND
 AGES.

                                              -- VOLTAIRE
 Job cpu time:       0 days  0 hours  0 minutes  8.9 seconds.
 Elapsed time:       0 days  0 hours  0 minutes  2.9 seconds.
 File lengths (MBytes):  RWF=     10 Int=      0 D2E=      0 Chk=      1 Scr=      1
 Normal termination of Gaussian 16 at Mon Nov 18 15:41:27 2024.
