 Entering Gaussian System, Link 0=g16
 Initial command:
 /cluster/software/Gaussian/g16_C.01/l1.exe "/cluster/work/users/beto93/mol106/Gau-997541.inp" -scrdir="/cluster/work/users/beto93/mol106/"
 Entering Link 1 = /cluster/software/Gaussian/g16_C.01/l1.exe PID=    997546.
  
 Copyright (c) 1988-2019, Gaussian, Inc.  All Rights Reserved.
  
 This is part of the Gaussian(R) 16 program.  It is based on
 the Gaussian(R) 09 system (copyright 2009, Gaussian, Inc.),
 the Gaussian(R) 03 system (copyright 2003, Gaussian, Inc.),
 the Gaussian(R) 98 system (copyright 1998, Gaussian, Inc.),
 the Gaussian(R) 94 system (copyright 1995, Gaussian, Inc.),
 the Gaussian 92(TM) system (copyright 1992, Gaussian, Inc.),
 the Gaussian 90(TM) system (copyright 1990, Gaussian, Inc.),
 the Gaussian 88(TM) system (copyright 1988, Gaussian, Inc.),
 the Gaussian 86(TM) system (copyright 1986, Carnegie Mellon
 University), and the Gaussian 82(TM) system (copyright 1983,
 Carnegie Mellon University). Gaussian is a federally registered
 trademark of Gaussian, Inc.
  
 This software contains proprietary and confidential information,
 including trade secrets, belonging to Gaussian, Inc.
  
 This software is provided under written license and may be
 used, copied, transmitted, or stored only in accord with that
 written license.
  
 The following legend is applicable only to US Government
 contracts under FAR:
  
                    RESTRICTED RIGHTS LEGEND
  
 Use, reproduction and disclosure by the US Government is
 subject to restrictions as set forth in subparagraphs (a)
 and (c) of the Commercial Computer Software - Restricted
 Rights clause in FAR 52.227-19.
  
 Gaussian, Inc.
 340 Quinnipiac St., Bldg. 40, Wallingford CT 06492
  
  
 ---------------------------------------------------------------
 Warning -- This program may not be used in any manner that
 competes with the business of Gaussian, Inc. or will provide
 assistance to any competitor of Gaussian, Inc.  The licensee
 of this program is prohibited from giving any competitor of
 Gaussian, Inc. access to this program.  By using this program,
 the user acknowledges that Gaussian, Inc. is engaged in the
 business of creating and licensing software in the field of
 computational chemistry and represents and warrants to the
 licensee that it is not a competitor of Gaussian, Inc. and that
 it will not use this program in any manner prohibited above.
 ---------------------------------------------------------------
  

 Cite this work as:
 Gaussian 16, Revision C.01,
 M. J. Frisch, G. W. Trucks, H. B. Schlegel, G. E. Scuseria, 
 M. A. Robb, J. R. Cheeseman, G. Scalmani, V. Barone, 
 G. A. Petersson, H. Nakatsuji, X. Li, M. Caricato, A. V. Marenich, 
 J. Bloino, B. G. Janesko, R. Gomperts, B. Mennucci, H. P. Hratchian, 
 J. V. Ortiz, A. F. Izmaylov, J. L. Sonnenberg, D. Williams-Young, 
 F. Ding, F. Lipparini, F. Egidi, J. Goings, B. Peng, A. Petrone, 
 T. Henderson, D. Ranasinghe, V. G. Zakrzewski, J. Gao, N. Rega, 
 G. Zheng, W. Liang, M. Hada, M. Ehara, K. Toyota, R. Fukuda, 
 J. Hasegawa, M. Ishida, T. Nakajima, Y. Honda, O. Kitao, H. Nakai, 
 T. Vreven, K. Throssell, J. A. Montgomery, Jr., J. E. Peralta, 
 F. Ogliaro, M. J. Bearpark, J. J. Heyd, E. N. Brothers, K. N. Kudin, 
 V. N. Staroverov, T. A. Keith, R. Kobayashi, J. Normand, 
 K. Raghavachari, A. P. Rendell, J. C. Burant, S. S. Iyengar, 
 J. Tomasi, M. Cossi, J. M. Millam, M. Klene, C. Adamo, R. Cammi, 
 J. W. Ochterski, R. L. Martin, K. Morokuma, O. Farkas, 
 J. B. Foresman, and D. J. Fox, Gaussian, Inc., Wallingford CT, 2019.
 
 ******************************************
 Gaussian 16:  ES64L-G16RevC.01  3-Jul-2019
                18-Nov-2024 
 ******************************************
 %LindaWorkers=c5-21-ib
 %NProcShared=4
 Will use up to    4 processors via shared memory.
 %mem=25GB
 %chk=mol106.chk
 SetLPE:    new flags="-opt 'Tsnet.Node.lindarsharg: ssh'  -nodelist 'c5-21-ib.saga' -env GAUSS_MDEF=3355443200 -env GAUSS_EXEDIR="/cluster/software/Gaussian/g16_C.01/bsd:/cluster/software/Gaussian/g16_C.01""
 Will use up to    1 processors via Linda.
 -----------------------------------------------------------------
 #RHF/STO-3G int=nobasistransform Symmetry=None 5D 7F Pop=NBO7Read
 -----------------------------------------------------------------
 1/38=1,163=2,172=1/1;
 2/12=2,15=3,17=6,18=5,40=1/2;
 3/6=3,8=11,11=1,25=1,30=1,60=-1,116=1/1,2,3;
 4//1;
 5/5=2,38=5/2;
 6/7=2,8=2,9=2,10=2,28=1,40=2,113=1,114=1,124=2103/1,12;
 99/5=1,9=1/99;
 ----------
 mol106-NBO
 ----------
 Symbolic Z-matrix:
 Charge =  0 Multiplicity = 1
 N                     0.        0.        1.87588 
 C                     0.        0.        0.69057 
 C                     0.        0.       -0.69057 
 N                     0.        0.       -1.87588 
 
                          Input orientation:                          
 ---------------------------------------------------------------------
 Center     Atomic      Atomic             Coordinates (Angstroms)
 Number     Number       Type             X           Y           Z
 ---------------------------------------------------------------------
      1          7           0        0.000000    0.000000    1.875875
      2          6           0        0.000000    0.000000    0.690573
      3          6           0        0.000000    0.000000   -0.690573
      4          7           0        0.000000    0.000000   -1.875875
 ---------------------------------------------------------------------
                    Distance matrix (angstroms):
                    1          2          3          4
     1  N    0.000000
     2  C    1.185302   0.000000
     3  C    2.566448   1.381146   0.000000
     4  N    3.751750   2.566448   1.185302   0.000000
 Symmetry turned off by external request.
 Stoichiometry    C2N2
 Rotational constants (GHZ):           0.0000000           4.5945043           4.5945043
 Standard basis: STO-3G (5D, 7F)
    20 basis functions,    60 primitive gaussians,    20 cartesian basis functions
    13 alpha electrons       13 beta electrons
       nuclear repulsion energy        75.5262665253 Hartrees.
 NAtoms=    4 NActive=    4 NUniq=    4 SFac= 1.00D+00 NAtFMM=   60 NAOKFM=F Big=F
 Integral buffers will be    131072 words long.
 Raffenetti 1 integral format.
 Two-electron integral symmetry is turned off.
 One-electron integrals computed using PRISM.
 NBasis=    20 RedAO= T EigKep=  1.61D-01  NBF=    20
 NBsUse=    20 1.00D-06 EigRej= -1.00D+00 NBFU=    20
 ExpMin= 2.22D-01 ExpMax= 9.91D+01 ExpMxC= 9.91D+01 IAcc=3 IRadAn=         5 AccDes= 0.00D+00
 Harris functional with IExCor=  205 and IRadAn=       5 diagonalized for initial guess.
 HarFok:  IExCor=  205 AccDes= 0.00D+00 IRadAn=         5 IDoV= 1 UseB2=F ITyADJ=14
 ICtDFT=  3500011 ScaDFX=  1.000000  1.000000  1.000000  1.000000
 FoFCou: FMM=F IPFlag=           0 FMFlag=      100000 FMFlg1=           0
         NFxFlg=           0 DoJE=T BraDBF=F KetDBF=T FulRan=T
         wScrn=  0.000000 ICntrl=       500 IOpCl=  0 I1Cent=   200000004 NGrid=           0
         NMat0=    1 NMatS0=      1 NMatT0=    0 NMatD0=    1 NMtDS0=    0 NMtDT0=    0
 Symmetry not used in FoFCou.
 Keep R1 ints in memory in canonical form, NReq=827780.
 Requested convergence on RMS density matrix=1.00D-08 within 128 cycles.
 Requested convergence on MAX density matrix=1.00D-06.
 Requested convergence on             energy=1.00D-06.
 No special actions if energy rises.
 SCF Done:  E(RHF) =  -182.215036903     A.U. after    9 cycles
            NFock=  9  Conv=0.11D-08     -V/T= 2.0107

 **********************************************************************

            Population analysis using the SCF Density.

 **********************************************************************

 Alpha  occ. eigenvalues --  -15.44206 -15.44202 -11.14758 -11.14741  -1.22454
 Alpha  occ. eigenvalues --   -1.20159  -0.89277  -0.55256  -0.53624  -0.53624
 Alpha  occ. eigenvalues --   -0.52542  -0.41583  -0.41583
 Alpha virt. eigenvalues --    0.18515   0.18515   0.43730   0.43730   0.48462
 Alpha virt. eigenvalues --    1.01171   1.42569
          Condensed to atoms (all electrons):
               1          2          3          4
     1  N    6.403316   0.701531  -0.009282   0.000029
     2  C    0.701531   4.758176   0.453981  -0.009282
     3  C   -0.009282   0.453981   4.758176   0.701531
     4  N    0.000029  -0.009282   0.701531   6.403316
 Mulliken charges:
               1
     1  N   -0.095594
     2  C    0.095594
     3  C    0.095594
     4  N   -0.095594
 Sum of Mulliken charges =  -0.00000
 Mulliken charges with hydrogens summed into heavy atoms:
               1
     1  N   -0.095594
     2  C    0.095594
     3  C    0.095594
     4  N   -0.095594
 Electronic spatial extent (au):  <R**2>=            245.6401
 Charge=             -0.0000 electrons
 Dipole moment (field-independent basis, Debye):
    X=             -0.0000    Y=              0.0000    Z=              0.0000  Tot=              0.0000
 Quadrupole moment (field-independent basis, Debye-Ang):
   XX=            -19.0176   YY=            -19.0176   ZZ=            -28.2434
   XY=              0.0000   XZ=             -0.0000   YZ=              0.0000
 Traceless Quadrupole moment (field-independent basis, Debye-Ang):
   XX=              3.0753   YY=              3.0753   ZZ=             -6.1505
   XY=              0.0000   XZ=             -0.0000   YZ=              0.0000
 Octapole moment (field-independent basis, Debye-Ang**2):
  XXX=             -0.0000  YYY=              0.0000  ZZZ=              0.0000  XYY=             -0.0000
  XXY=              0.0000  XXZ=              0.0000  XZZ=             -0.0000  YZZ=             -0.0000
  YYZ=              0.0000  XYZ=              0.0000
 Hexadecapole moment (field-independent basis, Debye-Ang**3):
 XXXX=            -13.5972 YYYY=            -13.5972 ZZZZ=           -307.8804 XXXY=              0.0000
 XXXZ=             -0.0000 YYYX=              0.0000 YYYZ=              0.0000 ZZZX=              0.0000
 ZZZY=              0.0000 XXYY=             -4.5324 XXZZ=            -43.1350 YYZZ=            -43.1350
 XXYZ=              0.0000 YYXZ=             -0.0000 ZZXY=             -0.0000
 N-N= 7.552626652534D+01 E-N=-5.768032875041D+02  KE= 1.802808348241D+02
 Running external command "gaunbo7 R"
         input file       "/cluster/work/users/beto93/mol106/Gau-997546.EIn"
         output file      "/cluster/work/users/beto93/mol106/Gau-997546.EOu"
         message file     "/cluster/work/users/beto93/mol106/Gau-997546.EMs"
         fchk file        "/cluster/work/users/beto93/mol106/Gau-997546.EFC"
         mat. el file     "/cluster/work/users/beto93/mol106/Gau-997546.EUF"

 Writing WrtUnf unformatted file "/cluster/work/users/beto93/mol106/Gau-997546.EUF"
 Gaussian matrix elements                                         Version   2 NLab=11 Len12L=8 Len4L=8
 Write SHELL TO ATOM MAP                   from file      0 offset           0 length                   8 to matrix element file.
 Write SHELL TYPES                         from file      0 offset           0 length                   8 to matrix element file.
 Write NUMBER OF PRIMITIVES PER SHELL      from file      0 offset           0 length                   8 to matrix element file.
 Write PRIMITIVE EXPONENTS                 from file      0 offset           0 length                  24 to matrix element file.
 Write CONTRACTION COEFFICIENTS            from file      0 offset           0 length                  24 to matrix element file.
 Write P(S=P) CONTRACTION COEFFICIENTS     from file      0 offset           0 length                  24 to matrix element file.
 Write COORDINATES OF EACH SHELL           from file      0 offset           0 length                  24 to matrix element file.
 Write BONDS PER ATOM                      from file      0 offset           0 length                   4 to matrix element file.
 Write BONDED ATOMS                        from file      0 offset           0 length                   6 to matrix element file.
 Write BOND TYPES                          from file      0 offset           0 length                   6 to matrix element file.
 Write ONIOM CHARGE/MULT                   from file      0 offset           0 length                  32 to matrix element file.
 Write ONIOM ATOM LAYERS                   from file      0 offset           0 length                   4 to matrix element file.
 Write ONIOM ATOM MODIFIERS                from file      0 offset           0 length                   4 to matrix element file.
 Write ONIOM ATOM TYPES                    from file      0 offset           0 length                   4 to matrix element file.
 Write ONIOM LINK ATOMS                    from file      0 offset           0 length                   4 to matrix element file.
 Write ONIOM LINK CHARGES                  from file      0 offset           0 length                   4 to matrix element file.
 Write ONIOM LINK DISTANCES                from file      0 offset           0 length                  16 to matrix element file.
 Write SYMINF INTS                         from file      0 offset           0 length                  26 to matrix element file.
 Write ROTTR TO SO                         from file      0 offset           0 length                  12 to matrix element file.
 Write GAUSSIAN SCALARS                    from file    501 offset           0 to matrix element file.
 Write OPTIMIZATION FLAGS                  from file      0 offset           0 length                   4 to matrix element file.
 Write INTEGER ISO                         from file      0 offset           0 length                   4 to matrix element file.
 Write INTEGER SPIN                        from file      0 offset           0 length                   4 to matrix element file.
 Write REAL ZEFFECTIVE                     from file      0 offset           0 length                   4 to matrix element file.
 Write REAL QUADRUPOLEMOMENT               from file      0 offset           0 length                   4 to matrix element file.
 Write REAL GFACTOR                        from file      0 offset           0 length                   4 to matrix element file.
 Write REAL ZNUCLEAR                       from file      0 offset           0 length                   4 to matrix element file.
 Write MULLIKEN CHARGES                    from file      0 offset           0 length                   4 to matrix element file.
 Write NUCLEAR GRADIENT                    from file  10584 offset           0 length                  12 to matrix element file.
 Array NUCLEAR FORCE CONSTANTS              on  file  10585 does not exist.
 Write ELECTRIC DIPOLE MOMENT              from file      0 offset           0 length                   3 to matrix element file.
 Write NON-ADIABATIC COUPLING              from file  10810 offset           0 length                  12 to matrix element file.
 Write FINITE EM FIELD                     from file  10521 offset           0 length                  35 to matrix element file.
 Write OVERLAP                             from file  10514 offset           0 length                 210 to matrix element file.
 Write CORE HAMILTONIAN ALPHA              from file  10515 offset           0 length                 210 to matrix element file.
 Write CORE HAMILTONIAN BETA               from file  10515 offset         210 length                 210 to matrix element file.
 Write KINETIC ENERGY                      from file  10516 offset           0 length                 210 to matrix element file.
 Write ORTHOGONAL BASIS                    from file  10685 offset           0 length                 400 to matrix element file.
 Write DIPOLE INTEGRALS                    from file  10518 offset           0 length                 630 to matrix element file.
 Array DIP VEL INTEGRALS                    on  file  10572 does not exist.
 Array R X DEL INTEGRALS                    on  file  10572 does not exist.
 Write ALPHA ORBITAL ENERGIES              from file      0 offset           0 length                  20 to matrix element file.
 Write ALPHA MO COEFFICIENTS               from file  10524 offset           0 length                 400 to matrix element file.
 Write ALPHA DENSITY MATRIX                from file      0 offset           0 length                 210 to matrix element file.
 Write ALPHA FOCK MATRIX                   from file  10536 offset           0 length                 210 to matrix element file.
 Write ENERGY-WEIGHTED DENSITY             from file  10571 offset           0 length                 210 to matrix element file.
 Write ALPHA SCF DENSITY MATRIX            from file      0 offset           0 length                 210 to matrix element file.
 No 2e integrals to process.
 Perform NBO analysis...executing G16NBO...

 *********************************** NBO 7.0 ***********************************
             N A T U R A L   A T O M I C   O R B I T A L   A N D
          N A T U R A L   B O N D   O R B I T A L   A N A L Y S I S
 **************************** Espen Tangen (S101595) ***************************
  (c) Copyright 1996-2021 Board of Regents of the University of Wisconsin System
      on behalf of the Theoretical Chemistry Institute.  All rights reserved.

          Cite this program [NBO 7.0.10 (8-Feb-2021)] as:

          NBO 7.0.  E. D. Glendening, J. K. Badenhoop, A. E. Reed,
          J. E. Carpenter, J. A. Bohmann, C. M. Morales, P. Karafiloglou,
          C. R. Landis, and F. Weinhold, Theoretical Chemistry Institute,
          University of Wisconsin, Madison, WI (2018)

       /NPA    / : Natural Population Analysis
       /AOPNAO / : Print the AO to PNAO transformation
       /AONAO  / : Print the AO to NAO transformation
       /AOMO   / : Print the MOs in the AO basis
       /BOAO   / : Print the AO bond-order matrix
       /DMAO   / : Print the AO density matrix
       /DMPNAO / : Print the PNAO density matrix
       /DMNAO  / : Print the NAO density matrix
       /DMMO   / : Print the MO density matrix
       /SAO    / : Print the AO overlap matrix
       /SPNAO  / : Print the PNAO overlap matrix
       /DETAIL / : Write details of NBO search
       /ARCHIVE/ : Write the archive file to lfn47
       /AOINFO / : Write AO information to lfn31
       /FILE   / : Set to mol106.gen*

 Filename set to mol106.gen1

 Job title: mol106-NBO


 MOs in the AO basis:

           AO          1       2       3       4       5       6       7       8
      ------------ ------- ------- ------- ------- ------- ------- ------- -------
   1.  N 1 (s)      0.7029  0.7029 -0.0003 -0.0002 -0.1333 -0.1452 -0.0789 -0.1052
   2.  N 1 (s)      0.0205  0.0202 -0.0043 -0.0045  0.4287  0.4566  0.2563  0.5241
   3.  N 1 (px)     0.0000  0.0000  0.0000  0.0000  0.0000  0.0000  0.0000  0.0000
   4.  N 1 (py)     0.0000  0.0000  0.0000  0.0000  0.0000  0.0000  0.0000  0.0000
   5.  N 1 (pz)    -0.0059 -0.0057  0.0011  0.0013 -0.1543 -0.1544  0.0028  0.4537
   6.  C 2 (s)      0.0003  0.0003  0.7023  0.7018 -0.1328 -0.1022  0.1218  0.0841
   7.  C 2 (s)     -0.0067 -0.0070  0.0178  0.0269  0.3107  0.2075 -0.3481 -0.2703
   8.  C 2 (px)     0.0000  0.0000  0.0000  0.0000  0.0000  0.0000  0.0000  0.0000
   9.  C 2 (py)     0.0000  0.0000  0.0000  0.0000  0.0000  0.0000  0.0000  0.0000
  10.  C 2 (pz)    -0.0055 -0.0049  0.0028 -0.0027  0.0760  0.1898  0.3738 -0.1426
  11.  C 3 (s)     -0.0003  0.0003  0.7023 -0.7018 -0.1328  0.1022  0.1218 -0.0841
  12.  C 3 (s)      0.0067 -0.0070  0.0178 -0.0269  0.3107 -0.2075 -0.3481  0.2703
  13.  C 3 (px)     0.0000  0.0000  0.0000  0.0000  0.0000  0.0000  0.0000  0.0000
  14.  C 3 (py)     0.0000  0.0000  0.0000  0.0000  0.0000  0.0000  0.0000  0.0000
  15.  C 3 (pz)    -0.0055  0.0049 -0.0028 -0.0027 -0.0760  0.1898 -0.3738 -0.1426
  16.  N 4 (s)     -0.7029  0.7029 -0.0003  0.0002 -0.1333  0.1452 -0.0789  0.1052
  17.  N 4 (s)     -0.0205  0.0202 -0.0043  0.0045  0.4287 -0.4566  0.2563 -0.5241
  18.  N 4 (px)     0.0000  0.0000  0.0000  0.0000  0.0000  0.0000  0.0000  0.0000
  19.  N 4 (py)     0.0000  0.0000  0.0000  0.0000  0.0000  0.0000  0.0000  0.0000
  20.  N 4 (pz)    -0.0059  0.0057 -0.0011  0.0013  0.1543 -0.1544 -0.0028  0.4537

           AO          9      10      11      12      13      14      15      16
      ------------ ------- ------- ------- ------- ------- ------- ------- -------
   1.  N 1 (s)      0.0000  0.0000 -0.0906  0.0000  0.0000  0.0000  0.0000  0.0000
   2.  N 1 (s)      0.0000  0.0000  0.4792  0.0000  0.0000  0.0000  0.0000  0.0000
   3.  N 1 (px)    -0.0640  0.3661  0.0000 -0.3344  0.3885  0.0506  0.6277 -0.0585
   4.  N 1 (py)     0.3661  0.0640  0.0000  0.3885  0.3344  0.6277 -0.0506 -0.5297
   5.  N 1 (pz)     0.0000  0.0000  0.4807  0.0000  0.0000  0.0000  0.0000  0.0000
   6.  C 2 (s)      0.0000  0.0000  0.0366  0.0000  0.0000  0.0000  0.0000  0.0000
   7.  C 2 (s)      0.0000  0.0000 -0.1209  0.0000  0.0000  0.0000  0.0000  0.0000
   8.  C 2 (px)    -0.0802  0.4585  0.0000 -0.2659  0.3089 -0.0378 -0.4691  0.0803
   9.  C 2 (py)     0.4585  0.0802  0.0000  0.3089  0.2659 -0.4691  0.0378  0.7271
  10.  C 2 (pz)     0.0000  0.0000 -0.2736  0.0000  0.0000  0.0000  0.0000  0.0000
  11.  C 3 (s)      0.0000  0.0000  0.0366  0.0000  0.0000  0.0000  0.0000  0.0000
  12.  C 3 (s)      0.0000  0.0000 -0.1209  0.0000  0.0000  0.0000  0.0000  0.0000
  13.  C 3 (px)    -0.0802  0.4585  0.0000  0.2659 -0.3089 -0.0378 -0.4691 -0.0803
  14.  C 3 (py)     0.4585  0.0802  0.0000 -0.3089 -0.2659 -0.4691  0.0378 -0.7271
  15.  C 3 (pz)     0.0000  0.0000  0.2736  0.0000  0.0000  0.0000  0.0000  0.0000
  16.  N 4 (s)      0.0000  0.0000 -0.0906  0.0000  0.0000  0.0000  0.0000  0.0000
  17.  N 4 (s)      0.0000  0.0000  0.4792  0.0000  0.0000  0.0000  0.0000  0.0000
  18.  N 4 (px)    -0.0640  0.3661  0.0000  0.3344 -0.3885  0.0506  0.6277  0.0585
  19.  N 4 (py)     0.3661  0.0640  0.0000 -0.3885 -0.3344  0.6277 -0.0506  0.5297
  20.  N 4 (pz)     0.0000  0.0000 -0.4807  0.0000  0.0000  0.0000  0.0000  0.0000

           AO         17      18      19      20
      ------------ ------- ------- ------- -------
   1.  N 1 (s)      0.0000  0.0570  0.0938  0.0771
   2.  N 1 (s)      0.0000 -0.3502 -0.8301 -0.8007
   3.  N 1 (px)    -0.5297  0.0000  0.0000  0.0000
   4.  N 1 (py)     0.0585  0.0000  0.0000  0.0000
   5.  N 1 (pz)     0.0000  0.4609  0.7945  0.6972
   6.  C 2 (s)      0.0000 -0.1913 -0.0976  0.0023
   7.  C 2 (s)      0.0000  1.2413  0.8939  0.0480
   8.  C 2 (px)     0.7271  0.0000  0.0000  0.0000
   9.  C 2 (py)    -0.0803  0.0000  0.0000  0.0000
  10.  C 2 (pz)     0.0000 -0.3549  0.8017  1.3647
  11.  C 3 (s)      0.0000  0.1913 -0.0976 -0.0023
  12.  C 3 (s)      0.0000 -1.2413  0.8939 -0.0480
  13.  C 3 (px)    -0.7271  0.0000  0.0000  0.0000
  14.  C 3 (py)     0.0803  0.0000  0.0000  0.0000
  15.  C 3 (pz)     0.0000 -0.3549 -0.8017  1.3647
  16.  N 4 (s)      0.0000 -0.0570  0.0938 -0.0771
  17.  N 4 (s)      0.0000  0.3502 -0.8301  0.8007
  18.  N 4 (px)     0.5297  0.0000  0.0000  0.0000
  19.  N 4 (py)    -0.0585  0.0000  0.0000  0.0000
  20.  N 4 (pz)     0.0000  0.4609 -0.7945  0.6972


 AO overlap matrix:

           AO          1       2       3       4       5       6       7       8
      ------------ ------- ------- ------- ------- ------- ------- ------- -------
   1.  N 1 (s)      1.0000  0.2350  0.0000  0.0000  0.0000  0.0000  0.0483  0.0000
   2.  N 1 (s)      0.2350  1.0000  0.0000  0.0000  0.0000  0.0520  0.4348  0.0000
   3.  N 1 (px)     0.0000  0.0000  1.0000  0.0000  0.0000  0.0000  0.0000  0.2698
   4.  N 1 (py)     0.0000  0.0000  0.0000  1.0000  0.0000  0.0000  0.0000  0.0000
   5.  N 1 (pz)     0.0000  0.0000  0.0000  0.0000  1.0000 -0.0861 -0.3997  0.0000
   6.  C 2 (s)      0.0000  0.0520  0.0000  0.0000 -0.0861  1.0000  0.2484  0.0000
   7.  C 2 (s)      0.0483  0.4348  0.0000  0.0000 -0.3997  0.2484  1.0000  0.0000
   8.  C 2 (px)     0.0000  0.0000  0.2698  0.0000  0.0000  0.0000  0.0000  1.0000
   9.  C 2 (py)     0.0000  0.0000  0.0000  0.2698  0.0000  0.0000  0.0000  0.0000
  10.  C 2 (pz)     0.0814  0.4665  0.0000  0.0000 -0.3181  0.0000  0.0000  0.0000
  11.  C 3 (s)      0.0000  0.0003  0.0000  0.0000 -0.0009  0.0000  0.0392  0.0000
  12.  C 3 (s)      0.0008  0.0306  0.0000  0.0000 -0.0457  0.0392  0.3741  0.0000
  13.  C 3 (px)     0.0000  0.0000  0.0119  0.0000  0.0000  0.0000  0.0000  0.2204
  14.  C 3 (py)     0.0000  0.0000  0.0000  0.0119  0.0000  0.0000  0.0000  0.0000
  15.  C 3 (pz)     0.0019  0.0507  0.0000  0.0000 -0.0701  0.0651  0.3947  0.0000
  16.  N 4 (s)      0.0000  0.0000  0.0000  0.0000  0.0000  0.0000  0.0008  0.0000
  17.  N 4 (s)      0.0000  0.0004  0.0000  0.0000 -0.0008  0.0003  0.0306  0.0000
  18.  N 4 (px)     0.0000  0.0000  0.0001  0.0000  0.0000  0.0000  0.0000  0.0119
  19.  N 4 (py)     0.0000  0.0000  0.0000  0.0001  0.0000  0.0000  0.0000  0.0000
  20.  N 4 (pz)     0.0000  0.0008  0.0000  0.0000 -0.0017  0.0009  0.0457  0.0000

           AO          9      10      11      12      13      14      15      16
      ------------ ------- ------- ------- ------- ------- ------- ------- -------
   1.  N 1 (s)      0.0000  0.0814  0.0000  0.0008  0.0000  0.0000  0.0019  0.0000
   2.  N 1 (s)      0.0000  0.4665  0.0003  0.0306  0.0000  0.0000  0.0507  0.0000
   3.  N 1 (px)     0.0000  0.0000  0.0000  0.0000  0.0119  0.0000  0.0000  0.0000
   4.  N 1 (py)     0.2698  0.0000  0.0000  0.0000  0.0000  0.0119  0.0000  0.0000
   5.  N 1 (pz)     0.0000 -0.3181 -0.0009 -0.0457  0.0000  0.0000 -0.0701  0.0000
   6.  C 2 (s)      0.0000  0.0000  0.0000  0.0392  0.0000  0.0000  0.0651  0.0000
   7.  C 2 (s)      0.0000  0.0000  0.0392  0.3741  0.0000  0.0000  0.3947  0.0008
   8.  C 2 (px)     0.0000  0.0000  0.0000  0.0000  0.2204  0.0000  0.0000  0.0000
   9.  C 2 (py)     1.0000  0.0000  0.0000  0.0000  0.0000  0.2204  0.0000  0.0000
  10.  C 2 (pz)     0.0000  1.0000 -0.0651 -0.3947  0.0000  0.0000 -0.3284 -0.0019
  11.  C 3 (s)      0.0000 -0.0651  1.0000  0.2484  0.0000  0.0000  0.0000  0.0000
  12.  C 3 (s)      0.0000 -0.3947  0.2484  1.0000  0.0000  0.0000  0.0000  0.0483
  13.  C 3 (px)     0.0000  0.0000  0.0000  0.0000  1.0000  0.0000  0.0000  0.0000
  14.  C 3 (py)     0.2204  0.0000  0.0000  0.0000  0.0000  1.0000  0.0000  0.0000
  15.  C 3 (pz)     0.0000 -0.3284  0.0000  0.0000  0.0000  0.0000  1.0000 -0.0814
  16.  N 4 (s)      0.0000 -0.0019  0.0000  0.0483  0.0000  0.0000 -0.0814  1.0000
  17.  N 4 (s)      0.0000 -0.0507  0.0520  0.4348  0.0000  0.0000 -0.4665  0.2350
  18.  N 4 (px)     0.0000  0.0000  0.0000  0.0000  0.2698  0.0000  0.0000  0.0000
  19.  N 4 (py)     0.0119  0.0000  0.0000  0.0000  0.0000  0.2698  0.0000  0.0000
  20.  N 4 (pz)     0.0000 -0.0701  0.0861  0.3997  0.0000  0.0000 -0.3181  0.0000

           AO         17      18      19      20
      ------------ ------- ------- ------- -------
   1.  N 1 (s)      0.0000  0.0000  0.0000  0.0000
   2.  N 1 (s)      0.0004  0.0000  0.0000  0.0008
   3.  N 1 (px)     0.0000  0.0001  0.0000  0.0000
   4.  N 1 (py)     0.0000  0.0000  0.0001  0.0000
   5.  N 1 (pz)    -0.0008  0.0000  0.0000 -0.0017
   6.  C 2 (s)      0.0003  0.0000  0.0000  0.0009
   7.  C 2 (s)      0.0306  0.0000  0.0000  0.0457
   8.  C 2 (px)     0.0000  0.0119  0.0000  0.0000
   9.  C 2 (py)     0.0000  0.0000  0.0119  0.0000
  10.  C 2 (pz)    -0.0507  0.0000  0.0000 -0.0701
  11.  C 3 (s)      0.0520  0.0000  0.0000  0.0861
  12.  C 3 (s)      0.4348  0.0000  0.0000  0.3997
  13.  C 3 (px)     0.0000  0.2698  0.0000  0.0000
  14.  C 3 (py)     0.0000  0.0000  0.2698  0.0000
  15.  C 3 (pz)    -0.4665  0.0000  0.0000 -0.3181
  16.  N 4 (s)      0.2350  0.0000  0.0000  0.0000
  17.  N 4 (s)      1.0000  0.0000  0.0000  0.0000
  18.  N 4 (px)     0.0000  1.0000  0.0000  0.0000
  19.  N 4 (py)     0.0000  0.0000  1.0000  0.0000
  20.  N 4 (pz)     0.0000  0.0000  0.0000  1.0000


 AO bond-order matrix:

           AO          1       2       3       4       5       6       7       8
      ------------ ------- ------- ------- ------- ------- ------- ------- -------
   1.  N 1 (s)      2.1050 -0.4272  0.0000  0.0000 -0.1133  0.0218 -0.0285  0.0000
   2.  N 1 (s)     -0.4272  1.9266  0.0000  0.0000  0.6641 -0.0339 -0.1228  0.0000
   3.  N 1 (px)     0.0000  0.0000  0.8016  0.0000  0.0000  0.0000  0.0000  0.7638
   4.  N 1 (py)     0.0000  0.0000  0.0000  0.8016  0.0000  0.0000  0.0000  0.0000
   5.  N 1 (pz)    -0.1133  0.6641  0.0000  0.0000  0.9693  0.1880 -0.5232  0.0000
   6.  C 2 (s)      0.0218 -0.0339  0.0000  0.0000  0.1880  2.0741 -0.2013  0.0000
   7.  C 2 (s)     -0.0285 -0.1228  0.0000  0.0000 -0.5232 -0.2013  0.6991  0.0000
   8.  C 2 (px)     0.0000  0.0000  0.7638  0.0000  0.0000  0.0000  0.0000  0.7656
   9.  C 2 (py)     0.0000  0.0000  0.0000  0.7638  0.0000  0.0000  0.0000  0.0000
  10.  C 2 (pz)    -0.0693  0.0179  0.0000  0.0000 -0.4724 -0.0118  0.0092  0.0000
  11.  C 3 (s)     -0.0026 -0.0110  0.0000  0.0000 -0.0313  0.0339 -0.1010  0.0000
  12.  C 3 (s)     -0.0030  0.0660  0.0000  0.0000  0.0953 -0.1010  0.2315  0.0000
  13.  C 3 (px)     0.0000  0.0000 -0.0719  0.0000  0.0000  0.0000  0.0000  0.1011
  14.  C 3 (py)     0.0000  0.0000  0.0000 -0.0719  0.0000  0.0000  0.0000  0.0000
  15.  C 3 (pz)     0.0038  0.0293  0.0000  0.0000  0.0964 -0.1214  0.3025  0.0000
  16.  N 4 (s)      0.0002  0.0009  0.0000  0.0000  0.0045 -0.0026 -0.0030  0.0000
  17.  N 4 (s)      0.0009 -0.0080  0.0000  0.0000 -0.0048 -0.0110  0.0660  0.0000
  18.  N 4 (px)     0.0000  0.0000 -0.2493  0.0000  0.0000  0.0000  0.0000 -0.0719
  19.  N 4 (py)     0.0000  0.0000  0.0000 -0.2493  0.0000  0.0000  0.0000  0.0000
  20.  N 4 (pz)    -0.0045  0.0048  0.0000  0.0000 -0.0503  0.0313 -0.0953  0.0000

           AO          9      10      11      12      13      14      15      16
      ------------ ------- ------- ------- ------- ------- ------- ------- -------
   1.  N 1 (s)      0.0000 -0.0693 -0.0026 -0.0030  0.0000  0.0000  0.0038  0.0002
   2.  N 1 (s)      0.0000  0.0179 -0.0110  0.0660  0.0000  0.0000  0.0293  0.0009
   3.  N 1 (px)     0.0000  0.0000  0.0000  0.0000 -0.0719  0.0000  0.0000  0.0000
   4.  N 1 (py)     0.7638  0.0000  0.0000  0.0000  0.0000 -0.0719  0.0000  0.0000
   5.  N 1 (pz)     0.0000 -0.4724 -0.0313  0.0953  0.0000  0.0000  0.0964  0.0045
   6.  C 2 (s)      0.0000 -0.0118  0.0339 -0.1010  0.0000  0.0000 -0.1214 -0.0026
   7.  C 2 (s)      0.0000  0.0092 -0.1010  0.2315  0.0000  0.0000  0.3025 -0.0030
   8.  C 2 (px)     0.0000  0.0000  0.0000  0.0000  0.1011  0.0000  0.0000  0.0000
   9.  C 2 (py)     0.7656  0.0000  0.0000  0.0000  0.0000  0.1011  0.0000  0.0000
  10.  C 2 (pz)     0.0000  0.5537  0.1214 -0.3025  0.0000  0.0000 -0.3280 -0.0038
  11.  C 3 (s)      0.0000  0.1214  2.0741 -0.2013  0.0000  0.0000  0.0118  0.0218
  12.  C 3 (s)      0.0000 -0.3025 -0.2013  0.6991  0.0000  0.0000 -0.0092 -0.0285
  13.  C 3 (px)     0.0000  0.0000  0.0000  0.0000  0.7656  0.0000  0.0000  0.0000
  14.  C 3 (py)     0.1011  0.0000  0.0000  0.0000  0.0000  0.7656  0.0000  0.0000
  15.  C 3 (pz)     0.0000 -0.3280  0.0118 -0.0092  0.0000  0.0000  0.5537  0.0693
  16.  N 4 (s)      0.0000 -0.0038  0.0218 -0.0285  0.0000  0.0000  0.0693  2.1050
  17.  N 4 (s)      0.0000 -0.0293 -0.0339 -0.1228  0.0000  0.0000 -0.0179 -0.4272
  18.  N 4 (px)     0.0000  0.0000  0.0000  0.0000  0.7638  0.0000  0.0000  0.0000
  19.  N 4 (py)    -0.0719  0.0000  0.0000  0.0000  0.0000  0.7638  0.0000  0.0000
  20.  N 4 (pz)     0.0000  0.0964 -0.1880  0.5232  0.0000  0.0000 -0.4724  0.1133

           AO         17      18      19      20
      ------------ ------- ------- ------- -------
   1.  N 1 (s)      0.0009  0.0000  0.0000 -0.0045
   2.  N 1 (s)     -0.0080  0.0000  0.0000  0.0048
   3.  N 1 (px)     0.0000 -0.2493  0.0000  0.0000
   4.  N 1 (py)     0.0000  0.0000 -0.2493  0.0000
   5.  N 1 (pz)    -0.0048  0.0000  0.0000 -0.0503
   6.  C 2 (s)     -0.0110  0.0000  0.0000  0.0313
   7.  C 2 (s)      0.0660  0.0000  0.0000 -0.0953
   8.  C 2 (px)     0.0000 -0.0719  0.0000  0.0000
   9.  C 2 (py)     0.0000  0.0000 -0.0719  0.0000
  10.  C 2 (pz)    -0.0293  0.0000  0.0000  0.0964
  11.  C 3 (s)     -0.0339  0.0000  0.0000 -0.1880
  12.  C 3 (s)     -0.1228  0.0000  0.0000  0.5232
  13.  C 3 (px)     0.0000  0.7638  0.0000  0.0000
  14.  C 3 (py)     0.0000  0.0000  0.7638  0.0000
  15.  C 3 (pz)    -0.0179  0.0000  0.0000 -0.4724
  16.  N 4 (s)     -0.4272  0.0000  0.0000  0.1133
  17.  N 4 (s)      1.9266  0.0000  0.0000 -0.6641
  18.  N 4 (px)     0.0000  0.8016  0.0000  0.0000
  19.  N 4 (py)     0.0000  0.0000  0.8016  0.0000
  20.  N 4 (pz)    -0.6641  0.0000  0.0000  0.9693


 AO density matrix:

           AO          1       2       3       4       5       6       7       8
      ------------ ------- ------- ------- ------- ------- ------- ------- -------
   1.  N 1 (s)      1.9998  0.4717  0.0000  0.0000 -0.0055  0.0002  0.0923  0.0000
   2.  N 1 (s)      0.4717  1.9837  0.0000  0.0000  0.0534  0.1028  0.9057  0.0000
   3.  N 1 (px)     0.0000  0.0000  1.2685  0.0000  0.0000  0.0000  0.0000  1.2324
   4.  N 1 (py)     0.0000  0.0000  0.0000  1.2685  0.0000  0.0000  0.0000  0.0000
   5.  N 1 (pz)    -0.0055  0.0534  0.0000  0.0000  1.8084 -0.1658 -0.9647  0.0000
   6.  C 2 (s)      0.0002  0.1028  0.0000  0.0000 -0.1658  1.9996  0.5055  0.0000
   7.  C 2 (s)      0.0923  0.9057  0.0000  0.0000 -0.9647  0.5055  1.7823  0.0000
   8.  C 2 (px)     0.0000  0.0000  1.2324  0.0000  0.0000  0.0000  0.0000  1.3102
   9.  C 2 (py)     0.0000  0.0000  0.0000  1.2324  0.0000  0.0000  0.0000  0.0000
  10.  C 2 (pz)     0.1589  0.9792  0.0000  0.0000 -0.7485 -0.0011  0.0128  0.0000
  11.  C 3 (s)      0.0000  0.0006  0.0000  0.0000 -0.0038  0.0002  0.0728  0.0000
  12.  C 3 (s)      0.0022  0.0637  0.0000  0.0000 -0.0494  0.0728  0.8782  0.0000
  13.  C 3 (px)     0.0000  0.0000  0.1206  0.0000  0.0000  0.0000  0.0000  0.5003
  14.  C 3 (py)     0.0000  0.0000  0.0000  0.1206  0.0000  0.0000  0.0000  0.0000
  15.  C 3 (pz)     0.0046  0.1001  0.0000  0.0000 -0.0994  0.1252  0.9111  0.0000
  16.  N 4 (s)      0.0000  0.0000  0.0000  0.0000  0.0003  0.0000  0.0022  0.0000
  17.  N 4 (s)      0.0000  0.0003  0.0000  0.0000 -0.0012  0.0006  0.0637  0.0000
  18.  N 4 (px)     0.0000  0.0000 -0.2574  0.0000  0.0000  0.0000  0.0000  0.1206
  19.  N 4 (py)     0.0000  0.0000  0.0000 -0.2574  0.0000  0.0000  0.0000  0.0000
  20.  N 4 (pz)    -0.0003  0.0012  0.0000  0.0000 -0.0218  0.0038  0.0494  0.0000

           AO          9      10      11      12      13      14      15      16
      ------------ ------- ------- ------- ------- ------- ------- ------- -------
   1.  N 1 (s)      0.0000  0.1589  0.0000  0.0022  0.0000  0.0000  0.0046  0.0000
   2.  N 1 (s)      0.0000  0.9792  0.0006  0.0637  0.0000  0.0000  0.1001  0.0000
   3.  N 1 (px)     0.0000  0.0000  0.0000  0.0000  0.1206  0.0000  0.0000  0.0000
   4.  N 1 (py)     1.2324  0.0000  0.0000  0.0000  0.0000  0.1206  0.0000  0.0000
   5.  N 1 (pz)     0.0000 -0.7485 -0.0038 -0.0494  0.0000  0.0000 -0.0994  0.0003
   6.  C 2 (s)      0.0000 -0.0011  0.0002  0.0728  0.0000  0.0000  0.1252  0.0000
   7.  C 2 (s)      0.0000  0.0128  0.0728  0.8782  0.0000  0.0000  0.9111  0.0022
   8.  C 2 (px)     0.0000  0.0000  0.0000  0.0000  0.5003  0.0000  0.0000  0.0000
   9.  C 2 (py)     1.3102  0.0000  0.0000  0.0000  0.0000  0.5003  0.0000  0.0000
  10.  C 2 (pz)     0.0000  1.7731 -0.1252 -0.9111  0.0000  0.0000 -0.7486 -0.0046
  11.  C 3 (s)      0.0000 -0.1252  1.9996  0.5055  0.0000  0.0000  0.0011  0.0002
  12.  C 3 (s)      0.0000 -0.9111  0.5055  1.7823  0.0000  0.0000 -0.0128  0.0923
  13.  C 3 (px)     0.0000  0.0000  0.0000  0.0000  1.3102  0.0000  0.0000  0.0000
  14.  C 3 (py)     0.5003  0.0000  0.0000  0.0000  0.0000  1.3102  0.0000  0.0000
  15.  C 3 (pz)     0.0000 -0.7486  0.0011 -0.0128  0.0000  0.0000  1.7731 -0.1589
  16.  N 4 (s)      0.0000 -0.0046  0.0002  0.0923  0.0000  0.0000 -0.1589  1.9998
  17.  N 4 (s)      0.0000 -0.1001  0.1028  0.9057  0.0000  0.0000 -0.9792  0.4717
  18.  N 4 (px)     0.0000  0.0000  0.0000  0.0000  1.2324  0.0000  0.0000  0.0000
  19.  N 4 (py)     0.1206  0.0000  0.0000  0.0000  0.0000  1.2324  0.0000  0.0000
  20.  N 4 (pz)     0.0000 -0.0994  0.1658  0.9647  0.0000  0.0000 -0.7485  0.0055

           AO         17      18      19      20
      ------------ ------- ------- ------- -------
   1.  N 1 (s)      0.0000  0.0000  0.0000 -0.0003
   2.  N 1 (s)      0.0003  0.0000  0.0000  0.0012
   3.  N 1 (px)     0.0000 -0.2574  0.0000  0.0000
   4.  N 1 (py)     0.0000  0.0000 -0.2574  0.0000
   5.  N 1 (pz)    -0.0012  0.0000  0.0000 -0.0218
   6.  C 2 (s)      0.0006  0.0000  0.0000  0.0038
   7.  C 2 (s)      0.0637  0.0000  0.0000  0.0494
   8.  C 2 (px)     0.0000  0.1206  0.0000  0.0000
   9.  C 2 (py)     0.0000  0.0000  0.1206  0.0000
  10.  C 2 (pz)    -0.1001  0.0000  0.0000 -0.0994
  11.  C 3 (s)      0.1028  0.0000  0.0000  0.1658
  12.  C 3 (s)      0.9057  0.0000  0.0000  0.9647
  13.  C 3 (px)     0.0000  1.2324  0.0000  0.0000
  14.  C 3 (py)     0.0000  0.0000  1.2324  0.0000
  15.  C 3 (pz)    -0.9792  0.0000  0.0000 -0.7485
  16.  N 4 (s)      0.4717  0.0000  0.0000  0.0055
  17.  N 4 (s)      1.9837  0.0000  0.0000 -0.0534
  18.  N 4 (px)     0.0000  1.2685  0.0000  0.0000
  19.  N 4 (py)     0.0000  0.0000  1.2685  0.0000
  20.  N 4 (pz)    -0.0534  0.0000  0.0000  1.8084


 MO density matrix:

      MO     1       2       3       4       5       6       7       8       9
     ---- ------  ------  ------  ------  ------  ------  ------  ------  ------
   1.     2.0000  0.0000  0.0000  0.0000  0.0000  0.0000  0.0000  0.0000  0.0000
   2.     0.0000  2.0000  0.0000  0.0000  0.0000  0.0000  0.0000  0.0000  0.0000
   3.     0.0000  0.0000  2.0000  0.0000  0.0000  0.0000  0.0000  0.0000  0.0000
   4.     0.0000  0.0000  0.0000  2.0000  0.0000  0.0000  0.0000  0.0000  0.0000
   5.     0.0000  0.0000  0.0000  0.0000  2.0000  0.0000  0.0000  0.0000  0.0000
   6.     0.0000  0.0000  0.0000  0.0000  0.0000  2.0000  0.0000  0.0000  0.0000
   7.     0.0000  0.0000  0.0000  0.0000  0.0000  0.0000  2.0000  0.0000  0.0000
   8.     0.0000  0.0000  0.0000  0.0000  0.0000  0.0000  0.0000  2.0000  0.0000
   9.     0.0000  0.0000  0.0000  0.0000  0.0000  0.0000  0.0000  0.0000  2.0000
  10.     0.0000  0.0000  0.0000  0.0000  0.0000  0.0000  0.0000  0.0000  0.0000
  11.     0.0000  0.0000  0.0000  0.0000  0.0000  0.0000  0.0000  0.0000  0.0000
  12.     0.0000  0.0000  0.0000  0.0000  0.0000  0.0000  0.0000  0.0000  0.0000
  13.     0.0000  0.0000  0.0000  0.0000  0.0000  0.0000  0.0000  0.0000  0.0000
  14.     0.0000  0.0000  0.0000  0.0000  0.0000  0.0000  0.0000  0.0000  0.0000
  15.     0.0000  0.0000  0.0000  0.0000  0.0000  0.0000  0.0000  0.0000  0.0000
  16.     0.0000  0.0000  0.0000  0.0000  0.0000  0.0000  0.0000  0.0000  0.0000
  17.     0.0000  0.0000  0.0000  0.0000  0.0000  0.0000  0.0000  0.0000  0.0000
  18.     0.0000  0.0000  0.0000  0.0000  0.0000  0.0000  0.0000  0.0000  0.0000
  19.     0.0000  0.0000  0.0000  0.0000  0.0000  0.0000  0.0000  0.0000  0.0000
  20.     0.0000  0.0000  0.0000  0.0000  0.0000  0.0000  0.0000  0.0000  0.0000

      MO    10      11      12      13      14      15      16      17      18
     ---- ------  ------  ------  ------  ------  ------  ------  ------  ------
   1.     0.0000  0.0000  0.0000  0.0000  0.0000  0.0000  0.0000  0.0000  0.0000
   2.     0.0000  0.0000  0.0000  0.0000  0.0000  0.0000  0.0000  0.0000  0.0000
   3.     0.0000  0.0000  0.0000  0.0000  0.0000  0.0000  0.0000  0.0000  0.0000
   4.     0.0000  0.0000  0.0000  0.0000  0.0000  0.0000  0.0000  0.0000  0.0000
   5.     0.0000  0.0000  0.0000  0.0000  0.0000  0.0000  0.0000  0.0000  0.0000
   6.     0.0000  0.0000  0.0000  0.0000  0.0000  0.0000  0.0000  0.0000  0.0000
   7.     0.0000  0.0000  0.0000  0.0000  0.0000  0.0000  0.0000  0.0000  0.0000
   8.     0.0000  0.0000  0.0000  0.0000  0.0000  0.0000  0.0000  0.0000  0.0000
   9.     0.0000  0.0000  0.0000  0.0000  0.0000  0.0000  0.0000  0.0000  0.0000
  10.     2.0000  0.0000  0.0000  0.0000  0.0000  0.0000  0.0000  0.0000  0.0000
  11.     0.0000  2.0000  0.0000  0.0000  0.0000  0.0000  0.0000  0.0000  0.0000
  12.     0.0000  0.0000  2.0000  0.0000  0.0000  0.0000  0.0000  0.0000  0.0000
  13.     0.0000  0.0000  0.0000  2.0000  0.0000  0.0000  0.0000  0.0000  0.0000
  14.     0.0000  0.0000  0.0000  0.0000  0.0000  0.0000  0.0000  0.0000  0.0000
  15.     0.0000  0.0000  0.0000  0.0000  0.0000  0.0000  0.0000  0.0000  0.0000
  16.     0.0000  0.0000  0.0000  0.0000  0.0000  0.0000  0.0000  0.0000  0.0000
  17.     0.0000  0.0000  0.0000  0.0000  0.0000  0.0000  0.0000  0.0000  0.0000
  18.     0.0000  0.0000  0.0000  0.0000  0.0000  0.0000  0.0000  0.0000  0.0000
  19.     0.0000  0.0000  0.0000  0.0000  0.0000  0.0000  0.0000  0.0000  0.0000
  20.     0.0000  0.0000  0.0000  0.0000  0.0000  0.0000  0.0000  0.0000  0.0000

      MO    19      20
     ---- ------  ------
   1.     0.0000  0.0000
   2.     0.0000  0.0000
   3.     0.0000  0.0000
   4.     0.0000  0.0000
   5.     0.0000  0.0000
   6.     0.0000  0.0000
   7.     0.0000  0.0000
   8.     0.0000  0.0000
   9.     0.0000  0.0000
  10.     0.0000  0.0000
  11.     0.0000  0.0000
  12.     0.0000  0.0000
  13.     0.0000  0.0000
  14.     0.0000  0.0000
  15.     0.0000  0.0000
  16.     0.0000  0.0000
  17.     0.0000  0.0000
  18.     0.0000  0.0000
  19.     0.0000  0.0000
  20.     0.0000  0.0000


 NATURAL POPULATIONS:  Natural atomic orbital occupancies

  NAO Atom No lang   Type(AO)    Occupancy      Energy
 -------------------------------------------------------
   1    N  1  s      Cor( 1s)     2.00000     -15.36577
   2    N  1  s      Val( 2s)     1.72938      -0.74623
   3    N  1  px     Val( 2p)     1.00644      -0.09366
   4    N  1  py     Val( 2p)     1.00644      -0.09366
   5    N  1  pz     Val( 2p)     1.32099      -0.07013

   6    C  2  s      Cor( 1s)     2.00000     -11.14484
   7    C  2  s      Val( 2s)     1.02985      -0.24684
   8    C  2  px     Val( 2p)     0.99356      -0.07115
   9    C  2  py     Val( 2p)     0.99356      -0.07115
  10    C  2  pz     Val( 2p)     0.91978       0.24685

  11    C  3  s      Cor( 1s)     2.00000     -11.14484
  12    C  3  s      Val( 2s)     1.02985      -0.24684
  13    C  3  px     Val( 2p)     0.99356      -0.07115
  14    C  3  py     Val( 2p)     0.99356      -0.07115
  15    C  3  pz     Val( 2p)     0.91978       0.24685

  16    N  4  s      Cor( 1s)     2.00000     -15.36577
  17    N  4  s      Val( 2s)     1.72938      -0.74623
  18    N  4  px     Val( 2p)     1.00644      -0.09366
  19    N  4  py     Val( 2p)     1.00644      -0.09366
  20    N  4  pz     Val( 2p)     1.32099      -0.07013


 Summary of Natural Population Analysis:

                                     Natural Population
             Natural    ---------------------------------------------
  Atom No    Charge        Core      Valence    Rydberg      Total
 --------------------------------------------------------------------
    N  1   -0.06325      2.00000     5.06326    0.00000     7.06325
    C  2    0.06325      2.00000     3.93675    0.00000     5.93675
    C  3    0.06325      2.00000     3.93675    0.00000     5.93675
    N  4   -0.06325      2.00000     5.06326    0.00000     7.06325
 ====================================================================
 * Total *  0.00000      7.99999    18.00001    0.00000    26.00000

                                 Natural Population
 ---------------------------------------------------------
   Core                       7.99999 ( 99.9998% of    8)
   Valence                   18.00001 (100.0001% of   18)
   Natural Minimal Basis     26.00000 (100.0000% of   26)
   Natural Rydberg Basis      0.00000 (  0.0000% of   26)
 ---------------------------------------------------------

    Atom No         Natural Electron Configuration
 ----------------------------------------------------------------------------
      N  1      [core]2s( 1.73)2p( 3.33)
      C  2      [core]2s( 1.03)2p( 2.91)
      C  3      [core]2s( 1.03)2p( 2.91)
      N  4      [core]2s( 1.73)2p( 3.33)


 PNAOs in the AO basis:

           AO          1       2       3       4       5       6       7       8
      ------------ ------- ------- ------- ------- ------- ------- ------- -------
   1.  N 1 (s)      0.9732 -0.3338  0.0000  0.0000  0.0000  0.0000  0.0000  0.0000
   2.  N 1 (s)      0.0957  1.0244  0.0000  0.0000  0.0000  0.0000  0.0000  0.0000
   3.  N 1 (px)     0.0000  0.0000  1.0000  0.0000  0.0000  0.0000  0.0000  0.0000
   4.  N 1 (py)     0.0000  0.0000  0.0000  1.0000  0.0000  0.0000  0.0000  0.0000
   5.  N 1 (pz)     0.0000  0.0000  0.0000  0.0000  1.0000  0.0000  0.0000  0.0000
   6.  C 2 (s)      0.0000  0.0000  0.0000  0.0000  0.0000  0.9894 -0.2947  0.0000
   7.  C 2 (s)      0.0000  0.0000  0.0000  0.0000  0.0000  0.0398  1.0316  0.0000
   8.  C 2 (px)     0.0000  0.0000  0.0000  0.0000  0.0000  0.0000  0.0000  1.0000
   9.  C 2 (py)     0.0000  0.0000  0.0000  0.0000  0.0000  0.0000  0.0000  0.0000
  10.  C 2 (pz)     0.0000  0.0000  0.0000  0.0000  0.0000  0.0000  0.0000  0.0000
  11.  C 3 (s)      0.0000  0.0000  0.0000  0.0000  0.0000  0.0000  0.0000  0.0000
  12.  C 3 (s)      0.0000  0.0000  0.0000  0.0000  0.0000  0.0000  0.0000  0.0000
  13.  C 3 (px)     0.0000  0.0000  0.0000  0.0000  0.0000  0.0000  0.0000  0.0000
  14.  C 3 (py)     0.0000  0.0000  0.0000  0.0000  0.0000  0.0000  0.0000  0.0000
  15.  C 3 (pz)     0.0000  0.0000  0.0000  0.0000  0.0000  0.0000  0.0000  0.0000
  16.  N 4 (s)      0.0000  0.0000  0.0000  0.0000  0.0000  0.0000  0.0000  0.0000
  17.  N 4 (s)      0.0000  0.0000  0.0000  0.0000  0.0000  0.0000  0.0000  0.0000
  18.  N 4 (px)     0.0000  0.0000  0.0000  0.0000  0.0000  0.0000  0.0000  0.0000
  19.  N 4 (py)     0.0000  0.0000  0.0000  0.0000  0.0000  0.0000  0.0000  0.0000
  20.  N 4 (pz)     0.0000  0.0000  0.0000  0.0000  0.0000  0.0000  0.0000  0.0000

           AO          9      10      11      12      13      14      15      16
      ------------ ------- ------- ------- ------- ------- ------- ------- -------
   1.  N 1 (s)      0.0000  0.0000  0.0000  0.0000  0.0000  0.0000  0.0000  0.0000
   2.  N 1 (s)      0.0000  0.0000  0.0000  0.0000  0.0000  0.0000  0.0000  0.0000
   3.  N 1 (px)     0.0000  0.0000  0.0000  0.0000  0.0000  0.0000  0.0000  0.0000
   4.  N 1 (py)     0.0000  0.0000  0.0000  0.0000  0.0000  0.0000  0.0000  0.0000
   5.  N 1 (pz)     0.0000  0.0000  0.0000  0.0000  0.0000  0.0000  0.0000  0.0000
   6.  C 2 (s)      0.0000  0.0000  0.0000  0.0000  0.0000  0.0000  0.0000  0.0000
   7.  C 2 (s)      0.0000  0.0000  0.0000  0.0000  0.0000  0.0000  0.0000  0.0000
   8.  C 2 (px)     0.0000  0.0000  0.0000  0.0000  0.0000  0.0000  0.0000  0.0000
   9.  C 2 (py)     1.0000  0.0000  0.0000  0.0000  0.0000  0.0000  0.0000  0.0000
  10.  C 2 (pz)     0.0000  1.0000  0.0000  0.0000  0.0000  0.0000  0.0000  0.0000
  11.  C 3 (s)      0.0000  0.0000  0.9894 -0.2947  0.0000  0.0000  0.0000  0.0000
  12.  C 3 (s)      0.0000  0.0000  0.0398  1.0316  0.0000  0.0000  0.0000  0.0000
  13.  C 3 (px)     0.0000  0.0000  0.0000  0.0000  1.0000  0.0000  0.0000  0.0000
  14.  C 3 (py)     0.0000  0.0000  0.0000  0.0000  0.0000  1.0000  0.0000  0.0000
  15.  C 3 (pz)     0.0000  0.0000  0.0000  0.0000  0.0000  0.0000  1.0000  0.0000
  16.  N 4 (s)      0.0000  0.0000  0.0000  0.0000  0.0000  0.0000  0.0000  0.9732
  17.  N 4 (s)      0.0000  0.0000  0.0000  0.0000  0.0000  0.0000  0.0000  0.0957
  18.  N 4 (px)     0.0000  0.0000  0.0000  0.0000  0.0000  0.0000  0.0000  0.0000
  19.  N 4 (py)     0.0000  0.0000  0.0000  0.0000  0.0000  0.0000  0.0000  0.0000
  20.  N 4 (pz)     0.0000  0.0000  0.0000  0.0000  0.0000  0.0000  0.0000  0.0000

           AO         17      18      19      20
      ------------ ------- ------- ------- -------
   1.  N 1 (s)      0.0000  0.0000  0.0000  0.0000
   2.  N 1 (s)      0.0000  0.0000  0.0000  0.0000
   3.  N 1 (px)     0.0000  0.0000  0.0000  0.0000
   4.  N 1 (py)     0.0000  0.0000  0.0000  0.0000
   5.  N 1 (pz)     0.0000  0.0000  0.0000  0.0000
   6.  C 2 (s)      0.0000  0.0000  0.0000  0.0000
   7.  C 2 (s)      0.0000  0.0000  0.0000  0.0000
   8.  C 2 (px)     0.0000  0.0000  0.0000  0.0000
   9.  C 2 (py)     0.0000  0.0000  0.0000  0.0000
  10.  C 2 (pz)     0.0000  0.0000  0.0000  0.0000
  11.  C 3 (s)      0.0000  0.0000  0.0000  0.0000
  12.  C 3 (s)      0.0000  0.0000  0.0000  0.0000
  13.  C 3 (px)     0.0000  0.0000  0.0000  0.0000
  14.  C 3 (py)     0.0000  0.0000  0.0000  0.0000
  15.  C 3 (pz)     0.0000  0.0000  0.0000  0.0000
  16.  N 4 (s)     -0.3338  0.0000  0.0000  0.0000
  17.  N 4 (s)      1.0244  0.0000  0.0000  0.0000
  18.  N 4 (px)     0.0000  1.0000  0.0000  0.0000
  19.  N 4 (py)     0.0000  0.0000  1.0000  0.0000
  20.  N 4 (pz)     0.0000  0.0000  0.0000  1.0000


 PNAO overlap matrix:

           NAO         1       2       3       4       5       6       7       8
      ------------ ------- ------- ------- ------- ------- ------- ------- -------
   1.  N 1( 1s )    1.0000  0.0000  0.0000  0.0000  0.0000  0.0085  0.0900  0.0000
   2.  N 1( 2s )    0.0000  1.0000  0.0000  0.0000  0.0000  0.0698  0.4271  0.0000
   3.  N 1( 2px)    0.0000  0.0000  1.0000  0.0000  0.0000  0.0000  0.0000  0.2698
   4.  N 1( 2py)    0.0000  0.0000  0.0000  1.0000  0.0000  0.0000  0.0000  0.0000
   5.  N 1( 2pz)    0.0000  0.0000  0.0000  0.0000  1.0000 -0.1011 -0.3869  0.0000
   6.  C 2( 1s )    0.0085  0.0698  0.0000  0.0000 -0.1011  1.0000  0.0000  0.0000
   7.  C 2( 2s )    0.0900  0.4271  0.0000  0.0000 -0.3869  0.0000  1.0000  0.0000
   8.  C 2( 2px)    0.0000  0.0000  0.2698  0.0000  0.0000  0.0000  0.0000  1.0000
   9.  C 2( 2py)    0.0000  0.0000  0.0000  0.2698  0.0000  0.0000  0.0000  0.0000
  10.  C 2( 2pz)    0.1238  0.4507  0.0000  0.0000 -0.3181  0.0000  0.0000  0.0000
  11.  C 3( 1s )    0.0002  0.0016  0.0000  0.0000 -0.0027  0.0037  0.0549  0.0000
  12.  C 3( 2s )    0.0038  0.0320  0.0000  0.0000 -0.0469  0.0549  0.3743  0.0000
  13.  C 3( 2px)    0.0000  0.0000  0.0119  0.0000  0.0000  0.0000  0.0000  0.2204
  14.  C 3( 2py)    0.0000  0.0000  0.0000  0.0119  0.0000  0.0000  0.0000  0.0000
  15.  C 3( 2pz)    0.0067  0.0513  0.0000  0.0000 -0.0701  0.0801  0.3880  0.0000
  16.  N 4( 1s )    0.0000  0.0000  0.0000  0.0000 -0.0001  0.0002  0.0038  0.0000
  17.  N 4( 2s )    0.0000  0.0004  0.0000  0.0000 -0.0008  0.0016  0.0320  0.0000
  18.  N 4( 2px)    0.0000  0.0000  0.0001  0.0000  0.0000  0.0000  0.0000  0.0119
  19.  N 4( 2py)    0.0000  0.0000  0.0000  0.0001  0.0000  0.0000  0.0000  0.0000
  20.  N 4( 2pz)    0.0001  0.0008  0.0000  0.0000 -0.0017  0.0027  0.0469  0.0000

           NAO         9      10      11      12      13      14      15      16
      ------------ ------- ------- ------- ------- ------- ------- ------- -------
   1.  N 1( 1s )    0.0000  0.1238  0.0002  0.0038  0.0000  0.0000  0.0067  0.0000
   2.  N 1( 2s )    0.0000  0.4507  0.0016  0.0320  0.0000  0.0000  0.0513  0.0000
   3.  N 1( 2px)    0.0000  0.0000  0.0000  0.0000  0.0119  0.0000  0.0000  0.0000
   4.  N 1( 2py)    0.2698  0.0000  0.0000  0.0000  0.0000  0.0119  0.0000  0.0000
   5.  N 1( 2pz)    0.0000 -0.3181 -0.0027 -0.0469  0.0000  0.0000 -0.0701 -0.0001
   6.  C 2( 1s )    0.0000  0.0000  0.0037  0.0549  0.0000  0.0000  0.0801  0.0002
   7.  C 2( 2s )    0.0000  0.0000  0.0549  0.3743  0.0000  0.0000  0.3880  0.0038
   8.  C 2( 2px)    0.0000  0.0000  0.0000  0.0000  0.2204  0.0000  0.0000  0.0000
   9.  C 2( 2py)    1.0000  0.0000  0.0000  0.0000  0.0000  0.2204  0.0000  0.0000
  10.  C 2( 2pz)    0.0000  1.0000 -0.0801 -0.3880  0.0000  0.0000 -0.3284 -0.0067
  11.  C 3( 1s )    0.0000 -0.0801  1.0000  0.0000  0.0000  0.0000  0.0000  0.0085
  12.  C 3( 2s )    0.0000 -0.3880  0.0000  1.0000  0.0000  0.0000  0.0000  0.0900
  13.  C 3( 2px)    0.0000  0.0000  0.0000  0.0000  1.0000  0.0000  0.0000  0.0000
  14.  C 3( 2py)    0.2204  0.0000  0.0000  0.0000  0.0000  1.0000  0.0000  0.0000
  15.  C 3( 2pz)    0.0000 -0.3284  0.0000  0.0000  0.0000  0.0000  1.0000 -0.1238
  16.  N 4( 1s )    0.0000 -0.0067  0.0085  0.0900  0.0000  0.0000 -0.1238  1.0000
  17.  N 4( 2s )    0.0000 -0.0513  0.0698  0.4271  0.0000  0.0000 -0.4507  0.0000
  18.  N 4( 2px)    0.0000  0.0000  0.0000  0.0000  0.2698  0.0000  0.0000  0.0000
  19.  N 4( 2py)    0.0119  0.0000  0.0000  0.0000  0.0000  0.2698  0.0000  0.0000
  20.  N 4( 2pz)    0.0000 -0.0701  0.1011  0.3869  0.0000  0.0000 -0.3181  0.0000

           NAO        17      18      19      20
      ------------ ------- ------- ------- -------
   1.  N 1( 1s )    0.0000  0.0000  0.0000  0.0001
   2.  N 1( 2s )    0.0004  0.0000  0.0000  0.0008
   3.  N 1( 2px)    0.0000  0.0001  0.0000  0.0000
   4.  N 1( 2py)    0.0000  0.0000  0.0001  0.0000
   5.  N 1( 2pz)   -0.0008  0.0000  0.0000 -0.0017
   6.  C 2( 1s )    0.0016  0.0000  0.0000  0.0027
   7.  C 2( 2s )    0.0320  0.0000  0.0000  0.0469
   8.  C 2( 2px)    0.0000  0.0119  0.0000  0.0000
   9.  C 2( 2py)    0.0000  0.0000  0.0119  0.0000
  10.  C 2( 2pz)   -0.0513  0.0000  0.0000 -0.0701
  11.  C 3( 1s )    0.0698  0.0000  0.0000  0.1011
  12.  C 3( 2s )    0.4271  0.0000  0.0000  0.3869
  13.  C 3( 2px)    0.0000  0.2698  0.0000  0.0000
  14.  C 3( 2py)    0.0000  0.0000  0.2698  0.0000
  15.  C 3( 2pz)   -0.4507  0.0000  0.0000 -0.3181
  16.  N 4( 1s )    0.0000  0.0000  0.0000  0.0000
  17.  N 4( 2s )    1.0000  0.0000  0.0000  0.0000
  18.  N 4( 2px)    0.0000  1.0000  0.0000  0.0000
  19.  N 4( 2py)    0.0000  0.0000  1.0000  0.0000
  20.  N 4( 2pz)    0.0000  0.0000  0.0000  1.0000


 PNAO density matrix:

           NAO         1       2       3       4       5       6       7       8
      ------------ ------- ------- ------- ------- ------- ------- ------- -------
   1.  N 1( 1s )    2.0000  0.0000  0.0000  0.0000 -0.0003  0.0169  0.1792  0.0000
   2.  N 1( 2s )    0.0000  1.9818  0.0000  0.0000  0.0566  0.1398  0.8942  0.0000
   3.  N 1( 2px)    0.0000  0.0000  1.2685  0.0000  0.0000  0.0000  0.0000  1.2324
   4.  N 1( 2py)    0.0000  0.0000  0.0000  1.2685  0.0000  0.0000  0.0000  0.0000
   5.  N 1( 2pz)   -0.0003  0.0566  0.0000  0.0000  1.8084 -0.2024 -0.9463  0.0000
   6.  C 2( 1s )    0.0169  0.1398  0.0000  0.0000 -0.2024  2.0000  0.0000  0.0000
   7.  C 2( 2s )    0.1792  0.8942  0.0000  0.0000 -0.9463  0.0000  1.7630  0.0000
   8.  C 2( 2px)    0.0000  0.0000  1.2324  0.0000  0.0000  0.0000  0.0000  1.3102
   9.  C 2( 2py)    0.0000  0.0000  0.0000  1.2324  0.0000  0.0000  0.0000  0.0000
  10.  C 2( 2pz)    0.2483  0.9500  0.0000  0.0000 -0.7485 -0.0005  0.0135  0.0000
  11.  C 3( 1s )    0.0004  0.0032  0.0000  0.0000 -0.0057  0.0074  0.1094  0.0000
  12.  C 3( 2s )    0.0085  0.0663  0.0000  0.0000 -0.0499  0.1094  0.8902  0.0000
  13.  C 3( 2px)    0.0000  0.0000  0.1206  0.0000  0.0000  0.0000  0.0000  0.5003
  14.  C 3( 2py)    0.0000  0.0000  0.0000  0.1206  0.0000  0.0000  0.0000  0.0000
  15.  C 3( 2pz)    0.0141  0.1010  0.0000  0.0000 -0.0994  0.1601  0.9030  0.0000
  16.  N 4( 1s )    0.0000  0.0001  0.0000  0.0000  0.0002  0.0004  0.0085  0.0000
  17.  N 4( 2s )    0.0001  0.0003  0.0000  0.0000 -0.0013  0.0032  0.0663  0.0000
  18.  N 4( 2px)    0.0000  0.0000 -0.2574  0.0000  0.0000  0.0000  0.0000  0.1206
  19.  N 4( 2py)    0.0000  0.0000  0.0000 -0.2574  0.0000  0.0000  0.0000  0.0000
  20.  N 4( 2pz)   -0.0002  0.0013  0.0000  0.0000 -0.0218  0.0057  0.0499  0.0000

           NAO         9      10      11      12      13      14      15      16
      ------------ ------- ------- ------- ------- ------- ------- ------- -------
   1.  N 1( 1s )    0.0000  0.2483  0.0004  0.0085  0.0000  0.0000  0.0141  0.0000
   2.  N 1( 2s )    0.0000  0.9500  0.0032  0.0663  0.0000  0.0000  0.1010  0.0001
   3.  N 1( 2px)    0.0000  0.0000  0.0000  0.0000  0.1206  0.0000  0.0000  0.0000
   4.  N 1( 2py)    1.2324  0.0000  0.0000  0.0000  0.0000  0.1206  0.0000  0.0000
   5.  N 1( 2pz)    0.0000 -0.7485 -0.0057 -0.0499  0.0000  0.0000 -0.0994  0.0002
   6.  C 2( 1s )    0.0000 -0.0005  0.0074  0.1094  0.0000  0.0000  0.1601  0.0004
   7.  C 2( 2s )    0.0000  0.0135  0.1094  0.8902  0.0000  0.0000  0.9030  0.0085
   8.  C 2( 2px)    0.0000  0.0000  0.0000  0.0000  0.5003  0.0000  0.0000  0.0000
   9.  C 2( 2py)    1.3102  0.0000  0.0000  0.0000  0.0000  0.5003  0.0000  0.0000
  10.  C 2( 2pz)    0.0000  1.7731 -0.1601 -0.9030  0.0000  0.0000 -0.7486 -0.0141
  11.  C 3( 1s )    0.0000 -0.1601  2.0000  0.0000  0.0000  0.0000  0.0005  0.0169
  12.  C 3( 2s )    0.0000 -0.9030  0.0000  1.7630  0.0000  0.0000 -0.0135  0.1792
  13.  C 3( 2px)    0.0000  0.0000  0.0000  0.0000  1.3102  0.0000  0.0000  0.0000
  14.  C 3( 2py)    0.5003  0.0000  0.0000  0.0000  0.0000  1.3102  0.0000  0.0000
  15.  C 3( 2pz)    0.0000 -0.7486  0.0005 -0.0135  0.0000  0.0000  1.7731 -0.2483
  16.  N 4( 1s )    0.0000 -0.0141  0.0169  0.1792  0.0000  0.0000 -0.2483  2.0000
  17.  N 4( 2s )    0.0000 -0.1010  0.1398  0.8942  0.0000  0.0000 -0.9500  0.0000
  18.  N 4( 2px)    0.0000  0.0000  0.0000  0.0000  1.2324  0.0000  0.0000  0.0000
  19.  N 4( 2py)    0.1206  0.0000  0.0000  0.0000  0.0000  1.2324  0.0000  0.0000
  20.  N 4( 2pz)    0.0000 -0.0994  0.2024  0.9463  0.0000  0.0000 -0.7485  0.0003

           NAO        17      18      19      20
      ------------ ------- ------- ------- -------
   1.  N 1( 1s )    0.0001  0.0000  0.0000 -0.0002
   2.  N 1( 2s )    0.0003  0.0000  0.0000  0.0013
   3.  N 1( 2px)    0.0000 -0.2574  0.0000  0.0000
   4.  N 1( 2py)    0.0000  0.0000 -0.2574  0.0000
   5.  N 1( 2pz)   -0.0013  0.0000  0.0000 -0.0218
   6.  C 2( 1s )    0.0032  0.0000  0.0000  0.0057
   7.  C 2( 2s )    0.0663  0.0000  0.0000  0.0499
   8.  C 2( 2px)    0.0000  0.1206  0.0000  0.0000
   9.  C 2( 2py)    0.0000  0.0000  0.1206  0.0000
  10.  C 2( 2pz)   -0.1010  0.0000  0.0000 -0.0994
  11.  C 3( 1s )    0.1398  0.0000  0.0000  0.2024
  12.  C 3( 2s )    0.8942  0.0000  0.0000  0.9463
  13.  C 3( 2px)    0.0000  1.2324  0.0000  0.0000
  14.  C 3( 2py)    0.0000  0.0000  1.2324  0.0000
  15.  C 3( 2pz)   -0.9500  0.0000  0.0000 -0.7485
  16.  N 4( 1s )    0.0000  0.0000  0.0000  0.0003
  17.  N 4( 2s )    1.9818  0.0000  0.0000 -0.0566
  18.  N 4( 2px)    0.0000  1.2685  0.0000  0.0000
  19.  N 4( 2py)    0.0000  0.0000  1.2685  0.0000
  20.  N 4( 2pz)   -0.0566  0.0000  0.0000  1.8084


 NAOs in the AO basis:

           AO          1       2       3       4       5       6       7       8
      ------------ ------- ------- ------- ------- ------- ------- ------- -------
   1.  N 1 (s)      0.9732 -0.3503  0.0000  0.0000  0.0201 -0.0041  0.0036  0.0000
   2.  N 1 (s)      0.0957  1.3336  0.0000  0.0000 -0.3187 -0.0004 -0.4287  0.0000
   3.  N 1 (px)     0.0000  0.0000  1.0297  0.0000  0.0000  0.0000  0.0000 -0.1444
   4.  N 1 (py)     0.0000  0.0000  0.0000  1.0297  0.0000  0.0000  0.0000  0.0000
   5.  N 1 (pz)     0.0000 -0.2217  0.0000  0.0000  1.2331  0.0000  0.3161  0.0000
   6.  C 2 (s)     -0.0042  0.0006  0.0000  0.0000  0.0255  0.9894 -0.3216  0.0000
   7.  C 2 (s)     -0.0002 -0.3767  0.0000  0.0000  0.4024  0.0398  1.4728  0.0000
   8.  C 2 (px)     0.0000  0.0000 -0.1460  0.0000  0.0000  0.0000  0.0000  1.0501
   9.  C 2 (py)     0.0000  0.0000  0.0000 -0.1460  0.0000  0.0000  0.0000  0.0000
  10.  C 2 (pz)     0.0000 -0.4035  0.0000  0.0000  0.3800  0.0000  0.0764  0.0000
  11.  C 3 (s)     -0.0001  0.0000  0.0000  0.0000 -0.0007 -0.0018  0.0101  0.0000
  12.  C 3 (s)      0.0000 -0.0455  0.0000  0.0000  0.0405 -0.0001 -0.2601  0.0000
  13.  C 3 (px)     0.0000  0.0000  0.0190  0.0000  0.0000  0.0000  0.0000 -0.1226
  14.  C 3 (py)     0.0000  0.0000  0.0000  0.0190  0.0000  0.0000  0.0000  0.0000
  15.  C 3 (pz)     0.0000 -0.0500  0.0000  0.0000  0.0494  0.0000 -0.2940  0.0000
  16.  N 4 (s)      0.0000  0.0004  0.0000  0.0000 -0.0004 -0.0001 -0.0014  0.0000
  17.  N 4 (s)      0.0000 -0.0121  0.0000  0.0000  0.0126  0.0000 -0.0519  0.0000
  18.  N 4 (px)     0.0000  0.0000 -0.0032  0.0000  0.0000  0.0000  0.0000  0.0188
  19.  N 4 (py)     0.0000  0.0000  0.0000 -0.0032  0.0000  0.0000  0.0000  0.0000
  20.  N 4 (pz)     0.0000 -0.0087  0.0000  0.0000  0.0088  0.0000 -0.0319  0.0000

           AO          9      10      11      12      13      14      15      16
      ------------ ------- ------- ------- ------- ------- ------- ------- -------
   1.  N 1 (s)      0.0000 -0.0151 -0.0001 -0.0014  0.0000  0.0000 -0.0003  0.0000
   2.  N 1 (s)      0.0000 -0.5787  0.0000 -0.0519  0.0000  0.0000 -0.0715  0.0000
   3.  N 1 (px)     0.0000  0.0000  0.0000  0.0000  0.0188  0.0000  0.0000  0.0000
   4.  N 1 (py)    -0.1444  0.0000  0.0000  0.0000  0.0000  0.0188  0.0000  0.0000
   5.  N 1 (pz)     0.0000  0.3759  0.0000  0.0319  0.0000  0.0000  0.0489  0.0000
   6.  C 2 (s)      0.0000  0.0004 -0.0018  0.0101  0.0000  0.0000 -0.0045 -0.0001
   7.  C 2 (s)      0.0000  0.0959 -0.0001 -0.2601  0.0000  0.0000 -0.3695  0.0000
   8.  C 2 (px)     0.0000  0.0000  0.0000  0.0000 -0.1226  0.0000  0.0000  0.0000
   9.  C 2 (py)     1.0501  0.0000  0.0000  0.0000  0.0000 -0.1226  0.0000  0.0000
  10.  C 2 (pz)     0.0000  1.5376  0.0000  0.2940  0.0000  0.0000  0.3736  0.0000
  11.  C 3 (s)      0.0000  0.0045  0.9894 -0.3216  0.0000  0.0000 -0.0004 -0.0042
  12.  C 3 (s)      0.0000  0.3695  0.0398  1.4728  0.0000  0.0000 -0.0959 -0.0002
  13.  C 3 (px)     0.0000  0.0000  0.0000  0.0000  1.0501  0.0000  0.0000  0.0000
  14.  C 3 (py)    -0.1226  0.0000  0.0000  0.0000  0.0000  1.0501  0.0000  0.0000
  15.  C 3 (pz)     0.0000  0.3736  0.0000 -0.0764  0.0000  0.0000  1.5376  0.0000
  16.  N 4 (s)      0.0000  0.0003 -0.0041  0.0036  0.0000  0.0000  0.0151  0.9732
  17.  N 4 (s)      0.0000  0.0715 -0.0004 -0.4287  0.0000  0.0000  0.5787  0.0957
  18.  N 4 (px)     0.0000  0.0000  0.0000  0.0000 -0.1444  0.0000  0.0000  0.0000
  19.  N 4 (py)     0.0188  0.0000  0.0000  0.0000  0.0000 -0.1444  0.0000  0.0000
  20.  N 4 (pz)     0.0000  0.0489  0.0000 -0.3161  0.0000  0.0000  0.3759  0.0000

           AO         17      18      19      20
      ------------ ------- ------- ------- -------
   1.  N 1 (s)      0.0004  0.0000  0.0000  0.0004
   2.  N 1 (s)     -0.0121  0.0000  0.0000 -0.0126
   3.  N 1 (px)     0.0000 -0.0032  0.0000  0.0000
   4.  N 1 (py)     0.0000  0.0000 -0.0032  0.0000
   5.  N 1 (pz)     0.0087  0.0000  0.0000  0.0088
   6.  C 2 (s)      0.0000  0.0000  0.0000  0.0007
   7.  C 2 (s)     -0.0455  0.0000  0.0000 -0.0405
   8.  C 2 (px)     0.0000  0.0190  0.0000  0.0000
   9.  C 2 (py)     0.0000  0.0000  0.0190  0.0000
  10.  C 2 (pz)     0.0500  0.0000  0.0000  0.0494
  11.  C 3 (s)      0.0006  0.0000  0.0000 -0.0255
  12.  C 3 (s)     -0.3767  0.0000  0.0000 -0.4024
  13.  C 3 (px)     0.0000 -0.1460  0.0000  0.0000
  14.  C 3 (py)     0.0000  0.0000 -0.1460  0.0000
  15.  C 3 (pz)     0.4035  0.0000  0.0000  0.3800
  16.  N 4 (s)     -0.3503  0.0000  0.0000 -0.0201
  17.  N 4 (s)      1.3336  0.0000  0.0000  0.3187
  18.  N 4 (px)     0.0000  1.0297  0.0000  0.0000
  19.  N 4 (py)     0.0000  0.0000  1.0297  0.0000
  20.  N 4 (pz)     0.2217  0.0000  0.0000  1.2331


 NAO density matrix:

           NAO         1       2       3       4       5       6       7       8
      ------------ ------- ------- ------- ------- ------- ------- ------- -------
   1.  N 1( 1s )    2.0000  0.0000  0.0000  0.0000 -0.0003  0.0000 -0.0016  0.0000
   2.  N 1( 2s )    0.0000  1.7294  0.0000  0.0000  0.4225  0.0005  0.3378  0.0000
   3.  N 1( 2px)    0.0000  0.0000  1.0064  0.0000  0.0000  0.0000  0.0000  0.9643
   4.  N 1( 2py)    0.0000  0.0000  0.0000  1.0064  0.0000  0.0000  0.0000  0.0000
   5.  N 1( 2pz)   -0.0003  0.4225  0.0000  0.0000  1.3210 -0.0006 -0.6297  0.0000
   6.  C 2( 1s )    0.0000  0.0005  0.0000  0.0000 -0.0006  2.0000 -0.0001  0.0000
   7.  C 2( 2s )   -0.0016  0.3378  0.0000  0.0000 -0.6297 -0.0001  1.0298  0.0000
   8.  C 2( 2px)    0.0000  0.0000  0.9643  0.0000  0.0000  0.0000  0.0000  0.9936
   9.  C 2( 2py)    0.0000  0.0000  0.0000  0.9643  0.0000  0.0000  0.0000  0.0000
  10.  C 2( 2pz)    0.0014  0.4174  0.0000  0.0000 -0.5600 -0.0011 -0.0318  0.0000
  11.  C 3( 1s )    0.0000  0.0003  0.0000  0.0000 -0.0006  0.0000 -0.0010  0.0000
  12.  C 3( 2s )    0.0017  0.0288  0.0000  0.0000  0.0636 -0.0010  0.4719  0.0000
  13.  C 3( 2px)    0.0000  0.0000  0.0018  0.0000  0.0000  0.0000  0.0000  0.2646
  14.  C 3( 2py)    0.0000  0.0000  0.0000  0.0018  0.0000  0.0000  0.0000  0.0000
  15.  C 3( 2pz)    0.0012  0.0189  0.0000  0.0000  0.0555  0.0000  0.5099  0.0000
  16.  N 4( 1s )    0.0000 -0.0001  0.0000  0.0000  0.0005  0.0000  0.0017  0.0000
  17.  N 4( 2s )   -0.0001  0.0010  0.0000  0.0000 -0.0061  0.0003  0.0288  0.0000
  18.  N 4( 2px)    0.0000  0.0000 -0.2646  0.0000  0.0000  0.0000  0.0000  0.0018
  19.  N 4( 2py)    0.0000  0.0000  0.0000 -0.2646  0.0000  0.0000  0.0000  0.0000
  20.  N 4( 2pz)   -0.0005  0.0061  0.0000  0.0000 -0.0359  0.0006 -0.0636  0.0000

           NAO         9      10      11      12      13      14      15      16
      ------------ ------- ------- ------- ------- ------- ------- ------- -------
   1.  N 1( 1s )    0.0000  0.0014  0.0000  0.0017  0.0000  0.0000  0.0012  0.0000
   2.  N 1( 2s )    0.0000  0.4174  0.0003  0.0288  0.0000  0.0000  0.0189 -0.0001
   3.  N 1( 2px)    0.0000  0.0000  0.0000  0.0000  0.0018  0.0000  0.0000  0.0000
   4.  N 1( 2py)    0.9643  0.0000  0.0000  0.0000  0.0000  0.0018  0.0000  0.0000
   5.  N 1( 2pz)    0.0000 -0.5600 -0.0006  0.0636  0.0000  0.0000  0.0555  0.0005
   6.  C 2( 1s )    0.0000 -0.0011  0.0000 -0.0010  0.0000  0.0000  0.0000  0.0000
   7.  C 2( 2s )    0.0000 -0.0318 -0.0010  0.4719  0.0000  0.0000  0.5099  0.0017
   8.  C 2( 2px)    0.0000  0.0000  0.0000  0.0000  0.2646  0.0000  0.0000  0.0000
   9.  C 2( 2py)    0.9936  0.0000  0.0000  0.0000  0.0000  0.2646  0.0000  0.0000
  10.  C 2( 2pz)    0.0000  0.9198  0.0000 -0.5099  0.0000  0.0000 -0.4913 -0.0012
  11.  C 3( 1s )    0.0000  0.0000  2.0000 -0.0001  0.0000  0.0000  0.0011  0.0000
  12.  C 3( 2s )    0.0000 -0.5099 -0.0001  1.0298  0.0000  0.0000  0.0318 -0.0016
  13.  C 3( 2px)    0.0000  0.0000  0.0000  0.0000  0.9936  0.0000  0.0000  0.0000
  14.  C 3( 2py)    0.2646  0.0000  0.0000  0.0000  0.0000  0.9936  0.0000  0.0000
  15.  C 3( 2pz)    0.0000 -0.4913  0.0011  0.0318  0.0000  0.0000  0.9198 -0.0014
  16.  N 4( 1s )    0.0000 -0.0012  0.0000 -0.0016  0.0000  0.0000 -0.0014  2.0000
  17.  N 4( 2s )    0.0000 -0.0189  0.0005  0.3378  0.0000  0.0000 -0.4174  0.0000
  18.  N 4( 2px)    0.0000  0.0000  0.0000  0.0000  0.9643  0.0000  0.0000  0.0000
  19.  N 4( 2py)    0.0018  0.0000  0.0000  0.0000  0.0000  0.9643  0.0000  0.0000
  20.  N 4( 2pz)    0.0000  0.0555  0.0006  0.6297  0.0000  0.0000 -0.5600  0.0003

           NAO        17      18      19      20
      ------------ ------- ------- ------- -------
   1.  N 1( 1s )   -0.0001  0.0000  0.0000 -0.0005
   2.  N 1( 2s )    0.0010  0.0000  0.0000  0.0061
   3.  N 1( 2px)    0.0000 -0.2646  0.0000  0.0000
   4.  N 1( 2py)    0.0000  0.0000 -0.2646  0.0000
   5.  N 1( 2pz)   -0.0061  0.0000  0.0000 -0.0359
   6.  C 2( 1s )    0.0003  0.0000  0.0000  0.0006
   7.  C 2( 2s )    0.0288  0.0000  0.0000 -0.0636
   8.  C 2( 2px)    0.0000  0.0018  0.0000  0.0000
   9.  C 2( 2py)    0.0000  0.0000  0.0018  0.0000
  10.  C 2( 2pz)   -0.0189  0.0000  0.0000  0.0555
  11.  C 3( 1s )    0.0005  0.0000  0.0000  0.0006
  12.  C 3( 2s )    0.3378  0.0000  0.0000  0.6297
  13.  C 3( 2px)    0.0000  0.9643  0.0000  0.0000
  14.  C 3( 2py)    0.0000  0.0000  0.9643  0.0000
  15.  C 3( 2pz)   -0.4174  0.0000  0.0000 -0.5600
  16.  N 4( 1s )    0.0000  0.0000  0.0000  0.0003
  17.  N 4( 2s )    1.7294  0.0000  0.0000 -0.4225
  18.  N 4( 2px)    0.0000  1.0064  0.0000  0.0000
  19.  N 4( 2py)    0.0000  0.0000  1.0064  0.0000
  20.  N 4( 2pz)   -0.4225  0.0000  0.0000  1.3210


 NATURAL BOND ORBITAL ANALYSIS:

 Initiate 2-center NBO search using THRESH = 1.900 and PRJTHR = 0.300

 Search of NAO DM block for core orbitals on atom:   1
      Eigenvector ( 1) has occupancy 2.00000
            1.0000 0.0000 0.0000 0.0000 0.0000
        1 eigenvector(s) stashed in permanent list

 Search of NAO DM block for core orbitals on atom:   2
      Eigenvector ( 1) has occupancy 2.00000
            1.0000 0.0000 0.0000 0.0000 0.0000
        1 eigenvector(s) stashed in permanent list

 Search of NAO DM block for core orbitals on atom:   3
      Eigenvector ( 1) has occupancy 2.00000
            1.0000 0.0000 0.0000 0.0000 0.0000
        1 eigenvector(s) stashed in permanent list

 Search of NAO DM block for core orbitals on atom:   4
      Eigenvector ( 1) has occupancy 2.00000
            1.0000 0.0000 0.0000 0.0000 0.0000
        1 eigenvector(s) stashed in permanent list

 Core orbitals projected from the NAO density matrix
      18.000 electrons remain (>1.900); search continues

 Search of NAO DM block for the following atom(s):   1
      Select eigenvectors with eigenvalue > 1.900
       1.994 1.056 1.006 1.006 0.000
      Eigenvector ( 1) has occupancy 1.99441
            0.0000 0.8471 0.0000 0.0000 0.5314
      1 hybrid on atom 1 stashed in prospective list

 Search of NAO DM block for the following atom(s):   2
      Select eigenvectors with eigenvalue > 1.900
       1.038 0.994 0.994 0.911 0.000

 Search of NAO DM block for the following atom(s):   3
      Select eigenvectors with eigenvalue > 1.900
       1.038 0.994 0.994 0.911 0.000

 Search of NAO DM block for the following atom(s):   4
      Select eigenvectors with eigenvalue > 1.900
       1.994 1.056 1.006 1.006 0.000
      Eigenvector ( 1) has occupancy 1.99441
            0.0000 0.8471 0.0000 0.0000-0.5314
      1 hybrid on atom 4 stashed in prospective list

 Stash prospective hybrids having projection expectation value > 0.300
       1.000 1.000
      0 hybrids eliminated in 1 pass
      2 hybrids moved from prospective to permanent list

 NHOs of 1-center eigenvectors projected from the NAO density matrix
      14.011 electrons remain (>1.900); search continues

 Search of NAO DM block for the following atom(s):   1   2
      Select eigenvectors with eigenvalue > 1.900
       2.000 1.964 1.964 1.005 0.036 0.036 0.001 0.000 0.000 0.000
      Eigenvector ( 1) has occupancy 1.99959
            0.0000-0.3856 0.0000 0.0000 0.6146 0.0000-0.5185 0.0000
            0.0000-0.4525
      Eigenvector ( 2) has occupancy 1.96435
            0.0000 0.0000 0.7054 0.0758 0.0000 0.0000 0.0000 0.7007
            0.0753 0.0000
      Eigenvector ( 3) has occupancy 1.96435
            0.0000 0.0000-0.0758 0.7054 0.0000 0.0000 0.0000-0.0753
            0.7007 0.0000
      3 hybrids on atom 1 stashed in prospective list
      3 hybrids on atom 2 stashed in prospective list

 Search of NAO DM block for the following atom(s):   2   3
      Select eigenvectors with eigenvalue > 1.900
       2.000 1.258 1.258 0.976 0.913 0.729 0.729 0.011 0.000 0.000
      Eigenvector ( 1) has occupancy 2.00000
            0.0000 0.5204 0.0000 0.0000-0.4787 0.0000 0.5204 0.0000
            0.0000 0.4787
      1 hybrid on atom 2 stashed in prospective list
      1 hybrid on atom 3 stashed in prospective list

 Search of NAO DM block for the following atom(s):   3   4
      Select eigenvectors with eigenvalue > 1.900
       2.000 1.964 1.964 1.005 0.036 0.036 0.001 0.000 0.000 0.000
      Eigenvector ( 1) has occupancy 1.99959
            0.0000 0.5185 0.0000 0.0000-0.4525 0.0000 0.3856 0.0000
            0.0000 0.6146
      Eigenvector ( 2) has occupancy 1.96435
            0.0000 0.0000 0.7007 0.0755 0.0000 0.0000 0.0000 0.7054
            0.0760 0.0000
      Eigenvector ( 3) has occupancy 1.96435
            0.0000 0.0000-0.0755 0.7007 0.0000 0.0000 0.0000-0.0760
            0.7054 0.0000
      3 hybrids on atom 3 stashed in prospective list
      3 hybrids on atom 4 stashed in prospective list

 Stash prospective hybrids having projection expectation value > 0.300
       1.000 1.000 1.000 1.000 1.000 1.000 1.000 1.000 0.988 0.988 0.988 0.988
       0.988 0.988
      0 hybrids eliminated in 1 pass
      14 hybrids moved from prospective to permanent list

 NHOs of 2-center eigenvectors projected from the NAO density matrix
       0.000 electrons remain in the fully projected matrix

 Search of NHO DM block for the following atom(s):   1
      Select eigenvectors with eigenvalue > 1.900
       2.000 1.994 0.000 0.000 0.000
      Eigenvector ( 1) has occupancy 2.00000
            1.0000 0.0000 0.0000 0.0000 0.0000
           NBO accepted:    1. Label:CR ( 1)   1
      Eigenvector ( 2) has occupancy 1.99441
            0.0000 1.0000 0.0000 0.0000 0.0000
           NBO accepted:    2. Label:LP ( 1)   1
        2 eigenvector(s) stashed in permanent list

 Search of NHO DM block for the following atom(s):   2
      Select eigenvectors with eigenvalue > 1.900
       2.000 0.000 0.000 0.000 0.000
      Eigenvector ( 1) has occupancy 2.00000
            1.0000 0.0000 0.0000 0.0000 0.0000
           NBO accepted:    3. Label:CR ( 1)   2
        1 eigenvector(s) stashed in permanent list

 Search of NHO DM block for the following atom(s):   3
      Select eigenvectors with eigenvalue > 1.900
       2.000 0.000 0.000 0.000 0.000
      Eigenvector ( 1) has occupancy 2.00000
            1.0000 0.0000 0.0000 0.0000 0.0000
           NBO accepted:    4. Label:CR ( 1)   3
        1 eigenvector(s) stashed in permanent list

 Search of NHO DM block for the following atom(s):   4
      Select eigenvectors with eigenvalue > 1.900
       2.000 1.994 0.000 0.000 0.000
      Eigenvector ( 1) has occupancy 2.00000
            1.0000 0.0000 0.0000 0.0000 0.0000
           NBO accepted:    5. Label:CR ( 1)   4
      Eigenvector ( 2) has occupancy 1.99441
            0.0000 1.0000 0.0000 0.0000 0.0000
           NBO accepted:    6. Label:LP ( 1)   4
        2 eigenvector(s) stashed in permanent list

  1-center NBOs projected from the NHO density matrix
      14.011 electrons remain (>1.900); search continues

 Search of NHO DM block for the following atom(s):   1   2
      Select eigenvectors with eigenvalue > 1.900
       1.998 1.964 1.964 0.036 0.036 0.002 0.000 0.000 0.000 0.000
      Eigenvector ( 1) has occupancy 1.99809
            0.0000 0.0000 0.0000 0.0000 0.7266 0.0000 0.0000 0.0000
            0.6870 0.0000
      Occupancy is 1.998 after deleting minor hybrid components
            0.0000 0.0000 0.0000 0.0000 0.7266 0.0000 0.0000 0.0000
            0.6870 0.0000
           NBO accepted:    7. Label:BD ( 1)   1   2
      Occupancy is 0.002 for antibonding component
            0.0000 0.0000 0.0000 0.0000-0.6870 0.0000 0.0000 0.0000
            0.7266 0.0000
           NBO accepted:    8. Label:BD*( 1)   1   2
      Eigenvector ( 2) has occupancy 1.96435
            0.0000 0.0000 0.6668 0.2424 0.0000 0.0000 0.6623 0.2408
            0.0000 0.0000
      Occupancy is 1.964 after deleting minor hybrid components
            0.0000 0.0000 0.7095 0.0000 0.0000 0.0000 0.7047 0.0000
            0.0000 0.0000
           NBO accepted:    9. Label:BD ( 2)   1   2
      Occupancy is 0.036 for antibonding component
            0.0000 0.0000-0.7047 0.0000 0.0000 0.0000 0.7095 0.0000
            0.0000 0.0000
           NBO accepted:   10. Label:BD*( 2)   1   2
      Eigenvector ( 3) has occupancy 1.96435
            0.0000 0.0000-0.2424 0.6668 0.0000 0.0000-0.2408 0.6623
            0.0000 0.0000
      Occupancy is 1.964 after deleting minor hybrid components
            0.0000 0.0000 0.0000 0.7095 0.0000 0.0000 0.0000 0.7047
            0.0000 0.0000
           NBO accepted:   11. Label:BD ( 3)   1   2
      Occupancy is 0.036 for antibonding component
            0.0000 0.0000 0.0000-0.7047 0.0000 0.0000 0.0000 0.7095
            0.0000 0.0000
           NBO accepted:   12. Label:BD*( 3)   1   2
        6 eigenvector(s) stashed in permanent list

 Search of NHO DM block for the following atom(s):   2   3
      Select eigenvectors with eigenvalue > 1.900
       1.997 0.014 0.000 0.000 0.000 0.000 0.000 0.000 0.000 0.000
      Eigenvector ( 1) has occupancy 1.99693
            0.0000 0.0000 0.0000 0.0000 0.7071 0.0000 0.0000 0.0000
            0.7071 0.0000
      Occupancy is 1.997 after deleting minor hybrid components
            0.0000 0.0000 0.0000 0.0000 0.7071 0.0000 0.0000 0.0000
            0.7071 0.0000
           NBO accepted:   13. Label:BD ( 1)   2   3
      Occupancy is 0.014 for antibonding component
            0.0000 0.0000 0.0000 0.0000 0.7071 0.0000 0.0000 0.0000
           -0.7071 0.0000
           NBO accepted:   14. Label:BD*( 1)   2   3
        2 eigenvector(s) stashed in permanent list

 Search of NHO DM block for the following atom(s):   3   4
      Select eigenvectors with eigenvalue > 1.900
       1.998 1.964 1.964 0.036 0.036 0.002 0.000 0.000 0.000 0.000
      Eigenvector ( 1) has occupancy 1.99809
            0.0000 0.0000 0.0000 0.0000 0.6870 0.0000 0.0000 0.0000
            0.0000 0.7266
      Occupancy is 1.998 after deleting minor hybrid components
            0.0000 0.0000 0.0000 0.0000 0.6870 0.0000 0.0000 0.0000
            0.0000 0.7266
           NBO accepted:   15. Label:BD ( 1)   3   4
      Occupancy is 0.002 for antibonding component
            0.0000 0.0000 0.0000 0.0000 0.7266 0.0000 0.0000 0.0000
            0.0000-0.6870
           NBO accepted:   16. Label:BD*( 1)   3   4
      Eigenvector ( 2) has occupancy 1.96435
            0.0000 0.7047 0.0000 0.0000 0.0000 0.0000 0.0000 0.7095
            0.0000 0.0000
      Occupancy is 1.964 after deleting minor hybrid components
            0.0000 0.7047 0.0000 0.0000 0.0000 0.0000 0.0000 0.7095
            0.0000 0.0000
           NBO accepted:   17. Label:BD ( 2)   3   4
      Occupancy is 0.036 for antibonding component
            0.0000 0.7095 0.0000 0.0000 0.0000 0.0000 0.0000-0.7047
            0.0000 0.0000
           NBO accepted:   18. Label:BD*( 2)   3   4
      Eigenvector ( 3) has occupancy 1.96435
            0.0000 0.0000 0.7047 0.0000 0.0000 0.0000 0.0000 0.0000
            0.7095 0.0000
      Occupancy is 1.964 after deleting minor hybrid components
            0.0000 0.0000 0.7047 0.0000 0.0000 0.0000 0.0000 0.0000
            0.7095 0.0000
           NBO accepted:   19. Label:BD ( 3)   3   4
      Occupancy is 0.036 for antibonding component
            0.0000 0.0000 0.7095 0.0000 0.0000 0.0000 0.0000 0.0000
           -0.7047 0.0000
           NBO accepted:   20. Label:BD*( 3)   3   4
        6 eigenvector(s) stashed in permanent list

  2-center NBOs projected from the NHO density matrix
       0.000 electrons remain in the fully projected matrix

                            Occupancies       Lewis Structure    Low   High
         Max    Occ     -------------------  -----------------   occ   occ
  Cycle  Ctr   Thresh    Lewis   non-Lewis     CR  BD  nC  LP    (L)   (NL)
 ============================================================================
    1     2     1.90    25.83933   0.16067      4   7   0   2     0      0
 ----------------------------------------------------------------------------

 Structure accepted: No low occupancy Lewis orbitals

 -------------------------------------------------------
   Core                      7.99999 (100.000% of   8)
   Valence Lewis            17.83935 ( 99.107% of  18)
  ==================      =============================
   Total Lewis              25.83933 ( 99.382% of  26)
  -----------------------------------------------------
   Valence non-Lewis         0.16067 (  0.618% of  26)
   Rydberg non-Lewis         0.00000 (  0.000% of  26)
  ==================      =============================
   Total non-Lewis           0.16067 (  0.618% of  26)
 -------------------------------------------------------


     (Occupancy)   Bond orbital / Coefficients / Hybrids
 ------------------ Lewis ------------------------------------------------------
   1. (2.00000) CR ( 1) N  1            s(100.00%)
                                         1.0000  0.0000  0.0000  0.0000  0.0000
   2. (2.00000) CR ( 1) C  2            s(100.00%)
                                         1.0000  0.0000  0.0000  0.0000  0.0000
   3. (2.00000) CR ( 1) C  3            s(100.00%)
                                         1.0000  0.0000  0.0000  0.0000  0.0000
   4. (2.00000) CR ( 1) N  4            s(100.00%)
                                         1.0000  0.0000  0.0000  0.0000  0.0000
   5. (1.99441) LP ( 1) N  1            s( 71.76%)p 0.39( 28.24%)
                                         0.0000  0.8471  0.0000  0.0000  0.5314
   6. (1.99441) LP ( 1) N  4            s( 71.76%)p 0.39( 28.24%)
                                         0.0000  0.8471  0.0000  0.0000 -0.5314
   7. (1.99809) BD ( 1) N  1- C  2
               ( 52.80%)   0.7266* N  1 s( 28.24%)p 2.54( 71.76%)
                                         0.0000  0.5314  0.0000  0.0000 -0.8471
               ( 47.20%)   0.6870* C  2 s( 51.14%)p 0.96( 48.86%)
                                         0.0000  0.7151  0.0000  0.0000  0.6990
   8. (1.96435) BD ( 2) N  1- C  2
               ( 50.33%)   0.7095* N  1 s(  0.00%)p 1.00(100.00%)
                                         0.0000  0.0000  0.9943  0.1068  0.0000
               ( 49.67%)   0.7047* C  2 s(  0.00%)p 1.00(100.00%)
                                         0.0000  0.0000  0.9943  0.1068  0.0000
   9. (1.96435) BD ( 3) N  1- C  2
               ( 50.33%)   0.7095* N  1 s(  0.00%)p 1.00(100.00%)
                                         0.0000  0.0000 -0.1068  0.9943  0.0000
               ( 49.67%)   0.7047* C  2 s(  0.00%)p 1.00(100.00%)
                                         0.0000  0.0000 -0.1068  0.9943  0.0000
  10. (1.99693) BD ( 1) C  2- C  3
               ( 50.00%)   0.7071* C  2 s( 48.86%)p 1.05( 51.14%)
                                         0.0000  0.6990  0.0000  0.0000 -0.7151
               ( 50.00%)   0.7071* C  3 s( 48.86%)p 1.05( 51.14%)
                                         0.0000  0.6990  0.0000  0.0000  0.7151
  11. (1.99809) BD ( 1) C  3- N  4
               ( 47.20%)   0.6870* C  3 s( 51.14%)p 0.96( 48.86%)
                                         0.0000  0.7151  0.0000  0.0000 -0.6990
               ( 52.80%)   0.7266* N  4 s( 28.24%)p 2.54( 71.76%)
                                         0.0000  0.5314  0.0000  0.0000  0.8471
  12. (1.96435) BD ( 2) C  3- N  4
               ( 49.67%)   0.7047* C  3 s(  0.00%)p 1.00(100.00%)
                                         0.0000  0.0000  0.9942  0.1071  0.0000
               ( 50.33%)   0.7095* N  4 s(  0.00%)p 1.00(100.00%)
                                         0.0000  0.0000  0.9942  0.1071  0.0000
  13. (1.96435) BD ( 3) C  3- N  4
               ( 49.67%)   0.7047* C  3 s(  0.00%)p 1.00(100.00%)
                                         0.0000  0.0000 -0.1071  0.9942  0.0000
               ( 50.33%)   0.7095* N  4 s(  0.00%)p 1.00(100.00%)
                                         0.0000  0.0000 -0.1071  0.9942  0.0000
 ---------------- non-Lewis ----------------------------------------------------
  14. (0.00212) BD*( 1) N  1- C  2
               ( 47.20%)   0.6870* N  1 s( 28.24%)p 2.54( 71.76%)
                                         0.0000 -0.5314  0.0000  0.0000  0.8471
               ( 52.80%)  -0.7266* C  2 s( 51.14%)p 0.96( 48.86%)
                                         0.0000 -0.7151  0.0000  0.0000 -0.6990
  15. (0.03565) BD*( 2) N  1- C  2
               ( 49.67%)   0.7047* N  1 s(  0.00%)p 1.00(100.00%)
                                         0.0000  0.0000 -0.9943 -0.1068  0.0000
               ( 50.33%)  -0.7095* C  2 s(  0.00%)p 1.00(100.00%)
                                         0.0000  0.0000 -0.9943 -0.1068  0.0000
  16. (0.03565) BD*( 3) N  1- C  2
               ( 49.67%)   0.7047* N  1 s(  0.00%)p 1.00(100.00%)
                                         0.0000  0.0000  0.1068 -0.9943  0.0000
               ( 50.33%)  -0.7095* C  2 s(  0.00%)p 1.00(100.00%)
                                         0.0000  0.0000  0.1068 -0.9943  0.0000
  17. (0.01383) BD*( 1) C  2- C  3
               ( 50.00%)   0.7071* C  2 s( 48.86%)p 1.05( 51.14%)
                                         0.0000  0.6990  0.0000  0.0000 -0.7151
               ( 50.00%)  -0.7071* C  3 s( 48.86%)p 1.05( 51.14%)
                                         0.0000  0.6990  0.0000  0.0000  0.7151
  18. (0.00212) BD*( 1) C  3- N  4
               ( 52.80%)   0.7266* C  3 s( 51.14%)p 0.96( 48.86%)
                                         0.0000  0.7151  0.0000  0.0000 -0.6990
               ( 47.20%)  -0.6870* N  4 s( 28.24%)p 2.54( 71.76%)
                                         0.0000  0.5314  0.0000  0.0000  0.8471
  19. (0.03565) BD*( 2) C  3- N  4
               ( 50.33%)   0.7095* C  3 s(  0.00%)p 1.00(100.00%)
                                         0.0000  0.0000  0.9942  0.1071  0.0000
               ( 49.67%)  -0.7047* N  4 s(  0.00%)p 1.00(100.00%)
                                         0.0000  0.0000  0.9942  0.1071  0.0000
  20. (0.03565) BD*( 3) C  3- N  4
               ( 50.33%)   0.7095* C  3 s(  0.00%)p 1.00(100.00%)
                                         0.0000  0.0000 -0.1071  0.9942  0.0000
               ( 49.67%)  -0.7047* N  4 s(  0.00%)p 1.00(100.00%)
                                         0.0000  0.0000 -0.1071  0.9942  0.0000


 NHO DIRECTIONALITY AND BOND BENDING (deviation from line of nuclear centers at
                                      the position of maximum hybrid amplitude)

         [Thresholds for printing:  angular deviation  >  1.0 degree]
                                    p- or d-character  > 25.0%
                                    orbital occupancy  >  0.10e

                        Line of Centers        Hybrid 1             Hybrid 2
                        ---------------  -------------------  ------------------
           NBO            Theta   Phi    Theta   Phi    Dev   Theta   Phi    Dev
 ===============================================================================
   5. LP ( 1) N  1          --     --      0.0    0.0   --      --     --    --
   6. LP ( 1) N  4          --     --    180.0    0.0   --      --     --    --
   8. BD ( 2) N  1- C  2  180.0    0.0    89.7    6.1  90.3    90.2    6.1  90.2
   9. BD ( 3) N  1- C  2  180.0    0.0    89.7   96.1  90.3    90.2   96.1  90.2
  12. BD ( 2) C  3- N  4  180.0    0.0    89.8  186.1  90.2    90.3  186.1  90.3
  13. BD ( 3) C  3- N  4  180.0    0.0    89.8   96.1  90.2    90.3   96.1  90.3


 SECOND ORDER PERTURBATION THEORY ANALYSIS OF FOCK MATRIX IN NBO BASIS

     Threshold for printing:   0.50 kcal/mol
                                                          E(2) E(NL)-E(L) F(L,NL)
      Donor (L) NBO              Acceptor (NL) NBO      kcal/mol   a.u.    a.u.
 ===============================================================================

 within unit  1
    5. LP ( 1) N  1            17. BD*( 1) C  2- C  3      3.94    1.55   0.070
    6. LP ( 1) N  4            17. BD*( 1) C  2- C  3      3.94    1.55   0.070
    7. BD ( 1) N  1- C  2      17. BD*( 1) C  2- C  3      0.65    1.87   0.031
    8. BD ( 2) N  1- C  2      19. BD*( 2) C  3- N  4     17.94    0.76   0.104
    9. BD ( 3) N  1- C  2      20. BD*( 3) C  3- N  4     17.94    0.76   0.104
   10. BD ( 1) C  2- C  3      14. BD*( 1) N  1- C  2      1.73    1.97   0.052
   10. BD ( 1) C  2- C  3      18. BD*( 1) C  3- N  4      1.73    1.97   0.052
   11. BD ( 1) C  3- N  4      17. BD*( 1) C  2- C  3      0.65    1.87   0.031
   12. BD ( 2) C  3- N  4      15. BD*( 2) N  1- C  2     17.94    0.76   0.104
   13. BD ( 3) C  3- N  4      16. BD*( 3) N  1- C  2     17.94    0.76   0.104


 NATURAL BOND ORBITALS (Summary):

                                                     Principal Delocalizations
           NBO                 Occupancy    Energy   (geminal,vicinal,remote)
 ===============================================================================
 Molecular unit  1  (C2N2)
 ------ Lewis --------------------------------------
    1. CR ( 1) N  1             2.00000   -15.36577
    2. CR ( 1) C  2             2.00000   -11.14484
    3. CR ( 1) C  3             2.00000   -11.14484
    4. CR ( 1) N  4             2.00000   -15.36577
    5. LP ( 1) N  1             1.99441    -0.74497  17(v)
    6. LP ( 1) N  4             1.99441    -0.74497  17(v)
    7. BD ( 1) N  1- C  2       1.99809    -1.06946  17(g)
    8. BD ( 2) N  1- C  2       1.96435    -0.46200  19(v)
    9. BD ( 3) N  1- C  2       1.96435    -0.46200  20(v)
   10. BD ( 1) C  2- C  3       1.99693    -0.91350  14(g),18(g)
   11. BD ( 1) C  3- N  4       1.99809    -1.06946  17(g)
   12. BD ( 2) C  3- N  4       1.96435    -0.46200  15(v)
   13. BD ( 3) C  3- N  4       1.96435    -0.46200  16(v)
 ------ non-Lewis ----------------------------------
   14. BD*( 1) N  1- C  2       0.00212     1.05465
   15. BD*( 2) N  1- C  2       0.03565     0.29719
   16. BD*( 3) N  1- C  2       0.03565     0.29719
   17. BD*( 1) C  2- C  3       0.01383     0.80035
   18. BD*( 1) C  3- N  4       0.00212     1.05465
   19. BD*( 2) C  3- N  4       0.03565     0.29719
   20. BD*( 3) C  3- N  4       0.03565     0.29719
          -------------------------------
                 Total Lewis   25.83933  ( 99.3821%)
           Valence non-Lewis    0.16067  (  0.6179%)
           Rydberg non-Lewis    0.00000  (  0.0000%)
          -------------------------------
               Total unit  1   26.00000  (100.0000%)
              Charge unit  1    0.00000

 $CHOOSE
   LONE 1 1 4 1 END
   BOND T 1 2 S 2 3 T 3 4 END
 $END

 NBO analysis completed in 0.22 CPU seconds (0 wall seconds)
 Maximum scratch memory used by NBO was 224470 words (1.71 MB)
 Maximum scratch memory used by G16NBO was 8818 words (0.07 MB)

 Opening RunExU unformatted file "/cluster/work/users/beto93/mol106/Gau-997546.EUF"
 Read unf file /cluster/work/users/beto93/mol106/Gau-997546.EUF:
 Label Gaussian matrix elements                                         IVers= 2 NLab= 2 Version=ES64L-G16RevC.01
 Title mol106-NBO                                                      
 NAtoms=     4 NBasis=    20 NBsUse=    20 ICharg=     0 Multip=     1 NE=    26 Len12L=8 Len4L=8 IOpCl= 0 ICGU=111
 GAUSSIAN SCALARS                    NI= 1 NR= 1 NTot=       1 LenBuf=    2 NRI=1 N=    1000
 NPA CHARGES                         NI= 0 NR= 1 NTot=       4 LenBuf= 4000 NRI=1 N=       4
 Recovered energy= -182.215036903     dipole=     -0.000000000000      0.000000000000      0.000000000000
 Unable to Open any file for archive entry.
 1\1\GINC-C5-21\SP\RHF\STO-3G\C2N2\BETO93\18-Nov-2024\0\\#RHF/STO-3G in
 t=nobasistransform Symmetry=None 5D 7F Pop=NBO7Read\\mol106-NBO\\0,1\N
 ,0,0.,0.,1.875875\C,0,0.,0.,0.690573\C,0,0.,0.,-0.690573\N,0,0.,0.,-1.
 875875\\Version=ES64L-G16RevC.01\HF=-182.2150369\RMSD=1.108e-09\Dipole
 =0.,0.,0.\Quadrupole=2.2863863,2.2863863,-4.5727726,0.,0.,0.\PG=Unknow
 n\\@
 The archive entry for this job was punched.


 QED = W**5 (WHICH WAS WHAT WE WANTED)
 Job cpu time:       0 days  0 hours  0 minutes 10.2 seconds.
 Elapsed time:       0 days  0 hours  0 minutes  3.3 seconds.
 File lengths (MBytes):  RWF=     10 Int=      0 D2E=      0 Chk=      1 Scr=      1
 Normal termination of Gaussian 16 at Mon Nov 18 15:41:29 2024.
