 Entering Gaussian System, Link 0=g16
 Initial command:
 /cluster/software/Gaussian/g16_C.01/l1.exe "/cluster/work/users/beto93/mol77/Gau-1163365.inp" -scrdir="/cluster/work/users/beto93/mol77/"
 Entering Link 1 = /cluster/software/Gaussian/g16_C.01/l1.exe PID=   1163367.
  
 Copyright (c) 1988-2019, Gaussian, Inc.  All Rights Reserved.
  
 This is part of the Gaussian(R) 16 program.  It is based on
 the Gaussian(R) 09 system (copyright 2009, Gaussian, Inc.),
 the Gaussian(R) 03 system (copyright 2003, Gaussian, Inc.),
 the Gaussian(R) 98 system (copyright 1998, Gaussian, Inc.),
 the Gaussian(R) 94 system (copyright 1995, Gaussian, Inc.),
 the Gaussian 92(TM) system (copyright 1992, Gaussian, Inc.),
 the Gaussian 90(TM) system (copyright 1990, Gaussian, Inc.),
 the Gaussian 88(TM) system (copyright 1988, Gaussian, Inc.),
 the Gaussian 86(TM) system (copyright 1986, Carnegie Mellon
 University), and the Gaussian 82(TM) system (copyright 1983,
 Carnegie Mellon University). Gaussian is a federally registered
 trademark of Gaussian, Inc.
  
 This software contains proprietary and confidential information,
 including trade secrets, belonging to Gaussian, Inc.
  
 This software is provided under written license and may be
 used, copied, transmitted, or stored only in accord with that
 written license.
  
 The following legend is applicable only to US Government
 contracts under FAR:
  
                    RESTRICTED RIGHTS LEGEND
  
 Use, reproduction and disclosure by the US Government is
 subject to restrictions as set forth in subparagraphs (a)
 and (c) of the Commercial Computer Software - Restricted
 Rights clause in FAR 52.227-19.
  
 Gaussian, Inc.
 340 Quinnipiac St., Bldg. 40, Wallingford CT 06492
  
  
 ---------------------------------------------------------------
 Warning -- This program may not be used in any manner that
 competes with the business of Gaussian, Inc. or will provide
 assistance to any competitor of Gaussian, Inc.  The licensee
 of this program is prohibited from giving any competitor of
 Gaussian, Inc. access to this program.  By using this program,
 the user acknowledges that Gaussian, Inc. is engaged in the
 business of creating and licensing software in the field of
 computational chemistry and represents and warrants to the
 licensee that it is not a competitor of Gaussian, Inc. and that
 it will not use this program in any manner prohibited above.
 ---------------------------------------------------------------
  

 Cite this work as:
 Gaussian 16, Revision C.01,
 M. J. Frisch, G. W. Trucks, H. B. Schlegel, G. E. Scuseria, 
 M. A. Robb, J. R. Cheeseman, G. Scalmani, V. Barone, 
 G. A. Petersson, H. Nakatsuji, X. Li, M. Caricato, A. V. Marenich, 
 J. Bloino, B. G. Janesko, R. Gomperts, B. Mennucci, H. P. Hratchian, 
 J. V. Ortiz, A. F. Izmaylov, J. L. Sonnenberg, D. Williams-Young, 
 F. Ding, F. Lipparini, F. Egidi, J. Goings, B. Peng, A. Petrone, 
 T. Henderson, D. Ranasinghe, V. G. Zakrzewski, J. Gao, N. Rega, 
 G. Zheng, W. Liang, M. Hada, M. Ehara, K. Toyota, R. Fukuda, 
 J. Hasegawa, M. Ishida, T. Nakajima, Y. Honda, O. Kitao, H. Nakai, 
 T. Vreven, K. Throssell, J. A. Montgomery, Jr., J. E. Peralta, 
 F. Ogliaro, M. J. Bearpark, J. J. Heyd, E. N. Brothers, K. N. Kudin, 
 V. N. Staroverov, T. A. Keith, R. Kobayashi, J. Normand, 
 K. Raghavachari, A. P. Rendell, J. C. Burant, S. S. Iyengar, 
 J. Tomasi, M. Cossi, J. M. Millam, M. Klene, C. Adamo, R. Cammi, 
 J. W. Ochterski, R. L. Martin, K. Morokuma, O. Farkas, 
 J. B. Foresman, and D. J. Fox, Gaussian, Inc., Wallingford CT, 2019.
 
 ******************************************
 Gaussian 16:  ES64L-G16RevC.01  3-Jul-2019
                18-Nov-2024 
 ******************************************
 %LindaWorkers=c5-3-ib
 %NProcShared=4
 Will use up to    4 processors via shared memory.
 %mem=25GB
 %chk=mol77.chk
 SetLPE:    new flags="-opt 'Tsnet.Node.lindarsharg: ssh'  -nodelist 'c5-3-ib.saga' -env GAUSS_MDEF=3355443200 -env GAUSS_EXEDIR="/cluster/software/Gaussian/g16_C.01/bsd:/cluster/software/Gaussian/g16_C.01""
 Will use up to    1 processors via Linda.
 -----------------------------------------------------------------
 #RHF/STO-3G int=nobasistransform Symmetry=None 5D 7F Pop=NBO7Read
 -----------------------------------------------------------------
 1/38=1,163=2,172=1/1;
 2/12=2,15=3,17=6,18=5,40=1/2;
 3/6=3,8=11,11=1,25=1,30=1,60=-1,116=1/1,2,3;
 4//1;
 5/5=2,38=5/2;
 6/7=2,8=2,9=2,10=2,28=1,40=2,113=1,114=1,124=2103/1,12;
 99/5=1,9=1/99;
 ---------
 mol77-NBO
 ---------
 Symbolic Z-matrix:
 Charge =  0 Multiplicity = 1
 C                     0.        0.        0. 
 C                     0.        0.        1.31119 
 C                     0.        0.       -1.31119 
 H                     0.        0.92678   1.87664 
 H                     0.       -0.92678   1.87664 
 H                     0.92678   0.       -1.87664 
 H                    -0.92678   0.       -1.87664 
 
                          Input orientation:                          
 ---------------------------------------------------------------------
 Center     Atomic      Atomic             Coordinates (Angstroms)
 Number     Number       Type             X           Y           Z
 ---------------------------------------------------------------------
      1          6           0        0.000000    0.000000    0.000000
      2          6           0        0.000000    0.000000    1.311190
      3          6           0        0.000000    0.000000   -1.311190
      4          1           0        0.000000    0.926778    1.876642
      5          1           0        0.000000   -0.926778    1.876642
      6          1           0        0.926778    0.000000   -1.876642
      7          1           0       -0.926778    0.000000   -1.876642
 ---------------------------------------------------------------------
                    Distance matrix (angstroms):
                    1          2          3          4          5
     1  C    0.000000
     2  C    1.311190   0.000000
     3  C    1.311190   2.622380   0.000000
     4  H    2.093013   1.085658   3.319818   0.000000
     5  H    2.093013   1.085658   3.319818   1.853556   0.000000
     6  H    2.093013   3.319818   1.085658   3.975547   3.975547
     7  H    2.093013   3.319818   1.085658   3.975547   3.975547
                    6          7
     6  H    0.000000
     7  H    1.853556   0.000000
 Symmetry turned off by external request.
 Stoichiometry    C3H4
 Rotational constants (GHZ):         145.9555566           8.8368560           8.8368560
 Standard basis: STO-3G (5D, 7F)
    19 basis functions,    57 primitive gaussians,    19 cartesian basis functions
    11 alpha electrons       11 beta electrons
       nuclear repulsion energy        59.0178324496 Hartrees.
 NAtoms=    7 NActive=    7 NUniq=    7 SFac= 1.00D+00 NAtFMM=   60 NAOKFM=F Big=F
 Integral buffers will be    131072 words long.
 Raffenetti 1 integral format.
 Two-electron integral symmetry is turned off.
 One-electron integrals computed using PRISM.
 NBasis=    19 RedAO= T EigKep=  1.73D-01  NBF=    19
 NBsUse=    19 1.00D-06 EigRej= -1.00D+00 NBFU=    19
 ExpMin= 1.69D-01 ExpMax= 7.16D+01 ExpMxC= 7.16D+01 IAcc=3 IRadAn=         5 AccDes= 0.00D+00
 Harris functional with IExCor=  205 and IRadAn=       5 diagonalized for initial guess.
 HarFok:  IExCor=  205 AccDes= 0.00D+00 IRadAn=         5 IDoV= 1 UseB2=F ITyADJ=14
 ICtDFT=  3500011 ScaDFX=  1.000000  1.000000  1.000000  1.000000
 FoFCou: FMM=F IPFlag=           0 FMFlag=      100000 FMFlg1=           0
         NFxFlg=           0 DoJE=T BraDBF=F KetDBF=T FulRan=T
         wScrn=  0.000000 ICntrl=       500 IOpCl=  0 I1Cent=   200000004 NGrid=           0
         NMat0=    1 NMatS0=      1 NMatT0=    0 NMatD0=    1 NMtDS0=    0 NMtDT0=    0
 Symmetry not used in FoFCou.
 Keep R1 ints in memory in canonical form, NReq=826847.
 Requested convergence on RMS density matrix=1.00D-08 within 128 cycles.
 Requested convergence on MAX density matrix=1.00D-06.
 Requested convergence on             energy=1.00D-06.
 No special actions if energy rises.
 SCF Done:  E(RHF) =  -114.419915903     A.U. after    9 cycles
            NFock=  9  Conv=0.13D-08     -V/T= 2.0065

 **********************************************************************

            Population analysis using the SCF Density.

 **********************************************************************

 Alpha  occ. eigenvalues --  -11.02942 -11.02350 -11.02349  -1.00690  -0.89415
 Alpha  occ. eigenvalues --   -0.66021  -0.56188  -0.56188  -0.55873  -0.31696
 Alpha  occ. eigenvalues --   -0.31696
 Alpha virt. eigenvalues --    0.31273   0.31273   0.65190   0.69507   0.78473
 Alpha virt. eigenvalues --    0.82140   0.82140   1.28316
          Condensed to atoms (all electrons):
               1          2          3          4          5          6
     1  C    4.831657   0.623001   0.623001  -0.026587  -0.026587  -0.026587
     2  C    0.623001   4.781584  -0.015594   0.389295   0.389295  -0.000201
     3  C    0.623001  -0.015594   4.781584  -0.000201  -0.000201   0.389295
     4  H   -0.026587   0.389295  -0.000201   0.583087  -0.021986  -0.000012
     5  H   -0.026587   0.389295  -0.000201  -0.021986   0.583087  -0.000012
     6  H   -0.026587  -0.000201   0.389295  -0.000012  -0.000012   0.583087
     7  H   -0.026587  -0.000201   0.389295  -0.000012  -0.000012  -0.021986
               7
     1  C   -0.026587
     2  C   -0.000201
     3  C    0.389295
     4  H   -0.000012
     5  H   -0.000012
     6  H   -0.021986
     7  H    0.583087
 Mulliken charges:
               1
     1  C    0.028691
     2  C   -0.167178
     3  C   -0.167178
     4  H    0.076416
     5  H    0.076416
     6  H    0.076416
     7  H    0.076416
 Sum of Mulliken charges =  -0.00000
 Mulliken charges with hydrogens summed into heavy atoms:
               1
     1  C    0.028691
     2  C   -0.014346
     3  C   -0.014346
 Electronic spatial extent (au):  <R**2>=            174.1079
 Charge=             -0.0000 electrons
 Dipole moment (field-independent basis, Debye):
    X=              0.0000    Y=              0.0000    Z=             -0.0000  Tot=              0.0000
 Quadrupole moment (field-independent basis, Debye-Ang):
   XX=            -17.5200   YY=            -17.5200   ZZ=            -15.8823
   XY=             -0.0000   XZ=             -0.0000   YZ=              0.0000
 Traceless Quadrupole moment (field-independent basis, Debye-Ang):
   XX=             -0.5459   YY=             -0.5459   ZZ=              1.0918
   XY=             -0.0000   XZ=             -0.0000   YZ=              0.0000
 Octapole moment (field-independent basis, Debye-Ang**2):
  XXX=              0.0000  YYY=              0.0000  ZZZ=             -0.0000  XYY=              0.0000
  XXY=              0.0000  XXZ=             -2.0976  XZZ=              0.0000  YZZ=              0.0000
  YYZ=              2.0976  XYZ=             -0.0000
 Hexadecapole moment (field-independent basis, Debye-Ang**3):
 XXXX=            -21.3574 YYYY=            -21.3574 ZZZZ=           -171.4571 XXXY=             -0.0000
 XXXZ=             -0.0000 YYYX=             -0.0000 YYYZ=              0.0000 ZZZX=             -0.0000
 ZZZY=              0.0000 XXYY=             -7.6706 XXZZ=            -31.3590 YYZZ=            -31.3590
 XXYZ=              0.0000 YYXZ=             -0.0000 ZZXY=              0.0000
 N-N= 5.901783244958D+01 E-N=-3.846533332320D+02  KE= 1.136860088780D+02
 Running external command "gaunbo7 R"
         input file       "/cluster/work/users/beto93/mol77/Gau-1163367.EIn"
         output file      "/cluster/work/users/beto93/mol77/Gau-1163367.EOu"
         message file     "/cluster/work/users/beto93/mol77/Gau-1163367.EMs"
         fchk file        "/cluster/work/users/beto93/mol77/Gau-1163367.EFC"
         mat. el file     "/cluster/work/users/beto93/mol77/Gau-1163367.EUF"

 Writing WrtUnf unformatted file "/cluster/work/users/beto93/mol77/Gau-1163367.EUF"
 Gaussian matrix elements                                         Version   2 NLab=11 Len12L=8 Len4L=8
 Write SHELL TO ATOM MAP                   from file      0 offset           0 length                  10 to matrix element file.
 Write SHELL TYPES                         from file      0 offset           0 length                  10 to matrix element file.
 Write NUMBER OF PRIMITIVES PER SHELL      from file      0 offset           0 length                  10 to matrix element file.
 Write PRIMITIVE EXPONENTS                 from file      0 offset           0 length                  30 to matrix element file.
 Write CONTRACTION COEFFICIENTS            from file      0 offset           0 length                  30 to matrix element file.
 Write P(S=P) CONTRACTION COEFFICIENTS     from file      0 offset           0 length                  30 to matrix element file.
 Write COORDINATES OF EACH SHELL           from file      0 offset           0 length                  30 to matrix element file.
 Write BONDS PER ATOM                      from file      0 offset           0 length                   7 to matrix element file.
 Write BONDED ATOMS                        from file      0 offset           0 length                  12 to matrix element file.
 Write BOND TYPES                          from file      0 offset           0 length                  12 to matrix element file.
 Write ONIOM CHARGE/MULT                   from file      0 offset           0 length                  32 to matrix element file.
 Write ONIOM ATOM LAYERS                   from file      0 offset           0 length                   7 to matrix element file.
 Write ONIOM ATOM MODIFIERS                from file      0 offset           0 length                   7 to matrix element file.
 Write ONIOM ATOM TYPES                    from file      0 offset           0 length                   7 to matrix element file.
 Write ONIOM LINK ATOMS                    from file      0 offset           0 length                   7 to matrix element file.
 Write ONIOM LINK CHARGES                  from file      0 offset           0 length                   7 to matrix element file.
 Write ONIOM LINK DISTANCES                from file      0 offset           0 length                  28 to matrix element file.
 Write SYMINF INTS                         from file      0 offset           0 length                  26 to matrix element file.
 Write ROTTR TO SO                         from file      0 offset           0 length                  12 to matrix element file.
 Write GAUSSIAN SCALARS                    from file    501 offset           0 to matrix element file.
 Write OPTIMIZATION FLAGS                  from file      0 offset           0 length                   7 to matrix element file.
 Write INTEGER ISO                         from file      0 offset           0 length                   7 to matrix element file.
 Write INTEGER SPIN                        from file      0 offset           0 length                   7 to matrix element file.
 Write REAL ZEFFECTIVE                     from file      0 offset           0 length                   7 to matrix element file.
 Write REAL GFACTOR                        from file      0 offset           0 length                   7 to matrix element file.
 Write REAL ZNUCLEAR                       from file      0 offset           0 length                   7 to matrix element file.
 Write MULLIKEN CHARGES                    from file      0 offset           0 length                   7 to matrix element file.
 Write NUCLEAR GRADIENT                    from file  10584 offset           0 length                  21 to matrix element file.
 Array NUCLEAR FORCE CONSTANTS              on  file  10585 does not exist.
 Write ELECTRIC DIPOLE MOMENT              from file      0 offset           0 length                   3 to matrix element file.
 Write NON-ADIABATIC COUPLING              from file  10810 offset           0 length                  21 to matrix element file.
 Write FINITE EM FIELD                     from file  10521 offset           0 length                  35 to matrix element file.
 Write OVERLAP                             from file  10514 offset           0 length                 190 to matrix element file.
 Write CORE HAMILTONIAN ALPHA              from file  10515 offset           0 length                 190 to matrix element file.
 Write CORE HAMILTONIAN BETA               from file  10515 offset         190 length                 190 to matrix element file.
 Write KINETIC ENERGY                      from file  10516 offset           0 length                 190 to matrix element file.
 Write ORTHOGONAL BASIS                    from file  10685 offset           0 length                 361 to matrix element file.
 Write DIPOLE INTEGRALS                    from file  10518 offset           0 length                 570 to matrix element file.
 Array DIP VEL INTEGRALS                    on  file  10572 does not exist.
 Array R X DEL INTEGRALS                    on  file  10572 does not exist.
 Write ALPHA ORBITAL ENERGIES              from file      0 offset           0 length                  19 to matrix element file.
 Write ALPHA MO COEFFICIENTS               from file  10524 offset           0 length                 361 to matrix element file.
 Write ALPHA DENSITY MATRIX                from file      0 offset           0 length                 190 to matrix element file.
 Write ALPHA FOCK MATRIX                   from file  10536 offset           0 length                 190 to matrix element file.
 Write ENERGY-WEIGHTED DENSITY             from file  10571 offset           0 length                 190 to matrix element file.
 Write ALPHA SCF DENSITY MATRIX            from file      0 offset           0 length                 190 to matrix element file.
 No 2e integrals to process.
 Perform NBO analysis...executing G16NBO...

 *********************************** NBO 7.0 ***********************************
             N A T U R A L   A T O M I C   O R B I T A L   A N D
          N A T U R A L   B O N D   O R B I T A L   A N A L Y S I S
 **************************** Espen Tangen (S101595) ***************************
  (c) Copyright 1996-2021 Board of Regents of the University of Wisconsin System
      on behalf of the Theoretical Chemistry Institute.  All rights reserved.

          Cite this program [NBO 7.0.10 (8-Feb-2021)] as:

          NBO 7.0.  E. D. Glendening, J. K. Badenhoop, A. E. Reed,
          J. E. Carpenter, J. A. Bohmann, C. M. Morales, P. Karafiloglou,
          C. R. Landis, and F. Weinhold, Theoretical Chemistry Institute,
          University of Wisconsin, Madison, WI (2018)

       /NPA    / : Natural Population Analysis
       /AOPNAO / : Print the AO to PNAO transformation
       /AONAO  / : Print the AO to NAO transformation
       /AOMO   / : Print the MOs in the AO basis
       /BOAO   / : Print the AO bond-order matrix
       /DMAO   / : Print the AO density matrix
       /DMPNAO / : Print the PNAO density matrix
       /DMNAO  / : Print the NAO density matrix
       /DMMO   / : Print the MO density matrix
       /SAO    / : Print the AO overlap matrix
       /SPNAO  / : Print the PNAO overlap matrix
       /DETAIL / : Write details of NBO search
       /ARCHIVE/ : Write the archive file to lfn47
       /AOINFO / : Write AO information to lfn31
       /FILE   / : Set to mol77.gen*

 Filename set to mol77.gen1

 Job title: mol77-NBO


 MOs in the AO basis:

           AO          1       2       3       4       5       6       7       8
      ------------ ------- ------- ------- ------- ------- ------- ------- -------
   1.  C 1 (s)      0.9856 -0.1187  0.0000 -0.1852  0.0000 -0.1387  0.0000  0.0000
   2.  C 1 (s)      0.0316 -0.0155  0.0000  0.4669  0.0000  0.4178  0.0000  0.0000
   3.  C 1 (px)     0.0000  0.0000  0.0000  0.0000  0.0000  0.0000  0.2070 -0.0367
   4.  C 1 (py)     0.0000  0.0000  0.0000  0.0000  0.0000  0.0000  0.0367  0.2070
   5.  C 1 (pz)     0.0000  0.0000 -0.0067  0.0000  0.3193  0.0000  0.0000  0.0000
   6.  C 2 (s)      0.0843  0.6965  0.7016 -0.1354 -0.1622  0.0694  0.0000  0.0000
   7.  C 2 (s)     -0.0038  0.0266  0.0257  0.3648  0.4276 -0.2266  0.0000  0.0000
   8.  C 2 (px)     0.0000  0.0000  0.0000  0.0000  0.0000  0.0000  0.1052 -0.0187
   9.  C 2 (py)     0.0000  0.0000  0.0000  0.0000  0.0000  0.0000  0.0937  0.5287
  10.  C 2 (pz)     0.0037 -0.0020 -0.0014 -0.1074 -0.0246 -0.3236  0.0000  0.0000
  11.  C 3 (s)      0.0843  0.6965 -0.7016 -0.1354  0.1622  0.0694  0.0000  0.0000
  12.  C 3 (s)     -0.0038  0.0266 -0.0257  0.3648 -0.4276 -0.2266  0.0000  0.0000
  13.  C 3 (px)     0.0000  0.0000  0.0000  0.0000  0.0000  0.0000  0.5287 -0.0937
  14.  C 3 (py)     0.0000  0.0000  0.0000  0.0000  0.0000  0.0000  0.0187  0.1052
  15.  C 3 (pz)    -0.0037  0.0020 -0.0014  0.1074 -0.0246  0.3236  0.0000  0.0000
  16.  H 4 (s)     -0.0006 -0.0048 -0.0048  0.0807  0.1376 -0.2157  0.0659  0.3718
  17.  H 5 (s)     -0.0006 -0.0048 -0.0048  0.0807  0.1376 -0.2157 -0.0659 -0.3718
  18.  H 6 (s)     -0.0006 -0.0048  0.0048  0.0807 -0.1376 -0.2157  0.3718 -0.0659
  19.  H 7 (s)     -0.0006 -0.0048  0.0048  0.0807 -0.1376 -0.2157 -0.3718  0.0659

           AO          9      10      11      12      13      14      15      16
      ------------ ------- ------- ------- ------- ------- ------- ------- -------
   1.  C 1 (s)      0.0000  0.0000  0.0000  0.0000  0.0000  0.1333  0.0000 -0.1694
   2.  C 1 (s)      0.0000  0.0000  0.0000  0.0000  0.0000 -0.8732  0.0000  1.2835
   3.  C 1 (px)     0.0000  0.0889  0.5551  0.2320  0.7452  0.0000  0.0000  0.0000
   4.  C 1 (py)     0.0000  0.5551 -0.0889  0.7452 -0.2320  0.0000  0.0000  0.0000
   5.  C 1 (pz)     0.4647  0.0000  0.0000  0.0000  0.0000  0.0000 -0.1306  0.0000
   6.  C 2 (s)      0.0024  0.0000  0.0000  0.0000  0.0000 -0.1744 -0.1356  0.0199
   7.  C 2 (s)     -0.0526  0.0000  0.0000  0.0000  0.0000  1.0918  0.8742 -0.1327
   8.  C 2 (px)     0.0000  0.1045  0.6529 -0.2277 -0.7312  0.0000  0.0000  0.0000
   9.  C 2 (py)     0.0000 -0.1425  0.0228  0.1415 -0.0440  0.0000  0.0000  0.0000
  10.  C 2 (pz)    -0.3996  0.0000  0.0000  0.0000  0.0000 -0.0301  0.4467  0.9024
  11.  C 3 (s)     -0.0024  0.0000  0.0000  0.0000  0.0000 -0.1744  0.1356  0.0199
  12.  C 3 (s)      0.0526  0.0000  0.0000  0.0000  0.0000  1.0918 -0.8742 -0.1327
  13.  C 3 (px)     0.0000 -0.0228 -0.1425  0.0440  0.1415  0.0000  0.0000  0.0000
  14.  C 3 (py)     0.0000  0.6529 -0.1045 -0.7312  0.2277  0.0000  0.0000  0.0000
  15.  C 3 (pz)    -0.3996  0.0000  0.0000  0.0000  0.0000  0.0301  0.4467 -0.9024
  16.  H 4 (s)     -0.1931 -0.1965  0.0315 -0.2848  0.0887 -0.5440 -0.6394 -0.3406
  17.  H 5 (s)     -0.1931  0.1965 -0.0315  0.2848 -0.0887 -0.5440 -0.6394 -0.3406
  18.  H 6 (s)      0.1931 -0.0315 -0.1965 -0.0887 -0.2848 -0.5440  0.6394 -0.3406
  19.  H 7 (s)      0.1931  0.0315  0.1965  0.0887  0.2848 -0.5440  0.6394 -0.3406

           AO         17      18      19
      ------------ ------- ------- -------
   1.  C 1 (s)      0.0000  0.0000  0.0000
   2.  C 1 (s)      0.0000  0.0000  0.0000
   3.  C 1 (px)    -0.3959  0.1447  0.0000
   4.  C 1 (py)    -0.1447 -0.3959  0.0000
   5.  C 1 (pz)     0.0000  0.0000  1.5691
   6.  C 2 (s)      0.0000  0.0000  0.0940
   7.  C 2 (s)      0.0000  0.0000 -0.8441
   8.  C 2 (px)     0.1739 -0.0636  0.0000
   9.  C 2 (py)     0.4034  1.1035  0.0000
  10.  C 2 (pz)     0.0000  0.0000  0.8495
  11.  C 3 (s)      0.0000  0.0000 -0.0940
  12.  C 3 (s)      0.0000  0.0000  0.8441
  13.  C 3 (px)     1.1035 -0.4034  0.0000
  14.  C 3 (py)     0.0636  0.1739  0.0000
  15.  C 3 (pz)     0.0000  0.0000  0.8495
  16.  H 4 (s)     -0.2832 -0.7746 -0.0175
  17.  H 5 (s)      0.2832  0.7746 -0.0175
  18.  H 6 (s)     -0.7746  0.2832  0.0175
  19.  H 7 (s)      0.7746 -0.2832  0.0175


 AO overlap matrix:

           AO          1       2       3       4       5       6       7       8
      ------------ ------- ------- ------- ------- ------- ------- ------- -------
   1.  C 1 (s)      1.0000  0.2484  0.0000  0.0000  0.0000  0.0000  0.0463  0.0000
   2.  C 1 (s)      0.2484  1.0000  0.0000  0.0000  0.0000  0.0463  0.4106  0.0000
   3.  C 1 (px)     0.0000  0.0000  1.0000  0.0000  0.0000  0.0000  0.0000  0.2497
   4.  C 1 (py)     0.0000  0.0000  0.0000  1.0000  0.0000  0.0000  0.0000  0.0000
   5.  C 1 (pz)     0.0000  0.0000  0.0000  0.0000  1.0000  0.0769  0.4193  0.0000
   6.  C 2 (s)      0.0000  0.0463  0.0000  0.0000  0.0769  1.0000  0.2484  0.0000
   7.  C 2 (s)      0.0463  0.4106  0.0000  0.0000  0.4193  0.2484  1.0000  0.0000
   8.  C 2 (px)     0.0000  0.0000  0.2497  0.0000  0.0000  0.0000  0.0000  1.0000
   9.  C 2 (py)     0.0000  0.0000  0.0000  0.2497  0.0000  0.0000  0.0000  0.0000
  10.  C 2 (pz)    -0.0769 -0.4193  0.0000  0.0000 -0.3267  0.0000  0.0000  0.0000
  11.  C 3 (s)      0.0000  0.0463  0.0000  0.0000 -0.0769  0.0000  0.0008  0.0000
  12.  C 3 (s)      0.0463  0.4106  0.0000  0.0000 -0.4193  0.0008  0.0390  0.0000
  13.  C 3 (px)     0.0000  0.0000  0.2497  0.0000  0.0000  0.0000  0.0000  0.0156
  14.  C 3 (py)     0.0000  0.0000  0.0000  0.2497  0.0000  0.0000  0.0000  0.0000
  15.  C 3 (pz)     0.0769  0.4193  0.0000  0.0000 -0.3267  0.0021  0.0602  0.0000
  16.  H 4 (s)      0.0063  0.1090  0.0000  0.0613  0.1242  0.0629  0.4933  0.0000
  17.  H 5 (s)      0.0063  0.1090  0.0000 -0.0613  0.1242  0.0629  0.4933  0.0000
  18.  H 6 (s)      0.0063  0.1090  0.0613  0.0000 -0.1242  0.0001  0.0081  0.0037
  19.  H 7 (s)      0.0063  0.1090 -0.0613  0.0000 -0.1242  0.0001  0.0081 -0.0037

           AO          9      10      11      12      13      14      15      16
      ------------ ------- ------- ------- ------- ------- ------- ------- -------
   1.  C 1 (s)      0.0000 -0.0769  0.0000  0.0463  0.0000  0.0000  0.0769  0.0063
   2.  C 1 (s)      0.0000 -0.4193  0.0463  0.4106  0.0000  0.0000  0.4193  0.1090
   3.  C 1 (px)     0.0000  0.0000  0.0000  0.0000  0.2497  0.0000  0.0000  0.0000
   4.  C 1 (py)     0.2497  0.0000  0.0000  0.0000  0.0000  0.2497  0.0000  0.0613
   5.  C 1 (pz)     0.0000 -0.3267 -0.0769 -0.4193  0.0000  0.0000 -0.3267  0.1242
   6.  C 2 (s)      0.0000  0.0000  0.0000  0.0008  0.0000  0.0000  0.0021  0.0629
   7.  C 2 (s)      0.0000  0.0000  0.0008  0.0390  0.0000  0.0000  0.0602  0.4933
   8.  C 2 (px)     0.0000  0.0000  0.0000  0.0000  0.0156  0.0000  0.0000  0.0000
   9.  C 2 (py)     1.0000  0.0000  0.0000  0.0000  0.0000  0.0156  0.0000  0.4002
  10.  C 2 (pz)     0.0000  1.0000 -0.0021 -0.0602  0.0000  0.0000 -0.0859  0.2441
  11.  C 3 (s)      0.0000 -0.0021  1.0000  0.2484  0.0000  0.0000  0.0000  0.0001
  12.  C 3 (s)      0.0000 -0.0602  0.2484  1.0000  0.0000  0.0000  0.0000  0.0081
  13.  C 3 (px)     0.0000  0.0000  0.0000  0.0000  1.0000  0.0000  0.0000  0.0000
  14.  C 3 (py)     0.0156  0.0000  0.0000  0.0000  0.0000  1.0000  0.0000  0.0037
  15.  C 3 (pz)     0.0000 -0.0859  0.0000  0.0000  0.0000  0.0000  1.0000  0.0127
  16.  H 4 (s)      0.4002  0.2441  0.0001  0.0081  0.0000  0.0037  0.0127  1.0000
  17.  H 5 (s)     -0.4002  0.2441  0.0001  0.0081  0.0000 -0.0037  0.0127  0.1509
  18.  H 6 (s)      0.0000 -0.0127  0.0629  0.4933  0.4002  0.0000 -0.2441  0.0019
  19.  H 7 (s)      0.0000 -0.0127  0.0629  0.4933 -0.4002  0.0000 -0.2441  0.0019

           AO         17      18      19
      ------------ ------- ------- -------
   1.  C 1 (s)      0.0063  0.0063  0.0063
   2.  C 1 (s)      0.1090  0.1090  0.1090
   3.  C 1 (px)     0.0000  0.0613 -0.0613
   4.  C 1 (py)    -0.0613  0.0000  0.0000
   5.  C 1 (pz)     0.1242 -0.1242 -0.1242
   6.  C 2 (s)      0.0629  0.0001  0.0001
   7.  C 2 (s)      0.4933  0.0081  0.0081
   8.  C 2 (px)     0.0000  0.0037 -0.0037
   9.  C 2 (py)    -0.4002  0.0000  0.0000
  10.  C 2 (pz)     0.2441 -0.0127 -0.0127
  11.  C 3 (s)      0.0001  0.0629  0.0629
  12.  C 3 (s)      0.0081  0.4933  0.4933
  13.  C 3 (px)     0.0000  0.4002 -0.4002
  14.  C 3 (py)    -0.0037  0.0000  0.0000
  15.  C 3 (pz)     0.0127 -0.2441 -0.2441
  16.  H 4 (s)      0.1509  0.0019  0.0019
  17.  H 5 (s)      1.0000  0.0019  0.0019
  18.  H 6 (s)      0.0019  1.0000  0.1509
  19.  H 7 (s)      0.0019  0.1509  1.0000


 AO bond-order matrix:

           AO          1       2       3       4       5       6       7       8
      ------------ ------- ------- ------- ------- ------- ------- ------- -------
   1.  C 1 (s)      2.0780 -0.2228  0.0000  0.0000  0.0000  0.0318 -0.0861  0.0000
   2.  C 1 (s)     -0.2228  0.7875  0.0000  0.0000  0.0000 -0.0847  0.1502  0.0000
   3.  C 1 (px)     0.0000  0.0000  0.7205  0.0000  0.0000  0.0000  0.0000  0.7884
   4.  C 1 (py)     0.0000  0.0000  0.0000  0.7205  0.0000  0.0000  0.0000  0.0000
   5.  C 1 (pz)     0.0000  0.0000  0.0000  0.0000  0.6359 -0.1107  0.2238  0.0000
   6.  C 2 (s)      0.0318 -0.0847  0.0000  0.0000 -0.1107  2.0679 -0.1968  0.0000
   7.  C 2 (s)     -0.0861  0.1502  0.0000  0.0000  0.2238 -0.1968  0.7429  0.0000
   8.  C 2 (px)     0.0000  0.0000  0.7884  0.0000  0.0000  0.0000  0.0000  0.8972
   9.  C 2 (py)     0.0000  0.0000  0.0000  0.0635  0.0000  0.0000  0.0000  0.0000
  10.  C 2 (pz)     0.1373 -0.3704  0.0000  0.0000 -0.3871 -0.0139  0.0892  0.0000
  11.  C 3 (s)      0.0318 -0.0847  0.0000  0.0000  0.1107 -0.0065  0.0090  0.0000
  12.  C 3 (s)     -0.0861  0.1502  0.0000  0.0000 -0.2238  0.0090 -0.0021  0.0000
  13.  C 3 (px)     0.0000  0.0000  0.0635  0.0000  0.0000  0.0000  0.0000 -0.0760
  14.  C 3 (py)     0.0000  0.0000  0.0000  0.7884  0.0000  0.0000  0.0000  0.0000
  15.  C 3 (pz)    -0.1373  0.3704  0.0000  0.0000 -0.3871  0.0220 -0.0472  0.0000
  16.  H 4 (s)      0.0298 -0.1048  0.0000 -0.0650 -0.0916 -0.1108  0.2942  0.0000
  17.  H 5 (s)      0.0298 -0.1048  0.0000  0.0650 -0.0916 -0.1108  0.2942  0.0000
  18.  H 6 (s)      0.0298 -0.1048 -0.0650  0.0000  0.0916 -0.0063  0.0187 -0.1824
  19.  H 7 (s)      0.0298 -0.1048  0.0650  0.0000  0.0916 -0.0063  0.0187  0.1824

           AO          9      10      11      12      13      14      15      16
      ------------ ------- ------- ------- ------- ------- ------- ------- -------
   1.  C 1 (s)      0.0000  0.1373  0.0318 -0.0861  0.0000  0.0000 -0.1373  0.0298
   2.  C 1 (s)      0.0000 -0.3704 -0.0847  0.1502  0.0000  0.0000  0.3704 -0.1048
   3.  C 1 (px)     0.0000  0.0000  0.0000  0.0000  0.0635  0.0000  0.0000  0.0000
   4.  C 1 (py)     0.0635  0.0000  0.0000  0.0000  0.0000  0.7884  0.0000 -0.0650
   5.  C 1 (pz)     0.0000 -0.3871  0.1107 -0.2238  0.0000  0.0000 -0.3871 -0.0916
   6.  C 2 (s)      0.0000 -0.0139 -0.0065  0.0090  0.0000  0.0000  0.0220 -0.1108
   7.  C 2 (s)      0.0000  0.0892  0.0090 -0.0021  0.0000  0.0000 -0.0472  0.2942
   8.  C 2 (px)     0.0000  0.0000  0.0000  0.0000 -0.0760  0.0000  0.0000  0.0000
   9.  C 2 (py)     0.6182  0.0000  0.0000  0.0000  0.0000 -0.0760  0.0000  0.4629
  10.  C 2 (pz)     0.0000  0.5532 -0.0220  0.0472  0.0000  0.0000  0.0881  0.2699
  11.  C 3 (s)      0.0000 -0.0220  2.0679 -0.1968  0.0000  0.0000  0.0139 -0.0063
  12.  C 3 (s)      0.0000  0.0472 -0.1968  0.7429  0.0000  0.0000 -0.0892  0.0187
  13.  C 3 (px)     0.0000  0.0000  0.0000  0.0000  0.6182  0.0000  0.0000  0.0000
  14.  C 3 (py)    -0.0760  0.0000  0.0000  0.0000  0.0000  0.8972  0.0000 -0.1824
  15.  C 3 (pz)     0.0000  0.0881  0.0139 -0.0892  0.0000  0.0000  0.5532  0.0253
  16.  H 4 (s)      0.4629  0.2699 -0.0063  0.0187  0.0000 -0.1824  0.0253  0.5831
  17.  H 5 (s)     -0.4629  0.2699 -0.0063  0.0187  0.0000  0.1824  0.0253 -0.1457
  18.  H 6 (s)      0.0000 -0.0253 -0.1108  0.2942  0.4629  0.0000 -0.2699 -0.0063
  19.  H 7 (s)      0.0000 -0.0253 -0.1108  0.2942 -0.4629  0.0000 -0.2699 -0.0063

           AO         17      18      19
      ------------ ------- ------- -------
   1.  C 1 (s)      0.0298  0.0298  0.0298
   2.  C 1 (s)     -0.1048 -0.1048 -0.1048
   3.  C 1 (px)     0.0000 -0.0650  0.0650
   4.  C 1 (py)     0.0650  0.0000  0.0000
   5.  C 1 (pz)    -0.0916  0.0916  0.0916
   6.  C 2 (s)     -0.1108 -0.0063 -0.0063
   7.  C 2 (s)      0.2942  0.0187  0.0187
   8.  C 2 (px)     0.0000 -0.1824  0.1824
   9.  C 2 (py)    -0.4629  0.0000  0.0000
  10.  C 2 (pz)     0.2699 -0.0253 -0.0253
  11.  C 3 (s)     -0.0063 -0.1108 -0.1108
  12.  C 3 (s)      0.0187  0.2942  0.2942
  13.  C 3 (px)     0.0000  0.4629 -0.4629
  14.  C 3 (py)     0.1824  0.0000  0.0000
  15.  C 3 (pz)     0.0253 -0.2699 -0.2699
  16.  H 4 (s)     -0.1457 -0.0063 -0.0063
  17.  H 5 (s)      0.5831 -0.0063 -0.0063
  18.  H 6 (s)     -0.0063  0.5831 -0.1457
  19.  H 7 (s)     -0.0063 -0.1457  0.5831


 AO density matrix:

           AO          1       2       3       4       5       6       7       8
      ------------ ------- ------- ------- ------- ------- ------- ------- -------
   1.  C 1 (s)      1.9996  0.5043  0.0000  0.0000  0.0000  0.0002  0.0891  0.0000
   2.  C 1 (s)      0.5043  1.8363  0.0000  0.0000  0.0000  0.0881  0.8925  0.0000
   3.  C 1 (px)     0.0000  0.0000  1.2375  0.0000  0.0000  0.0000  0.0000  1.2063
   4.  C 1 (py)     0.0000  0.0000  0.0000  1.2375  0.0000  0.0000  0.0000  0.0000
   5.  C 1 (pz)     0.0000  0.0000  0.0000  0.0000  1.8039  0.1500  0.9072  0.0000
   6.  C 2 (s)      0.0002  0.0881  0.0000  0.0000  0.1500  1.9995  0.5049  0.0000
   7.  C 2 (s)      0.0891  0.8925  0.0000  0.0000  0.9072  0.5049  1.8553  0.0000
   8.  C 2 (px)     0.0000  0.0000  1.2063  0.0000  0.0000  0.0000  0.0000  1.3312
   9.  C 2 (py)     0.0000  0.0000  0.0000  0.5415  0.0000  0.0000  0.0000  0.0000
  10.  C 2 (pz)    -0.1476 -0.9763  0.0000  0.0000 -0.7711  0.0001 -0.0126  0.0000
  11.  C 3 (s)      0.0002  0.0881  0.0000  0.0000 -0.1500 -0.0001  0.0024  0.0000
  12.  C 3 (s)      0.0891  0.8925  0.0000  0.0000 -0.9072  0.0024  0.0703  0.0000
  13.  C 3 (px)     0.0000  0.0000  0.5415  0.0000  0.0000  0.0000  0.0000  0.0607
  14.  C 3 (py)     0.0000  0.0000  0.0000  1.2063  0.0000  0.0000  0.0000  0.0000
  15.  C 3 (pz)     0.1476  0.9763  0.0000  0.0000 -0.7711  0.0058  0.1007  0.0000
  16.  H 4 (s)      0.0137  0.2026  0.0000  0.2048  0.2428  0.1181  1.1270  0.0000
  17.  H 5 (s)      0.0137  0.2026  0.0000 -0.2048  0.2428  0.1181  1.1270  0.0000
  18.  H 6 (s)      0.0137  0.2026  0.2048  0.0000 -0.2428 -0.0001  0.0219 -0.1157
  19.  H 7 (s)      0.0137  0.2026 -0.2048  0.0000 -0.2428 -0.0001  0.0219  0.1157

           AO          9      10      11      12      13      14      15      16
      ------------ ------- ------- ------- ------- ------- ------- ------- -------
   1.  C 1 (s)      0.0000 -0.1476  0.0002  0.0891  0.0000  0.0000  0.1476  0.0137
   2.  C 1 (s)      0.0000 -0.9763  0.0881  0.8925  0.0000  0.0000  0.9763  0.2026
   3.  C 1 (px)     0.0000  0.0000  0.0000  0.0000  0.5415  0.0000  0.0000  0.0000
   4.  C 1 (py)     0.5415  0.0000  0.0000  0.0000  0.0000  1.2063  0.0000  0.2048
   5.  C 1 (pz)     0.0000 -0.7711 -0.1500 -0.9072  0.0000  0.0000 -0.7711  0.2428
   6.  C 2 (s)      0.0000  0.0001 -0.0001  0.0024  0.0000  0.0000  0.0058  0.1181
   7.  C 2 (s)      0.0000 -0.0126  0.0024  0.0703  0.0000  0.0000  0.1007  1.1270
   8.  C 2 (px)     0.0000  0.0000  0.0000  0.0000  0.0607  0.0000  0.0000  0.0000
   9.  C 2 (py)     1.6426  0.0000  0.0000  0.0000  0.0000  0.0607  0.0000  1.0385
  10.  C 2 (pz)     0.0000  1.6692 -0.0058 -0.1007  0.0000  0.0000 -0.1302  0.6394
  11.  C 3 (s)      0.0000 -0.0058  1.9995  0.5049  0.0000  0.0000 -0.0001 -0.0001
  12.  C 3 (s)      0.0000 -0.1007  0.5049  1.8553  0.0000  0.0000  0.0126  0.0219
  13.  C 3 (px)     0.0000  0.0000  0.0000  0.0000  1.6426  0.0000  0.0000  0.0000
  14.  C 3 (py)     0.0607  0.0000  0.0000  0.0000  0.0000  1.3312  0.0000 -0.1157
  15.  C 3 (pz)     0.0000 -0.1302 -0.0001  0.0126  0.0000  0.0000  1.6692  0.0365
  16.  H 4 (s)      1.0385  0.6394 -0.0001  0.0219  0.0000 -0.1157  0.0365  1.6297
  17.  H 5 (s)     -1.0385  0.6394 -0.0001  0.0219  0.0000  0.1157  0.0365  0.2810
  18.  H 6 (s)      0.0000 -0.0365  0.1181  1.1270  1.0385  0.0000 -0.6394  0.0011
  19.  H 7 (s)      0.0000 -0.0365  0.1181  1.1270 -1.0385  0.0000 -0.6394  0.0011

           AO         17      18      19
      ------------ ------- ------- -------
   1.  C 1 (s)      0.0137  0.0137  0.0137
   2.  C 1 (s)      0.2026  0.2026  0.2026
   3.  C 1 (px)     0.0000  0.2048 -0.2048
   4.  C 1 (py)    -0.2048  0.0000  0.0000
   5.  C 1 (pz)     0.2428 -0.2428 -0.2428
   6.  C 2 (s)      0.1181 -0.0001 -0.0001
   7.  C 2 (s)      1.1270  0.0219  0.0219
   8.  C 2 (px)     0.0000 -0.1157  0.1157
   9.  C 2 (py)    -1.0385  0.0000  0.0000
  10.  C 2 (pz)     0.6394 -0.0365 -0.0365
  11.  C 3 (s)     -0.0001  0.1181  0.1181
  12.  C 3 (s)      0.0219  1.1270  1.1270
  13.  C 3 (px)     0.0000  1.0385 -1.0385
  14.  C 3 (py)     0.1157  0.0000  0.0000
  15.  C 3 (pz)     0.0365 -0.6394 -0.6394
  16.  H 4 (s)      0.2810  0.0011  0.0011
  17.  H 5 (s)      1.6297  0.0011  0.0011
  18.  H 6 (s)      0.0011  1.6297  0.2810
  19.  H 7 (s)      0.0011  0.2810  1.6297


 MO density matrix:

      MO     1       2       3       4       5       6       7       8       9
     ---- ------  ------  ------  ------  ------  ------  ------  ------  ------
   1.     2.0000  0.0000  0.0000  0.0000  0.0000  0.0000  0.0000  0.0000  0.0000
   2.     0.0000  2.0000  0.0000  0.0000  0.0000  0.0000  0.0000  0.0000  0.0000
   3.     0.0000  0.0000  2.0000  0.0000  0.0000  0.0000  0.0000  0.0000  0.0000
   4.     0.0000  0.0000  0.0000  2.0000  0.0000  0.0000  0.0000  0.0000  0.0000
   5.     0.0000  0.0000  0.0000  0.0000  2.0000  0.0000  0.0000  0.0000  0.0000
   6.     0.0000  0.0000  0.0000  0.0000  0.0000  2.0000  0.0000  0.0000  0.0000
   7.     0.0000  0.0000  0.0000  0.0000  0.0000  0.0000  2.0000  0.0000  0.0000
   8.     0.0000  0.0000  0.0000  0.0000  0.0000  0.0000  0.0000  2.0000  0.0000
   9.     0.0000  0.0000  0.0000  0.0000  0.0000  0.0000  0.0000  0.0000  2.0000
  10.     0.0000  0.0000  0.0000  0.0000  0.0000  0.0000  0.0000  0.0000  0.0000
  11.     0.0000  0.0000  0.0000  0.0000  0.0000  0.0000  0.0000  0.0000  0.0000
  12.     0.0000  0.0000  0.0000  0.0000  0.0000  0.0000  0.0000  0.0000  0.0000
  13.     0.0000  0.0000  0.0000  0.0000  0.0000  0.0000  0.0000  0.0000  0.0000
  14.     0.0000  0.0000  0.0000  0.0000  0.0000  0.0000  0.0000  0.0000  0.0000
  15.     0.0000  0.0000  0.0000  0.0000  0.0000  0.0000  0.0000  0.0000  0.0000
  16.     0.0000  0.0000  0.0000  0.0000  0.0000  0.0000  0.0000  0.0000  0.0000
  17.     0.0000  0.0000  0.0000  0.0000  0.0000  0.0000  0.0000  0.0000  0.0000
  18.     0.0000  0.0000  0.0000  0.0000  0.0000  0.0000  0.0000  0.0000  0.0000
  19.     0.0000  0.0000  0.0000  0.0000  0.0000  0.0000  0.0000  0.0000  0.0000

      MO    10      11      12      13      14      15      16      17      18
     ---- ------  ------  ------  ------  ------  ------  ------  ------  ------
   1.     0.0000  0.0000  0.0000  0.0000  0.0000  0.0000  0.0000  0.0000  0.0000
   2.     0.0000  0.0000  0.0000  0.0000  0.0000  0.0000  0.0000  0.0000  0.0000
   3.     0.0000  0.0000  0.0000  0.0000  0.0000  0.0000  0.0000  0.0000  0.0000
   4.     0.0000  0.0000  0.0000  0.0000  0.0000  0.0000  0.0000  0.0000  0.0000
   5.     0.0000  0.0000  0.0000  0.0000  0.0000  0.0000  0.0000  0.0000  0.0000
   6.     0.0000  0.0000  0.0000  0.0000  0.0000  0.0000  0.0000  0.0000  0.0000
   7.     0.0000  0.0000  0.0000  0.0000  0.0000  0.0000  0.0000  0.0000  0.0000
   8.     0.0000  0.0000  0.0000  0.0000  0.0000  0.0000  0.0000  0.0000  0.0000
   9.     0.0000  0.0000  0.0000  0.0000  0.0000  0.0000  0.0000  0.0000  0.0000
  10.     2.0000  0.0000  0.0000  0.0000  0.0000  0.0000  0.0000  0.0000  0.0000
  11.     0.0000  2.0000  0.0000  0.0000  0.0000  0.0000  0.0000  0.0000  0.0000
  12.     0.0000  0.0000  0.0000  0.0000  0.0000  0.0000  0.0000  0.0000  0.0000
  13.     0.0000  0.0000  0.0000  0.0000  0.0000  0.0000  0.0000  0.0000  0.0000
  14.     0.0000  0.0000  0.0000  0.0000  0.0000  0.0000  0.0000  0.0000  0.0000
  15.     0.0000  0.0000  0.0000  0.0000  0.0000  0.0000  0.0000  0.0000  0.0000
  16.     0.0000  0.0000  0.0000  0.0000  0.0000  0.0000  0.0000  0.0000  0.0000
  17.     0.0000  0.0000  0.0000  0.0000  0.0000  0.0000  0.0000  0.0000  0.0000
  18.     0.0000  0.0000  0.0000  0.0000  0.0000  0.0000  0.0000  0.0000  0.0000
  19.     0.0000  0.0000  0.0000  0.0000  0.0000  0.0000  0.0000  0.0000  0.0000

      MO    19
     ---- ------
   1.     0.0000
   2.     0.0000
   3.     0.0000
   4.     0.0000
   5.     0.0000
   6.     0.0000
   7.     0.0000
   8.     0.0000
   9.     0.0000
  10.     0.0000
  11.     0.0000
  12.     0.0000
  13.     0.0000
  14.     0.0000
  15.     0.0000
  16.     0.0000
  17.     0.0000
  18.     0.0000
  19.     0.0000


 NATURAL POPULATIONS:  Natural atomic orbital occupancies

  NAO Atom No lang   Type(AO)    Occupancy      Energy
 -------------------------------------------------------
   1    C  1  s      Cor( 1s)     2.00000     -11.02444
   2    C  1  s      Val( 2s)     1.09332      -0.16516
   3    C  1  px     Val( 2p)     0.91622       0.04200
   4    C  1  py     Val( 2p)     0.91622       0.04200
   5    C  1  pz     Val( 2p)     0.96212       0.31935

   6    C  2  s      Cor( 1s)     2.00000     -11.01350
   7    C  2  s      Val( 2s)     1.08006      -0.14358
   8    C  2  px     Val( 2p)     1.10160      -0.03029
   9    C  2  py     Val( 2p)     1.00719       0.12362
  10    C  2  pz     Val( 2p)     0.98197       0.16262

  11    C  3  s      Cor( 1s)     2.00000     -11.01350
  12    C  3  s      Val( 2s)     1.08006      -0.14358
  13    C  3  px     Val( 2p)     1.00719       0.12362
  14    C  3  py     Val( 2p)     1.10160      -0.03029
  15    C  3  pz     Val( 2p)     0.98197       0.16262

  16    H  4  s      Val( 1s)     0.94262       0.07939

  17    H  5  s      Val( 1s)     0.94262       0.07939

  18    H  6  s      Val( 1s)     0.94262       0.07939

  19    H  7  s      Val( 1s)     0.94262       0.07939


 Summary of Natural Population Analysis:

                                     Natural Population
             Natural    ---------------------------------------------
  Atom No    Charge        Core      Valence    Rydberg      Total
 --------------------------------------------------------------------
    C  1    0.11213      2.00000     3.88787    0.00000     5.88787
    C  2   -0.17081      2.00000     4.17082    0.00000     6.17081
    C  3   -0.17081      2.00000     4.17082    0.00000     6.17081
    H  4    0.05738      0.00000     0.94262    0.00000     0.94262
    H  5    0.05738      0.00000     0.94262    0.00000     0.94262
    H  6    0.05738      0.00000     0.94262    0.00000     0.94262
    H  7    0.05738      0.00000     0.94262    0.00000     0.94262
 ====================================================================
 * Total *  0.00000      6.00000    16.00000    0.00000    22.00000

                                 Natural Population
 ---------------------------------------------------------
   Core                       6.00000 ( 99.9999% of    6)
   Valence                   16.00000 (100.0000% of   16)
   Natural Minimal Basis     22.00000 (100.0000% of   22)
   Natural Rydberg Basis      0.00000 (  0.0000% of   22)
 ---------------------------------------------------------

    Atom No         Natural Electron Configuration
 ----------------------------------------------------------------------------
      C  1      [core]2s( 1.09)2p( 2.79)
      C  2      [core]2s( 1.08)2p( 3.09)
      C  3      [core]2s( 1.08)2p( 3.09)
      H  4            1s( 0.94)
      H  5            1s( 0.94)
      H  6            1s( 0.94)
      H  7            1s( 0.94)


 PNAOs in the AO basis:

           AO          1       2       3       4       5       6       7       8
      ------------ ------- ------- ------- ------- ------- ------- ------- -------
   1.  C 1 (s)      0.9877 -0.3004  0.0000  0.0000  0.0000  0.0000  0.0000  0.0000
   2.  C 1 (s)      0.0457  1.0313  0.0000  0.0000  0.0000  0.0000  0.0000  0.0000
   3.  C 1 (px)     0.0000  0.0000  1.0000  0.0000  0.0000  0.0000  0.0000  0.0000
   4.  C 1 (py)     0.0000  0.0000  0.0000  1.0000  0.0000  0.0000  0.0000  0.0000
   5.  C 1 (pz)     0.0000  0.0000  0.0000  0.0000  1.0000  0.0000  0.0000  0.0000
   6.  C 2 (s)      0.0000  0.0000  0.0000  0.0000  0.0000  0.9848 -0.3097  0.0000
   7.  C 2 (s)      0.0000  0.0000  0.0000  0.0000  0.0000  0.0554  1.0309  0.0000
   8.  C 2 (px)     0.0000  0.0000  0.0000  0.0000  0.0000  0.0000  0.0000  1.0000
   9.  C 2 (py)     0.0000  0.0000  0.0000  0.0000  0.0000  0.0000  0.0000  0.0000
  10.  C 2 (pz)     0.0000  0.0000  0.0000  0.0000  0.0000  0.0000  0.0000  0.0000
  11.  C 3 (s)      0.0000  0.0000  0.0000  0.0000  0.0000  0.0000  0.0000  0.0000
  12.  C 3 (s)      0.0000  0.0000  0.0000  0.0000  0.0000  0.0000  0.0000  0.0000
  13.  C 3 (px)     0.0000  0.0000  0.0000  0.0000  0.0000  0.0000  0.0000  0.0000
  14.  C 3 (py)     0.0000  0.0000  0.0000  0.0000  0.0000  0.0000  0.0000  0.0000
  15.  C 3 (pz)     0.0000  0.0000  0.0000  0.0000  0.0000  0.0000  0.0000  0.0000
  16.  H 4 (s)      0.0000  0.0000  0.0000  0.0000  0.0000  0.0000  0.0000  0.0000
  17.  H 5 (s)      0.0000  0.0000  0.0000  0.0000  0.0000  0.0000  0.0000  0.0000
  18.  H 6 (s)      0.0000  0.0000  0.0000  0.0000  0.0000  0.0000  0.0000  0.0000
  19.  H 7 (s)      0.0000  0.0000  0.0000  0.0000  0.0000  0.0000  0.0000  0.0000

           AO          9      10      11      12      13      14      15      16
      ------------ ------- ------- ------- ------- ------- ------- ------- -------
   1.  C 1 (s)      0.0000  0.0000  0.0000  0.0000  0.0000  0.0000  0.0000  0.0000
   2.  C 1 (s)      0.0000  0.0000  0.0000  0.0000  0.0000  0.0000  0.0000  0.0000
   3.  C 1 (px)     0.0000  0.0000  0.0000  0.0000  0.0000  0.0000  0.0000  0.0000
   4.  C 1 (py)     0.0000  0.0000  0.0000  0.0000  0.0000  0.0000  0.0000  0.0000
   5.  C 1 (pz)     0.0000  0.0000  0.0000  0.0000  0.0000  0.0000  0.0000  0.0000
   6.  C 2 (s)      0.0000  0.0000  0.0000  0.0000  0.0000  0.0000  0.0000  0.0000
   7.  C 2 (s)      0.0000  0.0000  0.0000  0.0000  0.0000  0.0000  0.0000  0.0000
   8.  C 2 (px)     0.0000  0.0000  0.0000  0.0000  0.0000  0.0000  0.0000  0.0000
   9.  C 2 (py)     1.0000  0.0000  0.0000  0.0000  0.0000  0.0000  0.0000  0.0000
  10.  C 2 (pz)     0.0000  1.0000  0.0000  0.0000  0.0000  0.0000  0.0000  0.0000
  11.  C 3 (s)      0.0000  0.0000  0.9848 -0.3097  0.0000  0.0000  0.0000  0.0000
  12.  C 3 (s)      0.0000  0.0000  0.0554  1.0309  0.0000  0.0000  0.0000  0.0000
  13.  C 3 (px)     0.0000  0.0000  0.0000  0.0000  1.0000  0.0000  0.0000  0.0000
  14.  C 3 (py)     0.0000  0.0000  0.0000  0.0000  0.0000  1.0000  0.0000  0.0000
  15.  C 3 (pz)     0.0000  0.0000  0.0000  0.0000  0.0000  0.0000  1.0000  0.0000
  16.  H 4 (s)      0.0000  0.0000  0.0000  0.0000  0.0000  0.0000  0.0000  1.0000
  17.  H 5 (s)      0.0000  0.0000  0.0000  0.0000  0.0000  0.0000  0.0000  0.0000
  18.  H 6 (s)      0.0000  0.0000  0.0000  0.0000  0.0000  0.0000  0.0000  0.0000
  19.  H 7 (s)      0.0000  0.0000  0.0000  0.0000  0.0000  0.0000  0.0000  0.0000

           AO         17      18      19
      ------------ ------- ------- -------
   1.  C 1 (s)      0.0000  0.0000  0.0000
   2.  C 1 (s)      0.0000  0.0000  0.0000
   3.  C 1 (px)     0.0000  0.0000  0.0000
   4.  C 1 (py)     0.0000  0.0000  0.0000
   5.  C 1 (pz)     0.0000  0.0000  0.0000
   6.  C 2 (s)      0.0000  0.0000  0.0000
   7.  C 2 (s)      0.0000  0.0000  0.0000
   8.  C 2 (px)     0.0000  0.0000  0.0000
   9.  C 2 (py)     0.0000  0.0000  0.0000
  10.  C 2 (pz)     0.0000  0.0000  0.0000
  11.  C 3 (s)      0.0000  0.0000  0.0000
  12.  C 3 (s)      0.0000  0.0000  0.0000
  13.  C 3 (px)     0.0000  0.0000  0.0000
  14.  C 3 (py)     0.0000  0.0000  0.0000
  15.  C 3 (pz)     0.0000  0.0000  0.0000
  16.  H 4 (s)      0.0000  0.0000  0.0000
  17.  H 5 (s)      1.0000  0.0000  0.0000
  18.  H 6 (s)      0.0000  1.0000  0.0000
  19.  H 7 (s)      0.0000  0.0000  1.0000


 PNAO overlap matrix:

           NAO         1       2       3       4       5       6       7       8
      ------------ ------- ------- ------- ------- ------- ------- ------- -------
   1.  C 1( 1s )    1.0000  0.0000  0.0000  0.0000  0.0000  0.0057  0.0658  0.0000
   2.  C 1( 2s )    0.0000  1.0000  0.0000  0.0000  0.0000  0.0697  0.4074  0.0000
   3.  C 1( 2px)    0.0000  0.0000  1.0000  0.0000  0.0000  0.0000  0.0000  0.2497
   4.  C 1( 2py)    0.0000  0.0000  0.0000  1.0000  0.0000  0.0000  0.0000  0.0000
   5.  C 1( 2pz)    0.0000  0.0000  0.0000  0.0000  1.0000  0.0989  0.4084  0.0000
   6.  C 2( 1s )    0.0057  0.0697  0.0000  0.0000  0.0989  1.0000  0.0000  0.0000
   7.  C 2( 2s )    0.0658  0.4074  0.0000  0.0000  0.4084  0.0000  1.0000  0.0000
   8.  C 2( 2px)    0.0000  0.0000  0.2497  0.0000  0.0000  0.0000  0.0000  1.0000
   9.  C 2( 2py)    0.0000  0.0000  0.0000  0.2497  0.0000  0.0000  0.0000  0.0000
  10.  C 2( 2pz)   -0.0951 -0.4094  0.0000  0.0000 -0.3267  0.0000  0.0000  0.0000
  11.  C 3( 1s )    0.0057  0.0697  0.0000  0.0000 -0.0989  0.0002  0.0031  0.0000
  12.  C 3( 2s )    0.0658  0.4074  0.0000  0.0000 -0.4084  0.0031  0.0409  0.0000
  13.  C 3( 2px)    0.0000  0.0000  0.2497  0.0000  0.0000  0.0000  0.0000  0.0156
  14.  C 3( 2py)    0.0000  0.0000  0.0000  0.2497  0.0000  0.0000  0.0000  0.0000
  15.  C 3( 2pz)    0.0951  0.4094  0.0000  0.0000 -0.3267  0.0054  0.0615  0.0000
  16.  H 4( 1s )    0.0112  0.1105  0.0000  0.0613  0.1242  0.0893  0.4890  0.0000
  17.  H 5( 1s )    0.0112  0.1105  0.0000 -0.0613  0.1242  0.0893  0.4890  0.0000
  18.  H 6( 1s )    0.0112  0.1105  0.0613  0.0000 -0.1242  0.0006  0.0083  0.0037
  19.  H 7( 1s )    0.0112  0.1105 -0.0613  0.0000 -0.1242  0.0006  0.0083 -0.0037

           NAO         9      10      11      12      13      14      15      16
      ------------ ------- ------- ------- ------- ------- ------- ------- -------
   1.  C 1( 1s )    0.0000 -0.0951  0.0057  0.0658  0.0000  0.0000  0.0951  0.0112
   2.  C 1( 2s )    0.0000 -0.4094  0.0697  0.4074  0.0000  0.0000  0.4094  0.1105
   3.  C 1( 2px)    0.0000  0.0000  0.0000  0.0000  0.2497  0.0000  0.0000  0.0000
   4.  C 1( 2py)    0.2497  0.0000  0.0000  0.0000  0.0000  0.2497  0.0000  0.0613
   5.  C 1( 2pz)    0.0000 -0.3267 -0.0989 -0.4084  0.0000  0.0000 -0.3267  0.1242
   6.  C 2( 1s )    0.0000  0.0000  0.0002  0.0031  0.0000  0.0000  0.0054  0.0893
   7.  C 2( 2s )    0.0000  0.0000  0.0031  0.0409  0.0000  0.0000  0.0615  0.4890
   8.  C 2( 2px)    0.0000  0.0000  0.0000  0.0000  0.0156  0.0000  0.0000  0.0000
   9.  C 2( 2py)    1.0000  0.0000  0.0000  0.0000  0.0000  0.0156  0.0000  0.4002
  10.  C 2( 2pz)    0.0000  1.0000 -0.0054 -0.0615  0.0000  0.0000 -0.0859  0.2441
  11.  C 3( 1s )    0.0000 -0.0054  1.0000  0.0000  0.0000  0.0000  0.0000  0.0006
  12.  C 3( 2s )    0.0000 -0.0615  0.0000  1.0000  0.0000  0.0000  0.0000  0.0083
  13.  C 3( 2px)    0.0000  0.0000  0.0000  0.0000  1.0000  0.0000  0.0000  0.0000
  14.  C 3( 2py)    0.0156  0.0000  0.0000  0.0000  0.0000  1.0000  0.0000  0.0037
  15.  C 3( 2pz)    0.0000 -0.0859  0.0000  0.0000  0.0000  0.0000  1.0000  0.0127
  16.  H 4( 1s )    0.4002  0.2441  0.0006  0.0083  0.0000  0.0037  0.0127  1.0000
  17.  H 5( 1s )   -0.4002  0.2441  0.0006  0.0083  0.0000 -0.0037  0.0127  0.1509
  18.  H 6( 1s )    0.0000 -0.0127  0.0893  0.4890  0.4002  0.0000 -0.2441  0.0019
  19.  H 7( 1s )    0.0000 -0.0127  0.0893  0.4890 -0.4002  0.0000 -0.2441  0.0019

           NAO        17      18      19
      ------------ ------- ------- -------
   1.  C 1( 1s )    0.0112  0.0112  0.0112
   2.  C 1( 2s )    0.1105  0.1105  0.1105
   3.  C 1( 2px)    0.0000  0.0613 -0.0613
   4.  C 1( 2py)   -0.0613  0.0000  0.0000
   5.  C 1( 2pz)    0.1242 -0.1242 -0.1242
   6.  C 2( 1s )    0.0893  0.0006  0.0006
   7.  C 2( 2s )    0.4890  0.0083  0.0083
   8.  C 2( 2px)    0.0000  0.0037 -0.0037
   9.  C 2( 2py)   -0.4002  0.0000  0.0000
  10.  C 2( 2pz)    0.2441 -0.0127 -0.0127
  11.  C 3( 1s )    0.0006  0.0893  0.0893
  12.  C 3( 2s )    0.0083  0.4890  0.4890
  13.  C 3( 2px)    0.0000  0.4002 -0.4002
  14.  C 3( 2py)   -0.0037  0.0000  0.0000
  15.  C 3( 2pz)    0.0127 -0.2441 -0.2441
  16.  H 4( 1s )    0.1509  0.0019  0.0019
  17.  H 5( 1s )    1.0000  0.0019  0.0019
  18.  H 6( 1s )    0.0019  1.0000  0.1509
  19.  H 7( 1s )    0.0019  0.1509  1.0000


 PNAO density matrix:

           NAO         1       2       3       4       5       6       7       8
      ------------ ------- ------- ------- ------- ------- ------- ------- -------
   1.  C 1( 1s )    2.0000  0.0000  0.0000  0.0000  0.0000  0.0113  0.1315  0.0000
   2.  C 1( 2s )    0.0000  1.8211  0.0000  0.0000  0.0000  0.1389  0.8931  0.0000
   3.  C 1( 2px)    0.0000  0.0000  1.2375  0.0000  0.0000  0.0000  0.0000  1.2063
   4.  C 1( 2py)    0.0000  0.0000  0.0000  1.2375  0.0000  0.0000  0.0000  0.0000
   5.  C 1( 2pz)    0.0000  0.0000  0.0000  0.0000  1.8039  0.1979  0.8888  0.0000
   6.  C 2( 1s )    0.0113  0.1389  0.0000  0.0000  0.1979  2.0000  0.0000  0.0000
   7.  C 2( 2s )    0.1315  0.8931  0.0000  0.0000  0.8888  0.0000  1.8410  0.0000
   8.  C 2( 2px)    0.0000  0.0000  1.2063  0.0000  0.0000  0.0000  0.0000  1.3312
   9.  C 2( 2py)    0.0000  0.0000  0.0000  0.5415  0.0000  0.0000  0.0000  0.0000
  10.  C 2( 2pz)   -0.1904 -0.9626  0.0000  0.0000 -0.7711 -0.0006 -0.0131  0.0000
  11.  C 3( 1s )    0.0113  0.1389  0.0000  0.0000 -0.1979  0.0004  0.0064  0.0000
  12.  C 3( 2s )    0.1315  0.8931  0.0000  0.0000 -0.8888  0.0064  0.0732  0.0000
  13.  C 3( 2px)    0.0000  0.0000  0.5415  0.0000  0.0000  0.0000  0.0000  0.0607
  14.  C 3( 2py)    0.0000  0.0000  0.0000  1.2063  0.0000  0.0000  0.0000  0.0000
  15.  C 3( 2pz)    0.1904  0.9626  0.0000  0.0000 -0.7711  0.0112  0.1020  0.0000
  16.  H 4( 1s )    0.0227  0.2048  0.0000  0.2048  0.2428  0.1788  1.1252  0.0000
  17.  H 5( 1s )    0.0227  0.2048  0.0000 -0.2048  0.2428  0.1788  1.1252  0.0000
  18.  H 6( 1s )    0.0227  0.2048  0.2048  0.0000 -0.2428  0.0011  0.0226 -0.1157
  19.  H 7( 1s )    0.0227  0.2048 -0.2048  0.0000 -0.2428  0.0011  0.0226  0.1157

           NAO         9      10      11      12      13      14      15      16
      ------------ ------- ------- ------- ------- ------- ------- ------- -------
   1.  C 1( 1s )    0.0000 -0.1904  0.0113  0.1315  0.0000  0.0000  0.1904  0.0227
   2.  C 1( 2s )    0.0000 -0.9626  0.1389  0.8931  0.0000  0.0000  0.9626  0.2048
   3.  C 1( 2px)    0.0000  0.0000  0.0000  0.0000  0.5415  0.0000  0.0000  0.0000
   4.  C 1( 2py)    0.5415  0.0000  0.0000  0.0000  0.0000  1.2063  0.0000  0.2048
   5.  C 1( 2pz)    0.0000 -0.7711 -0.1979 -0.8888  0.0000  0.0000 -0.7711  0.2428
   6.  C 2( 1s )    0.0000 -0.0006  0.0004  0.0064  0.0000  0.0000  0.0112  0.1788
   7.  C 2( 2s )    0.0000 -0.0131  0.0064  0.0732  0.0000  0.0000  0.1020  1.1252
   8.  C 2( 2px)    0.0000  0.0000  0.0000  0.0000  0.0607  0.0000  0.0000  0.0000
   9.  C 2( 2py)    1.6426  0.0000  0.0000  0.0000  0.0000  0.0607  0.0000  1.0385
  10.  C 2( 2pz)    0.0000  1.6692 -0.0112 -0.1020  0.0000  0.0000 -0.1302  0.6394
  11.  C 3( 1s )    0.0000 -0.0112  2.0000  0.0000  0.0000  0.0000  0.0006  0.0011
  12.  C 3( 2s )    0.0000 -0.1020  0.0000  1.8410  0.0000  0.0000  0.0131  0.0226
  13.  C 3( 2px)    0.0000  0.0000  0.0000  0.0000  1.6426  0.0000  0.0000  0.0000
  14.  C 3( 2py)    0.0607  0.0000  0.0000  0.0000  0.0000  1.3312  0.0000 -0.1157
  15.  C 3( 2pz)    0.0000 -0.1302  0.0006  0.0131  0.0000  0.0000  1.6692  0.0365
  16.  H 4( 1s )    1.0385  0.6394  0.0011  0.0226  0.0000 -0.1157  0.0365  1.6297
  17.  H 5( 1s )   -1.0385  0.6394  0.0011  0.0226  0.0000  0.1157  0.0365  0.2810
  18.  H 6( 1s )    0.0000 -0.0365  0.1788  1.1252  1.0385  0.0000 -0.6394  0.0011
  19.  H 7( 1s )    0.0000 -0.0365  0.1788  1.1252 -1.0385  0.0000 -0.6394  0.0011

           NAO        17      18      19
      ------------ ------- ------- -------
   1.  C 1( 1s )    0.0227  0.0227  0.0227
   2.  C 1( 2s )    0.2048  0.2048  0.2048
   3.  C 1( 2px)    0.0000  0.2048 -0.2048
   4.  C 1( 2py)   -0.2048  0.0000  0.0000
   5.  C 1( 2pz)    0.2428 -0.2428 -0.2428
   6.  C 2( 1s )    0.1788  0.0011  0.0011
   7.  C 2( 2s )    1.1252  0.0226  0.0226
   8.  C 2( 2px)    0.0000 -0.1157  0.1157
   9.  C 2( 2py)   -1.0385  0.0000  0.0000
  10.  C 2( 2pz)    0.6394 -0.0365 -0.0365
  11.  C 3( 1s )    0.0011  0.1788  0.1788
  12.  C 3( 2s )    0.0226  1.1252  1.1252
  13.  C 3( 2px)    0.0000  1.0385 -1.0385
  14.  C 3( 2py)    0.1157  0.0000  0.0000
  15.  C 3( 2pz)    0.0365 -0.6394 -0.6394
  16.  H 4( 1s )    0.2810  0.0011  0.0011
  17.  H 5( 1s )    1.6297  0.0011  0.0011
  18.  H 6( 1s )    0.0011  1.6297  0.2810
  19.  H 7( 1s )    0.0011  0.2810  1.6297


 NAOs in the AO basis:

           AO          1       2       3       4       5       6       7       8
      ------------ ------- ------- ------- ------- ------- ------- ------- -------
   1.  C 1 (s)      0.9877 -0.3308  0.0000  0.0000  0.0000 -0.0028  0.0068  0.0000
   2.  C 1 (s)      0.0457  1.5013  0.0000  0.0000  0.0000 -0.0001 -0.3443  0.0000
   3.  C 1 (px)     0.0000  0.0000  1.0535  0.0000  0.0000  0.0000  0.0000 -0.1286
   4.  C 1 (py)     0.0000  0.0000  0.0000  1.0535  0.0000  0.0000  0.0000  0.0000
   5.  C 1 (pz)     0.0000  0.0000  0.0000  0.0000  1.5209  0.0000 -0.3502  0.0000
   6.  C 2 (s)     -0.0028  0.0088  0.0000  0.0000 -0.0091  0.9848 -0.3491  0.0000
   7.  C 2 (s)     -0.0002 -0.3489  0.0000  0.0000 -0.4744  0.0554  1.5491  0.0000
   8.  C 2 (px)     0.0000  0.0000 -0.1396  0.0000  0.0000  0.0000  0.0000  1.0245
   9.  C 2 (py)     0.0000  0.0000  0.0000 -0.1540  0.0000  0.0000  0.0000  0.0000
  10.  C 2 (pz)     0.0000  0.3191  0.0000  0.0000  0.3743  0.0000 -0.0883  0.0000
  11.  C 3 (s)     -0.0028  0.0088  0.0000  0.0000  0.0091 -0.0001 -0.0007  0.0000
  12.  C 3 (s)     -0.0002 -0.3489  0.0000  0.0000  0.4744  0.0000 -0.0501  0.0000
  13.  C 3 (px)     0.0000  0.0000 -0.1540  0.0000  0.0000  0.0000  0.0000  0.0190
  14.  C 3 (py)     0.0000  0.0000  0.0000 -0.1396  0.0000  0.0000  0.0000  0.0000
  15.  C 3 (pz)     0.0000 -0.3191  0.0000  0.0000  0.3743  0.0000 -0.0387  0.0000
  16.  H 4 (s)      0.0000 -0.0173  0.0000  0.0169 -0.0140  0.0000 -0.3226  0.0000
  17.  H 5 (s)      0.0000 -0.0173  0.0000 -0.0169 -0.0140  0.0000 -0.3226  0.0000
  18.  H 6 (s)      0.0000 -0.0173  0.0169  0.0000  0.0140  0.0000 -0.0006 -0.0031
  19.  H 7 (s)      0.0000 -0.0173 -0.0169  0.0000  0.0140  0.0000 -0.0006  0.0031

           AO          9      10      11      12      13      14      15      16
      ------------ ------- ------- ------- ------- ------- ------- ------- -------
   1.  C 1 (s)      0.0000  0.0138 -0.0028  0.0068  0.0000  0.0000 -0.0138 -0.0007
   2.  C 1 (s)      0.0000  0.3931 -0.0001 -0.3443  0.0000  0.0000 -0.3931 -0.0202
   3.  C 1 (px)     0.0000  0.0000  0.0000  0.0000 -0.1420  0.0000  0.0000  0.0000
   4.  C 1 (py)    -0.1420  0.0000  0.0000  0.0000  0.0000 -0.1286  0.0000  0.0148
   5.  C 1 (pz)     0.0000  0.3449  0.0000  0.3502  0.0000  0.0000  0.3449 -0.0123
   6.  C 2 (s)      0.0000  0.0055 -0.0001 -0.0007  0.0000  0.0000 -0.0002  0.0049
   7.  C 2 (s)      0.0000 -0.1098  0.0000 -0.0501  0.0000  0.0000 -0.0483 -0.3817
   8.  C 2 (px)     0.0000  0.0000  0.0000  0.0000  0.0190  0.0000  0.0000  0.0000
   9.  C 2 (py)     1.2278  0.0000  0.0000  0.0000  0.0000  0.0190  0.0000 -0.2999
  10.  C 2 (pz)     0.0000  1.3020  0.0000  0.0387  0.0000  0.0000  0.0401 -0.1805
  11.  C 3 (s)      0.0000  0.0002  0.9848 -0.3491  0.0000  0.0000 -0.0055 -0.0002
  12.  C 3 (s)      0.0000  0.0483  0.0554  1.5491  0.0000  0.0000  0.1098 -0.0007
  13.  C 3 (px)     0.0000  0.0000  0.0000  0.0000  1.2278  0.0000  0.0000  0.0000
  14.  C 3 (py)     0.0190  0.0000  0.0000  0.0000  0.0000  1.0245  0.0000 -0.0030
  15.  C 3 (pz)     0.0000  0.0401  0.0000  0.0883  0.0000  0.0000  1.3020 -0.0007
  16.  H 4 (s)     -0.3158 -0.1900  0.0000 -0.0006  0.0000 -0.0031 -0.0007  1.2808
  17.  H 5 (s)      0.3158 -0.1900  0.0000 -0.0006  0.0000  0.0031 -0.0007 -0.0240
  18.  H 6 (s)      0.0000  0.0007  0.0000 -0.3226 -0.3158  0.0000  0.1900 -0.0002
  19.  H 7 (s)      0.0000  0.0007  0.0000 -0.3226  0.3158  0.0000  0.1900 -0.0002

           AO         17      18      19
      ------------ ------- ------- -------
   1.  C 1 (s)     -0.0007 -0.0007 -0.0007
   2.  C 1 (s)     -0.0202 -0.0202 -0.0202
   3.  C 1 (px)     0.0000  0.0148 -0.0148
   4.  C 1 (py)    -0.0148  0.0000  0.0000
   5.  C 1 (pz)    -0.0123  0.0123  0.0123
   6.  C 2 (s)      0.0049 -0.0002 -0.0002
   7.  C 2 (s)     -0.3817 -0.0007 -0.0007
   8.  C 2 (px)     0.0000 -0.0030  0.0030
   9.  C 2 (py)     0.2999  0.0000  0.0000
  10.  C 2 (pz)    -0.1805  0.0007  0.0007
  11.  C 3 (s)     -0.0002  0.0049  0.0049
  12.  C 3 (s)     -0.0007 -0.3817 -0.3817
  13.  C 3 (px)     0.0000 -0.2999  0.2999
  14.  C 3 (py)     0.0030  0.0000  0.0000
  15.  C 3 (pz)    -0.0007  0.1805  0.1805
  16.  H 4 (s)     -0.0240 -0.0002 -0.0002
  17.  H 5 (s)      1.2808 -0.0002 -0.0002
  18.  H 6 (s)     -0.0002  1.2808 -0.0240
  19.  H 7 (s)     -0.0002 -0.0240  1.2808


 NAO density matrix:

           NAO         1       2       3       4       5       6       7       8
      ------------ ------- ------- ------- ------- ------- ------- ------- -------
   1.  C 1( 1s )    2.0000  0.0000  0.0000  0.0000  0.0000  0.0000 -0.0004  0.0000
   2.  C 1( 2s )    0.0000  1.0933  0.0000  0.0000  0.0000 -0.0012  0.4054  0.0000
   3.  C 1( 2px)    0.0000  0.0000  0.9162  0.0000  0.0000  0.0000  0.0000  0.9678
   4.  C 1( 2py)    0.0000  0.0000  0.0000  0.9162  0.0000  0.0000  0.0000  0.0000
   5.  C 1( 2pz)    0.0000  0.0000  0.0000  0.0000  0.9621  0.0002  0.4452  0.0000
   6.  C 2( 1s )    0.0000 -0.0012  0.0000  0.0000  0.0002  2.0000  0.0000  0.0000
   7.  C 2( 2s )   -0.0004  0.4054  0.0000  0.0000  0.4452  0.0000  1.0801  0.0000
   8.  C 2( 2px)    0.0000  0.0000  0.9678  0.0000  0.0000  0.0000  0.0000  1.1016
   9.  C 2( 2py)    0.0000  0.0000  0.0000  0.2326  0.0000  0.0000  0.0000  0.0000
  10.  C 2( 2pz)   -0.0003 -0.5748  0.0000  0.0000 -0.5485 -0.0010  0.0463  0.0000
  11.  C 3( 1s )    0.0000 -0.0012  0.0000  0.0000 -0.0002  0.0000  0.0007  0.0000
  12.  C 3( 2s )   -0.0004  0.4054  0.0000  0.0000 -0.4452  0.0007 -0.0057  0.0000
  13.  C 3( 2px)    0.0000  0.0000  0.2326  0.0000  0.0000  0.0000  0.0000 -0.0284
  14.  C 3( 2py)    0.0000  0.0000  0.0000  0.9678  0.0000  0.0000  0.0000  0.0000
  15.  C 3( 2pz)    0.0003  0.5748  0.0000  0.0000 -0.5485  0.0008 -0.0287  0.0000
  16.  H 4( 1s )    0.0004 -0.0216  0.0000  0.0329 -0.0107  0.0004  0.5602  0.0000
  17.  H 5( 1s )    0.0004 -0.0216  0.0000 -0.0329 -0.0107  0.0004  0.5602  0.0000
  18.  H 6( 1s )    0.0004 -0.0216  0.0329  0.0000  0.0107 -0.0001  0.0143 -0.1615
  19.  H 7( 1s )    0.0004 -0.0216 -0.0329  0.0000  0.0107 -0.0001  0.0143  0.1615

           NAO         9      10      11      12      13      14      15      16
      ------------ ------- ------- ------- ------- ------- ------- ------- -------
   1.  C 1( 1s )    0.0000 -0.0003  0.0000 -0.0004  0.0000  0.0000  0.0003  0.0004
   2.  C 1( 2s )    0.0000 -0.5748 -0.0012  0.4054  0.0000  0.0000  0.5748 -0.0216
   3.  C 1( 2px)    0.0000  0.0000  0.0000  0.0000  0.2326  0.0000  0.0000  0.0000
   4.  C 1( 2py)    0.2326  0.0000  0.0000  0.0000  0.0000  0.9678  0.0000  0.0329
   5.  C 1( 2pz)    0.0000 -0.5485 -0.0002 -0.4452  0.0000  0.0000 -0.5485 -0.0107
   6.  C 2( 1s )    0.0000 -0.0010  0.0000  0.0007  0.0000  0.0000  0.0008  0.0004
   7.  C 2( 2s )    0.0000  0.0463  0.0007 -0.0057  0.0000  0.0000 -0.0287  0.5602
   8.  C 2( 2px)    0.0000  0.0000  0.0000  0.0000 -0.0284  0.0000  0.0000  0.0000
   9.  C 2( 2py)    1.0072  0.0000  0.0000  0.0000  0.0000 -0.0284  0.0000  0.6874
  10.  C 2( 2pz)    0.0000  0.9820 -0.0008  0.0287  0.0000  0.0000  0.0528  0.4254
  11.  C 3( 1s )    0.0000 -0.0008  2.0000  0.0000  0.0000  0.0000  0.0010 -0.0001
  12.  C 3( 2s )    0.0000  0.0287  0.0000  1.0801  0.0000  0.0000 -0.0463  0.0143
  13.  C 3( 2px)    0.0000  0.0000  0.0000  0.0000  1.0072  0.0000  0.0000  0.0000
  14.  C 3( 2py)   -0.0284  0.0000  0.0000  0.0000  0.0000  1.1016  0.0000 -0.1615
  15.  C 3( 2pz)    0.0000  0.0528  0.0010 -0.0463  0.0000  0.0000  0.9820  0.0200
  16.  H 4( 1s )    0.6874  0.4254 -0.0001  0.0143  0.0000 -0.1615  0.0200  0.9426
  17.  H 5( 1s )   -0.6874  0.4254 -0.0001  0.0143  0.0000  0.1615  0.0200 -0.0324
  18.  H 6( 1s )    0.0000 -0.0200  0.0004  0.5602  0.6874  0.0000 -0.4254 -0.0035
  19.  H 7( 1s )    0.0000 -0.0200  0.0004  0.5602 -0.6874  0.0000 -0.4254 -0.0035

           NAO        17      18      19
      ------------ ------- ------- -------
   1.  C 1( 1s )    0.0004  0.0004  0.0004
   2.  C 1( 2s )   -0.0216 -0.0216 -0.0216
   3.  C 1( 2px)    0.0000  0.0329 -0.0329
   4.  C 1( 2py)   -0.0329  0.0000  0.0000
   5.  C 1( 2pz)   -0.0107  0.0107  0.0107
   6.  C 2( 1s )    0.0004 -0.0001 -0.0001
   7.  C 2( 2s )    0.5602  0.0143  0.0143
   8.  C 2( 2px)    0.0000 -0.1615  0.1615
   9.  C 2( 2py)   -0.6874  0.0000  0.0000
  10.  C 2( 2pz)    0.4254 -0.0200 -0.0200
  11.  C 3( 1s )   -0.0001  0.0004  0.0004
  12.  C 3( 2s )    0.0143  0.5602  0.5602
  13.  C 3( 2px)    0.0000  0.6874 -0.6874
  14.  C 3( 2py)    0.1615  0.0000  0.0000
  15.  C 3( 2pz)    0.0200 -0.4254 -0.4254
  16.  H 4( 1s )   -0.0324 -0.0035 -0.0035
  17.  H 5( 1s )    0.9426 -0.0035 -0.0035
  18.  H 6( 1s )   -0.0035  0.9426 -0.0324
  19.  H 7( 1s )   -0.0035 -0.0324  0.9426


 NATURAL BOND ORBITAL ANALYSIS:

 Initiate 2-center NBO search using THRESH = 1.900 and PRJTHR = 0.300

 Search of NAO DM block for core orbitals on atom:   1
      Eigenvector ( 1) has occupancy 2.00000
            1.0000 0.0000 0.0000 0.0000 0.0000
        1 eigenvector(s) stashed in permanent list

 Search of NAO DM block for core orbitals on atom:   2
      Eigenvector ( 1) has occupancy 2.00000
            1.0000 0.0000 0.0000 0.0000 0.0000
        1 eigenvector(s) stashed in permanent list

 Search of NAO DM block for core orbitals on atom:   3
      Eigenvector ( 1) has occupancy 2.00000
            1.0000 0.0000 0.0000 0.0000 0.0000
        1 eigenvector(s) stashed in permanent list

 Core orbitals projected from the NAO density matrix
      16.000 electrons remain (>1.900); search continues

 Search of NAO DM block for the following atom(s):   1
      Select eigenvectors with eigenvalue > 1.900
       1.093 0.962 0.916 0.916 0.000

 Search of NAO DM block for the following atom(s):   2
      Select eigenvectors with eigenvalue > 1.900
       1.102 1.098 1.007 0.964 0.000

 Search of NAO DM block for the following atom(s):   3
      Select eigenvectors with eigenvalue > 1.900
       1.102 1.098 1.007 0.964 0.000

 No NHOs identified in the 1-center search of the NAO density matrix
      16.000 electrons remain (>1.900); search continues

 Search of NAO DM block for the following atom(s):   1   2
      Select eigenvectors with eigenvalue > 1.900
       2.000 1.981 1.199 1.105 1.011 0.725 0.037 0.001 0.000 0.000
      Eigenvector ( 1) has occupancy 1.99980
            0.0000-0.5390 0.0000 0.0000-0.4740 0.0000-0.4399 0.0000
            0.0000 0.5398
      Eigenvector ( 2) has occupancy 1.98117
            0.0000 0.0000 0.6726 0.0000 0.0000 0.0000 0.0000 0.7400
            0.0000 0.0000
      2 hybrids on atom 1 stashed in prospective list
      2 hybrids on atom 2 stashed in prospective list

 Search of NAO DM block for the following atom(s):   1   3
      Select eigenvectors with eigenvalue > 1.900
       2.000 1.981 1.199 1.105 1.011 0.725 0.037 0.001 0.000 0.000
      Eigenvector ( 1) has occupancy 1.99980
            0.0000 0.5390 0.0000 0.0000-0.4740 0.0000 0.4399 0.0000
            0.0000 0.5398
      Eigenvector ( 2) has occupancy 1.98117
            0.0000 0.0000 0.0000 0.6726 0.0000 0.0000 0.0000 0.0000
            0.7400 0.0000
      2 hybrids on atom 1 stashed in prospective list
      2 hybrids on atom 3 stashed in prospective list

 Search of NAO DM block for the following atom(s):   2   4
      Select eigenvectors with eigenvalue > 1.900
       1.982 1.102 1.054 0.966 0.010 0.000
      Eigenvector ( 1) has occupancy 1.98201
            0.0000 0.4426 0.0000 0.4843 0.3127 0.6868
      1 hybrid on atom 2 stashed in prospective list
      1 hybrid on atom 4 stashed in prospective list

 Search of NAO DM block for the following atom(s):   2   5
      Select eigenvectors with eigenvalue > 1.900
       1.982 1.102 1.054 0.966 0.010 0.000
      Eigenvector ( 1) has occupancy 1.98201
            0.0000 0.4426 0.0000-0.4843 0.3127 0.6868
      1 hybrid on atom 2 stashed in prospective list
      1 hybrid on atom 5 stashed in prospective list

 Search of NAO DM block for the following atom(s):   3   6
      Select eigenvectors with eigenvalue > 1.900
       1.982 1.102 1.054 0.966 0.010 0.000
      Eigenvector ( 1) has occupancy 1.98201
            0.0000 0.4426 0.4843 0.0000-0.3127 0.6868
      1 hybrid on atom 3 stashed in prospective list
      1 hybrid on atom 6 stashed in prospective list

 Search of NAO DM block for the following atom(s):   3   7
      Select eigenvectors with eigenvalue > 1.900
       1.982 1.102 1.054 0.966 0.010 0.000
      Eigenvector ( 1) has occupancy 1.98201
            0.0000 0.4426-0.4843 0.0000-0.3127 0.6868
      1 hybrid on atom 3 stashed in prospective list
      1 hybrid on atom 7 stashed in prospective list

 Stash prospective hybrids having projection expectation value > 0.300
       1.000 1.000 1.000 1.000 0.985 0.985 0.985 0.985 0.985 0.985 0.985 0.985
       0.984 0.984 0.984 0.984
      0 hybrids eliminated in 1 pass
      16 hybrids moved from prospective to permanent list

 NHOs of 2-center eigenvectors projected from the NAO density matrix
       0.000 electrons remain in the fully projected matrix

 Search of NHO DM block for the following atom(s):   1
      Select eigenvectors with eigenvalue > 1.900
       2.000 0.000 0.000 0.000 0.000
      Eigenvector ( 1) has occupancy 2.00000
            1.0000 0.0000 0.0000 0.0000 0.0000
           NBO accepted:    1. Label:CR ( 1)   1
        1 eigenvector(s) stashed in permanent list

 Search of NHO DM block for the following atom(s):   2
      Select eigenvectors with eigenvalue > 1.900
       2.000 0.000 0.000 0.000 0.000
      Eigenvector ( 1) has occupancy 2.00000
            1.0000 0.0000 0.0000 0.0000 0.0000
           NBO accepted:    2. Label:CR ( 1)   2
        1 eigenvector(s) stashed in permanent list

 Search of NHO DM block for the following atom(s):   3
      Select eigenvectors with eigenvalue > 1.900
       2.000 0.000 0.000 0.000 0.000
      Eigenvector ( 1) has occupancy 2.00000
            1.0000 0.0000 0.0000 0.0000 0.0000
           NBO accepted:    3. Label:CR ( 1)   3
        1 eigenvector(s) stashed in permanent list

  1-center NBOs projected from the NHO density matrix
      16.000 electrons remain (>1.900); search continues

 Search of NHO DM block for the following atom(s):   1   2
      Select eigenvectors with eigenvalue > 1.900
       1.997 1.981 0.037 0.004 0.000 0.000 0.000 0.000 0.000 0.000
      Eigenvector ( 1) has occupancy 1.99707
            0.0000 0.0000 0.0000 0.7167 0.0000 0.0000 0.0000 0.0000
            0.0000 0.6973
      Occupancy is 1.997 after deleting minor hybrid components
            0.0000 0.0000 0.0000 0.7167 0.0000 0.0000 0.0000 0.0000
            0.0000 0.6973
           NBO accepted:    4. Label:BD ( 1)   1   2
      Occupancy is 0.004 for antibonding component
            0.0000 0.0000 0.0000-0.6973 0.0000 0.0000 0.0000 0.0000
            0.0000 0.7167
           NBO accepted:    5. Label:BD*( 1)   1   2
      Eigenvector ( 2) has occupancy 1.98117
            0.0000 0.6726 0.0000 0.0000 0.0000 0.0000 0.7400 0.0000
            0.0000 0.0000
      Occupancy is 1.981 after deleting minor hybrid components
            0.0000 0.6726 0.0000 0.0000 0.0000 0.0000 0.7400 0.0000
            0.0000 0.0000
           NBO accepted:    6. Label:BD ( 2)   1   2
      Occupancy is 0.037 for antibonding component
            0.0000 0.7400 0.0000 0.0000 0.0000 0.0000-0.6726 0.0000
            0.0000 0.0000
           NBO accepted:    7. Label:BD*( 2)   1   2
        4 eigenvector(s) stashed in permanent list

 Search of NHO DM block for the following atom(s):   1   3
      Select eigenvectors with eigenvalue > 1.900
       1.997 1.981 0.037 0.004 0.000 0.000 0.000 0.000 0.000 0.000
      Eigenvector ( 1) has occupancy 1.99707
            0.0000 0.0000 0.0000 0.0000 0.7167 0.0000 0.0000 0.0000
            0.0000 0.6973
      Occupancy is 1.997 after deleting minor hybrid components
            0.0000 0.0000 0.0000 0.0000 0.7167 0.0000 0.0000 0.0000
            0.0000 0.6973
           NBO accepted:    8. Label:BD ( 1)   1   3
      Occupancy is 0.004 for antibonding component
            0.0000 0.0000 0.0000 0.0000-0.6973 0.0000 0.0000 0.0000
            0.0000 0.7167
           NBO accepted:    9. Label:BD*( 1)   1   3
      Eigenvector ( 2) has occupancy 1.98117
            0.0000 0.0000 0.6726 0.0000 0.0000 0.0000 0.7400 0.0000
            0.0000 0.0000
      Occupancy is 1.981 after deleting minor hybrid components
            0.0000 0.0000 0.6726 0.0000 0.0000 0.0000 0.7400 0.0000
            0.0000 0.0000
           NBO accepted:   10. Label:BD ( 2)   1   3
      Occupancy is 0.037 for antibonding component
            0.0000 0.0000 0.7400 0.0000 0.0000 0.0000-0.6726 0.0000
            0.0000 0.0000
           NBO accepted:   11. Label:BD*( 2)   1   3
        4 eigenvector(s) stashed in permanent list

 Search of NHO DM block for the following atom(s):   2   4
      Select eigenvectors with eigenvalue > 1.900
       1.980 0.011 0.000 0.000 0.000 0.000
      Eigenvector ( 1) has occupancy 1.98020
            0.0000 0.0000 0.7258 0.0000 0.0000 0.6879
      Occupancy is 1.980 after deleting minor hybrid components
            0.0000 0.0000 0.7258 0.0000 0.0000 0.6879
           NBO accepted:   12. Label:BD ( 1)   2   4
      Occupancy is 0.011 for antibonding component
            0.0000 0.0000-0.6879 0.0000 0.0000 0.7258
           NBO accepted:   13. Label:BD*( 1)   2   4
        2 eigenvector(s) stashed in permanent list

 Search of NHO DM block for the following atom(s):   2   5
      Select eigenvectors with eigenvalue > 1.900
       1.980 0.011 0.000 0.000 0.000 0.000
      Eigenvector ( 1) has occupancy 1.98020
            0.0000 0.0000 0.0000 0.7258 0.0000 0.6879
      Occupancy is 1.980 after deleting minor hybrid components
            0.0000 0.0000 0.0000 0.7258 0.0000 0.6879
           NBO accepted:   14. Label:BD ( 1)   2   5
      Occupancy is 0.011 for antibonding component
            0.0000 0.0000 0.0000-0.6879 0.0000 0.7258
           NBO accepted:   15. Label:BD*( 1)   2   5
        2 eigenvector(s) stashed in permanent list

 Search of NHO DM block for the following atom(s):   3   6
      Select eigenvectors with eigenvalue > 1.900
       1.980 0.011 0.000 0.000 0.000 0.000
      Eigenvector ( 1) has occupancy 1.98020
            0.0000 0.0000 0.7258 0.0000 0.0000 0.6879
      Occupancy is 1.980 after deleting minor hybrid components
            0.0000 0.0000 0.7258 0.0000 0.0000 0.6879
           NBO accepted:   16. Label:BD ( 1)   3   6
      Occupancy is 0.011 for antibonding component
            0.0000 0.0000-0.6879 0.0000 0.0000 0.7258
           NBO accepted:   17. Label:BD*( 1)   3   6
        2 eigenvector(s) stashed in permanent list

 Search of NHO DM block for the following atom(s):   3   7
      Select eigenvectors with eigenvalue > 1.900
       1.980 0.011 0.000 0.000 0.000 0.000
      Eigenvector ( 1) has occupancy 1.98020
            0.0000 0.0000 0.0000 0.7258 0.0000 0.6879
      Occupancy is 1.980 after deleting minor hybrid components
            0.0000 0.0000 0.0000 0.7258 0.0000 0.6879
           NBO accepted:   18. Label:BD ( 1)   3   7
      Occupancy is 0.011 for antibonding component
            0.0000 0.0000 0.0000-0.6879 0.0000 0.7258
           NBO accepted:   19. Label:BD*( 1)   3   7
        2 eigenvector(s) stashed in permanent list

  2-center NBOs projected from the NHO density matrix
       0.000 electrons remain in the fully projected matrix

                            Occupancies       Lewis Structure    Low   High
         Max    Occ     -------------------  -----------------   occ   occ
  Cycle  Ctr   Thresh    Lewis   non-Lewis     CR  BD  nC  LP    (L)   (NL)
 ============================================================================
    1     2     1.90    21.87726   0.12274      3   8   0   0     0      0
 ----------------------------------------------------------------------------

 Structure accepted: No low occupancy Lewis orbitals

 -------------------------------------------------------
   Core                      6.00000 (100.000% of   6)
   Valence Lewis            15.87726 ( 99.233% of  16)
  ==================      =============================
   Total Lewis              21.87726 ( 99.442% of  22)
  -----------------------------------------------------
   Valence non-Lewis         0.12274 (  0.558% of  22)
   Rydberg non-Lewis         0.00000 (  0.000% of  22)
  ==================      =============================
   Total non-Lewis           0.12274 (  0.558% of  22)
 -------------------------------------------------------


     (Occupancy)   Bond orbital / Coefficients / Hybrids
 ------------------ Lewis ------------------------------------------------------
   1. (2.00000) CR ( 1) C  1            s(100.00%)
                                         1.0000  0.0000  0.0000  0.0000  0.0000
   2. (2.00000) CR ( 1) C  2            s(100.00%)
                                         1.0000  0.0000  0.0000  0.0000  0.0000
   3. (2.00000) CR ( 1) C  3            s(100.00%)
                                         1.0000  0.0000  0.0000  0.0000  0.0000
   4. (1.99707) BD ( 1) C  1- C  2
               ( 51.37%)   0.7167* C  1 s( 50.00%)p 1.00( 50.00%)
                                         0.0000  0.7071  0.0000  0.0000  0.7071
               ( 48.63%)   0.6973* C  2 s( 36.35%)p 1.75( 63.65%)
                                         0.0000  0.6029  0.0000  0.0000 -0.7978
   5. (1.98117) BD ( 2) C  1- C  2
               ( 45.23%)   0.6726* C  1 s(  0.00%)p 1.00(100.00%)
                                         0.0000  0.0000  1.0000  0.0000  0.0000
               ( 54.77%)   0.7400* C  2 s(  0.00%)p 1.00(100.00%)
                                         0.0000  0.0000  1.0000  0.0000  0.0000
   6. (1.99707) BD ( 1) C  1- C  3
               ( 51.37%)   0.7167* C  1 s( 50.00%)p 1.00( 50.00%)
                                         0.0000  0.7071  0.0000  0.0000 -0.7071
               ( 48.63%)   0.6973* C  3 s( 36.35%)p 1.75( 63.65%)
                                         0.0000  0.6029  0.0000  0.0000  0.7978
   7. (1.98117) BD ( 2) C  1- C  3
               ( 45.23%)   0.6726* C  1 s(  0.00%)p 1.00(100.00%)
                                         0.0000  0.0000  0.0000  1.0000  0.0000
               ( 54.77%)   0.7400* C  3 s(  0.00%)p 1.00(100.00%)
                                         0.0000  0.0000  0.0000  1.0000  0.0000
   8. (1.98020) BD ( 1) C  2- H  4
               ( 52.68%)   0.7258* C  2 s( 31.82%)p 2.14( 68.18%)
                                         0.0000  0.5641  0.0000  0.7071  0.4263
               ( 47.32%)   0.6879* H  4 s(100.00%)
                                         1.0000
   9. (1.98020) BD ( 1) C  2- H  5
               ( 52.68%)   0.7258* C  2 s( 31.82%)p 2.14( 68.18%)
                                         0.0000  0.5641  0.0000 -0.7071  0.4263
               ( 47.32%)   0.6879* H  5 s(100.00%)
                                         1.0000
  10. (1.98020) BD ( 1) C  3- H  6
               ( 52.68%)   0.7258* C  3 s( 31.82%)p 2.14( 68.18%)
                                         0.0000  0.5641  0.7071  0.0000 -0.4263
               ( 47.32%)   0.6879* H  6 s(100.00%)
                                         1.0000
  11. (1.98020) BD ( 1) C  3- H  7
               ( 52.68%)   0.7258* C  3 s( 31.82%)p 2.14( 68.18%)
                                         0.0000  0.5641 -0.7071  0.0000 -0.4263
               ( 47.32%)   0.6879* H  7 s(100.00%)
                                         1.0000
 ---------------- non-Lewis ----------------------------------------------------
  12. (0.00371) BD*( 1) C  1- C  2
               ( 48.63%)   0.6973* C  1 s( 50.00%)p 1.00( 50.00%)
                                         0.0000  0.7071  0.0000  0.0000  0.7071
               ( 51.37%)  -0.7167* C  2 s( 36.35%)p 1.75( 63.65%)
                                         0.0000  0.6029  0.0000  0.0000 -0.7978
  13. (0.03665) BD*( 2) C  1- C  2
               ( 54.77%)   0.7400* C  1 s(  0.00%)p 1.00(100.00%)
                                         0.0000  0.0000  1.0000  0.0000  0.0000
               ( 45.23%)  -0.6726* C  2 s(  0.00%)p 1.00(100.00%)
                                         0.0000  0.0000  1.0000  0.0000  0.0000
  14. (0.00371) BD*( 1) C  1- C  3
               ( 48.63%)   0.6973* C  1 s( 50.00%)p 1.00( 50.00%)
                                         0.0000  0.7071  0.0000  0.0000 -0.7071
               ( 51.37%)  -0.7167* C  3 s( 36.35%)p 1.75( 63.65%)
                                         0.0000  0.6029  0.0000  0.0000  0.7978
  15. (0.03665) BD*( 2) C  1- C  3
               ( 54.77%)   0.7400* C  1 s(  0.00%)p 1.00(100.00%)
                                         0.0000  0.0000  0.0000  1.0000  0.0000
               ( 45.23%)  -0.6726* C  3 s(  0.00%)p 1.00(100.00%)
                                         0.0000  0.0000  0.0000  1.0000  0.0000
  16. (0.01050) BD*( 1) C  2- H  4
               ( 47.32%)   0.6879* C  2 s( 31.82%)p 2.14( 68.18%)
                                         0.0000 -0.5641  0.0000 -0.7071 -0.4263
               ( 52.68%)  -0.7258* H  4 s(100.00%)
                                        -1.0000
  17. (0.01050) BD*( 1) C  2- H  5
               ( 47.32%)   0.6879* C  2 s( 31.82%)p 2.14( 68.18%)
                                         0.0000 -0.5641  0.0000  0.7071 -0.4263
               ( 52.68%)  -0.7258* H  5 s(100.00%)
                                        -1.0000
  18. (0.01050) BD*( 1) C  3- H  6
               ( 47.32%)   0.6879* C  3 s( 31.82%)p 2.14( 68.18%)
                                         0.0000 -0.5641 -0.7071  0.0000  0.4263
               ( 52.68%)  -0.7258* H  6 s(100.00%)
                                        -1.0000
  19. (0.01050) BD*( 1) C  3- H  7
               ( 47.32%)   0.6879* C  3 s( 31.82%)p 2.14( 68.18%)
                                         0.0000 -0.5641  0.7071  0.0000  0.4263
               ( 52.68%)  -0.7258* H  7 s(100.00%)
                                        -1.0000


 NHO DIRECTIONALITY AND BOND BENDING (deviation from line of nuclear centers at
                                      the position of maximum hybrid amplitude)

         [Thresholds for printing:  angular deviation  >  1.0 degree]
                                    p- or d-character  > 25.0%
                                    orbital occupancy  >  0.10e

                        Line of Centers        Hybrid 1             Hybrid 2
                        ---------------  -------------------  ------------------
           NBO            Theta   Phi    Theta   Phi    Dev   Theta   Phi    Dev
 ===============================================================================
   5. BD ( 2) C  1- C  2    0.0    0.0    90.0    0.0  90.0    89.8    0.0  90.2
   7. BD ( 2) C  1- C  3  180.0    0.0    90.0  270.0  90.0    90.2  270.0  90.2
   8. BD ( 1) C  2- H  4   58.6   90.0    59.7   90.0   1.1     --     --    --
   9. BD ( 1) C  2- H  5   58.6  270.0    59.7  270.0   1.1     --     --    --
  10. BD ( 1) C  3- H  6  121.4    0.0   120.3    0.0   1.1     --     --    --
  11. BD ( 1) C  3- H  7  121.4  180.0   120.3  180.0   1.1     --     --    --


 SECOND ORDER PERTURBATION THEORY ANALYSIS OF FOCK MATRIX IN NBO BASIS

     Threshold for printing:   0.50 kcal/mol
                                                          E(2) E(NL)-E(L) F(L,NL)
      Donor (L) NBO              Acceptor (NL) NBO      kcal/mol   a.u.    a.u.
 ===============================================================================

 within unit  1
    4. BD ( 1) C  1- C  2      14. BD*( 1) C  1- C  3      2.11    1.83   0.055
    5. BD ( 2) C  1- C  2      18. BD*( 1) C  3- H  6      6.72    1.06   0.075
    5. BD ( 2) C  1- C  2      19. BD*( 1) C  3- H  7      6.72    1.06   0.075
    6. BD ( 1) C  1- C  3      12. BD*( 1) C  1- C  2      2.11    1.83   0.055
    7. BD ( 2) C  1- C  3      16. BD*( 1) C  2- H  4      6.72    1.06   0.075
    7. BD ( 2) C  1- C  3      17. BD*( 1) C  2- H  5      6.72    1.06   0.075
    8. BD ( 1) C  2- H  4      15. BD*( 2) C  1- C  3      9.70    0.98   0.087
    8. BD ( 1) C  2- H  4      17. BD*( 1) C  2- H  5      0.95    1.37   0.032
    9. BD ( 1) C  2- H  5      15. BD*( 2) C  1- C  3      9.70    0.98   0.087
    9. BD ( 1) C  2- H  5      16. BD*( 1) C  2- H  4      0.95    1.37   0.032
   10. BD ( 1) C  3- H  6      13. BD*( 2) C  1- C  2      9.70    0.98   0.087
   10. BD ( 1) C  3- H  6      19. BD*( 1) C  3- H  7      0.95    1.37   0.032
   11. BD ( 1) C  3- H  7      13. BD*( 2) C  1- C  2      9.70    0.98   0.087
   11. BD ( 1) C  3- H  7      18. BD*( 1) C  3- H  6      0.95    1.37   0.032


 NATURAL BOND ORBITALS (Summary):

                                                     Principal Delocalizations
           NBO                 Occupancy    Energy   (geminal,vicinal,remote)
 ===============================================================================
 Molecular unit  1  (C3H4)
 ------ Lewis --------------------------------------
    1. CR ( 1) C  1             2.00000   -11.02444
    2. CR ( 1) C  2             2.00000   -11.01350
    3. CR ( 1) C  3             2.00000   -11.01350
    4. BD ( 1) C  1- C  2       1.99707    -0.81960  14(g)
    5. BD ( 2) C  1- C  2       1.98117    -0.32857  18(v),19(v)
    6. BD ( 1) C  1- C  3       1.99707    -0.81960  12(g)
    7. BD ( 2) C  1- C  3       1.98117    -0.32857  16(v),17(v)
    8. BD ( 1) C  2- H  4       1.98020    -0.63563  15(v),17(g)
    9. BD ( 1) C  2- H  5       1.98020    -0.63563  15(v),16(g)
   10. BD ( 1) C  3- H  6       1.98020    -0.63563  13(v),19(g)
   11. BD ( 1) C  3- H  7       1.98020    -0.63563  13(v),18(g)
 ------ non-Lewis ----------------------------------
   12. BD*( 1) C  1- C  2       0.00371     1.00994
   13. BD*( 2) C  1- C  2       0.03665     0.34028
   14. BD*( 1) C  1- C  3       0.00371     1.00994
   15. BD*( 2) C  1- C  3       0.03665     0.34028
   16. BD*( 1) C  2- H  4       0.01050     0.72973
   17. BD*( 1) C  2- H  5       0.01050     0.72973
   18. BD*( 1) C  3- H  6       0.01050     0.72973
   19. BD*( 1) C  3- H  7       0.01050     0.72973
          -------------------------------
                 Total Lewis   21.87726  ( 99.4421%)
           Valence non-Lewis    0.12274  (  0.5579%)
           Rydberg non-Lewis    0.00000  (  0.0000%)
          -------------------------------
               Total unit  1   22.00000  (100.0000%)
              Charge unit  1    0.00000

 $CHOOSE
   BOND D 1 2 D 1 3 S 2 4 S 2 5 S 3 6 S 3 7 END
 $END

 NBO analysis completed in 0.20 CPU seconds (0 wall seconds)
 Maximum scratch memory used by NBO was 224278 words (1.71 MB)
 Maximum scratch memory used by G16NBO was 8791 words (0.07 MB)

 Opening RunExU unformatted file "/cluster/work/users/beto93/mol77/Gau-1163367.EUF"
 Read unf file /cluster/work/users/beto93/mol77/Gau-1163367.EUF:
 Label Gaussian matrix elements                                         IVers= 2 NLab= 2 Version=ES64L-G16RevC.01
 Title mol77-NBO                                                       
 NAtoms=     7 NBasis=    19 NBsUse=    19 ICharg=     0 Multip=     1 NE=    22 Len12L=8 Len4L=8 IOpCl= 0 ICGU=111
 GAUSSIAN SCALARS                    NI= 1 NR= 1 NTot=       1 LenBuf=    2 NRI=1 N=    1000
 NPA CHARGES                         NI= 0 NR= 1 NTot=       7 LenBuf= 4000 NRI=1 N=       7
 Recovered energy= -114.419915903     dipole=      0.000000000000      0.000000000000     -0.000000000000
 Unable to Open any file for archive entry.
 1\1\GINC-C5-3\SP\RHF\STO-3G\C3H4\BETO93\18-Nov-2024\0\\#RHF/STO-3G int
 =nobasistransform Symmetry=None 5D 7F Pop=NBO7Read\\mol77-NBO\\0,1\C,0
 ,0.,0.,0.\C,0,0.,0.,1.31119\C,0,0.,0.,-1.31119\H,0,0.,0.926778,1.87664
 2\H,0,0.,-0.926778,1.876642\H,0,0.926778,0.,-1.876642\H,0,-0.926778,0.
 ,-1.876642\\Version=ES64L-G16RevC.01\HF=-114.4199159\RMSD=1.265e-09\Di
 pole=0.,0.,0.\Quadrupole=-0.4058763,-0.4058763,0.8117526,0.,0.,0.\PG=U
 nknown\\@
 The archive entry for this job was punched.


 EDUCATION DOESN'T COST 
           ... IT PAYS!

 -- POSTMARK, UNIV. OF MISSISSIPPI, DEC 78
 Job cpu time:       0 days  0 hours  0 minutes  9.1 seconds.
 Elapsed time:       0 days  0 hours  0 minutes  2.9 seconds.
 File lengths (MBytes):  RWF=     10 Int=      0 D2E=      0 Chk=      1 Scr=      1
 Normal termination of Gaussian 16 at Mon Nov 18 15:41:26 2024.
