 Entering Gaussian System, Link 0=g16
 Initial command:
 /cluster/software/Gaussian/g16_C.01/l1.exe "/cluster/work/users/beto93/mol115/Gau-946637.inp" -scrdir="/cluster/work/users/beto93/mol115/"
 Entering Link 1 = /cluster/software/Gaussian/g16_C.01/l1.exe PID=    946639.
  
 Copyright (c) 1988-2019, Gaussian, Inc.  All Rights Reserved.
  
 This is part of the Gaussian(R) 16 program.  It is based on
 the Gaussian(R) 09 system (copyright 2009, Gaussian, Inc.),
 the Gaussian(R) 03 system (copyright 2003, Gaussian, Inc.),
 the Gaussian(R) 98 system (copyright 1998, Gaussian, Inc.),
 the Gaussian(R) 94 system (copyright 1995, Gaussian, Inc.),
 the Gaussian 92(TM) system (copyright 1992, Gaussian, Inc.),
 the Gaussian 90(TM) system (copyright 1990, Gaussian, Inc.),
 the Gaussian 88(TM) system (copyright 1988, Gaussian, Inc.),
 the Gaussian 86(TM) system (copyright 1986, Carnegie Mellon
 University), and the Gaussian 82(TM) system (copyright 1983,
 Carnegie Mellon University). Gaussian is a federally registered
 trademark of Gaussian, Inc.
  
 This software contains proprietary and confidential information,
 including trade secrets, belonging to Gaussian, Inc.
  
 This software is provided under written license and may be
 used, copied, transmitted, or stored only in accord with that
 written license.
  
 The following legend is applicable only to US Government
 contracts under FAR:
  
                    RESTRICTED RIGHTS LEGEND
  
 Use, reproduction and disclosure by the US Government is
 subject to restrictions as set forth in subparagraphs (a)
 and (c) of the Commercial Computer Software - Restricted
 Rights clause in FAR 52.227-19.
  
 Gaussian, Inc.
 340 Quinnipiac St., Bldg. 40, Wallingford CT 06492
  
  
 ---------------------------------------------------------------
 Warning -- This program may not be used in any manner that
 competes with the business of Gaussian, Inc. or will provide
 assistance to any competitor of Gaussian, Inc.  The licensee
 of this program is prohibited from giving any competitor of
 Gaussian, Inc. access to this program.  By using this program,
 the user acknowledges that Gaussian, Inc. is engaged in the
 business of creating and licensing software in the field of
 computational chemistry and represents and warrants to the
 licensee that it is not a competitor of Gaussian, Inc. and that
 it will not use this program in any manner prohibited above.
 ---------------------------------------------------------------
  

 Cite this work as:
 Gaussian 16, Revision C.01,
 M. J. Frisch, G. W. Trucks, H. B. Schlegel, G. E. Scuseria, 
 M. A. Robb, J. R. Cheeseman, G. Scalmani, V. Barone, 
 G. A. Petersson, H. Nakatsuji, X. Li, M. Caricato, A. V. Marenich, 
 J. Bloino, B. G. Janesko, R. Gomperts, B. Mennucci, H. P. Hratchian, 
 J. V. Ortiz, A. F. Izmaylov, J. L. Sonnenberg, D. Williams-Young, 
 F. Ding, F. Lipparini, F. Egidi, J. Goings, B. Peng, A. Petrone, 
 T. Henderson, D. Ranasinghe, V. G. Zakrzewski, J. Gao, N. Rega, 
 G. Zheng, W. Liang, M. Hada, M. Ehara, K. Toyota, R. Fukuda, 
 J. Hasegawa, M. Ishida, T. Nakajima, Y. Honda, O. Kitao, H. Nakai, 
 T. Vreven, K. Throssell, J. A. Montgomery, Jr., J. E. Peralta, 
 F. Ogliaro, M. J. Bearpark, J. J. Heyd, E. N. Brothers, K. N. Kudin, 
 V. N. Staroverov, T. A. Keith, R. Kobayashi, J. Normand, 
 K. Raghavachari, A. P. Rendell, J. C. Burant, S. S. Iyengar, 
 J. Tomasi, M. Cossi, J. M. Millam, M. Klene, C. Adamo, R. Cammi, 
 J. W. Ochterski, R. L. Martin, K. Morokuma, O. Farkas, 
 J. B. Foresman, and D. J. Fox, Gaussian, Inc., Wallingford CT, 2019.
 
 ******************************************
 Gaussian 16:  ES64L-G16RevC.01  3-Jul-2019
                18-Nov-2024 
 ******************************************
 %LindaWorkers=c2-28-ib
 %NProcShared=4
 Will use up to    4 processors via shared memory.
 %mem=25GB
 %chk=mol115.chk
 SetLPE:    new flags="-opt 'Tsnet.Node.lindarsharg: ssh'  -nodelist 'c2-28-ib.saga' -env GAUSS_MDEF=3355443200 -env GAUSS_EXEDIR="/cluster/software/Gaussian/g16_C.01/bsd:/cluster/software/Gaussian/g16_C.01""
 Will use up to    1 processors via Linda.
 -----------------------------------------------------------------
 #RHF/6-31G* int=nobasistransform Symmetry=None 5D 7F Pop=NBO7Read
 -----------------------------------------------------------------
 1/38=1,163=2,172=1/1;
 2/12=2,15=3,17=6,18=5,40=1/2;
 3/5=1,6=6,7=1,8=11,11=1,25=1,30=1,60=-1,116=1/1,2,3;
 4//1;
 5/5=2,38=5/2;
 6/7=2,8=2,9=2,10=2,28=1,40=2,113=1,114=1,124=2103/1,12;
 99/5=1,9=1/99;
 ----------
 mol115-NBO
 ----------
 Symbolic Z-matrix:
 Charge =  0 Multiplicity = 1
 C                     0.       -0.73972  -0.79233 
 S                     0.        0.        0.86347 
 C                     0.        0.73972  -0.79233 
 H                    -0.91394  -1.25014  -1.07689 
 H                     0.91394  -1.25014  -1.07689 
 H                     0.91394   1.25014  -1.07689 
 H                    -0.91394   1.25014  -1.07689 
 
                          Input orientation:                          
 ---------------------------------------------------------------------
 Center     Atomic      Atomic             Coordinates (Angstroms)
 Number     Number       Type             X           Y           Z
 ---------------------------------------------------------------------
      1          6           0        0.000000   -0.739719   -0.792334
      2         16           0        0.000000    0.000000    0.863474
      3          6           0        0.000000    0.739719   -0.792334
      4          1           0       -0.913940   -1.250142   -1.076894
      5          1           0        0.913940   -1.250142   -1.076894
      6          1           0        0.913940    1.250142   -1.076894
      7          1           0       -0.913940    1.250142   -1.076894
 ---------------------------------------------------------------------
                    Distance matrix (angstroms):
                    1          2          3          4          5
     1  C    0.000000
     2  S    1.813528   0.000000
     3  C    1.479438   1.813528   0.000000
     4  H    1.084801   2.482573   2.208123   0.000000
     5  H    1.084801   2.482573   2.208123   1.827880   0.000000
     6  H    2.208123   2.482573   1.084801   3.097187   2.500284
     7  H    2.208123   2.482573   1.084801   2.500284   3.097187
                    6          7
     6  H    0.000000
     7  H    1.827880   0.000000
 Symmetry turned off by external request.
 Stoichiometry    C2H4S
 Rotational constants (GHZ):          22.1656990          10.8342531           8.0587446
 Standard basis: 6-31G(d) (5D, 7F)
    54 basis functions,   124 primitive gaussians,    57 cartesian basis functions
    16 alpha electrons       16 beta electrons
       nuclear repulsion energy       101.3463833744 Hartrees.
 NAtoms=    7 NActive=    7 NUniq=    7 SFac= 1.00D+00 NAtFMM=   60 NAOKFM=F Big=F
 Integral buffers will be    131072 words long.
 Raffenetti 1 integral format.
 Two-electron integral symmetry is turned off.
 One-electron integrals computed using PRISM.
 NBasis=    54 RedAO= T EigKep=  9.47D-03  NBF=    54
 NBsUse=    54 1.00D-06 EigRej= -1.00D+00 NBFU=    54
 ExpMin= 1.17D-01 ExpMax= 2.19D+04 ExpMxC= 3.30D+03 IAcc=3 IRadAn=         5 AccDes= 0.00D+00
 Harris functional with IExCor=  205 and IRadAn=       5 diagonalized for initial guess.
 HarFok:  IExCor=  205 AccDes= 0.00D+00 IRadAn=         5 IDoV= 1 UseB2=F ITyADJ=14
 ICtDFT=  3500011 ScaDFX=  1.000000  1.000000  1.000000  1.000000
 FoFCou: FMM=F IPFlag=           0 FMFlag=      100000 FMFlg1=           0
         NFxFlg=           0 DoJE=T BraDBF=F KetDBF=T FulRan=T
         wScrn=  0.000000 ICntrl=       500 IOpCl=  0 I1Cent=   200000004 NGrid=           0
         NMat0=    1 NMatS0=      1 NMatT0=    0 NMatD0=    1 NMtDS0=    0 NMtDT0=    0
 Symmetry not used in FoFCou.
 Keep R1 ints in memory in canonical form, NReq=1949406.
 Requested convergence on RMS density matrix=1.00D-08 within 128 cycles.
 Requested convergence on MAX density matrix=1.00D-06.
 Requested convergence on             energy=1.00D-06.
 No special actions if energy rises.
 SCF Done:  E(RHF) =  -475.544577376     A.U. after   11 cycles
            NFock= 11  Conv=0.68D-08     -V/T= 1.9997

 **********************************************************************

            Population analysis using the SCF Density.

 **********************************************************************

 Alpha  occ. eigenvalues --  -91.92600 -11.27352 -11.27277  -8.94191  -6.62399
 Alpha  occ. eigenvalues --   -6.62206  -6.61970  -1.14586  -0.84582  -0.83240
 Alpha  occ. eigenvalues --   -0.67184  -0.61115  -0.54381  -0.44037  -0.42792
 Alpha  occ. eigenvalues --   -0.34393
 Alpha virt. eigenvalues --    0.16213   0.21172   0.25313   0.25998   0.29046
 Alpha virt. eigenvalues --    0.35915   0.38914   0.50791   0.54128   0.57824
 Alpha virt. eigenvalues --    0.60085   0.67012   0.72660   0.77647   0.79175
 Alpha virt. eigenvalues --    0.86505   0.91544   1.03649   1.11054   1.15009
 Alpha virt. eigenvalues --    1.15367   1.15954   1.16389   1.22521   1.26810
 Alpha virt. eigenvalues --    1.30437   1.38214   1.55202   1.89215   1.98102
 Alpha virt. eigenvalues --    2.20332   2.20848   2.33502   2.47195   2.50689
 Alpha virt. eigenvalues --    2.63120   2.82413   2.91065
          Condensed to atoms (all electrons):
               1          2          3          4          5          6
     1  C    5.329951   0.173315   0.214488   0.384534   0.384534  -0.022708
     2  S    0.173315  15.795665   0.173315  -0.035494  -0.035494  -0.035494
     3  C    0.214488   0.173315   5.329951  -0.022708  -0.022708   0.384534
     4  H    0.384534  -0.035494  -0.022708   0.477668  -0.024452   0.000176
     5  H    0.384534  -0.035494  -0.022708  -0.024452   0.477668  -0.000505
     6  H   -0.022708  -0.035494   0.384534   0.000176  -0.000505   0.477668
     7  H   -0.022708  -0.035494   0.384534  -0.000505   0.000176  -0.024452
               7
     1  C   -0.022708
     2  S   -0.035494
     3  C    0.384534
     4  H   -0.000505
     5  H    0.000176
     6  H   -0.024452
     7  H    0.477668
 Mulliken charges:
               1
     1  C   -0.441405
     2  S   -0.000319
     3  C   -0.441405
     4  H    0.220782
     5  H    0.220782
     6  H    0.220782
     7  H    0.220782
 Sum of Mulliken charges =  -0.00000
 Mulliken charges with hydrogens summed into heavy atoms:
               1
     1  C    0.000159
     2  S   -0.000319
     3  C    0.000159
 Electronic spatial extent (au):  <R**2>=            201.3454
 Charge=             -0.0000 electrons
 Dipole moment (field-independent basis, Debye):
    X=             -0.0000    Y=             -0.0000    Z=             -2.2932  Tot=              2.2932
 Quadrupole moment (field-independent basis, Debye-Ang):
   XX=            -26.4324   YY=            -24.4539   ZZ=            -26.5508
   XY=              0.0000   XZ=              0.0000   YZ=              0.0000
 Traceless Quadrupole moment (field-independent basis, Debye-Ang):
   XX=             -0.6200   YY=              1.3584   ZZ=             -0.7384
   XY=              0.0000   XZ=              0.0000   YZ=              0.0000
 Octapole moment (field-independent basis, Debye-Ang**2):
  XXX=             -0.0000  YYY=             -0.0000  ZZZ=              1.1691  XYY=             -0.0000
  XXY=              0.0000  XXZ=             -4.3860  XZZ=             -0.0000  YZZ=              0.0000
  YYZ=             -2.0699  XYZ=             -0.0000
 Hexadecapole moment (field-independent basis, Debye-Ang**3):
 XXXX=            -45.2243 YYYY=            -88.0965 ZZZZ=           -147.8596 XXXY=              0.0000
 XXXZ=              0.0000 YYYX=              0.0000 YYYZ=              0.0000 ZZZX=              0.0000
 ZZZY=             -0.0000 XXYY=            -19.3329 XXZZ=            -32.7264 YYZZ=            -36.5845
 XXYZ=             -0.0000 YYXZ=              0.0000 ZZXY=              0.0000
 N-N= 1.013463833744D+02 E-N=-1.331171704026D+03  KE= 4.756758799229D+02
 Running external command "gaunbo7 R"
         input file       "/cluster/work/users/beto93/mol115/Gau-946639.EIn"
         output file      "/cluster/work/users/beto93/mol115/Gau-946639.EOu"
         message file     "/cluster/work/users/beto93/mol115/Gau-946639.EMs"
         fchk file        "/cluster/work/users/beto93/mol115/Gau-946639.EFC"
         mat. el file     "/cluster/work/users/beto93/mol115/Gau-946639.EUF"

 Writing WrtUnf unformatted file "/cluster/work/users/beto93/mol115/Gau-946639.EUF"
 Gaussian matrix elements                                         Version   2 NLab=11 Len12L=8 Len4L=8
 Write SHELL TO ATOM MAP                   from file      0 offset           0 length                  21 to matrix element file.
 Write SHELL TYPES                         from file      0 offset           0 length                  21 to matrix element file.
 Write NUMBER OF PRIMITIVES PER SHELL      from file      0 offset           0 length                  21 to matrix element file.
 Write PRIMITIVE EXPONENTS                 from file      0 offset           0 length                  55 to matrix element file.
 Write CONTRACTION COEFFICIENTS            from file      0 offset           0 length                  55 to matrix element file.
 Write P(S=P) CONTRACTION COEFFICIENTS     from file      0 offset           0 length                  55 to matrix element file.
 Write COORDINATES OF EACH SHELL           from file      0 offset           0 length                  63 to matrix element file.
 Write BONDS PER ATOM                      from file      0 offset           0 length                   7 to matrix element file.
 Write BONDED ATOMS                        from file      0 offset           0 length                  14 to matrix element file.
 Write BOND TYPES                          from file      0 offset           0 length                  14 to matrix element file.
 Write ONIOM CHARGE/MULT                   from file      0 offset           0 length                  32 to matrix element file.
 Write ONIOM ATOM LAYERS                   from file      0 offset           0 length                   7 to matrix element file.
 Write ONIOM ATOM MODIFIERS                from file      0 offset           0 length                   7 to matrix element file.
 Write ONIOM ATOM TYPES                    from file      0 offset           0 length                   7 to matrix element file.
 Write ONIOM LINK ATOMS                    from file      0 offset           0 length                   7 to matrix element file.
 Write ONIOM LINK CHARGES                  from file      0 offset           0 length                   7 to matrix element file.
 Write ONIOM LINK DISTANCES                from file      0 offset           0 length                  28 to matrix element file.
 Write SYMINF INTS                         from file      0 offset           0 length                  26 to matrix element file.
 Write ROTTR TO SO                         from file      0 offset           0 length                  12 to matrix element file.
 Write GAUSSIAN SCALARS                    from file    501 offset           0 to matrix element file.
 Write OPTIMIZATION FLAGS                  from file      0 offset           0 length                   7 to matrix element file.
 Write INTEGER ISO                         from file      0 offset           0 length                   7 to matrix element file.
 Write INTEGER SPIN                        from file      0 offset           0 length                   7 to matrix element file.
 Write REAL ZEFFECTIVE                     from file      0 offset           0 length                   7 to matrix element file.
 Write REAL GFACTOR                        from file      0 offset           0 length                   7 to matrix element file.
 Write REAL ZNUCLEAR                       from file      0 offset           0 length                   7 to matrix element file.
 Write MULLIKEN CHARGES                    from file      0 offset           0 length                   7 to matrix element file.
 Write NUCLEAR GRADIENT                    from file  10584 offset           0 length                  21 to matrix element file.
 Array NUCLEAR FORCE CONSTANTS              on  file  10585 does not exist.
 Write ELECTRIC DIPOLE MOMENT              from file      0 offset           0 length                   3 to matrix element file.
 Write NON-ADIABATIC COUPLING              from file  10810 offset           0 length                  21 to matrix element file.
 Write FINITE EM FIELD                     from file  10521 offset           0 length                  35 to matrix element file.
 Write OVERLAP                             from file  10514 offset           0 length                1485 to matrix element file.
 Write CORE HAMILTONIAN ALPHA              from file  10515 offset           0 length                1485 to matrix element file.
 Write CORE HAMILTONIAN BETA               from file  10515 offset        1485 length                1485 to matrix element file.
 Write KINETIC ENERGY                      from file  10516 offset           0 length                1485 to matrix element file.
 Write ORTHOGONAL BASIS                    from file  10685 offset           0 length                2916 to matrix element file.
 Write DIPOLE INTEGRALS                    from file  10518 offset           0 length                4455 to matrix element file.
 Array DIP VEL INTEGRALS                    on  file  10572 does not exist.
 Array R X DEL INTEGRALS                    on  file  10572 does not exist.
 Write ALPHA ORBITAL ENERGIES              from file      0 offset           0 length                  54 to matrix element file.
 Write ALPHA MO COEFFICIENTS               from file  10524 offset           0 length                2916 to matrix element file.
 Write ALPHA DENSITY MATRIX                from file      0 offset           0 length                1485 to matrix element file.
 Write ALPHA FOCK MATRIX                   from file  10536 offset           0 length                1485 to matrix element file.
 Write ENERGY-WEIGHTED DENSITY             from file  10571 offset           0 length                1485 to matrix element file.
 Write ALPHA SCF DENSITY MATRIX            from file      0 offset           0 length                1485 to matrix element file.
 No 2e integrals to process.
 Perform NBO analysis...executing G16NBO...

 *********************************** NBO 7.0 ***********************************
             N A T U R A L   A T O M I C   O R B I T A L   A N D
          N A T U R A L   B O N D   O R B I T A L   A N A L Y S I S
 **************************** Espen Tangen (S101595) ***************************
  (c) Copyright 1996-2021 Board of Regents of the University of Wisconsin System
      on behalf of the Theoretical Chemistry Institute.  All rights reserved.

          Cite this program [NBO 7.0.10 (8-Feb-2021)] as:

          NBO 7.0.  E. D. Glendening, J. K. Badenhoop, A. E. Reed,
          J. E. Carpenter, J. A. Bohmann, C. M. Morales, P. Karafiloglou,
          C. R. Landis, and F. Weinhold, Theoretical Chemistry Institute,
          University of Wisconsin, Madison, WI (2018)

       /NPA    / : Natural Population Analysis
       /AOPNAO / : Print the AO to PNAO transformation
       /AONAO  / : Print the AO to NAO transformation
       /AOMO   / : Print the MOs in the AO basis
       /BOAO   / : Print the AO bond-order matrix
       /DMAO   / : Print the AO density matrix
       /DMPNAO / : Print the PNAO density matrix
       /DMNAO  / : Print the NAO density matrix
       /DMMO   / : Print the MO density matrix
       /SAO    / : Print the AO overlap matrix
       /SPNAO  / : Print the PNAO overlap matrix
       /DETAIL / : Write details of NBO search
       /ARCHIVE/ : Write the archive file to lfn47
       /AOINFO / : Write AO information to lfn31
       /FILE   / : Set to mol115.gen*

 Filename set to mol115.gen1

 Job title: mol115-NBO


 MOs in the AO basis:

           AO          1       2       3       4       5       6       7       8
      ------------ ------- ------- ------- ------- ------- ------- ------- -------
   1.  C 1 (s)      0.0000  0.7044  0.7045  0.0000  0.0000 -0.0001  0.0000 -0.1282
   2.  C 1 (s)     -0.0001  0.0180  0.0181  0.0003 -0.0007 -0.0009  0.0000  0.2458
   3.  C 1 (px)     0.0000  0.0000  0.0000  0.0000  0.0000  0.0000  0.0001  0.0000
   4.  C 1 (py)     0.0000  0.0004  0.0006 -0.0001  0.0001  0.0001  0.0000  0.0946
   5.  C 1 (pz)     0.0001  0.0006  0.0005 -0.0002  0.0005  0.0002  0.0000  0.0450
   6.  C 1 (s)      0.0001 -0.0096 -0.0136 -0.0002  0.0019  0.0052  0.0000  0.1982
   7.  C 1 (px)     0.0000  0.0000  0.0000  0.0000  0.0000  0.0000 -0.0006  0.0000
   8.  C 1 (py)     0.0001 -0.0001 -0.0022 -0.0001  0.0004  0.0025  0.0000  0.0142
   9.  C 1 (pz)    -0.0001 -0.0015 -0.0002  0.0001  0.0012  0.0005  0.0000  0.0156
  10.  C 1 (d5)     0.0002 -0.0001 -0.0004 -0.0003  0.0006  0.0003  0.0000 -0.0034
  11.  C 1 (d2)     0.0000  0.0000  0.0000  0.0000  0.0000  0.0000 -0.0002  0.0000
  12.  C 1 (d3)     0.0001  0.0000  0.0001 -0.0003  0.0006  0.0002  0.0000  0.0116
  13.  C 1 (d4)    -0.0001  0.0003 -0.0004  0.0001 -0.0001 -0.0001  0.0000 -0.0083
  14.  C 1 (d1)     0.0000  0.0000  0.0000  0.0000  0.0000  0.0000  0.0000  0.0000
  15.  S 2 (s)      0.9967  0.0000  0.0000 -0.2819 -0.0019  0.0000  0.0000  0.0369
  16.  S 2 (s)      0.0123  0.0001  0.0000  1.0306  0.0071  0.0000  0.0000 -0.1708
  17.  S 2 (px)     0.0000  0.0000  0.0000  0.0000  0.0000  0.0000  0.9939  0.0000
  18.  S 2 (py)     0.0000  0.0000  0.0001  0.0000  0.0000  0.9932  0.0000  0.0000
  19.  S 2 (pz)    -0.0001  0.0000  0.0000 -0.0057  0.9928  0.0000  0.0000  0.0613
  20.  S 2 (s)     -0.0039  0.0000  0.0000  0.0210 -0.0022  0.0000  0.0000  0.3357
  21.  S 2 (px)     0.0000  0.0000  0.0000  0.0000  0.0000  0.0000  0.0204  0.0000
  22.  S 2 (py)     0.0000  0.0000 -0.0005  0.0000  0.0000  0.0227  0.0000  0.0000
  23.  S 2 (pz)     0.0003 -0.0006  0.0000 -0.0018  0.0243  0.0000  0.0000 -0.1353
  24.  S 2 (s)      0.0022  0.0045  0.0000 -0.0064 -0.0017  0.0000  0.0000  0.0674
  25.  S 2 (px)     0.0000  0.0000  0.0000  0.0000  0.0000  0.0000 -0.0047  0.0000
  26.  S 2 (py)     0.0000  0.0000 -0.0010  0.0000  0.0000 -0.0052  0.0000  0.0000
  27.  S 2 (pz)    -0.0005 -0.0025  0.0000  0.0013 -0.0046  0.0000  0.0000  0.0121
  28.  S 2 (d5)    -0.0001 -0.0002  0.0000  0.0005 -0.0015  0.0000  0.0000  0.0354
  29.  S 2 (d2)     0.0000  0.0000  0.0000  0.0000  0.0000  0.0000 -0.0006  0.0000
  30.  S 2 (d3)     0.0000  0.0000  0.0001  0.0000  0.0000 -0.0010  0.0000  0.0000
  31.  S 2 (d4)     0.0000 -0.0001  0.0000 -0.0002  0.0002  0.0000  0.0000 -0.0059
  32.  S 2 (d1)     0.0000  0.0000  0.0000  0.0000  0.0000  0.0000  0.0000  0.0000
  33.  C 3 (s)      0.0000  0.7044 -0.7045  0.0000  0.0000  0.0001  0.0000 -0.1282
  34.  C 3 (s)     -0.0001  0.0180 -0.0181  0.0003 -0.0007  0.0009  0.0000  0.2458
  35.  C 3 (px)     0.0000  0.0000  0.0000  0.0000  0.0000  0.0000  0.0001  0.0000
  36.  C 3 (py)     0.0000 -0.0004  0.0006  0.0001 -0.0001  0.0001  0.0000 -0.0946
  37.  C 3 (pz)     0.0001  0.0006 -0.0005 -0.0002  0.0005 -0.0002  0.0000  0.0450
  38.  C 3 (s)      0.0001 -0.0096  0.0136 -0.0002  0.0019 -0.0052  0.0000  0.1982
  39.  C 3 (px)     0.0000  0.0000  0.0000  0.0000  0.0000  0.0000 -0.0006  0.0000
  40.  C 3 (py)    -0.0001  0.0001 -0.0022  0.0001 -0.0004  0.0025  0.0000 -0.0142
  41.  C 3 (pz)    -0.0001 -0.0015  0.0002  0.0001  0.0012 -0.0005  0.0000  0.0156
  42.  C 3 (d5)     0.0002 -0.0001  0.0004 -0.0003  0.0006 -0.0003  0.0000 -0.0034
  43.  C 3 (d2)     0.0000  0.0000  0.0000  0.0000  0.0000  0.0000 -0.0002  0.0000
  44.  C 3 (d3)    -0.0001  0.0000  0.0001  0.0003 -0.0006  0.0002  0.0000 -0.0116
  45.  C 3 (d4)    -0.0001  0.0003  0.0004  0.0001 -0.0001  0.0001  0.0000 -0.0083
  46.  C 3 (d1)     0.0000  0.0000  0.0000  0.0000  0.0000  0.0000  0.0000  0.0000
  47.  H 4 (s)      0.0001 -0.0002  0.0001 -0.0001 -0.0001 -0.0001  0.0000  0.0571
  48.  H 4 (s)     -0.0002  0.0017  0.0018  0.0006 -0.0005 -0.0006 -0.0009  0.0031
  49.  H 5 (s)      0.0001 -0.0002  0.0001 -0.0001 -0.0001 -0.0001  0.0000  0.0571
  50.  H 5 (s)     -0.0002  0.0017  0.0018  0.0006 -0.0005 -0.0006  0.0009  0.0031
  51.  H 6 (s)      0.0001 -0.0002 -0.0001 -0.0001 -0.0001  0.0001  0.0000  0.0571
  52.  H 6 (s)     -0.0002  0.0017 -0.0018  0.0006 -0.0005  0.0006  0.0009  0.0031
  53.  H 7 (s)      0.0001 -0.0002 -0.0001 -0.0001 -0.0001  0.0001  0.0000  0.0571
  54.  H 7 (s)     -0.0002  0.0017 -0.0018  0.0006 -0.0005  0.0006 -0.0009  0.0031

           AO          9      10      11      12      13      14      15      16
      ------------ ------- ------- ------- ------- ------- ------- ------- -------
   1.  C 1 (s)     -0.1279  0.0746  0.0000 -0.0048  0.0000 -0.0018  0.0064  0.0000
   2.  C 1 (s)      0.2456 -0.1492  0.0000  0.0146  0.0000  0.0088  0.0103  0.0000
   3.  C 1 (px)     0.0000  0.0000  0.3143  0.0000  0.3193  0.0000  0.0000 -0.0767
   4.  C 1 (py)    -0.1370  0.0100  0.0000  0.3428  0.0000  0.2117 -0.0529  0.0000
   5.  C 1 (pz)    -0.0125  0.1477  0.0000  0.0843  0.0000 -0.2548 -0.2431  0.0000
   6.  C 1 (s)      0.3221 -0.1578  0.0000  0.0116  0.0000 -0.0218 -0.1597  0.0000
   7.  C 1 (px)     0.0000  0.0000  0.1537  0.0000  0.2115  0.0000  0.0000 -0.0237
   8.  C 1 (py)    -0.0284  0.0014  0.0000  0.1463  0.0000  0.1282 -0.0711  0.0000
   9.  C 1 (pz)     0.0050  0.0499  0.0000  0.0421  0.0000 -0.1790 -0.2118  0.0000
  10.  C 1 (d5)    -0.0035  0.0198  0.0000  0.0026  0.0000 -0.0133 -0.0255  0.0000
  11.  C 1 (d2)     0.0000  0.0000 -0.0057  0.0000 -0.0105  0.0000  0.0000  0.0209
  12.  C 1 (d3)     0.0091  0.0060  0.0000  0.0061  0.0000 -0.0203  0.0060  0.0000
  13.  C 1 (d4)     0.0166 -0.0014  0.0000 -0.0249  0.0000 -0.0109  0.0030  0.0000
  14.  C 1 (d1)     0.0000  0.0000 -0.0085  0.0000 -0.0288  0.0000  0.0000  0.0105
  15.  S 2 (s)      0.0000  0.0596  0.0000 -0.0222  0.0000  0.0181  0.0000  0.0000
  16.  S 2 (s)      0.0000 -0.2776  0.0000  0.1072  0.0000 -0.0862  0.0000  0.0000
  17.  S 2 (px)     0.0000  0.0000 -0.0559  0.0000  0.0000  0.0000  0.0000 -0.2554
  18.  S 2 (py)     0.0471  0.0000  0.0000  0.0000  0.0000  0.0000 -0.2061  0.0000
  19.  S 2 (pz)     0.0000 -0.0034  0.0000  0.0985  0.0000 -0.1654  0.0000  0.0000
  20.  S 2 (s)      0.0000  0.5690  0.0000 -0.2090  0.0000  0.1789  0.0000  0.0000
  21.  S 2 (px)     0.0000  0.0000  0.1397  0.0000  0.0000  0.0000  0.0000  0.6834
  22.  S 2 (py)    -0.1132  0.0000  0.0000  0.0000  0.0000  0.0000  0.5314  0.0000
  23.  S 2 (pz)     0.0000  0.0074  0.0000 -0.2473  0.0000  0.4302  0.0000  0.0000
  24.  S 2 (s)      0.0000  0.2880  0.0000 -0.2367  0.0000  0.2285  0.0000  0.0000
  25.  S 2 (px)     0.0000  0.0000  0.0345  0.0000  0.0000  0.0000  0.0000  0.4504
  26.  S 2 (py)    -0.0091  0.0000  0.0000  0.0000  0.0000  0.0000  0.2171  0.0000
  27.  S 2 (pz)     0.0000 -0.0039  0.0000 -0.0200  0.0000  0.1528  0.0000  0.0000
  28.  S 2 (d5)     0.0000  0.0057  0.0000  0.0450  0.0000 -0.0242  0.0000  0.0000
  29.  S 2 (d2)     0.0000  0.0000 -0.0236  0.0000  0.0000  0.0000  0.0000 -0.0104
  30.  S 2 (d3)     0.0311  0.0000  0.0000  0.0000  0.0000  0.0000 -0.0706  0.0000
  31.  S 2 (d4)     0.0000 -0.0020  0.0000  0.0024  0.0000  0.0239  0.0000  0.0000
  32.  S 2 (d1)     0.0000  0.0000  0.0000  0.0000 -0.0132  0.0000  0.0000  0.0000
  33.  C 3 (s)      0.1279  0.0746  0.0000 -0.0048  0.0000 -0.0018 -0.0064  0.0000
  34.  C 3 (s)     -0.2456 -0.1492  0.0000  0.0146  0.0000  0.0088 -0.0103  0.0000
  35.  C 3 (px)     0.0000  0.0000  0.3143  0.0000 -0.3193  0.0000  0.0000 -0.0767
  36.  C 3 (py)    -0.1370 -0.0100  0.0000 -0.3428  0.0000 -0.2117 -0.0529  0.0000
  37.  C 3 (pz)     0.0125  0.1477  0.0000  0.0843  0.0000 -0.2548  0.2431  0.0000
  38.  C 3 (s)     -0.3221 -0.1578  0.0000  0.0116  0.0000 -0.0218  0.1597  0.0000
  39.  C 3 (px)     0.0000  0.0000  0.1537  0.0000 -0.2115  0.0000  0.0000 -0.0237
  40.  C 3 (py)    -0.0284 -0.0014  0.0000 -0.1463  0.0000 -0.1282 -0.0711  0.0000
  41.  C 3 (pz)    -0.0050  0.0499  0.0000  0.0421  0.0000 -0.1790  0.2118  0.0000
  42.  C 3 (d5)     0.0035  0.0198  0.0000  0.0026  0.0000 -0.0133  0.0255  0.0000
  43.  C 3 (d2)     0.0000  0.0000 -0.0057  0.0000  0.0105  0.0000  0.0000  0.0209
  44.  C 3 (d3)     0.0091 -0.0060  0.0000 -0.0061  0.0000  0.0203  0.0060  0.0000
  45.  C 3 (d4)    -0.0166 -0.0014  0.0000 -0.0249  0.0000 -0.0109 -0.0030  0.0000
  46.  C 3 (d1)     0.0000  0.0000  0.0085  0.0000 -0.0288  0.0000  0.0000 -0.0105
  47.  H 4 (s)      0.1332 -0.0822 -0.1472 -0.1078 -0.1820 -0.0241  0.0696  0.0649
  48.  H 4 (s)      0.0499 -0.0388 -0.0806 -0.0768 -0.1290 -0.0179  0.0706  0.1016
  49.  H 5 (s)      0.1332 -0.0822  0.1472 -0.1078  0.1820 -0.0241  0.0696 -0.0649
  50.  H 5 (s)      0.0499 -0.0388  0.0806 -0.0768  0.1290 -0.0179  0.0706 -0.1016
  51.  H 6 (s)     -0.1332 -0.0822  0.1472 -0.1078 -0.1820 -0.0241 -0.0696 -0.0649
  52.  H 6 (s)     -0.0499 -0.0388  0.0806 -0.0768 -0.1290 -0.0179 -0.0706 -0.1016
  53.  H 7 (s)     -0.1332 -0.0822 -0.1472 -0.1078  0.1820 -0.0241 -0.0696  0.0649
  54.  H 7 (s)     -0.0499 -0.0388 -0.0806 -0.0768  0.1290 -0.0179 -0.0706  0.1016

           AO         17      18      19      20      21      22      23      24
      ------------ ------- ------- ------- ------- ------- ------- ------- -------
   1.  C 1 (s)     -0.0619 -0.0884  0.0000  0.0286 -0.1051  0.0000 -0.0340 -0.0103
   2.  C 1 (s)      0.0596  0.0914  0.0000 -0.0035  0.0538  0.0000 -0.0307  0.0466
   3.  C 1 (px)     0.0000  0.0000  0.2208  0.0000  0.0000  0.2504  0.0000  0.0000
   4.  C 1 (py)    -0.0382 -0.0324  0.0000  0.1326  0.0162  0.0000  0.2583  0.0446
   5.  C 1 (pz)     0.2692  0.1005  0.0000  0.1709 -0.1686  0.0000  0.0311 -0.1068
   6.  C 1 (s)      0.8385  1.4212  0.0000 -0.7487  2.0767  0.0000  1.1651 -0.3361
   7.  C 1 (px)     0.0000  0.0000  0.8771  0.0000  0.0000  1.6106  0.0000  0.0000
   8.  C 1 (py)     0.0162 -0.2415  0.0000  0.5189  0.3619  0.0000  1.9571 -0.2194
   9.  C 1 (pz)     0.5761  0.4008  0.0000  0.6064 -0.5027  0.0000  0.2766 -0.2634
  10.  C 1 (d5)     0.0037 -0.0120  0.0000 -0.0202  0.0034  0.0000  0.0114 -0.0370
  11.  C 1 (d2)     0.0000  0.0000  0.0133  0.0000  0.0000  0.0034  0.0000  0.0000
  12.  C 1 (d3)    -0.0029  0.0053  0.0000  0.0049  0.0124  0.0000  0.0078 -0.0691
  13.  C 1 (d4)     0.0007 -0.0112  0.0000  0.0018  0.0051  0.0000  0.0142  0.0069
  14.  C 1 (d1)     0.0000  0.0000  0.0241  0.0000  0.0000 -0.0085  0.0000  0.0000
  15.  S 2 (s)      0.0000 -0.0178  0.0000 -0.0260  0.0000  0.0000  0.0000 -0.0672
  16.  S 2 (s)      0.0000  0.1100  0.0000  0.1012  0.0000  0.0000  0.0000  0.0614
  17.  S 2 (px)     0.0000  0.0000 -0.0076  0.0000  0.0000  0.0000  0.0000  0.0000
  18.  S 2 (py)    -0.1242  0.0000  0.0000  0.0000  0.0623  0.0000  0.0648  0.0000
  19.  S 2 (pz)     0.0000 -0.1009  0.0000 -0.0728  0.0000  0.0000  0.0000 -0.0272
  20.  S 2 (s)      0.0000 -0.1044  0.0000 -0.3701  0.0000  0.0000  0.0000 -1.7021
  21.  S 2 (px)     0.0000  0.0000  0.0489  0.0000  0.0000  0.0000  0.0000  0.0000
  22.  S 2 (py)     0.3214  0.0000  0.0000  0.0000 -0.1985  0.0000 -0.2294  0.0000
  23.  S 2 (pz)     0.0000  0.2573  0.0000  0.1974  0.0000  0.0000  0.0000  0.1640
  24.  S 2 (s)      0.0000 -1.0466  0.0000 -0.5670  0.0000  0.0000  0.0000  2.5887
  25.  S 2 (px)     0.0000  0.0000 -0.3830  0.0000  0.0000  0.0000  0.0000  0.0000
  26.  S 2 (py)     0.8566  0.0000  0.0000  0.0000  0.0067  0.0000  0.4313  0.0000
  27.  S 2 (pz)     0.0000  1.1988  0.0000  0.9158  0.0000  0.0000  0.0000 -1.0846
  28.  S 2 (d5)     0.0000  0.0620  0.0000  0.0583  0.0000  0.0000  0.0000 -0.1794
  29.  S 2 (d2)     0.0000  0.0000 -0.0750  0.0000  0.0000  0.0000  0.0000  0.0000
  30.  S 2 (d3)     0.1124  0.0000  0.0000  0.0000 -0.0098  0.0000  0.0541  0.0000
  31.  S 2 (d4)     0.0000 -0.0401  0.0000  0.0155  0.0000  0.0000  0.0000  0.0229
  32.  S 2 (d1)     0.0000  0.0000  0.0000  0.0000  0.0000 -0.0483  0.0000  0.0000
  33.  C 3 (s)      0.0619 -0.0884  0.0000  0.0286  0.1051  0.0000  0.0340 -0.0103
  34.  C 3 (s)     -0.0596  0.0914  0.0000 -0.0035 -0.0538  0.0000  0.0307  0.0466
  35.  C 3 (px)     0.0000  0.0000  0.2208  0.0000  0.0000 -0.2504  0.0000  0.0000
  36.  C 3 (py)    -0.0382  0.0324  0.0000 -0.1326  0.0162  0.0000  0.2583 -0.0446
  37.  C 3 (pz)    -0.2692  0.1005  0.0000  0.1709  0.1686  0.0000 -0.0311 -0.1068
  38.  C 3 (s)     -0.8385  1.4212  0.0000 -0.7487 -2.0767  0.0000 -1.1651 -0.3361
  39.  C 3 (px)     0.0000  0.0000  0.8771  0.0000  0.0000 -1.6106  0.0000  0.0000
  40.  C 3 (py)     0.0162  0.2415  0.0000 -0.5189  0.3619  0.0000  1.9571  0.2194
  41.  C 3 (pz)    -0.5761  0.4008  0.0000  0.6064  0.5027  0.0000 -0.2766 -0.2634
  42.  C 3 (d5)    -0.0037 -0.0120  0.0000 -0.0202 -0.0034  0.0000 -0.0114 -0.0370
  43.  C 3 (d2)     0.0000  0.0000  0.0133  0.0000  0.0000 -0.0034  0.0000  0.0000
  44.  C 3 (d3)    -0.0029 -0.0053  0.0000 -0.0049  0.0124  0.0000  0.0078  0.0691
  45.  C 3 (d4)    -0.0007 -0.0112  0.0000  0.0018 -0.0051  0.0000 -0.0142  0.0069
  46.  C 3 (d1)     0.0000  0.0000 -0.0241  0.0000  0.0000 -0.0085  0.0000  0.0000
  47.  H 4 (s)     -0.0194 -0.0025  0.0511  0.0266 -0.0074 -0.0017  0.0388 -0.0535
  48.  H 4 (s)     -0.1883 -0.5075  1.0494  0.8779 -0.8946  1.4795  0.7711 -0.2791
  49.  H 5 (s)     -0.0194 -0.0025 -0.0511  0.0266 -0.0074  0.0017  0.0388 -0.0535
  50.  H 5 (s)     -0.1883 -0.5075 -1.0494  0.8779 -0.8946 -1.4795  0.7711 -0.2791
  51.  H 6 (s)      0.0194 -0.0025 -0.0511  0.0266  0.0074 -0.0017 -0.0388 -0.0535
  52.  H 6 (s)      0.1883 -0.5075 -1.0494  0.8779  0.8946  1.4795 -0.7711 -0.2791
  53.  H 7 (s)      0.0194 -0.0025  0.0511  0.0266  0.0074  0.0017 -0.0388 -0.0535
  54.  H 7 (s)      0.1883 -0.5075  1.0494  0.8779  0.8946 -1.4795 -0.7711 -0.2791

           AO         25      26      27      28      29      30      31      32
      ------------ ------- ------- ------- ------- ------- ------- ------- -------
   1.  C 1 (s)     -0.0223  0.0000  0.0424 -0.0212  0.0000 -0.0146  0.0349  0.0000
   2.  C 1 (s)      0.1481  0.0000 -0.1567 -0.0264  0.0000 -0.0200 -0.1710  0.0000
   3.  C 1 (px)     0.0000  0.1076  0.0000  0.0000 -0.3801  0.0000  0.0000 -0.4747
   4.  C 1 (py)     0.0412  0.0000 -0.0406 -0.5590  0.0000 -0.1807 -0.4536  0.0000
   5.  C 1 (pz)    -0.0336  0.0000 -0.0027 -0.0765  0.0000  0.6562 -0.3706  0.0000
   6.  C 1 (s)     -0.3626  0.0000 -0.5666 -0.2902  0.0000 -0.1730  0.6143  0.0000
   7.  C 1 (px)     0.0000 -0.0485  0.0000  0.0000  0.6281  0.0000  0.0000  1.7004
   8.  C 1 (py)     0.0810  0.0000 -0.9758  1.0187  0.0000 -0.0303  1.0836  0.0000
   9.  C 1 (pz)     0.2835  0.0000 -0.0983  0.3198  0.0000 -0.9348  1.0521  0.0000
  10.  C 1 (d5)    -0.0568  0.0000  0.0356 -0.0081  0.0000  0.0305 -0.1018  0.0000
  11.  C 1 (d2)     0.0000 -0.0089  0.0000  0.0000  0.0599  0.0000  0.0000  0.0827
  12.  C 1 (d3)    -0.0399  0.0000  0.0142  0.0034  0.0000  0.0081 -0.0014  0.0000
  13.  C 1 (d4)     0.0104  0.0000 -0.0190  0.0924  0.0000  0.0056 -0.0285  0.0000
  14.  C 1 (d1)     0.0000  0.0034  0.0000  0.0000  0.0975  0.0000  0.0000  0.0280
  15.  S 2 (s)      0.0145  0.0000  0.0000 -0.0084  0.0000 -0.0182  0.0000  0.0000
  16.  S 2 (s)     -0.0338  0.0000  0.0000 -0.0065  0.0000  0.0313  0.0000  0.0000
  17.  S 2 (px)     0.0000  0.2890  0.0000  0.0000  0.0482  0.0000  0.0000  0.0000
  18.  S 2 (py)     0.0000  0.0000  0.2867  0.0000  0.0000  0.0000  0.0632  0.0000
  19.  S 2 (pz)    -0.2830  0.0000  0.0000  0.0232  0.0000 -0.1298  0.0000  0.0000
  20.  S 2 (s)      0.2928  0.0000  0.0000 -0.2788  0.0000 -0.3925  0.0000  0.0000
  21.  S 2 (px)     0.0000 -1.1914  0.0000  0.0000 -0.1701  0.0000  0.0000  0.0000
  22.  S 2 (py)     0.0000  0.0000 -1.1901  0.0000  0.0000  0.0000 -0.1686  0.0000
  23.  S 2 (pz)     1.1620  0.0000  0.0000  0.0079  0.0000  0.4192  0.0000  0.0000
  24.  S 2 (s)     -0.4258  0.0000  0.0000 -0.2226  0.0000  1.3803  0.0000  0.0000
  25.  S 2 (px)     0.0000  1.3342  0.0000  0.0000 -0.2095  0.0000  0.0000  0.0000
  26.  S 2 (py)     0.0000  0.0000  1.2676  0.0000  0.0000  0.0000  0.4914  0.0000
  27.  S 2 (pz)    -1.1455  0.0000  0.0000  0.3745  0.0000 -1.0193  0.0000  0.0000
  28.  S 2 (d5)    -0.0522  0.0000  0.0000 -0.0577  0.0000  0.2072  0.0000  0.0000
  29.  S 2 (d2)     0.0000  0.0522  0.0000  0.0000 -0.3303  0.0000  0.0000  0.0000
  30.  S 2 (d3)     0.0000  0.0000  0.0442  0.0000  0.0000  0.0000 -0.3152  0.0000
  31.  S 2 (d4)     0.0086  0.0000  0.0000  0.1357  0.0000 -0.0452  0.0000  0.0000
  32.  S 2 (d1)     0.0000  0.0000  0.0000  0.0000  0.0000  0.0000  0.0000 -0.5924
  33.  C 3 (s)     -0.0223  0.0000 -0.0424 -0.0212  0.0000 -0.0146 -0.0349  0.0000
  34.  C 3 (s)      0.1481  0.0000  0.1567 -0.0264  0.0000 -0.0200  0.1710  0.0000
  35.  C 3 (px)     0.0000  0.1076  0.0000  0.0000 -0.3801  0.0000  0.0000  0.4747
  36.  C 3 (py)    -0.0412  0.0000 -0.0406  0.5590  0.0000  0.1807 -0.4536  0.0000
  37.  C 3 (pz)    -0.0336  0.0000  0.0027 -0.0765  0.0000  0.6562  0.3706  0.0000
  38.  C 3 (s)     -0.3626  0.0000  0.5666 -0.2902  0.0000 -0.1730 -0.6143  0.0000
  39.  C 3 (px)     0.0000 -0.0485  0.0000  0.0000  0.6281  0.0000  0.0000 -1.7004
  40.  C 3 (py)    -0.0810  0.0000 -0.9758 -1.0187  0.0000  0.0303  1.0836  0.0000
  41.  C 3 (pz)     0.2835  0.0000  0.0983  0.3198  0.0000 -0.9348 -1.0521  0.0000
  42.  C 3 (d5)    -0.0568  0.0000 -0.0356 -0.0081  0.0000  0.0305  0.1018  0.0000
  43.  C 3 (d2)     0.0000 -0.0089  0.0000  0.0000  0.0599  0.0000  0.0000 -0.0827
  44.  C 3 (d3)     0.0399  0.0000  0.0142 -0.0034  0.0000 -0.0081 -0.0014  0.0000
  45.  C 3 (d4)     0.0104  0.0000  0.0190  0.0924  0.0000  0.0056  0.0285  0.0000
  46.  C 3 (d1)     0.0000 -0.0034  0.0000  0.0000 -0.0975  0.0000  0.0000  0.0280
  47.  H 4 (s)      0.0675  0.0113 -0.0544  0.1918  0.3492 -0.1495  0.2535  0.2234
  48.  H 4 (s)      0.0158  0.2155 -0.0458  0.1026 -0.0842 -0.2077  0.2252  0.5429
  49.  H 5 (s)      0.0675 -0.0113 -0.0544  0.1918 -0.3492 -0.1495  0.2535 -0.2234
  50.  H 5 (s)      0.0158 -0.2155 -0.0458  0.1026  0.0842 -0.2077  0.2252 -0.5429
  51.  H 6 (s)      0.0675 -0.0113  0.0544  0.1918 -0.3492 -0.1495 -0.2535  0.2234
  52.  H 6 (s)      0.0158 -0.2155  0.0458  0.1026  0.0842 -0.2077 -0.2252  0.5429
  53.  H 7 (s)      0.0675  0.0113  0.0544  0.1918  0.3492 -0.1495 -0.2535 -0.2234
  54.  H 7 (s)      0.0158  0.2155  0.0458  0.1026 -0.0842 -0.2077 -0.2252 -0.5429

           AO         33      34      35      36      37      38      39      40
      ------------ ------- ------- ------- ------- ------- ------- ------- -------
   1.  C 1 (s)     -0.0196  0.0260  0.0000  0.0000  0.0000  0.0465 -0.0093  0.0411
   2.  C 1 (s)      0.1166  0.3671  0.0000  0.0000  0.0000 -0.3765 -0.1198 -1.1293
   3.  C 1 (px)     0.0000  0.0000 -0.6921 -0.7401 -0.2848  0.0000  0.0000  0.0000
   4.  C 1 (py)     0.5086  0.1415  0.0000  0.0000  0.0000  0.3504 -0.5543  0.1157
   5.  C 1 (pz)    -0.6589  0.0678  0.0000  0.0000  0.0000  0.3191 -0.3115  0.0047
   6.  C 1 (s)     -0.5932 -0.5994  0.0000  0.0000  0.0000  0.5305  0.6696  2.3624
   7.  C 1 (px)     0.0000  0.0000  1.0383  1.6188  0.8244  0.0000  0.0000  0.0000
   8.  C 1 (py)    -0.8992 -0.3653  0.0000  0.0000  0.0000 -0.3999  1.2771  0.1111
   9.  C 1 (pz)     1.0256 -0.4239  0.0000  0.0000  0.0000 -0.5630  0.2457 -0.2841
  10.  C 1 (d5)     0.0376 -0.0673  0.0000  0.0000  0.0000 -0.0698  0.0977 -0.0024
  11.  C 1 (d2)     0.0000  0.0000 -0.0323 -0.0841 -0.1557  0.0000  0.0000  0.0000
  12.  C 1 (d3)     0.0035  0.1430  0.0000  0.0000  0.0000  0.0725 -0.0048  0.0237
  13.  C 1 (d4)     0.0563 -0.0490  0.0000  0.0000  0.0000  0.0907 -0.1143  0.0126
  14.  C 1 (d1)     0.0000  0.0000 -0.1855 -0.0611  0.0605  0.0000  0.0000  0.0000
  15.  S 2 (s)      0.0000 -0.0061  0.0000  0.0000  0.0000 -0.0084  0.0000  0.0000
  16.  S 2 (s)      0.0000 -0.0131  0.0000  0.0000  0.0000 -0.0055  0.0000  0.0000
  17.  S 2 (px)     0.0000  0.0000  0.0266  0.0000 -0.0041  0.0000  0.0000  0.0000
  18.  S 2 (py)     0.0051  0.0000  0.0000  0.0000  0.0000  0.0000 -0.0245 -0.0330
  19.  S 2 (pz)     0.0000  0.0035  0.0000  0.0000  0.0000  0.0010  0.0000  0.0000
  20.  S 2 (s)      0.0000 -0.2096  0.0000  0.0000  0.0000 -0.2620  0.0000  0.0000
  21.  S 2 (px)     0.0000  0.0000 -0.1492  0.0000  0.0141  0.0000  0.0000  0.0000
  22.  S 2 (py)     0.0039  0.0000  0.0000  0.0000  0.0000  0.0000  0.1387  0.1955
  23.  S 2 (pz)     0.0000 -0.0723  0.0000  0.0000  0.0000 -0.0311  0.0000  0.0000
  24.  S 2 (s)      0.0000  1.1433  0.0000  0.0000  0.0000  0.9799  0.0000  0.0000
  25.  S 2 (px)     0.0000  0.0000 -0.0275  0.0000 -0.3132  0.0000  0.0000  0.0000
  26.  S 2 (py)     0.5168  0.0000  0.0000  0.0000  0.0000  0.0000 -0.0944 -0.1822
  27.  S 2 (pz)     0.0000 -0.6944  0.0000  0.0000  0.0000 -0.5066  0.0000  0.0000
  28.  S 2 (d5)     0.0000  0.3094  0.0000  0.0000  0.0000 -0.1231  0.0000  0.0000
  29.  S 2 (d2)     0.0000  0.0000 -0.1260  0.0000  0.9039  0.0000  0.0000  0.0000
  30.  S 2 (d3)     0.0733  0.0000  0.0000  0.0000  0.0000  0.0000  0.4962  0.5275
  31.  S 2 (d4)     0.0000  0.8228  0.0000  0.0000  0.0000 -0.2108  0.0000  0.0000
  32.  S 2 (d1)     0.0000  0.0000  0.0000  0.3620  0.0000  0.0000  0.0000  0.0000
  33.  C 3 (s)      0.0196  0.0260  0.0000  0.0000  0.0000  0.0465  0.0093 -0.0411
  34.  C 3 (s)     -0.1166  0.3671  0.0000  0.0000  0.0000 -0.3765  0.1198  1.1293
  35.  C 3 (px)     0.0000  0.0000 -0.6921  0.7401 -0.2848  0.0000  0.0000  0.0000
  36.  C 3 (py)     0.5086 -0.1415  0.0000  0.0000  0.0000 -0.3504 -0.5543  0.1157
  37.  C 3 (pz)     0.6589  0.0678  0.0000  0.0000  0.0000  0.3191  0.3115 -0.0047
  38.  C 3 (s)      0.5932 -0.5994  0.0000  0.0000  0.0000  0.5305 -0.6696 -2.3624
  39.  C 3 (px)     0.0000  0.0000  1.0383 -1.6188  0.8244  0.0000  0.0000  0.0000
  40.  C 3 (py)    -0.8992  0.3653  0.0000  0.0000  0.0000  0.3999  1.2771  0.1111
  41.  C 3 (pz)    -1.0256 -0.4239  0.0000  0.0000  0.0000 -0.5630 -0.2457  0.2841
  42.  C 3 (d5)    -0.0376 -0.0673  0.0000  0.0000  0.0000 -0.0698 -0.0977  0.0024
  43.  C 3 (d2)     0.0000  0.0000 -0.0323  0.0841 -0.1557  0.0000  0.0000  0.0000
  44.  C 3 (d3)     0.0035 -0.1430  0.0000  0.0000  0.0000 -0.0725 -0.0048  0.0237
  45.  C 3 (d4)    -0.0563 -0.0490  0.0000  0.0000  0.0000  0.0907  0.1143 -0.0126
  46.  C 3 (d1)     0.0000  0.0000  0.1855 -0.0611 -0.0605  0.0000  0.0000  0.0000
  47.  H 4 (s)     -0.0658  0.1145 -0.4033 -0.3862  0.1123  0.5269 -0.3735  0.3161
  48.  H 4 (s)      0.0169 -0.1811  0.9991  1.1384  0.4098 -0.7358  0.6203 -0.7807
  49.  H 5 (s)     -0.0658  0.1145  0.4033  0.3862 -0.1123  0.5269 -0.3735  0.3161
  50.  H 5 (s)      0.0169 -0.1811 -0.9991 -1.1384 -0.4098 -0.7358  0.6203 -0.7807
  51.  H 6 (s)      0.0658  0.1145  0.4033 -0.3862 -0.1123  0.5269  0.3735 -0.3161
  52.  H 6 (s)     -0.0169 -0.1811 -0.9991  1.1384 -0.4098 -0.7358 -0.6203  0.7807
  53.  H 7 (s)      0.0658  0.1145 -0.4033  0.3862  0.1123  0.5269  0.3735 -0.3161
  54.  H 7 (s)     -0.0169 -0.1811  0.9991 -1.1384  0.4098 -0.7358 -0.6203  0.7807

           AO         41      42      43      44      45      46      47      48
      ------------ ------- ------- ------- ------- ------- ------- ------- -------
   1.  C 1 (s)      0.0509 -0.0117  0.0000 -0.0990  0.0000 -0.0463  0.0284  0.0000
   2.  C 1 (s)      0.9091 -1.2149  0.0000 -1.4167  0.0000 -0.5324 -0.2876  0.0000
   3.  C 1 (px)     0.0000  0.0000 -0.1186  0.0000  0.0134  0.0000  0.0000 -0.0378
   4.  C 1 (py)    -0.0183 -0.0062  0.0000  0.0825  0.0000 -0.1587 -0.2762  0.0000
   5.  C 1 (pz)    -0.1760 -0.3081  0.0000 -0.0083  0.0000 -0.0846  0.0162  0.0000
   6.  C 1 (s)     -2.1382  1.9393  0.0000  4.9692  0.0000  1.1392 -0.1555  0.0000
   7.  C 1 (px)     0.0000  0.0000  1.7009  0.0000  0.2991  0.0000  0.0000  0.9202
   8.  C 1 (py)     0.0238 -0.1609  0.0000  1.4074  0.0000  0.0975  0.2461  0.0000
   9.  C 1 (pz)    -0.4809  0.3933  0.0000  0.2167  0.0000  0.2668 -0.1762  0.0000
  10.  C 1 (d5)     0.0461  0.0397  0.0000 -0.0146  0.0000 -0.2698 -0.4232  0.0000
  11.  C 1 (d2)     0.0000  0.0000  0.1262  0.0000  0.5610  0.0000  0.0000 -0.6706
  12.  C 1 (d3)     0.1811 -0.0008  0.0000 -0.1210  0.0000  0.5716 -0.2077  0.0000
  13.  C 1 (d4)    -0.0534  0.0857  0.0000 -0.0536  0.0000 -0.0054 -0.4791  0.0000
  14.  C 1 (d1)     0.0000  0.0000  0.0703  0.0000 -0.3536  0.0000  0.0000  0.3228
  15.  S 2 (s)     -0.0162 -0.0084  0.0000  0.0000  0.0000 -0.0036  0.0058  0.0000
  16.  S 2 (s)     -0.0423  0.0096  0.0000  0.0000  0.0000  0.0354 -0.0619  0.0000
  17.  S 2 (px)     0.0000  0.0000  0.0000  0.0000  0.0158  0.0000  0.0000  0.0000
  18.  S 2 (py)     0.0000  0.0000  0.0000 -0.0592  0.0000  0.0000  0.0000  0.0000
  19.  S 2 (pz)     0.0052 -0.0399  0.0000  0.0000  0.0000 -0.0577  0.0690  0.0000
  20.  S 2 (s)     -0.5983 -0.2401  0.0000  0.0000  0.0000  0.0053 -0.0556  0.0000
  21.  S 2 (px)     0.0000  0.0000  0.0000  0.0000 -0.0298  0.0000  0.0000  0.0000
  22.  S 2 (py)     0.0000  0.0000  0.0000  0.3102  0.0000  0.0000  0.0000  0.0000
  23.  S 2 (pz)    -0.0601  0.3289  0.0000  0.0000  0.0000  0.2821 -0.2308  0.0000
  24.  S 2 (s)      2.2088 -0.6587  0.0000  0.0000  0.0000 -0.8674  0.4897  0.0000
  25.  S 2 (px)     0.0000  0.0000  0.0000  0.0000 -0.2323  0.0000  0.0000  0.0000
  26.  S 2 (py)     0.0000  0.0000  0.0000  0.5249  0.0000  0.0000  0.0000  0.0000
  27.  S 2 (pz)    -1.3734  0.1813  0.0000  0.0000  0.0000  0.4907 -0.2412  0.0000
  28.  S 2 (d5)     0.6212  0.6002  0.0000  0.0000  0.0000 -0.3738  0.2522  0.0000
  29.  S 2 (d2)     0.0000  0.0000  0.0000  0.0000  0.3463  0.0000  0.0000  0.0000
  30.  S 2 (d3)     0.0000  0.0000  0.0000 -0.6772  0.0000  0.0000  0.0000  0.0000
  31.  S 2 (d4)    -0.4987  0.0541  0.0000  0.0000  0.0000 -0.0937 -0.1420  0.0000
  32.  S 2 (d1)     0.0000  0.0000  0.7597  0.0000  0.0000  0.0000  0.0000  0.0057
  33.  C 3 (s)      0.0509 -0.0117  0.0000  0.0990  0.0000 -0.0463  0.0284  0.0000
  34.  C 3 (s)      0.9091 -1.2149  0.0000  1.4167  0.0000 -0.5324 -0.2876  0.0000
  35.  C 3 (px)     0.0000  0.0000  0.1186  0.0000  0.0134  0.0000  0.0000  0.0378
  36.  C 3 (py)     0.0183  0.0062  0.0000  0.0825  0.0000  0.1587  0.2762  0.0000
  37.  C 3 (pz)    -0.1760 -0.3081  0.0000  0.0083  0.0000 -0.0846  0.0162  0.0000
  38.  C 3 (s)     -2.1382  1.9393  0.0000 -4.9692  0.0000  1.1392 -0.1555  0.0000
  39.  C 3 (px)     0.0000  0.0000 -1.7009  0.0000  0.2991  0.0000  0.0000 -0.9202
  40.  C 3 (py)    -0.0238  0.1609  0.0000  1.4074  0.0000 -0.0975 -0.2461  0.0000
  41.  C 3 (pz)    -0.4809  0.3933  0.0000 -0.2167  0.0000  0.2668 -0.1762  0.0000
  42.  C 3 (d5)     0.0461  0.0397  0.0000  0.0146  0.0000 -0.2698 -0.4232  0.0000
  43.  C 3 (d2)     0.0000  0.0000 -0.1262  0.0000  0.5610  0.0000  0.0000  0.6706
  44.  C 3 (d3)    -0.1811  0.0008  0.0000 -0.1210  0.0000 -0.5716  0.2077  0.0000
  45.  C 3 (d4)    -0.0534  0.0857  0.0000  0.0536  0.0000 -0.0054 -0.4791  0.0000
  46.  C 3 (d1)     0.0000  0.0000  0.0703  0.0000  0.3536  0.0000  0.0000  0.3228
  47.  H 4 (s)      0.1153 -0.0318  0.4552 -0.3401  0.1393 -0.2861  0.1264  0.2132
  48.  H 4 (s)      0.2054 -0.4633  0.4381 -0.3104  0.0724 -0.0660 -0.0606  0.3126
  49.  H 5 (s)      0.1153 -0.0318 -0.4552 -0.3401 -0.1393 -0.2861  0.1264 -0.2132
  50.  H 5 (s)      0.2054 -0.4633 -0.4381 -0.3104 -0.0724 -0.0660 -0.0606 -0.3126
  51.  H 6 (s)      0.1153 -0.0318  0.4552  0.3401 -0.1393 -0.2861  0.1264  0.2132
  52.  H 6 (s)      0.2054 -0.4633  0.4381  0.3104 -0.0724 -0.0660 -0.0606  0.3126
  53.  H 7 (s)      0.1153 -0.0318 -0.4552  0.3401  0.1393 -0.2861  0.1264 -0.2132
  54.  H 7 (s)      0.2054 -0.4633 -0.4381  0.3104  0.0724 -0.0660 -0.0606 -0.3126

           AO         49      50      51      52      53      54
      ------------ ------- ------- ------- ------- ------- -------
   1.  C 1 (s)      0.0000  0.0212  0.0164 -0.0443  0.0000 -0.0660
   2.  C 1 (s)      0.0000  0.5238  0.0846 -0.3452  0.0000  0.0031
   3.  C 1 (px)    -0.1878  0.0000  0.0000  0.0000 -0.0346  0.0000
   4.  C 1 (py)     0.0000  0.1046  0.0853  0.0446  0.0000  0.4639
   5.  C 1 (pz)     0.0000  0.0149  0.0181  0.0005  0.0000 -0.0067
   6.  C 1 (s)      0.0000 -0.6601 -0.3249  1.5611  0.0000  1.5916
   7.  C 1 (px)    -0.2843  0.0000  0.0000  0.0000 -0.4147  0.0000
   8.  C 1 (py)     0.0000 -0.4530  0.0923  0.5912  0.0000  1.0332
   9.  C 1 (pz)     0.0000 -0.5375  0.3827  0.4222  0.0000 -0.0204
  10.  C 1 (d5)     0.0000 -0.5495  0.6746 -0.1233  0.0000 -0.4896
  11.  C 1 (d2)     0.4216  0.0000  0.0000  0.0000  0.3228  0.0000
  12.  C 1 (d3)     0.0000 -0.1668  0.0892  0.8361  0.0000 -0.0882
  13.  C 1 (d4)     0.0000  0.5086 -0.3899 -0.0654  0.0000 -0.8930
  14.  C 1 (d1)     0.6047  0.0000  0.0000  0.0000  0.8173  0.0000
  15.  S 2 (s)      0.0000  0.0170  0.0000  0.0000  0.0000  0.0000
  16.  S 2 (s)      0.0000 -0.0703  0.0000  0.0000  0.0000  0.0000
  17.  S 2 (px)     0.0166  0.0000  0.0000  0.0000  0.0000  0.0000
  18.  S 2 (py)     0.0000  0.0000 -0.0528 -0.0397  0.0000  0.0070
  19.  S 2 (pz)     0.0000  0.1196  0.0000  0.0000  0.0000  0.0000
  20.  S 2 (s)      0.0000  0.2673  0.0000  0.0000  0.0000  0.0000
  21.  S 2 (px)    -0.0507  0.0000  0.0000  0.0000  0.0000  0.0000
  22.  S 2 (py)     0.0000  0.0000  0.2095  0.2209  0.0000  0.0300
  23.  S 2 (pz)     0.0000 -0.5719  0.0000  0.0000  0.0000  0.0000
  24.  S 2 (s)      0.0000  0.9034  0.0000  0.0000  0.0000  0.0000
  25.  S 2 (px)     0.1119  0.0000  0.0000  0.0000  0.0000  0.0000
  26.  S 2 (py)     0.0000  0.0000  0.0584  0.1833  0.0000 -0.0488
  27.  S 2 (pz)     0.0000 -0.4429  0.0000  0.0000  0.0000  0.0000
  28.  S 2 (d5)     0.0000  0.3978  0.0000  0.0000  0.0000  0.0000
  29.  S 2 (d2)     0.1062  0.0000  0.0000  0.0000  0.0000  0.0000
  30.  S 2 (d3)     0.0000  0.0000 -0.3428 -0.2531  0.0000  0.0993
  31.  S 2 (d4)     0.0000 -0.0846  0.0000  0.0000  0.0000  0.0000
  32.  S 2 (d1)     0.0000  0.0000  0.0000  0.0000 -0.0094  0.0000
  33.  C 3 (s)      0.0000  0.0212 -0.0164  0.0443  0.0000  0.0660
  34.  C 3 (s)      0.0000  0.5238 -0.0846  0.3452  0.0000 -0.0031
  35.  C 3 (px)    -0.1878  0.0000  0.0000  0.0000  0.0346  0.0000
  36.  C 3 (py)     0.0000 -0.1046  0.0853  0.0446  0.0000  0.4639
  37.  C 3 (pz)     0.0000  0.0149 -0.0181 -0.0005  0.0000  0.0067
  38.  C 3 (s)      0.0000 -0.6601  0.3249 -1.5611  0.0000 -1.5916
  39.  C 3 (px)    -0.2843  0.0000  0.0000  0.0000  0.4147  0.0000
  40.  C 3 (py)     0.0000  0.4530  0.0923  0.5912  0.0000  1.0332
  41.  C 3 (pz)     0.0000 -0.5375 -0.3827 -0.4222  0.0000  0.0204
  42.  C 3 (d5)     0.0000 -0.5495 -0.6746  0.1233  0.0000  0.4896
  43.  C 3 (d2)     0.4216  0.0000  0.0000  0.0000 -0.3228  0.0000
  44.  C 3 (d3)     0.0000  0.1668  0.0892  0.8361  0.0000 -0.0882
  45.  C 3 (d4)     0.0000  0.5086  0.3899  0.0654  0.0000  0.8930
  46.  C 3 (d1)    -0.6047  0.0000  0.0000  0.0000  0.8173  0.0000
  47.  H 4 (s)     -0.5068 -0.2634  0.3533 -0.1941 -0.4758  0.0645
  48.  H 4 (s)      0.0494  0.0081  0.0214  0.0223  0.0304  0.0126
  49.  H 5 (s)      0.5068 -0.2634  0.3533 -0.1941  0.4758  0.0645
  50.  H 5 (s)     -0.0494  0.0081  0.0214  0.0223 -0.0304  0.0126
  51.  H 6 (s)      0.5068 -0.2634 -0.3533  0.1941 -0.4758 -0.0645
  52.  H 6 (s)     -0.0494  0.0081 -0.0214 -0.0223  0.0304 -0.0126
  53.  H 7 (s)     -0.5068 -0.2634 -0.3533  0.1941  0.4758 -0.0645
  54.  H 7 (s)      0.0494  0.0081 -0.0214 -0.0223 -0.0304 -0.0126


 AO overlap matrix:

           AO          1       2       3       4       5       6       7       8
      ------------ ------- ------- ------- ------- ------- ------- ------- -------
   1.  C 1 (s)      1.0000  0.2191  0.0000  0.0000  0.0000  0.1843  0.0000  0.0000
   2.  C 1 (s)      0.2191  1.0000  0.0000  0.0000  0.0000  0.8123  0.0000  0.0000
   3.  C 1 (px)     0.0000  0.0000  1.0000  0.0000  0.0000  0.0000  0.5698  0.0000
   4.  C 1 (py)     0.0000  0.0000  0.0000  1.0000  0.0000  0.0000  0.0000  0.5698
   5.  C 1 (pz)     0.0000  0.0000  0.0000  0.0000  1.0000  0.0000  0.0000  0.0000
   6.  C 1 (s)      0.1843  0.8123  0.0000  0.0000  0.0000  1.0000  0.0000  0.0000
   7.  C 1 (px)     0.0000  0.0000  0.5698  0.0000  0.0000  0.0000  1.0000  0.0000
   8.  C 1 (py)     0.0000  0.0000  0.0000  0.5698  0.0000  0.0000  0.0000  1.0000
   9.  C 1 (pz)     0.0000  0.0000  0.0000  0.0000  0.5698  0.0000  0.0000  0.0000
  10.  C 1 (d5)     0.0000  0.0000  0.0000  0.0000  0.0000  0.0000  0.0000  0.0000
  11.  C 1 (d2)     0.0000  0.0000  0.0000  0.0000  0.0000  0.0000  0.0000  0.0000
  12.  C 1 (d3)     0.0000  0.0000  0.0000  0.0000  0.0000  0.0000  0.0000  0.0000
  13.  C 1 (d4)     0.0000  0.0000  0.0000  0.0000  0.0000  0.0000  0.0000  0.0000
  14.  C 1 (d1)     0.0000  0.0000  0.0000  0.0000  0.0000  0.0000  0.0000  0.0000
  15.  S 2 (s)      0.0000  0.0002  0.0000  0.0003  0.0006  0.0059  0.0000  0.0067
  16.  S 2 (s)      0.0000  0.0039  0.0000  0.0042  0.0094  0.0497  0.0000  0.0534
  17.  S 2 (px)     0.0000  0.0000  0.0013  0.0000  0.0000  0.0000  0.0163  0.0000
  18.  S 2 (py)     0.0000 -0.0020  0.0000 -0.0009 -0.0049 -0.0094  0.0000  0.0062
  19.  S 2 (pz)     0.0000 -0.0044  0.0000 -0.0049 -0.0096 -0.0209  0.0000 -0.0226
  20.  S 2 (s)      0.0075  0.0948  0.0000  0.0552  0.1237  0.2505  0.0000  0.1901
  21.  S 2 (px)     0.0000  0.0000  0.0522  0.0000  0.0000  0.0000  0.1976  0.0000
  22.  S 2 (py)    -0.0082 -0.0725  0.0000  0.0062 -0.1029 -0.1134  0.0000  0.1075
  23.  S 2 (pz)    -0.0184 -0.1623  0.0000 -0.1029 -0.1781 -0.2539  0.0000 -0.2017
  24.  S 2 (s)      0.0373  0.2281  0.0000  0.0650  0.1455  0.4330  0.0000  0.2038
  25.  S 2 (px)     0.0000  0.0000  0.1358  0.0000  0.0000  0.0000  0.4260  0.0000
  26.  S 2 (py)    -0.0348 -0.1774  0.0000  0.0839 -0.1162 -0.2446  0.0000  0.3108
  27.  S 2 (pz)    -0.0778 -0.3972  0.0000 -0.1162 -0.1244 -0.5475  0.0000 -0.2577
  28.  S 2 (d5)     0.0056  0.0926  0.0000  0.0912  0.1084  0.0848  0.0000  0.1100
  29.  S 2 (d2)     0.0000  0.0000 -0.0552  0.0000  0.0000  0.0000 -0.1269  0.0000
  30.  S 2 (d3)     0.0048  0.0796  0.0000  0.0109  0.1233  0.0729  0.0000 -0.0605
  31.  S 2 (d4)    -0.0011 -0.0178  0.0000  0.0099 -0.0331 -0.0163  0.0000  0.0419
  32.  S 2 (d1)     0.0000  0.0000 -0.0247  0.0000  0.0000  0.0000 -0.0567  0.0000
  33.  C 3 (s)      0.0000  0.0101  0.0000  0.0243  0.0000  0.0517  0.0000  0.1144
  34.  C 3 (s)      0.0101  0.1438  0.0000  0.2142  0.0000  0.3029  0.0000  0.5216
  35.  C 3 (px)     0.0000  0.0000  0.0775  0.0000  0.0000  0.0000  0.2032  0.0000
  36.  C 3 (py)    -0.0243 -0.2142  0.0000 -0.2799  0.0000 -0.2333  0.0000 -0.2149
  37.  C 3 (pz)     0.0000  0.0000  0.0000  0.0000  0.0775  0.0000  0.0000  0.0000
  38.  C 3 (s)      0.0517  0.3029  0.0000  0.2333  0.0000  0.5172  0.0000  0.5939
  39.  C 3 (px)     0.0000  0.0000  0.2032  0.0000  0.0000  0.0000  0.5172  0.0000
  40.  C 3 (py)    -0.1144 -0.5216  0.0000 -0.2149  0.0000 -0.5939  0.0000 -0.1648
  41.  C 3 (pz)     0.0000  0.0000  0.0000  0.0000  0.2032  0.0000  0.0000  0.0000
  42.  C 3 (d5)    -0.0125 -0.0974  0.0000 -0.1236  0.0000 -0.0487  0.0000 -0.0075
  43.  C 3 (d2)     0.0000  0.0000  0.0000  0.0000  0.0000  0.0000  0.0000  0.0000
  44.  C 3 (d3)     0.0000  0.0000  0.0000  0.0000 -0.1258  0.0000  0.0000  0.0000
  45.  C 3 (d4)    -0.0216 -0.1687  0.0000 -0.2141  0.0000 -0.0843  0.0000 -0.0131
  46.  C 3 (d1)     0.0000  0.0000 -0.1258  0.0000  0.0000  0.0000 -0.1469  0.0000
  47.  H 4 (s)      0.0335  0.2770 -0.3140 -0.1753 -0.0978  0.3791 -0.4342 -0.2425
  48.  H 4 (s)      0.0928  0.4785 -0.2240 -0.1251 -0.0697  0.7069 -0.4902 -0.2737
  49.  H 5 (s)      0.0335  0.2770  0.3140 -0.1753 -0.0978  0.3791  0.4342 -0.2425
  50.  H 5 (s)      0.0928  0.4785  0.2240 -0.1251 -0.0697  0.7069  0.4902 -0.2737
  51.  H 6 (s)      0.0000  0.0056  0.0051  0.0111 -0.0016  0.0630  0.0718  0.1564
  52.  H 6 (s)      0.0119  0.0949  0.0419  0.0912 -0.0130  0.2379  0.1649  0.3591
  53.  H 7 (s)      0.0000  0.0056 -0.0051  0.0111 -0.0016  0.0630 -0.0718  0.1564
  54.  H 7 (s)      0.0119  0.0949 -0.0419  0.0912 -0.0130  0.2379 -0.1649  0.3591

           AO          9      10      11      12      13      14      15      16
      ------------ ------- ------- ------- ------- ------- ------- ------- -------
   1.  C 1 (s)      0.0000  0.0000  0.0000  0.0000  0.0000  0.0000  0.0000  0.0000
   2.  C 1 (s)      0.0000  0.0000  0.0000  0.0000  0.0000  0.0000  0.0002  0.0039
   3.  C 1 (px)     0.0000  0.0000  0.0000  0.0000  0.0000  0.0000  0.0000  0.0000
   4.  C 1 (py)     0.0000  0.0000  0.0000  0.0000  0.0000  0.0000  0.0003  0.0042
   5.  C 1 (pz)     0.5698  0.0000  0.0000  0.0000  0.0000  0.0000  0.0006  0.0094
   6.  C 1 (s)      0.0000  0.0000  0.0000  0.0000  0.0000  0.0000  0.0059  0.0497
   7.  C 1 (px)     0.0000  0.0000  0.0000  0.0000  0.0000  0.0000  0.0000  0.0000
   8.  C 1 (py)     0.0000  0.0000  0.0000  0.0000  0.0000  0.0000  0.0067  0.0534
   9.  C 1 (pz)     1.0000  0.0000  0.0000  0.0000  0.0000  0.0000  0.0151  0.1196
  10.  C 1 (d5)     0.0000  1.0000  0.0000  0.0000  0.0000  0.0000  0.0002  0.0058
  11.  C 1 (d2)     0.0000  0.0000  1.0000  0.0000  0.0000  0.0000  0.0000  0.0000
  12.  C 1 (d3)     0.0000  0.0000  0.0000  1.0000  0.0000  0.0000  0.0002  0.0050
  13.  C 1 (d4)     0.0000  0.0000  0.0000  0.0000  1.0000  0.0000  0.0000 -0.0011
  14.  C 1 (d1)     0.0000  0.0000  0.0000  0.0000  0.0000  1.0000  0.0000  0.0000
  15.  S 2 (s)      0.0151  0.0002  0.0000  0.0002  0.0000  0.0000  1.0000  0.2627
  16.  S 2 (s)      0.1196  0.0058  0.0000  0.0050 -0.0011  0.0000  0.2627  1.0000
  17.  S 2 (px)     0.0000  0.0000  0.0015  0.0000  0.0000  0.0007  0.0000  0.0000
  18.  S 2 (py)    -0.0226 -0.0043  0.0000 -0.0019  0.0001  0.0000  0.0000  0.0000
  19.  S 2 (pz)    -0.0343 -0.0071  0.0000 -0.0069  0.0017  0.0000  0.0000  0.0000
  20.  S 2 (s)      0.4255  0.0817  0.0000  0.0702 -0.0157  0.0000  0.0102  0.3228
  21.  S 2 (px)     0.0000  0.0000  0.0670  0.0000  0.0000  0.0299  0.0000  0.0000
  22.  S 2 (py)    -0.2017 -0.0953  0.0000 -0.0001 -0.0150  0.0000  0.0000  0.0000
  23.  S 2 (pz)    -0.2539 -0.0973  0.0000 -0.1202  0.0335  0.0000  0.0000  0.0000
  24.  S 2 (s)      0.4562  0.0436  0.0000  0.0375 -0.0084  0.0000  0.0323  0.2491
  25.  S 2 (px)     0.0000  0.0000  0.0784  0.0000  0.0000  0.0350  0.0000  0.0000
  26.  S 2 (py)    -0.2577 -0.0567  0.0000  0.0471 -0.0280  0.0000  0.0000  0.0000
  27.  S 2 (pz)    -0.1508  0.0090  0.0000 -0.0351  0.0157  0.0000  0.0000  0.0000
  28.  S 2 (d5)     0.0265  0.0653  0.0000  0.1402 -0.0490  0.0000  0.0000  0.0000
  29.  S 2 (d2)     0.0000  0.0000 -0.0876  0.0000  0.0000 -0.0456  0.0000  0.0000
  30.  S 2 (d3)     0.0920  0.1402  0.0000  0.0352  0.0137  0.0000  0.0000  0.0000
  31.  S 2 (d4)    -0.0332 -0.0490  0.0000  0.0137  0.0013  0.0000  0.0000  0.0000
  32.  S 2 (d1)     0.0000  0.0000 -0.0456  0.0000  0.0000 -0.0058  0.0000  0.0000
  33.  C 3 (s)      0.0000 -0.0125  0.0000  0.0000 -0.0216  0.0000  0.0000  0.0000
  34.  C 3 (s)      0.0000 -0.0974  0.0000  0.0000 -0.1687  0.0000  0.0002  0.0039
  35.  C 3 (px)     0.0000  0.0000  0.0000  0.0000  0.0000  0.1258  0.0000  0.0000
  36.  C 3 (py)     0.0000  0.1236  0.0000  0.0000  0.2141  0.0000 -0.0003 -0.0042
  37.  C 3 (pz)     0.2032  0.0000  0.0000  0.1258  0.0000  0.0000  0.0006  0.0094
  38.  C 3 (s)      0.0000 -0.0487  0.0000  0.0000 -0.0843  0.0000  0.0059  0.0497
  39.  C 3 (px)     0.0000  0.0000  0.0000  0.0000  0.0000  0.1469  0.0000  0.0000
  40.  C 3 (py)     0.0000  0.0075  0.0000  0.0000  0.0131  0.0000 -0.0067 -0.0534
  41.  C 3 (pz)     0.5172  0.0000  0.0000  0.1469  0.0000  0.0000  0.0151  0.1196
  42.  C 3 (d5)     0.0000  0.0954  0.0000  0.0000  0.0892  0.0000  0.0002  0.0058
  43.  C 3 (d2)     0.0000  0.0000  0.0439  0.0000  0.0000  0.0000  0.0000  0.0000
  44.  C 3 (d3)    -0.1469  0.0000  0.0000 -0.2305  0.0000  0.0000 -0.0002 -0.0050
  45.  C 3 (d4)     0.0000  0.0892  0.0000  0.0000  0.1984  0.0000  0.0000 -0.0011
  46.  C 3 (d1)     0.0000  0.0000  0.0000  0.0000  0.0000 -0.2305  0.0000  0.0000
  47.  H 4 (s)     -0.1352 -0.1352  0.1304  0.0728  0.1441  0.2340  0.0000  0.0000
  48.  H 4 (s)     -0.1526 -0.0319  0.0307  0.0172  0.0340  0.0552  0.0012  0.0110
  49.  H 5 (s)     -0.1352 -0.1352 -0.1304  0.0728  0.1441 -0.2340  0.0000  0.0000
  50.  H 5 (s)     -0.1526 -0.0319 -0.0307  0.0172  0.0340 -0.0552  0.0012  0.0110
  51.  H 6 (s)     -0.0224 -0.0050 -0.0010 -0.0021 -0.0059  0.0068  0.0000  0.0000
  52.  H 6 (s)     -0.0514 -0.0269 -0.0052 -0.0114 -0.0314  0.0365  0.0012  0.0110
  53.  H 7 (s)     -0.0224 -0.0050  0.0010 -0.0021 -0.0059 -0.0068  0.0000  0.0000
  54.  H 7 (s)     -0.0514 -0.0269  0.0052 -0.0114 -0.0314 -0.0365  0.0012  0.0110

           AO         17      18      19      20      21      22      23      24
      ------------ ------- ------- ------- ------- ------- ------- ------- -------
   1.  C 1 (s)      0.0000  0.0000  0.0000  0.0075  0.0000 -0.0082 -0.0184  0.0373
   2.  C 1 (s)      0.0000 -0.0020 -0.0044  0.0948  0.0000 -0.0725 -0.1623  0.2281
   3.  C 1 (px)     0.0013  0.0000  0.0000  0.0000  0.0522  0.0000  0.0000  0.0000
   4.  C 1 (py)     0.0000 -0.0009 -0.0049  0.0552  0.0000  0.0062 -0.1029  0.0650
   5.  C 1 (pz)     0.0000 -0.0049 -0.0096  0.1237  0.0000 -0.1029 -0.1781  0.1455
   6.  C 1 (s)      0.0000 -0.0094 -0.0209  0.2505  0.0000 -0.1134 -0.2539  0.4330
   7.  C 1 (px)     0.0163  0.0000  0.0000  0.0000  0.1976  0.0000  0.0000  0.0000
   8.  C 1 (py)     0.0000  0.0062 -0.0226  0.1901  0.0000  0.1075 -0.2017  0.2038
   9.  C 1 (pz)     0.0000 -0.0226 -0.0343  0.4255  0.0000 -0.2017 -0.2539  0.4562
  10.  C 1 (d5)     0.0000 -0.0043 -0.0071  0.0817  0.0000 -0.0953 -0.0973  0.0436
  11.  C 1 (d2)     0.0015  0.0000  0.0000  0.0000  0.0670  0.0000  0.0000  0.0000
  12.  C 1 (d3)     0.0000 -0.0019 -0.0069  0.0702  0.0000 -0.0001 -0.1202  0.0375
  13.  C 1 (d4)     0.0000  0.0001  0.0017 -0.0157  0.0000 -0.0150  0.0335 -0.0084
  14.  C 1 (d1)     0.0007  0.0000  0.0000  0.0000  0.0299  0.0000  0.0000  0.0000
  15.  S 2 (s)      0.0000  0.0000  0.0000  0.0102  0.0000  0.0000  0.0000  0.0323
  16.  S 2 (s)      0.0000  0.0000  0.0000  0.3228  0.0000  0.0000  0.0000  0.2491
  17.  S 2 (px)     1.0000  0.0000  0.0000  0.0000  0.3105  0.0000  0.0000  0.0000
  18.  S 2 (py)     0.0000  1.0000  0.0000  0.0000  0.0000  0.3105  0.0000  0.0000
  19.  S 2 (pz)     0.0000  0.0000  1.0000  0.0000  0.0000  0.0000  0.3105  0.0000
  20.  S 2 (s)      0.0000  0.0000  0.0000  1.0000  0.0000  0.0000  0.0000  0.8283
  21.  S 2 (px)     0.3105  0.0000  0.0000  0.0000  1.0000  0.0000  0.0000  0.0000
  22.  S 2 (py)     0.0000  0.3105  0.0000  0.0000  0.0000  1.0000  0.0000  0.0000
  23.  S 2 (pz)     0.0000  0.0000  0.3105  0.0000  0.0000  0.0000  1.0000  0.0000
  24.  S 2 (s)      0.0000  0.0000  0.0000  0.8283  0.0000  0.0000  0.0000  1.0000
  25.  S 2 (px)     0.0696  0.0000  0.0000  0.0000  0.6335  0.0000  0.0000  0.0000
  26.  S 2 (py)     0.0000  0.0696  0.0000  0.0000  0.0000  0.6335  0.0000  0.0000
  27.  S 2 (pz)     0.0000  0.0000  0.0696  0.0000  0.0000  0.0000  0.6335  0.0000
  28.  S 2 (d5)     0.0000  0.0000  0.0000  0.0000  0.0000  0.0000  0.0000  0.0000
  29.  S 2 (d2)     0.0000  0.0000  0.0000  0.0000  0.0000  0.0000  0.0000  0.0000
  30.  S 2 (d3)     0.0000  0.0000  0.0000  0.0000  0.0000  0.0000  0.0000  0.0000
  31.  S 2 (d4)     0.0000  0.0000  0.0000  0.0000  0.0000  0.0000  0.0000  0.0000
  32.  S 2 (d1)     0.0000  0.0000  0.0000  0.0000  0.0000  0.0000  0.0000  0.0000
  33.  C 3 (s)      0.0000  0.0000  0.0000  0.0075  0.0000  0.0082 -0.0184  0.0373
  34.  C 3 (s)      0.0000  0.0020 -0.0044  0.0948  0.0000  0.0725 -0.1623  0.2281
  35.  C 3 (px)     0.0013  0.0000  0.0000  0.0000  0.0522  0.0000  0.0000  0.0000
  36.  C 3 (py)     0.0000 -0.0009  0.0049 -0.0552  0.0000  0.0062  0.1029 -0.0650
  37.  C 3 (pz)     0.0000  0.0049 -0.0096  0.1237  0.0000  0.1029 -0.1781  0.1455
  38.  C 3 (s)      0.0000  0.0094 -0.0209  0.2505  0.0000  0.1134 -0.2539  0.4330
  39.  C 3 (px)     0.0163  0.0000  0.0000  0.0000  0.1976  0.0000  0.0000  0.0000
  40.  C 3 (py)     0.0000  0.0062  0.0226 -0.1901  0.0000  0.1075  0.2017 -0.2038
  41.  C 3 (pz)     0.0000  0.0226 -0.0343  0.4255  0.0000  0.2017 -0.2539  0.4562
  42.  C 3 (d5)     0.0000  0.0043 -0.0071  0.0817  0.0000  0.0953 -0.0973  0.0436
  43.  C 3 (d2)     0.0015  0.0000  0.0000  0.0000  0.0670  0.0000  0.0000  0.0000
  44.  C 3 (d3)     0.0000 -0.0019  0.0069 -0.0702  0.0000 -0.0001  0.1202 -0.0375
  45.  C 3 (d4)     0.0000 -0.0001  0.0017 -0.0157  0.0000  0.0150  0.0335 -0.0084
  46.  C 3 (d1)    -0.0007  0.0000  0.0000  0.0000 -0.0299  0.0000  0.0000  0.0000
  47.  H 4 (s)      0.0000  0.0000  0.0000  0.0061 -0.0059 -0.0080 -0.0125  0.0616
  48.  H 4 (s)     -0.0024 -0.0033 -0.0052  0.0845 -0.0440 -0.0602 -0.0934  0.2203
  49.  H 5 (s)      0.0000  0.0000  0.0000  0.0061  0.0059 -0.0080 -0.0125  0.0616
  50.  H 5 (s)      0.0024 -0.0033 -0.0052  0.0845  0.0440 -0.0602 -0.0934  0.2203
  51.  H 6 (s)      0.0000  0.0000  0.0000  0.0061  0.0059  0.0080 -0.0125  0.0616
  52.  H 6 (s)      0.0024  0.0033 -0.0052  0.0845  0.0440  0.0602 -0.0934  0.2203
  53.  H 7 (s)      0.0000  0.0000  0.0000  0.0061 -0.0059  0.0080 -0.0125  0.0616
  54.  H 7 (s)     -0.0024  0.0033 -0.0052  0.0845 -0.0440  0.0602 -0.0934  0.2203

           AO         25      26      27      28      29      30      31      32
      ------------ ------- ------- ------- ------- ------- ------- ------- -------
   1.  C 1 (s)      0.0000 -0.0348 -0.0778  0.0056  0.0000  0.0048 -0.0011  0.0000
   2.  C 1 (s)      0.0000 -0.1774 -0.3972  0.0926  0.0000  0.0796 -0.0178  0.0000
   3.  C 1 (px)     0.1358  0.0000  0.0000  0.0000 -0.0552  0.0000  0.0000 -0.0247
   4.  C 1 (py)     0.0000  0.0839 -0.1162  0.0912  0.0000  0.0109  0.0099  0.0000
   5.  C 1 (pz)     0.0000 -0.1162 -0.1244  0.1084  0.0000  0.1233 -0.0331  0.0000
   6.  C 1 (s)      0.0000 -0.2446 -0.5475  0.0848  0.0000  0.0729 -0.0163  0.0000
   7.  C 1 (px)     0.4260  0.0000  0.0000  0.0000 -0.1269  0.0000  0.0000 -0.0567
   8.  C 1 (py)     0.0000  0.3108 -0.2577  0.1100  0.0000 -0.0605  0.0419  0.0000
   9.  C 1 (pz)     0.0000 -0.2577 -0.1508  0.0265  0.0000  0.0920 -0.0332  0.0000
  10.  C 1 (d5)     0.0000 -0.0567  0.0090  0.0653  0.0000  0.1402 -0.0490  0.0000
  11.  C 1 (d2)     0.0784  0.0000  0.0000  0.0000 -0.0876  0.0000  0.0000 -0.0456
  12.  C 1 (d3)     0.0000  0.0471 -0.0351  0.1402  0.0000  0.0352  0.0137  0.0000
  13.  C 1 (d4)     0.0000 -0.0280  0.0157 -0.0490  0.0000  0.0137  0.0013  0.0000
  14.  C 1 (d1)     0.0350  0.0000  0.0000  0.0000 -0.0456  0.0000  0.0000 -0.0058
  15.  S 2 (s)      0.0000  0.0000  0.0000  0.0000  0.0000  0.0000  0.0000  0.0000
  16.  S 2 (s)      0.0000  0.0000  0.0000  0.0000  0.0000  0.0000  0.0000  0.0000
  17.  S 2 (px)     0.0696  0.0000  0.0000  0.0000  0.0000  0.0000  0.0000  0.0000
  18.  S 2 (py)     0.0000  0.0696  0.0000  0.0000  0.0000  0.0000  0.0000  0.0000
  19.  S 2 (pz)     0.0000  0.0000  0.0696  0.0000  0.0000  0.0000  0.0000  0.0000
  20.  S 2 (s)      0.0000  0.0000  0.0000  0.0000  0.0000  0.0000  0.0000  0.0000
  21.  S 2 (px)     0.6335  0.0000  0.0000  0.0000  0.0000  0.0000  0.0000  0.0000
  22.  S 2 (py)     0.0000  0.6335  0.0000  0.0000  0.0000  0.0000  0.0000  0.0000
  23.  S 2 (pz)     0.0000  0.0000  0.6335  0.0000  0.0000  0.0000  0.0000  0.0000
  24.  S 2 (s)      0.0000  0.0000  0.0000  0.0000  0.0000  0.0000  0.0000  0.0000
  25.  S 2 (px)     1.0000  0.0000  0.0000  0.0000  0.0000  0.0000  0.0000  0.0000
  26.  S 2 (py)     0.0000  1.0000  0.0000  0.0000  0.0000  0.0000  0.0000  0.0000
  27.  S 2 (pz)     0.0000  0.0000  1.0000  0.0000  0.0000  0.0000  0.0000  0.0000
  28.  S 2 (d5)     0.0000  0.0000  0.0000  1.0000  0.0000  0.0000  0.0000  0.0000
  29.  S 2 (d2)     0.0000  0.0000  0.0000  0.0000  1.0000  0.0000  0.0000  0.0000
  30.  S 2 (d3)     0.0000  0.0000  0.0000  0.0000  0.0000  1.0000  0.0000  0.0000
  31.  S 2 (d4)     0.0000  0.0000  0.0000  0.0000  0.0000  0.0000  1.0000  0.0000
  32.  S 2 (d1)     0.0000  0.0000  0.0000  0.0000  0.0000  0.0000  0.0000  1.0000
  33.  C 3 (s)      0.0000  0.0348 -0.0778  0.0056  0.0000 -0.0048 -0.0011  0.0000
  34.  C 3 (s)      0.0000  0.1774 -0.3972  0.0926  0.0000 -0.0796 -0.0178  0.0000
  35.  C 3 (px)     0.1358  0.0000  0.0000  0.0000 -0.0552  0.0000  0.0000  0.0247
  36.  C 3 (py)     0.0000  0.0839  0.1162 -0.0912  0.0000  0.0109 -0.0099  0.0000
  37.  C 3 (pz)     0.0000  0.1162 -0.1244  0.1084  0.0000 -0.1233 -0.0331  0.0000
  38.  C 3 (s)      0.0000  0.2446 -0.5475  0.0848  0.0000 -0.0729 -0.0163  0.0000
  39.  C 3 (px)     0.4260  0.0000  0.0000  0.0000 -0.1269  0.0000  0.0000  0.0567
  40.  C 3 (py)     0.0000  0.3108  0.2577 -0.1100  0.0000 -0.0605 -0.0419  0.0000
  41.  C 3 (pz)     0.0000  0.2577 -0.1508  0.0265  0.0000 -0.0920 -0.0332  0.0000
  42.  C 3 (d5)     0.0000  0.0567  0.0090  0.0653  0.0000 -0.1402 -0.0490  0.0000
  43.  C 3 (d2)     0.0784  0.0000  0.0000  0.0000 -0.0876  0.0000  0.0000  0.0456
  44.  C 3 (d3)     0.0000  0.0471  0.0351 -0.1402  0.0000  0.0352 -0.0137  0.0000
  45.  C 3 (d4)     0.0000  0.0280  0.0157 -0.0490  0.0000 -0.0137  0.0013  0.0000
  46.  C 3 (d1)    -0.0350  0.0000  0.0000  0.0000  0.0456  0.0000  0.0000 -0.0058
  47.  H 4 (s)     -0.0622 -0.0851 -0.1321  0.0023  0.0027  0.0038 -0.0006  0.0018
  48.  H 4 (s)     -0.1509 -0.2064 -0.3203  0.0226  0.0270  0.0369 -0.0055  0.0174
  49.  H 5 (s)      0.0622 -0.0851 -0.1321  0.0023 -0.0027  0.0038 -0.0006 -0.0018
  50.  H 5 (s)      0.1509 -0.2064 -0.3203  0.0226 -0.0270  0.0369 -0.0055 -0.0174
  51.  H 6 (s)      0.0622  0.0851 -0.1321  0.0023 -0.0027 -0.0038 -0.0006  0.0018
  52.  H 6 (s)      0.1509  0.2064 -0.3203  0.0226 -0.0270 -0.0369 -0.0055  0.0174
  53.  H 7 (s)     -0.0622  0.0851 -0.1321  0.0023  0.0027 -0.0038 -0.0006 -0.0018
  54.  H 7 (s)     -0.1509  0.2064 -0.3203  0.0226  0.0270 -0.0369 -0.0055 -0.0174

           AO         33      34      35      36      37      38      39      40
      ------------ ------- ------- ------- ------- ------- ------- ------- -------
   1.  C 1 (s)      0.0000  0.0101  0.0000 -0.0243  0.0000  0.0517  0.0000 -0.1144
   2.  C 1 (s)      0.0101  0.1438  0.0000 -0.2142  0.0000  0.3029  0.0000 -0.5216
   3.  C 1 (px)     0.0000  0.0000  0.0775  0.0000  0.0000  0.0000  0.2032  0.0000
   4.  C 1 (py)     0.0243  0.2142  0.0000 -0.2799  0.0000  0.2333  0.0000 -0.2149
   5.  C 1 (pz)     0.0000  0.0000  0.0000  0.0000  0.0775  0.0000  0.0000  0.0000
   6.  C 1 (s)      0.0517  0.3029  0.0000 -0.2333  0.0000  0.5172  0.0000 -0.5939
   7.  C 1 (px)     0.0000  0.0000  0.2032  0.0000  0.0000  0.0000  0.5172  0.0000
   8.  C 1 (py)     0.1144  0.5216  0.0000 -0.2149  0.0000  0.5939  0.0000 -0.1648
   9.  C 1 (pz)     0.0000  0.0000  0.0000  0.0000  0.2032  0.0000  0.0000  0.0000
  10.  C 1 (d5)    -0.0125 -0.0974  0.0000  0.1236  0.0000 -0.0487  0.0000  0.0075
  11.  C 1 (d2)     0.0000  0.0000  0.0000  0.0000  0.0000  0.0000  0.0000  0.0000
  12.  C 1 (d3)     0.0000  0.0000  0.0000  0.0000  0.1258  0.0000  0.0000  0.0000
  13.  C 1 (d4)    -0.0216 -0.1687  0.0000  0.2141  0.0000 -0.0843  0.0000  0.0131
  14.  C 1 (d1)     0.0000  0.0000  0.1258  0.0000  0.0000  0.0000  0.1469  0.0000
  15.  S 2 (s)      0.0000  0.0002  0.0000 -0.0003  0.0006  0.0059  0.0000 -0.0067
  16.  S 2 (s)      0.0000  0.0039  0.0000 -0.0042  0.0094  0.0497  0.0000 -0.0534
  17.  S 2 (px)     0.0000  0.0000  0.0013  0.0000  0.0000  0.0000  0.0163  0.0000
  18.  S 2 (py)     0.0000  0.0020  0.0000 -0.0009  0.0049  0.0094  0.0000  0.0062
  19.  S 2 (pz)     0.0000 -0.0044  0.0000  0.0049 -0.0096 -0.0209  0.0000  0.0226
  20.  S 2 (s)      0.0075  0.0948  0.0000 -0.0552  0.1237  0.2505  0.0000 -0.1901
  21.  S 2 (px)     0.0000  0.0000  0.0522  0.0000  0.0000  0.0000  0.1976  0.0000
  22.  S 2 (py)     0.0082  0.0725  0.0000  0.0062  0.1029  0.1134  0.0000  0.1075
  23.  S 2 (pz)    -0.0184 -0.1623  0.0000  0.1029 -0.1781 -0.2539  0.0000  0.2017
  24.  S 2 (s)      0.0373  0.2281  0.0000 -0.0650  0.1455  0.4330  0.0000 -0.2038
  25.  S 2 (px)     0.0000  0.0000  0.1358  0.0000  0.0000  0.0000  0.4260  0.0000
  26.  S 2 (py)     0.0348  0.1774  0.0000  0.0839  0.1162  0.2446  0.0000  0.3108
  27.  S 2 (pz)    -0.0778 -0.3972  0.0000  0.1162 -0.1244 -0.5475  0.0000  0.2577
  28.  S 2 (d5)     0.0056  0.0926  0.0000 -0.0912  0.1084  0.0848  0.0000 -0.1100
  29.  S 2 (d2)     0.0000  0.0000 -0.0552  0.0000  0.0000  0.0000 -0.1269  0.0000
  30.  S 2 (d3)    -0.0048 -0.0796  0.0000  0.0109 -0.1233 -0.0729  0.0000 -0.0605
  31.  S 2 (d4)    -0.0011 -0.0178  0.0000 -0.0099 -0.0331 -0.0163  0.0000 -0.0419
  32.  S 2 (d1)     0.0000  0.0000  0.0247  0.0000  0.0000  0.0000  0.0567  0.0000
  33.  C 3 (s)      1.0000  0.2191  0.0000  0.0000  0.0000  0.1843  0.0000  0.0000
  34.  C 3 (s)      0.2191  1.0000  0.0000  0.0000  0.0000  0.8123  0.0000  0.0000
  35.  C 3 (px)     0.0000  0.0000  1.0000  0.0000  0.0000  0.0000  0.5698  0.0000
  36.  C 3 (py)     0.0000  0.0000  0.0000  1.0000  0.0000  0.0000  0.0000  0.5698
  37.  C 3 (pz)     0.0000  0.0000  0.0000  0.0000  1.0000  0.0000  0.0000  0.0000
  38.  C 3 (s)      0.1843  0.8123  0.0000  0.0000  0.0000  1.0000  0.0000  0.0000
  39.  C 3 (px)     0.0000  0.0000  0.5698  0.0000  0.0000  0.0000  1.0000  0.0000
  40.  C 3 (py)     0.0000  0.0000  0.0000  0.5698  0.0000  0.0000  0.0000  1.0000
  41.  C 3 (pz)     0.0000  0.0000  0.0000  0.0000  0.5698  0.0000  0.0000  0.0000
  42.  C 3 (d5)     0.0000  0.0000  0.0000  0.0000  0.0000  0.0000  0.0000  0.0000
  43.  C 3 (d2)     0.0000  0.0000  0.0000  0.0000  0.0000  0.0000  0.0000  0.0000
  44.  C 3 (d3)     0.0000  0.0000  0.0000  0.0000  0.0000  0.0000  0.0000  0.0000
  45.  C 3 (d4)     0.0000  0.0000  0.0000  0.0000  0.0000  0.0000  0.0000  0.0000
  46.  C 3 (d1)     0.0000  0.0000  0.0000  0.0000  0.0000  0.0000  0.0000  0.0000
  47.  H 4 (s)      0.0000  0.0056 -0.0051 -0.0111 -0.0016  0.0630 -0.0718 -0.1564
  48.  H 4 (s)      0.0119  0.0949 -0.0419 -0.0912 -0.0130  0.2379 -0.1649 -0.3591
  49.  H 5 (s)      0.0000  0.0056  0.0051 -0.0111 -0.0016  0.0630  0.0718 -0.1564
  50.  H 5 (s)      0.0119  0.0949  0.0419 -0.0912 -0.0130  0.2379  0.1649 -0.3591
  51.  H 6 (s)      0.0335  0.2770  0.3140  0.1753 -0.0978  0.3791  0.4342  0.2425
  52.  H 6 (s)      0.0928  0.4785  0.2240  0.1251 -0.0697  0.7069  0.4902  0.2737
  53.  H 7 (s)      0.0335  0.2770 -0.3140  0.1753 -0.0978  0.3791 -0.4342  0.2425
  54.  H 7 (s)      0.0928  0.4785 -0.2240  0.1251 -0.0697  0.7069 -0.4902  0.2737

           AO         41      42      43      44      45      46      47      48
      ------------ ------- ------- ------- ------- ------- ------- ------- -------
   1.  C 1 (s)      0.0000 -0.0125  0.0000  0.0000 -0.0216  0.0000  0.0335  0.0928
   2.  C 1 (s)      0.0000 -0.0974  0.0000  0.0000 -0.1687  0.0000  0.2770  0.4785
   3.  C 1 (px)     0.0000  0.0000  0.0000  0.0000  0.0000 -0.1258 -0.3140 -0.2240
   4.  C 1 (py)     0.0000 -0.1236  0.0000  0.0000 -0.2141  0.0000 -0.1753 -0.1251
   5.  C 1 (pz)     0.2032  0.0000  0.0000 -0.1258  0.0000  0.0000 -0.0978 -0.0697
   6.  C 1 (s)      0.0000 -0.0487  0.0000  0.0000 -0.0843  0.0000  0.3791  0.7069
   7.  C 1 (px)     0.0000  0.0000  0.0000  0.0000  0.0000 -0.1469 -0.4342 -0.4902
   8.  C 1 (py)     0.0000 -0.0075  0.0000  0.0000 -0.0131  0.0000 -0.2425 -0.2737
   9.  C 1 (pz)     0.5172  0.0000  0.0000 -0.1469  0.0000  0.0000 -0.1352 -0.1526
  10.  C 1 (d5)     0.0000  0.0954  0.0000  0.0000  0.0892  0.0000 -0.1352 -0.0319
  11.  C 1 (d2)     0.0000  0.0000  0.0439  0.0000  0.0000  0.0000  0.1304  0.0307
  12.  C 1 (d3)     0.1469  0.0000  0.0000 -0.2305  0.0000  0.0000  0.0728  0.0172
  13.  C 1 (d4)     0.0000  0.0892  0.0000  0.0000  0.1984  0.0000  0.1441  0.0340
  14.  C 1 (d1)     0.0000  0.0000  0.0000  0.0000  0.0000 -0.2305  0.2340  0.0552
  15.  S 2 (s)      0.0151  0.0002  0.0000 -0.0002  0.0000  0.0000  0.0000  0.0012
  16.  S 2 (s)      0.1196  0.0058  0.0000 -0.0050 -0.0011  0.0000  0.0000  0.0110
  17.  S 2 (px)     0.0000  0.0000  0.0015  0.0000  0.0000 -0.0007  0.0000 -0.0024
  18.  S 2 (py)     0.0226  0.0043  0.0000 -0.0019 -0.0001  0.0000  0.0000 -0.0033
  19.  S 2 (pz)    -0.0343 -0.0071  0.0000  0.0069  0.0017  0.0000  0.0000 -0.0052
  20.  S 2 (s)      0.4255  0.0817  0.0000 -0.0702 -0.0157  0.0000  0.0061  0.0845
  21.  S 2 (px)     0.0000  0.0000  0.0670  0.0000  0.0000 -0.0299 -0.0059 -0.0440
  22.  S 2 (py)     0.2017  0.0953  0.0000 -0.0001  0.0150  0.0000 -0.0080 -0.0602
  23.  S 2 (pz)    -0.2539 -0.0973  0.0000  0.1202  0.0335  0.0000 -0.0125 -0.0934
  24.  S 2 (s)      0.4562  0.0436  0.0000 -0.0375 -0.0084  0.0000  0.0616  0.2203
  25.  S 2 (px)     0.0000  0.0000  0.0784  0.0000  0.0000 -0.0350 -0.0622 -0.1509
  26.  S 2 (py)     0.2577  0.0567  0.0000  0.0471  0.0280  0.0000 -0.0851 -0.2064
  27.  S 2 (pz)    -0.1508  0.0090  0.0000  0.0351  0.0157  0.0000 -0.1321 -0.3203
  28.  S 2 (d5)     0.0265  0.0653  0.0000 -0.1402 -0.0490  0.0000  0.0023  0.0226
  29.  S 2 (d2)     0.0000  0.0000 -0.0876  0.0000  0.0000  0.0456  0.0027  0.0270
  30.  S 2 (d3)    -0.0920 -0.1402  0.0000  0.0352 -0.0137  0.0000  0.0038  0.0369
  31.  S 2 (d4)    -0.0332 -0.0490  0.0000 -0.0137  0.0013  0.0000 -0.0006 -0.0055
  32.  S 2 (d1)     0.0000  0.0000  0.0456  0.0000  0.0000 -0.0058  0.0018  0.0174
  33.  C 3 (s)      0.0000  0.0000  0.0000  0.0000  0.0000  0.0000  0.0000  0.0119
  34.  C 3 (s)      0.0000  0.0000  0.0000  0.0000  0.0000  0.0000  0.0056  0.0949
  35.  C 3 (px)     0.0000  0.0000  0.0000  0.0000  0.0000  0.0000 -0.0051 -0.0419
  36.  C 3 (py)     0.0000  0.0000  0.0000  0.0000  0.0000  0.0000 -0.0111 -0.0912
  37.  C 3 (pz)     0.5698  0.0000  0.0000  0.0000  0.0000  0.0000 -0.0016 -0.0130
  38.  C 3 (s)      0.0000  0.0000  0.0000  0.0000  0.0000  0.0000  0.0630  0.2379
  39.  C 3 (px)     0.0000  0.0000  0.0000  0.0000  0.0000  0.0000 -0.0718 -0.1649
  40.  C 3 (py)     0.0000  0.0000  0.0000  0.0000  0.0000  0.0000 -0.1564 -0.3591
  41.  C 3 (pz)     1.0000  0.0000  0.0000  0.0000  0.0000  0.0000 -0.0224 -0.0514
  42.  C 3 (d5)     0.0000  1.0000  0.0000  0.0000  0.0000  0.0000 -0.0050 -0.0269
  43.  C 3 (d2)     0.0000  0.0000  1.0000  0.0000  0.0000  0.0000  0.0010  0.0052
  44.  C 3 (d3)     0.0000  0.0000  0.0000  1.0000  0.0000  0.0000  0.0021  0.0114
  45.  C 3 (d4)     0.0000  0.0000  0.0000  0.0000  1.0000  0.0000 -0.0059 -0.0314
  46.  C 3 (d1)     0.0000  0.0000  0.0000  0.0000  0.0000  1.0000  0.0068  0.0365
  47.  H 4 (s)     -0.0224 -0.0050  0.0010  0.0021 -0.0059  0.0068  1.0000  0.6583
  48.  H 4 (s)     -0.0514 -0.0269  0.0052  0.0114 -0.0314  0.0365  0.6583  1.0000
  49.  H 5 (s)     -0.0224 -0.0050 -0.0010  0.0021 -0.0059 -0.0068  0.0151  0.1376
  50.  H 5 (s)     -0.0514 -0.0269 -0.0052  0.0114 -0.0314 -0.0365  0.1376  0.3821
  51.  H 6 (s)     -0.1352 -0.1352 -0.1304 -0.0728  0.1441  0.2340  0.0000  0.0075
  52.  H 6 (s)     -0.1526 -0.0319 -0.0307 -0.0172  0.0340  0.0552  0.0075  0.0631
  53.  H 7 (s)     -0.1352 -0.1352  0.1304 -0.0728  0.1441 -0.2340  0.0005  0.0354
  54.  H 7 (s)     -0.1526 -0.0319  0.0307 -0.0172  0.0340 -0.0552  0.0354  0.1653

           AO         49      50      51      52      53      54
      ------------ ------- ------- ------- ------- ------- -------
   1.  C 1 (s)      0.0335  0.0928  0.0000  0.0119  0.0000  0.0119
   2.  C 1 (s)      0.2770  0.4785  0.0056  0.0949  0.0056  0.0949
[...]
                                         0.0000  0.3829 -0.0295  0.0000  0.0000
                                         0.0168 -0.0170  0.9206 -0.0327  0.0000
                                         0.0000  0.0336 -0.0106  0.0460
               ( 51.01%)  -0.7142* S  2 s( 10.18%)p 8.73( 88.92%)d 0.09(  0.90%)
                                         0.0000  0.0000  0.3155 -0.0475  0.0000
                                         0.0000  0.0000  0.0000 -0.7032  0.0292
                                         0.0000 -0.6268  0.0306  0.0000  0.0000
                                         0.0683 -0.0254  0.0609
  18. (0.00560) BD*( 1) C  1- C  3
               ( 50.00%)   0.7071* C  1 s( 27.14%)p 2.68( 72.62%)d 0.01(  0.24%)
                                         0.0000  0.5207  0.0162  0.0000  0.0000
                                         0.8200  0.0211 -0.2307 -0.0081  0.0000
                                         0.0000  0.0042 -0.0448 -0.0185
               ( 50.00%)  -0.7071* C  3 s( 27.14%)p 2.68( 72.62%)d 0.01(  0.24%)
                                         0.0000  0.5207  0.0162  0.0000  0.0000
                                        -0.8200 -0.0211 -0.2307 -0.0081  0.0000
                                         0.0000 -0.0042 -0.0448 -0.0185
  19. (0.01654) BD*( 1) C  1- H  4
               ( 37.33%)   0.6110* C  1 s( 29.04%)p 2.44( 70.80%)d 0.01(  0.16%)
                                         0.0000 -0.5389  0.0002  0.7064 -0.0125
                                         0.4019  0.0199  0.2164  0.0063 -0.0244
                                        -0.0136 -0.0058 -0.0209  0.0183
               ( 62.67%)  -0.7917* H  4 s(100.00%)
                                        -1.0000 -0.0038
  20. (0.01654) BD*( 1) C  1- H  5
               ( 37.33%)   0.6110* C  1 s( 29.04%)p 2.44( 70.80%)d 0.01(  0.16%)
                                         0.0000 -0.5389  0.0002 -0.7064  0.0125
                                         0.4019  0.0199  0.2164  0.0063  0.0244
                                         0.0136 -0.0058 -0.0209  0.0183
               ( 62.67%)  -0.7917* H  5 s(100.00%)
                                        -1.0000 -0.0038
  21. (0.02331) BD*( 1) S  2- C  3
               ( 51.01%)   0.7142* S  2 s( 10.18%)p 8.73( 88.92%)d 0.09(  0.90%)
                                         0.0000  0.0000 -0.3155  0.0475  0.0000
                                         0.0000  0.0000  0.0000 -0.7032  0.0292
                                         0.0000  0.6268 -0.0306  0.0000  0.0000
                                         0.0683  0.0254 -0.0609
               ( 48.99%)  -0.6999* C  3 s( 14.75%)p 5.76( 84.92%)d 0.02(  0.34%)
                                         0.0000 -0.3829  0.0295  0.0000  0.0000
                                         0.0168 -0.0170 -0.9206  0.0327  0.0000
                                         0.0000  0.0336  0.0106 -0.0460
  22. (0.01654) BD*( 1) C  3- H  6
               ( 37.33%)   0.6110* C  3 s( 29.04%)p 2.44( 70.80%)d 0.01(  0.16%)
                                         0.0000 -0.5389  0.0002 -0.7064  0.0125
                                        -0.4019 -0.0199  0.2164  0.0063 -0.0244
                                         0.0136  0.0058 -0.0209  0.0183
               ( 62.67%)  -0.7917* H  6 s(100.00%)
                                        -1.0000 -0.0038
  23. (0.01654) BD*( 1) C  3- H  7
               ( 37.33%)   0.6110* C  3 s( 29.04%)p 2.44( 70.80%)d 0.01(  0.16%)
                                         0.0000 -0.5389  0.0002  0.7064 -0.0125
                                        -0.4019 -0.0199  0.2164  0.0063  0.0244
                                        -0.0136  0.0058 -0.0209  0.0183
               ( 62.67%)  -0.7917* H  7 s(100.00%)
                                        -1.0000 -0.0038
  24. (0.00585) RY ( 1) C  1            s( 33.69%)p 1.39( 46.94%)d 0.57( 19.37%)
                                         0.0000  0.0104  0.5804  0.0000  0.0000
                                        -0.0170  0.2755  0.0346  0.6261  0.0000
                                         0.0000  0.4084 -0.0353 -0.1601
  25. (0.00260) RY ( 2) C  1            s(  0.00%)p 1.00( 95.35%)d 0.05(  4.65%)
                                         0.0000  0.0000  0.0000  0.0195  0.9763
                                         0.0000  0.0000  0.0000  0.0000  0.1512
                                        -0.1538  0.0000  0.0000  0.0000
  26. (0.00102) RY ( 3) C  1            s(  0.00%)p 1.00(  0.41%)d99.99( 99.59%)
                                         0.0000  0.0000  0.0000  0.0353  0.0530
                                         0.0000  0.0000  0.0000  0.0000  0.5198
                                         0.8519  0.0000  0.0000  0.0000
  27. (0.00057) RY ( 4) C  1            s( 34.95%)p 1.47( 51.25%)d 0.39( 13.79%)
                                         0.0000 -0.0139  0.5910  0.0000  0.0000
                                         0.0320 -0.6774  0.0177 -0.2287  0.0000
                                         0.0000 -0.0667  0.3282 -0.1606
  28. (0.00004) RY ( 5) C  1            s( 16.01%)p 3.90( 62.39%)d 1.35( 21.60%)
  29. (0.00000) RY ( 6) C  1            s(  3.93%)p 3.66( 14.39%)d20.79( 81.68%)
  30. (0.00000) RY ( 7) C  1            s(  7.63%)p 1.20(  9.19%)d10.90( 83.18%)
  31. (0.00000) RY ( 8) C  1            s(  3.82%)p 4.33( 16.54%)d20.83( 79.64%)
  32. (0.00000) RY ( 9) C  1            s(  0.00%)p 1.00(  4.40%)d21.72( 95.60%)
  33. (0.00439) RY ( 1) S  2            s( 11.17%)p 3.23( 36.11%)d 4.72( 52.72%)
                                         0.0000  0.0000  0.0210  0.3335  0.0000
                                         0.0000  0.0000  0.0000  0.0000  0.0000
                                         0.0000 -0.0985 -0.5928  0.0000  0.0000
                                         0.0000 -0.2663 -0.6755
  34. (0.00317) RY ( 2) S  2            s(  0.00%)p 1.00( 78.62%)d 0.27( 21.38%)
                                         0.0000  0.0000  0.0000  0.0000  0.0000
                                        -0.0349  0.8860  0.0000  0.0000  0.0000
                                         0.0000  0.0000  0.0000  0.0000  0.4624
                                         0.0000  0.0000  0.0000
  35. (0.00072) RY ( 3) S  2            s(  0.00%)p 1.00( 83.30%)d 0.20( 16.70%)
                                         0.0000  0.0000  0.0000  0.0000  0.0000
                                         0.0000  0.0000  0.0000  0.0775  0.9094
                                         0.0000  0.0000  0.0000  0.0000  0.0000
                                         0.4087  0.0000  0.0000
  36. (0.00023) RY ( 4) S  2            s(  0.00%)p 0.00(  0.00%)d 1.00(100.00%)
                                         0.0000  0.0000  0.0000  0.0000  0.0000
                                         0.0000  0.0000  0.0000  0.0000  0.0000
                                         0.0000  0.0000  0.0000  1.0000  0.0000
                                         0.0000  0.0000  0.0000
  37. (0.00014) RY ( 5) S  2            s( 68.69%)p 0.00(  0.00%)d 0.46( 31.31%)
                                         0.0000  0.0000  0.0022  0.8288  0.0000
                                         0.0000  0.0000  0.0000  0.0000  0.0000
                                         0.0000 -0.0029 -0.0022  0.0000  0.0000
                                         0.0000 -0.2391  0.5059
  38. (0.00000) RY ( 6) S  2            s( 12.67%)p 0.05(  0.60%)d 6.84( 86.72%)
  39. (0.00000) RY ( 7) S  2            s(  0.00%)p 1.00( 17.64%)d 4.67( 82.36%)
  40. (0.00000) RY ( 8) S  2            s(  0.00%)p 1.00( 21.40%)d 3.67( 78.60%)
  41. (0.00000) RY ( 9) S  2            s(  7.09%)p 9.11( 64.59%)d 4.00( 28.33%)
  42. (0.00585) RY ( 1) C  3            s( 33.69%)p 1.39( 46.94%)d 0.57( 19.37%)
                                         0.0000  0.0104  0.5804  0.0000  0.0000
                                         0.0170 -0.2755  0.0346  0.6261  0.0000
                                         0.0000 -0.4084 -0.0353 -0.1601
  43. (0.00260) RY ( 2) C  3            s(  0.00%)p 1.00( 95.35%)d 0.05(  4.65%)
                                         0.0000  0.0000  0.0000  0.0195  0.9763
                                         0.0000  0.0000  0.0000  0.0000 -0.1512
                                        -0.1538  0.0000  0.0000  0.0000
  44. (0.00102) RY ( 3) C  3            s(  0.00%)p 1.00(  0.41%)d99.99( 99.59%)
                                         0.0000  0.0000  0.0000  0.0353  0.0530
                                         0.0000  0.0000  0.0000  0.0000 -0.5198
                                         0.8519  0.0000  0.0000  0.0000
  45. (0.00057) RY ( 4) C  3            s( 34.95%)p 1.47( 51.25%)d 0.39( 13.79%)
                                         0.0000 -0.0139  0.5910  0.0000  0.0000
                                        -0.0320  0.6774  0.0177 -0.2287  0.0000
                                         0.0000  0.0667  0.3282 -0.1606
  46. (0.00004) RY ( 5) C  3            s( 16.01%)p 3.90( 62.39%)d 1.35( 21.60%)
  47. (0.00000) RY ( 6) C  3            s(  3.93%)p 3.66( 14.39%)d20.79( 81.68%)
  48. (0.00000) RY ( 7) C  3            s(  7.63%)p 1.20(  9.19%)d10.90( 83.18%)
  49. (0.00000) RY ( 8) C  3            s(  3.82%)p 4.33( 16.54%)d20.83( 79.64%)
  50. (0.00000) RY ( 9) C  3            s(  0.00%)p 1.00(  4.40%)d21.72( 95.60%)
  51. (0.00155) RY ( 1) H  4            s(100.00%)
                                        -0.0038  1.0000
  52. (0.00155) RY ( 1) H  5            s(100.00%)
                                        -0.0038  1.0000
  53. (0.00155) RY ( 1) H  6            s(100.00%)
                                        -0.0038  1.0000
  54. (0.00155) RY ( 1) H  7            s(100.00%)
                                        -0.0038  1.0000


 NHO DIRECTIONALITY AND BOND BENDING (deviation from line of nuclear centers at
                                      the position of maximum hybrid amplitude)

         [Thresholds for printing:  angular deviation  >  1.0 degree]
                                    p- or d-character  > 25.0%
                                    orbital occupancy  >  0.10e

                        Line of Centers        Hybrid 1             Hybrid 2
                        ---------------  -------------------  ------------------
           NBO            Theta   Phi    Theta   Phi    Dev   Theta   Phi    Dev
 ===============================================================================
   9. LP ( 2) S  2          --     --     91.8  180.0   --      --     --    --
  10. BD ( 1) C  1- S  2   24.1   90.0     5.5   90.0  18.6   135.4  270.0  20.5
  11. BD ( 1) C  1- C  3   90.0   90.0   102.1   90.0  12.1   102.1  270.0  12.1
  14. BD ( 1) S  2- C  3  155.9   90.0   135.4   90.0  20.5     5.5  270.0  18.6


 SECOND ORDER PERTURBATION THEORY ANALYSIS OF FOCK MATRIX IN NBO BASIS

     Threshold for printing:   0.50 kcal/mol
                                                          E(2) E(NL)-E(L) F(L,NL)
      Donor (L) NBO              Acceptor (NL) NBO      kcal/mol   a.u.    a.u.
 ===============================================================================

 within unit  1
    9. LP ( 2) S  2            19. BD*( 1) C  1- H  4      4.16    1.09   0.060
    9. LP ( 2) S  2            20. BD*( 1) C  1- H  5      4.16    1.09   0.060
    9. LP ( 2) S  2            22. BD*( 1) C  3- H  6      4.16    1.09   0.060
    9. LP ( 2) S  2            23. BD*( 1) C  3- H  7      4.16    1.09   0.060
    9. LP ( 2) S  2            26. RY ( 3) C  1            0.58    2.67   0.035
    9. LP ( 2) S  2            44. RY ( 3) C  3            0.58    2.67   0.035
   10. BD ( 1) C  1- S  2      18. BD*( 1) C  1- C  3      2.67    1.23   0.051
   10. BD ( 1) C  1- S  2      21. BD*( 1) S  2- C  3     11.32    0.92   0.091
   10. BD ( 1) C  1- S  2      22. BD*( 1) C  3- H  6      2.95    1.34   0.056
   10. BD ( 1) C  1- S  2      23. BD*( 1) C  3- H  7      2.95    1.34   0.056
   10. BD ( 1) C  1- S  2      42. RY ( 1) C  3            6.21    1.77   0.094
   11. BD ( 1) C  1- C  3      17. BD*( 1) C  1- S  2      1.14    1.09   0.031
   11. BD ( 1) C  1- C  3      19. BD*( 1) C  1- H  4      0.65    1.51   0.028
   11. BD ( 1) C  1- C  3      20. BD*( 1) C  1- H  5      0.65    1.51   0.028
   11. BD ( 1) C  1- C  3      21. BD*( 1) S  2- C  3      1.14    1.09   0.031
   11. BD ( 1) C  1- C  3      22. BD*( 1) C  3- H  6      0.65    1.51   0.028
   11. BD ( 1) C  1- C  3      23. BD*( 1) C  3- H  7      0.65    1.51   0.028
   11. BD ( 1) C  1- C  3      33. RY ( 1) S  2            3.75    1.57   0.068
   12. BD ( 1) C  1- H  4      22. BD*( 1) C  3- H  6      2.11    1.44   0.049
   12. BD ( 1) C  1- H  4      34. RY ( 2) S  2            0.57    1.34   0.025
   12. BD ( 1) C  1- H  4      43. RY ( 2) C  3            1.19    1.71   0.040
   13. BD ( 1) C  1- H  5      23. BD*( 1) C  3- H  7      2.11    1.44   0.049
   13. BD ( 1) C  1- H  5      34. RY ( 2) S  2            0.57    1.34   0.025
   13. BD ( 1) C  1- H  5      43. RY ( 2) C  3            1.19    1.71   0.040
   14. BD ( 1) S  2- C  3      17. BD*( 1) C  1- S  2     11.32    0.92   0.091
   14. BD ( 1) S  2- C  3      18. BD*( 1) C  1- C  3      2.67    1.23   0.051
   14. BD ( 1) S  2- C  3      19. BD*( 1) C  1- H  4      2.95    1.34   0.056
   14. BD ( 1) S  2- C  3      20. BD*( 1) C  1- H  5      2.95    1.34   0.056
   14. BD ( 1) S  2- C  3      24. RY ( 1) C  1            6.21    1.77   0.094
   15. BD ( 1) C  3- H  6      19. BD*( 1) C  1- H  4      2.11    1.44   0.049
   15. BD ( 1) C  3- H  6      25. RY ( 2) C  1            1.19    1.71   0.040
   15. BD ( 1) C  3- H  6      34. RY ( 2) S  2            0.57    1.34   0.025
   16. BD ( 1) C  3- H  7      20. BD*( 1) C  1- H  5      2.11    1.44   0.049
   16. BD ( 1) C  3- H  7      25. RY ( 2) C  1            1.19    1.71   0.040
   16. BD ( 1) C  3- H  7      34. RY ( 2) S  2            0.57    1.34   0.025


 NATURAL BOND ORBITALS (Summary):

                                                     Principal Delocalizations
           NBO                 Occupancy    Energy   (geminal,vicinal,remote)
 ===============================================================================
 Molecular unit  1  (C2H4S)
 ------ Lewis --------------------------------------
    1. CR ( 1) C  1             1.99999   -11.27308
    2. CR ( 1) S  2             2.00000   -84.80366
    3. CR ( 2) S  2             2.00000   -16.06394
    4. CR ( 3) S  2             2.00000    -6.61964
    5. CR ( 4) S  2             2.00000    -6.62202
    6. CR ( 5) S  2             1.99999    -6.62402
    7. CR ( 1) C  3             1.99999   -11.27308
    8. LP ( 1) S  2             1.99775    -0.70939
    9. LP ( 2) S  2             1.95494    -0.34079  19(v),20(v),22(v),23(v)
                                                     26(v),44(v)
   10. BD ( 1) C  1- S  2       1.96685    -0.59388  21(g),42(v),22(v),23(v)
                                                     18(g)
   11. BD ( 1) C  1- C  3       1.98957    -0.76605  33(v),17(g),21(g),19(g)
                                                     20(g),22(g),23(g)
   12. BD ( 1) C  1- H  4       1.99266    -0.69323  22(v),43(v),34(v)
   13. BD ( 1) C  1- H  5       1.99266    -0.69323  23(v),43(v),34(v)
   14. BD ( 1) S  2- C  3       1.96685    -0.59388  17(g),24(v),19(v),20(v)
                                                     18(g)
   15. BD ( 1) C  3- H  6       1.99266    -0.69323  19(v),25(v),34(v)
   16. BD ( 1) C  3- H  7       1.99266    -0.69323  20(v),25(v),34(v)
 ------ non-Lewis ----------------------------------
   17. BD*( 1) C  1- S  2       0.02331     0.32398
   18. BD*( 1) C  1- C  3       0.00560     0.63484
   19. BD*( 1) C  1- H  4       0.01654     0.74434
   20. BD*( 1) C  1- H  5       0.01654     0.74434
   21. BD*( 1) S  2- C  3       0.02331     0.32398
   22. BD*( 1) C  3- H  6       0.01654     0.74434
   23. BD*( 1) C  3- H  7       0.01654     0.74434
   24. RY ( 1) C  1             0.00585     1.18099
   25. RY ( 2) C  1             0.00260     1.01191
   26. RY ( 3) C  1             0.00102     2.33395
   27. RY ( 4) C  1             0.00057     1.09919
   28. RY ( 5) C  1             0.00004     1.16177
   29. RY ( 6) C  1             0.00000     2.05000
   30. RY ( 7) C  1             0.00000     2.14382
   31. RY ( 8) C  1             0.00000     2.21795
   32. RY ( 9) C  1             0.00000     2.08891
   33. RY ( 1) S  2             0.00439     0.79938
   34. RY ( 2) S  2             0.00317     0.64974
   35. RY ( 3) S  2             0.00072     0.63624
   36. RY ( 4) S  2             0.00023     1.16842
   37. RY ( 5) S  2             0.00014     1.04801
   38. RY ( 6) S  2             0.00000     0.99995
   39. RY ( 7) S  2             0.00000     1.28134
   40. RY ( 8) S  2             0.00000     1.09244
   41. RY ( 9) S  2             0.00000     0.76728
   42. RY ( 1) C  3             0.00585     1.18099
   43. RY ( 2) C  3             0.00260     1.01191
   44. RY ( 3) C  3             0.00102     2.33395
   45. RY ( 4) C  3             0.00057     1.09919
   46. RY ( 5) C  3             0.00004     1.16177
   47. RY ( 6) C  3             0.00000     2.05000
   48. RY ( 7) C  3             0.00000     2.14382
   49. RY ( 8) C  3             0.00000     2.21795
   50. RY ( 9) C  3             0.00000     2.08891
   51. RY ( 1) H  4             0.00155     0.75093
   52. RY ( 1) H  5             0.00155     0.75093
   53. RY ( 1) H  6             0.00155     0.75093
   54. RY ( 1) H  7             0.00155     0.75093
          -------------------------------
                 Total Lewis   31.84656  ( 99.5205%)
           Valence non-Lewis    0.11838  (  0.3699%)
           Rydberg non-Lewis    0.03507  (  0.1096%)
          -------------------------------
               Total unit  1   32.00000  (100.0000%)
              Charge unit  1    0.00000

 $CHOOSE
   LONE 2 2 END
   BOND S 1 2 S 1 3 S 1 4 S 1 5 S 2 3 S 3 6 S 3 7 END
 $END

 NBO analysis completed in 0.65 CPU seconds (1 wall second)
 Maximum scratch memory used by NBO was 377766 words (2.88 MB)
 Maximum scratch memory used by G16NBO was 12913 words (0.10 MB)

 Opening RunExU unformatted file "/cluster/work/users/beto93/mol115/Gau-946639.EUF"
 Read unf file /cluster/work/users/beto93/mol115/Gau-946639.EUF:
 Label Gaussian matrix elements                                         IVers= 2 NLab= 2 Version=ES64L-G16RevC.01
 Title mol115-NBO                                                      
 NAtoms=     7 NBasis=    54 NBsUse=    54 ICharg=     0 Multip=     1 NE=    32 Len12L=8 Len4L=8 IOpCl= 0 ICGU=111
 GAUSSIAN SCALARS                    NI= 1 NR= 1 NTot=       1 LenBuf=    2 NRI=1 N=    1000
 NPA CHARGES                         NI= 0 NR= 1 NTot=       7 LenBuf= 4000 NRI=1 N=       7
 Recovered energy= -475.544577376     dipole=     -0.000000000000     -0.000000000000     -0.902203874035
 Unable to Open any file for archive entry.
 1\1\GINC-C2-28\SP\RHF\6-31G(d)\C2H4S1\BETO93\18-Nov-2024\0\\#RHF/6-31G
 * int=nobasistransform Symmetry=None 5D 7F Pop=NBO7Read\\mol115-NBO\\0
 ,1\C,0,0.,-0.739719,-0.792334\S,0,0.,0.,0.863474\C,0,0.,0.739719,-0.79
 2334\H,0,-0.91394,-1.250142,-1.076894\H,0,0.91394,-1.250142,-1.076894\
 H,0,0.91394,1.250142,-1.076894\H,0,-0.91394,1.250142,-1.076894\\Versio
 n=ES64L-G16RevC.01\HF=-475.5445774\RMSD=6.792e-09\Dipole=0.,0.,-0.9022
 039\Quadrupole=-0.4609856,1.0099708,-0.5489852,0.,0.,0.\PG=Unknown\\@
 The archive entry for this job was punched.


 There was a great rattling of the words for the fewness of ideas.
                   -- Charles Baxter in Gryphon
 Job cpu time:       0 days  0 hours  0 minutes  9.0 seconds.
 Elapsed time:       0 days  0 hours  0 minutes  2.9 seconds.
 File lengths (MBytes):  RWF=     10 Int=      0 D2E=      0 Chk=      1 Scr=      1
 Normal termination of Gaussian 16 at Mon Nov 18 16:41:11 2024.
