 Entering Gaussian System, Link 0=g16
 Initial command:
 /cluster/software/Gaussian/g16_C.01/l1.exe "/cluster/work/users/beto93/LiLi/Gau-1631717.inp" -scrdir="/cluster/work/users/beto93/LiLi/"
 Entering Link 1 = /cluster/software/Gaussian/g16_C.01/l1.exe PID=   1631718.
  
 Copyright (c) 1988-2019, Gaussian, Inc.  All Rights Reserved.
  
 This is part of the Gaussian(R) 16 program.  It is based on
 the Gaussian(R) 09 system (copyright 2009, Gaussian, Inc.),
 the Gaussian(R) 03 system (copyright 2003, Gaussian, Inc.),
 the Gaussian(R) 98 system (copyright 1998, Gaussian, Inc.),
 the Gaussian(R) 94 system (copyright 1995, Gaussian, Inc.),
 the Gaussian 92(TM) system (copyright 1992, Gaussian, Inc.),
 the Gaussian 90(TM) system (copyright 1990, Gaussian, Inc.),
 the Gaussian 88(TM) system (copyright 1988, Gaussian, Inc.),
 the Gaussian 86(TM) system (copyright 1986, Carnegie Mellon
 University), and the Gaussian 82(TM) system (copyright 1983,
 Carnegie Mellon University). Gaussian is a federally registered
 trademark of Gaussian, Inc.
  
 This software contains proprietary and confidential information,
 including trade secrets, belonging to Gaussian, Inc.
  
 This software is provided under written license and may be
 used, copied, transmitted, or stored only in accord with that
 written license.
  
 The following legend is applicable only to US Government
 contracts under FAR:
  
                    RESTRICTED RIGHTS LEGEND
  
 Use, reproduction and disclosure by the US Government is
 subject to restrictions as set forth in subparagraphs (a)
 and (c) of the Commercial Computer Software - Restricted
 Rights clause in FAR 52.227-19.
  
 Gaussian, Inc.
 340 Quinnipiac St., Bldg. 40, Wallingford CT 06492
  
  
 ---------------------------------------------------------------
 Warning -- This program may not be used in any manner that
 competes with the business of Gaussian, Inc. or will provide
 assistance to any competitor of Gaussian, Inc.  The licensee
 of this program is prohibited from giving any competitor of
 Gaussian, Inc. access to this program.  By using this program,
 the user acknowledges that Gaussian, Inc. is engaged in the
 business of creating and licensing software in the field of
 computational chemistry and represents and warrants to the
 licensee that it is not a competitor of Gaussian, Inc. and that
 it will not use this program in any manner prohibited above.
 ---------------------------------------------------------------
  

 Cite this work as:
 Gaussian 16, Revision C.01,
 M. J. Frisch, G. W. Trucks, H. B. Schlegel, G. E. Scuseria, 
 M. A. Robb, J. R. Cheeseman, G. Scalmani, V. Barone, 
 G. A. Petersson, H. Nakatsuji, X. Li, M. Caricato, A. V. Marenich, 
 J. Bloino, B. G. Janesko, R. Gomperts, B. Mennucci, H. P. Hratchian, 
 J. V. Ortiz, A. F. Izmaylov, J. L. Sonnenberg, D. Williams-Young, 
 F. Ding, F. Lipparini, F. Egidi, J. Goings, B. Peng, A. Petrone, 
 T. Henderson, D. Ranasinghe, V. G. Zakrzewski, J. Gao, N. Rega, 
 G. Zheng, W. Liang, M. Hada, M. Ehara, K. Toyota, R. Fukuda, 
 J. Hasegawa, M. Ishida, T. Nakajima, Y. Honda, O. Kitao, H. Nakai, 
 T. Vreven, K. Throssell, J. A. Montgomery, Jr., J. E. Peralta, 
 F. Ogliaro, M. J. Bearpark, J. J. Heyd, E. N. Brothers, K. N. Kudin, 
 V. N. Staroverov, T. A. Keith, R. Kobayashi, J. Normand, 
 K. Raghavachari, A. P. Rendell, J. C. Burant, S. S. Iyengar, 
 J. Tomasi, M. Cossi, J. M. Millam, M. Klene, C. Adamo, R. Cammi, 
 J. W. Ochterski, R. L. Martin, K. Morokuma, O. Farkas, 
 J. B. Foresman, and D. J. Fox, Gaussian, Inc., Wallingford CT, 2019.
 
 ******************************************
 Gaussian 16:  ES64L-G16RevC.01  3-Jul-2019
                24-Jul-2024 
 ******************************************
 %LindaWorkers=c1-38-ib
 %NProcShared=4
 Will use up to    4 processors via shared memory.
 %mem=25GB
 %chk=a.chk
 SetLPE:    new flags="-opt 'Tsnet.Node.lindarsharg: ssh'  -nodelist 'c1-38-ib.saga' -env GAUSS_MDEF=3355443200 -env GAUSS_EXEDIR="/cluster/software/Gaussian/g16_C.01/bsd:/cluster/software/Gaussian/g16_C.01""
 Will use up to    1 processors via Linda.
 ------------------------
 #RHF/6-31G* Pop=NBO7Read
 ------------------------
 1/38=1,163=2,172=1/1;
 2/12=2,17=6,18=5,40=1/2;
 3/5=1,6=6,7=1,11=1,25=1,30=1,116=1/1,2,3;
 4//1;
 5/5=2,38=5/2;
 6/7=2,8=2,9=2,10=2,28=1,40=2,113=1,114=1,124=2103/1,12;
 99/5=1,9=1/99;
 -----
 NBO-a
 -----
 Symbolic Z-matrix:
 Charge =  0 Multiplicity = 1
 Li                    0.        0.       -0.00021 
 Li                    0.        0.        2.69621 
 
                          Input orientation:                          
 ---------------------------------------------------------------------
 Center     Atomic      Atomic             Coordinates (Angstroms)
 Number     Number       Type             X           Y           Z
 ---------------------------------------------------------------------
      1          3           0        0.000000    0.000000   -0.000212
      2          3           0        0.000000    0.000000    2.696212
 ---------------------------------------------------------------------
 Stoichiometry    Li2
 Framework group  D*H[C*(Li.Li)]
 Deg. of freedom     1
 Full point group                 D*H     NOp   8
 Largest Abelian subgroup         D2H     NOp   8
 Largest concise Abelian subgroup C2      NOp   2
                         Standard orientation:                         
 ---------------------------------------------------------------------
 Center     Atomic      Atomic             Coordinates (Angstroms)
 Number     Number       Type             X           Y           Z
 ---------------------------------------------------------------------
      1          3           0        0.000000    0.000000    1.348212
      2          3           0        0.000000    0.000000   -1.348212
 ---------------------------------------------------------------------
 Rotational constants (GHZ):           0.0000000          19.8144019          19.8144019
 Standard basis: 6-31G(d) (6D, 7F)
 There are     8 symmetry adapted cartesian basis functions of AG  symmetry.
 There are     1 symmetry adapted cartesian basis functions of B1G symmetry.
 There are     3 symmetry adapted cartesian basis functions of B2G symmetry.
 There are     3 symmetry adapted cartesian basis functions of B3G symmetry.
 There are     1 symmetry adapted cartesian basis functions of AU  symmetry.
 There are     8 symmetry adapted cartesian basis functions of B1U symmetry.
 There are     3 symmetry adapted cartesian basis functions of B2U symmetry.
 There are     3 symmetry adapted cartesian basis functions of B3U symmetry.
 There are     8 symmetry adapted basis functions of AG  symmetry.
 There are     1 symmetry adapted basis functions of B1G symmetry.
 There are     3 symmetry adapted basis functions of B2G symmetry.
 There are     3 symmetry adapted basis functions of B3G symmetry.
 There are     1 symmetry adapted basis functions of AU  symmetry.
 There are     8 symmetry adapted basis functions of B1U symmetry.
 There are     3 symmetry adapted basis functions of B2U symmetry.
 There are     3 symmetry adapted basis functions of B3U symmetry.
    30 basis functions,    56 primitive gaussians,    30 cartesian basis functions
     3 alpha electrons        3 beta electrons
       nuclear repulsion energy         1.7662633541 Hartrees.
 NAtoms=    2 NActive=    2 NUniq=    1 SFac= 4.00D+00 NAtFMM=   60 NAOKFM=F Big=F
 Integral buffers will be    131072 words long.
 Raffenetti 1 integral format.
 Two-electron integral symmetry is turned on.
 One-electron integrals computed using PRISM.
 NBasis=    30 RedAO= T EigKep=  2.21D-03  NBF=     8     1     3     3     1     8     3     3
 NBsUse=    30 1.00D-06 EigRej= -1.00D+00 NBFU=     8     1     3     3     1     8     3     3
 ExpMin= 3.60D-02 ExpMax= 6.42D+02 ExpMxC= 9.68D+01 IAcc=3 IRadAn=         5 AccDes= 0.00D+00
 Harris functional with IExCor=  205 and IRadAn=       5 diagonalized for initial guess.
 HarFok:  IExCor=  205 AccDes= 0.00D+00 IRadAn=         5 IDoV= 1 UseB2=F ITyADJ=14
 ICtDFT=  3500011 ScaDFX=  1.000000  1.000000  1.000000  1.000000
 FoFCou: FMM=F IPFlag=           0 FMFlag=      100000 FMFlg1=           0
         NFxFlg=           0 DoJE=T BraDBF=F KetDBF=T FulRan=T
         wScrn=  0.000000 ICntrl=       500 IOpCl=  0 I1Cent=   200000004 NGrid=           0
         NMat0=    1 NMatS0=      1 NMatT0=    0 NMatD0=    1 NMtDS0=    0 NMtDT0=    0
 Petite list used in FoFCou.
 Initial guess orbital symmetries:
       Occupied  (SGG) (SGU) (SGG)
       Virtual   (SGU) (PIU) (PIU) (SGG) (PIG) (PIG) (SGU) (SGG)
                 (PIU) (PIU) (SGG) (PIG) (PIG) (SGU) (SGU) (PIU)
                 (PIU) (DLTG) (DLTG) (DLTU) (DLTU) (SGG) (PIG)
                 (PIG) (SGU) (SGG) (SGU)
 The electronic state of the initial guess is 1-SGG.
 Keep R1 ints in memory in symmetry-blocked form, NReq=938810.
 Requested convergence on RMS density matrix=1.00D-08 within 128 cycles.
 Requested convergence on MAX density matrix=1.00D-06.
 Requested convergence on             energy=1.00D-06.
 No special actions if energy rises.
 SCF Done:  E(RHF) =  -14.8665653334     A.U. after    9 cycles
            NFock=  9  Conv=0.22D-08     -V/T= 1.9931

 **********************************************************************

            Population analysis using the SCF Density.

 **********************************************************************

 Orbital symmetries:
       Occupied  (SGG) (SGU) (SGG)
       Virtual   (SGU) (PIU) (PIU) (SGG) (PIG) (PIG) (SGU) (SGG)
                 (PIU) (PIU) (SGG) (SGU) (PIG) (PIG) (SGU) (PIU)
                 (PIU) (DLTG) (DLTG) (DLTU) (DLTU) (SGG) (PIG)
                 (PIG) (SGU) (SGG) (SGU)
 The electronic state is 1-SGG.
 Alpha  occ. eigenvalues --   -2.44296  -2.44265  -0.17801
 Alpha virt. eigenvalues --    0.01659   0.04545   0.04545   0.06244   0.09164
 Alpha virt. eigenvalues --    0.09164   0.13858   0.19176   0.20897   0.20897
 Alpha virt. eigenvalues --    0.21442   0.26124   0.26623   0.26623   0.47933
 Alpha virt. eigenvalues --    0.53484   0.53484   0.55817   0.55817   0.63163
 Alpha virt. eigenvalues --    0.63163   0.66371   0.77869   0.77869   1.03603
 Alpha virt. eigenvalues --    1.25216   1.48825
          Condensed to atoms (all electrons):
               1          2
     1  Li   2.607053   0.392947
     2  Li   0.392947   2.607053
 Mulliken charges:
               1
     1  Li  -0.000000
     2  Li  -0.000000
 Sum of Mulliken charges =  -0.00000
 Mulliken charges with hydrogens summed into heavy atoms:
               1
     1  Li  -0.000000
     2  Li  -0.000000
 Electronic spatial extent (au):  <R**2>=             64.1746
 Charge=             -0.0000 electrons
 Dipole moment (field-independent basis, Debye):
    X=             -0.0000    Y=              0.0000    Z=              0.0000  Tot=              0.0000
 Quadrupole moment (field-independent basis, Debye-Ang):
   XX=            -15.5023   YY=            -15.5023   ZZ=             -2.9285
   XY=             -0.0000   XZ=             -0.0000   YZ=              0.0000
 Traceless Quadrupole moment (field-independent basis, Debye-Ang):
   XX=             -4.1912   YY=             -4.1912   ZZ=              8.3825
   XY=             -0.0000   XZ=             -0.0000   YZ=              0.0000
 Octapole moment (field-independent basis, Debye-Ang**2):
  XXX=             -0.0000  YYY=             -0.0000  ZZZ=              0.0000  XYY=             -0.0000
  XXY=              0.0000  XXZ=             -0.0000  XZZ=             -0.0000  YZZ=             -0.0000
  YYZ=             -0.0000  XYZ=              0.0000
 Hexadecapole moment (field-independent basis, Debye-Ang**3):
 XXXX=            -71.0597 YYYY=            -71.0597 ZZZZ=           -120.4829 XXXY=             -0.0000
 XXXZ=              0.0000 YYYX=             -0.0000 YYYZ=              0.0000 ZZZX=              0.0000
 ZZZY=              0.0000 XXYY=            -23.6866 XXZZ=            -36.5892 YYZZ=            -36.5892
 XXYZ=              0.0000 YYXZ=              0.0000 ZZXY=             -0.0000
 N-N= 1.766263354087D+00 E-N=-3.810782096805D+01  KE= 1.496941045765D+01
 Symmetry AG   KE= 7.737909884419D+00
 Symmetry B1G  KE=-2.031285439994D-52
 Symmetry B2G  KE= 1.922601154002D-34
 Symmetry B3G  KE= 1.922601154002D-34
 Symmetry AU   KE= 1.195247409824D-51
 Symmetry B1U  KE= 7.231500573233D+00
 Symmetry B2U  KE= 4.808568955799D-35
 Symmetry B3U  KE= 4.808568955799D-35
 Running external command "gaunbo7 R"
         input file       "/cluster/work/users/beto93/LiLi/Gau-1631718.EIn"
         output file      "/cluster/work/users/beto93/LiLi/Gau-1631718.EOu"
         message file     "/cluster/work/users/beto93/LiLi/Gau-1631718.EMs"
         fchk file        "/cluster/work/users/beto93/LiLi/Gau-1631718.EFC"
         mat. el file     "/cluster/work/users/beto93/LiLi/Gau-1631718.EUF"

 Writing WrtUnf unformatted file "/cluster/work/users/beto93/LiLi/Gau-1631718.EUF"
 Gaussian matrix elements                                         Version   2 NLab=11 Len12L=8 Len4L=8
 Write SHELL TO ATOM MAP                   from file      0 offset           0 length                   8 to matrix element file.
 Write SHELL TYPES                         from file      0 offset           0 length                   8 to matrix element file.
 Write NUMBER OF PRIMITIVES PER SHELL      from file      0 offset           0 length                   8 to matrix element file.
 Write PRIMITIVE EXPONENTS                 from file      0 offset           0 length                  22 to matrix element file.
 Write CONTRACTION COEFFICIENTS            from file      0 offset           0 length                  22 to matrix element file.
 Write P(S=P) CONTRACTION COEFFICIENTS     from file      0 offset           0 length                  22 to matrix element file.
 Write COORDINATES OF EACH SHELL           from file      0 offset           0 length                  24 to matrix element file.
 Write BONDS PER ATOM                      from file      0 offset           0 length                   2 to matrix element file.
 Write BONDED ATOMS                        from file      0 offset           0 length                   2 to matrix element file.
 Write BOND TYPES                          from file      0 offset           0 length                   2 to matrix element file.
 Write ONIOM CHARGE/MULT                   from file      0 offset           0 length                  32 to matrix element file.
 Write ONIOM ATOM LAYERS                   from file      0 offset           0 length                   2 to matrix element file.
 Write ONIOM ATOM MODIFIERS                from file      0 offset           0 length                   2 to matrix element file.
 Write ONIOM ATOM TYPES                    from file      0 offset           0 length                   2 to matrix element file.
 Write ONIOM LINK ATOMS                    from file      0 offset           0 length                   2 to matrix element file.
 Write ONIOM LINK CHARGES                  from file      0 offset           0 length                   2 to matrix element file.
 Write ONIOM LINK DISTANCES                from file      0 offset           0 length                   8 to matrix element file.
 Write SYMINF INTS                         from file      0 offset           0 length                  26 to matrix element file.
 Write ROTTR TO SO                         from file      0 offset           0 length                  12 to matrix element file.
 Write GAUSSIAN SCALARS                    from file    501 offset           0 to matrix element file.
 Write OPTIMIZATION FLAGS                  from file      0 offset           0 length                   2 to matrix element file.
 Write INTEGER ISO                         from file      0 offset           0 length                   2 to matrix element file.
 Write INTEGER SPIN                        from file      0 offset           0 length                   2 to matrix element file.
 Write REAL ZEFFECTIVE                     from file      0 offset           0 length                   2 to matrix element file.
 Write REAL QUADRUPOLEMOMENT               from file      0 offset           0 length                   2 to matrix element file.
 Write REAL GFACTOR                        from file      0 offset           0 length                   2 to matrix element file.
 Write REAL ZNUCLEAR                       from file      0 offset           0 length                   2 to matrix element file.
 Write MULLIKEN CHARGES                    from file      0 offset           0 length                   2 to matrix element file.
 Write NUCLEAR GRADIENT                    from file  10584 offset           0 length                   6 to matrix element file.
 Array NUCLEAR FORCE CONSTANTS              on  file  10585 does not exist.
 Write ELECTRIC DIPOLE MOMENT              from file      0 offset           0 length                   3 to matrix element file.
 Write NON-ADIABATIC COUPLING              from file  10810 offset           0 length                   6 to matrix element file.
 Write FINITE EM FIELD                     from file  10521 offset           0 length                  35 to matrix element file.
 Write OVERLAP                             from file  10514 offset           0 length                 465 to matrix element file.
 Write CORE HAMILTONIAN ALPHA              from file  10515 offset           0 length                 465 to matrix element file.
 Write CORE HAMILTONIAN BETA               from file  10515 offset         465 length                 465 to matrix element file.
 Write KINETIC ENERGY                      from file  10516 offset           0 length                 465 to matrix element file.
 Write ORTHOGONAL BASIS                    from file  10685 offset           0 length                 900 to matrix element file.
 Write DIPOLE INTEGRALS                    from file  10518 offset           0 length                1395 to matrix element file.
 Array DIP VEL INTEGRALS                    on  file  10572 does not exist.
 Array R X DEL INTEGRALS                    on  file  10572 does not exist.
 Write ALPHA ORBITAL ENERGIES              from file      0 offset           0 length                  30 to matrix element file.
 Write ALPHA MO COEFFICIENTS               from file  10524 offset           0 length                 900 to matrix element file.
 Write ALPHA DENSITY MATRIX                from file      0 offset           0 length                 465 to matrix element file.
 Write ALPHA FOCK MATRIX                   from file  10536 offset           0 length                 465 to matrix element file.
 Write ENERGY-WEIGHTED DENSITY             from file  10571 offset           0 length                 465 to matrix element file.
 Write ALPHA SCF DENSITY MATRIX            from file      0 offset           0 length                 465 to matrix element file.
 No 2e integrals to process.
 Perform NBO analysis...executing G16NBO...

 *********************************** NBO 7.0 ***********************************
             N A T U R A L   A T O M I C   O R B I T A L   A N D
          N A T U R A L   B O N D   O R B I T A L   A N A L Y S I S
 **************************** Espen Tangen (S101595) ***************************
  (c) Copyright 1996-2021 Board of Regents of the University of Wisconsin System
      on behalf of the Theoretical Chemistry Institute.  All rights reserved.

          Cite this program [NBO 7.0.10 (8-Feb-2021)] as:

          NBO 7.0.  E. D. Glendening, J. K. Badenhoop, A. E. Reed,
          J. E. Carpenter, J. A. Bohmann, C. M. Morales, P. Karafiloglou,
          C. R. Landis, and F. Weinhold, Theoretical Chemistry Institute,
          University of Wisconsin, Madison, WI (2018)

       /NPA    / : Natural Population Analysis
       /AOPNAO / : Print the AO to PNAO transformation
       /AONAO  / : Print the AO to NAO transformation
       /AONO   / : Print the NOs in the AO basis
       /AOMO   / : Print the MOs in the AO basis
       /BOAO   / : Print the AO bond-order matrix
       /DMAO   / : Print the AO density matrix
       /DMPNAO / : Print the PNAO density matrix
       /DMNAO  / : Print the NAO density matrix
       /DMMO   / : Print the MO density matrix
       /SAO    / : Print the AO overlap matrix
       /SPNAO  / : Print the PNAO overlap matrix
       /DETAIL / : Write details of NBO search
       /ARCHIVE/ : Write the archive file to lfn47
       /AOINFO / : Write AO information to lfn31
       /FILE   / : Set to inpGenNbo

 Filename set to inpGenNbo

 Job title: NBO-a


 MOs in the AO basis:

           AO          1       2       3       4       5       6       7       8
      ------------ ------- ------- ------- ------- ------- ------- ------- -------
   1. Li 1 (s)      0.7061  0.7060 -0.1508 -0.0977  0.0000  0.0000  0.0064  0.0000
   2. Li 1 (s)     -0.0063 -0.0114  0.1090 -0.0183  0.0000  0.0000 -0.2549  0.0000
   3. Li 1 (px)     0.0000  0.0000  0.0000  0.0000  0.0000  0.0651  0.0000  0.0000
   4. Li 1 (py)     0.0000  0.0000  0.0000  0.0000  0.0651  0.0000  0.0000 -0.0490
   5. Li 1 (pz)     0.0022  0.0055 -0.1094  0.0353  0.0000  0.0000  0.0744  0.0000
   6. Li 1 (s)      0.0001  0.0044  0.3923 -0.2405  0.0000  0.0000  0.5399  0.0000
   7. Li 1 (px)     0.0000  0.0000  0.0000  0.0000  0.0000  0.5047  0.0000  0.0000
   8. Li 1 (py)     0.0000  0.0000  0.0000  0.0000  0.5047  0.0000  0.0000  1.2041
   9. Li 1 (pz)    -0.0020 -0.0035  0.0236  0.7863  0.0000  0.0000  0.7023  0.0000
  10. Li 1 (d1)     0.0058  0.0068  0.0259  0.0303  0.0000  0.0000  0.0306  0.0000
  11. Li 1 (d4)     0.0058  0.0068  0.0259  0.0303  0.0000  0.0000  0.0306  0.0000
  12. Li 1 (d6)     0.0061  0.0054  0.0352  0.0353  0.0000  0.0000  0.0268  0.0000
  13. Li 1 (d2)     0.0000  0.0000  0.0000  0.0000  0.0000  0.0000  0.0000  0.0000
  14. Li 1 (d3)     0.0000  0.0000  0.0000  0.0000  0.0000  0.0022  0.0000  0.0000
  15. Li 1 (d5)     0.0000  0.0000  0.0000  0.0000  0.0022  0.0000  0.0000  0.0082
  16. Li 2 (s)      0.7061 -0.7060 -0.1508  0.0977  0.0000  0.0000  0.0064  0.0000
  17. Li 2 (s)     -0.0063  0.0114  0.1090  0.0183  0.0000  0.0000 -0.2549  0.0000
  18. Li 2 (px)     0.0000  0.0000  0.0000  0.0000  0.0000  0.0651  0.0000  0.0000
  19. Li 2 (py)     0.0000  0.0000  0.0000  0.0000  0.0651  0.0000  0.0000  0.0490
  20. Li 2 (pz)    -0.0022  0.0055  0.1094  0.0353  0.0000  0.0000 -0.0744  0.0000
  21. Li 2 (s)      0.0001 -0.0044  0.3923  0.2405  0.0000  0.0000  0.5399  0.0000
  22. Li 2 (px)     0.0000  0.0000  0.0000  0.0000  0.0000  0.5047  0.0000  0.0000
  23. Li 2 (py)     0.0000  0.0000  0.0000  0.0000  0.5047  0.0000  0.0000 -1.2041
  24. Li 2 (pz)     0.0020 -0.0035 -0.0236  0.7863  0.0000  0.0000 -0.7023  0.0000
  25. Li 2 (d1)     0.0058 -0.0068  0.0259 -0.0303  0.0000  0.0000  0.0306  0.0000
  26. Li 2 (d4)     0.0058 -0.0068  0.0259 -0.0303  0.0000  0.0000  0.0306  0.0000
  27. Li 2 (d6)     0.0061 -0.0054  0.0352 -0.0353  0.0000  0.0000  0.0268  0.0000
  28. Li 2 (d2)     0.0000  0.0000  0.0000  0.0000  0.0000  0.0000  0.0000  0.0000
  29. Li 2 (d3)     0.0000  0.0000  0.0000  0.0000  0.0000 -0.0022  0.0000  0.0000
  30. Li 2 (d5)     0.0000  0.0000  0.0000  0.0000 -0.0022  0.0000  0.0000  0.0082

           AO          9      10      11      12      13      14      15      16
      ------------ ------- ------- ------- ------- ------- ------- ------- -------
   1. Li 1 (s)      0.0000 -0.1484  0.0562  0.0000  0.0000  0.0523 -0.1079  0.0000
   2. Li 1 (s)      0.0000  0.0357  1.3831  0.0000  0.0000  1.8973 -1.5421  0.0000
   3. Li 1 (px)    -0.0490  0.0000  0.0000  1.0918  0.0000  0.0000  0.0000  0.0000
   4. Li 1 (py)     0.0000  0.0000  0.0000  0.0000  1.0918  0.0000  0.0000 -1.3298
   5. Li 1 (pz)     0.0000  0.2917 -0.7513  0.0000  0.0000  0.7358 -1.0532  0.0000
   6. Li 1 (s)      0.0000  4.7495 -0.8316  0.0000  0.0000 -1.3329  4.8227  0.0000
   7. Li 1 (px)     1.2041  0.0000  0.0000 -0.8533  0.0000  0.0000  0.0000  0.0000
   8. Li 1 (py)     0.0000  0.0000  0.0000  0.0000 -0.8533  0.0000  0.0000  1.3430
   9. Li 1 (pz)     0.0000 -2.9510  1.0770  0.0000  0.0000 -0.5376 -1.2719  0.0000
  10. Li 1 (d1)     0.0000 -0.0119 -0.1387  0.0000  0.0000 -0.2108  0.1299  0.0000
  11. Li 1 (d4)     0.0000 -0.0119 -0.1387  0.0000  0.0000 -0.2108  0.1299  0.0000
  12. Li 1 (d6)     0.0000  0.0190 -0.1309  0.0000  0.0000 -0.1673  0.0580  0.0000
  13. Li 1 (d2)     0.0000  0.0000  0.0000  0.0000  0.0000  0.0000  0.0000  0.0000
  14. Li 1 (d3)     0.0082  0.0000  0.0000 -0.0087  0.0000  0.0000  0.0000  0.0000
  15. Li 1 (d5)     0.0000  0.0000  0.0000  0.0000 -0.0087  0.0000  0.0000 -0.0543
  16. Li 2 (s)      0.0000  0.1484  0.0562  0.0000  0.0000  0.0523  0.1079  0.0000
  17. Li 2 (s)      0.0000 -0.0357  1.3831  0.0000  0.0000  1.8973  1.5421  0.0000
  18. Li 2 (px)     0.0490  0.0000  0.0000  1.0918  0.0000  0.0000  0.0000  0.0000
  19. Li 2 (py)     0.0000  0.0000  0.0000  0.0000  1.0918  0.0000  0.0000  1.3298
  20. Li 2 (pz)     0.0000  0.2917  0.7513  0.0000  0.0000 -0.7358 -1.0532  0.0000
  21. Li 2 (s)      0.0000 -4.7495 -0.8316  0.0000  0.0000 -1.3329 -4.8227  0.0000
  22. Li 2 (px)    -1.2041  0.0000  0.0000 -0.8533  0.0000  0.0000  0.0000  0.0000
  23. Li 2 (py)     0.0000  0.0000  0.0000  0.0000 -0.8533  0.0000  0.0000 -1.3430
  24. Li 2 (pz)     0.0000 -2.9510 -1.0770  0.0000  0.0000  0.5376 -1.2719  0.0000
  25. Li 2 (d1)     0.0000  0.0119 -0.1387  0.0000  0.0000 -0.2108 -0.1299  0.0000
  26. Li 2 (d4)     0.0000  0.0119 -0.1387  0.0000  0.0000 -0.2108 -0.1299  0.0000
  27. Li 2 (d6)     0.0000 -0.0190 -0.1309  0.0000  0.0000 -0.1673 -0.0580  0.0000
  28. Li 2 (d2)     0.0000  0.0000  0.0000  0.0000  0.0000  0.0000  0.0000  0.0000
  29. Li 2 (d3)     0.0082  0.0000  0.0000  0.0087  0.0000  0.0000  0.0000  0.0000
  30. Li 2 (d5)     0.0000  0.0000  0.0000  0.0000  0.0087  0.0000  0.0000 -0.0543

           AO         17      18      19      20      21      22      23      24
      ------------ ------- ------- ------- ------- ------- ------- ------- -------
   1. Li 1 (s)      0.0000 -0.1684  0.0000  0.0000  0.0000  0.0000  0.0000  0.0000
   2. Li 1 (s)      0.0000 -2.3379  0.0000  0.0000  0.0000  0.0000  0.0000  0.0000
   3. Li 1 (px)    -1.3298  0.0000  0.0000  0.1945  0.0000  0.0000  0.0000  0.0000
   4. Li 1 (py)     0.0000  0.0000  0.1945  0.0000  0.0000  0.0000  0.0000  0.0000
   5. Li 1 (pz)     0.0000  0.9141  0.0000  0.0000  0.0000  0.0000  0.0000  0.0000
   6. Li 1 (s)      0.0000  6.3197  0.0000  0.0000  0.0000  0.0000  0.0000  0.0000
   7. Li 1 (px)     1.3430  0.0000  0.0000 -0.0953  0.0000  0.0000  0.0000  0.0000
   8. Li 1 (py)     0.0000  0.0000 -0.0953  0.0000  0.0000  0.0000  0.0000  0.0000
   9. Li 1 (pz)     0.0000 -2.8842  0.0000  0.0000  0.0000  0.0000  0.0000  0.0000
  10. Li 1 (d1)     0.0000 -0.1265  0.0000  0.0000  0.0000  0.5908  0.0000  0.6366
  11. Li 1 (d4)     0.0000 -0.1265  0.0000  0.0000  0.0000 -0.5908  0.0000 -0.6366
  12. Li 1 (d6)     0.0000  0.4208  0.0000  0.0000  0.0000  0.0000  0.0000  0.0000
  13. Li 1 (d2)     0.0000  0.0000  0.0000  0.0000  0.6821  0.0000  0.7350  0.0000
  14. Li 1 (d3)    -0.0543  0.0000  0.0000  0.6282  0.0000  0.0000  0.0000  0.0000
  15. Li 1 (d5)     0.0000  0.0000  0.6282  0.0000  0.0000  0.0000  0.0000  0.0000
  16. Li 2 (s)      0.0000  0.1684  0.0000  0.0000  0.0000  0.0000  0.0000  0.0000
  17. Li 2 (s)      0.0000  2.3379  0.0000  0.0000  0.0000  0.0000  0.0000  0.0000
  18. Li 2 (px)     1.3298  0.0000  0.0000  0.1945  0.0000  0.0000  0.0000  0.0000
  19. Li 2 (py)     0.0000  0.0000  0.1945  0.0000  0.0000  0.0000  0.0000  0.0000
  20. Li 2 (pz)     0.0000  0.9141  0.0000  0.0000  0.0000  0.0000  0.0000  0.0000
  21. Li 2 (s)      0.0000 -6.3197  0.0000  0.0000  0.0000  0.0000  0.0000  0.0000
  22. Li 2 (px)    -1.3430  0.0000  0.0000 -0.0953  0.0000  0.0000  0.0000  0.0000
  23. Li 2 (py)     0.0000  0.0000 -0.0953  0.0000  0.0000  0.0000  0.0000  0.0000
  24. Li 2 (pz)     0.0000 -2.8842  0.0000  0.0000  0.0000  0.0000  0.0000  0.0000
  25. Li 2 (d1)     0.0000  0.1265  0.0000  0.0000  0.0000  0.5908  0.0000 -0.6366
  26. Li 2 (d4)     0.0000  0.1265  0.0000  0.0000  0.0000 -0.5908  0.0000  0.6366
  27. Li 2 (d6)     0.0000 -0.4208  0.0000  0.0000  0.0000  0.0000  0.0000  0.0000
  28. Li 2 (d2)     0.0000  0.0000  0.0000  0.0000  0.6821  0.0000 -0.7350  0.0000
  29. Li 2 (d3)    -0.0543  0.0000  0.0000 -0.6282  0.0000  0.0000  0.0000  0.0000
  30. Li 2 (d5)     0.0000  0.0000 -0.6282  0.0000  0.0000  0.0000  0.0000  0.0000

           AO         25      26      27      28      29      30
      ------------ ------- ------- ------- ------- ------- -------
   1. Li 1 (s)     -0.0506  0.0000  0.0000 -0.0673  0.0192  0.2947
   2. Li 1 (s)     -0.6852  0.0000  0.0000  0.5203  6.3481  9.4194
   3. Li 1 (px)     0.0000 -0.3476  0.0000  0.0000  0.0000  0.0000
   4. Li 1 (py)     0.0000  0.0000 -0.3476  0.0000  0.0000  0.0000
   5. Li 1 (pz)     0.2266  0.0000  0.0000  2.0142 -0.0187 -1.0453
   6. Li 1 (s)      0.3579  0.0000  0.0000 -0.4546 -1.7914 -6.4263
   7. Li 1 (px)     0.0000  0.0098  0.0000  0.0000  0.0000  0.0000
   8. Li 1 (py)     0.0000  0.0000  0.0098  0.0000  0.0000  0.0000
   9. Li 1 (pz)    -0.3745  0.0000  0.0000 -0.4781  0.0934  1.8478
  10. Li 1 (d1)    -0.2711  0.0000  0.0000 -0.1430 -2.2448 -2.6379
  11. Li 1 (d4)    -0.2711  0.0000  0.0000 -0.1430 -2.2448 -2.6379
  12. Li 1 (d6)     0.7502  0.0000  0.0000 -1.9055 -2.0619 -2.3137
  13. Li 1 (d2)     0.0000  0.0000  0.0000  0.0000  0.0000  0.0000
  14. Li 1 (d3)     0.0000  0.9019  0.0000  0.0000  0.0000  0.0000
  15. Li 1 (d5)     0.0000  0.0000  0.9019  0.0000  0.0000  0.0000
  16. Li 2 (s)     -0.0506  0.0000  0.0000  0.0673  0.0192 -0.2947
  17. Li 2 (s)     -0.6852  0.0000  0.0000 -0.5203  6.3481 -9.4194
  18. Li 2 (px)     0.0000  0.3476  0.0000  0.0000  0.0000  0.0000
  19. Li 2 (py)     0.0000  0.0000  0.3476  0.0000  0.0000  0.0000
  20. Li 2 (pz)    -0.2266  0.0000  0.0000  2.0142  0.0187 -1.0453
  21. Li 2 (s)      0.3579  0.0000  0.0000  0.4546 -1.7914  6.4263
  22. Li 2 (px)     0.0000 -0.0098  0.0000  0.0000  0.0000  0.0000
  23. Li 2 (py)     0.0000  0.0000 -0.0098  0.0000  0.0000  0.0000
  24. Li 2 (pz)     0.3745  0.0000  0.0000 -0.4781 -0.0934  1.8478
  25. Li 2 (d1)    -0.2711  0.0000  0.0000  0.1430 -2.2448  2.6379
  26. Li 2 (d4)    -0.2711  0.0000  0.0000  0.1430 -2.2448  2.6379
  27. Li 2 (d6)     0.7502  0.0000  0.0000  1.9055 -2.0619  2.3137
  28. Li 2 (d2)     0.0000  0.0000  0.0000  0.0000  0.0000  0.0000
  29. Li 2 (d3)     0.0000  0.9019  0.0000  0.0000  0.0000  0.0000
  30. Li 2 (d5)     0.0000  0.0000  0.9019  0.0000  0.0000  0.0000


 NOs in the AO basis:

           AO          1       2       3       4       5       6       7       8
      ------------ ------- ------- ------- ------- ------- ------- ------- -------
   1. Li 1 (s)     -0.6990  0.6798 -0.2626  0.0006  0.0055  0.0000  0.0000  0.0000
   2. Li 1 (s)      0.0234 -0.0542 -0.0926  0.0453 -0.0361  0.0000  0.0000  0.0000
   3. Li 1 (px)     0.0000  0.0000  0.0000 -0.9948 -0.0096 -0.1303 -1.3363  0.0016
   4. Li 1 (py)     0.0000  0.0000  0.0000 -0.0113  0.9895  1.3365 -0.1303  0.0001
   5. Li 1 (pz)    -0.0178  0.0509  0.0954  0.0762  0.0279  0.0000  0.0000  0.0000
   6. Li 1 (s)      0.0398 -0.1760 -0.3484  0.0116 -0.0283  0.0000  0.0000  0.0000
   7. Li 1 (px)     0.0000  0.0000  0.0000  0.0000  0.0000  0.1625  1.6689  0.4703
   8. Li 1 (py)     0.0000  0.0000  0.0000  0.0000  0.0000 -1.6664  0.1624 -0.0019
   9. Li 1 (pz)     0.0061 -0.0123 -0.0197 -0.1303 -0.0822  0.0000  0.0000  0.0000
  10. Li 1 (d1)    -0.0036 -0.0066 -0.0263  0.0233 -0.0170  0.0000  0.0000  0.0000
  11. Li 1 (d4)    -0.0036 -0.0066 -0.0263 -0.0794  0.0494  0.0000  0.0000  0.0000
  12. Li 1 (d6)    -0.0013 -0.0105 -0.0345  0.0439 -0.0040  0.0000  0.0000  0.0000
  13. Li 1 (d2)     0.0000  0.0000  0.0000  0.0000  0.0000 -0.0026  0.0202 -0.0027
  14. Li 1 (d3)     0.0000  0.0000  0.0000  0.0000  0.0000 -0.0025  0.0085 -0.2559
  15. Li 1 (d5)     0.0000  0.0000  0.0000  0.0000  0.0000  0.0113  0.0092  0.0076
  16. Li 2 (s)      0.7035  0.7170 -0.1034 -0.0049 -0.0087  0.0000  0.0000  0.0000
  17. Li 2 (s)      0.0008 -0.0548 -0.0951 -0.0292  0.0495  0.0000  0.0000  0.0000
  18. Li 2 (px)     0.0000  0.0000  0.0000  0.0000  0.0000 -0.0001 -0.0068 -1.1423
  19. Li 2 (py)     0.0000  0.0000  0.0000  0.0000  0.0000  0.0000  0.0000  0.0053
  20. Li 2 (pz)     0.0068 -0.0512 -0.0966 -0.0229 -0.0345  0.0000  0.0000  0.0000
  21. Li 2 (s)      0.0486 -0.1757 -0.3474 -0.0169  0.0108  0.0000  0.0000  0.0000
  22. Li 2 (px)     0.0000  0.0000  0.0000  0.0000  0.0000  0.0000 -0.0001  0.0079
  23. Li 2 (py)     0.0000  0.0000  0.0000  0.0000  0.0000  0.0000  0.0000 -0.0011
  24. Li 2 (pz)     0.0009  0.0124  0.0205 -0.0214  0.0013  0.0000  0.0000  0.0000
  25. Li 2 (d1)     0.0098 -0.0063 -0.0248 -0.0128 -0.1193  0.0000  0.0000  0.0000
  26. Li 2 (d4)     0.0098 -0.0063 -0.0248 -0.0206  0.0196  0.0000  0.0000  0.0000
  27. Li 2 (d6)     0.0095 -0.0102 -0.0333  0.0047  0.0504  0.0000  0.0000  0.0000
  28. Li 2 (d2)     0.0000  0.0000  0.0000  0.0000  0.0000  0.0000  0.0000  0.0000
  29. Li 2 (d3)     0.0000  0.0000  0.0000  0.0000  0.0000  0.0000  0.0000 -0.0036
  30. Li 2 (d5)     0.0000  0.0000  0.0000  0.0000  0.0000  0.0000  0.0000  0.0005

           AO          9      10      11      12      13      14      15      16
      ------------ ------- ------- ------- ------- ------- ------- ------- -------
   1. Li 1 (s)      0.0000 -0.0258  0.1001 -0.0247  0.0000 -0.0729  0.0505 -0.0374
   2. Li 1 (s)      0.0000  1.2689 -0.0422 -0.1058  0.0000 -0.6596  0.0825 -0.0090
   3. Li 1 (px)     0.0153  0.0129  0.0000 -0.0456  0.0001 -0.0012  0.0298 -0.0168
   4. Li 1 (py)    -0.0969  0.0081  0.0012  0.0185 -0.5580 -0.0083 -0.0132  0.1350
   5. Li 1 (pz)     0.0000 -0.4679  0.1120 -0.7903  0.0000 -0.1393 -0.8374 -0.0704
   6. Li 1 (s)      0.0000  1.8968 -0.2499  0.2668  0.0000  0.8558 -0.0540 -0.0911
   7. Li 1 (px)    -0.0249  0.0000  0.0000  0.0000 -0.0166  0.0000  0.0000  0.0000
   8. Li 1 (py)    -0.3167  0.0000  0.0000  0.0000  1.0169  0.0000  0.0000  0.0000
   9. Li 1 (pz)     0.0000 -0.3784  0.3028  1.3792  0.0000 -0.4233  0.5488  0.6458
  10. Li 1 (d1)     0.0000 -0.8750 -0.1787 -0.0124  0.0000 -0.4126  0.3895  0.1234
  11. Li 1 (d4)     0.0000 -0.7385 -0.2965 -0.2576  0.0000 -0.4554 -0.3890 -0.0702
  12. Li 1 (d6)     0.0000 -0.2681 -0.1106 -0.0540  0.0000 -0.1177  0.1242  0.0774
  13. Li 1 (d2)     0.0001  0.0000  0.0000  0.0000  0.0000  0.0000  0.0000  0.0000
  14. Li 1 (d3)    -0.0056  0.0000  0.0000  0.0000  0.0080  0.0000  0.0000  0.0000
  15. Li 1 (d5)     0.2960  0.0000  0.0000  0.0000  0.1590  0.0000  0.0000  0.0000
  16. Li 2 (s)      0.0000 -0.0411 -0.0645  0.0414  0.0000 -0.0541 -0.0381  0.0652
  17. Li 2 (s)      0.0000 -1.3573  0.0337 -0.0055  0.0000  0.0080  0.0629 -0.0251
  18. Li 2 (px)    -0.0255  0.0000  0.0000  0.0000 -0.0178  0.0000  0.0000  0.0000
  19. Li 2 (py)     1.3259  0.0000  0.0000  0.0000  0.9879  0.0000  0.0000  0.0000
  20. Li 2 (pz)     0.0000 -0.5784 -0.3036  0.1873  0.0000 -0.6280 -0.0503  0.1167
  21. Li 2 (s)      0.0000 -0.3031  0.1314  0.0590  0.0000 -0.0387 -0.0715 -0.0437
  22. Li 2 (px)     0.0414  0.0000  0.0000  0.0000  0.0331  0.0000  0.0000  0.0000
  23. Li 2 (py)    -0.2877  0.0000  0.0000  0.0000 -1.6911  0.0000  0.0000  0.0000
  24. Li 2 (pz)     0.0000 -1.0698  0.2811 -0.0471  0.0000  1.2268 -0.5632  0.2656
  25. Li 2 (d1)     0.0000  0.1789  0.6347 -0.3219  0.0000 -0.2564  0.0783  0.8471
  26. Li 2 (d4)     0.0000 -0.0198  0.5318  0.6478  0.0000 -0.4121 -0.3779 -0.4097
  27. Li 2 (d6)     0.0000 -0.1667 -0.0287  0.0605  0.0000  0.2823  0.4052 -0.1072
  28. Li 2 (d2)     0.0000  0.0000  0.0000  0.0000  0.0000  0.0000  0.0000  0.0000
  29. Li 2 (d3)    -0.0188  0.0000  0.0000  0.0000  0.0238  0.0000  0.0000  0.0000
  30. Li 2 (d5)     0.1304  0.0000  0.0000  0.0000  0.5513  0.0000  0.0000  0.0000

           AO         17      18      19      20      21      22      23      24
      ------------ ------- ------- ------- ------- ------- ------- ------- -------
   1. Li 1 (s)      0.0214  0.0000 -0.0329  0.0000  0.0000 -0.0086  0.0000  0.0000
   2. Li 1 (s)      0.5700  0.0000  0.0057  0.0000  0.0000 -0.2736  0.0000  0.0000
   3. Li 1 (px)     0.0176 -0.5656  0.0803 -0.0356 -0.0271  0.0064  0.0025  0.0296
   4. Li 1 (py)     0.0281 -0.0015  0.0163 -0.0335  0.0199 -0.0295 -0.0133 -0.0018
   5. Li 1 (pz)    -0.4236  0.0000  0.8897  0.0000  0.0000  0.5443  0.0000  0.0000
   6. Li 1 (s)      0.4013  0.0000 -0.0647  0.0000  0.0000 -0.4437  0.0000  0.0000
   7. Li 1 (px)     0.0000  0.8529  0.0000  0.5529  0.4208  0.0000 -0.0059 -0.0375
   8. Li 1 (py)     0.0000 -0.0105  0.0000 -0.3143  0.4571  0.0000  0.0165  0.0022
   9. Li 1 (pz)    -0.3604  0.0000 -0.7416  0.0000  0.0000  0.0459  0.0000  0.0000
  10. Li 1 (d1)    -0.5275  0.0000  0.5065  0.0000  0.0000 -0.5668  0.0000  0.0000
  11. Li 1 (d4)    -0.6088  0.0000 -0.7215  0.0000  0.0000  0.2939  0.0000  0.0000
  12. Li 1 (d6)     0.4703  0.0000  0.4307  0.0000  0.0000  0.6812  0.0000  0.0000
  13. Li 1 (d2)     0.0000  0.0000  0.0000  0.0000  0.0000  0.0000  0.0247  0.4953
  14. Li 1 (d3)     0.0000  0.2531  0.0000 -0.2283 -0.1738  0.0000 -0.6549  0.6633
  15. Li 1 (d5)     0.0000  0.0077  0.0000  0.1930 -0.2467  0.0000  0.7540  0.5609
  16. Li 2 (s)     -0.0661  0.0000  0.0081  0.0000  0.0000 -0.0037  0.0000  0.0000
  17. Li 2 (s)     -0.7194  0.0000 -0.0804  0.0000  0.0000  0.1654  0.0000  0.0000
  18. Li 2 (px)     0.0000  1.1147  0.0000  0.6047  0.4602  0.0000  0.0066  0.0015
  19. Li 2 (py)     0.0000  0.0339  0.0000 -0.3576  0.5126  0.0000  0.0003 -0.0001
  20. Li 2 (pz)     0.5889  0.0000 -0.2169  0.0000  0.0000  0.0603  0.0000  0.0000
  21. Li 2 (s)      0.0375  0.0000 -0.0478  0.0000  0.0000  0.1369  0.0000  0.0000
  22. Li 2 (px)     0.0000 -1.5362  0.0000 -1.0920 -0.8311  0.0000  0.0001  0.0000
  23. Li 2 (py)     0.0000 -0.0046  0.0000  0.6555 -0.9346  0.0000 -0.0001  0.0000
  24. Li 2 (pz)    -0.7744  0.0000  0.3586  0.0000  0.0000  0.2242  0.0000  0.0000
  25. Li 2 (d1)     0.2199  0.0000 -0.2722  0.0000  0.0000 -0.0600  0.0000  0.0000
  26. Li 2 (d4)     0.1842  0.0000  0.1499  0.0000  0.0000 -0.1518  0.0000  0.0000
  27. Li 2 (d6)    -0.6194  0.0000  0.0468  0.0000  0.0000  0.5093  0.0000  0.0000
  28. Li 2 (d2)     0.0000  0.0000  0.0000  0.0000  0.0000  0.0000  0.0000  0.0000
  29. Li 2 (d3)     0.0000  0.6938  0.0000 -0.6793 -0.5171  0.0000  0.0000  0.0000
  30. Li 2 (d5)     0.0000  0.0024  0.0000  0.5829 -0.7419  0.0000  0.0000  0.0000

           AO         25      26      27      28      29      30
      ------------ ------- ------- ------- ------- ------- -------
   1. Li 1 (s)      0.0000  0.0000 -0.0098 -0.0933 -0.3751  0.0049
   2. Li 1 (s)      0.0000  0.0000 -2.8141 -1.5311 -9.2231 -6.7372
   3. Li 1 (px)    -0.0137  0.0000 -0.0006  0.0007  0.0000 -0.0016
   4. Li 1 (py)    -0.0084  0.0000 -0.0008  0.0014  0.0000 -0.0001
   5. Li 1 (pz)     0.0000  0.0000  0.5191  2.0345  0.8486 -0.5995
   6. Li 1 (s)      0.0000  0.0000 -2.6614  0.9391 10.9524  0.8087
   7. Li 1 (px)     0.0153  0.0000  0.0000  0.0000  0.0000  0.0000
   8. Li 1 (py)     0.0104  0.0000  0.0000  0.0000  0.0000  0.0000
   9. Li 1 (pz)     0.0000  0.0000  1.9948 -0.7969 -4.0076  0.7632
  10. Li 1 (d1)     0.0000  0.0000  0.9799  0.3436  2.1497  2.2920
  11. Li 1 (d4)     0.0000  0.0000  0.9366  0.2621  2.1536  2.3045
  12. Li 1 (d6)     0.0000  0.0000  0.6323 -1.0944  2.2345  2.5379
  13. Li 1 (d2)    -0.8681 -0.0747  0.0000  0.0000  0.0000  0.0000
  14. Li 1 (d3)     0.3608  0.0000  0.0000  0.0000  0.0000  0.0000
  15. Li 1 (d5)     0.3417  0.0000  0.0000  0.0000  0.0000  0.0000
  16. Li 2 (s)      0.0000  0.0000 -0.0048  0.0487  0.3747 -0.0906
  17. Li 2 (s)      0.0000  0.0000  5.3663 -2.4700  8.3766 -5.9764
  18. Li 2 (px)     0.0044  0.0000  0.0000  0.0000  0.0000  0.0000
  19. Li 2 (py)     0.0000  0.0000  0.0000  0.0000  0.0000  0.0000
  20. Li 2 (pz)     0.0000  0.0000  0.6869  2.3379  0.8676 -0.6180
  21. Li 2 (s)      0.0000  0.0000  2.4911  0.7720-10.7194  3.4002
  22. Li 2 (px)     0.0000  0.0000  0.0000  0.0000  0.0000  0.0000
  23. Li 2 (py)     0.0000  0.0000  0.0000  0.0000  0.0000  0.0000
  24. Li 2 (pz)     0.0000  0.0000  1.5968 -1.0705 -4.0380  1.0483
  25. Li 2 (d1)     0.0000  0.0000 -2.0803  0.8040 -1.8348  1.7707
  26. Li 2 (d4)     0.0000  0.0000 -2.1446  0.7480 -1.8375  1.7735
  27. Li 2 (d6)     0.0000  0.0000 -1.6890  2.1500 -1.9624  1.3282
  28. Li 2 (d2)     0.0000  1.0028  0.0000  0.0000  0.0000  0.0000
  29. Li 2 (d3)     0.0000  0.0000  0.0000  0.0000  0.0000  0.0000
  30. Li 2 (d5)     0.0000  0.0000  0.0000  0.0000  0.0000  0.0000


 AO overlap matrix:

           AO          1       2       3       4       5       6       7       8
      ------------ ------- ------- ------- ------- ------- ------- ------- -------
   1. Li 1 (s)      1.0000  0.1453  0.0000  0.0000  0.0000  0.1857  0.0000  0.0000
   2. Li 1 (s)      0.1453  1.0000  0.0000  0.0000  0.0000  0.9055  0.0000  0.0000
   3. Li 1 (px)     0.0000  0.0000  1.0000  0.0000  0.0000  0.0000  0.8021  0.0000
   4. Li 1 (py)     0.0000  0.0000  0.0000  1.0000  0.0000  0.0000  0.0000  0.8021
   5. Li 1 (pz)     0.0000  0.0000  0.0000  0.0000  1.0000  0.0000  0.0000  0.0000
   6. Li 1 (s)      0.1857  0.9055  0.0000  0.0000  0.0000  1.0000  0.0000  0.0000
   7. Li 1 (px)     0.0000  0.0000  0.8021  0.0000  0.0000  0.0000  1.0000  0.0000
   8. Li 1 (py)     0.0000  0.0000  0.0000  0.8021  0.0000  0.0000  0.0000  1.0000
   9. Li 1 (pz)     0.0000  0.0000  0.0000  0.0000  0.8021  0.0000  0.0000  0.0000
  10. Li 1 (d1)     0.0996  0.7243  0.0000  0.0000  0.0000  0.5965  0.0000  0.0000
  11. Li 1 (d4)     0.0996  0.7243  0.0000  0.0000  0.0000  0.5965  0.0000  0.0000
  12. Li 1 (d6)     0.0996  0.7243  0.0000  0.0000  0.0000  0.5965  0.0000  0.0000
  13. Li 1 (d2)     0.0000  0.0000  0.0000  0.0000  0.0000  0.0000  0.0000  0.0000
  14. Li 1 (d3)     0.0000  0.0000  0.0000  0.0000  0.0000  0.0000  0.0000  0.0000
  15. Li 1 (d5)     0.0000  0.0000  0.0000  0.0000  0.0000  0.0000  0.0000  0.0000
  16. Li 2 (s)      0.0000  0.0513  0.0000  0.0000 -0.1181  0.0756  0.0000  0.0000
  17. Li 2 (s)      0.0513  0.3855  0.0000  0.0000 -0.4976  0.4837  0.0000  0.0000
  18. Li 2 (px)     0.0000  0.0000  0.3339  0.0000  0.0000  0.0000  0.4200  0.0000
  19. Li 2 (py)     0.0000  0.0000  0.0000  0.3339  0.0000  0.0000  0.0000  0.4200
  20. Li 2 (pz)     0.1181  0.4976  0.0000  0.0000 -0.3734  0.4058  0.0000  0.0000
  21. Li 2 (s)      0.0756  0.4837  0.0000  0.0000 -0.4058  0.6270  0.0000  0.0000
  22. Li 2 (px)     0.0000  0.0000  0.4200  0.0000  0.0000  0.0000  0.6270  0.0000
  23. Li 2 (py)     0.0000  0.0000  0.0000  0.4200  0.0000  0.0000  0.0000  0.6270
  24. Li 2 (pz)     0.1406  0.6296  0.0000  0.0000 -0.1230  0.6058  0.0000  0.0000
  25. Li 2 (d1)     0.0017  0.1754  0.0000  0.0000 -0.3169  0.2703  0.0000  0.0000
  26. Li 2 (d4)     0.0017  0.1754  0.0000  0.0000 -0.3169  0.2703  0.0000  0.0000
  27. Li 2 (d6)     0.0608  0.3590  0.0000  0.0000 -0.4564  0.3473  0.0000  0.0000
  28. Li 2 (d2)     0.0000  0.0000  0.0000  0.0000  0.0000  0.0000  0.0000  0.0000
  29. Li 2 (d3)     0.0000  0.0000  0.2226  0.0000  0.0000  0.0000  0.1379  0.0000
  30. Li 2 (d5)     0.0000  0.0000  0.0000  0.2226  0.0000  0.0000  0.0000  0.1379

           AO          9      10      11      12      13      14      15      16
      ------------ ------- ------- ------- ------- ------- ------- ------- -------
   1. Li 1 (s)      0.0000  0.0996  0.0996  0.0996  0.0000  0.0000  0.0000  0.0000
   2. Li 1 (s)      0.0000  0.7243  0.7243  0.7243  0.0000  0.0000  0.0000  0.0513
   3. Li 1 (px)     0.0000  0.0000  0.0000  0.0000  0.0000  0.0000  0.0000  0.0000
   4. Li 1 (py)     0.0000  0.0000  0.0000  0.0000  0.0000  0.0000  0.0000  0.0000
   5. Li 1 (pz)     0.8021  0.0000  0.0000  0.0000  0.0000  0.0000  0.0000 -0.1181
   6. Li 1 (s)      0.0000  0.5965  0.5965  0.5965  0.0000  0.0000  0.0000  0.0756
   7. Li 1 (px)     0.0000  0.0000  0.0000  0.0000  0.0000  0.0000  0.0000  0.0000
   8. Li 1 (py)     0.0000  0.0000  0.0000  0.0000  0.0000  0.0000  0.0000  0.0000
   9. Li 1 (pz)     1.0000  0.0000  0.0000  0.0000  0.0000  0.0000  0.0000 -0.1406
  10. Li 1 (d1)     0.0000  1.0000  0.3333  0.3333  0.0000  0.0000  0.0000  0.0017
  11. Li 1 (d4)     0.0000  0.3333  1.0000  0.3333  0.0000  0.0000  0.0000  0.0017
  12. Li 1 (d6)     0.0000  0.3333  0.3333  1.0000  0.0000  0.0000  0.0000  0.0608
  13. Li 1 (d2)     0.0000  0.0000  0.0000  0.0000  1.0000  0.0000  0.0000  0.0000
  14. Li 1 (d3)     0.0000  0.0000  0.0000  0.0000  0.0000  1.0000  0.0000  0.0000
  15. Li 1 (d5)     0.0000  0.0000  0.0000  0.0000  0.0000  0.0000  1.0000  0.0000
  16. Li 2 (s)     -0.1406  0.0017  0.0017  0.0608  0.0000  0.0000  0.0000  1.0000
  17. Li 2 (s)     -0.6296  0.1754  0.1754  0.3590  0.0000  0.0000  0.0000  0.1453
  18. Li 2 (px)     0.0000  0.0000  0.0000  0.0000  0.0000 -0.2226  0.0000  0.0000
  19. Li 2 (py)     0.0000  0.0000  0.0000  0.0000  0.0000  0.0000 -0.2226  0.0000
  20. Li 2 (pz)    -0.1230  0.3169  0.3169  0.4564  0.0000  0.0000  0.0000  0.0000
  21. Li 2 (s)     -0.6058  0.2703  0.2703  0.3473  0.0000  0.0000  0.0000  0.1857
  22. Li 2 (px)     0.0000  0.0000  0.0000  0.0000  0.0000 -0.1379  0.0000  0.0000
  23. Li 2 (py)     0.0000  0.0000  0.0000  0.0000  0.0000  0.0000 -0.1379  0.0000
  24. Li 2 (pz)     0.0416  0.4428  0.4428  0.4096  0.0000  0.0000  0.0000  0.0000
  25. Li 2 (d1)    -0.4428  0.0745  0.0248  0.1539  0.0000  0.0000  0.0000  0.0996
  26. Li 2 (d4)    -0.4428  0.0248  0.0745  0.1539  0.0000  0.0000  0.0000  0.0996
  27. Li 2 (d6)    -0.4096  0.1539  0.1539  0.4865  0.0000  0.0000  0.0000  0.0996
  28. Li 2 (d2)     0.0000  0.0000  0.0000  0.0000  0.0745  0.0000  0.0000  0.0000
  29. Li 2 (d3)     0.0000  0.0000  0.0000  0.0000  0.0000 -0.3125  0.0000  0.0000
  30. Li 2 (d5)     0.0000  0.0000  0.0000  0.0000  0.0000  0.0000 -0.3125  0.0000

           AO         17      18      19      20      21      22      23      24
      ------------ ------- ------- ------- ------- ------- ------- ------- -------
   1. Li 1 (s)      0.0513  0.0000  0.0000  0.1181  0.0756  0.0000  0.0000  0.1406
   2. Li 1 (s)      0.3855  0.0000  0.0000  0.4976  0.4837  0.0000  0.0000  0.6296
   3. Li 1 (px)     0.0000  0.3339  0.0000  0.0000  0.0000  0.4200  0.0000  0.0000
   4. Li 1 (py)     0.0000  0.0000  0.3339  0.0000  0.0000  0.0000  0.4200  0.0000
   5. Li 1 (pz)    -0.4976  0.0000  0.0000 -0.3734 -0.4058  0.0000  0.0000 -0.1230
   6. Li 1 (s)      0.4837  0.0000  0.0000  0.4058  0.6270  0.0000  0.0000  0.6058
   7. Li 1 (px)     0.0000  0.4200  0.0000  0.0000  0.0000  0.6270  0.0000  0.0000
   8. Li 1 (py)     0.0000  0.0000  0.4200  0.0000  0.0000  0.0000  0.6270  0.0000
   9. Li 1 (pz)    -0.6296  0.0000  0.0000 -0.1230 -0.6058  0.0000  0.0000  0.0416
  10. Li 1 (d1)     0.1754  0.0000  0.0000  0.3169  0.2703  0.0000  0.0000  0.4428
  11. Li 1 (d4)     0.1754  0.0000  0.0000  0.3169  0.2703  0.0000  0.0000  0.4428
  12. Li 1 (d6)     0.3590  0.0000  0.0000  0.4564  0.3473  0.0000  0.0000  0.4096
  13. Li 1 (d2)     0.0000  0.0000  0.0000  0.0000  0.0000  0.0000  0.0000  0.0000
  14. Li 1 (d3)     0.0000 -0.2226  0.0000  0.0000  0.0000 -0.1379  0.0000  0.0000
  15. Li 1 (d5)     0.0000  0.0000 -0.2226  0.0000  0.0000  0.0000 -0.1379  0.0000
  16. Li 2 (s)      0.1453  0.0000  0.0000  0.0000  0.1857  0.0000  0.0000  0.0000
  17. Li 2 (s)      1.0000  0.0000  0.0000  0.0000  0.9055  0.0000  0.0000  0.0000
  18. Li 2 (px)     0.0000  1.0000  0.0000  0.0000  0.0000  0.8021  0.0000  0.0000
  19. Li 2 (py)     0.0000  0.0000  1.0000  0.0000  0.0000  0.0000  0.8021  0.0000
  20. Li 2 (pz)     0.0000  0.0000  0.0000  1.0000  0.0000  0.0000  0.0000  0.8021
  21. Li 2 (s)      0.9055  0.0000  0.0000  0.0000  1.0000  0.0000  0.0000  0.0000
  22. Li 2 (px)     0.0000  0.8021  0.0000  0.0000  0.0000  1.0000  0.0000  0.0000
  23. Li 2 (py)     0.0000  0.0000  0.8021  0.0000  0.0000  0.0000  1.0000  0.0000
  24. Li 2 (pz)     0.0000  0.0000  0.0000  0.8021  0.0000  0.0000  0.0000  1.0000
  25. Li 2 (d1)     0.7243  0.0000  0.0000  0.0000  0.5965  0.0000  0.0000  0.0000
  26. Li 2 (d4)     0.7243  0.0000  0.0000  0.0000  0.5965  0.0000  0.0000  0.0000
  27. Li 2 (d6)     0.7243  0.0000  0.0000  0.0000  0.5965  0.0000  0.0000  0.0000
  28. Li 2 (d2)     0.0000  0.0000  0.0000  0.0000  0.0000  0.0000  0.0000  0.0000
  29. Li 2 (d3)     0.0000  0.0000  0.0000  0.0000  0.0000  0.0000  0.0000  0.0000
  30. Li 2 (d5)     0.0000  0.0000  0.0000  0.0000  0.0000  0.0000  0.0000  0.0000

           AO         25      26      27      28      29      30
      ------------ ------- ------- ------- ------- ------- -------
   1. Li 1 (s)      0.0017  0.0017  0.0608  0.0000  0.0000  0.0000
   2. Li 1 (s)      0.1754  0.1754  0.3590  0.0000  0.0000  0.0000
   3. Li 1 (px)     0.0000  0.0000  0.0000  0.0000  0.2226  0.0000
   4. Li 1 (py)     0.0000  0.0000  0.0000  0.0000  0.0000  0.2226
   5. Li 1 (pz)    -0.3169 -0.3169 -0.4564  0.0000  0.0000  0.0000
   6. Li 1 (s)      0.2703  0.2703  0.3473  0.0000  0.0000  0.0000
   7. Li 1 (px)     0.0000  0.0000  0.0000  0.0000  0.1379  0.0000
   8. Li 1 (py)     0.0000  0.0000  0.0000  0.0000  0.0000  0.1379
   9. Li 1 (pz)    -0.4428 -0.4428 -0.4096  0.0000  0.0000  0.0000
  10. Li 1 (d1)     0.0745  0.0248  0.1539  0.0000  0.0000  0.0000
  11. Li 1 (d4)     0.0248  0.0745  0.1539  0.0000  0.0000  0.0000
  12. Li 1 (d6)     0.1539  0.1539  0.4865  0.0000  0.0000  0.0000
  13. Li 1 (d2)     0.0000  0.0000  0.0000  0.0745  0.0000  0.0000
  14. Li 1 (d3)     0.0000  0.0000  0.0000  0.0000 -0.3125  0.0000
  15. Li 1 (d5)     0.0000  0.0000  0.0000  0.0000  0.0000 -0.3125
  16. Li 2 (s)      0.0996  0.0996  0.0996  0.0000  0.0000  0.0000
  17. Li 2 (s)      0.7243  0.7243  0.7243  0.0000  0.0000  0.0000
  18. Li 2 (px)     0.0000  0.0000  0.0000  0.0000  0.0000  0.0000
  19. Li 2 (py)     0.0000  0.0000  0.0000  0.0000  0.0000  0.0000
  20. Li 2 (pz)     0.0000  0.0000  0.0000  0.0000  0.0000  0.0000
  21. Li 2 (s)      0.5965  0.5965  0.5965  0.0000  0.0000  0.0000
  22. Li 2 (px)     0.0000  0.0000  0.0000  0.0000  0.0000  0.0000
  23. Li 2 (py)     0.0000  0.0000  0.0000  0.0000  0.0000  0.0000
  24. Li 2 (pz)     0.0000  0.0000  0.0000  0.0000  0.0000  0.0000
  25. Li 2 (d1)     1.0000  0.3333  0.3333  0.0000  0.0000  0.0000
  26. Li 2 (d4)     0.3333  1.0000  0.3333  0.0000  0.0000  0.0000
  27. Li 2 (d6)     0.3333  0.3333  1.0000  0.0000  0.0000  0.0000
  28. Li 2 (d2)     0.0000  0.0000  0.0000  1.0000  0.0000  0.0000
  29. Li 2 (d3)     0.0000  0.0000  0.0000  0.0000  1.0000  0.0000
  30. Li 2 (d5)     0.0000  0.0000  0.0000  0.0000  0.0000  1.0000


 AO bond-order matrix:

           AO          1       2       3       4       5       6       7       8
      ------------ ------- ------- ------- ------- ------- ------- ------- -------
   1. Li 1 (s)      2.0394 -0.0578  0.0000  0.0000  0.0439 -0.1119  0.0000  0.0000
   2. Li 1 (s)     -0.0578  0.0241  0.0000  0.0000 -0.0240  0.0854  0.0000  0.0000
   3. Li 1 (px)     0.0000  0.0000  0.0000  0.0000  0.0000  0.0000  0.0000  0.0000
   4. Li 1 (py)     0.0000  0.0000  0.0000  0.0000  0.0000  0.0000  0.0000  0.0000
   5. Li 1 (pz)     0.0439 -0.0240  0.0000  0.0000  0.0240 -0.0858  0.0000  0.0000
   6. Li 1 (s)     -0.1119  0.0854  0.0000  0.0000 -0.0858  0.3079  0.0000  0.0000
   7. Li 1 (px)     0.0000  0.0000  0.0000  0.0000  0.0000  0.0000  0.0000  0.0000
   8. Li 1 (py)     0.0000  0.0000  0.0000  0.0000  0.0000  0.0000  0.0000  0.0000
   9. Li 1 (pz)    -0.0149  0.0053  0.0000  0.0000 -0.0052  0.0185  0.0000  0.0000
  10. Li 1 (d1)     0.0099  0.0054  0.0000  0.0000 -0.0056  0.0204  0.0000  0.0000
  11. Li 1 (d4)     0.0099  0.0054  0.0000  0.0000 -0.0056  0.0204  0.0000  0.0000
  12. Li 1 (d6)     0.0056  0.0075  0.0000  0.0000 -0.0076  0.0277  0.0000  0.0000
  13. Li 1 (d2)     0.0000  0.0000  0.0000  0.0000  0.0000  0.0000  0.0000  0.0000
  14. Li 1 (d3)     0.0000  0.0000  0.0000  0.0000  0.0000  0.0000  0.0000  0.0000
  15. Li 1 (d5)     0.0000  0.0000  0.0000  0.0000  0.0000  0.0000  0.0000  0.0000
  16. Li 2 (s)      0.0458 -0.0257  0.0000  0.0000  0.0283 -0.1244  0.0000  0.0000
  17. Li 2 (s)     -0.0257  0.0236  0.0000  0.0000 -0.0238  0.0856  0.0000  0.0000
  18. Li 2 (px)     0.0000  0.0000  0.0000  0.0000  0.0000  0.0000  0.0000  0.0000
  19. Li 2 (py)     0.0000  0.0000  0.0000  0.0000  0.0000  0.0000  0.0000  0.0000
  20. Li 2 (pz)    -0.0283  0.0238  0.0000  0.0000 -0.0239  0.0859  0.0000  0.0000
  21. Li 2 (s)     -0.1244  0.0856  0.0000  0.0000 -0.0859  0.3078  0.0000  0.0000
  22. Li 2 (px)     0.0000  0.0000  0.0000  0.0000  0.0000  0.0000  0.0000  0.0000
  23. Li 2 (py)     0.0000  0.0000  0.0000  0.0000  0.0000  0.0000  0.0000  0.0000
  24. Li 2 (pz)     0.0049 -0.0051  0.0000  0.0000  0.0051 -0.0186  0.0000  0.0000
  25. Li 2 (d1)    -0.0092  0.0057  0.0000  0.0000 -0.0057  0.0203  0.0000  0.0000
  26. Li 2 (d4)    -0.0092  0.0057  0.0000  0.0000 -0.0057  0.0203  0.0000  0.0000
  27. Li 2 (d6)    -0.0097  0.0077  0.0000  0.0000 -0.0077  0.0276  0.0000  0.0000
  28. Li 2 (d2)     0.0000  0.0000  0.0000  0.0000  0.0000  0.0000  0.0000  0.0000
  29. Li 2 (d3)     0.0000  0.0000  0.0000  0.0000  0.0000  0.0000  0.0000  0.0000
  30. Li 2 (d5)     0.0000  0.0000  0.0000  0.0000  0.0000  0.0000  0.0000  0.0000

           AO          9      10      11      12      13      14      15      16
      ------------ ------- ------- ------- ------- ------- ------- ------- -------
   1. Li 1 (s)     -0.0149  0.0099  0.0099  0.0056  0.0000  0.0000  0.0000  0.0458
   2. Li 1 (s)      0.0053  0.0054  0.0054  0.0075  0.0000  0.0000  0.0000 -0.0257
   3. Li 1 (px)     0.0000  0.0000  0.0000  0.0000  0.0000  0.0000  0.0000  0.0000
   4. Li 1 (py)     0.0000  0.0000  0.0000  0.0000  0.0000  0.0000  0.0000  0.0000
   5. Li 1 (pz)    -0.0052 -0.0056 -0.0056 -0.0076  0.0000  0.0000  0.0000  0.0283
   6. Li 1 (s)      0.0185  0.0204  0.0204  0.0277  0.0000  0.0000  0.0000 -0.1244
   7. Li 1 (px)     0.0000  0.0000  0.0000  0.0000  0.0000  0.0000  0.0000  0.0000
   8. Li 1 (py)     0.0000  0.0000  0.0000  0.0000  0.0000  0.0000  0.0000  0.0000
   9. Li 1 (pz)     0.0011  0.0012  0.0012  0.0016  0.0000  0.0000  0.0000 -0.0049
  10. Li 1 (d1)     0.0012  0.0015  0.0015  0.0020  0.0000  0.0000  0.0000 -0.0092
  11. Li 1 (d4)     0.0012  0.0015  0.0015  0.0020  0.0000  0.0000  0.0000 -0.0092
  12. Li 1 (d6)     0.0016  0.0020  0.0020  0.0026  0.0000  0.0000  0.0000 -0.0097
  13. Li 1 (d2)     0.0000  0.0000  0.0000  0.0000  0.0000  0.0000  0.0000  0.0000
  14. Li 1 (d3)     0.0000  0.0000  0.0000  0.0000  0.0000  0.0000  0.0000  0.0000
  15. Li 1 (d5)     0.0000  0.0000  0.0000  0.0000  0.0000  0.0000  0.0000  0.0000
  16. Li 2 (s)     -0.0049 -0.0092 -0.0092 -0.0097  0.0000  0.0000  0.0000  2.0394
  17. Li 2 (s)      0.0051  0.0057  0.0057  0.0077  0.0000  0.0000  0.0000 -0.0578
  18. Li 2 (px)     0.0000  0.0000  0.0000  0.0000  0.0000  0.0000  0.0000  0.0000
  19. Li 2 (py)     0.0000  0.0000  0.0000  0.0000  0.0000  0.0000  0.0000  0.0000
  20. Li 2 (pz)     0.0051  0.0057  0.0057  0.0077  0.0000  0.0000  0.0000 -0.0439
  21. Li 2 (s)      0.0186  0.0203  0.0203  0.0276  0.0000  0.0000  0.0000 -0.1119
  22. Li 2 (px)     0.0000  0.0000  0.0000  0.0000  0.0000  0.0000  0.0000  0.0000
  23. Li 2 (py)     0.0000  0.0000  0.0000  0.0000  0.0000  0.0000  0.0000  0.0000
  24. Li 2 (pz)    -0.0011 -0.0012 -0.0012 -0.0017  0.0000  0.0000  0.0000  0.0149
  25. Li 2 (d1)     0.0012  0.0013  0.0013  0.0018  0.0000  0.0000  0.0000  0.0099
  26. Li 2 (d4)     0.0012  0.0013  0.0013  0.0018  0.0000  0.0000  0.0000  0.0099
  27. Li 2 (d6)     0.0017  0.0018  0.0018  0.0025  0.0000  0.0000  0.0000  0.0056
  28. Li 2 (d2)     0.0000  0.0000  0.0000  0.0000  0.0000  0.0000  0.0000  0.0000
  29. Li 2 (d3)     0.0000  0.0000  0.0000  0.0000  0.0000  0.0000  0.0000  0.0000
  30. Li 2 (d5)     0.0000  0.0000  0.0000  0.0000  0.0000  0.0000  0.0000  0.0000

           AO         17      18      19      20      21      22      23      24
      ------------ ------- ------- ------- ------- ------- ------- ------- -------
   1. Li 1 (s)     -0.0257  0.0000  0.0000 -0.0283 -0.1244  0.0000  0.0000  0.0049
   2. Li 1 (s)      0.0236  0.0000  0.0000  0.0238  0.0856  0.0000  0.0000 -0.0051
   3. Li 1 (px)     0.0000  0.0000  0.0000  0.0000  0.0000  0.0000  0.0000  0.0000
   4. Li 1 (py)     0.0000  0.0000  0.0000  0.0000  0.0000  0.0000  0.0000  0.0000
   5. Li 1 (pz)    -0.0238  0.0000  0.0000 -0.0239 -0.0859  0.0000  0.0000  0.0051
   6. Li 1 (s)      0.0856  0.0000  0.0000  0.0859  0.3078  0.0000  0.0000 -0.0186
   7. Li 1 (px)     0.0000  0.0000  0.0000  0.0000  0.0000  0.0000  0.0000  0.0000
   8. Li 1 (py)     0.0000  0.0000  0.0000  0.0000  0.0000  0.0000  0.0000  0.0000
   9. Li 1 (pz)     0.0051  0.0000  0.0000  0.0051  0.0186  0.0000  0.0000 -0.0011
  10. Li 1 (d1)     0.0057  0.0000  0.0000  0.0057  0.0203  0.0000  0.0000 -0.0012
  11. Li 1 (d4)     0.0057  0.0000  0.0000  0.0057  0.0203  0.0000  0.0000 -0.0012
  12. Li 1 (d6)     0.0077  0.0000  0.0000  0.0077  0.0276  0.0000  0.0000 -0.0017
  13. Li 1 (d2)     0.0000  0.0000  0.0000  0.0000  0.0000  0.0000  0.0000  0.0000
  14. Li 1 (d3)     0.0000  0.0000  0.0000  0.0000  0.0000  0.0000  0.0000  0.0000
  15. Li 1 (d5)     0.0000  0.0000  0.0000  0.0000  0.0000  0.0000  0.0000  0.0000
  16. Li 2 (s)     -0.0578  0.0000  0.0000 -0.0439 -0.1119  0.0000  0.0000  0.0149
  17. Li 2 (s)      0.0241  0.0000  0.0000  0.0240  0.0854  0.0000  0.0000 -0.0053
  18. Li 2 (px)     0.0000  0.0000  0.0000  0.0000  0.0000  0.0000  0.0000  0.0000
  19. Li 2 (py)     0.0000  0.0000  0.0000  0.0000  0.0000  0.0000  0.0000  0.0000
  20. Li 2 (pz)     0.0240  0.0000  0.0000  0.0240  0.0858  0.0000  0.0000 -0.0052
  21. Li 2 (s)      0.0854  0.0000  0.0000  0.0858  0.3079  0.0000  0.0000 -0.0185
  22. Li 2 (px)     0.0000  0.0000  0.0000  0.0000  0.0000  0.0000  0.0000  0.0000
  23. Li 2 (py)     0.0000  0.0000  0.0000  0.0000  0.0000  0.0000  0.0000  0.0000
  24. Li 2 (pz)    -0.0053  0.0000  0.0000 -0.0052 -0.0185  0.0000  0.0000  0.0011
  25. Li 2 (d1)     0.0054  0.0000  0.0000  0.0056  0.0204  0.0000  0.0000 -0.0012
  26. Li 2 (d4)     0.0054  0.0000  0.0000  0.0056  0.0204  0.0000  0.0000 -0.0012
  27. Li 2 (d6)     0.0075  0.0000  0.0000  0.0076  0.0277  0.0000  0.0000 -0.0016
  28. Li 2 (d2)     0.0000  0.0000  0.0000  0.0000  0.0000  0.0000  0.0000  0.0000
  29. Li 2 (d3)     0.0000  0.0000  0.0000  0.0000  0.0000  0.0000  0.0000  0.0000
  30. Li 2 (d5)     0.0000  0.0000  0.0000  0.0000  0.0000  0.0000  0.0000  0.0000

           AO         25      26      27      28      29      30
      ------------ ------- ------- ------- ------- ------- -------
   1. Li 1 (s)     -0.0092 -0.0092 -0.0097  0.0000  0.0000  0.0000
   2. Li 1 (s)      0.0057  0.0057  0.0077  0.0000  0.0000  0.0000
   3. Li 1 (px)     0.0000  0.0000  0.0000  0.0000  0.0000  0.0000
   4. Li 1 (py)     0.0000  0.0000  0.0000  0.0000  0.0000  0.0000
   5. Li 1 (pz)    -0.0057 -0.0057 -0.0077  0.0000  0.0000  0.0000
   6. Li 1 (s)      0.0203  0.0203  0.0276  0.0000  0.0000  0.0000
   7. Li 1 (px)     0.0000  0.0000  0.0000  0.0000  0.0000  0.0000
   8. Li 1 (py)     0.0000  0.0000  0.0000  0.0000  0.0000  0.0000
   9. Li 1 (pz)     0.0012  0.0012  0.0017  0.0000  0.0000  0.0000
  10. Li 1 (d1)     0.0013  0.0013  0.0018  0.0000  0.0000  0.0000
  11. Li 1 (d4)     0.0013  0.0013  0.0018  0.0000  0.0000  0.0000
  12. Li 1 (d6)     0.0018  0.0018  0.0025  0.0000  0.0000  0.0000
  13. Li 1 (d2)     0.0000  0.0000  0.0000  0.0000  0.0000  0.0000
  14. Li 1 (d3)     0.0000  0.0000  0.0000  0.0000  0.0000  0.0000
  15. Li 1 (d5)     0.0000  0.0000  0.0000  0.0000  0.0000  0.0000
  16. Li 2 (s)      0.0099  0.0099  0.0056  0.0000  0.0000  0.0000
  17. Li 2 (s)      0.0054  0.0054  0.0075  0.0000  0.0000  0.0000
  18. Li 2 (px)     0.0000  0.0000  0.0000  0.0000  0.0000  0.0000
  19. Li 2 (py)     0.0000  0.0000  0.0000  0.0000  0.0000  0.0000
  20. Li 2 (pz)     0.0056  0.0056  0.0076  0.0000  0.0000  0.0000
  21. Li 2 (s)      0.0204  0.0204  0.0277  0.0000  0.0000  0.0000
  22. Li 2 (px)     0.0000  0.0000  0.0000  0.0000  0.0000  0.0000
  23. Li 2 (py)     0.0000  0.0000  0.0000  0.0000  0.0000  0.0000
  24. Li 2 (pz)    -0.0012 -0.0012 -0.0016  0.0000  0.0000  0.0000
  25. Li 2 (d1)     0.0015  0.0015  0.0020  0.0000  0.0000  0.0000
  26. Li 2 (d4)     0.0015  0.0015  0.0020  0.0000  0.0000  0.0000
  27. Li 2 (d6)     0.0020  0.0020  0.0026  0.0000  0.0000  0.0000
  28. Li 2 (d2)     0.0000  0.0000  0.0000  0.0000  0.0000  0.0000
  29. Li 2 (d3)     0.0000  0.0000  0.0000  0.0000  0.0000  0.0000
  30. Li 2 (d5)     0.0000  0.0000  0.0000  0.0000  0.0000  0.0000


 AO density matrix:

           AO          1       2       3       4       5       6       7       8
      ------------ ------- ------- ------- ------- ------- ------- ------- -------
   1. Li 1 (s)      1.9999  0.2990  0.0000  0.0000  0.0071  0.3745  0.0000  0.0000
   2. Li 1 (s)      0.2990  1.3042  0.0000  0.0000 -0.5766  1.4259  0.0000  0.0000
   3. Li 1 (px)     0.0000  0.0000  0.0000  0.0000  0.0000  0.0000  0.0000  0.0000
   4. Li 1 (py)     0.0000  0.0000  0.0000  0.0000  0.0000  0.0000  0.0000  0.0000
   5. Li 1 (pz)     0.0071 -0.5766  0.0000  0.0000  0.2841 -0.6310  0.0000  0.0000
   6. Li 1 (s)      0.3745  1.4259  0.0000  0.0000 -0.6310  1.5610  0.0000  0.0000
   7. Li 1 (px)     0.0000  0.0000  0.0000  0.0000  0.0000  0.0000  0.0000  0.0000
   8. Li 1 (py)     0.0000  0.0000  0.0000  0.0000  0.0000  0.0000  0.0000  0.0000
   9. Li 1 (pz)     0.0054 -0.6499  0.0000  0.0000  0.3216 -0.7115  0.0000  0.0000
  10. Li 1 (d1)     0.2075  0.8262  0.0000  0.0000 -0.3578  0.9025  0.0000  0.0000
  11. Li 1 (d4)     0.2075  0.8262  0.0000  0.0000 -0.3578  0.9025  0.0000  0.0000
  12. Li 1 (d6)     0.2072  0.9605  0.0000  0.0000 -0.4303  1.0508  0.0000  0.0000
  13. Li 1 (d2)     0.0000  0.0000  0.0000  0.0000  0.0000  0.0000  0.0000  0.0000
  14. Li 1 (d3)     0.0000  0.0000  0.0000  0.0000  0.0000  0.0000  0.0000  0.0000
  15. Li 1 (d5)     0.0000  0.0000  0.0000  0.0000  0.0000  0.0000  0.0000  0.0000
  16. Li 2 (s)      0.0001  0.0977  0.0000  0.0000 -0.2400  0.1469  0.0000  0.0000
  17. Li 2 (s)      0.0977  1.2839  0.0000  0.0000 -0.6015  1.4030  0.0000  0.0000
  18. Li 2 (px)     0.0000  0.0000  0.0000  0.0000  0.0000  0.0000  0.0000  0.0000
  19. Li 2 (py)     0.0000  0.0000  0.0000  0.0000  0.0000  0.0000  0.0000  0.0000
  20. Li 2 (pz)     0.2400  0.6015  0.0000  0.0000 -0.2536  0.6591  0.0000  0.0000
  21. Li 2 (s)      0.1469  1.4030  0.0000  0.0000 -0.6591  1.5351  0.0000  0.0000
  22. Li 2 (px)     0.0000  0.0000  0.0000  0.0000  0.0000  0.0000  0.0000  0.0000
  23. Li 2 (py)     0.0000  0.0000  0.0000  0.0000  0.0000  0.0000  0.0000  0.0000
  24. Li 2 (pz)     0.2862  0.6792  0.0000  0.0000 -0.2855  0.7447  0.0000  0.0000
  25. Li 2 (d1)    -0.0014  0.8052  0.0000  0.0000 -0.3836  0.8787  0.0000  0.0000
  26. Li 2 (d4)    -0.0014  0.8052  0.0000  0.0000 -0.3836  0.8787  0.0000  0.0000
  27. Li 2 (d6)     0.1204  0.9518  0.0000  0.0000 -0.4410  1.0409  0.0000  0.0000
  28. Li 2 (d2)     0.0000  0.0000  0.0000  0.0000  0.0000  0.0000  0.0000  0.0000
  29. Li 2 (d3)     0.0000  0.0000  0.0000  0.0000  0.0000  0.0000  0.0000  0.0000
  30. Li 2 (d5)     0.0000  0.0000  0.0000  0.0000  0.0000  0.0000  0.0000  0.0000

           AO          9      10      11      12      13      14      15      16
      ------------ ------- ------- ------- ------- ------- ------- ------- -------
   1. Li 1 (s)      0.0054  0.2075  0.2075  0.2072  0.0000  0.0000  0.0000  0.0001
   2. Li 1 (s)     -0.6499  0.8262  0.8262  0.9605  0.0000  0.0000  0.0000  0.0977
   3. Li 1 (px)     0.0000  0.0000  0.0000  0.0000  0.0000  0.0000  0.0000  0.0000
   4. Li 1 (py)     0.0000  0.0000  0.0000  0.0000  0.0000  0.0000  0.0000  0.0000
   5. Li 1 (pz)     0.3216 -0.3578 -0.3578 -0.4303  0.0000  0.0000  0.0000 -0.2400
   6. Li 1 (s)     -0.7115  0.9025  0.9025  1.0508  0.0000  0.0000  0.0000  0.1469
   7. Li 1 (px)     0.0000  0.0000  0.0000  0.0000  0.0000  0.0000  0.0000  0.0000
   8. Li 1 (py)     0.0000  0.0000  0.0000  0.0000  0.0000  0.0000  0.0000  0.0000
   9. Li 1 (pz)     0.3641 -0.4028 -0.4028 -0.4854  0.0000  0.0000  0.0000 -0.2862
  10. Li 1 (d1)    -0.4028  0.5256  0.5256  0.6069  0.0000  0.0000  0.0000 -0.0014
  11. Li 1 (d4)    -0.4028  0.5256  0.5256  0.6069  0.0000  0.0000  0.0000 -0.0014
  12. Li 1 (d6)    -0.4854  0.6069  0.6069  0.7086  0.0000  0.0000  0.0000  0.1204
  13. Li 1 (d2)     0.0000  0.0000  0.0000  0.0000  0.0000  0.0000  0.0000  0.0000
  14. Li 1 (d3)     0.0000  0.0000  0.0000  0.0000  0.0000  0.0000  0.0000  0.0000
  15. Li 1 (d5)     0.0000  0.0000  0.0000  0.0000  0.0000  0.0000  0.0000  0.0000
  16. Li 2 (s)     -0.2862 -0.0014 -0.0014  0.1204  0.0000  0.0000  0.0000  1.9999
  17. Li 2 (s)     -0.6792  0.8052  0.8052  0.9518  0.0000  0.0000  0.0000  0.2990
  18. Li 2 (px)     0.0000  0.0000  0.0000  0.0000  0.0000  0.0000  0.0000  0.0000
  19. Li 2 (py)     0.0000  0.0000  0.0000  0.0000  0.0000  0.0000  0.0000  0.0000
  20. Li 2 (pz)    -0.2855  0.3836  0.3836  0.4410  0.0000  0.0000  0.0000 -0.0071
  21. Li 2 (s)     -0.7447  0.8787  0.8787  1.0409  0.0000  0.0000  0.0000  0.3745
  22. Li 2 (px)     0.0000  0.0000  0.0000  0.0000  0.0000  0.0000  0.0000  0.0000
  23. Li 2 (py)     0.0000  0.0000  0.0000  0.0000  0.0000  0.0000  0.0000  0.0000
  24. Li 2 (pz)    -0.3216  0.4333  0.4333  0.4980  0.0000  0.0000  0.0000 -0.0054
  25. Li 2 (d1)    -0.4333  0.5038  0.5038  0.5978  0.0000  0.0000  0.0000  0.2075
  26. Li 2 (d4)    -0.4333  0.5038  0.5038  0.5978  0.0000  0.0000  0.0000  0.2075
  27. Li 2 (d6)    -0.4980  0.5978  0.5978  0.7049  0.0000  0.0000  0.0000  0.2072
  28. Li 2 (d2)     0.0000  0.0000  0.0000  0.0000  0.0000  0.0000  0.0000  0.0000
  29. Li 2 (d3)     0.0000  0.0000  0.0000  0.0000  0.0000  0.0000  0.0000  0.0000
  30. Li 2 (d5)     0.0000  0.0000  0.0000  0.0000  0.0000  0.0000  0.0000  0.0000

           AO         17      18      19      20      21      22      23      24
      ------------ ------- ------- ------- ------- ------- ------- ------- -------
   1. Li 1 (s)      0.0977  0.0000  0.0000  0.2400  0.1469  0.0000  0.0000  0.2862
   2. Li 1 (s)      1.2839  0.0000  0.0000  0.6015  1.4030  0.0000  0.0000  0.6792
   3. Li 1 (px)     0.0000  0.0000  0.0000  0.0000  0.0000  0.0000  0.0000  0.0000
   4. Li 1 (py)     0.0000  0.0000  0.0000  0.0000  0.0000  0.0000  0.0000  0.0000
   5. Li 1 (pz)    -0.6015  0.0000  0.0000 -0.2536 -0.6591  0.0000  0.0000 -0.2855
   6. Li 1 (s)      1.4030  0.0000  0.0000  0.6591  1.5351  0.0000  0.0000  0.7447
   7. Li 1 (px)     0.0000  0.0000  0.0000  0.0000  0.0000  0.0000  0.0000  0.0000
   8. Li 1 (py)     0.0000  0.0000  0.0000  0.0000  0.0000  0.0000  0.0000  0.0000
   9. Li 1 (pz)    -0.6792  0.0000  0.0000 -0.2855 -0.7447  0.0000  0.0000 -0.3216
  10. Li 1 (d1)     0.8052  0.0000  0.0000  0.3836  0.8787  0.0000  0.0000  0.4333
  11. Li 1 (d4)     0.8052  0.0000  0.0000  0.3836  0.8787  0.0000  0.0000  0.4333
  12. Li 1 (d6)     0.9518  0.0000  0.0000  0.4410  1.0409  0.0000  0.0000  0.4980
  13. Li 1 (d2)     0.0000  0.0000  0.0000  0.0000  0.0000  0.0000  0.0000  0.0000
  14. Li 1 (d3)     0.0000  0.0000  0.0000  0.0000  0.0000  0.0000  0.0000  0.0000
  15. Li 1 (d5)     0.0000  0.0000  0.0000  0.0000  0.0000  0.0000  0.0000  0.0000
  16. Li 2 (s)      0.2990  0.0000  0.0000 -0.0071  0.3745  0.0000  0.0000 -0.0054
  17. Li 2 (s)      1.3042  0.0000  0.0000  0.5766  1.4259  0.0000  0.0000  0.6499
  18. Li 2 (px)     0.0000  0.0000  0.0000  0.0000  0.0000  0.0000  0.0000  0.0000
  19. Li 2 (py)     0.0000  0.0000  0.0000  0.0000  0.0000  0.0000  0.0000  0.0000
  20. Li 2 (pz)     0.5766  0.0000  0.0000  0.2841  0.6310  0.0000  0.0000  0.3216
  21. Li 2 (s)      1.4259  0.0000  0.0000  0.6310  1.5610  0.0000  0.0000  0.7115
  22. Li 2 (px)     0.0000  0.0000  0.0000  0.0000  0.0000  0.0000  0.0000  0.0000
  23. Li 2 (py)     0.0000  0.0000  0.0000  0.0000  0.0000  0.0000  0.0000  0.0000
  24. Li 2 (pz)     0.6499  0.0000  0.0000  0.3216  0.7115  0.0000  0.0000  0.3641
  25. Li 2 (d1)     0.8262  0.0000  0.0000  0.3578  0.9025  0.0000  0.0000  0.4028
  26. Li 2 (d4)     0.8262  0.0000  0.0000  0.3578  0.9025  0.0000  0.0000  0.4028
  27. Li 2 (d6)     0.9605  0.0000  0.0000  0.4303  1.0508  0.0000  0.0000  0.4854
  28. Li 2 (d2)     0.0000  0.0000  0.0000  0.0000  0.0000  0.0000  0.0000  0.0000
  29. Li 2 (d3)     0.0000  0.0000  0.0000  0.0000  0.0000  0.0000  0.0000  0.0000
  30. Li 2 (d5)     0.0000  0.0000  0.0000  0.0000  0.0000  0.0000  0.0000  0.0000

           AO         25      26      27      28      29      30
      ------------ ------- ------- ------- ------- ------- -------
   1. Li 1 (s)     -0.0014 -0.0014  0.1204  0.0000  0.0000  0.0000
   2. Li 1 (s)      0.8052  0.8052  0.9518  0.0000  0.0000  0.0000
   3. Li 1 (px)     0.0000  0.0000  0.0000  0.0000  0.0000  0.0000
   4. Li 1 (py)     0.0000  0.0000  0.0000  0.0000  0.0000  0.0000
   5. Li 1 (pz)    -0.3836 -0.3836 -0.4410  0.0000  0.0000  0.0000
   6. Li 1 (s)      0.8787  0.8787  1.0409  0.0000  0.0000  0.0000
   7. Li 1 (px)     0.0000  0.0000  0.0000  0.0000  0.0000  0.0000
   8. Li 1 (py)     0.0000  0.0000  0.0000  0.0000  0.0000  0.0000
   9. Li 1 (pz)    -0.4333 -0.4333 -0.4980  0.0000  0.0000  0.0000
  10. Li 1 (d1)     0.5038  0.5038  0.5978  0.0000  0.0000  0.0000
  11. Li 1 (d4)     0.5038  0.5038  0.5978  0.0000  0.0000  0.0000
  12. Li 1 (d6)     0.5978  0.5978  0.7049  0.0000  0.0000  0.0000
  13. Li 1 (d2)     0.0000  0.0000  0.0000  0.0000  0.0000  0.0000
  14. Li 1 (d3)     0.0000  0.0000  0.0000  0.0000  0.0000  0.0000
  15. Li 1 (d5)     0.0000  0.0000  0.0000  0.0000  0.0000  0.0000
  16. Li 2 (s)      0.2075  0.2075  0.2072  0.0000  0.0000  0.0000
  17. Li 2 (s)      0.8262  0.8262  0.9605  0.0000  0.0000  0.0000
  18. Li 2 (px)     0.0000  0.0000  0.0000  0.0000  0.0000  0.0000
  19. Li 2 (py)     0.0000  0.0000  0.0000  0.0000  0.0000  0.0000
  20. Li 2 (pz)     0.3578  0.3578  0.4303  0.0000  0.0000  0.0000
  21. Li 2 (s)      0.9025  0.9025  1.0508  0.0000  0.0000  0.0000
  22. Li 2 (px)     0.0000  0.0000  0.0000  0.0000  0.0000  0.0000
  23. Li 2 (py)     0.0000  0.0000  0.0000  0.0000  0.0000  0.0000
  24. Li 2 (pz)     0.4028  0.4028  0.4854  0.0000  0.0000  0.0000
  25. Li 2 (d1)     0.5256  0.5256  0.6069  0.0000  0.0000  0.0000
  26. Li 2 (d4)     0.5256  0.5256  0.6069  0.0000  0.0000  0.0000
  27. Li 2 (d6)     0.6069  0.6069  0.7086  0.0000  0.0000  0.0000
  28. Li 2 (d2)     0.0000  0.0000  0.0000  0.0000  0.0000  0.0000
  29. Li 2 (d3)     0.0000  0.0000  0.0000  0.0000  0.0000  0.0000
  30. Li 2 (d5)     0.0000  0.0000  0.0000  0.0000  0.0000  0.0000


 MO density matrix:

      MO     1       2       3       4       5       6       7       8       9
     ---- ------  ------  ------  ------  ------  ------  ------  ------  ------
   1.     2.0000  0.0000  0.0000  0.0000  0.0000  0.0000  0.0000  0.0000  0.0000
   2.     0.0000  2.0000  0.0000  0.0000  0.0000  0.0000  0.0000  0.0000  0.0000
   3.     0.0000  0.0000  2.0000  0.0000  0.0000  0.0000  0.0000  0.0000  0.0000
   4.     0.0000  0.0000  0.0000  0.0000  0.0000  0.0000  0.0000  0.0000  0.0000
   5.     0.0000  0.0000  0.0000  0.0000  0.0000  0.0000  0.0000  0.0000  0.0000
   6.     0.0000  0.0000  0.0000  0.0000  0.0000  0.0000  0.0000  0.0000  0.0000
   7.     0.0000  0.0000  0.0000  0.0000  0.0000  0.0000  0.0000  0.0000  0.0000
   8.     0.0000  0.0000  0.0000  0.0000  0.0000  0.0000  0.0000  0.0000  0.0000
   9.     0.0000  0.0000  0.0000  0.0000  0.0000  0.0000  0.0000  0.0000  0.0000
  10.     0.0000  0.0000  0.0000  0.0000  0.0000  0.0000  0.0000  0.0000  0.0000
  11.     0.0000  0.0000  0.0000  0.0000  0.0000  0.0000  0.0000  0.0000  0.0000
  12.     0.0000  0.0000  0.0000  0.0000  0.0000  0.0000  0.0000  0.0000  0.0000
  13.     0.0000  0.0000  0.0000  0.0000  0.0000  0.0000  0.0000  0.0000  0.0000
  14.     0.0000  0.0000  0.0000  0.0000  0.0000  0.0000  0.0000  0.0000  0.0000
  15.     0.0000  0.0000  0.0000  0.0000  0.0000  0.0000  0.0000  0.0000  0.0000
  16.     0.0000  0.0000  0.0000  0.0000  0.0000  0.0000  0.0000  0.0000  0.0000
  17.     0.0000  0.0000  0.0000  0.0000  0.0000  0.0000  0.0000  0.0000  0.0000
  18.     0.0000  0.0000  0.0000  0.0000  0.0000  0.0000  0.0000  0.0000  0.0000
  19.     0.0000  0.0000  0.0000  0.0000  0.0000  0.0000  0.0000  0.0000  0.0000
  20.     0.0000  0.0000  0.0000  0.0000  0.0000  0.0000  0.0000  0.0000  0.0000
  21.     0.0000  0.0000  0.0000  0.0000  0.0000  0.0000  0.0000  0.0000  0.0000
  22.     0.0000  0.0000  0.0000  0.0000  0.0000  0.0000  0.0000  0.0000  0.0000
  23.     0.0000  0.0000  0.0000  0.0000  0.0000  0.0000  0.0000  0.0000  0.0000
  24.     0.0000  0.0000  0.0000  0.0000  0.0000  0.0000  0.0000  0.0000  0.0000
  25.     0.0000  0.0000  0.0000  0.0000  0.0000  0.0000  0.0000  0.0000  0.0000
  26.     0.0000  0.0000  0.0000  0.0000  0.0000  0.0000  0.0000  0.0000  0.0000
  27.     0.0000  0.0000  0.0000  0.0000  0.0000  0.0000  0.0000  0.0000  0.0000
  28.     0.0000  0.0000  0.0000  0.0000  0.0000  0.0000  0.0000  0.0000  0.0000
  29.     0.0000  0.0000  0.0000  0.0000  0.0000  0.0000  0.0000  0.0000  0.0000
  30.     0.0000  0.0000  0.0000  0.0000  0.0000  0.0000  0.0000  0.0000  0.0000

      MO    10      11      12      13      14      15      16      17      18
     ---- ------  ------  ------  ------  ------  ------  ------  ------  ------
   1.     0.0000  0.0000  0.0000  0.0000  0.0000  0.0000  0.0000  0.0000  0.0000
   2.     0.0000  0.0000  0.0000  0.0000  0.0000  0.0000  0.0000  0.0000  0.0000
   3.     0.0000  0.0000  0.0000  0.0000  0.0000  0.0000  0.0000  0.0000  0.0000
   4.     0.0000  0.0000  0.0000  0.0000  0.0000  0.0000  0.0000  0.0000  0.0000
   5.     0.0000  0.0000  0.0000  0.0000  0.0000  0.0000  0.0000  0.0000  0.0000
   6.     0.0000  0.0000  0.0000  0.0000  0.0000  0.0000  0.0000  0.0000  0.0000
   7.     0.0000  0.0000  0.0000  0.0000  0.0000  0.0000  0.0000  0.0000  0.0000
   8.     0.0000  0.0000  0.0000  0.0000  0.0000  0.0000  0.0000  0.0000  0.0000
   9.     0.0000  0.0000  0.0000  0.0000  0.0000  0.0000  0.0000  0.0000  0.0000
  10.     0.0000  0.0000  0.0000  0.0000  0.0000  0.0000  0.0000  0.0000  0.0000
  11.     0.0000  0.0000  0.0000  0.0000  0.0000  0.0000  0.0000  0.0000  0.0000
  12.     0.0000  0.0000  0.0000  0.0000  0.0000  0.0000  0.0000  0.0000  0.0000
  13.     0.0000  0.0000  0.0000  0.0000  0.0000  0.0000  0.0000  0.0000  0.0000
  14.     0.0000  0.0000  0.0000  0.0000  0.0000  0.0000  0.0000  0.0000  0.0000
  15.     0.0000  0.0000  0.0000  0.0000  0.0000  0.0000  0.0000  0.0000  0.0000
  16.     0.0000  0.0000  0.0000  0.0000  0.0000  0.0000  0.0000  0.0000  0.0000
  17.     0.0000  0.0000  0.0000  0.0000  0.0000  0.0000  0.0000  0.0000  0.0000
  18.     0.0000  0.0000  0.0000  0.0000  0.0000  0.0000  0.0000  0.0000  0.0000
  19.     0.0000  0.0000  0.0000  0.0000  0.0000  0.0000  0.0000  0.0000  0.0000
  20.     0.0000  0.0000  0.0000  0.0000  0.0000  0.0000  0.0000  0.0000  0.0000
  21.     0.0000  0.0000  0.0000  0.0000  0.0000  0.0000  0.0000  0.0000  0.0000
  22.     0.0000  0.0000  0.0000  0.0000  0.0000  0.0000  0.0000  0.0000  0.0000
  23.     0.0000  0.0000  0.0000  0.0000  0.0000  0.0000  0.0000  0.0000  0.0000
  24.     0.0000  0.0000  0.0000  0.0000  0.0000  0.0000  0.0000  0.0000  0.0000
  25.     0.0000  0.0000  0.0000  0.0000  0.0000  0.0000  0.0000  0.0000  0.0000
  26.     0.0000  0.0000  0.0000  0.0000  0.0000  0.0000  0.0000  0.0000  0.0000
  27.     0.0000  0.0000  0.0000  0.0000  0.0000  0.0000  0.0000  0.0000  0.0000
  28.     0.0000  0.0000  0.0000  0.0000  0.0000  0.0000  0.0000  0.0000  0.0000
  29.     0.0000  0.0000  0.0000  0.0000  0.0000  0.0000  0.0000  0.0000  0.0000
  30.     0.0000  0.0000  0.0000  0.0000  0.0000  0.0000  0.0000  0.0000  0.0000

      MO    19      20      21      22      23      24      25      26      27
     ---- ------  ------  ------  ------  ------  ------  ------  ------  ------
   1.     0.0000  0.0000  0.0000  0.0000  0.0000  0.0000  0.0000  0.0000  0.0000
   2.     0.0000  0.0000  0.0000  0.0000  0.0000  0.0000  0.0000  0.0000  0.0000
   3.     0.0000  0.0000  0.0000  0.0000  0.0000  0.0000  0.0000  0.0000  0.0000
   4.     0.0000  0.0000  0.0000  0.0000  0.0000  0.0000  0.0000  0.0000  0.0000
   5.     0.0000  0.0000  0.0000  0.0000  0.0000  0.0000  0.0000  0.0000  0.0000
   6.     0.0000  0.0000  0.0000  0.0000  0.0000  0.0000  0.0000  0.0000  0.0000
   7.     0.0000  0.0000  0.0000  0.0000  0.0000  0.0000  0.0000  0.0000  0.0000
   8.     0.0000  0.0000  0.0000  0.0000  0.0000  0.0000  0.0000  0.0000  0.0000
   9.     0.0000  0.0000  0.0000  0.0000  0.0000  0.0000  0.0000  0.0000  0.0000
  10.     0.0000  0.0000  0.0000  0.0000  0.0000  0.0000  0.0000  0.0000  0.0000
  11.     0.0000  0.0000  0.0000  0.0000  0.0000  0.0000  0.0000  0.0000  0.0000
  12.     0.0000  0.0000  0.0000  0.0000  0.0000  0.0000  0.0000  0.0000  0.0000
  13.     0.0000  0.0000  0.0000  0.0000  0.0000  0.0000  0.0000  0.0000  0.0000
  14.     0.0000  0.0000  0.0000  0.0000  0.0000  0.0000  0.0000  0.0000  0.0000
  15.     0.0000  0.0000  0.0000  0.0000  0.0000  0.0000  0.0000  0.0000  0.0000
  16.     0.0000  0.0000  0.0000  0.0000  0.0000  0.0000  0.0000  0.0000  0.0000
  17.     0.0000  0.0000  0.0000  0.0000  0.0000  0.0000  0.0000  0.0000  0.0000
  18.     0.0000  0.0000  0.0000  0.0000  0.0000  0.0000  0.0000  0.0000  0.0000
  19.     0.0000  0.0000  0.0000  0.0000  0.0000  0.0000  0.0000  0.0000  0.0000
  20.     0.0000  0.0000  0.0000  0.0000  0.0000  0.0000  0.0000  0.0000  0.0000
  21.     0.0000  0.0000  0.0000  0.0000  0.0000  0.0000  0.0000  0.0000  0.0000
  22.     0.0000  0.0000  0.0000  0.0000  0.0000  0.0000  0.0000  0.0000  0.0000
  23.     0.0000  0.0000  0.0000  0.0000  0.0000  0.0000  0.0000  0.0000  0.0000
  24.     0.0000  0.0000  0.0000  0.0000  0.0000  0.0000  0.0000  0.0000  0.0000
  25.     0.0000  0.0000  0.0000  0.0000  0.0000  0.0000  0.0000  0.0000  0.0000
  26.     0.0000  0.0000  0.0000  0.0000  0.0000  0.0000  0.0000  0.0000  0.0000
  27.     0.0000  0.0000  0.0000  0.0000  0.0000  0.0000  0.0000  0.0000  0.0000
  28.     0.0000  0.0000  0.0000  0.0000  0.0000  0.0000  0.0000  0.0000  0.0000
  29.     0.0000  0.0000  0.0000  0.0000  0.0000  0.0000  0.0000  0.0000  0.0000
  30.     0.0000  0.0000  0.0000  0.0000  0.0000  0.0000  0.0000  0.0000  0.0000

      MO    28      29      30
     ---- ------  ------  ------
   1.     0.0000  0.0000  0.0000
   2.     0.0000  0.0000  0.0000
   3.     0.0000  0.0000  0.0000
   4.     0.0000  0.0000  0.0000
   5.     0.0000  0.0000  0.0000
   6.     0.0000  0.0000  0.0000
   7.     0.0000  0.0000  0.0000
   8.     0.0000  0.0000  0.0000
   9.     0.0000  0.0000  0.0000
  10.     0.0000  0.0000  0.0000
  11.     0.0000  0.0000  0.0000
  12.     0.0000  0.0000  0.0000
  13.     0.0000  0.0000  0.0000
  14.     0.0000  0.0000  0.0000
  15.     0.0000  0.0000  0.0000
  16.     0.0000  0.0000  0.0000
  17.     0.0000  0.0000  0.0000
  18.     0.0000  0.0000  0.0000
  19.     0.0000  0.0000  0.0000
  20.     0.0000  0.0000  0.0000
  21.     0.0000  0.0000  0.0000
  22.     0.0000  0.0000  0.0000
  23.     0.0000  0.0000  0.0000
[...]
  24. Li 2( 2pz)   -0.0264  0.0000  0.0000  0.0000  0.0000  0.0000  0.0016 -0.0037
  25. Li 2( 3pz)    0.0000  0.0000  0.0000  0.0000  0.0000  0.0000  0.0000 -0.0016
  26. Li 2( 3d1)    0.0000  0.0000  0.0000  0.0000  0.0000  0.0000  0.0000  0.0000
  27. Li 2( 3d2)    0.0000  0.0000  0.0000  0.0000  0.0000  0.0000  0.0000  0.0000
  28. Li 2( 3d3)    0.0000  0.0000  0.0000  0.0000  0.0000  0.0000  0.0000  0.0000
  29. Li 2( 3d4)    0.0000  0.0000  0.0000  0.0000  0.0000  0.0000  0.0000  0.0000
  30. Li 2( 3d5)   -0.0016  0.0000  0.0000  0.0000  0.0000  0.0000  0.0001 -0.0006

           NAO        17      18      19      20      21      22      23      24
      ------------ ------- ------- ------- ------- ------- ------- ------- -------
   1. Li 1( 1s )    0.0007 -0.0003 -0.0001  0.0000  0.0000  0.0000  0.0000  0.0005
   2. Li 1( 2s )    0.9735  0.0000  0.0000  0.0000  0.0000  0.0000  0.0000  0.1602
   3. Li 1( 3s )    0.0000  0.0000  0.0000  0.0000  0.0000  0.0000  0.0000  0.0000
   4. Li 1( 4s )    0.0000  0.0000  0.0000  0.0000  0.0000  0.0000  0.0000  0.0000
   5. Li 1( 2px)    0.0000  0.0000  0.0000  0.0000  0.0000  0.0000  0.0000  0.0000
   6. Li 1( 3px)    0.0000  0.0000  0.0000  0.0000  0.0000  0.0000  0.0000  0.0000
   7. Li 1( 2py)    0.0000  0.0000  0.0000  0.0000  0.0000  0.0000  0.0000  0.0000
   8. Li 1( 3py)    0.0000  0.0000  0.0000  0.0000  0.0000  0.0000  0.0000  0.0000
   9. Li 1( 2pz)   -0.1602  0.0000  0.0000  0.0000  0.0000  0.0000  0.0000 -0.0264
  10. Li 1( 3pz)    0.0000  0.0000  0.0000  0.0000  0.0000  0.0000  0.0000  0.0000
  11. Li 1( 3d1)    0.0000  0.0000  0.0000  0.0000  0.0000  0.0000  0.0000  0.0000
  12. Li 1( 3d2)    0.0000  0.0000  0.0000  0.0000  0.0000  0.0000  0.0000  0.0000
  13. Li 1( 3d3)    0.0000  0.0000  0.0000  0.0000  0.0000  0.0000  0.0000  0.0000
  14. Li 1( 3d4)    0.0000  0.0000  0.0000  0.0000  0.0000  0.0000  0.0000  0.0000
  15. Li 1( 3d5)    0.0098  0.0000  0.0000  0.0000  0.0000  0.0000  0.0000  0.0016
  16. Li 2( 1s )   -0.0002 -0.0001  0.0002  0.0000  0.0000  0.0000  0.0000 -0.0037
  17. Li 2( 2s )    0.9735  0.0000  0.0000  0.0000  0.0000  0.0000  0.0000  0.1602
  18. Li 2( 3s )    0.0000  0.0000  0.0000  0.0000  0.0000  0.0000  0.0000  0.0000
  19. Li 2( 4s )    0.0000  0.0000  0.0000  0.0000  0.0000  0.0000  0.0000  0.0000
  20. Li 2( 2px)    0.0000  0.0000  0.0000  0.0000  0.0000  0.0000  0.0000  0.0000
  21. Li 2( 3px)    0.0000  0.0000  0.0000  0.0000  0.0000  0.0000  0.0000  0.0000
  22. Li 2( 2py)    0.0000  0.0000  0.0000  0.0000  0.0000  0.0000  0.0000  0.0000
  23. Li 2( 3py)    0.0000  0.0000  0.0000  0.0000  0.0000  0.0000  0.0000  0.0000
  24. Li 2( 2pz)    0.1602  0.0000  0.0000  0.0000  0.0000  0.0000  0.0000  0.0264
  25. Li 2( 3pz)    0.0000  0.0000  0.0000  0.0000  0.0000  0.0000  0.0000  0.0000
  26. Li 2( 3d1)    0.0000  0.0000  0.0000  0.0000  0.0000  0.0000  0.0000  0.0000
  27. Li 2( 3d2)    0.0000  0.0000  0.0000  0.0000  0.0000  0.0000  0.0000  0.0000
  28. Li 2( 3d3)    0.0000  0.0000  0.0000  0.0000  0.0000  0.0000  0.0000  0.0000
  29. Li 2( 3d4)    0.0000  0.0000  0.0000  0.0000  0.0000  0.0000  0.0000  0.0000
  30. Li 2( 3d5)    0.0098  0.0000  0.0000  0.0000  0.0000  0.0000  0.0000  0.0016

           NAO        25      26      27      28      29      30
      ------------ ------- ------- ------- ------- ------- -------
   1. Li 1( 1s )   -0.0006  0.0000  0.0000  0.0000  0.0000  0.0007
   2. Li 1( 2s )    0.0000  0.0000  0.0000  0.0000  0.0000  0.0098
   3. Li 1( 3s )    0.0000  0.0000  0.0000  0.0000  0.0000  0.0000
   4. Li 1( 4s )    0.0000  0.0000  0.0000  0.0000  0.0000  0.0000
   5. Li 1( 2px)    0.0000  0.0000  0.0000  0.0000  0.0000  0.0000
   6. Li 1( 3px)    0.0000  0.0000  0.0000  0.0000  0.0000  0.0000
   7. Li 1( 2py)    0.0000  0.0000  0.0000  0.0000  0.0000  0.0000
   8. Li 1( 3py)    0.0000  0.0000  0.0000  0.0000  0.0000  0.0000
   9. Li 1( 2pz)    0.0000  0.0000  0.0000  0.0000  0.0000 -0.0016
  10. Li 1( 3pz)    0.0000  0.0000  0.0000  0.0000  0.0000  0.0000
  11. Li 1( 3d1)    0.0000  0.0000  0.0000  0.0000  0.0000  0.0000
  12. Li 1( 3d2)    0.0000  0.0000  0.0000  0.0000  0.0000  0.0000
  13. Li 1( 3d3)    0.0000  0.0000  0.0000  0.0000  0.0000  0.0000
  14. Li 1( 3d4)    0.0000  0.0000  0.0000  0.0000  0.0000  0.0000
  15. Li 1( 3d5)    0.0000  0.0000  0.0000  0.0000  0.0000  0.0001
  16. Li 2( 1s )   -0.0016  0.0000  0.0000  0.0000  0.0000 -0.0006
  17. Li 2( 2s )    0.0000  0.0000  0.0000  0.0000  0.0000  0.0098
  18. Li 2( 3s )    0.0000  0.0000  0.0000  0.0000  0.0000  0.0000
  19. Li 2( 4s )    0.0000  0.0000  0.0000  0.0000  0.0000  0.0000
  20. Li 2( 2px)    0.0000  0.0000  0.0000  0.0000  0.0000  0.0000
  21. Li 2( 3px)    0.0000  0.0000  0.0000  0.0000  0.0000  0.0000
  22. Li 2( 2py)    0.0000  0.0000  0.0000  0.0000  0.0000  0.0000
  23. Li 2( 3py)    0.0000  0.0000  0.0000  0.0000  0.0000  0.0000
  24. Li 2( 2pz)    0.0000  0.0000  0.0000  0.0000  0.0000  0.0016
  25. Li 2( 3pz)    0.0000  0.0000  0.0000  0.0000  0.0000  0.0000
  26. Li 2( 3d1)    0.0000  0.0000  0.0000  0.0000  0.0000  0.0000
  27. Li 2( 3d2)    0.0000  0.0000  0.0000  0.0000  0.0000  0.0000
  28. Li 2( 3d3)    0.0000  0.0000  0.0000  0.0000  0.0000  0.0000
  29. Li 2( 3d4)    0.0000  0.0000  0.0000  0.0000  0.0000  0.0000
  30. Li 2( 3d5)    0.0000  0.0000  0.0000  0.0000  0.0000  0.0001


 NATURAL BOND ORBITAL ANALYSIS:

 Initiate 2-center NBO search using THRESH = 1.900 and PRJTHR = 0.300

 Search of NAO DM block for core orbitals on atom:   1
      Eigenvector ( 1) has occupancy 1.99999
            1.0000 0.0000 0.0000 0.0000 0.0000 0.0000 0.0000 0.0000
            0.0000 0.0000 0.0000 0.0000 0.0000 0.0000 0.0000
        1 eigenvector(s) stashed in permanent list

 Search of NAO DM block for core orbitals on atom:   2
      Eigenvector ( 1) has occupancy 1.99999
            1.0000 0.0000 0.0000 0.0000 0.0000 0.0000 0.0000 0.0000
            0.0000 0.0000 0.0000 0.0000 0.0000 0.0000 0.0000
        1 eigenvector(s) stashed in permanent list

 Core orbitals projected from the NAO density matrix
       2.000 electrons remain (>1.900); search continues

 No NHOs identified in the 1-center search of the NAO density matrix
       2.000 electrons remain (>1.900); search continues

 Search of NAO DM block for the following atom(s):   1   2
      Select eigenvectors with eigenvalue > 1.900
       2.000 0.000 0.000 0.000 0.000 0.000 0.000 0.000 0.000 0.000 0.000 0.000
       0.000 0.000 0.000 0.000 0.000 0.000 0.000 0.000 0.000 0.000 0.000 0.000
       0.000 0.000 0.000 0.000 0.000 0.000
      Eigenvector ( 1) has occupancy 2.00000
            0.0000 0.6977 0.0000 0.0000 0.0000 0.0000 0.0000 0.0000
           -0.1148 0.0000 0.0000 0.0000 0.0000 0.0000 0.0070 0.0000
            0.6977 0.0000 0.0000 0.0000 0.0000 0.0000 0.0000 0.1148
            0.0000 0.0000 0.0000 0.0000 0.0000 0.0070
      1 hybrid on atom 1 stashed in prospective list
      1 hybrid on atom 2 stashed in prospective list

 Stash prospective hybrids having projection expectation value > 0.300
       1.000 1.000
      0 hybrids eliminated in 1 pass
      2 hybrids moved from prospective to permanent list

 NHOs of 2-center eigenvectors projected from the NAO density matrix
       0.000 electrons remain in the fully projected matrix

 Search of NHO DM block for the following atom(s):   1
      Select eigenvectors with eigenvalue > 1.900
       2.000 0.000 0.000 0.000 0.000 0.000 0.000 0.000 0.000 0.000 0.000 0.000
       0.000 0.000 0.000
      Eigenvector ( 1) has occupancy 1.99999
            1.0000 0.0000 0.0000 0.0000 0.0000 0.0000 0.0000 0.0000
            0.0000 0.0000 0.0000 0.0000 0.0000 0.0000 0.0000
           NBO accepted:    1. Label:CR ( 1)   1
        1 eigenvector(s) stashed in permanent list

 Search of NHO DM block for the following atom(s):   2
      Select eigenvectors with eigenvalue > 1.900
       2.000 0.000 0.000 0.000 0.000 0.000 0.000 0.000 0.000 0.000 0.000 0.000
       0.000 0.000 0.000
      Eigenvector ( 1) has occupancy 1.99999
            1.0000 0.0000 0.0000 0.0000 0.0000 0.0000 0.0000 0.0000
            0.0000 0.0000 0.0000 0.0000 0.0000 0.0000 0.0000
           NBO accepted:    2. Label:CR ( 1)   2
        1 eigenvector(s) stashed in permanent list

  1-center NBOs projected from the NHO density matrix
       2.000 electrons remain (>1.900); search continues

 Search of NHO DM block for the following atom(s):   1   2
      Select eigenvectors with eigenvalue > 1.900
       2.000 0.000 0.000 0.000 0.000 0.000 0.000 0.000 0.000 0.000 0.000 0.000
       0.000 0.000 0.000 0.000 0.000 0.000 0.000 0.000 0.000 0.000 0.000 0.000
       0.000 0.000 0.000 0.000 0.000 0.000
      Eigenvector ( 1) has occupancy 2.00000
            0.0000 0.7071 0.0000 0.0000 0.0000 0.0000 0.0000 0.0000
            0.0000 0.0000 0.0000 0.0000 0.0000 0.0000 0.0000 0.0000
            0.7071 0.0000 0.0000 0.0000 0.0000 0.0000 0.0000 0.0000
            0.0000 0.0000 0.0000 0.0000 0.0000 0.0000
      Occupancy is 2.000 after deleting minor hybrid components
            0.0000 0.7071 0.0000 0.0000 0.0000 0.0000 0.0000 0.0000
            0.0000 0.0000 0.0000 0.0000 0.0000 0.0000 0.0000 0.0000
            0.7071 0.0000 0.0000 0.0000 0.0000 0.0000 0.0000 0.0000
            0.0000 0.0000 0.0000 0.0000 0.0000 0.0000
           NBO accepted:    3. Label:BD ( 1)   1   2
      Occupancy is 0.000 for antibonding component
            0.0000 0.7071 0.0000 0.0000 0.0000 0.0000 0.0000 0.0000
            0.0000 0.0000 0.0000 0.0000 0.0000 0.0000 0.0000 0.0000
           -0.7071 0.0000 0.0000 0.0000 0.0000 0.0000 0.0000 0.0000
            0.0000 0.0000 0.0000 0.0000 0.0000 0.0000
           NBO accepted:    4. Label:BD*( 1)   1   2
        2 eigenvector(s) stashed in permanent list

  2-center NBOs projected from the NHO density matrix
       0.000 electrons remain in the fully projected matrix

                            Occupancies       Lewis Structure    Low   High
         Max    Occ     -------------------  -----------------   occ   occ
  Cycle  Ctr   Thresh    Lewis   non-Lewis     CR  BD  nC  LP    (L)   (NL)
 ============================================================================
    1     2     1.90     5.99998   0.00002      2   1   0   0     0      0
 ----------------------------------------------------------------------------

 Structure accepted: No low occupancy Lewis orbitals

 -------------------------------------------------------
   Core                      3.99998 (100.000% of   4)
   Valence Lewis             2.00000 (100.000% of   2)
  ==================      =============================
   Total Lewis               5.99998 (100.000% of   6)
  -----------------------------------------------------
   Valence non-Lewis         0.00000 (  0.000% of   6)
   Rydberg non-Lewis         0.00002 (  0.000% of   6)
  ==================      =============================
   Total non-Lewis           0.00002 (  0.000% of   6)
 -------------------------------------------------------


     (Occupancy)   Bond orbital / Coefficients / Hybrids
 ------------------ Lewis ------------------------------------------------------
   1. (1.99999) CR ( 1)Li  1            s(100.00%)
                                         1.0000  0.0000  0.0000  0.0000  0.0000
                                         0.0000  0.0000  0.0000  0.0000  0.0000
                                         0.0000  0.0000  0.0000  0.0000  0.0000
   2. (1.99999) CR ( 1)Li  2            s(100.00%)
                                         1.0000  0.0000  0.0000  0.0000  0.0000
                                         0.0000  0.0000  0.0000  0.0000  0.0000
                                         0.0000  0.0000  0.0000  0.0000  0.0000
   3. (2.00000) BD ( 1)Li  1-Li  2
               ( 50.00%)   0.7071*Li  1 s( 97.35%)p 0.03(  2.64%)d 0.00(  0.01%)
                                         0.0000  0.9867  0.0000  0.0000  0.0000
                                         0.0000  0.0000  0.0000 -0.1624  0.0000
                                         0.0000  0.0000  0.0000  0.0000  0.0099
               ( 50.00%)   0.7071*Li  2 s( 97.35%)p 0.03(  2.64%)d 0.00(  0.01%)
                                         0.0000  0.9867  0.0000  0.0000  0.0000
                                         0.0000  0.0000  0.0000  0.1624  0.0000
                                         0.0000  0.0000  0.0000  0.0000  0.0099
 ---------------- non-Lewis ----------------------------------------------------
   4. (0.00000) BD*( 1)Li  1-Li  2
               ( 50.00%)   0.7071*Li  1 s( 97.35%)p 0.03(  2.64%)d 0.00(  0.01%)
               ( 50.00%)  -0.7071*Li  2 s( 97.35%)p 0.03(  2.64%)d 0.00(  0.01%)
   5. (0.00001) RY ( 1)Li  1            s(  2.56%)p37.14( 94.90%)d 1.00(  2.55%)
   6. (0.00000) RY ( 2)Li  1            s( 45.16%)p 0.51( 23.25%)d 0.70( 31.60%)
   7. (0.00000) RY ( 3)Li  1            s( 74.84%)p 0.07(  5.19%)d 0.27( 19.97%)
   8. (0.00000) RY ( 4)Li  1            s(  0.06%)p 0.01(  0.00%)d99.99( 99.94%)
   9. (0.00000) RY ( 5)Li  1            s(  0.00%)p 1.00(100.00%)d 0.00(  0.00%)
  10. (0.00000) RY ( 6)Li  1            s(  0.00%)p 0.00(  0.00%)d 1.00(100.00%)
  11. (0.00000) RY ( 7)Li  1            s(  0.00%)p 0.00(  0.00%)d 1.00(100.00%)
  12. (0.00000) RY ( 8)Li  1            s(  0.00%)p 1.00( 52.65%)d 0.90( 47.35%)
  13. (0.00000) RY ( 9)Li  1            s(  0.00%)p 1.00( 50.68%)d 0.97( 49.32%)
  14. (0.00000) RY (10)Li  1            s(  0.00%)p 1.00( 97.84%)d 0.02(  2.16%)
  15. (0.00000) RY (11)Li  1            s(  0.00%)p 1.00( 98.84%)d 0.01(  1.16%)
  16. (0.00000) RY (12)Li  1            s( 72.49%)p 0.32( 23.34%)d 0.06(  4.18%)
  17. (0.00000) RY (13)Li  1            s(  7.55%)p 6.71( 50.69%)d 5.53( 41.76%)
  18. (0.00001) RY ( 1)Li  2            s(  2.56%)p37.14( 94.90%)d 1.00(  2.55%)
  19. (0.00000) RY ( 2)Li  2            s( 46.01%)p 0.49( 22.34%)d 0.69( 31.65%)
  20. (0.00000) RY ( 3)Li  2            s(  0.50%)p 0.24(  0.12%)d99.99( 99.38%)
  21. (0.00000) RY ( 4)Li  2            s(  0.00%)p 1.00(100.00%)
  22. (0.00000) RY ( 5)Li  2            s(  0.00%)p 1.00( 94.13%)d 0.06(  5.87%)
  23. (0.00000) RY ( 6)Li  2            s(  0.00%)p 1.00( 94.06%)d 0.06(  5.94%)
  24. (0.00000) RY ( 7)Li  2            s(  0.00%)p 1.00( 48.65%)d 1.06( 51.35%)
  25. (0.00000) RY ( 8)Li  2            s(  0.00%)p 0.00(  0.00%)d 1.00(100.00%)
  26. (0.00000) RY ( 9)Li  2            s(  0.00%)p 0.00(  0.00%)d 1.00(100.00%)
  27. (0.00000) RY (10)Li  2            s(  0.00%)p 1.00( 63.16%)d 0.58( 36.84%)
  28. (0.00000) RY (11)Li  2            s( 83.27%)p 0.02(  1.77%)d 0.18( 14.96%)
  29. (0.00000) RY (12)Li  2            s( 62.76%)p 0.44( 27.55%)d 0.15(  9.69%)
  30. (0.00000) RY (13)Li  2            s(  7.55%)p 6.71( 50.69%)d 5.53( 41.76%)


 NHO DIRECTIONALITY AND BOND BENDING (deviation from line of nuclear centers at
                                      the position of maximum hybrid amplitude)

         [Thresholds for printing:  angular deviation  >  1.0 degree]
                                    p- or d-character  > 25.0%
                                    orbital occupancy  >  0.10e

                        Line of Centers        Hybrid 1             Hybrid 2
                        ---------------  -------------------  ------------------
           NBO            Theta   Phi    Theta   Phi    Dev   Theta   Phi    Dev
 ===============================================================================
    None exceeding thresholds


 SECOND ORDER PERTURBATION THEORY ANALYSIS OF FOCK MATRIX IN NBO BASIS

     Threshold for printing:   0.50 kcal/mol
                                                          E(2) E(NL)-E(L) F(L,NL)
      Donor (L) NBO              Acceptor (NL) NBO      kcal/mol   a.u.    a.u.
 ===============================================================================

 within unit  1
       None above threshold


 NATURAL BOND ORBITALS (Summary):

                                                     Principal Delocalizations
           NBO                 Occupancy    Energy   (geminal,vicinal,remote)
 ===============================================================================
 Molecular unit  1  (Li2)
 ------ Lewis --------------------------------------
    1. CR ( 1)Li  1             1.99999    -2.44279
    2. CR ( 1)Li  2             1.99999    -2.44279
    3. BD ( 1)Li  1-Li  2       2.00000    -0.17801
 ------ non-Lewis ----------------------------------
    4. BD*( 1)Li  1-Li  2       0.00000     0.05885
    5. RY ( 1)Li  1             0.00001     0.34333
    6. RY ( 2)Li  1             0.00000     0.78100
    7. RY ( 3)Li  1             0.00000     0.32217
    8. RY ( 4)Li  1             0.00000     0.59524
    9. RY ( 5)Li  1             0.00000     0.15813
   10. RY ( 6)Li  1             0.00000     0.62914
   11. RY ( 7)Li  1             0.00000     0.65285
   12. RY ( 8)Li  1             0.00000     0.35492
   13. RY ( 9)Li  1             0.00000     0.41601
   14. RY (10)Li  1             0.00000     0.15939
   15. RY (11)Li  1             0.00000     0.15030
   16. RY (12)Li  1             0.00000     0.78642
   17. RY (13)Li  1             0.00000     0.63954
   18. RY ( 1)Li  2             0.00001     0.34333
   19. RY ( 2)Li  2             0.00000     0.80362
   20. RY ( 3)Li  2             0.00000     0.59611
   21. RY ( 4)Li  2             0.00000     0.15813
   22. RY ( 5)Li  2             0.00000     0.17445
   23. RY ( 6)Li  2             0.00000     0.22597
   24. RY ( 7)Li  2             0.00000     0.39879
   25. RY ( 8)Li  2             0.00000     0.60358
   26. RY ( 9)Li  2             0.00000     0.65249
   27. RY (10)Li  2             0.00000     0.30733
   28. RY (11)Li  2             0.00000     0.41097
   29. RY (12)Li  2             0.00000     0.67412
   30. RY (13)Li  2             0.00000     0.63954
          -------------------------------
                 Total Lewis    5.99998  ( 99.9997%)
           Valence non-Lewis    0.00000  (  0.0000%)
           Rydberg non-Lewis    0.00002  (  0.0003%)
          -------------------------------
               Total unit  1    6.00000  (100.0000%)
              Charge unit  1    0.00000

 $CHOOSE
   BOND S 1 2 END
 $END

 NBO analysis completed in 0.25 CPU seconds (0 wall seconds)
 Maximum scratch memory used by NBO was 329680 words (2.52 MB)
 Maximum scratch memory used by G16NBO was 9607 words (0.07 MB)

 Opening RunExU unformatted file "/cluster/work/users/beto93/LiLi/Gau-1631718.EUF"
 Read unf file /cluster/work/users/beto93/LiLi/Gau-1631718.EUF:
 Label Gaussian matrix elements                                         IVers= 2 NLab= 2 Version=ES64L-G16RevC.01
 Title NBO-a                                                           
 NAtoms=     2 NBasis=    30 NBsUse=    30 ICharg=     0 Multip=     1 NE=     6 Len12L=8 Len4L=8 IOpCl= 0 ICGU=111
 GAUSSIAN SCALARS                    NI= 1 NR= 1 NTot=       1 LenBuf=    2 NRI=1 N=    1000
 NPA CHARGES                         NI= 0 NR= 1 NTot=       2 LenBuf= 4000 NRI=1 N=       2
 Recovered energy= -14.8665653334     dipole=     -0.000000000000      0.000000000000      0.000000000000
 Unable to Open any file for archive entry.
 1\1\GINC-C1-38\SP\RHF\6-31G(d)\Li2\BETO93\24-Jul-2024\0\\#RHF/6-31G* P
 op=NBO7Read\\NBO-a\\0,1\Li,0,0.,0.,-0.000212\Li,0,0.,0.,2.696212\\Vers
 ion=ES64L-G16RevC.01\State=1-SGG\HF=-14.8665653\RMSD=2.186e-09\Dipole=
 0.,0.,0.\Quadrupole=-3.1160809,-3.1160809,6.2321618,0.,0.,0.\PG=D*H [C
 *(Li1.Li1)]\\@
 The archive entry for this job was punched.


 In the race for quality, there is no finish line.
                               -- David T. Kearns
 Job cpu time:       0 days  0 hours  0 minutes 11.5 seconds.
 Elapsed time:       0 days  0 hours  0 minutes  3.8 seconds.
 File lengths (MBytes):  RWF=     10 Int=      0 D2E=      0 Chk=      1 Scr=      1
 Normal termination of Gaussian 16 at Wed Jul 24 12:08:04 2024.
