 Entering Gaussian System, Link 0=g16
 Initial command:
 /cluster/software/Gaussian/g16_C.01/l1.exe "/cluster/work/users/beto93/LiBeH/Gau-1553540.inp" -scrdir="/cluster/work/users/beto93/LiBeH/"
 Entering Link 1 = /cluster/software/Gaussian/g16_C.01/l1.exe PID=   1553547.
  
 Copyright (c) 1988-2019, Gaussian, Inc.  All Rights Reserved.
  
 This is part of the Gaussian(R) 16 program.  It is based on
 the Gaussian(R) 09 system (copyright 2009, Gaussian, Inc.),
 the Gaussian(R) 03 system (copyright 2003, Gaussian, Inc.),
 the Gaussian(R) 98 system (copyright 1998, Gaussian, Inc.),
 the Gaussian(R) 94 system (copyright 1995, Gaussian, Inc.),
 the Gaussian 92(TM) system (copyright 1992, Gaussian, Inc.),
 the Gaussian 90(TM) system (copyright 1990, Gaussian, Inc.),
 the Gaussian 88(TM) system (copyright 1988, Gaussian, Inc.),
 the Gaussian 86(TM) system (copyright 1986, Carnegie Mellon
 University), and the Gaussian 82(TM) system (copyright 1983,
 Carnegie Mellon University). Gaussian is a federally registered
 trademark of Gaussian, Inc.
  
 This software contains proprietary and confidential information,
 including trade secrets, belonging to Gaussian, Inc.
  
 This software is provided under written license and may be
 used, copied, transmitted, or stored only in accord with that
 written license.
  
 The following legend is applicable only to US Government
 contracts under FAR:
  
                    RESTRICTED RIGHTS LEGEND
  
 Use, reproduction and disclosure by the US Government is
 subject to restrictions as set forth in subparagraphs (a)
 and (c) of the Commercial Computer Software - Restricted
 Rights clause in FAR 52.227-19.
  
 Gaussian, Inc.
 340 Quinnipiac St., Bldg. 40, Wallingford CT 06492
  
  
 ---------------------------------------------------------------
 Warning -- This program may not be used in any manner that
 competes with the business of Gaussian, Inc. or will provide
 assistance to any competitor of Gaussian, Inc.  The licensee
 of this program is prohibited from giving any competitor of
 Gaussian, Inc. access to this program.  By using this program,
 the user acknowledges that Gaussian, Inc. is engaged in the
 business of creating and licensing software in the field of
 computational chemistry and represents and warrants to the
 licensee that it is not a competitor of Gaussian, Inc. and that
 it will not use this program in any manner prohibited above.
 ---------------------------------------------------------------
  

 Cite this work as:
 Gaussian 16, Revision C.01,
 M. J. Frisch, G. W. Trucks, H. B. Schlegel, G. E. Scuseria, 
 M. A. Robb, J. R. Cheeseman, G. Scalmani, V. Barone, 
 G. A. Petersson, H. Nakatsuji, X. Li, M. Caricato, A. V. Marenich, 
 J. Bloino, B. G. Janesko, R. Gomperts, B. Mennucci, H. P. Hratchian, 
 J. V. Ortiz, A. F. Izmaylov, J. L. Sonnenberg, D. Williams-Young, 
 F. Ding, F. Lipparini, F. Egidi, J. Goings, B. Peng, A. Petrone, 
 T. Henderson, D. Ranasinghe, V. G. Zakrzewski, J. Gao, N. Rega, 
 G. Zheng, W. Liang, M. Hada, M. Ehara, K. Toyota, R. Fukuda, 
 J. Hasegawa, M. Ishida, T. Nakajima, Y. Honda, O. Kitao, H. Nakai, 
 T. Vreven, K. Throssell, J. A. Montgomery, Jr., J. E. Peralta, 
 F. Ogliaro, M. J. Bearpark, J. J. Heyd, E. N. Brothers, K. N. Kudin, 
 V. N. Staroverov, T. A. Keith, R. Kobayashi, J. Normand, 
 K. Raghavachari, A. P. Rendell, J. C. Burant, S. S. Iyengar, 
 J. Tomasi, M. Cossi, J. M. Millam, M. Klene, C. Adamo, R. Cammi, 
 J. W. Ochterski, R. L. Martin, K. Morokuma, O. Farkas, 
 J. B. Foresman, and D. J. Fox, Gaussian, Inc., Wallingford CT, 2019.
 
 ******************************************
 Gaussian 16:  ES64L-G16RevC.01  3-Jul-2019
                24-Jul-2024 
 ******************************************
 %LindaWorkers=c1-1-ib
 %NProcShared=4
 Will use up to    4 processors via shared memory.
 %mem=25GB
 %chk=LiBeH.chk
 SetLPE:    new flags="-opt 'Tsnet.Node.lindarsharg: ssh'  -nodelist 'c1-1-ib.saga' -env GAUSS_MDEF=3355443200 -env GAUSS_EXEDIR="/cluster/software/Gaussian/g16_C.01/bsd:/cluster/software/Gaussian/g16_C.01""
 Will use up to    1 processors via Linda.
 ----------------------------------------------------
 #OPT=VeryTight Int=UltraFine RHF/STO-3G Pop=NBO7Read
 ----------------------------------------------------
 1/7=1,18=20,19=15,38=1,163=2/1,3;
 2/9=110,12=2,17=6,18=5,40=1/2;
 3/6=3,11=1,25=1,30=1,71=1,75=-5,116=1/1,2,3;
 4//1;
 5/5=2,38=5/2;
 6/7=2,8=2,9=2,10=2,28=1,40=2,113=1,114=1,124=2103/1,12;
 7//1,2,3,16;
 1/7=1,18=20,19=15/3(2);
 2/9=110/2;
 99//99;
 2/9=110/2;
 3/6=3,11=1,25=1,30=1,71=1,75=-5,116=1/1,2,3;
 4/5=5,16=3,69=1/1;
 5/5=2,38=5/2;
 7//1,2,3,16;
 1/7=1,18=20,19=15/3(-5);
 2/9=110/2;
 6/7=2,8=2,9=2,10=2,19=2,28=1,40=2,113=1,114=1,124=2103/1,12;
 99/9=1/99;
 ---------
 NBO-LiBeH
 ---------
 Symbolic Z-matrix:
 Charge =  0 Multiplicity = 1
 Be                    0.        0.        0. 
 Li                    0.        0.        2.384 
 H                     0.        0.       -1.3 
 

 GradGradGradGradGradGradGradGradGradGradGradGradGradGradGradGradGradGrad
 Berny optimization.
 Initialization pass.
                           ----------------------------
                           !    Initial Parameters    !
                           ! (Angstroms and Degrees)  !
 --------------------------                            --------------------------
 ! Name  Definition              Value          Derivative Info.                !
 --------------------------------------------------------------------------------
 ! R1    R(1,2)                  2.384          estimate D2E/DX2                !
 ! R2    R(1,3)                  1.3            estimate D2E/DX2                !
 ! A1    L(2,1,3,-1,-1)        180.0            estimate D2E/DX2                !
 ! A2    L(2,1,3,-2,-2)        180.0            estimate D2E/DX2                !
 --------------------------------------------------------------------------------
 Trust Radius=3.00D-01 FncErr=1.00D-07 GrdErr=1.00D-07 EigMax=2.50D+02 EigMin=1.00D-04
 Number of steps in this run=     20 maximum allowed number of steps=    100.
 GradGradGradGradGradGradGradGradGradGradGradGradGradGradGradGradGradGrad

                          Input orientation:                          
 ---------------------------------------------------------------------
 Center     Atomic      Atomic             Coordinates (Angstroms)
 Number     Number       Type             X           Y           Z
 ---------------------------------------------------------------------
      1          4           0        0.000000    0.000000    0.000000
      2          3           0        0.000000    0.000000    2.384000
      3          1           0        0.000000    0.000000   -1.300000
 ---------------------------------------------------------------------
                    Distance matrix (angstroms):
                    1          2          3
     1  Be   0.000000
     2  Li   2.384000   0.000000
     3  H    1.300000   3.684000   0.000000
 Stoichiometry    BeHLi
 Framework group  C*V[C*(LiBeH)]
 Deg. of freedom     2
 Full point group                 C*V     NOp   4
 Largest Abelian subgroup         C2V     NOp   4
 Largest concise Abelian subgroup C1      NOp   1
                         Standard orientation:                         
 ---------------------------------------------------------------------
 Center     Atomic      Atomic             Coordinates (Angstroms)
 Number     Number       Type             X           Y           Z
 ---------------------------------------------------------------------
      1          4           0        0.000000    0.000000    0.731500
      2          3           0        0.000000    0.000000   -1.652500
      3          1           0        0.000000    0.000000    2.031500
 ---------------------------------------------------------------------
 Rotational constants (GHZ):           0.0000000          18.2920319          18.2920319
 Standard basis: STO-3G (5D, 7F)
 There are     7 symmetry adapted cartesian basis functions of A1  symmetry.
 There are     0 symmetry adapted cartesian basis functions of A2  symmetry.
 There are     2 symmetry adapted cartesian basis functions of B1  symmetry.
 There are     2 symmetry adapted cartesian basis functions of B2  symmetry.
 There are     7 symmetry adapted basis functions of A1  symmetry.
 There are     0 symmetry adapted basis functions of A2  symmetry.
 There are     2 symmetry adapted basis functions of B1  symmetry.
 There are     2 symmetry adapted basis functions of B2  symmetry.
    11 basis functions,    33 primitive gaussians,    11 cartesian basis functions
     4 alpha electrons        4 beta electrons
       nuclear repulsion energy         4.7228073187 Hartrees.
 NAtoms=    3 NActive=    3 NUniq=    3 SFac= 1.00D+00 NAtFMM=   60 NAOKFM=F Big=F
 Integral buffers will be    131072 words long.
 Raffenetti 1 integral format.
 Two-electron integral symmetry is turned on.
 One-electron integrals computed using PRISM.
 NBasis=    11 RedAO= T EigKep=  2.35D-01  NBF=     7     0     2     2
 NBsUse=    11 1.00D-06 EigRej= -1.00D+00 NBFU=     7     0     2     2
 ExpMin= 4.81D-02 ExpMax= 3.02D+01 ExpMxC= 3.02D+01 IAcc=3 IRadAn=         5 AccDes= 0.00D+00
 Harris functional with IExCor=  205 and IRadAn=       5 diagonalized for initial guess.
 HarFok:  IExCor=  205 AccDes= 0.00D+00 IRadAn=         5 IDoV= 1 UseB2=F ITyADJ=14
 ICtDFT=  3500011 ScaDFX=  1.000000  1.000000  1.000000  1.000000
 FoFCou: FMM=F IPFlag=           0 FMFlag=      100000 FMFlg1=           0
         NFxFlg=           0 DoJE=T BraDBF=F KetDBF=T FulRan=T
         wScrn=  0.000000 ICntrl=       500 IOpCl=  0 I1Cent=   200000004 NGrid=           0
         NMat0=    1 NMatS0=      1 NMatT0=    0 NMatD0=    1 NMtDS0=    0 NMtDT0=    0
 Petite list used in FoFCou.
 Initial guess orbital symmetries:
       Occupied  (SG) (SG) (SG) (SG)
       Virtual   (PI) (PI) (SG) (PI) (PI) (SG) (SG)
 The electronic state of the initial guess is 1-SG.
 Keep R1 ints in memory in symmetry-blocked form, NReq=806001.
 Requested convergence on RMS density matrix=1.00D-08 within 128 cycles.
 Requested convergence on MAX density matrix=1.00D-06.
 Requested convergence on             energy=1.00D-06.
 No special actions if energy rises.
 SCF Done:  E(RHF) =  -22.2971876382     A.U. after   10 cycles
            NFock= 10  Conv=0.11D-08     -V/T= 1.9901

 **********************************************************************

            Population analysis using the SCF Density.

 **********************************************************************

 Orbital symmetries:
       Occupied  (SG) (SG) (SG) (SG)
       Virtual   (SG) (PI) (PI) (PI) (PI) (SG) (SG)
 The electronic state is 1-SG.
 Alpha  occ. eigenvalues --   -4.48944  -2.32844  -0.41519  -0.20787
 Alpha virt. eigenvalues --    0.09538   0.14237   0.14237   0.29260   0.29260
 Alpha virt. eigenvalues --    0.43526   0.79353
          Condensed to atoms (all electrons):
               1          2          3
     1  Be   3.021462   0.387774   0.408793
     2  Li   0.387774   2.728241  -0.010518
     3  H    0.408793  -0.010518   0.678199
 Mulliken charges:
               1
     1  Be   0.181970
     2  Li  -0.105497
     3  H   -0.076474
 Sum of Mulliken charges =  -0.00000
 Mulliken charges with hydrogens summed into heavy atoms:
               1
     1  Be   0.105497
     2  Li  -0.105497
 Electronic spatial extent (au):  <R**2>=             70.8809
 Charge=             -0.0000 electrons
 Dipole moment (field-independent basis, Debye):
    X=              0.0000    Y=              0.0000    Z=             -3.8585  Tot=              3.8585
 Quadrupole moment (field-independent basis, Debye-Ang):
   XX=            -10.8237   YY=            -10.8237   ZZ=             -4.2373
   XY=              0.0000   XZ=              0.0000   YZ=              0.0000
 Traceless Quadrupole moment (field-independent basis, Debye-Ang):
   XX=             -2.1954   YY=             -2.1954   ZZ=              4.3909
   XY=              0.0000   XZ=              0.0000   YZ=              0.0000
 Octapole moment (field-independent basis, Debye-Ang**2):
  XXX=              0.0000  YYY=              0.0000  ZZZ=            -31.8450  XYY=              0.0000
  XXY=              0.0000  XXZ=              0.2835  XZZ=              0.0000  YZZ=              0.0000
  YYZ=              0.2835  XYZ=              0.0000
 Hexadecapole moment (field-independent basis, Debye-Ang**3):
 XXXX=            -24.4735 YYYY=            -24.4735 ZZZZ=            -68.5850 XXXY=              0.0000
 XXXZ=              0.0000 YYYX=              0.0000 YYYZ=              0.0000 ZZZX=              0.0000
 ZZZY=              0.0000 XXYY=             -8.1578 XXZZ=            -20.1504 YYZZ=            -20.1504
 XXYZ=              0.0000 YYXZ=              0.0000 ZZXY=              0.0000
 N-N= 4.722807318713D+00 E-N=-6.167907223919D+01  KE= 2.252095969704D+01
 Symmetry A1   KE= 2.252095969704D+01
 Symmetry A2   KE= 0.000000000000D+00
 Symmetry B1   KE= 0.000000000000D+00
 Symmetry B2   KE= 0.000000000000D+00
 Running external command "gaunbo7 R"
         input file       "/cluster/work/users/beto93/LiBeH/Gau-1553547.EIn"
         output file      "/cluster/work/users/beto93/LiBeH/Gau-1553547.EOu"
         message file     "/cluster/work/users/beto93/LiBeH/Gau-1553547.EMs"
         fchk file        "/cluster/work/users/beto93/LiBeH/Gau-1553547.EFC"
         mat. el file     "/cluster/work/users/beto93/LiBeH/Gau-1553547.EUF"

 Writing WrtUnf unformatted file "/cluster/work/users/beto93/LiBeH/Gau-1553547.EUF"
 Gaussian matrix elements                                         Version   2 NLab=11 Len12L=8 Len4L=8
 Write SHELL TO ATOM MAP                   from file      0 offset           0 length                   5 to matrix element file.
 Write SHELL TYPES                         from file      0 offset           0 length                   5 to matrix element file.
 Write NUMBER OF PRIMITIVES PER SHELL      from file      0 offset           0 length                   5 to matrix element file.
 Write PRIMITIVE EXPONENTS                 from file      0 offset           0 length                  15 to matrix element file.
 Write CONTRACTION COEFFICIENTS            from file      0 offset           0 length                  15 to matrix element file.
 Write P(S=P) CONTRACTION COEFFICIENTS     from file      0 offset           0 length                  15 to matrix element file.
 Write COORDINATES OF EACH SHELL           from file      0 offset           0 length                  15 to matrix element file.
 Write BONDS PER ATOM                      from file      0 offset           0 length                   3 to matrix element file.
 Write BONDED ATOMS                        from file      0 offset           0 length                   4 to matrix element file.
 Write BOND TYPES                          from file      0 offset           0 length                   4 to matrix element file.
 Write ONIOM CHARGE/MULT                   from file      0 offset           0 length                  32 to matrix element file.
 Write ONIOM ATOM LAYERS                   from file      0 offset           0 length                   3 to matrix element file.
 Write ONIOM ATOM MODIFIERS                from file      0 offset           0 length                   3 to matrix element file.
 Write ONIOM ATOM TYPES                    from file      0 offset           0 length                   3 to matrix element file.
 Write ONIOM LINK ATOMS                    from file      0 offset           0 length                   3 to matrix element file.
 Write ONIOM LINK CHARGES                  from file      0 offset           0 length                   3 to matrix element file.
 Write ONIOM LINK DISTANCES                from file      0 offset           0 length                  12 to matrix element file.
 Write SYMINF INTS                         from file      0 offset           0 length                  26 to matrix element file.
 Write ROTTR TO SO                         from file      0 offset           0 length                  12 to matrix element file.
 Write GAUSSIAN SCALARS                    from file    501 offset           0 to matrix element file.
 Write OPTIMIZATION FLAGS                  from file      0 offset           0 length                   3 to matrix element file.
 Write INTEGER ISO                         from file      0 offset           0 length                   3 to matrix element file.
 Write INTEGER SPIN                        from file      0 offset           0 length                   3 to matrix element file.
 Write REAL ZEFFECTIVE                     from file      0 offset           0 length                   3 to matrix element file.
 Write REAL QUADRUPOLEMOMENT               from file      0 offset           0 length                   3 to matrix element file.
 Write REAL GFACTOR                        from file      0 offset           0 length                   3 to matrix element file.
 Write REAL ZNUCLEAR                       from file      0 offset           0 length                   3 to matrix element file.
 Write MULLIKEN CHARGES                    from file      0 offset           0 length                   3 to matrix element file.
 Write NUCLEAR GRADIENT                    from file  10584 offset           0 length                   9 to matrix element file.
 Array NUCLEAR FORCE CONSTANTS              on  file  10585 does not exist.
 Write ELECTRIC DIPOLE MOMENT              from file      0 offset           0 length                   3 to matrix element file.
 Write NON-ADIABATIC COUPLING              from file  10810 offset           0 length                   9 to matrix element file.
 Write RED INT COORD DIMS                  from file      0 offset           0 length                   4 to matrix element file.
 Write RED INT COORD ATOMS                 from file      0 offset           0 length                  16 to matrix element file.
 Write RED INT COORD VALS                  from file      0 offset           0 length                   4 to matrix element file.
 Write RED INT COORD IFLAGS                from file      0 offset           0 length                   4 to matrix element file.
 Write RED INT COORD RFLAGS                from file      0 offset           0 length                   4 to matrix element file.
 Write RED INT COORD CONSTRAINT            from file      0 offset           0 length                   8 to matrix element file.
 Write FINITE EM FIELD                     from file  10521 offset           0 length                  35 to matrix element file.
 Write OVERLAP                             from file  10514 offset           0 length                  66 to matrix element file.
 Write CORE HAMILTONIAN ALPHA              from file  10515 offset           0 length                  66 to matrix element file.
 Write CORE HAMILTONIAN BETA               from file  10515 offset          66 length                  66 to matrix element file.
 Write KINETIC ENERGY                      from file  10516 offset           0 length                  66 to matrix element file.
 Write ORTHOGONAL BASIS                    from file  10685 offset           0 length                 121 to matrix element file.
 Write DIPOLE INTEGRALS                    from file  10518 offset           0 length                 198 to matrix element file.
 Array DIP VEL INTEGRALS                    on  file  10572 does not exist.
 Array R X DEL INTEGRALS                    on  file  10572 does not exist.
 Write ALPHA ORBITAL ENERGIES              from file      0 offset           0 length                  11 to matrix element file.
 Write ALPHA MO COEFFICIENTS               from file  10524 offset           0 length                 121 to matrix element file.
 Write ALPHA DENSITY MATRIX                from file      0 offset           0 length                  66 to matrix element file.
 Write ALPHA FOCK MATRIX                   from file  10536 offset           0 length                  66 to matrix element file.
 Write ENERGY-WEIGHTED DENSITY             from file  10571 offset           0 length                  66 to matrix element file.
 Write ALPHA SCF DENSITY MATRIX            from file      0 offset           0 length                  66 to matrix element file.
 No 2e integrals to process.
 Perform NBO analysis...executing G16NBO...

 *********************************** NBO 7.0 ***********************************
             N A T U R A L   A T O M I C   O R B I T A L   A N D
          N A T U R A L   B O N D   O R B I T A L   A N A L Y S I S
 **************************** Espen Tangen (S101595) ***************************
  (c) Copyright 1996-2021 Board of Regents of the University of Wisconsin System
      on behalf of the Theoretical Chemistry Institute.  All rights reserved.

          Cite this program [NBO 7.0.10 (8-Feb-2021)] as:

          NBO 7.0.  E. D. Glendening, J. K. Badenhoop, A. E. Reed,
          J. E. Carpenter, J. A. Bohmann, C. M. Morales, P. Karafiloglou,
          C. R. Landis, and F. Weinhold, Theoretical Chemistry Institute,
          University of Wisconsin, Madison, WI (2018)

       /NPA    / : Natural Population Analysis
       /AOPNAO / : Print the AO to PNAO transformation
       /AONAO  / : Print the AO to NAO transformation
       /AONO   / : Print the NOs in the AO basis
       /AOMO   / : Print the MOs in the AO basis
       /BOAO   / : Print the AO bond-order matrix
       /DMAO   / : Print the AO density matrix
       /DMPNAO / : Print the PNAO density matrix
       /DMNAO  / : Print the NAO density matrix
       /DMMO   / : Print the MO density matrix
       /SAO    / : Print the AO overlap matrix
       /SPNAO  / : Print the PNAO overlap matrix
       /DETAIL / : Write details of NBO search
       /ARCHIVE/ : Write the archive file to lfn47
       /AOINFO / : Write AO information to lfn31
       /FILE   / : Set to LiBeH

 Filename set to LiBeH

 Job title: NBO-LiBeH


 MOs in the AO basis:

           AO          1       2       3       4       5       6       7       8
      ------------ ------- ------- ------- ------- ------- ------- ------- -------
   1. Be 1 (s)      0.9911 -0.0002 -0.1806 -0.1255  0.0742  0.0000  0.0000  0.0000
   2. Be 1 (s)      0.0375 -0.0055  0.4337  0.3254 -0.2293  0.0000  0.0000  0.0000
   3. Be 1 (px)     0.0000  0.0000  0.0000  0.0000  0.0000  0.3689  0.0000  0.0000
   4. Be 1 (py)     0.0000  0.0000  0.0000  0.0000  0.0000  0.0000  0.3689  0.9580
   5. Be 1 (pz)    -0.0037 -0.0014  0.2955 -0.3741  0.1667  0.0000  0.0000  0.0000
   6. Li 2 (s)      0.0005  0.9911 -0.0163 -0.1964 -0.1826  0.0000  0.0000  0.0000
   7. Li 2 (s)     -0.0092  0.0351  0.0691  0.5610  0.7472  0.0000  0.0000  0.0000
   8. Li 2 (px)     0.0000  0.0000  0.0000  0.0000  0.0000  0.8497  0.0000  0.0000
   9. Li 2 (py)     0.0000  0.0000  0.0000  0.0000  0.0000  0.0000  0.8497 -0.5761
  10. Li 2 (pz)    -0.0089 -0.0021  0.0500  0.2376 -0.6304  0.0000  0.0000  0.0000
  11.  H 3 (s)     -0.0020  0.0014  0.5537 -0.1804  0.0837  0.0000  0.0000  0.0000

           AO          9      10      11
      ------------ ------- ------- -------
   1. Be 1 (s)      0.0000 -0.2253 -0.0569
   2. Be 1 (s)      0.0000  1.3679  0.3921
   3. Be 1 (px)     0.9580  0.0000  0.0000
   4. Be 1 (py)     0.0000  0.0000  0.0000
   5. Be 1 (pz)     0.0000 -0.4325  1.3036
   6. Li 2 (s)      0.0000  0.1155 -0.0210
   7. Li 2 (s)      0.0000 -0.8004  0.3860
   8. Li 2 (px)    -0.5761  0.0000  0.0000
   9. Li 2 (py)     0.0000  0.0000  0.0000
  10. Li 2 (pz)     0.0000 -1.0612  0.4110
  11.  H 3 (s)      0.0000 -0.4003 -1.2608


 NOs in the AO basis:

           AO          1       2       3       4       5       6       7       8
      ------------ ------- ------- ------- ------- ------- ------- ------- -------
   1. Be 1 (s)      0.9007  0.4649 -0.0234 -0.0513  0.0000  0.0000 -0.0300  0.0264
   2. Be 1 (s)     -0.2852  0.3491 -0.2795 -0.1186  0.0000  0.0000  0.3217 -0.2676
   3. Be 1 (px)     0.0000  0.0000  0.0000  0.0000  0.0000 -0.2323 -0.2076 -0.2626
   4. Be 1 (py)     0.0000  0.0000  0.0000  0.0000  0.2323  0.0000  0.5626  0.7552
   5. Be 1 (pz)    -0.0523  0.1299 -0.0002  0.4557  0.0000  0.0000 -0.3004  0.1744
   6. Li 2 (s)      0.2844 -0.4943 -0.7701  0.3208  0.0000  0.0000 -0.0720  0.0548
   7. Li 2 (s)     -0.1897  0.1061 -0.2337 -0.4679  0.0000  0.0000  0.1088 -0.0945
   8. Li 2 (px)     0.0000  0.0000  0.0000  0.0000  0.0000  1.0266  0.0000  0.0000
   9. Li 2 (py)     0.0000  0.0000  0.0000  0.0000 -1.0266  0.0000  0.0000  0.0000
  10. Li 2 (pz)    -0.0986  0.0629 -0.0924 -0.1919  0.0000  0.0000 -0.9211  0.6858
  11.  H 3 (s)     -0.2368  0.3225 -0.1689  0.3879  0.0000  0.0000  0.1270 -0.0405

           AO          9      10      11
      ------------ ------- ------- -------
   1. Be 1 (s)      0.0045  0.2143  0.1094
   2. Be 1 (s)     -0.0288 -1.1729 -0.7251
   3. Be 1 (px)    -0.9419  0.0093  0.0272
   4. Be 1 (py)    -0.3353  0.0064 -0.0261
   5. Be 1 (pz)    -0.0088  0.6890 -1.1483
   6. Li 2 (s)     -0.0013 -0.1972  0.0026
   7. Li 2 (s)      0.0075  1.1324 -0.2114
   8. Li 2 (px)     0.0000  0.0000  0.0000
   9. Li 2 (py)     0.0000  0.0000  0.0000
  10. Li 2 (pz)     0.0159  0.6077 -0.0651
  11.  H 3 (s)      0.0225  0.1375  1.3114


 AO overlap matrix:

           AO          1       2       3       4       5       6       7       8
      ------------ ------- ------- ------- ------- ------- ------- ------- -------
   1. Be 1 (s)      1.0000  0.2595  0.0000  0.0000  0.0000  0.0000  0.0444  0.0000
   2. Be 1 (s)      0.2595  1.0000  0.0000  0.0000  0.0000  0.0401  0.3845  0.0000
   3. Be 1 (px)     0.0000  0.0000  1.0000  0.0000  0.0000  0.0000  0.0000  0.2262
   4. Be 1 (py)     0.0000  0.0000  0.0000  1.0000  0.0000  0.0000  0.0000  0.0000
   5. Be 1 (pz)     0.0000  0.0000  0.0000  0.0000  1.0000 -0.0672 -0.3078  0.0000
   6. Li 2 (s)      0.0000  0.0401  0.0000  0.0000 -0.0672  1.0000  0.2411  0.0000
   7. Li 2 (s)      0.0444  0.3845  0.0000  0.0000 -0.3078  0.2411  1.0000  0.0000
   8. Li 2 (px)     0.0000  0.0000  0.2262  0.0000  0.0000  0.0000  0.0000  1.0000
   9. Li 2 (py)     0.0000  0.0000  0.0000  0.2262  0.0000  0.0000  0.0000  0.0000
  10. Li 2 (pz)     0.0758  0.4774  0.0000  0.0000 -0.3003  0.0000  0.0000  0.0000
  11.  H 3 (s)      0.0759  0.4762  0.0000  0.0000  0.5368  0.0002  0.0599  0.0000

           AO          9      10      11
      ------------ ------- ------- -------
   1. Be 1 (s)      0.0000  0.0758  0.0759
   2. Be 1 (s)      0.0000  0.4774  0.4762
   3. Be 1 (px)     0.0000  0.0000  0.0000
   4. Be 1 (py)     0.2262  0.0000  0.0000
   5. Be 1 (pz)     0.0000 -0.3003  0.5368
   6. Li 2 (s)      0.0000  0.0000  0.0002
   7. Li 2 (s)      0.0000  0.0000  0.0599
   8. Li 2 (px)     0.0000  0.0000  0.0000
   9. Li 2 (py)     1.0000  0.0000  0.0000
  10. Li 2 (pz)     0.0000  1.0000  0.0986
  11.  H 3 (s)      0.0000  0.0986  1.0000


 AO bond-order matrix:

           AO          1       2       3       4       5       6       7       8
      ------------ ------- ------- ------- ------- ------- ------- ------- -------
   1. Be 1 (s)      2.0612 -0.1640  0.0000  0.0000 -0.0202  0.0559 -0.1841  0.0000
   2. Be 1 (s)     -0.1640  0.5908  0.0000  0.0000  0.0126 -0.1529  0.4239  0.0000
   3. Be 1 (px)     0.0000  0.0000  0.0000  0.0000  0.0000  0.0000  0.0000  0.0000
   4. Be 1 (py)     0.0000  0.0000  0.0000  0.0000  0.0000  0.0000  0.0000  0.0000
   5. Be 1 (pz)    -0.0202  0.0126  0.0000  0.0000  0.4546  0.1345 -0.3790  0.0000
   6. Li 2 (s)      0.0559 -0.1529  0.0000  0.0000  0.1345  2.0423 -0.1530  0.0000
   7. Li 2 (s)     -0.1841  0.4239  0.0000  0.0000 -0.3790 -0.1530  0.6417  0.0000
   8. Li 2 (px)     0.0000  0.0000  0.0000  0.0000  0.0000  0.0000  0.0000  0.0000
   9. Li 2 (py)     0.0000  0.0000  0.0000  0.0000  0.0000  0.0000  0.0000  0.0000
  10. Li 2 (pz)    -0.0952  0.1973  0.0000  0.0000 -0.1482 -0.0991  0.2735  0.0000
  11.  H 3 (s)     -0.1586  0.3626  0.0000  0.0000  0.4622  0.0556 -0.1258  0.0000

           AO          9      10      11
      ------------ ------- ------- -------
   1. Be 1 (s)      0.0000 -0.0952 -0.1586
   2. Be 1 (s)      0.0000  0.1973  0.3626
   3. Be 1 (px)     0.0000  0.0000  0.0000
   4. Be 1 (py)     0.0000  0.0000  0.0000
   5. Be 1 (pz)     0.0000 -0.1482  0.4622
   6. Li 2 (s)      0.0000 -0.0991  0.0556
   7. Li 2 (s)      0.0000  0.2735 -0.1258
   8. Li 2 (px)     0.0000  0.0000  0.0000
   9. Li 2 (py)     0.0000  0.0000  0.0000
  10. Li 2 (pz)     0.0000  0.1181 -0.0304
  11.  H 3 (s)      0.0000 -0.0304  0.6782


 AO density matrix:

           AO          1       2       3       4       5       6       7       8
      ------------ ------- ------- ------- ------- ------- ------- ------- -------
   1. Be 1 (s)      1.9993  0.5324  0.0000  0.0000 -0.0034  0.0005  0.0769  0.0000
   2. Be 1 (s)      0.5324  1.7066  0.0000  0.0000  0.0326  0.0676  1.0662  0.0000
   3. Be 1 (px)     0.0000  0.0000  0.0000  0.0000  0.0000  0.0000  0.0000  0.0000
   4. Be 1 (py)     0.0000  0.0000  0.0000  0.0000  0.0000  0.0000  0.0000  0.0000
   5. Be 1 (pz)    -0.0034  0.0326  0.0000  0.0000  1.6188 -0.1249 -0.8922  0.0000
   6. Li 2 (s)      0.0005  0.0676  0.0000  0.0000 -0.1249  1.9989  0.5102  0.0000
   7. Li 2 (s)      0.0769  1.0662  0.0000  0.0000 -0.8922  0.5102  1.2967  0.0000
   8. Li 2 (px)     0.0000  0.0000  0.0000  0.0000  0.0000  0.0000  0.0000  0.0000
   9. Li 2 (py)     0.0000  0.0000  0.0000  0.0000  0.0000  0.0000  0.0000  0.0000
  10. Li 2 (pz)     0.1508  0.8462  0.0000  0.0000 -0.4368 -0.0311  0.7808  0.0000
  11.  H 3 (s)      0.1445  1.1416  0.0000  0.0000  1.2705  0.0046  0.0487  0.0000

           AO          9      10      11
      ------------ ------- ------- -------
   1. Be 1 (s)      0.0000  0.1508  0.1445
   2. Be 1 (s)      0.0000  0.8462  1.1416
   3. Be 1 (px)     0.0000  0.0000  0.0000
   4. Be 1 (py)     0.0000  0.0000  0.0000
   5. Be 1 (pz)     0.0000 -0.4368  1.2705
   6. Li 2 (s)      0.0000 -0.0311  0.0046
   7. Li 2 (s)      0.0000  0.7808  0.0487
   8. Li 2 (px)     0.0000  0.0000  0.0000
   9. Li 2 (py)     0.0000  0.0000  0.0000
  10. Li 2 (pz)     0.0000  0.5590  0.2265
  11.  H 3 (s)      0.0000  0.2265  1.7508


 MO density matrix:

      MO     1       2       3       4       5       6       7       8       9
     ---- ------  ------  ------  ------  ------  ------  ------  ------  ------
   1.     2.0000  0.0000  0.0000  0.0000  0.0000  0.0000  0.0000  0.0000  0.0000
   2.     0.0000  2.0000  0.0000  0.0000  0.0000  0.0000  0.0000  0.0000  0.0000
   3.     0.0000  0.0000  2.0000  0.0000  0.0000  0.0000  0.0000  0.0000  0.0000
   4.     0.0000  0.0000  0.0000  2.0000  0.0000  0.0000  0.0000  0.0000  0.0000
   5.     0.0000  0.0000  0.0000  0.0000  0.0000  0.0000  0.0000  0.0000  0.0000
   6.     0.0000  0.0000  0.0000  0.0000  0.0000  0.0000  0.0000  0.0000  0.0000
   7.     0.0000  0.0000  0.0000  0.0000  0.0000  0.0000  0.0000  0.0000  0.0000
   8.     0.0000  0.0000  0.0000  0.0000  0.0000  0.0000  0.0000  0.0000  0.0000
   9.     0.0000  0.0000  0.0000  0.0000  0.0000  0.0000  0.0000  0.0000  0.0000
  10.     0.0000  0.0000  0.0000  0.0000  0.0000  0.0000  0.0000  0.0000  0.0000
  11.     0.0000  0.0000  0.0000  0.0000  0.0000  0.0000  0.0000  0.0000  0.0000

      MO    10      11
     ---- ------  ------
   1.     0.0000  0.0000
   2.     0.0000  0.0000
   3.     0.0000  0.0000
   4.     0.0000  0.0000
   5.     0.0000  0.0000
   6.     0.0000  0.0000
   7.     0.0000  0.0000
   8.     0.0000  0.0000
   9.     0.0000  0.0000
  10.     0.0000  0.0000
  11.     0.0000  0.0000


 NATURAL POPULATIONS:  Natural atomic orbital occupancies

  NAO Atom No lang   Type(AO)    Occupancy      Energy
 -------------------------------------------------------
   1   Be  1  s      Cor( 1s)     1.99996      -4.48805
   2   Be  1  s      Val( 2s)     1.19075      -0.03849
   3   Be  1  px     Ryd( 2p)     0.00000       0.25750
   4   Be  1  py     Ryd( 2p)     0.00000       0.25750
   5   Be  1  pz     Ryd( 2p)     0.29975       0.58582

   6   Li  2  s      Cor( 1s)     1.99999      -2.32831
   7   Li  2  s      Val( 2s)     0.87361      -0.01365
   8   Li  2  px     Ryd( 2p)     0.00000       0.17747
   9   Li  2  py     Ryd( 2p)     0.00000       0.17747
  10   Li  2  pz     Ryd( 2p)     0.11855       0.30910

  11    H  3  s      Val( 1s)     1.51738      -0.14321


 Summary of Natural Population Analysis:

                                     Natural Population
             Natural    ---------------------------------------------
  Atom No    Charge        Core      Valence    Rydberg      Total
 --------------------------------------------------------------------
   Be  1    0.50954      1.99996     1.19075    0.29975     3.49046
   Li  2    0.00784      1.99999     0.87361    0.11855     2.99216
    H  3   -0.51738      0.00000     1.51738    0.00000     1.51738
 ====================================================================
 * Total *  0.00000      3.99995     3.58175    0.41830     8.00000

                                 Natural Population
 ---------------------------------------------------------
   Core                       3.99995 ( 99.9988% of    4)
   Valence                    3.58175 ( 89.5436% of    4)
   Natural Minimal Basis      7.58170 ( 94.7712% of    8)
   Natural Rydberg Basis      0.41830 (  5.2288% of    8)
 ---------------------------------------------------------

    Atom No         Natural Electron Configuration
 ----------------------------------------------------------------------------
     Be  1      [core]2s( 1.19)2p( 0.30)
     Li  2      [core]2s( 0.87)2p( 0.12)
      H  3            1s( 1.52)


 PNAOs in the AO basis:

           AO          1       2       3       4       5       6       7       8
      ------------ ------- ------- ------- ------- ------- ------- ------- -------
   1. Be 1 (s)      0.9873 -0.3120  0.0000  0.0000  0.0000  0.0000  0.0000  0.0000
   2. Be 1 (s)      0.0451  1.0345  0.0000  0.0000  0.0000  0.0000  0.0000  0.0000
   3. Be 1 (px)     0.0000  0.0000  1.0000  0.0000  0.0000  0.0000  0.0000  0.0000
   4. Be 1 (py)     0.0000  0.0000  0.0000  1.0000  0.0000  0.0000  0.0000  0.0000
   5. Be 1 (pz)     0.0000  0.0000  0.0000  0.0000  1.0000  0.0000  0.0000  0.0000
   6. Li 2 (s)      0.0000  0.0000  0.0000  0.0000  0.0000  0.9898 -0.2864  0.0000
   7. Li 2 (s)      0.0000  0.0000  0.0000  0.0000  0.0000  0.0393  1.0297  0.0000
   8. Li 2 (px)     0.0000  0.0000  0.0000  0.0000  0.0000  0.0000  0.0000  1.0000
   9. Li 2 (py)     0.0000  0.0000  0.0000  0.0000  0.0000  0.0000  0.0000  0.0000
  10. Li 2 (pz)     0.0000  0.0000  0.0000  0.0000  0.0000  0.0000  0.0000  0.0000
  11.  H 3 (s)      0.0000  0.0000  0.0000  0.0000  0.0000  0.0000  0.0000  0.0000

           AO          9      10      11
      ------------ ------- ------- -------
   1. Be 1 (s)      0.0000  0.0000  0.0000
   2. Be 1 (s)      0.0000  0.0000  0.0000
   3. Be 1 (px)     0.0000  0.0000  0.0000
   4. Be 1 (py)     0.0000  0.0000  0.0000
   5. Be 1 (pz)     0.0000  0.0000  0.0000
   6. Li 2 (s)      0.0000  0.0000  0.0000
   7. Li 2 (s)      0.0000  0.0000  0.0000
   8. Li 2 (px)     0.0000  0.0000  0.0000
   9. Li 2 (py)     1.0000  0.0000  0.0000
  10. Li 2 (pz)     0.0000  1.0000  0.0000
  11.  H 3 (s)      0.0000  0.0000  1.0000


 PNAO overlap matrix:

           NAO         1       2       3       4       5       6       7       8
      ------------ ------- ------- ------- ------- ------- ------- ------- -------
   1. Be 1( 1s )    1.0000  0.0000  0.0000  0.0000  0.0000  0.0042  0.0625  0.0000
   2. Be 1( 2s )    0.0000  1.0000  0.0000  0.0000  0.0000  0.0562  0.3834  0.0000
   3. Be 1( 2px)    0.0000  0.0000  1.0000  0.0000  0.0000  0.0000  0.0000  0.2262
   4. Be 1( 2py)    0.0000  0.0000  0.0000  1.0000  0.0000  0.0000  0.0000  0.0000
   5. Be 1( 2pz)    0.0000  0.0000  0.0000  0.0000  1.0000 -0.0786 -0.2977  0.0000
   6. Li 2( 1s )    0.0042  0.0562  0.0000  0.0000 -0.0786  1.0000  0.0000  0.0000
   7. Li 2( 2s )    0.0625  0.3834  0.0000  0.0000 -0.2977  0.0000  1.0000  0.0000
   8. Li 2( 2px)    0.0000  0.0000  0.2262  0.0000  0.0000  0.0000  0.0000  1.0000
   9. Li 2( 2py)    0.0000  0.0000  0.0000  0.2262  0.0000  0.0000  0.0000  0.0000
  10. Li 2( 2pz)    0.0964  0.4702  0.0000  0.0000 -0.3003  0.0000  0.0000  0.0000
  11.  H 3( 1s )    0.0964  0.4690  0.0000  0.0000  0.5368  0.0025  0.0616  0.0000

           NAO         9      10      11
      ------------ ------- ------- -------
   1. Be 1( 1s )    0.0000  0.0964  0.0964
   2. Be 1( 2s )    0.0000  0.4702  0.4690
   3. Be 1( 2px)    0.0000  0.0000  0.0000
   4. Be 1( 2py)    0.2262  0.0000  0.0000
   5. Be 1( 2pz)    0.0000 -0.3003  0.5368
   6. Li 2( 1s )    0.0000  0.0000  0.0025
   7. Li 2( 2s )    0.0000  0.0000  0.0616
   8. Li 2( 2px)    0.0000  0.0000  0.0000
   9. Li 2( 2py)    1.0000  0.0000  0.0000
  10. Li 2( 2pz)    0.0000  1.0000  0.0986
  11.  H 3( 1s )    0.0000  0.0986  1.0000


 PNAO density matrix:

           NAO         1       2       3       4       5       6       7       8
      ------------ ------- ------- ------- ------- ------- ------- ------- -------
   1. Be 1( 1s )    2.0000  0.0000  0.0000  0.0000 -0.0019  0.0084  0.1266  0.0000
   2. Be 1( 2s )    0.0000  1.6773  0.0000  0.0000  0.0348  0.1115  1.0910  0.0000
   3. Be 1( 2px)    0.0000  0.0000  0.0000  0.0000  0.0000  0.0000  0.0000  0.0000
   4. Be 1( 2py)    0.0000  0.0000  0.0000  0.0000  0.0000  0.0000  0.0000  0.0000
   5. Be 1( 2pz)   -0.0019  0.0348  0.0000  0.0000  1.6188 -0.1587 -0.8829  0.0000
   6. Li 2( 1s )    0.0084  0.1115  0.0000  0.0000 -0.1587  2.0000  0.0000  0.0000
   7. Li 2( 2s )    0.1266  1.0910  0.0000  0.0000 -0.8829  0.0000  1.2378  0.0000
   8. Li 2( 2px)    0.0000  0.0000  0.0000  0.0000  0.0000  0.0000  0.0000  0.0000
   9. Li 2( 2py)    0.0000  0.0000  0.0000  0.0000  0.0000  0.0000  0.0000  0.0000
  10. Li 2( 2pz)    0.1871  0.8283  0.0000  0.0000 -0.4368 -0.0001  0.8129  0.0000
  11.  H 3( 1s )    0.1942  1.1358  0.0000  0.0000  1.2705  0.0065  0.0488  0.0000

           NAO         9      10      11
      ------------ ------- ------- -------
   1. Be 1( 1s )    0.0000  0.1871  0.1942
   2. Be 1( 2s )    0.0000  0.8283  1.1358
   3. Be 1( 2px)    0.0000  0.0000  0.0000
   4. Be 1( 2py)    0.0000  0.0000  0.0000
   5. Be 1( 2pz)    0.0000 -0.4368  1.2705
   6. Li 2( 1s )    0.0000 -0.0001  0.0065
   7. Li 2( 2s )    0.0000  0.8129  0.0488
   8. Li 2( 2px)    0.0000  0.0000  0.0000
   9. Li 2( 2py)    0.0000  0.0000  0.0000
  10. Li 2( 2pz)    0.0000  0.5590  0.2265
  11.  H 3( 1s )    0.0000  0.2265  1.7508


 NAOs in the AO basis:

           AO          1       2       3       4       5       6       7       8
      ------------ ------- ------- ------- ------- ------- ------- ------- -------
   1. Be 1 (s)      0.9873 -0.3253  0.0000  0.0000 -0.0062 -0.0021  0.0134  0.0000
   2. Be 1 (s)      0.0451  1.2191  0.0000  0.0000  0.1331 -0.0001 -0.2911  0.0000
   3. Be 1 (px)     0.0000  0.0000  1.0170  0.0000  0.0000  0.0000  0.0000 -0.1401
   4. Be 1 (py)     0.0000  0.0000  0.0000  1.0170  0.0000  0.0000  0.0000  0.0000
   5. Be 1 (pz)     0.0000  0.0000  0.0000  0.0000  1.4177  0.0000  0.0000  0.0000
   6. Li 2 (s)     -0.0021 -0.0060  0.0000  0.0000 -0.0164  0.9898 -0.2932  0.0000
   7. Li 2 (s)     -0.0001 -0.2140  0.0000  0.0000  0.4418  0.0393  1.1107  0.0000
   8. Li 2 (px)     0.0000  0.0000 -0.0936  0.0000  0.0000  0.0000  0.0000  1.0223
   9. Li 2 (py)     0.0000  0.0000  0.0000 -0.0936  0.0000  0.0000  0.0000  0.0000
  10. Li 2 (pz)     0.0000  0.0000  0.0000  0.0000  0.2423  0.0000  0.0000  0.0000
  11.  H 3 (s)      0.0000 -0.3039  0.0000  0.0000 -0.8743  0.0000  0.0714  0.0000

           AO          9      10      11
      ------------ ------- ------- -------
   1. Be 1 (s)      0.0000  0.0944 -0.0180
   2. Be 1 (s)      0.0000 -0.8297 -0.3062
   3. Be 1 (px)     0.0000  0.0000  0.0000
   4. Be 1 (py)    -0.1401  0.0000  0.0000
   5. Be 1 (pz)     0.0000  0.3628  0.0000
   6. Li 2 (s)      0.0000 -0.0474 -0.0006
   7. Li 2 (s)      0.0000  0.4356  0.0526
   8. Li 2 (px)     0.0000  0.0000  0.0000
   9. Li 2 (py)     1.0223  0.0000  0.0000
  10. Li 2 (pz)     0.0000  1.3011  0.0000
  11.  H 3 (s)      0.0000  0.0388  1.1102


 NAO density matrix:

           NAO         1       2       3       4       5       6       7       8
      ------------ ------- ------- ------- ------- ------- ------- ------- -------
   1. Be 1( 1s )    2.0000 -0.0007  0.0000  0.0000 -0.0045  0.0000  0.0018  0.0000
   2. Be 1( 2s )   -0.0007  1.1908  0.0000  0.0000 -0.1271 -0.0014  0.7686  0.0000
   3. Be 1( 2px)    0.0000  0.0000  0.0000  0.0000  0.0000  0.0000  0.0000  0.0000
   4. Be 1( 2py)    0.0000  0.0000  0.0000  0.0000  0.0000  0.0000  0.0000  0.0000
   5. Be 1( 2pz)   -0.0045 -0.1271  0.0000  0.0000  0.2998 -0.0034 -0.4107  0.0000
   6. Li 2( 1s )    0.0000 -0.0014  0.0000  0.0000 -0.0034  2.0000  0.0003  0.0000
   7. Li 2( 2s )    0.0018  0.7686  0.0000  0.0000 -0.4107  0.0003  0.8736  0.0000
   8. Li 2( 2px)    0.0000  0.0000  0.0000  0.0000  0.0000  0.0000  0.0000  0.0000
   9. Li 2( 2py)    0.0000  0.0000  0.0000  0.0000  0.0000  0.0000  0.0000  0.0000
  10. Li 2( 2pz)   -0.0073  0.2647  0.0000  0.0000 -0.1589  0.0001  0.3210  0.0000
  11.  H 3( 1s )    0.0015  0.5354  0.0000  0.0000  0.5473  0.0018 -0.3486  0.0000

           NAO         9      10      11
      ------------ ------- ------- -------
   1. Be 1( 1s )    0.0000 -0.0073  0.0015
   2. Be 1( 2s )    0.0000  0.2647  0.5354
   3. Be 1( 2px)    0.0000  0.0000  0.0000
   4. Be 1( 2py)    0.0000  0.0000  0.0000
   5. Be 1( 2pz)    0.0000 -0.1589  0.5473
   6. Li 2( 1s )    0.0000  0.0001  0.0018
   7. Li 2( 2s )    0.0000  0.3210 -0.3486
   8. Li 2( 2px)    0.0000  0.0000  0.0000
   9. Li 2( 2py)    0.0000  0.0000  0.0000
  10. Li 2( 2pz)    0.0000  0.1186 -0.1570
  11.  H 3( 1s )    0.0000 -0.1570  1.5174


 NATURAL BOND ORBITAL ANALYSIS:

 Initiate 2-center NBO search using THRESH = 1.900 and PRJTHR = 0.300

 Search of NAO DM block for core orbitals on atom:   1
      Eigenvector ( 1) has occupancy 1.99996
            1.0000 0.0000 0.0000 0.0000 0.0000
        1 eigenvector(s) stashed in permanent list

 Search of NAO DM block for core orbitals on atom:   2
      Eigenvector ( 1) has occupancy 1.99999
            1.0000 0.0000 0.0000 0.0000 0.0000
        1 eigenvector(s) stashed in permanent list

 Core orbitals projected from the NAO density matrix
       4.000 electrons remain (>1.900); search continues

 Search of NAO DM block for the following atom(s):   3
      Select eigenvectors with eigenvalue > 1.900
       1.517

 No NHOs identified in the 1-center search of the NAO density matrix
       4.000 electrons remain (>1.900); search continues

 Search of NAO DM block for the following atom(s):   1   2
      Select eigenvectors with eigenvalue > 1.900
       2.000 0.483 0.000 0.000 0.000 0.000 0.000 0.000 0.000 0.000
      Eigenvector ( 1) has occupancy 2.00000
            0.0000 0.7078 0.0000 0.0000-0.2262 0.0000 0.6299 0.0000
            0.0000 0.2261
      1 hybrid on atom 1 stashed in prospective list
      1 hybrid on atom 2 stashed in prospective list

 Search of NAO DM block for the following atom(s):   1   3
      Select eigenvectors with eigenvalue > 1.900
       1.999 1.008 0.000 0.000 0.000 0.000
      Eigenvector ( 1) has occupancy 1.99947
            0.0000 0.5122 0.0000 0.0000 0.2283 0.8280
      1 hybrid on atom 1 stashed in prospective list
      1 hybrid on atom 3 stashed in prospective list

 Stash prospective hybrids having projection expectation value > 0.300
       0.443 0.443 0.443 0.443
      0 hybrids eliminated in 1 pass
      4 hybrids moved from prospective to permanent list

 NHOs of 2-center eigenvectors projected from the NAO density matrix
       0.001 electrons remain in the fully projected matrix

 Search of NHO DM block for the following atom(s):   1
      Select eigenvectors with eigenvalue > 1.900
       2.000 0.000 0.000 0.000 0.000
      Eigenvector ( 1) has occupancy 1.99996
            1.0000 0.0000 0.0000 0.0000 0.0000
           NBO accepted:    1. Label:CR ( 1)   1
        1 eigenvector(s) stashed in permanent list

 Search of NHO DM block for the following atom(s):   2
      Select eigenvectors with eigenvalue > 1.900
       2.000 0.001 0.000 0.000 0.000
      Eigenvector ( 1) has occupancy 1.99999
            1.0000 0.0000 0.0000 0.0000 0.0000
           NBO accepted:    2. Label:CR ( 1)   2
        1 eigenvector(s) stashed in permanent list

  1-center NBOs projected from the NHO density matrix
       4.000 electrons remain (>1.900); search continues

 Search of NHO DM block for the following atom(s):   1   2
      Select eigenvectors with eigenvalue > 1.900
       1.885 0.068 0.000 0.000 0.000 0.000 0.000 0.000 0.000 0.000

 Search of NHO DM block for the following atom(s):   1   3
      Select eigenvectors with eigenvalue > 1.900
       1.932 0.115 0.000 0.000 0.000 0.000
      Eigenvector ( 1) has occupancy 1.93162
            0.0000 0.0000 0.4775 0.0000 0.0000 0.8786
      Occupancy is 1.932 after deleting minor hybrid components
            0.0000 0.0000 0.4775 0.0000 0.0000 0.8786
           NBO accepted:    3. Label:BD ( 1)   1   3
      Occupancy is 0.115 for antibonding component
            0.0000 0.0000 0.8786 0.0000 0.0000-0.4775
           NBO accepted:    4. Label:BD*( 1)   1   3
        2 eigenvector(s) stashed in permanent list

  2-center NBOs projected from the NHO density matrix
       1.954 electrons remain in the fully projected matrix

 Search may extend to 3 centers because sum of residual populations (1.954)
 exceeds the occupancy threshold (1.900):   1   2   3

                            Occupancies       Lewis Structure    Low   High
         Max    Occ     -------------------  -----------------   occ   occ
  Cycle  Ctr   Thresh    Lewis   non-Lewis     CR  BD  nC  LP    (L)   (NL)
 ============================================================================
    1     2     1.90     6.92312   1.07688      2   1   0   1     1      2

 Initiate 2-center NBO search using THRESH = 1.880 and PRJTHR = 0.300

 Search of NAO DM block for core orbitals on atom:   1
      Eigenvector ( 1) has occupancy 1.99996
            1.0000 0.0000 0.0000 0.0000 0.0000
        1 eigenvector(s) stashed in permanent list

 Search of NAO DM block for core orbitals on atom:   2
      Eigenvector ( 1) has occupancy 1.99999
            1.0000 0.0000 0.0000 0.0000 0.0000
        1 eigenvector(s) stashed in permanent list

 Core orbitals projected from the NAO density matrix
       4.000 electrons remain (>1.880); search continues

 Search of NAO DM block for the following atom(s):   3
      Select eigenvectors with eigenvalue > 1.880
       1.517

 No NHOs identified in the 1-center search of the NAO density matrix
       4.000 electrons remain (>1.880); search continues

 Search of NAO DM block for the following atom(s):   1   2
      Select eigenvectors with eigenvalue > 1.880
       2.000 0.483 0.000 0.000 0.000 0.000 0.000 0.000 0.000 0.000
      Eigenvector ( 1) has occupancy 2.00000
            0.0000 0.7078 0.0000 0.0000-0.2262 0.0000 0.6299 0.0000
            0.0000 0.2261
      1 hybrid on atom 1 stashed in prospective list
      1 hybrid on atom 2 stashed in prospective list

 Search of NAO DM block for the following atom(s):   1   3
      Select eigenvectors with eigenvalue > 1.880
       1.999 1.008 0.000 0.000 0.000 0.000
      Eigenvector ( 1) has occupancy 1.99947
            0.0000 0.5122 0.0000 0.0000 0.2283 0.8280
      1 hybrid on atom 1 stashed in prospective list
      1 hybrid on atom 3 stashed in prospective list

 Stash prospective hybrids having projection expectation value > 0.300
       0.443 0.443 0.443 0.443
      0 hybrids eliminated in 1 pass
      4 hybrids moved from prospective to permanent list

 NHOs of 2-center eigenvectors projected from the NAO density matrix
       0.001 electrons remain in the fully projected matrix

 Search of NHO DM block for the following atom(s):   1
      Select eigenvectors with eigenvalue > 1.880
       2.000 0.000 0.000 0.000 0.000
      Eigenvector ( 1) has occupancy 1.99996
            1.0000 0.0000 0.0000 0.0000 0.0000
           NBO accepted:    1. Label:CR ( 1)   1
        1 eigenvector(s) stashed in permanent list

 Search of NHO DM block for the following atom(s):   2
      Select eigenvectors with eigenvalue > 1.880
       2.000 0.001 0.000 0.000 0.000
      Eigenvector ( 1) has occupancy 1.99999
            1.0000 0.0000 0.0000 0.0000 0.0000
           NBO accepted:    2. Label:CR ( 1)   2
        1 eigenvector(s) stashed in permanent list

  1-center NBOs projected from the NHO density matrix
       4.000 electrons remain (>1.880); search continues

 Search of NHO DM block for the following atom(s):   1   2
      Select eigenvectors with eigenvalue > 1.880
       1.885 0.068 0.000 0.000 0.000 0.000 0.000 0.000 0.000 0.000
      Eigenvector ( 1) has occupancy 1.88534
            0.0000 0.7013 0.0000 0.0000 0.0000 0.0000 0.7129 0.0000
            0.0000 0.0000
      Occupancy is 1.885 after deleting minor hybrid components
            0.0000 0.7013 0.0000 0.0000 0.0000 0.0000 0.7129 0.0000
            0.0000 0.0000
           NBO accepted:    3. Label:BD ( 1)   1   2
      Occupancy is 0.068 for antibonding component
            0.0000 0.7129 0.0000 0.0000 0.0000 0.0000-0.7013 0.0000
            0.0000 0.0000
           NBO accepted:    4. Label:BD*( 1)   1   2
        2 eigenvector(s) stashed in permanent list

 Search of NHO DM block for the following atom(s):   1   3
      Select eigenvectors with eigenvalue > 1.880
       1.932 0.115 0.000 0.000 0.000 0.000
      Eigenvector ( 1) has occupancy 1.93162
            0.0000 0.0000 0.4775 0.0000 0.0000 0.8786
      Occupancy is 1.932 after deleting minor hybrid components
            0.0000 0.0000 0.4775 0.0000 0.0000 0.8786
           NBO accepted:    5. Label:BD ( 1)   1   3
      Occupancy is 0.115 for antibonding component
            0.0000 0.0000 0.8786 0.0000 0.0000-0.4775
           NBO accepted:    6. Label:BD*( 1)   1   3
        2 eigenvector(s) stashed in permanent list

  2-center NBOs projected from the NHO density matrix
       0.001 electrons remain in the fully projected matrix

                            Occupancies       Lewis Structure    Low   High
         Max    Occ     -------------------  -----------------   occ   occ
  Cycle  Ctr   Thresh    Lewis   non-Lewis     CR  BD  nC  LP    (L)   (NL)
 ============================================================================
    2     2     1.88     7.81691   0.18309      2   2   0   0     0      1

 Initiate 2-center NBO search using THRESH = 1.510 and PRJTHR = 0.300

 Search of NAO DM block for core orbitals on atom:   1
      Eigenvector ( 1) has occupancy 1.99996
            1.0000 0.0000 0.0000 0.0000 0.0000
        1 eigenvector(s) stashed in permanent list

 Search of NAO DM block for core orbitals on atom:   2
      Eigenvector ( 1) has occupancy 1.99999
            1.0000 0.0000 0.0000 0.0000 0.0000
        1 eigenvector(s) stashed in permanent list

 Core orbitals projected from the NAO density matrix
       4.000 electrons remain (>1.510); search continues

 Search of NAO DM block for the following atom(s):   3
      Select eigenvectors with eigenvalue > 1.510
       1.517
      Eigenvector ( 1) has occupancy 1.51738
            1.0000
      1 hybrid on atom 3 stashed in prospective list

 Stash prospective hybrids having projection expectation value > 0.300
       1.000
      0 hybrids eliminated in 1 pass
      1 hybrid moved from prospective to permanent list

 NHOs of 1-center eigenvectors projected from the NAO density matrix
       2.483 electrons remain (>1.510); search continues

 Search of NAO DM block for the following atom(s):   1   2
      Select eigenvectors with eigenvalue > 1.510
       2.000 0.483 0.000 0.000 0.000 0.000 0.000 0.000 0.000 0.000
      Eigenvector ( 1) has occupancy 2.00000
            0.0000 0.7078 0.0000 0.0000-0.2262 0.0000 0.6299 0.0000
            0.0000 0.2261
      1 hybrid on atom 1 stashed in prospective list
      1 hybrid on atom 2 stashed in prospective list

 Stash prospective hybrids having projection expectation value > 0.300
       1.000 1.000
      0 hybrids eliminated in 1 pass
      2 hybrids moved from prospective to permanent list

 NHOs of 2-center eigenvectors projected from the NAO density matrix
       0.309 electrons remain in the fully projected matrix

 Search of NHO DM block for the following atom(s):   1
      Select eigenvectors with eigenvalue > 1.510
       2.000 0.309 0.000 0.000 0.000
      Eigenvector ( 1) has occupancy 1.99996
            1.0000 0.0000 0.0000 0.0000 0.0000
           NBO accepted:    1. Label:CR ( 1)   1
        1 eigenvector(s) stashed in permanent list

 Search of NHO DM block for the following atom(s):   2
      Select eigenvectors with eigenvalue > 1.510
       2.000 0.001 0.000 0.000 0.000
      Eigenvector ( 1) has occupancy 1.99999
            1.0000 0.0000 0.0000 0.0000 0.0000
           NBO accepted:    2. Label:CR ( 1)   2
        1 eigenvector(s) stashed in permanent list

 Search of NHO DM block for the following atom(s):   3
      Select eigenvectors with eigenvalue > 1.510
       1.517
      Eigenvector ( 1) has occupancy 1.51738
            1.0000
           NBO accepted:    3. Label:LP ( 1)   3
        1 eigenvector(s) stashed in permanent list

  1-center NBOs projected from the NHO density matrix
       2.483 electrons remain (>1.510); search continues

 Search of NHO DM block for the following atom(s):   1   2
      Select eigenvectors with eigenvalue > 1.510
       2.000 0.173 0.000 0.000 0.000 0.000 0.000 0.000 0.000 0.000
      Eigenvector ( 1) has occupancy 2.00000
            0.0000 0.7430 0.0000 0.0000 0.0000 0.0000 0.6692 0.0000
            0.0000 0.0000
      Occupancy is 2.000 after deleting minor hybrid components
            0.0000 0.7430 0.0000 0.0000 0.0000 0.0000 0.6692 0.0000
            0.0000 0.0000
           NBO accepted:    4. Label:BD ( 1)   1   2
      Occupancy is 0.173 for antibonding component
            0.0000-0.6692 0.0000 0.0000 0.0000 0.0000 0.7430 0.0000
            0.0000 0.0000
           NBO accepted:    5. Label:BD*( 1)   1   2
        2 eigenvector(s) stashed in permanent list

  2-center NBOs projected from the NHO density matrix
       0.309 electrons remain in the fully projected matrix

                            Occupancies       Lewis Structure    Low   High
         Max    Occ     -------------------  -----------------   occ   occ
  Cycle  Ctr   Thresh    Lewis   non-Lewis     CR  BD  nC  LP    (L)   (NL)
 ============================================================================
    3     2     1.51     7.51733   0.48267      2   1   0   1     0      2

 Initiate 2-center NBO search using THRESH = 1.880 and PRJTHR = 0.300

 Search of NAO DM block for core orbitals on atom:   1
      Eigenvector ( 1) has occupancy 1.99996
            1.0000 0.0000 0.0000 0.0000 0.0000
        1 eigenvector(s) stashed in permanent list

 Search of NAO DM block for core orbitals on atom:   2
      Eigenvector ( 1) has occupancy 1.99999
            1.0000 0.0000 0.0000 0.0000 0.0000
        1 eigenvector(s) stashed in permanent list

 Core orbitals projected from the NAO density matrix
       4.000 electrons remain (>1.880); search continues

 Search of NAO DM block for the following atom(s):   3
      Select eigenvectors with eigenvalue > 1.880
       1.517

 No NHOs identified in the 1-center search of the NAO density matrix
       4.000 electrons remain (>1.880); search continues

 Search of NAO DM block for the following atom(s):   1   2
      Select eigenvectors with eigenvalue > 1.880
       2.000 0.483 0.000 0.000 0.000 0.000 0.000 0.000 0.000 0.000
      Eigenvector ( 1) has occupancy 2.00000
            0.0000 0.7078 0.0000 0.0000-0.2262 0.0000 0.6299 0.0000
            0.0000 0.2261
      1 hybrid on atom 1 stashed in prospective list
      1 hybrid on atom 2 stashed in prospective list

 Search of NAO DM block for the following atom(s):   1   3
      Select eigenvectors with eigenvalue > 1.880
       1.999 1.008 0.000 0.000 0.000 0.000
      Eigenvector ( 1) has occupancy 1.99947
            0.0000 0.5122 0.0000 0.0000 0.2283 0.8280
      1 hybrid on atom 1 stashed in prospective list
      1 hybrid on atom 3 stashed in prospective list

 Stash prospective hybrids having projection expectation value > 0.300
       0.443 0.443 0.443 0.443
      0 hybrids eliminated in 1 pass
      4 hybrids moved from prospective to permanent list

 NHOs of 2-center eigenvectors projected from the NAO density matrix
       0.001 electrons remain in the fully projected matrix

 Search of NHO DM block for the following atom(s):   1
      Select eigenvectors with eigenvalue > 1.880
       2.000 0.000 0.000 0.000 0.000
      Eigenvector ( 1) has occupancy 1.99996
            1.0000 0.0000 0.0000 0.0000 0.0000
           NBO accepted:    1. Label:CR ( 1)   1
        1 eigenvector(s) stashed in permanent list

 Search of NHO DM block for the following atom(s):   2
      Select eigenvectors with eigenvalue > 1.880
       2.000 0.001 0.000 0.000 0.000
      Eigenvector ( 1) has occupancy 1.99999
            1.0000 0.0000 0.0000 0.0000 0.0000
           NBO accepted:    2. Label:CR ( 1)   2
        1 eigenvector(s) stashed in permanent list

  1-center NBOs projected from the NHO density matrix
       4.000 electrons remain (>1.880); search continues

 Search of NHO DM block for the following atom(s):   1   2
      Select eigenvectors with eigenvalue > 1.880
       1.885 0.068 0.000 0.000 0.000 0.000 0.000 0.000 0.000 0.000
      Eigenvector ( 1) has occupancy 1.88534
            0.0000 0.7013 0.0000 0.0000 0.0000 0.0000 0.7129 0.0000
            0.0000 0.0000
      Occupancy is 1.885 after deleting minor hybrid components
            0.0000 0.7013 0.0000 0.0000 0.0000 0.0000 0.7129 0.0000
            0.0000 0.0000
           NBO accepted:    3. Label:BD ( 1)   1   2
      Occupancy is 0.068 for antibonding component
            0.0000 0.7129 0.0000 0.0000 0.0000 0.0000-0.7013 0.0000
            0.0000 0.0000
           NBO accepted:    4. Label:BD*( 1)   1   2
        2 eigenvector(s) stashed in permanent list

 Search of NHO DM block for the following atom(s):   1   3
      Select eigenvectors with eigenvalue > 1.880
       1.932 0.115 0.000 0.000 0.000 0.000
      Eigenvector ( 1) has occupancy 1.93162
            0.0000 0.0000 0.4775 0.0000 0.0000 0.8786
      Occupancy is 1.932 after deleting minor hybrid components
            0.0000 0.0000 0.4775 0.0000 0.0000 0.8786
           NBO accepted:    5. Label:BD ( 1)   1   3
      Occupancy is 0.115 for antibonding component
            0.0000 0.0000 0.8786 0.0000 0.0000-0.4775
           NBO accepted:    6. Label:BD*( 1)   1   3
        2 eigenvector(s) stashed in permanent list

  2-center NBOs projected from the NHO density matrix
       0.001 electrons remain in the fully projected matrix

                            Occupancies       Lewis Structure    Low   High
         Max    Occ     -------------------  -----------------   occ   occ
  Cycle  Ctr   Thresh    Lewis   non-Lewis     CR  BD  nC  LP    (L)   (NL)
 ============================================================================
    4     2     1.88     7.81691   0.18309      2   2   0   0     0      1
 ----------------------------------------------------------------------------

 Structure accepted: No low occupancy Lewis orbitals

 -------------------------------------------------------
   Core                      3.99995 ( 99.999% of   4)
   Valence Lewis             3.81696 ( 95.424% of   4)
  ==================      =============================
   Total Lewis               7.81691 ( 97.711% of   8)
  -----------------------------------------------------
   Valence non-Lewis         0.18247 (  2.281% of   8)
   Rydberg non-Lewis         0.00062 (  0.008% of   8)
  ==================      =============================
   Total non-Lewis           0.18309 (  2.289% of   8)
 -------------------------------------------------------


     (Occupancy)   Bond orbital / Coefficients / Hybrids
 ------------------ Lewis ------------------------------------------------------
   1. (1.99996) CR ( 1)Be  1            s(100.00%)
                                         1.0000  0.0000  0.0000  0.0000  0.0000
   2. (1.99999) CR ( 1)Li  2            s(100.00%)
                                         1.0000  0.0000  0.0000  0.0000  0.0000
   3. (1.88534) BD ( 1)Be  1-Li  2
               ( 49.18%)   0.7013*Be  1 s( 60.32%)p 0.66( 39.68%)
                                         0.0000  0.7767  0.0000  0.0000 -0.6299
               ( 50.82%)   0.7129*Li  2 s( 88.58%)p 0.13( 11.42%)
                                         0.0000  0.9412  0.0000  0.0000  0.3379
   4. (1.93162) BD ( 1)Be  1- H  3
               ( 22.80%)   0.4775*Be  1 s( 39.68%)p 1.52( 60.32%)
                                         0.0000  0.6299  0.0000  0.0000  0.7767
               ( 77.20%)   0.8786* H  3 s(100.00%)
                                         1.0000
 ---------------- non-Lewis ----------------------------------------------------
   5. (0.06780) BD*( 1)Be  1-Li  2
               ( 50.82%)   0.7129*Be  1 s( 60.32%)p 0.66( 39.68%)
                                         0.0000 -0.7767  0.0000  0.0000  0.6299
               ( 49.18%)  -0.7013*Li  2 s( 88.58%)p 0.13( 11.42%)
                                         0.0000 -0.9412  0.0000  0.0000 -0.3379
   6. (0.11467) BD*( 1)Be  1- H  3
               ( 77.20%)   0.8786*Be  1 s( 39.68%)p 1.52( 60.32%)
                                         0.0000  0.6299  0.0000  0.0000  0.7767
               ( 22.80%)  -0.4775* H  3 s(100.00%)
                                         1.0000
   7. (0.00000) RY ( 1)Be  1            s(  0.00%)p 1.00(100.00%)
   8. (0.00000) RY ( 2)Be  1            s(  0.00%)p 1.00(100.00%)
   9. (0.00062) RY ( 1)Li  2            s( 11.42%)p 7.76( 88.58%)
                                         0.0000  0.3379  0.0000  0.0000 -0.9412
  10. (0.00000) RY ( 2)Li  2            s(  0.00%)p 1.00(100.00%)
  11. (0.00000) RY ( 3)Li  2            s(  0.00%)p 1.00(100.00%)


 NHO DIRECTIONALITY AND BOND BENDING (deviation from line of nuclear centers at
                                      the position of maximum hybrid amplitude)

         [Thresholds for printing:  angular deviation  >  1.0 degree]
                                    p- or d-character  > 25.0%
                                    orbital occupancy  >  0.10e

                        Line of Centers        Hybrid 1             Hybrid 2
                        ---------------  -------------------  ------------------
           NBO            Theta   Phi    Theta   Phi    Dev   Theta   Phi    Dev
 ===============================================================================
    None exceeding thresholds


 SECOND ORDER PERTURBATION THEORY ANALYSIS OF FOCK MATRIX IN NBO BASIS

     Threshold for printing:   0.50 kcal/mol
                                                          E(2) E(NL)-E(L) F(L,NL)
      Donor (L) NBO              Acceptor (NL) NBO      kcal/mol   a.u.    a.u.
 ===============================================================================

 within unit  1
    3. BD ( 1)Be  1-Li  2       5. BD*( 1)Be  1-Li  2      1.30    0.46   0.022
    3. BD ( 1)Be  1-Li  2       6. BD*( 1)Be  1- H  3     74.40    0.86   0.226
    4. BD ( 1)Be  1- H  3       5. BD*( 1)Be  1-Li  2     33.34    0.67   0.133
    4. BD ( 1)Be  1- H  3       9. RY ( 1)Li  2            3.91    0.63   0.044


 NATURAL BOND ORBITALS (Summary):

                                                     Principal Delocalizations
           NBO                 Occupancy    Energy   (geminal,vicinal,remote)
 ===============================================================================
 Molecular unit  1  (HBeLi)
 ------ Lewis --------------------------------------
    1. CR ( 1)Be  1             1.99996    -4.48805
    2. CR ( 1)Li  2             1.99999    -2.32831
    3. BD ( 1)Be  1-Li  2       1.88534    -0.16555  6(g),5(g)
    4. BD ( 1)Be  1- H  3       1.93162    -0.37749  5(g),9(v)
 ------ non-Lewis ----------------------------------
    5. BD*( 1)Be  1-Li  2       0.06780     0.29278
    6. BD*( 1)Be  1- H  3       0.11467     0.69246
    7. RY ( 1)Be  1             0.00000     0.25750
    8. RY ( 2)Be  1             0.00000     0.25750
    9. RY ( 1)Li  2             0.00062     0.25738
   10. RY ( 2)Li  2             0.00000     0.17747
   11. RY ( 3)Li  2             0.00000     0.17747
          -------------------------------
                 Total Lewis    7.81691  ( 97.7114%)
           Valence non-Lewis    0.18247  (  2.2809%)
           Rydberg non-Lewis    0.00062  (  0.0077%)
          -------------------------------
               Total unit  1    8.00000  (100.0000%)
              Charge unit  1    0.00000

 $CHOOSE
   BOND S 1 2 S 1 3 END
 $END

 NBO analysis completed in 0.15 CPU seconds (1 wall second)
 Maximum scratch memory used by NBO was 221794 words (1.69 MB)
 Maximum scratch memory used by G16NBO was 8312 words (0.06 MB)

 Opening RunExU unformatted file "/cluster/work/users/beto93/LiBeH/Gau-1553547.EUF"
 Read unf file /cluster/work/users/beto93/LiBeH/Gau-1553547.EUF:
 Label Gaussian matrix elements                                         IVers= 2 NLab= 2 Version=ES64L-G16RevC.01
 Title NBO-LiBeH                                                       
 NAtoms=     3 NBasis=    11 NBsUse=    11 ICharg=     0 Multip=     1 NE=     8 Len12L=8 Len4L=8 IOpCl= 0 ICGU=111
 GAUSSIAN SCALARS                    NI= 1 NR= 1 NTot=       1 LenBuf=    2 NRI=1 N=    1000
 NPA CHARGES                         NI= 0 NR= 1 NTot=       3 LenBuf= 4000 NRI=1 N=       3
 Recovered energy= -22.2971876382     dipole=      0.000000000000      0.000000000000     -1.518044995417
 Calling FoFJK, ICntrl=      2127 FMM=F ISym2X=1 I1Cent= 0 IOpClX= 0 NMat=1 NMatS=1 NMatT=0.
 ***** Axes restored to original set *****
 -------------------------------------------------------------------
 Center     Atomic                   Forces (Hartrees/Bohr)
 Number     Number              X              Y              Z
 -------------------------------------------------------------------
      1        4          -0.000000000   -0.000000000   -0.000170876
      2        3          -0.000000000   -0.000000000   -0.000008102
      3        1          -0.000000000   -0.000000000    0.000178978
 -------------------------------------------------------------------
 Cartesian Forces:  Max     0.000178978 RMS     0.000082528

 GradGradGradGradGradGradGradGradGradGradGradGradGradGradGradGradGradGrad
 Berny optimization.
 FormGI is forming the generalized inverse of G from B-inverse, IUseBI=4.
 Internal  Forces:  Max     0.000178978 RMS     0.000089581
 Search for a local minimum.
 Step number   1 out of a maximum of   20
 All quantities printed in internal units (Hartrees-Bohrs-Radians)
 Mixed Optimization -- En-DIIS/RFO-DIIS
 Second derivative matrix not updated -- first step.
 The second derivative matrix:
                          R1        R2        A1        A2
           R1           0.04334
           R2           0.00000   0.18600
           A1           0.00000   0.00000   0.01162
           A2           0.00000   0.00000   0.00000   0.01162
 ITU=  0
     Eigenvalues ---    0.01162   0.01162   0.04334   0.18600
 RFO step:  Lambda=-1.73735137D-07 EMin= 1.16203669D-02
 Linear search not attempted -- first point.
 Iteration  1 RMS(Cart)=  0.00043603 RMS(Int)=  0.00000000
 Iteration  2 RMS(Cart)=  0.00000000 RMS(Int)=  0.00000000
 ClnCor:  largest displacement from symmetrization is 7.40D-17 for atom     1.
 Variable       Old X    -DE/DX   Delta X   Delta X   Delta X     New X
                                 (Linear)    (Quad)   (Total)
    R1        4.50511  -0.00001   0.00000  -0.00019  -0.00019   4.50492
    R2        2.45664  -0.00018   0.00000  -0.00096  -0.00096   2.45568
    A1        3.14159  -0.00000   0.00000   0.00000   0.00000   3.14159
    A2        3.14159  -0.00000   0.00000   0.00000   0.00000   3.14159
         Item               Value     Threshold  Converged?
 Maximum Force            0.000179     0.000002     NO 
 RMS     Force            0.000090     0.000001     NO 
 Maximum Displacement     0.000704     0.000006     NO 
 RMS     Displacement     0.000436     0.000004     NO 
 Predicted change in Energy=-8.686757D-08
 GradGradGradGradGradGradGradGradGradGradGradGradGradGradGradGradGradGrad

                          Input orientation:                          
 ---------------------------------------------------------------------
 Center     Atomic      Atomic             Coordinates (Angstroms)
 Number     Number       Type             X           Y           Z
 ---------------------------------------------------------------------
      1          4           0        0.000000    0.000000   -0.000137
      2          3           0        0.000000    0.000000    2.383764
      3          1           0        0.000000    0.000000   -1.299628
 ---------------------------------------------------------------------
                    Distance matrix (angstroms):
                    1          2          3
     1  Be   0.000000
     2  Li   2.383901   0.000000
     3  H    1.299491   3.683392   0.000000
 Stoichiometry    BeHLi
 Framework group  C*V[C*(LiBeH)]
 Deg. of freedom     2
 Full point group                 C*V     NOp   4
 Largest Abelian subgroup         C2V     NOp   4
 Largest concise Abelian subgroup C1      NOp   1
                         Standard orientation:                         
 ---------------------------------------------------------------------
 Center     Atomic      Atomic             Coordinates (Angstroms)
 Number     Number       Type             X           Y           Z
 ---------------------------------------------------------------------
      1          4           0        0.000000    0.000000    0.731527
      2          3           0        0.000000    0.000000   -1.652375
      3          1           0        0.000000    0.000000    2.031017
 ---------------------------------------------------------------------
 Rotational constants (GHZ):           0.0000000          18.2948897          18.2948897
 Standard basis: STO-3G (5D, 7F)
 There are     7 symmetry adapted cartesian basis functions of A1  symmetry.
 There are     0 symmetry adapted cartesian basis functions of A2  symmetry.
 There are     2 symmetry adapted cartesian basis functions of B1  symmetry.
 There are     2 symmetry adapted cartesian basis functions of B2  symmetry.
 There are     7 symmetry adapted basis functions of A1  symmetry.
 There are     0 symmetry adapted basis functions of A2  symmetry.
 There are     2 symmetry adapted basis functions of B1  symmetry.
 There are     2 symmetry adapted basis functions of B2  symmetry.
    11 basis functions,    33 primitive gaussians,    11 cartesian basis functions
     4 alpha electrons        4 beta electrons
       nuclear repulsion energy         4.7236270036 Hartrees.
 NAtoms=    3 NActive=    3 NUniq=    3 SFac= 1.00D+00 NAtFMM=   60 NAOKFM=F Big=F
 Integral buffers will be    131072 words long.
 Raffenetti 1 integral format.
 Two-electron integral symmetry is turned on.
 One-electron integrals computed using PRISM.
 NBasis=    11 RedAO= T EigKep=  2.34D-01  NBF=     7     0     2     2
 NBsUse=    11 1.00D-06 EigRej= -1.00D+00 NBFU=     7     0     2     2
 Initial guess from the checkpoint file:  "LiBeH.chk"
 B after Tr=     0.000000    0.000000    0.000000
         Rot=    1.000000    0.000000    0.000000    0.000000 Ang=   0.00 deg.
 Initial guess orbital symmetries:
       Occupied  (SG) (SG) (SG) (SG)
       Virtual   (SG) (PI) (PI) (PI) (PI) (SG) (SG)
 Keep R1 ints in memory in symmetry-blocked form, NReq=806001.
 Requested convergence on RMS density matrix=1.00D-08 within 128 cycles.
 Requested convergence on MAX density matrix=1.00D-06.
 Requested convergence on             energy=1.00D-06.
 No special actions if energy rises.
 SCF Done:  E(RHF) =  -22.2971877068     A.U. after    6 cycles
            NFock=  6  Conv=0.33D-08     -V/T= 1.9901
 Calling FoFJK, ICntrl=      2127 FMM=F ISym2X=1 I1Cent= 0 IOpClX= 0 NMat=1 NMatS=1 NMatT=0.
 ***** Axes restored to original set *****
 -------------------------------------------------------------------
 Center     Atomic                   Forces (Hartrees/Bohr)
 Number     Number              X              Y              Z
 -------------------------------------------------------------------
      1        4          -0.000000000   -0.000000000    0.000036996
      2        3          -0.000000000   -0.000000000    0.000000835
      3        1          -0.000000000   -0.000000000   -0.000037831
 -------------------------------------------------------------------
 Cartesian Forces:  Max     0.000037831 RMS     0.000017640

 GradGradGradGradGradGradGradGradGradGradGradGradGradGradGradGradGradGrad
 Berny optimization.
 Using GEDIIS/GDIIS optimizer.
 Internal  Forces:  Max     0.000037831 RMS     0.000018920
 Search for a local minimum.
 Step number   2 out of a maximum of   20
 All quantities printed in internal units (Hartrees-Bohrs-Radians)
 Mixed Optimization -- En-DIIS/RFO-DIIS
 Swapping is turned off.
 Update second derivatives using D2CorX and points    1    2
 DE= -6.86D-08 DEPred=-8.69D-08 R= 7.90D-01
 Trust test= 7.90D-01 RLast= 9.80D-04 DXMaxT set to 3.00D-01
 The second derivative matrix:
                          R1        R2        A1        A2
           R1           0.04335
           R2           0.00087   0.22515
           A1           0.00000   0.00000   0.01162
           A2           0.00000   0.00000   0.00000   0.01162
 ITU=  0  0
     Eigenvalues ---    0.01162   0.01162   0.04334   0.22515
 En-DIIS/RFO-DIIS/Sim-DIIS IScMMF=       -3 using points:     2    1
 RFO step:  Lambda=-5.43718129D-09.
 DidBck=F Rises=F RFO-DIIS coefs:    0.82869    0.17131
 Iteration  1 RMS(Cart)=  0.00007204 RMS(Int)=  0.00000000
 Iteration  2 RMS(Cart)=  0.00000000 RMS(Int)=  0.00000000
 ClnCor:  largest displacement from symmetrization is 4.44D-16 for atom     3.
 Variable       Old X    -DE/DX   Delta X   Delta X   Delta X     New X
                                 (Linear)    (Quad)   (Total)
    R1        4.50492   0.00000   0.00003  -0.00002   0.00002   4.50494
    R2        2.45568   0.00004   0.00016   0.00000   0.00017   2.45585
    A1        3.14159  -0.00000   0.00000   0.00000   0.00000   3.14159
    A2        3.14159  -0.00000   0.00000   0.00000   0.00000   3.14159
         Item               Value     Threshold  Converged?
 Maximum Force            0.000038     0.000002     NO 
 RMS     Force            0.000019     0.000001     NO 
 Maximum Displacement     0.000117     0.000006     NO 
 RMS     Displacement     0.000072     0.000004     NO 
 Predicted change in Energy=-3.183881D-09
 GradGradGradGradGradGradGradGradGradGradGradGradGradGradGradGradGradGrad

                          Input orientation:                          
 ---------------------------------------------------------------------
 Center     Atomic      Atomic             Coordinates (Angstroms)
 Number     Number       Type             X           Y           Z
 ---------------------------------------------------------------------
      1          4           0        0.000000    0.000000   -0.000110
      2          3           0        0.000000    0.000000    2.383800
      3          1           0        0.000000    0.000000   -1.299690
 ---------------------------------------------------------------------
                    Distance matrix (angstroms):
                    1          2          3
     1  Be   0.000000
     2  Li   2.383910   0.000000
     3  H    1.299580   3.683489   0.000000
 Stoichiometry    BeHLi
 Framework group  C*V[C*(LiBeH)]
 Deg. of freedom     2
 Full point group                 C*V     NOp   4
 Largest Abelian subgroup         C2V     NOp   4
 Largest concise Abelian subgroup C1      NOp   1
                         Standard orientation:                         
 ---------------------------------------------------------------------
 Center     Atomic      Atomic             Coordinates (Angstroms)
 Number     Number       Type             X           Y           Z
 ---------------------------------------------------------------------
      1          4           0        0.000000    0.000000    0.731519
      2          3           0        0.000000    0.000000   -1.652391
      3          1           0        0.000000    0.000000    2.031098
 ---------------------------------------------------------------------
 Rotational constants (GHZ):           0.0000000          18.2945124          18.2945124
 Standard basis: STO-3G (5D, 7F)
 There are     7 symmetry adapted cartesian basis functions of A1  symmetry.
 There are     0 symmetry adapted cartesian basis functions of A2  symmetry.
 There are     2 symmetry adapted cartesian basis functions of B1  symmetry.
 There are     2 symmetry adapted cartesian basis functions of B2  symmetry.
 There are     7 symmetry adapted basis functions of A1  symmetry.
 There are     0 symmetry adapted basis functions of A2  symmetry.
 There are     2 symmetry adapted basis functions of B1  symmetry.
 There are     2 symmetry adapted basis functions of B2  symmetry.
    11 basis functions,    33 primitive gaussians,    11 cartesian basis functions
     4 alpha electrons        4 beta electrons
       nuclear repulsion energy         4.7234948038 Hartrees.
 NAtoms=    3 NActive=    3 NUniq=    3 SFac= 1.00D+00 NAtFMM=   60 NAOKFM=F Big=F
 Integral buffers will be    131072 words long.
 Raffenetti 1 integral format.
 Two-electron integral symmetry is turned on.
 One-electron integrals computed using PRISM.
 NBasis=    11 RedAO= T EigKep=  2.34D-01  NBF=     7     0     2     2
 NBsUse=    11 1.00D-06 EigRej= -1.00D+00 NBFU=     7     0     2     2
 Initial guess from the checkpoint file:  "LiBeH.chk"
 B after Tr=     0.000000    0.000000    0.000000
         Rot=    1.000000    0.000000    0.000000    0.000000 Ang=   0.00 deg.
 Initial guess orbital symmetries:
       Occupied  (SG) (SG) (SG) (SG)
       Virtual   (SG) (PI) (PI) (PI) (PI) (SG) (SG)
 Keep R1 ints in memory in symmetry-blocked form, NReq=806001.
 Requested convergence on RMS density matrix=1.00D-08 within 128 cycles.
 Requested convergence on MAX density matrix=1.00D-06.
 Requested convergence on             energy=1.00D-06.
 No special actions if energy rises.
 SCF Done:  E(RHF) =  -22.2971877100     A.U. after    4 cycles
            NFock=  4  Conv=0.31D-08     -V/T= 1.9901
 Calling FoFJK, ICntrl=      2127 FMM=F ISym2X=1 I1Cent= 0 IOpClX= 0 NMat=1 NMatS=1 NMatT=0.
 ***** Axes restored to original set *****
 -------------------------------------------------------------------
 Center     Atomic                   Forces (Hartrees/Bohr)
 Number     Number              X              Y              Z
 -------------------------------------------------------------------
      1        4          -0.000000000   -0.000000000   -0.000000188
      2        3          -0.000000000   -0.000000000    0.000000133
      3        1          -0.000000000   -0.000000000    0.000000055
 -------------------------------------------------------------------
 Cartesian Forces:  Max     0.000000188 RMS     0.000000079

[...]
      Select eigenvectors with eigenvalue > 1.880
       2.000 0.482 0.000 0.000 0.000 0.000 0.000 0.000 0.000 0.000
      Eigenvector ( 1) has occupancy 2.00000
            0.0000 0.7078 0.0000 0.0000-0.2262 0.0000 0.6299 0.0000
            0.0000 0.2261
      1 hybrid on atom 1 stashed in prospective list
      1 hybrid on atom 2 stashed in prospective list

 Search of NAO DM block for the following atom(s):   1   3
      Select eigenvectors with eigenvalue > 1.880
       1.999 1.008 0.000 0.000 0.000 0.000
      Eigenvector ( 1) has occupancy 1.99947
            0.0000 0.5121 0.0000 0.0000 0.2282 0.8280
      1 hybrid on atom 1 stashed in prospective list
      1 hybrid on atom 3 stashed in prospective list

 Stash prospective hybrids having projection expectation value > 0.300
       0.443 0.443 0.443 0.443
      0 hybrids eliminated in 1 pass
      4 hybrids moved from prospective to permanent list

 NHOs of 2-center eigenvectors projected from the NAO density matrix
       0.001 electrons remain in the fully projected matrix

 Search of NHO DM block for the following atom(s):   1
      Select eigenvectors with eigenvalue > 1.880
       2.000 0.000 0.000 0.000 0.000
      Eigenvector ( 1) has occupancy 1.99996
            1.0000 0.0000 0.0000 0.0000 0.0000
           NBO accepted:    1. Label:CR ( 1)   1
        1 eigenvector(s) stashed in permanent list

 Search of NHO DM block for the following atom(s):   2
      Select eigenvectors with eigenvalue > 1.880
       2.000 0.001 0.000 0.000 0.000
      Eigenvector ( 1) has occupancy 1.99999
            1.0000 0.0000 0.0000 0.0000 0.0000
           NBO accepted:    2. Label:CR ( 1)   2
        1 eigenvector(s) stashed in permanent list

  1-center NBOs projected from the NHO density matrix
       4.000 electrons remain (>1.880); search continues

 Search of NHO DM block for the following atom(s):   1   2
      Select eigenvectors with eigenvalue > 1.880
       1.885 0.068 0.000 0.000 0.000 0.000 0.000 0.000 0.000 0.000
      Eigenvector ( 1) has occupancy 1.88532
            0.0000 0.7013 0.0000 0.0000 0.0000 0.0000 0.7129 0.0000
            0.0000 0.0000
      Occupancy is 1.885 after deleting minor hybrid components
            0.0000 0.7013 0.0000 0.0000 0.0000 0.0000 0.7129 0.0000
            0.0000 0.0000
           NBO accepted:    3. Label:BD ( 1)   1   2
      Occupancy is 0.068 for antibonding component
            0.0000 0.7129 0.0000 0.0000 0.0000 0.0000-0.7013 0.0000
            0.0000 0.0000
           NBO accepted:    4. Label:BD*( 1)   1   2
        2 eigenvector(s) stashed in permanent list

 Search of NHO DM block for the following atom(s):   1   3
      Select eigenvectors with eigenvalue > 1.880
       1.932 0.115 0.000 0.000 0.000 0.000
      Eigenvector ( 1) has occupancy 1.93163
            0.0000 0.0000 0.4774 0.0000 0.0000 0.8787
      Occupancy is 1.932 after deleting minor hybrid components
            0.0000 0.0000 0.4774 0.0000 0.0000 0.8787
           NBO accepted:    5. Label:BD ( 1)   1   3
      Occupancy is 0.115 for antibonding component
            0.0000 0.0000 0.8787 0.0000 0.0000-0.4774
           NBO accepted:    6. Label:BD*( 1)   1   3
        2 eigenvector(s) stashed in permanent list

  2-center NBOs projected from the NHO density matrix
       0.001 electrons remain in the fully projected matrix

                            Occupancies       Lewis Structure    Low   High
         Max    Occ     -------------------  -----------------   occ   occ
  Cycle  Ctr   Thresh    Lewis   non-Lewis     CR  BD  nC  LP    (L)   (NL)
 ============================================================================
    2     2     1.88     7.81690   0.18310      2   2   0   0     0      1

 Initiate 2-center NBO search using THRESH = 1.510 and PRJTHR = 0.300

 Search of NAO DM block for core orbitals on atom:   1
      Eigenvector ( 1) has occupancy 1.99996
            1.0000 0.0000 0.0000 0.0000 0.0000
        1 eigenvector(s) stashed in permanent list

 Search of NAO DM block for core orbitals on atom:   2
      Eigenvector ( 1) has occupancy 1.99999
            1.0000 0.0000 0.0000 0.0000 0.0000
        1 eigenvector(s) stashed in permanent list

 Core orbitals projected from the NAO density matrix
       4.000 electrons remain (>1.510); search continues

 Search of NAO DM block for the following atom(s):   3
      Select eigenvectors with eigenvalue > 1.510
       1.518
      Eigenvector ( 1) has occupancy 1.51755
            1.0000
      1 hybrid on atom 3 stashed in prospective list

 Stash prospective hybrids having projection expectation value > 0.300
       1.000
      0 hybrids eliminated in 1 pass
      1 hybrid moved from prospective to permanent list

 NHOs of 1-center eigenvectors projected from the NAO density matrix
       2.483 electrons remain (>1.510); search continues

 Search of NAO DM block for the following atom(s):   1   2
      Select eigenvectors with eigenvalue > 1.510
       2.000 0.482 0.000 0.000 0.000 0.000 0.000 0.000 0.000 0.000
      Eigenvector ( 1) has occupancy 2.00000
            0.0000 0.7078 0.0000 0.0000-0.2262 0.0000 0.6299 0.0000
            0.0000 0.2261
      1 hybrid on atom 1 stashed in prospective list
      1 hybrid on atom 2 stashed in prospective list

 Stash prospective hybrids having projection expectation value > 0.300
       1.000 1.000
      0 hybrids eliminated in 1 pass
      2 hybrids moved from prospective to permanent list

 NHOs of 2-center eigenvectors projected from the NAO density matrix
       0.309 electrons remain in the fully projected matrix

 Search of NHO DM block for the following atom(s):   1
      Select eigenvectors with eigenvalue > 1.510
       2.000 0.308 0.000 0.000 0.000
      Eigenvector ( 1) has occupancy 1.99996
            1.0000 0.0000 0.0000 0.0000 0.0000
           NBO accepted:    1. Label:CR ( 1)   1
        1 eigenvector(s) stashed in permanent list

 Search of NHO DM block for the following atom(s):   2
      Select eigenvectors with eigenvalue > 1.510
       2.000 0.001 0.000 0.000 0.000
      Eigenvector ( 1) has occupancy 1.99999
            1.0000 0.0000 0.0000 0.0000 0.0000
           NBO accepted:    2. Label:CR ( 1)   2
        1 eigenvector(s) stashed in permanent list

 Search of NHO DM block for the following atom(s):   3
      Select eigenvectors with eigenvalue > 1.510
       1.518
      Eigenvector ( 1) has occupancy 1.51755
            1.0000
           NBO accepted:    3. Label:LP ( 1)   3
        1 eigenvector(s) stashed in permanent list

  1-center NBOs projected from the NHO density matrix
       2.483 electrons remain (>1.510); search continues

 Search of NHO DM block for the following atom(s):   1   2
      Select eigenvectors with eigenvalue > 1.510
       2.000 0.173 0.000 0.000 0.000 0.000 0.000 0.000 0.000 0.000
      Eigenvector ( 1) has occupancy 2.00000
            0.0000 0.7430 0.0000 0.0000 0.0000 0.0000 0.6692 0.0000
            0.0000 0.0000
      Occupancy is 2.000 after deleting minor hybrid components
            0.0000 0.7430 0.0000 0.0000 0.0000 0.0000 0.6692 0.0000
            0.0000 0.0000
           NBO accepted:    4. Label:BD ( 1)   1   2
      Occupancy is 0.173 for antibonding component
            0.0000-0.6692 0.0000 0.0000 0.0000 0.0000 0.7430 0.0000
            0.0000 0.0000
           NBO accepted:    5. Label:BD*( 1)   1   2
        2 eigenvector(s) stashed in permanent list

  2-center NBOs projected from the NHO density matrix
       0.309 electrons remain in the fully projected matrix

                            Occupancies       Lewis Structure    Low   High
         Max    Occ     -------------------  -----------------   occ   occ
  Cycle  Ctr   Thresh    Lewis   non-Lewis     CR  BD  nC  LP    (L)   (NL)
 ============================================================================
    3     2     1.51     7.51750   0.48250      2   1   0   1     0      2

 Initiate 2-center NBO search using THRESH = 1.880 and PRJTHR = 0.300

 Search of NAO DM block for core orbitals on atom:   1
      Eigenvector ( 1) has occupancy 1.99996
            1.0000 0.0000 0.0000 0.0000 0.0000
        1 eigenvector(s) stashed in permanent list

 Search of NAO DM block for core orbitals on atom:   2
      Eigenvector ( 1) has occupancy 1.99999
            1.0000 0.0000 0.0000 0.0000 0.0000
        1 eigenvector(s) stashed in permanent list

 Core orbitals projected from the NAO density matrix
       4.000 electrons remain (>1.880); search continues

 Search of NAO DM block for the following atom(s):   3
      Select eigenvectors with eigenvalue > 1.880
       1.518

 No NHOs identified in the 1-center search of the NAO density matrix
       4.000 electrons remain (>1.880); search continues

 Search of NAO DM block for the following atom(s):   1   2
      Select eigenvectors with eigenvalue > 1.880
       2.000 0.482 0.000 0.000 0.000 0.000 0.000 0.000 0.000 0.000
      Eigenvector ( 1) has occupancy 2.00000
            0.0000 0.7078 0.0000 0.0000-0.2262 0.0000 0.6299 0.0000
            0.0000 0.2261
      1 hybrid on atom 1 stashed in prospective list
      1 hybrid on atom 2 stashed in prospective list

 Search of NAO DM block for the following atom(s):   1   3
      Select eigenvectors with eigenvalue > 1.880
       1.999 1.008 0.000 0.000 0.000 0.000
      Eigenvector ( 1) has occupancy 1.99947
            0.0000 0.5121 0.0000 0.0000 0.2282 0.8280
      1 hybrid on atom 1 stashed in prospective list
      1 hybrid on atom 3 stashed in prospective list

 Stash prospective hybrids having projection expectation value > 0.300
       0.443 0.443 0.443 0.443
      0 hybrids eliminated in 1 pass
      4 hybrids moved from prospective to permanent list

 NHOs of 2-center eigenvectors projected from the NAO density matrix
       0.001 electrons remain in the fully projected matrix

 Search of NHO DM block for the following atom(s):   1
      Select eigenvectors with eigenvalue > 1.880
       2.000 0.000 0.000 0.000 0.000
      Eigenvector ( 1) has occupancy 1.99996
            1.0000 0.0000 0.0000 0.0000 0.0000
           NBO accepted:    1. Label:CR ( 1)   1
        1 eigenvector(s) stashed in permanent list

 Search of NHO DM block for the following atom(s):   2
      Select eigenvectors with eigenvalue > 1.880
       2.000 0.001 0.000 0.000 0.000
      Eigenvector ( 1) has occupancy 1.99999
            1.0000 0.0000 0.0000 0.0000 0.0000
           NBO accepted:    2. Label:CR ( 1)   2
        1 eigenvector(s) stashed in permanent list

  1-center NBOs projected from the NHO density matrix
       4.000 electrons remain (>1.880); search continues

 Search of NHO DM block for the following atom(s):   1   2
      Select eigenvectors with eigenvalue > 1.880
       1.885 0.068 0.000 0.000 0.000 0.000 0.000 0.000 0.000 0.000
      Eigenvector ( 1) has occupancy 1.88532
            0.0000 0.7013 0.0000 0.0000 0.0000 0.0000 0.7129 0.0000
            0.0000 0.0000
      Occupancy is 1.885 after deleting minor hybrid components
            0.0000 0.7013 0.0000 0.0000 0.0000 0.0000 0.7129 0.0000
            0.0000 0.0000
           NBO accepted:    3. Label:BD ( 1)   1   2
      Occupancy is 0.068 for antibonding component
            0.0000 0.7129 0.0000 0.0000 0.0000 0.0000-0.7013 0.0000
            0.0000 0.0000
           NBO accepted:    4. Label:BD*( 1)   1   2
        2 eigenvector(s) stashed in permanent list

 Search of NHO DM block for the following atom(s):   1   3
      Select eigenvectors with eigenvalue > 1.880
       1.932 0.115 0.000 0.000 0.000 0.000
      Eigenvector ( 1) has occupancy 1.93163
            0.0000 0.0000 0.4774 0.0000 0.0000 0.8787
      Occupancy is 1.932 after deleting minor hybrid components
            0.0000 0.0000 0.4774 0.0000 0.0000 0.8787
           NBO accepted:    5. Label:BD ( 1)   1   3
      Occupancy is 0.115 for antibonding component
            0.0000 0.0000 0.8787 0.0000 0.0000-0.4774
           NBO accepted:    6. Label:BD*( 1)   1   3
        2 eigenvector(s) stashed in permanent list

  2-center NBOs projected from the NHO density matrix
       0.001 electrons remain in the fully projected matrix

                            Occupancies       Lewis Structure    Low   High
         Max    Occ     -------------------  -----------------   occ   occ
  Cycle  Ctr   Thresh    Lewis   non-Lewis     CR  BD  nC  LP    (L)   (NL)
 ============================================================================
    4     2     1.88     7.81690   0.18310      2   2   0   0     0      1
 ----------------------------------------------------------------------------

 Structure accepted: No low occupancy Lewis orbitals

 -------------------------------------------------------
   Core                      3.99995 ( 99.999% of   4)
   Valence Lewis             3.81695 ( 95.424% of   4)
  ==================      =============================
   Total Lewis               7.81690 ( 97.711% of   8)
  -----------------------------------------------------
   Valence non-Lewis         0.18248 (  2.281% of   8)
   Rydberg non-Lewis         0.00062 (  0.008% of   8)
  ==================      =============================
   Total non-Lewis           0.18310 (  2.289% of   8)
 -------------------------------------------------------


     (Occupancy)   Bond orbital / Coefficients / Hybrids
 ------------------ Lewis ------------------------------------------------------
   1. (1.99996) CR ( 1)Be  1            s(100.00%)
                                         1.0000  0.0000  0.0000  0.0000  0.0000
   2. (1.99999) CR ( 1)Li  2            s(100.00%)
                                         1.0000  0.0000  0.0000  0.0000  0.0000
   3. (1.88532) BD ( 1)Be  1-Li  2
               ( 49.18%)   0.7013*Be  1 s( 60.32%)p 0.66( 39.68%)
                                         0.0000  0.7767  0.0000  0.0000 -0.6299
               ( 50.82%)   0.7129*Li  2 s( 88.58%)p 0.13( 11.42%)
                                         0.0000  0.9412  0.0000  0.0000  0.3379
   4. (1.93163) BD ( 1)Be  1- H  3
               ( 22.79%)   0.4774*Be  1 s( 39.68%)p 1.52( 60.32%)
                                         0.0000  0.6299  0.0000  0.0000  0.7767
               ( 77.21%)   0.8787* H  3 s(100.00%)
                                         1.0000
 ---------------- non-Lewis ----------------------------------------------------
   5. (0.06779) BD*( 1)Be  1-Li  2
               ( 50.82%)   0.7129*Be  1 s( 60.32%)p 0.66( 39.68%)
                                         0.0000 -0.7767  0.0000  0.0000  0.6299
               ( 49.18%)  -0.7013*Li  2 s( 88.58%)p 0.13( 11.42%)
                                         0.0000 -0.9412  0.0000  0.0000 -0.3379
   6. (0.11469) BD*( 1)Be  1- H  3
               ( 77.21%)   0.8787*Be  1 s( 39.68%)p 1.52( 60.32%)
                                         0.0000  0.6299  0.0000  0.0000  0.7767
               ( 22.79%)  -0.4774* H  3 s(100.00%)
                                         1.0000
   7. (0.00000) RY ( 1)Be  1            s(  0.00%)p 1.00(100.00%)
   8. (0.00000) RY ( 2)Be  1            s(  0.00%)p 1.00(100.00%)
   9. (0.00062) RY ( 1)Li  2            s( 11.42%)p 7.76( 88.58%)
                                         0.0000  0.3379  0.0000  0.0000 -0.9412
  10. (0.00000) RY ( 2)Li  2            s(  0.00%)p 1.00(100.00%)
  11. (0.00000) RY ( 3)Li  2            s(  0.00%)p 1.00(100.00%)


 NHO DIRECTIONALITY AND BOND BENDING (deviation from line of nuclear centers at
                                      the position of maximum hybrid amplitude)

         [Thresholds for printing:  angular deviation  >  1.0 degree]
                                    p- or d-character  > 25.0%
                                    orbital occupancy  >  0.10e

                        Line of Centers        Hybrid 1             Hybrid 2
                        ---------------  -------------------  ------------------
           NBO            Theta   Phi    Theta   Phi    Dev   Theta   Phi    Dev
 ===============================================================================
    None exceeding thresholds


 SECOND ORDER PERTURBATION THEORY ANALYSIS OF FOCK MATRIX IN NBO BASIS

     Threshold for printing:   0.50 kcal/mol
                                                          E(2) E(NL)-E(L) F(L,NL)
      Donor (L) NBO              Acceptor (NL) NBO      kcal/mol   a.u.    a.u.
 ===============================================================================

 within unit  1
    3. BD ( 1)Be  1-Li  2       5. BD*( 1)Be  1-Li  2      1.30    0.46   0.022
    3. BD ( 1)Be  1-Li  2       6. BD*( 1)Be  1- H  3     74.44    0.86   0.226
    4. BD ( 1)Be  1- H  3       5. BD*( 1)Be  1-Li  2     33.34    0.67   0.133
    4. BD ( 1)Be  1- H  3       9. RY ( 1)Li  2            3.91    0.63   0.044


 NATURAL BOND ORBITALS (Summary):

                                                     Principal Delocalizations
           NBO                 Occupancy    Energy   (geminal,vicinal,remote)
 ===============================================================================
 Molecular unit  1  (HBeLi)
 ------ Lewis --------------------------------------
    1. CR ( 1)Be  1             1.99996    -4.48804
    2. CR ( 1)Li  2             1.99999    -2.32830
    3. BD ( 1)Be  1-Li  2       1.88532    -0.16553  6(g),5(g)
    4. BD ( 1)Be  1- H  3       1.93163    -0.37757  5(g),9(v)
 ------ non-Lewis ----------------------------------
    5. BD*( 1)Be  1-Li  2       0.06779     0.29280
    6. BD*( 1)Be  1- H  3       0.11469     0.69274
    7. RY ( 1)Be  1             0.00000     0.25750
    8. RY ( 2)Be  1             0.00000     0.25750
    9. RY ( 1)Li  2             0.00062     0.25739
   10. RY ( 2)Li  2             0.00000     0.17748
   11. RY ( 3)Li  2             0.00000     0.17748
          -------------------------------
                 Total Lewis    7.81690  ( 97.7113%)
           Valence non-Lewis    0.18248  (  2.2810%)
           Rydberg non-Lewis    0.00062  (  0.0077%)
          -------------------------------
               Total unit  1    8.00000  (100.0000%)
              Charge unit  1    0.00000

 $CHOOSE
   BOND S 1 2 S 1 3 END
 $END

 NBO analysis completed in 0.15 CPU seconds (0 wall seconds)
 Maximum scratch memory used by NBO was 221794 words (1.69 MB)
 Maximum scratch memory used by G16NBO was 8312 words (0.06 MB)

 Opening RunExU unformatted file "/cluster/work/users/beto93/LiBeH/Gau-1553547.EUF"
 Read unf file /cluster/work/users/beto93/LiBeH/Gau-1553547.EUF:
 Label Gaussian matrix elements                                         IVers= 2 NLab= 2 Version=ES64L-G16RevC.01
 Title NBO-LiBeH                                                       
 NAtoms=     3 NBasis=    11 NBsUse=    11 ICharg=     0 Multip=     1 NE=     8 Len12L=8 Len4L=8 IOpCl= 0 ICGU=111
 GAUSSIAN SCALARS                    NI= 1 NR= 1 NTot=       1 LenBuf=    2 NRI=1 N=    1000
 NPA CHARGES                         NI= 0 NR= 1 NTot=       3 LenBuf= 4000 NRI=1 N=       3
 Recovered energy= -22.2971877100     dipole=      0.000000000000      0.000000000000     -1.517918242695
 Unable to Open any file for archive entry.
 1\1\GINC-C1-1\FOpt\RHF\STO-3G\Be1H1Li1\BETO93\24-Jul-2024\0\\#OPT=Very
 Tight Int=UltraFine RHF/STO-3G Pop=NBO7Read\\NBO-LiBeH\\0,1\Be,0.,0.,-
 0.0001099383\Li,0.,0.,2.3837995634\H,0.,0.,-1.2996896252\\Version=ES64
 L-G16RevC.01\State=1-SG\HF=-22.2971877\RMSD=3.089e-09\RMSF=7.896e-08\D
 ipole=0.,0.,1.5179182\Quadrupole=-1.6321177,-1.6321177,3.2642353,0.,0.
 ,0.\PG=C*V [C*(Li1Be1H1)]\\@
 The archive entry for this job was punched.


 SI MONUMENTUM REQUIRIS, CIRCUMSPICE
     -- FROM SIR CHRISTOPHER WREN'S TOMBSTONE
 Job cpu time:       0 days  0 hours  0 minutes 29.7 seconds.
 Elapsed time:       0 days  0 hours  0 minutes 10.1 seconds.
 File lengths (MBytes):  RWF=     10 Int=      0 D2E=      0 Chk=      1 Scr=      1
 Normal termination of Gaussian 16 at Wed Jul 24 10:54:17 2024.
